       N       E                     dE             d eps       ncg     rms          rms(c)
DAV:   1     0.126852278003E+05    0.12685E+05   -0.82933E+05  4440   0.144E+03
DAV:   2    -0.107440137423E+04   -0.13760E+05   -0.13180E+05  5296   0.330E+02
DAV:   3    -0.247076050976E+04   -0.13964E+04   -0.13836E+04  5360   0.111E+02
DAV:   4    -0.251620532742E+04   -0.45445E+02   -0.45231E+02  6600   0.297E+01
DAV:   5    -0.251711401452E+04   -0.90869E+00   -0.90732E+00  5600   0.338E+00    0.171E+02
RMM:   6    -0.147918612019E+04    0.10379E+04   -0.19518E+03  4389   0.390E+01    0.755E+01
RMM:   7    -0.165363056903E+04   -0.17444E+03   -0.32144E+02  4993   0.144E+01    0.577E+01
RMM:   8    -0.168231124194E+04   -0.28681E+02   -0.71558E+01  5164   0.821E+00    0.392E+01
RMM:   9    -0.178100368710E+04   -0.98692E+02   -0.62038E+01  4868   0.632E+00    0.397E+01
RMM:  10    -0.190953002094E+04   -0.12853E+03   -0.67502E+01  5159   0.785E+00    0.312E+01
RMM:  11    -0.196838845221E+04   -0.58858E+02   -0.28336E+01  5163   0.441E+00    0.190E+01
RMM:  12    -0.206890529655E+04   -0.10052E+03   -0.44143E+01  4593   0.527E+00    0.141E+01
RMM:  13    -0.214931211695E+04   -0.80407E+02   -0.42329E+01  4590   0.485E+00    0.108E+01
RMM:  14    -0.226069427530E+04   -0.11138E+03   -0.10405E+02  4385   0.707E+00    0.821E+00
RMM:  15    -0.228833594025E+04   -0.27642E+02   -0.24554E+01  4494   0.399E+00    0.736E+00
RMM:  16    -0.229615118514E+04   -0.78152E+01   -0.82957E+00  4746   0.206E+00    0.597E+00
RMM:  17    -0.230067839520E+04   -0.45272E+01   -0.30190E+00  4524   0.132E+00    0.548E+00
RMM:  18    -0.230337145720E+04   -0.26931E+01   -0.14060E+00  4543   0.904E-01    0.381E+00
RMM:  19    -0.230528415895E+04   -0.19127E+01   -0.84145E-01  4705   0.683E-01    0.162E+00
RMM:  20    -0.230623199196E+04   -0.94783E+00   -0.52020E-01  4801   0.490E-01    0.826E-01
RMM:  21    -0.230647017932E+04   -0.23819E+00   -0.23114E-01  4685   0.319E-01    0.578E-01
RMM:  22    -0.230658704779E+04   -0.11687E+00   -0.94763E-02  4718   0.191E-01    0.422E-01
RMM:  23    -0.230663565206E+04   -0.48604E-01   -0.25404E-02  4684   0.108E-01    0.184E-01
RMM:  24    -0.230665900045E+04   -0.23348E-01   -0.80934E-03  4481   0.646E-02    0.134E-01
RMM:  25    -0.230667533791E+04   -0.16337E-01   -0.48631E-03  4419   0.524E-02    0.116E-01
RMM:  26    -0.230668393502E+04   -0.85971E-02   -0.24894E-03  4463   0.416E-02    0.738E-02
RMM:  27    -0.230668809874E+04   -0.41637E-02   -0.11528E-03  4264   0.278E-02    0.379E-02
RMM:  28    -0.230669125725E+04   -0.31585E-02   -0.84077E-04  4070   0.215E-02    0.255E-02
RMM:  29    -0.230669254687E+04   -0.12896E-02   -0.38856E-04  3994   0.177E-02    0.148E-02
RMM:  30    -0.230669288420E+04   -0.33733E-03   -0.13842E-04  3795   0.107E-02    0.718E-03
RMM:  31    -0.230669302478E+04   -0.14058E-03   -0.37174E-05  3336   0.649E-03    0.447E-03
RMM:  32    -0.230669310570E+04   -0.80919E-04   -0.20735E-05  3045   0.474E-03    0.271E-03
RMM:  33    -0.230669313782E+04   -0.32125E-04   -0.11156E-05  2835   0.387E-03    0.157E-03
RMM:  34    -0.230669314529E+04   -0.74732E-05   -0.43766E-06  2559   0.269E-03
   1 F= -.23271162E+04 E0= -.23271162E+04  d E =-.232712E+04  mag=     4.0000
       N       E                     dE             d eps       ncg     rms          rms(c)
DAV:   1    -0.230636809993E+04    0.32504E+00   -0.46630E+01  4824   0.591E+00    0.256E+00
RMM:   2    -0.230717139808E+04   -0.80330E+00   -0.79108E+00  5918   0.156E+00    0.272E+00
RMM:   3    -0.230713521264E+04    0.36185E-01   -0.66221E-01  5415   0.467E-01    0.177E+00
RMM:   4    -0.230710722108E+04    0.27992E-01   -0.72342E-02  5397   0.138E-01    0.672E-01
RMM:   5    -0.230710380429E+04    0.34168E-02   -0.29131E-02  5528   0.105E-01    0.496E-01
RMM:   6    -0.230710175794E+04    0.20464E-02   -0.10107E-02  5720   0.597E-02    0.192E-01
RMM:   7    -0.230710152302E+04    0.23492E-03   -0.15682E-03  4996   0.284E-02    0.817E-02
RMM:   8    -0.230710148649E+04    0.36527E-04   -0.44971E-04  4843   0.165E-02    0.439E-02
RMM:   9    -0.230710148589E+04    0.60209E-06   -0.23236E-04  4526   0.114E-02    0.236E-02
RMM:  10    -0.230710150100E+04   -0.15114E-04   -0.67997E-05  3847   0.772E-03    0.123E-02
RMM:  11    -0.230710152472E+04   -0.23716E-04   -0.47113E-05  3521   0.614E-03    0.795E-03
RMM:  12    -0.230710154400E+04   -0.19281E-04   -0.21280E-05  2983   0.530E-03    0.395E-03
RMM:  13    -0.230710155504E+04   -0.11045E-04   -0.10592E-05  2803   0.417E-03    0.215E-03
RMM:  14    -0.230710156220E+04   -0.71544E-05   -0.55387E-06  2791   0.321E-03
   2 F= -.23275228E+04 E0= -.23275228E+04  d E =-.406558E+00  mag=     4.0000
       N       E                     dE             d eps       ncg     rms          rms(c)
DAV:   1    -0.230707522162E+04    0.26333E-01   -0.26383E+00  4736   0.140E+00    0.594E-01
RMM:   2    -0.230711559518E+04   -0.40374E-01   -0.39792E-01  5602   0.344E-01    0.565E-01
RMM:   3    -0.230711782367E+04   -0.22285E-02   -0.54066E-02  4935   0.184E-01    0.474E-01
RMM:   4    -0.230711616677E+04    0.16569E-02   -0.47024E-03  5234   0.346E-02    0.173E-01
RMM:   5    -0.230711609094E+04    0.75832E-04   -0.18626E-03  5316   0.249E-02    0.161E-01
RMM:   6    -0.230711575591E+04    0.33503E-03   -0.88996E-04  5171   0.169E-02    0.413E-02
RMM:   7    -0.230711576650E+04   -0.10588E-04   -0.96928E-05  3542   0.907E-03    0.205E-02
RMM:   8    -0.230711577701E+04   -0.10512E-04   -0.33574E-05  3020   0.502E-03    0.112E-02
RMM:   9    -0.230711578627E+04   -0.92652E-05   -0.15360E-05  2849   0.419E-03
   3 F= -.23275365E+04 E0= -.23275365E+04  d E =-.420277E+00  mag=     4.0000
       N       E                     dE             d eps       ncg     rms          rms(c)
DAV:   1    -0.230664846553E+04    0.46731E+00   -0.39960E+01  4456   0.511E+00    0.228E+00
RMM:   2    -0.230748372444E+04   -0.83526E+00   -0.83401E+00  6016   0.139E+00    0.169E+00
RMM:   3    -0.230750259931E+04   -0.18875E-01   -0.64511E-01  5485   0.415E-01    0.160E+00
RMM:   4    -0.230748713521E+04    0.15464E-01   -0.70445E-02  5771   0.114E-01    0.663E-01
RMM:   5    -0.230748593032E+04    0.12049E-02   -0.21816E-02  5217   0.656E-02    0.494E-01
RMM:   6    -0.230748833770E+04   -0.24074E-02   -0.11292E-02  5293   0.578E-02    0.216E-01
RMM:   7    -0.230748977438E+04   -0.14367E-02   -0.27616E-03  5129   0.314E-02    0.133E-01
RMM:   8    -0.230749107961E+04   -0.13052E-02   -0.13901E-03  4158   0.173E-02    0.111E-01
RMM:   9    -0.230749186130E+04   -0.78169E-03   -0.85883E-04  4019   0.154E-02    0.454E-02
RMM:  10    -0.230749215451E+04   -0.29321E-03   -0.23358E-04  3524   0.883E-03    0.255E-02
RMM:  11    -0.230749234984E+04   -0.19533E-03   -0.89811E-05  3333   0.596E-03    0.138E-02
RMM:  12    -0.230749246929E+04   -0.11946E-03   -0.53948E-05  3038   0.529E-03    0.910E-03
RMM:  13    -0.230749250642E+04   -0.37123E-04   -0.16686E-05  2856   0.376E-03    0.603E-03
RMM:  14    -0.230749253269E+04   -0.26276E-04   -0.91081E-06  2756   0.282E-03    0.411E-03
RMM:  15    -0.230749254559E+04   -0.12903E-04   -0.41413E-06  2551   0.238E-03    0.241E-03
RMM:  16    -0.230749255000E+04   -0.44070E-05   -0.20290E-06  2440   0.177E-03
   4 F= -.23279105E+04 E0= -.23279105E+04  d E =-.374024E+00  mag=     4.0000
       N       E                     dE             d eps       ncg     rms          rms(c)
DAV:   1    -0.230698545472E+04    0.50709E+00   -0.29832E+01  4432   0.459E+00    0.187E+00
RMM:   2    -0.230762812131E+04   -0.64267E+00   -0.65895E+00  6043   0.120E+00    0.122E+00
RMM:   3    -0.230764300140E+04   -0.14880E-01   -0.47089E-01  5464   0.348E-01    0.119E+00
RMM:   4    -0.230763662768E+04    0.63737E-02   -0.55684E-02  5802   0.934E-02    0.553E-01
RMM:   5    -0.230763265988E+04    0.39678E-02   -0.11613E-02  5332   0.486E-02    0.362E-01
RMM:   6    -0.230763159998E+04    0.10599E-02   -0.61358E-03  5553   0.422E-02    0.171E-01
RMM:   7    -0.230763145212E+04    0.14786E-03   -0.79354E-04  5156   0.219E-02    0.756E-02
RMM:   8    -0.230763141968E+04    0.32442E-04   -0.23383E-04  3946   0.924E-03    0.411E-02
RMM:   9    -0.230763140069E+04    0.18992E-04   -0.96464E-05  3115   0.757E-03    0.181E-02
RMM:  10    -0.230763139914E+04    0.15508E-05   -0.21437E-05  2877   0.415E-03
   5 F= -.23280469E+04 E0= -.23280469E+04  d E =-.510395E+00  mag=     4.0000
       N       E                     dE             d eps       ncg     rms          rms(c)
DAV:   1    -0.230758193615E+04    0.49465E-01   -0.11581E+01  4488   0.303E+00    0.138E+00
RMM:   2    -0.230780781119E+04   -0.22588E+00   -0.24368E+00  5877   0.905E-01    0.103E+00
RMM:   3    -0.230780687749E+04    0.93370E-03   -0.17437E-01  4960   0.285E-01    0.775E-01
RMM:   4    -0.230780421873E+04    0.26588E-02   -0.25307E-02  5767   0.696E-02    0.440E-01
RMM:   5    -0.230780270584E+04    0.15129E-02   -0.59805E-03  5291   0.444E-02    0.280E-01
RMM:   6    -0.230780195007E+04    0.75577E-03   -0.22702E-03  5229   0.323E-02    0.992E-02
RMM:   7    -0.230780185348E+04    0.96589E-04   -0.32528E-04  4523   0.163E-02    0.460E-02
RMM:   8    -0.230780184673E+04    0.67580E-05   -0.11909E-04  3728   0.923E-03    0.235E-02
RMM:   9    -0.230780184594E+04    0.78524E-06   -0.29658E-05  2929   0.525E-03
   6 F= -.23282155E+04 E0= -.23282155E+04  d E =-.168565E+00  mag=     4.0000
       N       E                     dE             d eps       ncg     rms          rms(c)
DAV:   1    -0.230779063978E+04    0.11207E-01   -0.12454E+00  4712   0.101E+00    0.450E-01
RMM:   2    -0.230781365503E+04   -0.23015E-01   -0.25037E-01  5723   0.288E-01    0.314E-01
RMM:   3    -0.230781418610E+04   -0.53107E-03   -0.22013E-02  5002   0.116E-01    0.238E-01
RMM:   4    -0.230781399095E+04    0.19515E-03   -0.27228E-03  5076   0.233E-02    0.138E-01
RMM:   5    -0.230781385953E+04    0.13142E-03   -0.64325E-04  4723   0.156E-02    0.926E-02
RMM:   6    -0.230781378401E+04    0.75512E-04   -0.22303E-04  4314   0.111E-02    0.321E-02
RMM:   7    -0.230781377391E+04    0.10100E-04   -0.32680E-05  2962   0.640E-03    0.141E-02
RMM:   8    -0.230781377429E+04   -0.37730E-06   -0.15175E-05  2830   0.413E-03
   7 F= -.23282268E+04 E0= -.23282268E+04  d E =-.179880E+00  mag=     4.0000
       N       E                     dE             d eps       ncg     rms          rms(c)
DAV:   1    -0.230777156028E+04    0.42214E-01   -0.76545E+00  4512   0.264E+00    0.106E+00
RMM:   2    -0.230788022340E+04   -0.10866E+00   -0.11801E+00  5932   0.656E-01    0.572E-01
RMM:   3    -0.230788385239E+04   -0.36290E-02   -0.83760E-02  5715   0.179E-01    0.424E-01
RMM:   4    -0.230788334039E+04    0.51200E-03   -0.10449E-02  5599   0.447E-02    0.304E-01
RMM:   5    -0.230788272165E+04    0.61874E-03   -0.23433E-03  5278   0.300E-02    0.185E-01
RMM:   6    -0.230788240543E+04    0.31622E-03   -0.11716E-03  5015   0.214E-02    0.733E-02
RMM:   7    -0.230788236729E+04    0.38141E-04   -0.14045E-04  3684   0.114E-02    0.300E-02
RMM:   8    -0.230788235932E+04    0.79767E-05   -0.44059E-05  3062   0.481E-03
   8 F= -.23282938E+04 E0= -.23282938E+04  d E =-.670034E-01  mag=     4.0000
       N       E                     dE             d eps       ncg     rms          rms(c)
DAV:   1    -0.230787815951E+04    0.42078E-02   -0.53238E-01  4808   0.693E-01    0.277E-01
RMM:   2    -0.230788558708E+04   -0.74276E-02   -0.80688E-02  5881   0.165E-01    0.131E-01
RMM:   3    -0.230788582839E+04   -0.24131E-03   -0.53443E-03  5400   0.489E-02    0.795E-02
RMM:   4    -0.230788580535E+04    0.23043E-04   -0.64794E-04  4295   0.114E-02    0.536E-02
RMM:   5    -0.230788577644E+04    0.28907E-04   -0.12452E-04  3722   0.897E-03    0.237E-02
RMM:   6    -0.230788578345E+04   -0.70068E-05   -0.34169E-05  2962   0.557E-03
   9 F= -.23282968E+04 E0= -.23282968E+04  d E =-.700050E-01  mag=     4.0000
       N       E                     dE             d eps       ncg     rms          rms(c)
DAV:   1    -0.230781678007E+04    0.68996E-01   -0.70066E+00  4464   0.250E+00    0.974E-01
RMM:   2    -0.230795752618E+04   -0.14075E+00   -0.13969E+00  5973   0.620E-01    0.128E+00
RMM:   3    -0.230794997881E+04    0.75474E-02   -0.10874E-01  5279   0.187E-01    0.476E-01
RMM:   4    -0.230794896558E+04    0.10132E-02   -0.12024E-02  4877   0.420E-02    0.237E-01
RMM:   5    -0.230794824315E+04    0.72243E-03   -0.14011E-03  5012   0.266E-02    0.176E-01
RMM:   6    -0.230794799364E+04    0.24951E-03   -0.15304E-03  5194   0.270E-02    0.656E-02
RMM:   7    -0.230794794417E+04    0.49465E-04   -0.20775E-04  3997   0.131E-02    0.330E-02
RMM:   8    -0.230794792804E+04    0.16132E-04   -0.37837E-05  2896   0.522E-03    0.176E-02
RMM:   9    -0.230794792281E+04    0.52285E-05   -0.22033E-05  2951   0.354E-03
  10 F= -.23283579E+04 E0= -.23283579E+04  d E =-.610623E-01  mag=     4.0000
       N       E                     dE             d eps       ncg     rms          rms(c)
DAV:   1    -0.230773191149E+04    0.21602E+00   -0.13204E+01  4432   0.344E+00    0.135E+00
RMM:   2    -0.230800190386E+04   -0.26999E+00   -0.26897E+00  5990   0.876E-01    0.176E+00
RMM:   3    -0.230798710683E+04    0.14797E-01   -0.21940E-01  5301   0.268E-01    0.626E-01
RMM:   4    -0.230798559465E+04    0.15122E-02   -0.23028E-02  4934   0.590E-02    0.329E-01
RMM:   5    -0.230798430372E+04    0.12909E-02   -0.26339E-03  5182   0.361E-02    0.259E-01
RMM:   6    -0.230798369166E+04    0.61206E-03   -0.30192E-03  5353   0.372E-02    0.101E-01
RMM:   7    -0.230798359850E+04    0.93153E-04   -0.47165E-04  4631   0.184E-02    0.499E-02
RMM:   8    -0.230798356455E+04    0.33956E-04   -0.74226E-05  3073   0.697E-03    0.264E-02
RMM:   9    -0.230798355038E+04    0.14164E-04   -0.42010E-05  3124   0.466E-03    0.215E-02
RMM:  10    -0.230798354462E+04    0.57635E-05   -0.21568E-05  2864   0.465E-03
  11 F= -.23283918E+04 E0= -.23283918E+04  d E =-.949779E-01  mag=     4.0000
       N       E                     dE             d eps       ncg     rms          rms(c)
DAV:   1    -0.230789636124E+04    0.87189E-01   -0.73922E+00  4496   0.258E+00    0.101E+00
RMM:   2    -0.230804795676E+04   -0.15160E+00   -0.14639E+00  5978   0.655E-01    0.143E+00
RMM:   3    -0.230803444596E+04    0.13511E-01   -0.12140E-01  4914   0.211E-01    0.454E-01
RMM:   4    -0.230803388196E+04    0.56400E-03   -0.12805E-02  5053   0.447E-02    0.221E-01
RMM:   5    -0.230803340940E+04    0.47256E-03   -0.12100E-03  4996   0.251E-02    0.186E-01
RMM:   6    -0.230803312697E+04    0.28243E-03   -0.14068E-03  5219   0.261E-02    0.609E-02
RMM:   7    -0.230803310544E+04    0.21526E-04   -0.19592E-04  3719   0.120E-02    0.373E-02
RMM:   8    -0.230803309132E+04    0.14125E-04   -0.31613E-05  2877   0.483E-03    0.132E-02
RMM:   9    -0.230803309056E+04    0.75584E-06   -0.13786E-05  2869   0.300E-03
  12 F= -.23284398E+04 E0= -.23284398E+04  d E =-.480253E-01  mag=     4.0000
       N       E                     dE             d eps       ncg     rms          rms(c)
DAV:   1    -0.230791679551E+04    0.11630E+00   -0.72646E+00  4504   0.256E+00    0.996E-01
RMM:   2    -0.230806476817E+04   -0.14797E+00   -0.14369E+00  5997   0.653E-01    0.138E+00
RMM:   3    -0.230805268976E+04    0.12078E-01   -0.12144E-01  4936   0.209E-01    0.449E-01
RMM:   4    -0.230805214811E+04    0.54165E-03   -0.12461E-02  5043   0.442E-02    0.218E-01
RMM:   5    -0.230805169239E+04    0.45572E-03   -0.11867E-03  4885   0.249E-02    0.186E-01
RMM:   6    -0.230805141439E+04    0.27800E-03   -0.15089E-03  5145   0.274E-02    0.634E-02
RMM:   7    -0.230805138706E+04    0.27330E-04   -0.17850E-04  3710   0.115E-02    0.347E-02
RMM:   8    -0.230805137377E+04    0.13285E-04   -0.28864E-05  2879   0.466E-03    0.134E-02
RMM:   9    -0.230805137268E+04    0.10952E-05   -0.14108E-05  2866   0.306E-03
  13 F= -.23284564E+04 E0= -.23284564E+04  d E =-.645991E-01  mag=     4.0000
       N       E                     dE             d eps       ncg     rms          rms(c)
DAV:   1    -0.230793969619E+04    0.11168E+00   -0.73557E+00  4408   0.256E+00    0.912E-01
RMM:   2    -0.230808340364E+04   -0.14371E+00   -0.14764E+00  6028   0.617E-01    0.816E-01
RMM:   3    -0.230809198458E+04   -0.85809E-02   -0.14943E-01  5556   0.225E-01    0.615E-01
RMM:   4    -0.230808910279E+04    0.28818E-02   -0.13633E-02  5416   0.490E-02    0.230E-01
RMM:   5    -0.230808853397E+04    0.56882E-03   -0.14408E-03  4895   0.258E-02    0.136E-01
RMM:   6    -0.230808840078E+04    0.13320E-03   -0.10088E-03  5092   0.220E-02    0.622E-02
RMM:   7    -0.230808837692E+04    0.23858E-04   -0.15549E-04  3983   0.121E-02    0.256E-02
RMM:   8    -0.230808836552E+04    0.11401E-04   -0.29554E-05  2892   0.455E-03    0.148E-02
RMM:   9    -0.230808836560E+04   -0.84663E-07   -0.20104E-05  2902   0.350E-03
  14 F= -.23284906E+04 E0= -.23284906E+04  d E =-.342319E-01  mag=     4.0000
       N       E                     dE             d eps       ncg     rms          rms(c)
DAV:   1    -0.230798404760E+04    0.10432E+00   -0.58381E+00  4424   0.228E+00    0.816E-01
RMM:   2    -0.230809802755E+04   -0.11398E+00   -0.11681E+00  6012   0.549E-01    0.760E-01
RMM:   3    -0.230810476640E+04   -0.67388E-02   -0.12220E-01  5453   0.214E-01    0.554E-01
RMM:   4    -0.230810244568E+04    0.23207E-02   -0.11034E-02  5318   0.446E-02    0.204E-01
RMM:   5    -0.230810200308E+04    0.44260E-03   -0.11360E-03  4915   0.230E-02    0.125E-01
RMM:   6    -0.230810188281E+04    0.12026E-03   -0.84136E-04  5083   0.199E-02    0.590E-02
RMM:   7    -0.230810185914E+04    0.23671E-04   -0.13053E-04  3758   0.109E-02    0.221E-02
RMM:   8    -0.230810185162E+04    0.75246E-05   -0.22328E-05  2869   0.429E-03
  15 F= -.23285015E+04 E0= -.23285015E+04  d E =-.450729E-01  mag=     4.0000
       N       E                     dE             d eps       ncg     rms          rms(c)
DAV:   1    -0.230797331471E+04    0.12854E+00   -0.91619E+00  4472   0.286E+00    0.942E-01
RMM:   2    -0.230813439398E+04   -0.16108E+00   -0.16495E+00  6062   0.656E-01    0.874E-01
RMM:   3    -0.230814360651E+04   -0.92125E-02   -0.16344E-01  5633   0.236E-01    0.634E-01
RMM:   4    -0.230814057527E+04    0.30312E-02   -0.14940E-02  5376   0.504E-02    0.240E-01
RMM:   5    -0.230813989923E+04    0.67603E-03   -0.17988E-03  5122   0.277E-02    0.149E-01
RMM:   6    -0.230813973442E+04    0.16481E-03   -0.13919E-03  5232   0.239E-02    0.748E-02
RMM:   7    -0.230813968779E+04    0.46627E-04   -0.18753E-04  4254   0.123E-02    0.262E-02
RMM:   8    -0.230813967798E+04    0.98120E-05   -0.32711E-05  2904   0.491E-03
  16 F= -.23285362E+04 E0= -.23285362E+04  d E =-.347023E-01  mag=     4.0000
       N       E                     dE             d eps       ncg     rms          rms(c)
DAV:   1    -0.230790581217E+04    0.23388E+00   -0.13782E+01  4432   0.351E+00    0.116E+00
RMM:   2    -0.230815014783E+04   -0.24434E+00   -0.25057E+00  6096   0.810E-01    0.108E+00
RMM:   3    -0.230816511644E+04   -0.14969E-01   -0.25352E-01  5684   0.291E-01    0.808E-01
RMM:   4    -0.230816017916E+04    0.49373E-02   -0.22557E-02  5438   0.624E-02    0.299E-01
RMM:   5    -0.230815911073E+04    0.10684E-02   -0.27528E-03  5155   0.342E-02    0.182E-01
RMM:   6    -0.230815885776E+04    0.25297E-03   -0.21771E-03  5263   0.292E-02    0.960E-02
RMM:   7    -0.230815877644E+04    0.81327E-04   -0.30754E-04  4635   0.160E-02    0.354E-02
RMM:   8    -0.230815875677E+04    0.19666E-04   -0.61040E-05  3056   0.615E-03    0.182E-02
RMM:   9    -0.230815875845E+04   -0.16850E-05   -0.27773E-05  2924   0.455E-03
  17 F= -.23285512E+04 E0= -.23285512E+04  d E =-.497743E-01  mag=     4.0000
       N       E                     dE             d eps       ncg     rms          rms(c)
DAV:   1    -0.230804829605E+04    0.11046E+00   -0.86425E+00  4496   0.277E+00    0.926E-01
RMM:   2    -0.230818900429E+04   -0.14071E+00   -0.14273E+00  6119   0.641E-01    0.101E+00
RMM:   3    -0.230819171433E+04   -0.27100E-02   -0.13418E-01  5699   0.211E-01    0.592E-01
RMM:   4    -0.230818976902E+04    0.19453E-02   -0.12970E-02  5341   0.465E-02    0.228E-01
RMM:   5    -0.230818921603E+04    0.55299E-03   -0.14390E-03  5147   0.259E-02    0.155E-01
RMM:   6    -0.230818906459E+04    0.15143E-03   -0.12639E-03  5242   0.237E-02    0.659E-02
RMM:   7    -0.230818902830E+04    0.36294E-04   -0.14810E-04  3929   0.107E-02    0.229E-02
RMM:   8    -0.230818902321E+04    0.50887E-05   -0.25620E-05  2885   0.467E-03
  18 F= -.23285785E+04 E0= -.23285785E+04  d E =-.272585E-01  mag=     4.0000
       N       E                     dE             d eps       ncg     rms          rms(c)
DAV:   1    -0.230809564158E+04    0.93387E-01   -0.64401E+00  4488   0.240E+00    0.804E-01
RMM:   2    -0.230820128265E+04   -0.10564E+00   -0.10680E+00  6119   0.558E-01    0.910E-01
RMM:   3    -0.230820218837E+04   -0.90572E-03   -0.95927E-02  5710   0.178E-01    0.501E-01
RMM:   4    -0.230820086569E+04    0.13227E-02   -0.96101E-03  5255   0.399E-02    0.198E-01
RMM:   5    -0.230820046921E+04    0.39648E-03   -0.10741E-03  5175   0.225E-02    0.140E-01
RMM:   6    -0.230820032252E+04    0.14669E-03   -0.98938E-04  5146   0.209E-02    0.543E-02
RMM:   7    -0.230820030011E+04    0.22405E-04   -0.10900E-04  3558   0.966E-03    0.196E-02
RMM:   8    -0.230820029569E+04    0.44255E-05   -0.19738E-05  2867   0.423E-03
  19 F= -.23285871E+04 E0= -.23285871E+04  d E =-.358794E-01  mag=     4.0000
       N       E                     dE             d eps       ncg     rms          rms(c)
DAV:   1    -0.230805419390E+04    0.14611E+00   -0.91311E+00  4400   0.293E+00    0.104E+00
RMM:   2    -0.230822996241E+04   -0.17577E+00   -0.18220E+00  6146   0.745E-01    0.889E-01
RMM:   3    -0.230823770635E+04   -0.77439E-02   -0.15361E-01  5787   0.225E-01    0.667E-01
RMM:   4    -0.230823515129E+04    0.25551E-02   -0.15596E-02  5467   0.537E-02    0.270E-01
RMM:   5    -0.230823443306E+04    0.71823E-03   -0.18887E-03  5045   0.282E-02    0.158E-01
RMM:   6    -0.230823429388E+04    0.13918E-03   -0.13104E-03  5348   0.241E-02    0.871E-02
RMM:   7    -0.230823425678E+04    0.37101E-04   -0.21513E-04  4263   0.123E-02    0.325E-02
RMM:   8    -0.230823424653E+04    0.10256E-04   -0.32152E-05  2921   0.479E-03    0.193E-02
RMM:   9    -0.230823424510E+04    0.14254E-05   -0.23184E-05  2886   0.419E-03
  20 F= -.23286181E+04 E0= -.23286181E+04  d E =-.310023E-01  mag=     4.0000
       N       E                     dE             d eps       ncg     rms          rms(c)
DAV:   1    -0.230795971906E+04    0.27453E+00   -0.14965E+01  4400   0.376E+00    0.134E+00
RMM:   2    -0.230825008876E+04   -0.29037E+00   -0.30045E+00  6157   0.955E-01    0.117E+00
RMM:   3    -0.230826188302E+04   -0.11794E-01   -0.25668E-01  5809   0.285E-01    0.863E-01
RMM:   4    -0.230825736272E+04    0.45203E-02   -0.25234E-02  5502   0.687E-02    0.342E-01
RMM:   5    -0.230825619347E+04    0.11693E-02   -0.31934E-03  5012   0.361E-02    0.198E-01
RMM:   6    -0.230825599082E+04    0.20266E-03   -0.20970E-03  5412   0.303E-02    0.115E-01
RMM:   7    -0.230825591276E+04    0.78057E-04   -0.39148E-04  4810   0.159E-02    0.406E-02
RMM:   8    -0.230825589614E+04    0.16622E-04   -0.54960E-05  3025   0.575E-03    0.239E-02
RMM:   9    -0.230825589616E+04   -0.22977E-07   -0.35688E-05  2969   0.505E-03
  21 F= -.23286359E+04 E0= -.23286359E+04  d E =-.488280E-01  mag=     4.0000
       N       E                     dE             d eps       ncg     rms          rms(c)
DAV:   1    -0.230812001039E+04    0.13589E+00   -0.89362E+00  4480   0.286E+00    0.985E-01
RMM:   2    -0.230828042887E+04   -0.16042E+00   -0.16735E+00  6168   0.720E-01    0.732E-01
RMM:   3    -0.230828989425E+04   -0.94654E-02   -0.14721E-01  5797   0.217E-01    0.593E-01
RMM:   4    -0.230828802394E+04    0.18703E-02   -0.14183E-02  5433   0.495E-02    0.270E-01
RMM:   5    -0.230828736373E+04    0.66021E-03   -0.18370E-03  4993   0.254E-02    0.169E-01
RMM:   6    -0.230828713743E+04    0.22630E-03   -0.13180E-03  5363   0.228E-02    0.829E-02
RMM:   7    -0.230828712331E+04    0.14120E-04   -0.21121E-04  4170   0.119E-02    0.372E-02
RMM:   8    -0.230828711212E+04    0.11197E-04   -0.35596E-05  2923   0.500E-03    0.196E-02
RMM:   9    -0.230828710967E+04    0.24434E-05   -0.21787E-05  2876   0.411E-03
  22 F= -.23286651E+04 E0= -.23286651E+04  d E =-.292156E-01  mag=     4.0000
       N       E                     dE             d eps       ncg     rms          rms(c)
DAV:   1    -0.230811390617E+04    0.17321E+00   -0.10118E+01  4464   0.305E+00    0.105E+00
RMM:   2    -0.230829638188E+04   -0.18248E+00   -0.19023E+00  6176   0.772E-01    0.784E-01
RMM:   3    -0.230830663438E+04   -0.10252E-01   -0.16579E-01  5810   0.229E-01    0.631E-01
RMM:   4    -0.230830442030E+04    0.22141E-02   -0.15898E-02  5506   0.532E-02    0.284E-01
RMM:   5    -0.230830368499E+04    0.73530E-03   -0.20785E-03  5029   0.269E-02    0.180E-01
RMM:   6    -0.230830341771E+04    0.26729E-03   -0.14772E-03  5377   0.240E-02    0.889E-02
RMM:   7    -0.230830339651E+04    0.21199E-04   -0.25015E-04  4344   0.127E-02    0.397E-02
RMM:   8    -0.230830338183E+04    0.14676E-04   -0.39510E-05  2951   0.529E-03    0.202E-02
RMM:   9    -0.230830337739E+04    0.44387E-05   -0.24205E-05  2894   0.438E-03
  23 F= -.23286793E+04 E0= -.23286793E+04  d E =-.433274E-01  mag=     4.0000
       N       E                     dE             d eps       ncg     rms          rms(c)
DAV:   1    -0.230819195589E+04    0.11143E+00   -0.93942E+00  4464   0.285E+00    0.906E-01
RMM:   2    -0.230832329466E+04   -0.13134E+00   -0.13828E+00  6133   0.680E-01    0.536E-01
RMM:   3    -0.230833283019E+04   -0.95355E-02   -0.13052E-01  5720   0.203E-01    0.413E-01
RMM:   4    -0.230833256168E+04    0.26852E-03   -0.12168E-02  5486   0.455E-02    0.293E-01
RMM:   5    -0.230833193242E+04    0.62925E-03   -0.21030E-03  5251   0.266E-02    0.202E-01
RMM:   6    -0.230833153029E+04    0.40213E-03   -0.11988E-03  5235   0.223E-02    0.560E-02
RMM:   7    -0.230833155523E+04   -0.24934E-04   -0.13001E-04  3755   0.113E-02    0.383E-02
RMM:   8    -0.230833154700E+04    0.82258E-05   -0.32731E-05  2953   0.474E-03
  24 F= -.23287063E+04 E0= -.23287063E+04  d E =-.269961E-01  mag=     4.0000
       N       E                     dE             d eps       ncg     rms          rms(c)
DAV:   1    -0.230817575163E+04    0.15580E+00   -0.11284E+01  4432   0.313E+00    0.991E-01
RMM:   2    -0.230833452836E+04   -0.15878E+00   -0.16699E+00  6144   0.745E-01    0.605E-01
RMM:   3    -0.230834566459E+04   -0.11136E-01   -0.15515E-01  5755   0.220E-01    0.486E-01
RMM:   4    -0.230834498920E+04    0.67539E-03   -0.14437E-02  5535   0.503E-02    0.316E-01
RMM:   5    -0.230834424159E+04    0.74761E-03   -0.24957E-03  5319   0.287E-02    0.217E-01
RMM:   6    -0.230834375573E+04    0.48586E-03   -0.14956E-03  5234   0.246E-02    0.618E-02
RMM:   7    -0.230834378367E+04   -0.27938E-04   -0.16559E-04  4011   0.128E-02    0.414E-02
RMM:   8    -0.230834377407E+04    0.95944E-05   -0.40862E-05  3017   0.511E-03
  25 F= -.23287171E+04 E0= -.23287171E+04  d E =-.378225E-01  mag=     4.0000
       N       E                     dE             d eps       ncg     rms          rms(c)
DAV:   1    -0.230822407785E+04    0.11971E+00   -0.82182E+00  4464   0.268E+00    0.878E-01
RMM:   2    -0.230835896607E+04   -0.13489E+00   -0.14218E+00  6235   0.665E-01    0.508E-01
RMM:   3    -0.230837078757E+04   -0.11822E-01   -0.13767E-01  5533   0.212E-01    0.468E-01
RMM:   4    -0.230837023539E+04    0.55217E-03   -0.13253E-02  5733   0.448E-02    0.291E-01
RMM:   5    -0.230836957677E+04    0.65862E-03   -0.15157E-03  4986   0.219E-02    0.167E-01
RMM:   6    -0.230836930883E+04    0.26795E-03   -0.10306E-03  5108   0.204E-02    0.654E-02
RMM:   7    -0.230836930960E+04   -0.77690E-06   -0.14453E-04  3709   0.109E-02    0.218E-02
RMM:   8    -0.230836931203E+04   -0.24258E-05   -0.19332E-05  2879   0.433E-03
  26 F= -.23287414E+04 E0= -.23287414E+04  d E =-.243243E-01  mag=     4.0000
       N       E                     dE             d eps       ncg     rms          rms(c)
DAV:   1    -0.230777681683E+04    0.59249E+00   -0.34687E+01  4400   0.550E+00    0.181E+00
RMM:   2    -0.230834826271E+04   -0.57145E+00   -0.60387E+00  6243   0.135E+00    0.102E+00
RMM:   3    -0.230840182827E+04   -0.53566E-01   -0.61650E-01  5506   0.461E-01    0.890E-01
RMM:   4    -0.230840038514E+04    0.14431E-02   -0.55395E-02  5946   0.907E-02    0.619E-01
RMM:   5    -0.230839781980E+04    0.25653E-02   -0.66623E-03  5393   0.441E-02    0.375E-01
RMM:   6    -0.230839648829E+04    0.13315E-02   -0.41765E-03  5139   0.370E-02    0.175E-01
RMM:   7    -0.230839639510E+04    0.93185E-04   -0.96716E-04  4658   0.244E-02    0.623E-02
RMM:   8    -0.230839637459E+04    0.20515E-04   -0.15468E-04  3729   0.102E-02    0.337E-02
RMM:   9    -0.230839637539E+04   -0.79535E-06   -0.50363E-05  2986   0.589E-03
  27 F= -.23287657E+04 E0= -.23287657E+04  d E =-.486579E-01  mag=     4.0000
       N       E                     dE             d eps       ncg     rms          rms(c)
DAV:   1    -0.230832136813E+04    0.75006E-01   -0.59935E+00  4448   0.238E+00    0.823E-01
RMM:   2    -0.230841609425E+04   -0.94726E-01   -0.97860E-01  5986   0.596E-01    0.726E-01
RMM:   3    -0.230842196150E+04   -0.58672E-02   -0.87609E-02  5430   0.186E-01    0.655E-01
RMM:   4    -0.230841884265E+04    0.31189E-02   -0.94021E-03  5612   0.463E-02    0.220E-01
RMM:   5    -0.230841835656E+04    0.48609E-03   -0.19369E-03  5127   0.274E-02    0.137E-01
RMM:   6    -0.230841820613E+04    0.15043E-03   -0.93545E-04  5324   0.209E-02    0.670E-02
RMM:   7    -0.230841816630E+04    0.39823E-04   -0.12300E-04  3880   0.950E-03    0.197E-02
RMM:   8    -0.230841816181E+04    0.44925E-05   -0.19355E-05  2892   0.468E-03
  28 F= -.23287867E+04 E0= -.23287867E+04  d E =-.209815E-01  mag=     4.0000
       N       E                     dE             d eps       ncg     rms          rms(c)
DAV:   1    -0.230841522965E+04    0.29367E-02   -0.22567E-01  4864   0.461E-01    0.160E-01
RMM:   2    -0.230841883294E+04   -0.36033E-02   -0.37181E-02  6090   0.117E-01    0.147E-01
RMM:   3    -0.230841901806E+04   -0.18512E-03   -0.32159E-03  4503   0.351E-02    0.126E-01
RMM:   4    -0.230841890542E+04    0.11263E-03   -0.35025E-04  3325   0.955E-03    0.435E-02
RMM:   5    -0.230841888653E+04    0.18898E-04   -0.75217E-05  3228   0.642E-03    0.275E-02
RMM:   6    -0.230841887902E+04    0.75059E-05   -0.40436E-05  3027   0.610E-03
  29 F= -.23287873E+04 E0= -.23287873E+04  d E =-.215401E-01  mag=     4.0000
       N       E                     dE             d eps       ncg     rms          rms(c)
DAV:   1    -0.230839656137E+04    0.22325E-01   -0.34468E+00  4440   0.178E+00    0.577E-01
RMM:   2    -0.230843558357E+04   -0.39022E-01   -0.39197E-01  5975   0.414E-01    0.637E-01
RMM:   3    -0.230843545556E+04    0.12801E-03   -0.31218E-02  5518   0.108E-01    0.417E-01
RMM:   4    -0.230843415883E+04    0.12967E-02   -0.36599E-03  5154   0.296E-02    0.143E-01
RMM:   5    -0.230843393208E+04    0.22675E-03   -0.74473E-04  4899   0.192E-02    0.906E-02
RMM:   6    -0.230843389832E+04    0.33760E-04   -0.40018E-04  4833   0.147E-02    0.459E-02
RMM:   7    -0.230843387753E+04    0.20783E-04   -0.53773E-05  3057   0.685E-03    0.141E-02
RMM:   8    -0.230843387573E+04    0.18000E-05   -0.10137E-05  2839   0.373E-03
  30 F= -.23288022E+04 E0= -.23288022E+04  d E =-.149151E-01  mag=     4.0000
       N       E                     dE             d eps       ncg     rms          rms(c)
DAV:   1    -0.230838759721E+04    0.46280E-01   -0.48248E+00  4432   0.212E+00    0.682E-01
RMM:   2    -0.230844221800E+04   -0.54621E-01   -0.54761E-01  6000   0.492E-01    0.765E-01
RMM:   3    -0.230844204736E+04    0.17064E-03   -0.42500E-02  5540   0.127E-01    0.488E-01
RMM:   4    -0.230844028222E+04    0.17651E-02   -0.50782E-03  5213   0.348E-02    0.169E-01
RMM:   5    -0.230843995433E+04    0.32788E-03   -0.10519E-03  4993   0.230E-02    0.108E-01
RMM:   6    -0.230843990345E+04    0.50883E-04   -0.54716E-04  4989   0.172E-02    0.550E-02
RMM:   7    -0.230843987367E+04    0.29785E-04   -0.74100E-05  3236   0.754E-03    0.170E-02
RMM:   8    -0.230843987097E+04    0.27012E-05   -0.13821E-05  2841   0.415E-03
  31 F= -.23288081E+04 E0= -.23288081E+04  d E =-.207952E-01  mag=     4.0000
       N       E                     dE             d eps       ncg     rms          rms(c)
DAV:   1    -0.230842233560E+04    0.17538E-01   -0.35607E+00  4432   0.184E+00    0.555E-01
RMM:   2    -0.230845573543E+04   -0.33400E-01   -0.33513E-01  5907   0.404E-01    0.579E-01
RMM:   3    -0.230845560512E+04    0.13032E-03   -0.21473E-02  5420   0.101E-01    0.412E-01
RMM:   4    -0.230845424004E+04    0.13651E-02   -0.29736E-03  5244   0.300E-02    0.146E-01
RMM:   5    -0.230845404095E+04    0.19908E-03   -0.85053E-04  4930   0.208E-02    0.951E-02
RMM:   6    -0.230845395740E+04    0.83558E-04   -0.41132E-04  5027   0.149E-02    0.412E-02
RMM:   7    -0.230845394722E+04    0.10175E-04   -0.41983E-05  3043   0.691E-03    0.138E-02
RMM:   8    -0.230845394616E+04    0.10647E-05   -0.96951E-06  2836   0.373E-03
  32 F= -.23288223E+04 E0= -.23288223E+04  d E =-.141956E-01  mag=     4.0000
       N       E                     dE             d eps       ncg     rms          rms(c)
DAV:   1    -0.230843069231E+04    0.23255E-01   -0.31661E+00  4440   0.173E+00    0.522E-01
RMM:   2    -0.230846018861E+04   -0.29496E-01   -0.29684E-01  5923   0.379E-01    0.537E-01
RMM:   3    -0.230846014453E+04    0.44085E-04   -0.18989E-02  5424   0.937E-02    0.389E-01
RMM:   4    -0.230845892332E+04    0.12212E-02   -0.26355E-03  5198   0.283E-02    0.138E-01
RMM:   5    -0.230845874137E+04    0.18194E-03   -0.76817E-04  4943   0.197E-02    0.904E-02
RMM:   6    -0.230845865930E+04    0.82078E-04   -0.37210E-04  4955   0.141E-02    0.386E-02
RMM:   7    -0.230845864930E+04    0.99945E-05   -0.38071E-05  3007   0.669E-03
  33 F= -.23288271E+04 E0= -.23288271E+04  d E =-.190207E-01  mag=     4.0000
       N       E                     dE             d eps       ncg     rms          rms(c)
DAV:   1    -0.230845171884E+04    0.69405E-02   -0.31266E+00  4408   0.165E+00    0.458E-01
RMM:   2    -0.230847367601E+04   -0.21957E-01   -0.22746E-01  5896   0.337E-01    0.353E-01
RMM:   3    -0.230847421127E+04   -0.53527E-03   -0.14791E-02  5424   0.834E-02    0.341E-01
RMM:   4    -0.230847333751E+04    0.87376E-03   -0.20163E-03  5439   0.254E-02    0.145E-01
RMM:   5    -0.230847318853E+04    0.14899E-03   -0.59280E-04  4622   0.161E-02    0.889E-02
RMM:   6    -0.230847311537E+04    0.73159E-04   -0.33399E-04  4794   0.134E-02    0.292E-02
RMM:   7    -0.230847311632E+04   -0.94817E-06   -0.30248E-05  2912   0.677E-03
  34 F= -.23288418E+04 E0= -.23288418E+04  d E =-.147278E-01  mag=     4.0000
       N       E                     dE             d eps       ncg     rms          rms(c)
DAV:   1    -0.230829170769E+04    0.18141E+00   -0.28136E+01  4400   0.495E+00    0.136E+00
RMM:   2    -0.230848062986E+04   -0.18892E+00   -0.19693E+00  5861   0.990E-01    0.950E-01
RMM:   3    -0.230849151867E+04   -0.10889E-01   -0.16463E-01  5393   0.278E-01    0.905E-01
RMM:   4    -0.230848551361E+04    0.60051E-02   -0.18833E-02  5812   0.749E-02    0.445E-01
RMM:   5    -0.230848391211E+04    0.16015E-02   -0.48836E-03  5059   0.469E-02    0.255E-01
RMM:   6    -0.230848331892E+04    0.59319E-03   -0.29202E-03  5393   0.379E-02    0.817E-02
RMM:   7    -0.230848332347E+04   -0.45508E-05   -0.23787E-04  4480   0.169E-02    0.358E-02
RMM:   8    -0.230848332632E+04   -0.28489E-05   -0.46304E-05  3078   0.565E-03
  35 F= -.23288529E+04 E0= -.23288529E+04  d E =-.258247E-01  mag=     4.0000
       N       E                     dE             d eps       ncg     rms          rms(c)
DAV:   1    -0.230846938795E+04    0.13936E-01   -0.23793E+00  4448   0.144E+00    0.395E-01
RMM:   2    -0.230848651811E+04   -0.17130E-01   -0.17745E-01  5900   0.298E-01    0.316E-01
RMM:   3    -0.230848647294E+04    0.45174E-04   -0.11104E-02  5340   0.746E-02    0.297E-01
RMM:   4    -0.230848580892E+04    0.66402E-03   -0.16072E-03  5297   0.221E-02    0.124E-01
RMM:   5    -0.230848568273E+04    0.12619E-03   -0.45050E-04  4469   0.138E-02    0.765E-02
RMM:   6    -0.230848562576E+04    0.56964E-04   -0.25197E-04  4575   0.121E-02    0.245E-02
RMM:   7    -0.230848562529E+04    0.46867E-06   -0.24198E-05  2890   0.611E-03
  36 F= -.23288549E+04 E0= -.23288549E+04  d E =-.278490E-01  mag=     4.0000
       N       E                     dE             d eps       ncg     rms          rms(c)
DAV:   1    -0.230847067615E+04    0.14950E-01   -0.69875E+00  4400   0.232E+00    0.595E-01
RMM:   2    -0.230850475582E+04   -0.34080E-01   -0.35514E-01  5823   0.436E-01    0.342E-01
RMM:   3    -0.230850373975E+04    0.10161E-02   -0.20049E-02  5278   0.109E-01    0.261E-01
RMM:   4    -0.230850348514E+04    0.25461E-03   -0.26597E-03  5466   0.313E-02    0.242E-01
RMM:   5    -0.230850309539E+04    0.38974E-03   -0.11192E-03  4910   0.232E-02    0.131E-01
RMM:   6    -0.230850292692E+04    0.16847E-03   -0.65276E-04  4969   0.179E-02    0.391E-02
RMM:   7    -0.230850292485E+04    0.20757E-05   -0.51096E-05  3061   0.943E-03
  37 F= -.23288726E+04 E0= -.23288726E+04  d E =-.176549E-01  mag=     4.0000
       N       E                     dE             d eps       ncg     rms          rms(c)
DAV:   1    -0.230846767330E+04    0.35254E-01   -0.89810E+00  4400   0.263E+00    0.677E-01
RMM:   2    -0.230851158789E+04   -0.43915E-01   -0.45756E-01  5830   0.496E-01    0.389E-01
RMM:   3    -0.230851030869E+04    0.12792E-02   -0.26971E-02  5295   0.123E-01    0.291E-01
RMM:   4    -0.230851000518E+04    0.30351E-03   -0.34045E-03  5549   0.355E-02    0.274E-01
RMM:   5    -0.230850954489E+04    0.46029E-03   -0.14615E-03  4983   0.260E-02    0.153E-01
RMM:   6    -0.230850931378E+04    0.23111E-03   -0.82808E-04  5003   0.200E-02    0.449E-02
RMM:   7    -0.230850931274E+04    0.10381E-05   -0.63997E-05  3228   0.105E-02
  38 F= -.23288794E+04 E0= -.23288794E+04  d E =-.244738E-01  mag=     4.0000
       N       E                     dE             d eps       ncg     rms          rms(c)
DAV:   1    -0.230848873423E+04    0.20580E-01   -0.79135E+00  4400   0.242E+00    0.631E-01
RMM:   2    -0.230853068699E+04   -0.41953E-01   -0.43652E-01  5844   0.456E-01    0.386E-01
RMM:   3    -0.230853125221E+04   -0.56522E-03   -0.29844E-02  5356   0.116E-01    0.421E-01
RMM:   4    -0.230852999438E+04    0.12578E-02   -0.36721E-03  5563   0.335E-02    0.201E-01
RMM:   5    -0.230852962294E+04    0.37143E-03   -0.10800E-03  4772   0.215E-02    0.112E-01
RMM:   6    -0.230852952360E+04    0.99341E-04   -0.67575E-04  5153   0.183E-02    0.449E-02
RMM:   7    -0.230852951635E+04    0.72520E-05   -0.55893E-05  3066   0.850E-03
  39 F= -.23289000E+04 E0= -.23289000E+04  d E =-.206278E-01  mag=     4.0000
       N       E                     dE             d eps       ncg     rms          rms(c)
DAV:   1    -0.230817562833E+04    0.35390E+00   -0.71175E+01  4400   0.723E+00    0.192E+00
RMM:   2    -0.230856617554E+04   -0.39055E+00   -0.40958E+00  5804   0.135E+00    0.111E+00
RMM:   3    -0.230856738835E+04   -0.12128E-02   -0.33197E-01  5183   0.397E-01    0.107E+00
RMM:   4    -0.230856121188E+04    0.61765E-02   -0.34241E-02  5821   0.101E-01    0.680E-01
RMM:   5    -0.230855753487E+04    0.36770E-02   -0.97624E-03  5104   0.624E-02    0.397E-01
RMM:   6    -0.230855603702E+04    0.14979E-02   -0.69343E-03  5289   0.540E-02    0.169E-01
RMM:   7    -0.230855590084E+04    0.13617E-03   -0.75581E-04  4871   0.300E-02    0.566E-02
RMM:   8    -0.230855589176E+04    0.90774E-05   -0.15583E-04  3780   0.927E-03    0.270E-02
RMM:   9    -0.230855590733E+04   -0.15570E-04   -0.59503E-05  3198   0.683E-03    0.124E-02
RMM:  10    -0.230855591499E+04   -0.76567E-05   -0.14122E-05  2840   0.453E-03
  40 F= -.23289278E+04 E0= -.23289278E+04  d E =-.483411E-01  mag=     4.0000
       N       E                     dE             d eps       ncg     rms          rms(c)
DAV:   1    -0.230855193985E+04    0.39675E-02   -0.37869E+00  4544   0.162E+00    0.434E-01
RMM:   2    -0.230857142759E+04   -0.19488E-01   -0.20311E-01  5839   0.308E-01    0.260E-01
RMM:   3    -0.230857194034E+04   -0.51275E-03   -0.14312E-02  5302   0.815E-02    0.294E-01
RMM:   4    -0.230857132375E+04    0.61659E-03   -0.17032E-03  5184   0.231E-02    0.136E-01
RMM:   5    -0.230857115356E+04    0.17019E-03   -0.50184E-04  4430   0.148E-02    0.739E-02
RMM:   6    -0.230857111583E+04    0.37722E-04   -0.30242E-04  4651   0.127E-02    0.297E-02
RMM:   7    -0.230857111222E+04    0.36103E-05   -0.26923E-05  2900   0.646E-03
  41 F= -.23289433E+04 E0= -.23289433E+04  d E =-.155140E-01  mag=     4.0000
       N       E                     dE             d eps       ncg     rms          rms(c)
DAV:   1    -0.230842452445E+04    0.14659E+00   -0.34066E+01  4400   0.487E+00    0.131E+00
RMM:   2    -0.230860360245E+04   -0.17908E+00   -0.18768E+00  5799   0.915E-01    0.754E-01
RMM:   3    -0.230860698936E+04   -0.33869E-02   -0.14508E-01  5193   0.269E-01    0.781E-01
RMM:   4    -0.230860339713E+04    0.35922E-02   -0.16048E-02  5800   0.693E-02    0.439E-01
RMM:   5    -0.230860174579E+04    0.16513E-02   -0.44367E-03  5083   0.419E-02    0.251E-01
RMM:   6    -0.230860116446E+04    0.58133E-03   -0.30159E-03  5406   0.359E-02    0.102E-01
RMM:   7    -0.230860111323E+04    0.51231E-04   -0.29174E-04  4435   0.180E-02    0.370E-02
RMM:   8    -0.230860110672E+04    0.65048E-05   -0.60202E-05  3120   0.594E-03
  42 F= -.23289742E+04 E0= -.23289742E+04  d E =-.464572E-01  mag=     4.0000
       N       E                     dE             d eps       ncg     rms          rms(c)
DAV:   1    -0.230781837036E+04    0.78274E+00   -0.13568E+02  4400   0.976E+00    0.269E+00
RMM:   2    -0.230861087802E+04   -0.79251E+00   -0.83442E+00  5767   0.183E+00    0.154E+00
RMM:   3    -0.230860013344E+04    0.10745E-01   -0.61662E-01  5127   0.536E-01    0.123E+00
RMM:   4    -0.230859425168E+04    0.58818E-02   -0.61969E-02  5758   0.135E-01    0.973E-01
RMM:   5    -0.230858838873E+04    0.58630E-02   -0.18526E-02  5410   0.807E-02    0.635E-01
RMM:   6    -0.230858446903E+04    0.39197E-02   -0.13416E-02  4987   0.724E-02    0.274E-01
RMM:   7    -0.230858402894E+04    0.44009E-03   -0.18716E-03  4918   0.435E-02    0.799E-02
RMM:   8    -0.230858400243E+04    0.26511E-04   -0.35019E-04  4483   0.132E-02    0.386E-02
RMM:   9    -0.230858400928E+04   -0.68473E-05   -0.10705E-04  3678   0.918E-03    0.176E-02
RMM:  10    -0.230858401489E+04   -0.56072E-05   -0.28510E-05  2972   0.530E-03
  43 F= -.23289590E+04 E0= -.23289590E+04  d E =-.312659E-01  mag=     4.0000
       N       E                     dE             d eps       ncg     rms          rms(c)
DAV:   1    -0.230828255307E+04    0.30146E+00   -0.59952E+01  4432   0.649E+00    0.176E+00
RMM:   2    -0.230861761136E+04   -0.33506E+00   -0.34452E+00  5845   0.127E+00    0.133E+00
RMM:   3    -0.230862484144E+04   -0.72301E-02   -0.23502E-01  5348   0.338E-01    0.136E+00
RMM:   4    -0.230861098350E+04    0.13858E-01   -0.29926E-02  5791   0.983E-02    0.507E-01
RMM:   5    -0.230860771263E+04    0.32709E-02   -0.88570E-03  4779   0.620E-02    0.220E-01
RMM:   6    -0.230860766762E+04    0.45017E-04   -0.26806E-03  4763   0.467E-02    0.996E-02
RMM:   7    -0.230860762426E+04    0.43361E-04   -0.52495E-04  4823   0.175E-02    0.492E-02
RMM:   8    -0.230860760868E+04    0.15575E-04   -0.10158E-04  3676   0.737E-03    0.296E-02
RMM:   9    -0.230860760569E+04    0.29874E-05   -0.31915E-05  2903   0.561E-03
  44 F= -.23289814E+04 E0= -.23289814E+04  d E =-.535926E-01  mag=     4.0000
       N       E                     dE             d eps       ncg     rms          rms(c)
DAV:   1    -0.230860051578E+04    0.70929E-02   -0.60767E+00  4408   0.194E+00    0.543E-01
RMM:   2    -0.230862718345E+04   -0.26668E-01   -0.28126E-01  5742   0.358E-01    0.274E-01
RMM:   3    -0.230862772692E+04   -0.54347E-03   -0.19378E-02  5209   0.102E-01    0.223E-01
RMM:   4    -0.230862765659E+04    0.70334E-04   -0.22563E-03  5334   0.265E-02    0.218E-01
RMM:   5    -0.230862725175E+04    0.40484E-03   -0.74504E-04  4597   0.188E-02    0.879E-02
RMM:   6    -0.230862722087E+04    0.30878E-04   -0.46058E-04  4789   0.149E-02    0.379E-02
RMM:   7    -0.230862720763E+04    0.13234E-04   -0.45765E-05  2992   0.782E-03    0.147E-02
RMM:   8    -0.230862720558E+04    0.20496E-05   -0.10454E-05  2852   0.335E-03
  45 F= -.23290011E+04 E0= -.23290011E+04  d E =-.197888E-01  mag=     4.0000
       N       E                     dE             d eps       ncg     rms          rms(c)
DAV:   1    -0.230847550960E+04    0.15170E+00   -0.38528E+01  4400   0.489E+00    0.137E+00
RMM:   2    -0.230865019823E+04   -0.17469E+00   -0.18433E+00  5705   0.890E-01    0.711E-01
RMM:   3    -0.230865290781E+04   -0.27096E-02   -0.15349E-01  5084   0.285E-01    0.445E-01
RMM:   4    -0.230865211948E+04    0.78833E-03   -0.14195E-02  5387   0.675E-02    0.384E-01
RMM:   5    -0.230865176252E+04    0.35696E-03   -0.45425E-03  5349   0.458E-02    0.359E-01
RMM:   6    -0.230865094927E+04    0.81325E-03   -0.26618E-03  5188   0.319E-02    0.146E-01
RMM:   7    -0.230865076471E+04    0.18457E-03   -0.30986E-04  4329   0.172E-02    0.375E-02
RMM:   8    -0.230865075658E+04    0.81284E-05   -0.68612E-05  3269   0.565E-03
  46 F= -.23290252E+04 E0= -.23290252E+04  d E =-.438125E-01  mag=     4.0000
       N       E                     dE             d eps       ncg     rms          rms(c)
DAV:   1    -0.230863697266E+04    0.13792E-01   -0.54828E+00  4496   0.185E+00    0.590E-01
RMM:   2    -0.230866829774E+04   -0.31325E-01   -0.33298E-01  5844   0.369E-01    0.315E-01
RMM:   3    -0.230867021657E+04   -0.19188E-02   -0.31043E-02  5296   0.121E-01    0.352E-01
RMM:   4    -0.230866942807E+04    0.78850E-03   -0.30706E-03  5520   0.294E-02    0.178E-01
RMM:   5    -0.230866911255E+04    0.31551E-03   -0.83399E-04  4807   0.202E-02    0.824E-02
RMM:   6    -0.230866909550E+04    0.17059E-04   -0.40990E-04  4745   0.148E-02    0.363E-02
RMM:   7    -0.230866908171E+04    0.13790E-04   -0.46466E-05  2983   0.660E-03    0.144E-02
RMM:   8    -0.230866907999E+04    0.17178E-05   -0.10357E-05  2852   0.386E-03
  47 F= -.23290437E+04 E0= -.23290437E+04  d E =-.185792E-01  mag=     4.0000
       N       E                     dE             d eps       ncg     rms          rms(c)
DAV:   1    -0.230863097783E+04    0.38104E-01   -0.81337E+00  4432   0.225E+00    0.717E-01
RMM:   2    -0.230867738979E+04   -0.46412E-01   -0.49458E-01  5852   0.448E-01    0.377E-01
RMM:   3    -0.230868004113E+04   -0.26513E-02   -0.45695E-02  5269   0.149E-01    0.408E-01
RMM:   4    -0.230867903676E+04    0.10044E-02   -0.45342E-03  5714   0.357E-02    0.222E-01
RMM:   5    -0.230867855172E+04    0.48504E-03   -0.12577E-03  4964   0.241E-02    0.107E-01
RMM:   6    -0.230867848845E+04    0.63273E-04   -0.61871E-04  5107   0.177E-02    0.479E-02
RMM:   7    -0.230867846750E+04    0.20947E-04   -0.72539E-05  3265   0.769E-03    0.176E-02
RMM:   8    -0.230867846435E+04    0.31517E-05   -0.15559E-05  2881   0.434E-03
  48 F= -.23290534E+04 E0= -.23290534E+04  d E =-.282732E-01  mag=     4.0000
       N       E                     dE             d eps       ncg     rms          rms(c)
DAV:   1    -0.230864243084E+04    0.36037E-01   -0.79031E+00  4408   0.216E+00    0.688E-01
RMM:   2    -0.230869473496E+04   -0.52304E-01   -0.55528E-01  5904   0.439E-01    0.395E-01
RMM:   3    -0.230869820364E+04   -0.34687E-02   -0.49681E-02  5308   0.151E-01    0.448E-01
RMM:   4    -0.230869692770E+04    0.12759E-02   -0.51700E-03  5638   0.350E-02    0.207E-01
RMM:   5    -0.230869651541E+04    0.41229E-03   -0.10945E-03  4842   0.213E-02    0.113E-01
RMM:   6    -0.230869643929E+04    0.76119E-04   -0.64172E-04  5135   0.167E-02    0.515E-02
RMM:   7    -0.230869641648E+04    0.22811E-04   -0.79361E-05  3166   0.802E-03    0.174E-02
RMM:   8    -0.230869641476E+04    0.17211E-05   -0.16595E-05  2879   0.415E-03
  49 F= -.23290720E+04 E0= -.23290720E+04  d E =-.185476E-01  mag=     4.0000
       N       E                     dE             d eps       ncg     rms          rms(c)
DAV:   1    -0.230863273873E+04    0.63678E-01   -0.10468E+01  4400   0.248E+00    0.792E-01
RMM:   2    -0.230870219582E+04   -0.69457E-01   -0.73819E-01  5874   0.504E-01    0.456E-01
RMM:   3    -0.230870679324E+04   -0.45974E-02   -0.66982E-02  5295   0.175E-01    0.514E-01
RMM:   4    -0.230870509822E+04    0.16950E-02   -0.68395E-03  5763   0.404E-02    0.238E-01
RMM:   5    -0.230870457983E+04    0.51840E-03   -0.15207E-03  4967   0.246E-02    0.136E-01
RMM:   6    -0.230870443815E+04    0.14168E-03   -0.86972E-04  5314   0.189E-02    0.626E-02
RMM:   7    -0.230870440680E+04    0.31354E-04   -0.11722E-04  3515   0.952E-03    0.205E-02
RMM:   8    -0.230870440304E+04    0.37567E-05   -0.22443E-05  2909   0.438E-03
  50 F= -.23290807E+04 E0= -.23290807E+04  d E =-.272347E-01  mag=     4.0000
       N       E                     dE             d eps       ncg     rms          rms(c)
DAV:   1    -0.230865660483E+04    0.47802E-01   -0.99578E+00  4432   0.244E+00    0.754E-01
RMM:   2    -0.230871836116E+04   -0.61756E-01   -0.65921E-01  5791   0.479E-01    0.383E-01
RMM:   3    -0.230872251519E+04   -0.41540E-02   -0.63374E-02  5188   0.171E-01    0.280E-01
RMM:   4    -0.230872256059E+04   -0.45396E-04   -0.57593E-03  5412   0.363E-02    0.276E-01
RMM:   5    -0.230872203057E+04    0.53002E-03   -0.14424E-03  4973   0.236E-02    0.152E-01
RMM:   6    -0.230872186516E+04    0.16541E-03   -0.88241E-04  4906   0.183E-02    0.637E-02
RMM:   7    -0.230872183457E+04    0.30592E-04   -0.10014E-04  3267   0.105E-02    0.208E-02
RMM:   8    -0.230872183247E+04    0.21005E-05   -0.19861E-05  2916   0.383E-03
  51 F= -.23290986E+04 E0= -.23290986E+04  d E =-.179661E-01  mag=     4.0000
       N       E                     dE             d eps       ncg     rms          rms(c)
DAV:   1    -0.230866532782E+04    0.56507E-01   -0.96956E+00  4480   0.241E+00    0.742E-01
RMM:   2    -0.230872560733E+04   -0.60280E-01   -0.64318E-01  5806   0.476E-01    0.382E-01
RMM:   3    -0.230872962298E+04   -0.40156E-02   -0.60638E-02  5238   0.165E-01    0.297E-01
RMM:   4    -0.230872956426E+04    0.58716E-04   -0.55911E-03  5491   0.356E-02    0.273E-01
RMM:   5    -0.230872902358E+04    0.54068E-03   -0.13852E-03  4999   0.233E-02    0.146E-01
RMM:   6    -0.230872886307E+04    0.16051E-03   -0.86682E-04  4986   0.182E-02    0.625E-02
RMM:   7    -0.230872883506E+04    0.28008E-04   -0.99403E-05  3262   0.106E-02    0.205E-02
RMM:   8    -0.230872883205E+04    0.30176E-05   -0.19935E-05  2920   0.390E-03
  52 F= -.23291062E+04 E0= -.23291062E+04  d E =-.255182E-01  mag=     4.0000
       N       E                     dE             d eps       ncg     rms          rms(c)
DAV:   1    -0.230866481370E+04    0.64021E-01   -0.10731E+01  4400   0.270E+00    0.851E-01
RMM:   2    -0.230874451760E+04   -0.79704E-01   -0.84768E-01  5814   0.552E-01    0.519E-01
RMM:   3    -0.230875164463E+04   -0.71270E-02   -0.84751E-02  5389   0.197E-01    0.623E-01
RMM:   4    -0.230874875222E+04    0.28924E-02   -0.83612E-03  5773   0.452E-02    0.248E-01
RMM:   5    -0.230874817560E+04    0.57662E-03   -0.18340E-03  5186   0.280E-02    0.142E-01
RMM:   6    -0.230874807364E+04    0.10196E-03   -0.11215E-03  5371   0.209E-02    0.774E-02
RMM:   7    -0.230874801401E+04    0.59623E-04   -0.16999E-04  3741   0.109E-02    0.234E-02
RMM:   8    -0.230874800709E+04    0.69287E-05   -0.31942E-05  2944   0.481E-03
  53 F= -.23291260E+04 E0= -.23291260E+04  d E =-.198375E-01  mag=     4.0000
       N       E                     dE             d eps       ncg     rms          rms(c)
DAV:   1    -0.230872620714E+04    0.21807E-01   -0.32468E+00  4480   0.148E+00    0.470E-01
RMM:   2    -0.230875035553E+04   -0.24148E-01   -0.25517E-01  5817   0.305E-01    0.319E-01
RMM:   3    -0.230875247913E+04   -0.21236E-02   -0.24816E-02  5410   0.109E-01    0.365E-01
RMM:   4    -0.230875143712E+04    0.10420E-02   -0.25265E-03  5320   0.257E-02    0.133E-01
RMM:   5    -0.230875125892E+04    0.17820E-03   -0.57710E-04  4599   0.161E-02    0.726E-02
RMM:   6    -0.230875123701E+04    0.21909E-04   -0.31489E-04  4639   0.126E-02    0.363E-02
RMM:   7    -0.230875122322E+04    0.13789E-04   -0.39418E-05  2981   0.658E-03    0.124E-02
RMM:   8    -0.230875122105E+04    0.21678E-05   -0.89126E-06  2832   0.349E-03
  54 F= -.23291296E+04 E0= -.23291296E+04  d E =-.234267E-01  mag=     4.0000
       N       E                     dE             d eps       ncg     rms          rms(c)
DAV:   1    -0.230865017619E+04    0.10105E+00   -0.12398E+01  4400   0.305E+00    0.939E-01
RMM:   2    -0.230876566352E+04   -0.11549E+00   -0.12017E+00  5861   0.650E-01    0.802E-01
RMM:   3    -0.230877484609E+04   -0.91826E-02   -0.12690E-01  5322   0.240E-01    0.807E-01
RMM:   4    -0.230876980230E+04    0.50438E-02   -0.11543E-02  5661   0.541E-02    0.258E-01
RMM:   5    -0.230876909305E+04    0.70925E-03   -0.25480E-03  5088   0.314E-02    0.149E-01
RMM:   6    -0.230876899513E+04    0.97925E-04   -0.11981E-03  5200   0.230E-02    0.834E-02
RMM:   7    -0.230876892056E+04    0.74564E-04   -0.22997E-04  4223   0.126E-02    0.284E-02
RMM:   8    -0.230876890864E+04    0.11918E-04   -0.37098E-05  2974   0.498E-03    0.148E-02
RMM:   9    -0.230876890570E+04    0.29443E-05   -0.15430E-05  2879   0.377E-03
  55 F= -.23291484E+04 E0= -.23291484E+04  d E =-.187734E-01  mag=     4.0000
       N       E                     dE             d eps       ncg     rms          rms(c)
DAV:   1    -0.230871947232E+04    0.49436E-01   -0.55426E+00  4424   0.204E+00    0.630E-01
RMM:   2    -0.230877152804E+04   -0.52056E-01   -0.53720E-01  5867   0.435E-01    0.583E-01
RMM:   3    -0.230877456996E+04   -0.30419E-02   -0.53785E-02  5333   0.156E-01    0.507E-01
RMM:   4    -0.230877262119E+04    0.19488E-02   -0.50611E-03  5410   0.356E-02    0.171E-01
RMM:   5    -0.230877228324E+04    0.33795E-03   -0.10387E-03  4898   0.209E-02    0.941E-02
RMM:   6    -0.230877224464E+04    0.38602E-04   -0.49250E-04  4960   0.157E-02    0.528E-02
RMM:   7    -0.230877221481E+04    0.29828E-04   -0.87375E-05  3282   0.808E-03    0.179E-02
RMM:   8    -0.230877221024E+04    0.45644E-05   -0.15291E-05  2869   0.415E-03
  56 F= -.23291525E+04 E0= -.23291525E+04  d E =-.228339E-01  mag=     4.0000
       N       E                     dE             d eps       ncg     rms          rms(c)
DAV:   1    -0.230866876433E+04    0.10345E+00   -0.13021E+01  4400   0.315E+00    0.945E-01
RMM:   2    -0.230878317720E+04   -0.11441E+00   -0.11934E+00  5903   0.664E-01    0.776E-01
RMM:   3    -0.230879248839E+04   -0.93112E-02   -0.12685E-01  5424   0.240E-01    0.768E-01
RMM:   4    -0.230878785762E+04    0.46308E-02   -0.11744E-02  5678   0.533E-02    0.267E-01
RMM:   5    -0.230878703145E+04    0.82617E-03   -0.25016E-03  5076   0.319E-02    0.150E-01
RMM:   6    -0.230878695376E+04    0.77697E-04   -0.13922E-03  5275   0.245E-02    0.877E-02
RMM:   7    -0.230878686905E+04    0.84708E-04   -0.23084E-04  4332   0.126E-02    0.311E-02
RMM:   8    -0.230878685520E+04    0.13852E-04   -0.40158E-05  2981   0.496E-03    0.168E-02
RMM:   9    -0.230878685029E+04    0.49077E-05   -0.16921E-05  2891   0.379E-03
  57 F= -.23291686E+04 E0= -.23291686E+04  d E =-.161394E-01  mag=     4.0000
       N       E                     dE             d eps       ncg     rms          rms(c)
DAV:   1    -0.230876200806E+04    0.24847E-01   -0.29092E+00  4464   0.149E+00    0.450E-01
RMM:   2    -0.230878777310E+04   -0.25765E-01   -0.26594E-01  5899   0.316E-01    0.409E-01
RMM:   3    -0.230878926871E+04   -0.14956E-02   -0.27379E-02  5449   0.108E-01    0.336E-01
RMM:   4    -0.230878840814E+04    0.86057E-03   -0.25561E-03  5186   0.247E-02    0.124E-01
RMM:   5    -0.230878821447E+04    0.19367E-03   -0.52604E-04  4526   0.153E-02    0.663E-02
RMM:   6    -0.230878819922E+04    0.15246E-04   -0.28284E-04  4546   0.125E-02    0.377E-02
RMM:   7    -0.230878818290E+04    0.16323E-04   -0.39520E-05  3017   0.649E-03    0.134E-02
RMM:   8    -0.230878817998E+04    0.29202E-05   -0.84066E-06  2836   0.341E-03
  58 F= -.23291706E+04 E0= -.23291706E+04  d E =-.181972E-01  mag=     4.0000
       N       E                     dE             d eps       ncg     rms          rms(c)
DAV:   1    -0.230871454633E+04    0.73637E-01   -0.94604E+00  4400   0.272E+00    0.809E-01
RMM:   2    -0.230879849873E+04   -0.83952E-01   -0.86736E-01  5889   0.570E-01    0.738E-01
RMM:   3    -0.230880379318E+04   -0.52944E-02   -0.92127E-02  5524   0.197E-01    0.623E-01
RMM:   4    -0.230880072760E+04    0.30656E-02   -0.85499E-03  5533   0.448E-02    0.236E-01
RMM:   5    -0.230880004982E+04    0.67778E-03   -0.18258E-03  4963   0.289E-02    0.122E-01
RMM:   6    -0.230880002100E+04    0.28823E-04   -0.96057E-04  5061   0.223E-02    0.644E-02
RMM:   7    -0.230879997581E+04    0.45189E-04   -0.13433E-04  3707   0.928E-03    0.257E-02
RMM:   8    -0.230879996752E+04    0.82946E-05   -0.24301E-05  2901   0.461E-03
  59 F= -.23291840E+04 E0= -.23291840E+04  d E =-.133995E-01  mag=     4.0000
       N       E                     dE             d eps       ncg     rms          rms(c)
DAV:   1    -0.230879179296E+04    0.81829E-02   -0.96514E-01  4544   0.868E-01    0.263E-01
RMM:   2    -0.230880047241E+04   -0.86794E-02   -0.88438E-02  5928   0.185E-01    0.267E-01
RMM:   3    -0.230880079204E+04   -0.31963E-03   -0.94112E-03  5389   0.647E-02    0.185E-01
RMM:   4    -0.230880053754E+04    0.25450E-03   -0.86355E-04  4378   0.145E-02    0.748E-02
RMM:   5    -0.230880046960E+04    0.67942E-04   -0.17780E-04  3995   0.100E-02    0.395E-02
RMM:   6    -0.230880046691E+04    0.26827E-05   -0.98318E-05  3389   0.851E-03
  60 F= -.23291851E+04 E0= -.23291851E+04  d E =-.144222E-01  mag=     4.0000
       N       E                     dE             d eps       ncg     rms          rms(c)
DAV:   1    -0.230876705320E+04    0.33416E-01   -0.36932E+00  4400   0.187E+00    0.607E-01
RMM:   2    -0.230880812025E+04   -0.41067E-01   -0.41684E-01  5802   0.399E-01    0.640E-01
RMM:   3    -0.230880846289E+04   -0.34263E-03   -0.42245E-02  5233   0.148E-01    0.415E-01
RMM:   4    -0.230880707310E+04    0.13898E-02   -0.40803E-03  5202   0.332E-02    0.148E-01
RMM:   5    -0.230880679344E+04    0.27966E-03   -0.82555E-04  5006   0.212E-02    0.786E-02
RMM:   6    -0.230880676661E+04    0.26826E-04   -0.30281E-04  4563   0.149E-02    0.253E-02
RMM:   7    -0.230880676432E+04    0.22931E-05   -0.45368E-05  3095   0.644E-03
  61 F= -.23291924E+04 E0= -.23291924E+04  d E =-.730339E-02  mag=     4.0000
       N       E                     dE             d eps       ncg     rms          rms(c)
DAV:   1    -0.230880572138E+04    0.10452E-02   -0.91830E-02  4992   0.295E-01    0.978E-02
RMM:   2    -0.230880675503E+04   -0.10336E-02   -0.10523E-02  5862   0.645E-02    0.101E-01
RMM:   3    -0.230880675768E+04   -0.26491E-05   -0.10275E-03  3751   0.237E-02    0.647E-02
RMM:   4    -0.230880672653E+04    0.31156E-04   -0.10354E-04  3063   0.628E-03    0.240E-02
RMM:   5    -0.230880672024E+04    0.62855E-05   -0.22099E-05  2876   0.433E-03
  62 F= -.23291925E+04 E0= -.23291925E+04  d E =-.741917E-02  mag=     4.0000
       N       E                     dE             d eps       ncg     rms          rms(c)
DAV:   1    -0.230878800470E+04    0.18722E-01   -0.26524E+00  4400   0.162E+00    0.470E-01
RMM:   2    -0.230881218964E+04   -0.24185E-01   -0.25024E-01  5791   0.323E-01    0.448E-01
RMM:   3    -0.230881303307E+04   -0.84343E-03   -0.24288E-02  5256   0.114E-01    0.341E-01
RMM:   4    -0.230881205417E+04    0.97890E-03   -0.24655E-03  5116   0.274E-02    0.129E-01
RMM:   5    -0.230881182617E+04    0.22800E-03   -0.69834E-04  4993   0.198E-02    0.592E-02
RMM:   6    -0.230881181342E+04    0.12754E-04   -0.21928E-04  4471   0.129E-02    0.259E-02
RMM:   7    -0.230881180564E+04    0.77806E-05   -0.32760E-05  3001   0.540E-03
  63 F= -.23291983E+04 E0= -.23291983E+04  d E =-.583960E-02  mag=     4.0000
       N       E                     dE             d eps       ncg     rms          rms(c)
DAV:   1    -0.230880896989E+04    0.28435E-02   -0.33033E-01  4528   0.573E-01    0.168E-01
RMM:   2    -0.230881202809E+04   -0.30582E-02   -0.31498E-02  5791   0.116E-01    0.167E-01
RMM:   3    -0.230881208566E+04   -0.57570E-04   -0.29986E-03  4851   0.394E-02    0.117E-01
RMM:   4    -0.230881197355E+04    0.11211E-03   -0.30908E-04  3595   0.995E-03    0.458E-02
RMM:   5    -0.230881194375E+04    0.29804E-04   -0.85058E-05  3616   0.766E-03    0.219E-02
RMM:   6    -0.230881194134E+04    0.24082E-05   -0.29900E-05  2937   0.618E-03
  64 F= -.23291987E+04 E0= -.23291987E+04  d E =-.624334E-02  mag=     4.0000
       N       E                     dE             d eps       ncg     rms          rms(c)
DAV:   1    -0.230879428126E+04    0.17662E-01   -0.27268E+00  4400   0.167E+00    0.460E-01
RMM:   2    -0.230881642995E+04   -0.22149E-01   -0.23457E-01  5696   0.323E-01    0.347E-01
RMM:   3    -0.230881781485E+04   -0.13849E-02   -0.21970E-02  5263   0.113E-01    0.333E-01
RMM:   4    -0.230881689098E+04    0.92388E-03   -0.22992E-03  5178   0.269E-02    0.136E-01
RMM:   5    -0.230881665778E+04    0.23320E-03   -0.76244E-04  4922   0.201E-02    0.532E-02
RMM:   6    -0.230881665517E+04    0.26133E-05   -0.20548E-04  4358   0.127E-02    0.235E-02
RMM:   7    -0.230881665031E+04    0.48576E-05   -0.23877E-05  2930   0.510E-03
  65 F= -.23292041E+04 E0= -.23292041E+04  d E =-.541436E-02  mag=     4.0000
       N       E                     dE             d eps       ncg     rms          rms(c)
DAV:   1    -0.230881549616E+04    0.11590E-02   -0.14006E-01  4720   0.379E-01    0.106E-01
RMM:   2    -0.230881666148E+04   -0.11653E-02   -0.12258E-02  5748   0.749E-02    0.864E-02
RMM:   3    -0.230881671594E+04   -0.54459E-04   -0.10937E-03  4287   0.265E-02    0.775E-02
RMM:   4    -0.230881666597E+04    0.49971E-04   -0.11546E-04  3037   0.708E-03    0.308E-02
RMM:   5    -0.230881665350E+04    0.12471E-04   -0.39863E-05  2991   0.563E-03    0.125E-02
RMM:   6    -0.230881665356E+04   -0.57218E-07   -0.12926E-05  2856   0.464E-03
  66 F= -.23292043E+04 E0= -.23292043E+04  d E =-.557853E-02  mag=     4.0000
       N       E                     dE             d eps       ncg     rms          rms(c)
DAV:   1    -0.230880550303E+04    0.11150E-01   -0.20583E+00  4408   0.150E+00    0.390E-01
RMM:   2    -0.230882242958E+04   -0.16927E-01   -0.17318E-01  5610   0.281E-01    0.400E-01
RMM:   3    -0.230882260700E+04   -0.17742E-03   -0.17054E-02  4954   0.107E-01    0.268E-01
RMM:   4    -0.230882204188E+04    0.56512E-03   -0.17608E-03  5031   0.235E-02    0.113E-01
RMM:   5    -0.230882189773E+04    0.14416E-03   -0.48782E-04  4890   0.167E-02    0.627E-02
RMM:   6    -0.230882187475E+04    0.22981E-04   -0.24118E-04  4457   0.128E-02    0.264E-02
RMM:   7    -0.230882186604E+04    0.87118E-05   -0.27035E-05  2966   0.542E-03
  67 F= -.23292101E+04 E0= -.23292101E+04  d E =-.583650E-02  mag=     4.0000
       N       E                     dE             d eps       ncg     rms          rms(c)
DAV:   1    -0.230879900217E+04    0.22873E-01   -0.29637E+00  4400   0.180E+00    0.469E-01
RMM:   2    -0.230882347328E+04   -0.24471E-01   -0.25033E-01  5644   0.338E-01    0.483E-01
RMM:   3    -0.230882369322E+04   -0.21995E-03   -0.24342E-02  5004   0.123E-01    0.324E-01
RMM:   4    -0.230882287466E+04    0.81857E-03   -0.25423E-03  5121   0.282E-02    0.136E-01
RMM:   5    -0.230882266697E+04    0.20769E-03   -0.69646E-04  4971   0.198E-02    0.766E-02
RMM:   6    -0.230882263155E+04    0.35421E-04   -0.35756E-04  4681   0.152E-02    0.324E-02
RMM:   7    -0.230882261819E+04    0.13359E-04   -0.39132E-05  3031   0.604E-03    0.136E-02
RMM:   8    -0.230882261569E+04    0.25065E-05   -0.92384E-06  2849   0.353E-03
  68 F= -.23292117E+04 E0= -.23292117E+04  d E =-.734521E-02  mag=     4.0000
       N       E                     dE             d eps       ncg     rms          rms(c)
DAV:   1    -0.230882055349E+04    0.20647E-02   -0.64131E-01  4448   0.825E-01    0.202E-01
RMM:   2    -0.230882547169E+04   -0.49182E-02   -0.50133E-02  5711   0.152E-01    0.214E-01
RMM:   3    -0.230882549512E+04   -0.23427E-04   -0.46853E-03  5053   0.555E-02    0.137E-01
RMM:   4    -0.230882535590E+04    0.13922E-03   -0.48941E-04  4108   0.121E-02    0.617E-02
RMM:   5    -0.230882531581E+04    0.40095E-04   -0.14173E-04  4027   0.911E-03    0.362E-02
RMM:   6    -0.230882530802E+04    0.77828E-05   -0.74231E-05  3232   0.788E-03
  69 F= -.23292147E+04 E0= -.23292147E+04  d E =-.305705E-02  mag=     4.0000
       N       E                     dE             d eps       ncg     rms          rms(c)
DAV:   1    -0.230878713365E+04    0.38182E-01   -0.57600E+00  4400   0.247E+00    0.605E-01
RMM:   2    -0.230883119283E+04   -0.44059E-01   -0.45225E-01  5729   0.458E-01    0.617E-01
RMM:   3    -0.230883184059E+04   -0.64776E-03   -0.42630E-02  5256   0.152E-01    0.424E-01
RMM:   4    -0.230883049356E+04    0.13470E-02   -0.44450E-03  5239   0.357E-02    0.187E-01
RMM:   5    -0.230883014125E+04    0.35231E-03   -0.12687E-03  4889   0.246E-02    0.110E-01
RMM:   6    -0.230883006252E+04    0.78733E-04   -0.72353E-04  5066   0.210E-02    0.433E-02
RMM:   7    -0.230883004465E+04    0.17870E-04   -0.69817E-05  3268   0.752E-03    0.187E-02
RMM:   8    -0.230883003978E+04    0.48650E-05   -0.15610E-05  2868   0.417E-03
  70 F= -.23292206E+04 E0= -.23292206E+04  d E =-.889583E-02  mag=     4.0000
       N       E                     dE             d eps       ncg     rms          rms(c)
DAV:   1    -0.230865082064E+04    0.17922E+00   -0.23098E+01  4400   0.495E+00    0.120E+00
RMM:   2    -0.230882919364E+04   -0.17837E+00   -0.18355E+00  5777   0.922E-01    0.121E+00
RMM:   3    -0.230883191764E+04   -0.27240E-02   -0.16761E-01  5303   0.295E-01    0.859E-01
RMM:   4    -0.230882628958E+04    0.56281E-02   -0.17889E-02  5337   0.717E-02    0.378E-01
RMM:   5    -0.230882480023E+04    0.14893E-02   -0.50720E-03  4942   0.489E-02    0.224E-01
RMM:   6    -0.230882448302E+04    0.31721E-03   -0.31242E-03  5314   0.425E-02    0.898E-02
RMM:   7    -0.230882440194E+04    0.81079E-04   -0.30695E-04  4479   0.145E-02    0.397E-02
RMM:   8    -0.230882438053E+04    0.21410E-04   -0.62700E-05  3072   0.601E-03    0.204E-02
RMM:   9    -0.230882437795E+04    0.25839E-05   -0.31604E-05  2897   0.515E-03
  71 F= -.23292172E+04 E0= -.23292172E+04  d E =-.550416E-02  mag=     4.0000
       N       E                     dE             d eps       ncg     rms          rms(c)
DAV:   1    -0.230874775544E+04    0.76625E-01   -0.11213E+01  4400   0.345E+00    0.844E-01
RMM:   2    -0.230883321681E+04   -0.85461E-01   -0.87353E-01  5644   0.626E-01    0.883E-01
RMM:   3    -0.230883358121E+04   -0.36440E-03   -0.81928E-02  5060   0.230E-01    0.551E-01
RMM:   4    -0.230883128269E+04    0.22985E-02   -0.82719E-03  5128   0.494E-02    0.251E-01
RMM:   5    -0.230883047972E+04    0.80297E-03   -0.25719E-03  4852   0.376E-02    0.110E-01
RMM:   6    -0.230883048875E+04   -0.90316E-05   -0.77144E-04  4900   0.261E-02    0.523E-02
RMM:   7    -0.230883046889E+04    0.19860E-04   -0.11827E-04  3666   0.772E-03    0.250E-02
RMM:   8    -0.230883045741E+04    0.11480E-04   -0.20143E-05  2899   0.535E-03    0.131E-02
RMM:   9    -0.230883045572E+04    0.16859E-05   -0.19405E-05  2880   0.376E-03
  72 F= -.23292216E+04 E0= -.23292216E+04  d E =-.999178E-02  mag=     4.0000
       N       E                     dE             d eps       ncg     rms          rms(c)
DAV:   1    -0.230882999574E+04    0.46167E-03   -0.68936E-01  4416   0.840E-01    0.243E-01
RMM:   2    -0.230883524714E+04   -0.52514E-02   -0.57114E-02  5780   0.169E-01    0.132E-01
RMM:   3    -0.230883543748E+04   -0.19033E-03   -0.43115E-03  5299   0.536E-02    0.108E-01
RMM:   4    -0.230883539713E+04    0.40348E-04   -0.55458E-04  4450   0.139E-02    0.942E-02
RMM:   5    -0.230883531406E+04    0.83067E-04   -0.26529E-04  4273   0.121E-02    0.391E-02
RMM:   6    -0.230883530089E+04    0.13172E-04   -0.62397E-05  3302   0.707E-03    0.135E-02
RMM:   7    -0.230883529969E+04    0.11963E-05   -0.10453E-05  2842   0.460E-03
  73 F= -.23292269E+04 E0= -.23292269E+04  d E =-.520570E-02  mag=     4.0000
       N       E                     dE             d eps       ncg     rms          rms(c)
DAV:   1    -0.230883204727E+04    0.32536E-02   -0.57889E-01  4408   0.771E-01    0.223E-01
RMM:   2    -0.230883645856E+04   -0.44113E-02   -0.47907E-02  5756   0.154E-01    0.123E-01
RMM:   3    -0.230883663210E+04   -0.17354E-03   -0.36760E-03  5270   0.494E-02    0.105E-01
RMM:   4    -0.230883658423E+04    0.47861E-04   -0.46752E-04  4176   0.128E-02    0.848E-02
RMM:   5    -0.230883651466E+04    0.69571E-04   -0.21919E-04  4176   0.114E-02    0.341E-02
RMM:   6    -0.230883650510E+04    0.95640E-05   -0.54242E-05  3216   0.679E-03
  74 F= -.23292284E+04 E0= -.23292284E+04  d E =-.674285E-02  mag=     4.0000
       N       E                     dE             d eps       ncg     rms          rms(c)
DAV:   1    -0.230883701248E+04   -0.49782E-03   -0.21053E-01  4496   0.486E-01    0.147E-01
RMM:   2    -0.230883884572E+04   -0.18332E-02   -0.19961E-02  5885   0.998E-02    0.743E-02
RMM:   3    -0.230883890744E+04   -0.61725E-04   -0.15635E-03  4978   0.320E-02    0.542E-02
RMM:   4    -0.230883890430E+04    0.31430E-05   -0.18302E-04  3273   0.863E-03    0.526E-02
RMM:   5    -0.230883888346E+04    0.20841E-04   -0.79700E-05  3192   0.748E-03    0.296E-02
RMM:   6    -0.230883887652E+04    0.69403E-05   -0.26041E-05  2938   0.546E-03
  75 F= -.23292310E+04 E0= -.23292310E+04  d E =-.257885E-02  mag=     4.0000
       N       E                     dE             d eps       ncg     rms          rms(c)
DAV:   1    -0.230883037144E+04    0.85120E-02   -0.11745E+00  4400   0.115E+00    0.346E-01
RMM:   2    -0.230884063484E+04   -0.10263E-01   -0.11127E-01  5853   0.235E-01    0.185E-01
RMM:   3    -0.230884098719E+04   -0.35235E-03   -0.86450E-03  5478   0.710E-02    0.160E-01
RMM:   4    -0.230884087107E+04    0.11612E-03   -0.10452E-03  4802   0.190E-02    0.119E-01
RMM:   5    -0.230884073555E+04    0.13551E-03   -0.43985E-04  4718   0.153E-02    0.601E-02
RMM:   6    -0.230884069868E+04    0.36868E-04   -0.15138E-04  4334   0.100E-02    0.183E-02
RMM:   7    -0.230884069588E+04    0.28081E-05   -0.18428E-05  2865   0.580E-03
  76 F= -.23292333E+04 E0= -.23292333E+04  d E =-.488572E-02  mag=     4.0000
       N       E                     dE             d eps       ncg     rms          rms(c)
DAV:   1    -0.230884122064E+04   -0.52196E-03   -0.19625E-01  4528   0.450E-01    0.118E-01
RMM:   2    -0.230884268727E+04   -0.14666E-02   -0.15491E-02  5857   0.895E-02    0.838E-02
RMM:   3    -0.230884271871E+04   -0.31440E-04   -0.11295E-03  4481   0.252E-02    0.805E-02
RMM:   4    -0.230884267082E+04    0.47895E-04   -0.14015E-04  3041   0.776E-03    0.382E-02
RMM:   5    -0.230884265808E+04    0.12737E-04   -0.51319E-05  3091   0.580E-03    0.241E-02
RMM:   6    -0.230884265335E+04    0.47310E-05   -0.30997E-05  2969   0.555E-03
  77 F= -.23292354E+04 E0= -.23292354E+04  d E =-.212510E-02  mag=     4.0000
       N       E                     dE             d eps       ncg     rms          rms(c)
DAV:   1    -0.230883299360E+04    0.96645E-02   -0.17616E+00  4400   0.135E+00    0.353E-01
RMM:   2    -0.230884609275E+04   -0.13099E-01   -0.13871E-01  5845   0.267E-01    0.238E-01
RMM:   3    -0.230884639266E+04   -0.29990E-03   -0.10007E-02  5539   0.695E-02    0.228E-01
RMM:   4    -0.230884602497E+04    0.36768E-03   -0.12415E-03  4897   0.202E-02    0.116E-01
RMM:   5    -0.230884590277E+04    0.12220E-03   -0.45711E-04  4613   0.145E-02    0.715E-02
RMM:   6    -0.230884585778E+04    0.44991E-04   -0.25473E-04  4610   0.123E-02    0.209E-02
RMM:   7    -0.230884585537E+04    0.24168E-05   -0.22175E-05  2896   0.590E-03
  78 F= -.23292391E+04 E0= -.23292391E+04  d E =-.582636E-02  mag=     4.0000
       N       E                     dE             d eps       ncg     rms          rms(c)
DAV:   1    -0.230884375263E+04    0.21051E-02   -0.30708E-01  4480   0.562E-01    0.148E-01
RMM:   2    -0.230884604670E+04   -0.22941E-02   -0.24228E-02  5847   0.112E-01    0.104E-01
RMM:   3    -0.230884610002E+04   -0.53315E-04   -0.17650E-03  4900   0.308E-02    0.100E-01
RMM:   4    -0.230884602597E+04    0.74051E-04   -0.21729E-04  3164   0.915E-03    0.477E-02
RMM:   5    -0.230884600590E+04    0.20065E-04   -0.80866E-05  3369   0.699E-03    0.300E-02
RMM:   6    -0.230884599830E+04    0.75990E-05   -0.47228E-05  3094   0.647E-03
  79 F= -.23292395E+04 E0= -.23292395E+04  d E =-.617579E-02  mag=     4.0000
       N       E                     dE             d eps       ncg     rms          rms(c)
DAV:   1    -0.230884375190E+04    0.22540E-02   -0.71612E-01  4440   0.863E-01    0.228E-01
RMM:   2    -0.230884973537E+04   -0.59835E-02   -0.64162E-02  5853   0.180E-01    0.122E-01
RMM:   3    -0.230884984168E+04   -0.10631E-03   -0.40114E-03  5201   0.454E-02    0.770E-02
RMM:   4    -0.230884979872E+04    0.42954E-04   -0.49250E-04  4342   0.127E-02    0.504E-02
RMM:   5    -0.230884979822E+04    0.50614E-06   -0.15268E-04  3785   0.999E-03    0.550E-02
RMM:   6    -0.230884977421E+04    0.24005E-04   -0.54431E-05  3059   0.644E-03    0.212E-02
RMM:   7    -0.230884977182E+04    0.23961E-05   -0.87369E-06  2842   0.378E-03
  80 F= -.23292435E+04 E0= -.23292435E+04  d E =-.402098E-02  mag=     4.0000
       N       E                     dE             d eps       ncg     rms          rms(c)
DAV:   1    -0.230883398761E+04    0.15787E-01   -0.21469E+00  4432   0.149E+00    0.394E-01
RMM:   2    -0.230885192781E+04   -0.17940E-01   -0.19228E-01  5870   0.312E-01    0.213E-01
RMM:   3    -0.230885223680E+04   -0.30899E-03   -0.12020E-02  5431   0.789E-02    0.137E-01
RMM:   4    -0.230885214242E+04    0.94377E-04   -0.14785E-03  4871   0.215E-02    0.113E-01
RMM:   5    -0.230885213030E+04    0.12122E-04   -0.55592E-04  4649   0.164E-02    0.118E-01
RMM:   6    -0.230885200858E+04    0.12172E-03   -0.21202E-04  4444   0.104E-02    0.241E-02
RMM:   7    -0.230885200690E+04    0.16773E-05   -0.20830E-05  2882   0.557E-03
  81 F= -.23292461E+04 E0= -.23292461E+04  d E =-.668001E-02  mag=     4.0000
       N       E                     dE             d eps       ncg     rms          rms(c)
DAV:   1    -0.230884669134E+04    0.53172E-02   -0.95288E-01  4440   0.101E+00    0.266E-01
RMM:   2    -0.230885545304E+04   -0.87617E-02   -0.93259E-02  5864   0.211E-01    0.143E-01
RMM:   3    -0.230885566129E+04   -0.20825E-03   -0.59357E-03  5376   0.528E-02    0.954E-02
RMM:   4    -0.230885563699E+04    0.24298E-04   -0.68742E-04  4339   0.142E-02    0.878E-02
RMM:   5    -0.230885559588E+04    0.41112E-04   -0.26579E-04  4205   0.110E-02    0.678E-02
RMM:   6    -0.230885555568E+04    0.40204E-04   -0.95312E-05  3705   0.800E-03    0.159E-02
RMM:   7    -0.230885555635E+04   -0.66946E-06   -0.11420E-05  2849   0.496E-03
  82 F= -.23292500E+04 E0= -.23292500E+04  d E =-.391052E-02  mag=     4.0000
       N       E                     dE             d eps       ncg     rms          rms(c)
DAV:   1    -0.230883386994E+04    0.21686E-01   -0.25173E+00  4432   0.165E+00    0.432E-01
RMM:   2    -0.230885701598E+04   -0.23146E-01   -0.24651E-01  5872   0.343E-01    0.231E-01
RMM:   3    -0.230885755299E+04   -0.53700E-03   -0.15782E-02  5477   0.868E-02    0.151E-01
RMM:   4    -0.230885745839E+04    0.94601E-04   -0.18169E-03  4888   0.229E-02    0.130E-01
RMM:   5    -0.230885740216E+04    0.56228E-04   -0.66910E-04  4947   0.174E-02    0.119E-01
RMM:   6    -0.230885727707E+04    0.12509E-03   -0.24590E-04  4626   0.113E-02    0.286E-02
RMM:   7    -0.230885727502E+04    0.20455E-05   -0.25488E-05  2907   0.622E-03
  83 F= -.23292523E+04 E0= -.23292523E+04  d E =-.621189E-02  mag=     4.0000
       N       E                     dE             d eps       ncg     rms          rms(c)
DAV:   1    -0.230885275282E+04    0.45242E-02   -0.11997E+00  4424   0.110E+00    0.289E-01
RMM:   2    -0.230886083859E+04   -0.80858E-02   -0.85382E-02  5828   0.213E-01    0.193E-01
RMM:   3    -0.230886102949E+04   -0.19090E-03   -0.57370E-03  5455   0.562E-02    0.196E-01
RMM:   4    -0.230886073249E+04    0.29700E-03   -0.75908E-04  4678   0.169E-02    0.910E-02
RMM:   5    -0.230886065003E+04    0.82458E-04   -0.32256E-04  4427   0.126E-02    0.551E-02
RMM:   6    -0.230886062320E+04    0.26837E-04   -0.15775E-04  4271   0.103E-02    0.164E-02
RMM:   7    -0.230886062198E+04    0.12172E-05   -0.15040E-05  2886   0.502E-03
  84 F= -.23292560E+04 E0= -.23292560E+04  d E =-.361944E-02  mag=     4.0000
       N       E                     dE             d eps       ncg     rms          rms(c)
DAV:   1    -0.230884776912E+04    0.12854E-01   -0.20015E+00  4400   0.143E+00    0.373E-01
RMM:   2    -0.230886123714E+04   -0.13468E-01   -0.14222E-01  5835   0.275E-01    0.252E-01
RMM:   3    -0.230886155902E+04   -0.32187E-03   -0.96702E-03  5495   0.734E-02    0.257E-01
RMM:   4    -0.230886104044E+04    0.51858E-03   -0.12787E-03  5040   0.218E-02    0.117E-01
RMM:   5    -0.230886089837E+04    0.14207E-03   -0.54148E-04  4778   0.159E-02    0.713E-02
RMM:   6    -0.230886084739E+04    0.50977E-04   -0.27095E-04  4652   0.127E-02    0.214E-02
RMM:   7    -0.230886084308E+04    0.43104E-05   -0.23690E-05  2926   0.569E-03
  85 F= -.23292565E+04 E0= -.23292565E+04  d E =-.418971E-02  mag=     4.0000
       N       E                     dE             d eps       ncg     rms          rms(c)
DAV:   1    -0.230885969387E+04    0.11535E-02   -0.24810E-01  4480   0.501E-01    0.130E-01
RMM:   2    -0.230886133587E+04   -0.16420E-02   -0.17265E-02  5788   0.956E-02    0.875E-02
RMM:   3    -0.230886136821E+04   -0.32337E-04   -0.12319E-03  4652   0.293E-02    0.839E-02
RMM:   4    -0.230886131326E+04    0.54946E-04   -0.15113E-04  3121   0.819E-03    0.414E-02
RMM:   5    -0.230886129736E+04    0.15904E-04   -0.65060E-05  3229   0.654E-03    0.255E-02
RMM:   6    -0.230886129197E+04    0.53907E-05   -0.35018E-05  3031   0.585E-03
  86 F= -.23292569E+04 E0= -.23292569E+04  d E =-.451605E-02  mag=     4.0000
       N       E                     dE             d eps       ncg     rms          rms(c)
DAV:   1    -0.230885451014E+04    0.67872E-02   -0.14769E+00  4432   0.120E+00    0.315E-01
RMM:   2    -0.230886517384E+04   -0.10664E-01   -0.11305E-01  5841   0.233E-01    0.207E-01
RMM:   3    -0.230886544377E+04   -0.26993E-03   -0.77019E-03  5499   0.681E-02    0.193E-01
RMM:   4    -0.230886517169E+04    0.27208E-03   -0.98812E-04  4850   0.182E-02    0.110E-01
RMM:   5    -0.230886505931E+04    0.11238E-03   -0.38216E-04  4506   0.137E-02    0.602E-02
RMM:   6    -0.230886502917E+04    0.30147E-04   -0.19571E-04  4377   0.109E-02    0.197E-02
[...]
DAV:   1    -0.230900383093E+04    0.30343E-02   -0.26155E-01  4400   0.525E-01    0.131E-01
RMM:   2    -0.230900690795E+04   -0.30770E-02   -0.33019E-02  5662   0.995E-02    0.667E-02
RMM:   3    -0.230900711844E+04   -0.21049E-03   -0.28564E-03  4613   0.447E-02    0.396E-02
RMM:   4    -0.230900711993E+04   -0.14956E-05   -0.29152E-04  3502   0.821E-03    0.326E-02
RMM:   5    -0.230900711699E+04    0.29408E-05   -0.44152E-05  2944   0.609E-03
 172 F= -.23294009E+04 E0= -.23294009E+04  d E =-.131000E-02  mag=     4.0000
       N       E                     dE             d eps       ncg     rms          rms(c)
DAV:   1    -0.230899974252E+04    0.73774E-02   -0.78681E-01  4400   0.933E-01    0.233E-01
RMM:   2    -0.230900796761E+04   -0.82251E-02   -0.88295E-02  5744   0.176E-01    0.125E-01
RMM:   3    -0.230900848286E+04   -0.51525E-03   -0.74622E-03  5108   0.717E-02    0.102E-01
RMM:   4    -0.230900847050E+04    0.12359E-04   -0.81079E-04  4432   0.140E-02    0.789E-02
RMM:   5    -0.230900839419E+04    0.76308E-04   -0.17718E-04  4076   0.108E-02    0.386E-02
RMM:   6    -0.230900838065E+04    0.13535E-04   -0.81033E-05  3905   0.767E-03    0.182E-02
RMM:   7    -0.230900837947E+04    0.11837E-05   -0.13180E-05  2867   0.546E-03
 173 F= -.23294020E+04 E0= -.23294020E+04  d E =-.108231E-02  mag=     4.0000
       N       E                     dE             d eps       ncg     rms          rms(c)
DAV:   1    -0.230900804040E+04    0.34025E-03   -0.35473E-02  4768   0.198E-01    0.503E-02
RMM:   2    -0.230900841479E+04   -0.37439E-03   -0.40289E-03  5797   0.378E-02    0.271E-02
RMM:   3    -0.230900843948E+04   -0.24686E-04   -0.34121E-04  3274   0.150E-02    0.246E-02
RMM:   4    -0.230900843767E+04    0.18143E-05   -0.38099E-05  2892   0.407E-03
 174 F= -.23294020E+04 E0= -.23294020E+04  d E =-.110238E-02  mag=     4.0000
       N       E                     dE             d eps       ncg     rms          rms(c)
DAV:   1    -0.230900449473E+04    0.39447E-02   -0.51614E-01  4400   0.767E-01    0.194E-01
RMM:   2    -0.230900929108E+04   -0.47963E-02   -0.51165E-02  5666   0.142E-01    0.121E-01
RMM:   3    -0.230900960655E+04   -0.31547E-03   -0.45761E-03  4803   0.609E-02    0.126E-01
RMM:   4    -0.230900949073E+04    0.11582E-03   -0.50418E-04  4250   0.125E-02    0.555E-02
RMM:   5    -0.230900944239E+04    0.48340E-04   -0.12645E-04  4027   0.917E-03    0.231E-02
RMM:   6    -0.230900943795E+04    0.44390E-05   -0.37513E-05  3107   0.676E-03
 175 F= -.23294029E+04 E0= -.23294029E+04  d E =-.881678E-03  mag=     4.0000
       N       E                     dE             d eps       ncg     rms          rms(c)
DAV:   1    -0.230900865944E+04    0.78296E-03   -0.86374E-02  4496   0.314E-01    0.810E-02
RMM:   2    -0.230900946597E+04   -0.80654E-03   -0.86908E-03  5997   0.600E-02    0.443E-02
RMM:   3    -0.230900951778E+04   -0.51806E-04   -0.75368E-04  3929   0.232E-02    0.431E-02
RMM:   4    -0.230900950773E+04    0.10046E-04   -0.82467E-05  2980   0.593E-03    0.244E-02
RMM:   5    -0.230900949904E+04    0.86933E-05   -0.20812E-05  2847   0.451E-03
 176 F= -.23294029E+04 E0= -.23294029E+04  d E =-.894359E-03  mag=     4.0000
       N       E                     dE             d eps       ncg     rms          rms(c)
DAV:   1    -0.230900637314E+04    0.31346E-02   -0.43975E-01  4400   0.707E-01    0.163E-01
RMM:   2    -0.230901022837E+04   -0.38552E-02   -0.40982E-02  5861   0.132E-01    0.110E-01
RMM:   3    -0.230901045783E+04   -0.22946E-03   -0.35141E-03  4992   0.467E-02    0.103E-01
RMM:   4    -0.230901038525E+04    0.72578E-04   -0.37759E-04  3675   0.106E-02    0.498E-02
RMM:   5    -0.230901034795E+04    0.37300E-04   -0.86745E-05  3562   0.811E-03    0.232E-02
RMM:   6    -0.230901034366E+04    0.42923E-05   -0.39817E-05  3145   0.653E-03
 177 F= -.23294037E+04 E0= -.23294037E+04  d E =-.720262E-03  mag=     4.0000
       N       E                     dE             d eps       ncg     rms          rms(c)
DAV:   1    -0.230900858833E+04    0.17596E-02   -0.21050E-01  4408   0.489E-01    0.114E-01
RMM:   2    -0.230901042232E+04   -0.18340E-02   -0.19580E-02  5914   0.911E-02    0.741E-02
RMM:   3    -0.230901054136E+04   -0.11903E-03   -0.17430E-03  4561   0.353E-02    0.713E-02
RMM:   4    -0.230901050747E+04    0.33883E-04   -0.18193E-04  3149   0.792E-03    0.349E-02
RMM:   5    -0.230901048869E+04    0.18786E-04   -0.43388E-05  3017   0.616E-03    0.157E-02
RMM:   6    -0.230901048673E+04    0.19588E-05   -0.19253E-05  2890   0.523E-03
 178 F= -.23294037E+04 E0= -.23294037E+04  d E =-.777968E-03  mag=     4.0000
       N       E                     dE             d eps       ncg     rms          rms(c)
DAV:   1    -0.230900731717E+04    0.31715E-02   -0.53242E-01  4400   0.781E-01    0.181E-01
RMM:   2    -0.230901133626E+04   -0.40191E-02   -0.42836E-02  5712   0.140E-01    0.115E-01
RMM:   3    -0.230901156782E+04   -0.23157E-03   -0.37169E-03  4915   0.556E-02    0.114E-01
RMM:   4    -0.230901147095E+04    0.96877E-04   -0.40030E-04  4147   0.118E-02    0.533E-02
RMM:   5    -0.230901142572E+04    0.45229E-04   -0.11709E-04  3974   0.924E-03    0.223E-02
RMM:   6    -0.230901142189E+04    0.38266E-05   -0.35917E-05  3097   0.671E-03
 179 F= -.23294045E+04 E0= -.23294045E+04  d E =-.812706E-03  mag=     4.0000
       N       E                     dE             d eps       ncg     rms          rms(c)
DAV:   1    -0.230901048986E+04    0.93586E-03   -0.13049E-01  4480   0.387E-01    0.904E-02
RMM:   2    -0.230901148343E+04   -0.99358E-03   -0.10624E-02  5925   0.708E-02    0.559E-02
RMM:   3    -0.230901154117E+04   -0.57735E-04   -0.91102E-04  4213   0.262E-02    0.559E-02
RMM:   4    -0.230901151789E+04    0.23282E-04   -0.97596E-05  2991   0.676E-03    0.271E-02
RMM:   5    -0.230901150608E+04    0.11811E-04   -0.30838E-05  2920   0.538E-03    0.112E-02
RMM:   6    -0.230901150512E+04    0.96059E-06   -0.11776E-05  2832   0.452E-03
 180 F= -.23294045E+04 E0= -.23294045E+04  d E =-.835580E-03  mag=     4.0000
       N       E                     dE             d eps       ncg     rms          rms(c)
DAV:   1    -0.230900879538E+04    0.27107E-02   -0.51256E-01  4400   0.767E-01    0.167E-01
RMM:   2    -0.230901243103E+04   -0.36357E-02   -0.38714E-02  5670   0.134E-01    0.108E-01
RMM:   3    -0.230901261963E+04   -0.18859E-03   -0.32562E-03  4850   0.531E-02    0.104E-01
RMM:   4    -0.230901254386E+04    0.75764E-04   -0.35063E-04  3996   0.112E-02    0.521E-02
RMM:   5    -0.230901250334E+04    0.40521E-04   -0.10935E-04  3908   0.899E-03    0.223E-02
RMM:   6    -0.230901250063E+04    0.27171E-05   -0.32968E-05  3079   0.651E-03
 181 F= -.23294054E+04 E0= -.23294054E+04  d E =-.880225E-03  mag=     4.0000
       N       E                     dE             d eps       ncg     rms          rms(c)
DAV:   1    -0.230901029456E+04    0.22088E-02   -0.33098E-01  4400   0.616E-01    0.136E-01
RMM:   2    -0.230901265631E+04   -0.23617E-02   -0.25189E-02  5735   0.109E-01    0.862E-02
RMM:   3    -0.230901277990E+04   -0.12359E-03   -0.20728E-03  4801   0.413E-02    0.844E-02
RMM:   4    -0.230901272903E+04    0.50871E-04   -0.22391E-04  3398   0.909E-03    0.422E-02
RMM:   5    -0.230901270222E+04    0.26800E-04   -0.70938E-05  3539   0.752E-03    0.173E-02
RMM:   6    -0.230901270059E+04    0.16356E-05   -0.22232E-05  2911   0.569E-03
 182 F= -.23294055E+04 E0= -.23294055E+04  d E =-.988274E-03  mag=     4.0000
       N       E                     dE             d eps       ncg     rms          rms(c)
DAV:   1    -0.230900930760E+04    0.33946E-02   -0.68042E-01  4400   0.887E-01    0.203E-01
RMM:   2    -0.230901362769E+04   -0.43201E-02   -0.46353E-02  5745   0.155E-01    0.121E-01
RMM:   3    -0.230901382630E+04   -0.19861E-03   -0.37067E-03  4929   0.565E-02    0.127E-01
RMM:   4    -0.230901369881E+04    0.12749E-03   -0.41830E-04  4443   0.130E-02    0.581E-02
RMM:   5    -0.230901364615E+04    0.52665E-04   -0.15209E-04  4144   0.103E-02    0.232E-02
RMM:   6    -0.230901364341E+04    0.27348E-05   -0.38557E-05  3171   0.726E-03
 183 F= -.23294063E+04 E0= -.23294063E+04  d E =-.804975E-03  mag=     4.0000
       N       E                     dE             d eps       ncg     rms          rms(c)
DAV:   1    -0.230901333837E+04    0.30778E-03   -0.50455E-02  4704   0.242E-01    0.566E-02
RMM:   2    -0.230901366488E+04   -0.32651E-03   -0.35153E-03  6053   0.443E-02    0.322E-02
RMM:   3    -0.230901368121E+04   -0.16333E-04   -0.28216E-04  3492   0.150E-02    0.350E-02
RMM:   4    -0.230901367188E+04    0.93320E-05   -0.31920E-05  2874   0.489E-03
 184 F= -.23294063E+04 E0= -.23294063E+04  d E =-.795988E-03  mag=     4.0000
       N       E                     dE             d eps       ncg     rms          rms(c)
DAV:   1    -0.230901139671E+04    0.22845E-02   -0.57650E-01  4432   0.813E-01    0.182E-01
RMM:   2    -0.230901457458E+04   -0.31779E-02   -0.33901E-02  5713   0.139E-01    0.120E-01
RMM:   3    -0.230901469497E+04   -0.12039E-03   -0.27499E-03  4859   0.480E-02    0.126E-01
RMM:   4    -0.230901455740E+04    0.13757E-03   -0.32299E-04  4403   0.121E-02    0.527E-02
RMM:   5    -0.230901451397E+04    0.43429E-04   -0.14193E-04  4181   0.102E-02    0.182E-02
RMM:   6    -0.230901451366E+04    0.31147E-06   -0.24937E-05  2947   0.697E-03
 185 F= -.23294071E+04 E0= -.23294071E+04  d E =-.744276E-03  mag=     4.0000
       N       E                     dE             d eps       ncg     rms          rms(c)
DAV:   1    -0.230901412540E+04    0.38856E-03   -0.74020E-02  4528   0.292E-01    0.663E-02
RMM:   2    -0.230901454147E+04   -0.41606E-03   -0.44514E-03  5859   0.515E-02    0.415E-02
RMM:   3    -0.230901455897E+04   -0.17504E-04   -0.34942E-04  3785   0.177E-02    0.448E-02
RMM:   4    -0.230901454228E+04    0.16697E-04   -0.40783E-05  2905   0.545E-03    0.192E-02
RMM:   5    -0.230901453665E+04    0.56212E-05   -0.18847E-05  2850   0.438E-03
 186 F= -.23294071E+04 E0= -.23294071E+04  d E =-.732552E-03  mag=     4.0000
       N       E                     dE             d eps       ncg     rms          rms(c)
DAV:   1    -0.230901211609E+04    0.24262E-02   -0.64945E-01  4400   0.860E-01    0.197E-01
RMM:   2    -0.230901539329E+04   -0.32772E-02   -0.34956E-02  5820   0.150E-01    0.127E-01
RMM:   3    -0.230901549425E+04   -0.10096E-03   -0.25831E-03  5079   0.458E-02    0.140E-01
RMM:   4    -0.230901531457E+04    0.17967E-03   -0.32218E-04  4586   0.126E-02    0.527E-02
RMM:   5    -0.230901526800E+04    0.46571E-04   -0.15946E-04  4184   0.106E-02    0.180E-02
RMM:   6    -0.230901526706E+04    0.93818E-06   -0.25481E-05  2926   0.718E-03
 187 F= -.23294077E+04 E0= -.23294077E+04  d E =-.653265E-03  mag=     4.0000
       N       E                     dE             d eps       ncg     rms          rms(c)
DAV:   1    -0.230901514713E+04    0.12087E-03   -0.22088E-02  4928   0.159E-01    0.375E-02
RMM:   2    -0.230901526211E+04   -0.11498E-03   -0.12310E-03  5972   0.292E-02    0.227E-02
RMM:   3    -0.230901526633E+04   -0.42181E-05   -0.90482E-05  3025   0.912E-03
 188 F= -.23294077E+04 E0= -.23294077E+04  d E =-.638361E-03  mag=     4.0000
       N       E                     dE             d eps       ncg     rms          rms(c)
DAV:   1    -0.230901333493E+04    0.19272E-02   -0.58868E-01  4400   0.813E-01    0.176E-01
RMM:   2    -0.230901629299E+04   -0.29581E-02   -0.31208E-02  5837   0.143E-01    0.131E-01
RMM:   3    -0.230901631801E+04   -0.25025E-04   -0.21317E-03  4995   0.414E-02    0.129E-01
RMM:   4    -0.230901617222E+04    0.14579E-03   -0.27329E-04  4408   0.117E-02    0.521E-02
RMM:   5    -0.230901612717E+04    0.45053E-04   -0.15297E-04  4182   0.105E-02    0.180E-02
RMM:   6    -0.230901612684E+04    0.33714E-06   -0.26772E-05  2977   0.707E-03
 189 F= -.23294084E+04 E0= -.23294084E+04  d E =-.729871E-03  mag=     4.0000
       N       E                     dE             d eps       ncg     rms          rms(c)
DAV:   1    -0.230901573607E+04    0.39110E-03   -0.87807E-02  4480   0.315E-01    0.689E-02
RMM:   2    -0.230901618067E+04   -0.44460E-03   -0.47013E-03  5929   0.561E-02    0.503E-02
RMM:   3    -0.230901618985E+04   -0.91815E-05   -0.34663E-04  3752   0.174E-02    0.523E-02
RMM:   4    -0.230901616468E+04    0.25168E-04   -0.41071E-05  2920   0.576E-03    0.196E-02
RMM:   5    -0.230901615789E+04    0.67896E-05   -0.24755E-05  2932   0.478E-03
 190 F= -.23294084E+04 E0= -.23294084E+04  d E =-.710700E-03  mag=     4.0000
       N       E                     dE             d eps       ncg     rms          rms(c)
DAV:   1    -0.230901475544E+04    0.14092E-02   -0.55894E-01  4400   0.790E-01    0.175E-01
RMM:   2    -0.230901713764E+04   -0.23822E-02   -0.25289E-02  5812   0.135E-01    0.119E-01
RMM:   3    -0.230901717659E+04   -0.38943E-04   -0.17425E-03  5028   0.407E-02    0.132E-01
RMM:   4    -0.230901701537E+04    0.16122E-03   -0.23437E-04  4399   0.115E-02    0.478E-02
RMM:   5    -0.230901698002E+04    0.35352E-04   -0.13147E-04  4156   0.998E-03    0.184E-02
RMM:   6    -0.230901697924E+04    0.77495E-06   -0.24797E-05  2933   0.695E-03
 191 F= -.23294091E+04 E0= -.23294091E+04  d E =-.702213E-03  mag=     4.0000
       N       E                     dE             d eps       ncg     rms          rms(c)
DAV:   1    -0.230901668471E+04    0.29530E-03   -0.81580E-02  4528   0.303E-01    0.681E-02
RMM:   2    -0.230901703879E+04   -0.35408E-03   -0.37476E-03  5886   0.526E-02    0.474E-02
RMM:   3    -0.230901704575E+04   -0.69530E-05   -0.26460E-04  3749   0.168E-02    0.528E-02
RMM:   4    -0.230901702003E+04    0.25715E-04   -0.34142E-05  2924   0.565E-03    0.184E-02
RMM:   5    -0.230901701457E+04    0.54610E-05   -0.22132E-05  2903   0.461E-03
 192 F= -.23294091E+04 E0= -.23294091E+04  d E =-.692163E-03  mag=     4.0000
       N       E                     dE             d eps       ncg     rms          rms(c)
DAV:   1    -0.230901613435E+04    0.88568E-03   -0.45719E-01  4464   0.714E-01    0.169E-01
RMM:   2    -0.230901780615E+04   -0.16718E-02   -0.18090E-02  5782   0.121E-01    0.101E-01
RMM:   3    -0.230901784549E+04   -0.39348E-04   -0.12631E-03  4965   0.390E-02    0.121E-01
RMM:   4    -0.230901771058E+04    0.13491E-03   -0.18546E-04  4194   0.107E-02    0.445E-02
RMM:   5    -0.230901768291E+04    0.27673E-04   -0.10918E-04  4080   0.930E-03    0.218E-02
RMM:   6    -0.230901767888E+04    0.40279E-05   -0.28721E-05  3020   0.652E-03
 193 F= -.23294097E+04 E0= -.23294097E+04  d E =-.591863E-03  mag=     4.0000
       N       E                     dE             d eps       ncg     rms          rms(c)
DAV:   1    -0.230901763011E+04    0.52802E-04   -0.13519E-02  5040   0.123E-01    0.302E-02
RMM:   2    -0.230901768363E+04   -0.53524E-04   -0.57293E-04  5723   0.223E-02    0.198E-02
RMM:   3    -0.230901768474E+04   -0.11120E-05   -0.41548E-05  2902   0.769E-03
 194 F= -.23294097E+04 E0= -.23294097E+04  d E =-.585233E-03  mag=     4.0000
       N       E                     dE             d eps       ncg     rms          rms(c)
DAV:   1    -0.230901726830E+04    0.41534E-03   -0.33556E-01  4432   0.609E-01    0.142E-01
RMM:   2    -0.230901853223E+04   -0.12639E-02   -0.13633E-02  5771   0.105E-01    0.948E-02
RMM:   3    -0.230901854188E+04   -0.96435E-05   -0.80960E-04  4705   0.293E-02    0.104E-01
RMM:   4    -0.230901844616E+04    0.95715E-04   -0.13545E-04  3791   0.917E-03    0.403E-02
RMM:   5    -0.230901842626E+04    0.19899E-04   -0.83695E-05  3808   0.823E-03    0.216E-02
RMM:   6    -0.230901842237E+04    0.38911E-05   -0.25413E-05  3006   0.600E-03
 195 F= -.23294103E+04 E0= -.23294103E+04  d E =-.612987E-03  mag=     4.0000
       N       E                     dE             d eps       ncg     rms          rms(c)
DAV:   1    -0.230901819436E+04    0.23191E-03   -0.84293E-02  4416   0.305E-01    0.713E-02
RMM:   2    -0.230901851621E+04   -0.32185E-03   -0.34590E-03  5762   0.529E-02    0.461E-02
RMM:   3    -0.230901852306E+04   -0.68517E-05   -0.23624E-04  3856   0.172E-02    0.535E-02
RMM:   4    -0.230901849733E+04    0.25728E-04   -0.34772E-05  2943   0.565E-03    0.198E-02
RMM:   5    -0.230901849223E+04    0.51047E-05   -0.21486E-05  2909   0.456E-03
 196 F= -.23294103E+04 E0= -.23294103E+04  d E =-.620294E-03  mag=     4.0000
       N       E                     dE             d eps       ncg     rms          rms(c)
DAV:   1    -0.230901845848E+04    0.38849E-04   -0.22898E-01  4448   0.500E-01    0.111E-01
RMM:   2    -0.230901926397E+04   -0.80549E-03   -0.85789E-03  5830   0.857E-02    0.751E-02
RMM:   3    -0.230901927952E+04   -0.15546E-04   -0.54946E-04  4442   0.257E-02    0.826E-02
RMM:   4    -0.230901921708E+04    0.62432E-04   -0.81702E-05  3277   0.775E-03    0.312E-02
RMM:   5    -0.230901920616E+04    0.10927E-04   -0.49706E-05  3355   0.667E-03    0.173E-02
RMM:   6    -0.230901920408E+04    0.20784E-05   -0.17466E-05  2920   0.532E-03
 197 F= -.23294109E+04 E0= -.23294109E+04  d E =-.554610E-03  mag=     4.0000
       N       E                     dE             d eps       ncg     rms          rms(c)
DAV:   1    -0.230901807636E+04    0.11298E-02   -0.44643E-01  4448   0.699E-01    0.156E-01
RMM:   2    -0.230901967261E+04   -0.15963E-02   -0.16854E-02  5768   0.118E-01    0.112E-01
RMM:   3    -0.230901968791E+04   -0.15297E-04   -0.11037E-03  4854   0.345E-02    0.119E-01
RMM:   4    -0.230901955456E+04    0.13335E-03   -0.16143E-04  4072   0.101E-02    0.426E-02
RMM:   5    -0.230901953257E+04    0.21988E-04   -0.92874E-05  3967   0.851E-03    0.240E-02
RMM:   6    -0.230901952755E+04    0.50209E-05   -0.31098E-05  3035   0.630E-03
 198 F= -.23294110E+04 E0= -.23294110E+04  d E =-.658947E-03  mag=     4.0000
       N       E                     dE             d eps       ncg     rms          rms(c)
DAV:   1    -0.230901943505E+04    0.97517E-04   -0.23812E-01  4440   0.510E-01    0.110E-01
RMM:   2    -0.230902029625E+04   -0.86120E-03   -0.89165E-03  5776   0.877E-02    0.907E-02
RMM:   3    -0.230902028771E+04    0.85431E-05   -0.58618E-04  4509   0.265E-02    0.854E-02
RMM:   4    -0.230902021622E+04    0.71484E-04   -0.79328E-05  3305   0.772E-03    0.298E-02
RMM:   5    -0.230902020424E+04    0.11987E-04   -0.52789E-05  3511   0.676E-03    0.165E-02
RMM:   6    -0.230902020247E+04    0.17683E-05   -0.16320E-05  2901   0.533E-03
 199 F= -.23294115E+04 E0= -.23294115E+04  d E =-.536923E-03  mag=     4.0000
       N       E                     dE             d eps       ncg     rms          rms(c)
DAV:   1    -0.230901912638E+04    0.10779E-02   -0.44786E-01  4464   0.699E-01    0.150E-01
RMM:   2    -0.230902074601E+04   -0.16196E-02   -0.16795E-02  5784   0.119E-01    0.123E-01
RMM:   3    -0.230902071771E+04    0.28302E-04   -0.10770E-03  4885   0.340E-02    0.117E-01
RMM:   4    -0.230902058372E+04    0.13400E-03   -0.15348E-04  4063   0.988E-03    0.407E-02
RMM:   5    -0.230902055862E+04    0.25100E-04   -0.94984E-05  4041   0.862E-03    0.223E-02
RMM:   6    -0.230902055437E+04    0.42442E-05   -0.28417E-05  2994   0.644E-03
 200 F= -.23294117E+04 E0= -.23294117E+04  d E =-.700165E-03  mag=     4.0000
       N       E                     dE             d eps       ncg     rms          rms(c)
DAV:   1    -0.230902049902E+04    0.59593E-04   -0.24778E-01  4456   0.524E-01    0.124E-01
RMM:   2    -0.230902148020E+04   -0.98118E-03   -0.10091E-02  5810   0.927E-02    0.107E-01
RMM:   3    -0.230902145065E+04    0.29551E-04   -0.67204E-04  4573   0.271E-02    0.970E-02
RMM:   4    -0.230902135468E+04    0.95967E-04   -0.10043E-04  3589   0.840E-03    0.302E-02
RMM:   5    -0.230902133937E+04    0.15310E-04   -0.62350E-05  3761   0.728E-03    0.152E-02
RMM:   6    -0.230902133804E+04    0.13374E-05   -0.14178E-05  2871   0.552E-03
 201 F= -.23294124E+04 E0= -.23294124E+04  d E =-.705791E-03  mag=     4.0000
