       N       E                     dE             d eps       ncg     rms          rms(c)
DAV:   1     0.131742286707E+05    0.13174E+05   -0.84826E+05  4568   0.144E+03
DAV:   2    -0.100725077983E+04   -0.14181E+05   -0.13555E+05  4952   0.331E+02
DAV:   3    -0.248643100290E+04   -0.14792E+04   -0.14602E+04  5528   0.115E+02
DAV:   4    -0.253336443122E+04   -0.46933E+02   -0.46643E+02  6720   0.298E+01
DAV:   5    -0.253429929600E+04   -0.93486E+00   -0.93236E+00  6320   0.355E+00    0.170E+02
RMM:   6    -0.149770006084E+04    0.10366E+04   -0.19522E+03  4487   0.381E+01    0.723E+01
RMM:   7    -0.166765678539E+04   -0.16996E+03   -0.28929E+02  5142   0.140E+01    0.471E+01
RMM:   8    -0.172467419479E+04   -0.57017E+02   -0.35343E+01  5451   0.669E+00    0.375E+01
RMM:   9    -0.184398482657E+04   -0.11931E+03   -0.65373E+01  5159   0.752E+00    0.394E+01
RMM:  10    -0.192229362153E+04   -0.78309E+02   -0.45298E+01  5436   0.622E+00    0.217E+01
RMM:  11    -0.203072262839E+04   -0.10843E+03   -0.41782E+01  5031   0.521E+00    0.170E+01
RMM:  12    -0.208621624879E+04   -0.55494E+02   -0.19992E+01  5224   0.373E+00    0.148E+01
RMM:  13    -0.221391753613E+04   -0.12770E+03   -0.91097E+01  4518   0.693E+00    0.113E+01
RMM:  14    -0.228767756283E+04   -0.73760E+02   -0.65793E+01  4685   0.570E+00    0.935E+00
RMM:  15    -0.231165833191E+04   -0.23981E+02   -0.22920E+01  4924   0.394E+00    0.585E+00
RMM:  16    -0.232198555634E+04   -0.10327E+02   -0.11070E+01  4727   0.209E+00    0.359E+00
RMM:  17    -0.232543506211E+04   -0.34495E+01   -0.26944E+00  5047   0.138E+00    0.436E+00
RMM:  18    -0.232583701117E+04   -0.40195E+00   -0.50699E-01  5709   0.480E-01    0.510E+00
RMM:  19    -0.232614206706E+04   -0.30506E+00   -0.37716E-01  4726   0.322E-01    0.335E+00
RMM:  20    -0.232730385157E+04   -0.11618E+01   -0.59257E-01  4501   0.467E-01    0.288E+00
RMM:  21    -0.232656546734E+04    0.73838E+00   -0.20091E+00  4505   0.609E-01    0.381E+00
RMM:  22    -0.232478338178E+04    0.17821E+01   -0.10416E+00  4780   0.384E-01    0.466E+00
RMM:  23    -0.232474829756E+04    0.35084E-01   -0.66036E-02  5622   0.109E-01    0.473E+00
RMM:  24    -0.232481277148E+04   -0.64474E-01   -0.35729E-03  5302   0.224E-02    0.472E+00
RMM:  25    -0.232748576179E+04   -0.26730E+01   -0.20499E+00  4485   0.444E-01    0.400E+00
RMM:  26    -0.232839669189E+04   -0.91093E+00   -0.10640E+00  4654   0.399E-01    0.494E+00
RMM:  27    -0.232841122061E+04   -0.14529E-01   -0.61166E-02  4883   0.159E-01    0.500E+00
RMM:  28    -0.232850116978E+04   -0.89949E-01   -0.54171E-02  4622   0.860E-02    0.633E+00
RMM:  29    -0.232849666899E+04    0.45008E-02   -0.35532E-02  4644   0.741E-02    0.568E+00
RMM:  30    -0.232857436812E+04   -0.77699E-01   -0.52088E-02  4624   0.683E-02    0.685E+00
RMM:  31    -0.232854065490E+04    0.33713E-01   -0.52218E-03  4171   0.290E-02    0.614E+00
RMM:  32    -0.232854597485E+04   -0.53199E-02   -0.50037E-02  4537   0.807E-02    0.531E+00
RMM:  33    -0.232834331768E+04    0.20266E+00   -0.32057E-01  4605   0.236E-01    0.342E+00
RMM:  34    -0.232795139210E+04    0.39193E+00   -0.33895E-01  4716   0.237E-01    0.380E+00
RMM:  35    -0.232730411968E+04    0.64727E+00   -0.46321E-01  4891   0.243E-01    0.415E+00
RMM:  36    -0.232686476506E+04    0.43935E+00   -0.27593E-01  4870   0.186E-01    0.431E+00
RMM:  37    -0.232636299661E+04    0.50177E+00   -0.17173E-01  4760   0.152E-01    0.442E+00
RMM:  38    -0.232563159041E+04    0.73141E+00   -0.25021E-01  4663   0.182E-01    0.452E+00
RMM:  39    -0.232471053941E+04    0.92105E+00   -0.27015E-01  4784   0.191E-01    0.464E+00
RMM:  40    -0.232447168152E+04    0.23886E+00   -0.42936E-02  4857   0.844E-02    0.469E+00
RMM:  41    -0.232444948100E+04    0.22201E-01   -0.35601E-03  4619   0.224E-02    0.469E+00
RMM:  42    -0.232429816621E+04    0.15131E+00   -0.55123E-03  4242   0.275E-02    0.473E+00
RMM:  43    -0.232436551529E+04   -0.67349E-01   -0.17746E-03  3435   0.149E-02    0.470E+00
RMM:  44    -0.232431327027E+04    0.52245E-01   -0.11075E-03  3407   0.132E-02    0.469E+00
RMM:  45    -0.232444590833E+04   -0.13264E+00   -0.69980E-03  4394   0.336E-02    0.476E+00
RMM:  46    -0.232403717670E+04    0.40873E+00   -0.44100E-02  4631   0.818E-02    0.470E+00
RMM:  47    -0.232223624544E+04    0.18009E+01   -0.52109E-01  4677   0.283E-01    0.490E+00
RMM:  48    -0.232251273215E+04   -0.27649E+00   -0.15309E-02  4505   0.661E-02    0.485E+00
RMM:  49    -0.232233652995E+04    0.17620E+00   -0.19900E-02  4792   0.598E-02    0.472E+00
RMM:  50    -0.232242448265E+04   -0.87953E-01   -0.17530E-03  3963   0.201E-02    0.468E+00
RMM:  51    -0.232267673757E+04   -0.25225E+00   -0.11482E-02  4523   0.442E-02    0.455E+00
RMM:  52    -0.232339000560E+04   -0.71327E+00   -0.63888E-02  4720   0.101E-01    0.409E+00
RMM:  53    -0.232448363332E+04   -0.10936E+01   -0.23499E-01  4746   0.201E-01    0.330E+00
RMM:  54    -0.232564556066E+04   -0.11619E+01   -0.47255E-01  4799   0.276E-01    0.275E+00
RMM:  55    -0.232618572199E+04   -0.54016E+00   -0.22964E-01  4878   0.194E-01    0.265E+00
RMM:  56    -0.232630149223E+04   -0.11577E+00   -0.33192E-02  5182   0.753E-02    0.263E+00
RMM:  57    -0.232630299003E+04   -0.14978E-02   -0.35658E-03  4700   0.177E-02    0.262E+00
RMM:  58    -0.232630629853E+04   -0.33085E-02   -0.14332E-04  3267   0.615E-03    0.262E+00
RMM:  59    -0.232630782110E+04   -0.15226E-02   -0.42979E-04  3271   0.896E-03    0.262E+00
RMM:  60    -0.232639023560E+04   -0.82414E-01   -0.10106E-02  4417   0.385E-02    0.258E+00
RMM:  61    -0.232662008966E+04   -0.22985E+00   -0.81853E-02  4738   0.101E-01    0.252E+00
RMM:  62    -0.232661697738E+04    0.31123E-02   -0.67687E-03  4501   0.374E-02    0.252E+00
RMM:  63    -0.232646885844E+04    0.14812E+00   -0.98244E-03  4229   0.376E-02    0.257E+00
RMM:  64    -0.232650491600E+04   -0.36058E-01   -0.77695E-04  3406   0.139E-02    0.256E+00
RMM:  65    -0.232633166508E+04    0.17325E+00   -0.11823E-02  4390   0.388E-02    0.265E+00
RMM:  66    -0.232583415555E+04    0.49751E+00   -0.79806E-02  4602   0.961E-02    0.273E+00
RMM:  67    -0.232565429304E+04    0.17986E+00   -0.28538E-02  4707   0.701E-02    0.280E+00
RMM:  68    -0.232581343439E+04   -0.15914E+00   -0.61314E-03  4324   0.363E-02    0.272E+00
RMM:  69    -0.232592852744E+04   -0.11509E+00   -0.70273E-03  4426   0.345E-02    0.267E+00
RMM:  70    -0.232591272005E+04    0.15807E-01   -0.31824E-04  3346   0.125E-02    0.266E+00
RMM:  71    -0.232721361127E+04   -0.13009E+01   -0.18450E+00  4560   0.476E-01    0.209E+00
RMM:  72    -0.232822230449E+04   -0.10087E+01   -0.11727E+00  4787   0.386E-01    0.287E+00
RMM:  73    -0.232821650898E+04    0.57955E-02   -0.55938E-02  4737   0.130E-01    0.287E+00
RMM:  74    -0.232818847806E+04    0.28031E-01   -0.27184E-02  4720   0.590E-02    0.264E+00
RMM:  75    -0.232833770839E+04   -0.14923E+00   -0.74915E-02  4842   0.827E-02    0.282E+00
RMM:  76    -0.232888892577E+04   -0.55122E+00   -0.14086E+00  4524   0.371E-01    0.571E+00
RMM:  77    -0.232889754135E+04   -0.86156E-02   -0.85051E-02  4464   0.168E-01    0.542E+00
RMM:  78    -0.232882732699E+04    0.70214E-01   -0.19337E-01  4467   0.139E-01    0.513E+00
RMM:  79    -0.232889840254E+04   -0.71076E-01   -0.24132E-01  4776   0.141E-01    0.543E+00
RMM:  80    -0.232887313645E+04    0.25266E-01   -0.15716E-02  4410   0.486E-02    0.534E+00
RMM:  81    -0.232884287162E+04    0.30265E-01   -0.18623E-02  4375   0.436E-02    0.535E+00
RMM:  82    -0.232883451903E+04    0.83526E-02   -0.75422E-03  3768   0.276E-02    0.538E+00
RMM:  83    -0.232881846798E+04    0.16051E-01   -0.36143E-03  3402   0.153E-02    0.534E+00
RMM:  84    -0.232881257934E+04    0.58886E-02   -0.18000E-03  3313   0.124E-02    0.532E+00
RMM:  85    -0.232882144350E+04   -0.88642E-02   -0.80588E-04  3078   0.794E-03    0.534E+00
RMM:  86    -0.232881715113E+04    0.42924E-02   -0.18870E-02  4496   0.525E-02    0.538E+00
RMM:  87    -0.232874723088E+04    0.69920E-01   -0.40263E-02  4197   0.504E-02    0.522E+00
RMM:  88    -0.232878692231E+04   -0.39691E-01   -0.24509E-02  3815   0.345E-02    0.525E+00
RMM:  89    -0.232878034044E+04    0.65819E-02   -0.32843E-03  3896   0.232E-02    0.517E+00
RMM:  90    -0.232878584292E+04   -0.55025E-02   -0.50542E-04  3196   0.926E-03    0.519E+00
RMM:  91    -0.232878023047E+04    0.56125E-02   -0.39519E-02  4454   0.628E-02    0.524E+00
RMM:  92    -0.232878824020E+04   -0.80097E-02   -0.28727E-03  3917   0.241E-02    0.526E+00
RMM:  93    -0.232878809913E+04    0.14107E-03   -0.63341E-04  3395   0.853E-03    0.526E+00
RMM:  94    -0.232862096397E+04    0.16714E+00   -0.17222E-01  4440   0.133E-01    0.514E+00
RMM:  95    -0.232853736611E+04    0.83598E-01   -0.46278E-02  4316   0.801E-02    0.516E+00
RMM:  96    -0.232765075514E+04    0.88661E+00   -0.12963E+00  4562   0.382E-01    0.202E+00
RMM:  97    -0.232754109214E+04    0.10966E+00   -0.88816E-02  4775   0.156E-01    0.219E+00
RMM:  98    -0.232748050950E+04    0.60583E-01   -0.20803E-02  4939   0.574E-02    0.221E+00
RMM:  99    -0.232746636910E+04    0.14140E-01   -0.66404E-03  4553   0.412E-02    0.218E+00
RMM: 100    -0.232718142286E+04    0.28495E+00   -0.60719E-02  4536   0.884E-02    0.226E+00
RMM: 101    -0.232706980207E+04    0.11162E+00   -0.14885E-02  4394   0.494E-02    0.231E+00
RMM: 102    -0.232692079420E+04    0.14901E+00   -0.17973E-02  4514   0.488E-02    0.235E+00
RMM: 103    -0.232685464193E+04    0.66152E-01   -0.10958E-02  4160   0.386E-02    0.238E+00
RMM: 104    -0.232685546702E+04   -0.82509E-03   -0.54176E-04  3297   0.107E-02    0.239E+00
RMM: 105    -0.232685267479E+04    0.27922E-02   -0.19359E-04  3180   0.656E-03    0.240E+00
RMM: 106    -0.232657769276E+04    0.27498E+00   -0.92323E-02  4501   0.107E-01    0.257E+00
RMM: 107    -0.232640764037E+04    0.17005E+00   -0.17934E-02  4194   0.524E-02    0.266E+00
RMM: 108    -0.232643715023E+04   -0.29510E-01   -0.10319E-03  3448   0.134E-02    0.265E+00
RMM: 109    -0.232663075281E+04   -0.19360E+00   -0.13073E-02  4216   0.386E-02    0.254E+00
RMM: 110    -0.232667331625E+04   -0.42563E-01   -0.21555E-03  3448   0.189E-02    0.251E+00
RMM: 111    -0.232633954259E+04    0.33377E+00   -0.14014E-01  4596   0.128E-01    0.267E+00
RMM: 112    -0.232635560932E+04   -0.16067E-01   -0.28009E-02  4446   0.713E-02    0.268E+00
RMM: 113    -0.232631047324E+04    0.45136E-01   -0.44503E-03  3905   0.269E-02    0.270E+00
RMM: 114    -0.232620457742E+04    0.10590E+00   -0.87418E-03  4161   0.367E-02    0.273E+00
RMM: 115    -0.232637054494E+04   -0.16597E+00   -0.13673E-02  4203   0.406E-02    0.267E+00
RMM: 116    -0.232700604172E+04   -0.63550E+00   -0.30202E-01  4590   0.185E-01    0.228E+00
RMM: 117    -0.232704907899E+04   -0.43037E-01   -0.17674E-01  4739   0.167E-01    0.216E+00
RMM: 118    -0.232700024568E+04    0.48833E-01   -0.51202E-02  4909   0.949E-02    0.215E+00
RMM: 119    -0.232704100472E+04   -0.40759E-01   -0.18018E-02  4325   0.515E-02    0.218E+00
RMM: 120    -0.232713508979E+04   -0.94085E-01   -0.96086E-02  4542   0.114E-01    0.219E+00
RMM: 121    -0.232741251632E+04   -0.27743E+00   -0.84113E-01  4521   0.301E-01    0.184E+00
RMM: 122    -0.232739352617E+04    0.18990E-01   -0.21065E-02  4460   0.839E-02    0.190E+00
RMM: 123    -0.232739132617E+04    0.22000E-02   -0.27958E-03  4406   0.197E-02    0.192E+00
RMM: 124    -0.232729934218E+04    0.91984E-01   -0.22484E-02  4379   0.516E-02    0.198E+00
RMM: 125    -0.232716030673E+04    0.13904E+00   -0.85347E-02  4625   0.101E-01    0.208E+00
RMM: 126    -0.232714152751E+04    0.18779E-01   -0.15479E-01  4683   0.141E-01    0.199E+00
RMM: 127    -0.232709271797E+04    0.48810E-01   -0.24835E-02  4345   0.640E-02    0.200E+00
RMM: 128    -0.232713380945E+04   -0.41091E-01   -0.18810E-02  4402   0.518E-02    0.196E+00
RMM: 129    -0.232716771028E+04   -0.33901E-01   -0.36559E-03  3968   0.292E-02    0.191E+00
RMM: 130    -0.232717716411E+04   -0.94538E-02   -0.22320E-03  3744   0.197E-02    0.190E+00
RMM: 131    -0.232720639920E+04   -0.29235E-01   -0.28861E-01  4561   0.193E-01    0.187E+00
RMM: 132    -0.232718109704E+04    0.25302E-01   -0.10607E-02  4317   0.470E-02    0.188E+00
RMM: 133    -0.232717313258E+04    0.79645E-02   -0.26273E-03  3876   0.218E-02    0.186E+00
RMM: 134    -0.232717243117E+04    0.70140E-03   -0.19010E-04  3102   0.752E-03    0.186E+00
RMM: 135    -0.232715393218E+04    0.18499E-01   -0.12710E-03  3474   0.151E-02    0.188E+00
RMM: 136    -0.232820573644E+04   -0.10518E+01   -0.15486E+00  4632   0.370E-01    0.182E+00
RMM: 137    -0.232767870873E+04    0.52703E+00   -0.30695E-01  4784   0.244E-01    0.177E+00
RMM: 138    -0.232755597800E+04    0.12273E+00   -0.43070E-02  4673   0.929E-02    0.202E+00
RMM: 139    -0.232741935259E+04    0.13663E+00   -0.20381E-02  4520   0.684E-02    0.213E+00
RMM: 140    -0.232741062087E+04    0.87317E-02   -0.22835E-03  4034   0.222E-02    0.215E+00
RMM: 141    -0.232850907669E+04   -0.10985E+01   -0.15275E+00  4776   0.409E-01    0.287E+00
RMM: 142    -0.232851645987E+04   -0.73832E-02   -0.33776E-01  4862   0.235E-01    0.178E+00
RMM: 143    -0.232849806526E+04    0.18395E-01   -0.34761E-02  4793   0.768E-02    0.160E+00
RMM: 144    -0.232833086213E+04    0.16720E+00   -0.10750E-01  4488   0.126E-01    0.187E+00
RMM: 145    -0.232799178073E+04    0.33908E+00   -0.18315E-01  4792   0.160E-01    0.187E+00
RMM: 146    -0.232833745567E+04   -0.34567E+00   -0.17930E-01  4675   0.155E-01    0.189E+00
RMM: 147    -0.232831062830E+04    0.26827E-01   -0.12151E-01  5033   0.153E-01    0.149E+00
RMM: 148    -0.232837709379E+04   -0.66465E-01   -0.17593E-02  4479   0.656E-02    0.146E+00
RMM: 149    -0.232841837901E+04   -0.41285E-01   -0.87068E-03  4310   0.370E-02    0.145E+00
RMM: 150    -0.232841656903E+04    0.18100E-02   -0.82759E-04  3475   0.147E-02    0.143E+00
RMM: 151    -0.232853402399E+04   -0.11745E+00   -0.23424E-01  4513   0.173E-01    0.137E+00
RMM: 152    -0.232849551466E+04    0.38509E-01   -0.14741E-01  4392   0.144E-01    0.190E+00
RMM: 153    -0.232854141920E+04   -0.45905E-01   -0.93761E-02  4595   0.111E-01    0.136E+00
RMM: 154    -0.232855211771E+04   -0.10699E-01   -0.15471E-02  4402   0.556E-02    0.138E+00
RMM: 155    -0.232856375499E+04   -0.11637E-01   -0.11455E-01  4485   0.128E-01    0.165E+00
RMM: 156    -0.232799675697E+04    0.56700E+00   -0.66113E-01  4677   0.285E-01    0.271E+00
RMM: 157    -0.232807176653E+04   -0.75010E-01   -0.76278E-02  4501   0.118E-01    0.247E+00
RMM: 158    -0.232797392281E+04    0.97844E-01   -0.21127E-02  4503   0.560E-02    0.242E+00
RMM: 159    -0.232812796137E+04   -0.15404E+00   -0.28629E-02  4322   0.586E-02    0.233E+00
RMM: 160    -0.232837993697E+04   -0.25198E+00   -0.16621E-01  4620   0.136E-01    0.212E+00
RMM: 161    -0.232847081453E+04   -0.90878E-01   -0.12036E-01  4743   0.128E-01    0.243E+00
RMM: 162    -0.232847206544E+04   -0.12509E-02   -0.89684E-03  4345   0.450E-02    0.247E+00
RMM: 163    -0.232844166119E+04    0.30404E-01   -0.15445E-02  4172   0.461E-02    0.237E+00
RMM: 164    -0.232836421339E+04    0.77448E-01   -0.29610E-01  4515   0.190E-01    0.278E+00
RMM: 165    -0.232810809715E+04    0.25612E+00   -0.16574E-01  4560   0.152E-01    0.320E+00
RMM: 166    -0.232824413866E+04   -0.13604E+00   -0.25122E-02  4321   0.540E-02    0.289E+00
RMM: 167    -0.232830068810E+04   -0.56549E-01   -0.73936E-03  4539   0.384E-02    0.259E+00
RMM: 168    -0.232839056047E+04   -0.89872E-01   -0.23863E-02  4622   0.565E-02    0.234E+00
RMM: 169    -0.232849501810E+04   -0.10446E+00   -0.41123E-02  4445   0.694E-02    0.208E+00
RMM: 170    -0.232863698005E+04   -0.14196E+00   -0.22191E-01  4577   0.147E-01    0.234E+00
RMM: 171    -0.232862862081E+04    0.83592E-02   -0.10023E-02  4240   0.562E-02    0.218E+00
RMM: 172    -0.232865153308E+04   -0.22912E-01   -0.70124E-03  4378   0.283E-02    0.260E+00
RMM: 173    -0.232863659669E+04    0.14936E-01   -0.23334E-03  3699   0.180E-02    0.228E+00
RMM: 174    -0.232860376528E+04    0.32831E-01   -0.99599E-03  4229   0.312E-02    0.208E+00
RMM: 175    -0.232853678400E+04    0.66981E-01   -0.29272E-02  4497   0.572E-02    0.195E+00
RMM: 176    -0.232845354511E+04    0.83239E-01   -0.35103E-02  4563   0.654E-02    0.209E+00
RMM: 177    -0.232850561759E+04   -0.52072E-01   -0.12555E-02  4236   0.417E-02    0.204E+00
RMM: 178    -0.232855659042E+04   -0.50973E-01   -0.25891E-02  4497   0.615E-02    0.212E+00
RMM: 179    -0.232848217010E+04    0.74420E-01   -0.25912E-02  4678   0.669E-02    0.225E+00
RMM: 180    -0.232851117089E+04   -0.29001E-01   -0.58451E-03  4584   0.307E-02    0.249E+00
RMM: 181    -0.232846175760E+04    0.49413E-01   -0.98170E-03  4465   0.368E-02    0.257E+00
RMM: 182    -0.232846151692E+04    0.24068E-03   -0.31823E-04  3234   0.107E-02    0.257E+00
RMM: 183    -0.232846147891E+04    0.38018E-04   -0.44394E-05  3002   0.357E-03    0.257E+00
RMM: 184    -0.232846083632E+04    0.64258E-03   -0.11603E-05  2829   0.298E-03    0.257E+00
RMM: 185    -0.232845393411E+04    0.69022E-02   -0.60148E-04  3315   0.951E-03    0.263E+00
RMM: 186    -0.232868105381E+04   -0.22712E+00   -0.24096E-01  4580   0.133E-01    0.371E+00
RMM: 187    -0.232864841591E+04    0.32638E-01   -0.17159E-02  4458   0.536E-02    0.336E+00
RMM: 188    -0.232865854331E+04   -0.10127E-01   -0.27585E-03  4322   0.225E-02    0.370E+00
RMM: 189    -0.232865671780E+04    0.18255E-02   -0.30878E-03  3984   0.264E-02    0.365E+00
RMM: 190    -0.232864859537E+04    0.81224E-02   -0.49922E-03  3541   0.270E-02    0.360E+00
RMM: 191    -0.232864260386E+04    0.59915E-02   -0.17170E-03  3889   0.181E-02    0.375E+00
RMM: 192    -0.232864350757E+04   -0.90371E-03   -0.76647E-03  3998   0.358E-02    0.372E+00
RMM: 193    -0.232862686720E+04    0.16640E-01   -0.29625E-02  4231   0.592E-02    0.352E+00
RMM: 194    -0.232860393237E+04    0.22935E-01   -0.11739E-02  4028   0.423E-02    0.344E+00
RMM: 195    -0.232856498709E+04    0.38945E-01   -0.12152E-02  4002   0.405E-02    0.321E+00
RMM: 196    -0.232848298307E+04    0.82004E-01   -0.34754E-01  4721   0.208E-01    0.274E+00
RMM: 197    -0.232841601039E+04    0.66973E-01   -0.68661E-02  4659   0.104E-01    0.182E+00
RMM: 198    -0.232843604151E+04   -0.20031E-01   -0.57992E-03  4492   0.385E-02    0.212E+00
RMM: 199    -0.232834784054E+04    0.88201E-01   -0.69414E-02  4675   0.876E-02    0.202E+00
RMM: 200    -0.232832284876E+04    0.24992E-01   -0.17424E-02  4022   0.471E-02    0.201E+00
RMM: 201    -0.232831254712E+04    0.10302E-01   -0.28564E-03  4187   0.261E-02    0.206E+00
RMM: 202    -0.232828844052E+04    0.24107E-01   -0.24048E-03  3540   0.197E-02    0.209E+00
RMM: 203    -0.232836945178E+04   -0.81011E-01   -0.28686E-02  3988   0.526E-02    0.204E+00
RMM: 204    -0.232850536271E+04   -0.13591E+00   -0.94661E-02  4521   0.987E-02    0.202E+00
RMM: 205    -0.232854825059E+04   -0.42888E-01   -0.18225E-02  4386   0.520E-02    0.203E+00
RMM: 206    -0.232857262635E+04   -0.24376E-01   -0.92301E-03  4642   0.364E-02    0.213E+00
RMM: 207    -0.232856330679E+04    0.93196E-02   -0.13547E-03  3673   0.171E-02    0.209E+00
RMM: 208    -0.232856972543E+04   -0.64186E-02   -0.29293E-03  4156   0.249E-02    0.221E+00
RMM: 209    -0.232856502737E+04    0.46981E-02   -0.97357E-04  3468   0.168E-02    0.223E+00
RMM: 210    -0.232855265961E+04    0.12368E-01   -0.47844E-03  3788   0.273E-02    0.226E+00
RMM: 211    -0.232854774673E+04    0.49129E-02   -0.34798E-03  3691   0.242E-02    0.227E+00
RMM: 212    -0.232834329053E+04    0.20446E+00   -0.19613E-01  4599   0.150E-01    0.262E+00
RMM: 213    -0.232806808488E+04    0.27521E+00   -0.16064E-01  4585   0.142E-01    0.277E+00
RMM: 214    -0.232790672358E+04    0.16136E+00   -0.66194E-02  4771   0.928E-02    0.284E+00
RMM: 215    -0.232790864024E+04   -0.19167E-02   -0.48286E-03  3622   0.283E-02    0.284E+00
RMM: 216    -0.232676512247E+04    0.11435E+01   -0.70025E-01  4618   0.283E-01    0.345E+00
RMM: 217    -0.232680745979E+04   -0.42337E-01   -0.18916E-02  4663   0.580E-02    0.344E+00
RMM: 218    -0.232689163376E+04   -0.84174E-01   -0.45710E-03  3896   0.243E-02    0.340E+00
RMM: 219    -0.232726513539E+04   -0.37350E+00   -0.60472E-02  4456   0.899E-02    0.318E+00
RMM: 220    -0.232741256070E+04   -0.14743E+00   -0.21737E-02  4251   0.594E-02    0.312E+00
RMM: 221    -0.232744675056E+04   -0.34190E-01   -0.56964E-02  4526   0.927E-02    0.323E+00
RMM: 222    -0.232749475057E+04   -0.48000E-01   -0.23508E-02  4327   0.658E-02    0.325E+00
RMM: 223    -0.232750339297E+04   -0.86424E-02   -0.43906E-03  4161   0.298E-02    0.328E+00
RMM: 224    -0.232764913242E+04   -0.14574E+00   -0.50445E-02  4497   0.733E-02    0.326E+00
RMM: 225    -0.232796472327E+04   -0.31559E+00   -0.13444E-01  4692   0.123E-01    0.316E+00
RMM: 226    -0.232850777089E+04   -0.54305E+00   -0.72251E-01  4722   0.266E-01    0.265E+00
RMM: 227    -0.232852005754E+04   -0.12287E-01   -0.29057E-02  4580   0.101E-01    0.259E+00
RMM: 228    -0.232852685601E+04   -0.67985E-02   -0.42482E-03  4713   0.193E-02    0.259E+00
RMM: 229    -0.232852096627E+04    0.58897E-02   -0.35245E-04  3375   0.119E-02    0.261E+00
RMM: 230    -0.232849178115E+04    0.29185E-01   -0.48551E-03  3556   0.221E-02    0.268E+00
RMM: 231    -0.232852188535E+04   -0.30104E-01   -0.47200E-03  4244   0.234E-02    0.254E+00
RMM: 232    -0.232852891966E+04   -0.70343E-02   -0.89790E-04  3309   0.121E-02    0.254E+00
RMM: 233    -0.232854311003E+04   -0.14190E-01   -0.11042E-02  4423   0.355E-02    0.257E+00
RMM: 234    -0.232855704558E+04   -0.13936E-01   -0.28198E-03  3971   0.230E-02    0.254E+00
RMM: 235    -0.232857673805E+04   -0.19692E-01   -0.10282E-02  4412   0.380E-02    0.256E+00
RMM: 236    -0.232881185421E+04   -0.23512E+00   -0.25197E-01  4604   0.171E-01    0.524E+00
RMM: 237    -0.232878461093E+04    0.27243E-01   -0.20411E-02  4671   0.751E-02    0.455E+00
RMM: 238    -0.232878293565E+04    0.16753E-02   -0.24992E-03  4350   0.161E-02    0.473E+00
RMM: 239    -0.232879412473E+04   -0.11189E-01   -0.18166E-03  4361   0.185E-02    0.478E+00
RMM: 240    -0.232882541471E+04   -0.31290E-01   -0.38701E-03  4701   0.252E-02    0.486E+00
RMM: 241    -0.232885458377E+04   -0.29169E-01   -0.33075E-03  4456   0.245E-02    0.477E+00
RMM: 242    -0.232887741744E+04   -0.22834E-01   -0.49853E-03  4798   0.276E-02    0.458E+00
RMM: 243    -0.232886052618E+04    0.16891E-01   -0.57993E-03  4643   0.318E-02    0.474E+00
RMM: 244    -0.232892519670E+04   -0.64671E-01   -0.17404E-02  5181   0.536E-02    0.408E+00
RMM: 245    -0.232893754533E+04   -0.12349E-01   -0.66923E-03  4890   0.359E-02    0.392E+00
RMM: 246    -0.232893966190E+04   -0.21166E-02   -0.12126E-02  4704   0.440E-02    0.390E+00
RMM: 247    -0.232894424708E+04   -0.45852E-02   -0.36088E-03  4510   0.324E-02    0.380E+00
RMM: 248    -0.232894455934E+04   -0.31225E-03   -0.28110E-03  4593   0.191E-02    0.377E+00
RMM: 249    -0.232896143733E+04   -0.16878E-01   -0.21373E-03  4380   0.202E-02    0.354E+00
RMM: 250    -0.232896152788E+04   -0.90548E-04   -0.36420E-04  3643   0.971E-03    0.354E+00
RMM: 251    -0.232893681946E+04    0.24708E-01   -0.16920E-02  4699   0.483E-02    0.390E+00
RMM: 252    -0.232894881583E+04   -0.11996E-01   -0.24075E-03  4504   0.257E-02    0.368E+00
RMM: 253    -0.232895263451E+04   -0.38187E-02   -0.21394E-03  4504   0.202E-02    0.359E+00
RMM: 254    -0.232894759435E+04    0.50402E-02   -0.47763E-03  4696   0.288E-02    0.367E+00
RMM: 255    -0.232895261243E+04   -0.50181E-02   -0.18466E-03  4726   0.206E-02    0.352E+00
RMM: 256    -0.232895564191E+04   -0.30295E-02   -0.12266E-02  4679   0.453E-02    0.329E+00
RMM: 257    -0.232894648733E+04    0.91546E-02   -0.11481E-03  4121   0.218E-02    0.346E+00
RMM: 258    -0.232894591245E+04    0.57488E-03   -0.43245E-04  3822   0.885E-03    0.343E+00
RMM: 259    -0.232894166236E+04    0.42501E-02   -0.54185E-04  3775   0.112E-02    0.345E+00
RMM: 260    -0.232892776245E+04    0.13900E-01   -0.10768E-03  3886   0.137E-02    0.363E+00
RMM: 261    -0.232896581283E+04   -0.38050E-01   -0.36836E-02  4694   0.736E-02    0.344E+00
RMM: 262    -0.232895801092E+04    0.78019E-02   -0.36112E-03  4577   0.355E-02    0.364E+00
RMM: 263    -0.232896810688E+04   -0.10096E-01   -0.96775E-04  4071   0.125E-02    0.343E+00
RMM: 264    -0.232897506840E+04   -0.69615E-02   -0.76930E-04  3696   0.123E-02    0.328E+00
RMM: 265    -0.232897219380E+04    0.28746E-02   -0.48222E-05  2935   0.434E-03    0.333E+00
RMM: 266    -0.232893963317E+04    0.32561E-01   -0.23850E-02  4663   0.611E-02    0.403E+00
RMM: 267    -0.232890687799E+04    0.32755E-01   -0.15861E-02  4701   0.594E-02    0.449E+00
RMM: 268    -0.232886588330E+04    0.40995E-01   -0.15527E-02  4901   0.591E-02    0.482E+00
RMM: 269    -0.232881907496E+04    0.46808E-01   -0.34426E-02  4511   0.678E-02    0.485E+00
RMM: 270    -0.232880088142E+04    0.18194E-01   -0.12469E-02  3939   0.382E-02    0.473E+00
RMM: 271    -0.232884811182E+04   -0.47230E-01   -0.42370E-02  4456   0.815E-02    0.360E+00
RMM: 272    -0.232876619106E+04    0.81921E-01   -0.64250E-02  4554   0.103E-01    0.314E+00
RMM: 273    -0.232875124754E+04    0.14944E-01   -0.99256E-03  4588   0.428E-02    0.300E+00
RMM: 274    -0.232868196654E+04    0.69281E-01   -0.29066E-02  4527   0.689E-02    0.275E+00
RMM: 275    -0.232863972604E+04    0.42240E-01   -0.95077E-03  4169   0.421E-02    0.278E+00
RMM: 276    -0.232868259426E+04   -0.42868E-01   -0.15338E-02  4297   0.472E-02    0.309E+00
RMM: 277    -0.232871803048E+04   -0.35436E-01   -0.49287E-03  3939   0.291E-02    0.299E+00
RMM: 278    -0.232869669820E+04    0.21332E-01   -0.34253E-03  4229   0.281E-02    0.272E+00
RMM: 279    -0.232870481654E+04   -0.81183E-02   -0.16111E-03  3844   0.169E-02    0.280E+00
RMM: 280    -0.232871887217E+04   -0.14056E-01   -0.93064E-04  3495   0.137E-02    0.278E+00
RMM: 281    -0.232901106224E+04   -0.29219E+00   -0.68759E-01  4726   0.270E-01    0.103E+00
RMM: 282    -0.232903564557E+04   -0.24583E-01   -0.67590E-02  4720   0.124E-01    0.112E+00
RMM: 283    -0.232903971386E+04   -0.40683E-02   -0.28550E-02  5001   0.674E-02    0.124E+00
RMM: 284    -0.232903970382E+04    0.10046E-04   -0.21296E-03  4560   0.277E-02    0.125E+00
RMM: 285    -0.232903974721E+04   -0.43394E-04   -0.25358E-04  3577   0.569E-03    0.125E+00
RMM: 286    -0.232904299477E+04   -0.32476E-02   -0.11600E-03  4294   0.162E-02    0.130E+00
RMM: 287    -0.232904224733E+04    0.74743E-03   -0.41235E-04  3603   0.111E-02    0.133E+00
RMM: 288    -0.232904129600E+04    0.95133E-03   -0.15725E-03  4166   0.159E-02    0.118E+00
RMM: 289    -0.232904054401E+04    0.75199E-03   -0.94925E-03  4739   0.398E-02    0.959E-01
RMM: 290    -0.232904205352E+04   -0.15095E-02   -0.44816E-03  4818   0.323E-02    0.895E-01
RMM: 291    -0.232904829707E+04   -0.62435E-02   -0.83243E-03  4714   0.411E-02    0.837E-01
RMM: 292    -0.232905324325E+04   -0.49462E-02   -0.65452E-03  4499   0.395E-02    0.782E-01
RMM: 293    -0.232905498456E+04   -0.17413E-02   -0.13618E-03  4789   0.193E-02    0.826E-01
RMM: 294    -0.232905598625E+04   -0.10017E-02   -0.68796E-04  4141   0.124E-02    0.875E-01
RMM: 295    -0.232905620516E+04   -0.21891E-03   -0.43023E-04  3761   0.115E-02    0.868E-01
RMM: 296    -0.232905687989E+04   -0.67473E-03   -0.27225E-04  3826   0.100E-02    0.895E-01
RMM: 297    -0.232905890120E+04   -0.20213E-02   -0.25342E-03  4400   0.216E-02    0.849E-01
RMM: 298    -0.232905983704E+04   -0.93584E-03   -0.17353E-03  4271   0.199E-02    0.830E-01
RMM: 299    -0.232906023076E+04   -0.39372E-03   -0.22163E-03  4464   0.201E-02    0.818E-01
RMM: 300    -0.232905884893E+04    0.13818E-02   -0.73330E-03  4605   0.365E-02    0.831E-01
RMM: 301    -0.232905816336E+04    0.68557E-03   -0.39841E-03  4593   0.311E-02    0.913E-01
RMM: 302    -0.232905523597E+04    0.29274E-02   -0.28337E-03  4681   0.210E-02    0.921E-01
RMM: 303    -0.232905389171E+04    0.13443E-02   -0.62413E-04  3868   0.130E-02    0.939E-01
RMM: 304    -0.232905024268E+04    0.36490E-02   -0.13587E-03  4301   0.148E-02    0.933E-01
RMM: 305    -0.232904948982E+04    0.75287E-03   -0.19398E-04  3119   0.904E-03    0.937E-01
RMM: 306    -0.232904934218E+04    0.14764E-03   -0.50299E-05  2982   0.398E-03    0.941E-01
RMM: 307    -0.232904955339E+04   -0.21122E-03   -0.63038E-06  2898   0.283E-03    0.940E-01
RMM: 308    -0.232904980157E+04   -0.24818E-03   -0.57447E-06  2569   0.161E-03    0.938E-01
RMM: 309    -0.232904983410E+04   -0.32521E-04   -0.40082E-06  2583   0.150E-03    0.937E-01
RMM: 310    -0.232905031802E+04   -0.48392E-03   -0.22416E-05  2796   0.222E-03    0.935E-01
RMM: 311    -0.232905130689E+04   -0.98887E-03   -0.79216E-05  2917   0.386E-03    0.916E-01
RMM: 312    -0.232905138837E+04   -0.81474E-04   -0.18443E-05  2779   0.268E-03    0.904E-01
RMM: 313    -0.232905164539E+04   -0.25702E-03   -0.30706E-05  2896   0.309E-03    0.887E-01
RMM: 314    -0.232905232233E+04   -0.67695E-03   -0.10139E-04  2974   0.505E-03    0.854E-01
RMM: 315    -0.232905312919E+04   -0.80686E-03   -0.23313E-04  3245   0.776E-03    0.804E-01
RMM: 316    -0.232905513740E+04   -0.20082E-02   -0.11695E-03  4394   0.165E-02    0.691E-01
RMM: 317    -0.232905774094E+04   -0.26035E-02   -0.37219E-03  4717   0.299E-02    0.491E-01
RMM: 318    -0.232905936806E+04   -0.16271E-02   -0.31757E-03  4822   0.281E-02    0.334E-01
RMM: 319    -0.232906008044E+04   -0.71237E-03   -0.11253E-03  4504   0.167E-02    0.259E-01
RMM: 320    -0.232906018140E+04   -0.10096E-03   -0.14195E-04  3106   0.699E-03    0.249E-01
RMM: 321    -0.232906009800E+04    0.83397E-04   -0.14047E-05  2910   0.360E-03    0.258E-01
RMM: 322    -0.232906012128E+04   -0.23278E-04   -0.28934E-06  2826   0.182E-03    0.254E-01
RMM: 323    -0.232906038616E+04   -0.26489E-03   -0.13634E-04  3040   0.560E-03    0.214E-01
RMM: 324    -0.232906071000E+04   -0.32384E-03   -0.37309E-04  3600   0.886E-03    0.154E-01
RMM: 325    -0.232906098284E+04   -0.27284E-03   -0.57501E-04  3904   0.118E-02    0.827E-02
RMM: 326    -0.232906112395E+04   -0.14111E-03   -0.78208E-04  4111   0.137E-02    0.599E-03
RMM: 327    -0.232906113257E+04   -0.86161E-05   -0.80810E-05  2984   0.615E-03
   1 F= -.23505467E+04 E0= -.23505467E+04  d E =-.235055E+04  mag=     3.9957
       N       E                     dE             d eps       ncg     rms          rms(c)
DAV:   1    -0.232907031694E+04   -0.91930E-02   -0.45232E+00  4648   0.164E+00    0.596E-01
RMM:   2    -0.232909377340E+04   -0.23456E-01   -0.27288E-01  5802   0.300E-01    0.371E-01
RMM:   3    -0.232909566459E+04   -0.18912E-02   -0.24373E-02  5484   0.139E-01    0.550E-01
RMM:   4    -0.232909259280E+04    0.30718E-02   -0.37056E-03  5759   0.347E-02    0.203E-01
RMM:   5    -0.232909240712E+04    0.18568E-03   -0.23970E-03  5001   0.297E-02    0.194E-01
RMM:   6    -0.232909207063E+04    0.33649E-03   -0.75367E-04  4713   0.186E-02    0.946E-02
RMM:   7    -0.232909197058E+04    0.10005E-03   -0.12281E-04  3333   0.688E-03    0.354E-02
RMM:   8    -0.232909195965E+04    0.10934E-04   -0.47815E-05  2952   0.535E-03    0.292E-02
RMM:   9    -0.232909194303E+04    0.16618E-04   -0.25782E-05  2980   0.358E-03    0.108E-02
RMM:  10    -0.232909193718E+04    0.58504E-05   -0.99998E-06  2928   0.334E-03
   2 F= -.23505771E+04 E0= -.23505771E+04  d E =-.303835E-01  mag=     3.9992
       N       E                     dE             d eps       ncg     rms          rms(c)
DAV:   1    -0.232909193009E+04    0.12934E-04   -0.74900E-03  5408   0.679E-02    0.246E-02
RMM:   2    -0.232909197239E+04   -0.42293E-04   -0.46797E-04  4785   0.138E-02    0.167E-02
RMM:   3    -0.232909197692E+04   -0.45355E-05   -0.41028E-05  2944   0.636E-03
   3 F= -.23505771E+04 E0= -.23505771E+04  d E =-.304402E-01  mag=     3.9994
       N       E                     dE             d eps       ncg     rms          rms(c)
DAV:   1    -0.232909304168E+04   -0.10693E-02   -0.27620E+00  4560   0.146E+00    0.418E-01
RMM:   2    -0.232911745134E+04   -0.24410E-01   -0.26518E-01  6295   0.268E-01    0.302E-01
RMM:   3    -0.232912048236E+04   -0.30310E-02   -0.27648E-02  5879   0.108E-01    0.441E-01
RMM:   4    -0.232911846178E+04    0.20206E-02   -0.30203E-03  5433   0.259E-02    0.127E-01
RMM:   5    -0.232911849773E+04   -0.35955E-04   -0.85044E-04  4757   0.166E-02    0.163E-01
RMM:   6    -0.232911823264E+04    0.26509E-03   -0.46115E-04  4195   0.133E-02    0.701E-02
RMM:   7    -0.232911821067E+04    0.21971E-04   -0.15720E-04  3794   0.869E-03    0.482E-02
RMM:   8    -0.232911818364E+04    0.27034E-04   -0.46656E-05  2947   0.635E-03    0.193E-02
RMM:   9    -0.232911817889E+04    0.47443E-05   -0.98864E-06  2940   0.273E-03
   4 F= -.23506028E+04 E0= -.23506028E+04  d E =-.256777E-01  mag=     3.9998
       N       E                     dE             d eps       ncg     rms          rms(c)
DAV:   1    -0.232902934918E+04    0.88834E-01   -0.12174E+01  4520   0.307E+00    0.871E-01
RMM:   2    -0.232913641316E+04   -0.10706E+00   -0.11712E+00  6333   0.579E-01    0.564E-01
RMM:   3    -0.232914976532E+04   -0.13352E-01   -0.12064E-01  5924   0.226E-01    0.882E-01
RMM:   4    -0.232914196225E+04    0.78031E-02   -0.12917E-02  6133   0.535E-02    0.266E-01
RMM:   5    -0.232914134627E+04    0.61597E-03   -0.35347E-03  4876   0.342E-02    0.239E-01
RMM:   6    -0.232914119658E+04    0.14969E-03   -0.16794E-03  5047   0.261E-02    0.210E-01
RMM:   7    -0.232914071489E+04    0.48170E-03   -0.60303E-04  4856   0.158E-02    0.544E-02
RMM:   8    -0.232914071578E+04   -0.89579E-06   -0.12514E-04  3153   0.106E-02    0.512E-02
RMM:   9    -0.232914069075E+04    0.25033E-04   -0.53111E-05  2958   0.468E-03    0.192E-02
RMM:  10    -0.232914069351E+04   -0.27550E-05   -0.19315E-05  2984   0.361E-03
   5 F= -.23506242E+04 E0= -.23506242E+04  d E =-.470942E-01  mag=     4.0000
       N       E                     dE             d eps       ncg     rms          rms(c)
DAV:   1    -0.232913644794E+04    0.42428E-02   -0.21096E+00  4664   0.116E+00    0.349E-01
RMM:   2    -0.232915832842E+04   -0.21880E-01   -0.23673E-01  6433   0.232E-01    0.217E-01
RMM:   3    -0.232916016625E+04   -0.18378E-02   -0.22253E-02  5789   0.925E-02    0.268E-01
RMM:   4    -0.232915956434E+04    0.60191E-03   -0.23403E-03  4454   0.202E-02    0.126E-01
RMM:   5    -0.232915940140E+04    0.16294E-03   -0.63771E-04  4495   0.146E-02    0.986E-02
RMM:   6    -0.232915938212E+04    0.19275E-04   -0.30799E-04  3385   0.116E-02    0.912E-02
RMM:   7    -0.232915931090E+04    0.71219E-04   -0.11526E-04  3152   0.750E-03    0.415E-02
RMM:   8    -0.232915929454E+04    0.16363E-04   -0.37550E-05  2945   0.551E-03    0.214E-02
RMM:   9    -0.232915928888E+04    0.56601E-05   -0.10270E-05  2920   0.264E-03
   6 F= -.23506425E+04 E0= -.23506425E+04  d E =-.182933E-01  mag=     4.0000
       N       E                     dE             d eps       ncg     rms          rms(c)
DAV:   1    -0.232912880435E+04    0.30490E-01   -0.36820E+00  4528   0.152E+00    0.461E-01
RMM:   2    -0.232916700146E+04   -0.38197E-01   -0.41392E-01  6432   0.302E-01    0.279E-01
RMM:   3    -0.232917021981E+04   -0.32183E-02   -0.39907E-02  5836   0.123E-01    0.339E-01
RMM:   4    -0.232916931595E+04    0.90386E-03   -0.40819E-03  5225   0.261E-02    0.169E-01
RMM:   5    -0.232916899686E+04    0.31909E-03   -0.10864E-03  4618   0.181E-02    0.123E-01
RMM:   6    -0.232916900053E+04   -0.36760E-05   -0.52615E-04  3898   0.147E-02    0.127E-01
RMM:   7    -0.232916884864E+04    0.15189E-03   -0.20622E-04  3522   0.881E-03    0.502E-02
RMM:   8    -0.232916882732E+04    0.21323E-04   -0.62814E-05  2957   0.650E-03    0.315E-02
RMM:   9    -0.232916881411E+04    0.13205E-04   -0.19210E-05  2935   0.320E-03    0.967E-03
RMM:  10    -0.232916881381E+04    0.30454E-06   -0.85007E-06  2934   0.282E-03
   7 F= -.23506516E+04 E0= -.23506516E+04  d E =-.274186E-01  mag=     4.0000
       N       E                     dE             d eps       ncg     rms          rms(c)
DAV:   1    -0.232917033152E+04   -0.15174E-02   -0.11284E+00  4608   0.824E-01    0.261E-01
RMM:   2    -0.232918321250E+04   -0.12881E-01   -0.13933E-01  6454   0.169E-01    0.160E-01
RMM:   3    -0.232918425394E+04   -0.10414E-02   -0.13510E-02  5494   0.701E-02    0.160E-01
RMM:   4    -0.232918413776E+04    0.11618E-03   -0.13642E-03  3657   0.148E-02    0.109E-01
RMM:   5    -0.232918400234E+04    0.13541E-03   -0.31719E-04  3967   0.110E-02    0.552E-02
RMM:   6    -0.232918402097E+04   -0.18627E-04   -0.17538E-04  3137   0.889E-03    0.621E-02
RMM:   7    -0.232918397985E+04    0.41121E-04   -0.55283E-05  2995   0.598E-03    0.231E-02
RMM:   8    -0.232918397902E+04    0.83543E-06   -0.16708E-05  2912   0.365E-03
   8 F= -.23506665E+04 E0= -.23506665E+04  d E =-.148262E-01  mag=     4.0000
       N       E                     dE             d eps       ncg     rms          rms(c)
DAV:   1    -0.232908407313E+04    0.99907E-01   -0.97373E+00  4512   0.243E+00    0.769E-01
RMM:   2    -0.232919571519E+04   -0.11164E+00   -0.12108E+00  6460   0.513E-01    0.450E-01
RMM:   3    -0.232920411206E+04   -0.83969E-02   -0.12247E-01  5848   0.218E-01    0.366E-01
RMM:   4    -0.232920494893E+04   -0.83687E-03   -0.12503E-02  6133   0.446E-02    0.394E-01
RMM:   5    -0.232920320769E+04    0.17412E-02   -0.24091E-03  5285   0.263E-02    0.171E-01
RMM:   6    -0.232920345762E+04   -0.24993E-03   -0.15240E-03  5130   0.209E-02    0.216E-01
RMM:   7    -0.232920299724E+04    0.46038E-03   -0.65643E-04  4364   0.135E-02    0.848E-02
RMM:   8    -0.232920298951E+04    0.77360E-05   -0.20545E-04  3034   0.800E-03    0.787E-02
RMM:   9    -0.232920291145E+04    0.78060E-04   -0.71331E-05  2947   0.583E-03    0.210E-02
RMM:  10    -0.232920290574E+04    0.57041E-05   -0.27455E-05  2996   0.387E-03
   9 F= -.23506844E+04 E0= -.23506844E+04  d E =-.327365E-01  mag=     4.0000
       N       E                     dE             d eps       ncg     rms          rms(c)
DAV:   1    -0.232919853881E+04    0.43726E-02   -0.13907E+00  4608   0.983E-01    0.328E-01
RMM:   2    -0.232921302724E+04   -0.14488E-01   -0.15806E-01  6366   0.194E-01    0.161E-01
RMM:   3    -0.232921408257E+04   -0.10553E-02   -0.15037E-02  5701   0.818E-02    0.144E-01
RMM:   4    -0.232921409504E+04   -0.12478E-04   -0.15654E-03  4245   0.171E-02    0.134E-01
RMM:   5    -0.232921387561E+04    0.21943E-03   -0.39686E-04  4217   0.126E-02    0.450E-02
RMM:   6    -0.232921388251E+04   -0.69006E-05   -0.12945E-04  3516   0.883E-03    0.416E-02
RMM:   7    -0.232921386647E+04    0.16045E-04   -0.49724E-05  2963   0.595E-03    0.219E-02
RMM:   8    -0.232921386516E+04    0.13062E-05   -0.13700E-05  2929   0.333E-03
  10 F= -.23506951E+04 E0= -.23506951E+04  d E =-.106766E-01  mag=     4.0000
       N       E                     dE             d eps       ncg     rms          rms(c)
DAV:   1    -0.232915720802E+04    0.56658E-01   -0.58964E+00  4520   0.202E+00    0.678E-01
RMM:   2    -0.232921954570E+04   -0.62338E-01   -0.68079E-01  6351   0.398E-01    0.328E-01
RMM:   3    -0.232922361904E+04   -0.40733E-02   -0.65337E-02  5774   0.166E-01    0.249E-01
RMM:   4    -0.232922426019E+04   -0.64115E-03   -0.68950E-03  5929   0.353E-02    0.312E-01
RMM:   5    -0.232922315775E+04    0.11024E-02   -0.16106E-03  5271   0.224E-02    0.109E-01
RMM:   6    -0.232922315046E+04    0.72883E-05   -0.58564E-04  4881   0.146E-02    0.945E-02
RMM:   7    -0.232922308131E+04    0.69148E-04   -0.22555E-04  3189   0.992E-03    0.584E-02
RMM:   8    -0.232922306547E+04    0.15842E-04   -0.70064E-05  2963   0.532E-03    0.475E-02
RMM:   9    -0.232922304055E+04    0.24918E-04   -0.31640E-05  2927   0.397E-03    0.160E-02
RMM:  10    -0.232922303832E+04    0.22290E-05   -0.10817E-05  2927   0.272E-03
  11 F= -.23507036E+04 E0= -.23507036E+04  d E =-.192417E-01  mag=     4.0000
       N       E                     dE             d eps       ncg     rms          rms(c)
DAV:   1    -0.232922280594E+04    0.23462E-03   -0.73958E-01  4624   0.749E-01    0.250E-01
RMM:   2    -0.232923186536E+04   -0.90594E-02   -0.97604E-02  6395   0.155E-01    0.169E-01
RMM:   3    -0.232923284477E+04   -0.97940E-03   -0.96934E-03  5703   0.644E-02    0.216E-01
RMM:   4    -0.232923238826E+04    0.45651E-03   -0.10236E-03  3974   0.155E-02    0.930E-02
RMM:   5    -0.232923237178E+04    0.16480E-04   -0.30688E-04  4048   0.112E-02    0.901E-02
RMM:   6    -0.232923231812E+04    0.53660E-04   -0.18611E-04  3148   0.920E-03    0.553E-02
RMM:   7    -0.232923229700E+04    0.21126E-04   -0.58432E-05  2997   0.676E-03    0.297E-02
RMM:   8    -0.232923228829E+04    0.87064E-05   -0.21446E-05  2917   0.487E-03
  12 F= -.23507126E+04 E0= -.23507126E+04  d E =-.895835E-02  mag=     4.0000
       N       E                     dE             d eps       ncg     rms          rms(c)
DAV:   1    -0.232921422357E+04    0.18073E-01   -0.18448E+00  4528   0.119E+00    0.397E-01
RMM:   2    -0.232923697991E+04   -0.22756E-01   -0.24521E-01  6309   0.246E-01    0.273E-01
RMM:   3    -0.232923947952E+04   -0.24996E-02   -0.24512E-02  5864   0.104E-01    0.353E-01
RMM:   4    -0.232923825246E+04    0.12271E-02   -0.25892E-03  5481   0.243E-02    0.147E-01
RMM:   5    -0.232923822730E+04    0.25162E-04   -0.77695E-04  4674   0.162E-02    0.148E-01
RMM:   6    -0.232923807195E+04    0.15535E-03   -0.49695E-04  4400   0.133E-02    0.868E-02
RMM:   7    -0.232923802230E+04    0.49657E-04   -0.15345E-04  3548   0.858E-03    0.513E-02
RMM:   8    -0.232923799326E+04    0.29037E-04   -0.52058E-05  2939   0.623E-03    0.226E-02
RMM:   9    -0.232923798527E+04    0.79840E-05   -0.13704E-05  2961   0.321E-03
  13 F= -.23507178E+04 E0= -.23507178E+04  d E =-.141978E-01  mag=     4.0000
       N       E                     dE             d eps       ncg     rms          rms(c)
DAV:   1    -0.232923287192E+04    0.51213E-02   -0.10878E+00  4560   0.969E-01    0.334E-01
RMM:   2    -0.232924576658E+04   -0.12895E-01   -0.13374E-01  6247   0.192E-01    0.298E-01
RMM:   3    -0.232924699614E+04   -0.12296E-02   -0.13862E-02  5811   0.810E-02    0.330E-01
RMM:   4    -0.232924579786E+04    0.11983E-02   -0.15695E-03  5056   0.208E-02    0.106E-01
RMM:   5    -0.232924589884E+04   -0.10098E-03   -0.51617E-04  4047   0.133E-02    0.143E-01
RMM:   6    -0.232924568766E+04    0.21117E-03   -0.33250E-04  4361   0.112E-02    0.517E-02
RMM:   7    -0.232924569440E+04   -0.67354E-05   -0.11832E-04  3058   0.809E-03    0.496E-02
RMM:   8    -0.232924566483E+04    0.29572E-04   -0.39362E-05  2948   0.510E-03    0.141E-02
RMM:   9    -0.232924566243E+04    0.23939E-05   -0.80449E-06  2944   0.293E-03
  14 F= -.23507254E+04 E0= -.23507254E+04  d E =-.760034E-02  mag=     4.0000
       N       E                     dE             d eps       ncg     rms          rms(c)
DAV:   1    -0.232924028654E+04    0.53783E-02   -0.60307E-01  4592   0.723E-01    0.249E-01
RMM:   2    -0.232924746501E+04   -0.71785E-02   -0.74487E-02  6237   0.143E-01    0.221E-01
RMM:   3    -0.232924815607E+04   -0.69105E-03   -0.76876E-03  5586   0.604E-02    0.247E-01
RMM:   4    -0.232924748370E+04    0.67236E-03   -0.86929E-04  4271   0.156E-02    0.787E-02
RMM:   5    -0.232924753677E+04   -0.53066E-04   -0.28531E-04  3358   0.104E-02    0.106E-01
RMM:   6    -0.232924742083E+04    0.11594E-03   -0.18905E-04  3653   0.920E-03    0.390E-02
RMM:   7    -0.232924742431E+04   -0.34810E-05   -0.70146E-05  2994   0.689E-03
  15 F= -.23507271E+04 E0= -.23507271E+04  d E =-.930325E-02  mag=     4.0000
       N       E                     dE             d eps       ncg     rms          rms(c)
DAV:   1    -0.232924067050E+04    0.67503E-02   -0.11027E+00  4528   0.979E-01    0.307E-01
RMM:   2    -0.232925371805E+04   -0.13048E-01   -0.13141E-01  6227   0.194E-01    0.338E-01
RMM:   3    -0.232925421304E+04   -0.49499E-03   -0.13481E-02  5752   0.806E-02    0.275E-01
RMM:   4    -0.232925345598E+04    0.75706E-03   -0.14476E-03  4751   0.196E-02    0.110E-01
RMM:   5    -0.232925358006E+04   -0.12407E-03   -0.47767E-04  3708   0.130E-02    0.151E-01
RMM:   6    -0.232925334836E+04    0.23170E-03   -0.33971E-04  4322   0.116E-02    0.530E-02
RMM:   7    -0.232925335681E+04   -0.84511E-05   -0.12534E-04  3018   0.840E-03    0.511E-02
RMM:   8    -0.232925332524E+04    0.31573E-04   -0.39072E-05  2953   0.510E-03    0.131E-02
RMM:   9    -0.232925332309E+04    0.21461E-05   -0.79267E-06  2938   0.286E-03
  16 F= -.23507329E+04 E0= -.23507329E+04  d E =-.579690E-02  mag=     4.0000
       N       E                     dE             d eps       ncg     rms          rms(c)
DAV:   1    -0.232925208528E+04    0.12400E-02   -0.14448E-01  4800   0.357E-01    0.111E-01
RMM:   2    -0.232925380900E+04   -0.17237E-02   -0.17262E-02  6240   0.712E-02    0.125E-01
RMM:   3    -0.232925386111E+04   -0.52109E-04   -0.17454E-03  3841   0.287E-02    0.983E-02
RMM:   4    -0.232925376408E+04    0.97032E-04   -0.18715E-04  3065   0.820E-03    0.397E-02
RMM:   5    -0.232925377929E+04   -0.15213E-04   -0.63850E-05  2967   0.547E-03    0.541E-02
RMM:   6    -0.232925374922E+04    0.30076E-04   -0.44890E-05  2982   0.515E-03    0.193E-02
RMM:   7    -0.232925375055E+04   -0.13284E-05   -0.18510E-05  2923   0.415E-03
  17 F= -.23507333E+04 E0= -.23507333E+04  d E =-.618770E-02  mag=     4.0000
       N       E                     dE             d eps       ncg     rms          rms(c)
DAV:   1    -0.232924869511E+04    0.50541E-02   -0.11733E+00  4528   0.997E-01    0.299E-01
RMM:   2    -0.232926072632E+04   -0.12031E-01   -0.11981E-01  6245   0.191E-01    0.339E-01
RMM:   3    -0.232926102007E+04   -0.29375E-03   -0.12248E-02  5787   0.771E-02    0.259E-01
RMM:   4    -0.232926032278E+04    0.69729E-03   -0.12692E-03  4679   0.185E-02    0.101E-01
RMM:   5    -0.232926041126E+04   -0.88479E-04   -0.37330E-04  3359   0.116E-02    0.133E-01
RMM:   6    -0.232926022199E+04    0.18927E-03   -0.26059E-04  4179   0.108E-02    0.416E-02
RMM:   7    -0.232926023034E+04   -0.83545E-05   -0.86102E-05  3017   0.786E-03
  18 F= -.23507398E+04 E0= -.23507398E+04  d E =-.645658E-02  mag=     4.0000
       N       E                     dE             d eps       ncg     rms          rms(c)
DAV:   1    -0.232921646464E+04    0.43757E-01   -0.49214E+00  4512   0.203E+00    0.614E-01
RMM:   2    -0.232926720937E+04   -0.50745E-01   -0.50570E-01  6187   0.387E-01    0.695E-01
RMM:   3    -0.232926829966E+04   -0.10903E-02   -0.51990E-02  5839   0.162E-01    0.530E-01
RMM:   4    -0.232926539967E+04    0.29000E-02   -0.53147E-03  5424   0.375E-02    0.212E-01
RMM:   5    -0.232926571479E+04   -0.31512E-03   -0.15432E-03  4915   0.217E-02    0.267E-01
RMM:   6    -0.232926494075E+04    0.77404E-03   -0.10653E-03  4879   0.194E-02    0.813E-02
RMM:   7    -0.232926496543E+04   -0.24685E-04   -0.32583E-04  4068   0.138E-02    0.735E-02
RMM:   8    -0.232926490468E+04    0.60757E-04   -0.10902E-04  3061   0.638E-03    0.275E-02
RMM:   9    -0.232926489531E+04    0.93660E-05   -0.19506E-05  2980   0.414E-03
  19 F= -.23507444E+04 E0= -.23507444E+04  d E =-.110776E-01  mag=     4.0000
       N       E                     dE             d eps       ncg     rms          rms(c)
DAV:   1    -0.232926162001E+04    0.32847E-02   -0.12998E+00  4576   0.969E-01    0.294E-01
RMM:   2    -0.232927196642E+04   -0.10346E-01   -0.10247E-01  6131   0.181E-01    0.315E-01
RMM:   3    -0.232927223036E+04   -0.26395E-03   -0.96797E-03  5543   0.734E-02    0.258E-01
RMM:   4    -0.232927151697E+04    0.71340E-03   -0.11178E-03  4727   0.185E-02    0.998E-02
RMM:   5    -0.232927165680E+04   -0.13983E-03   -0.42210E-04  3542   0.124E-02    0.144E-01
RMM:   6    -0.232927142818E+04    0.22861E-03   -0.28519E-04  4219   0.110E-02    0.337E-02
RMM:   7    -0.232927142772E+04    0.46298E-06   -0.44344E-05  3021   0.658E-03
  20 F= -.23507509E+04 E0= -.23507508E+04  d E =-.646190E-02  mag=     4.0000
       N       E                     dE             d eps       ncg     rms          rms(c)
DAV:   1    -0.232920109925E+04    0.70329E-01   -0.10198E+01  4528   0.272E+00    0.826E-01
RMM:   2    -0.232928263307E+04   -0.81534E-01   -0.80922E-01  6103   0.508E-01    0.885E-01
RMM:   3    -0.232928474746E+04   -0.21144E-02   -0.77963E-02  5693   0.211E-01    0.725E-01
RMM:   4    -0.232927917068E+04    0.55768E-02   -0.89299E-03  5457   0.517E-02    0.287E-01
RMM:   5    -0.232928014854E+04   -0.97786E-03   -0.32660E-03  5294   0.320E-02    0.398E-01
RMM:   6    -0.232927841679E+04    0.17317E-02   -0.22414E-03  5192   0.274E-02    0.934E-02
RMM:   7    -0.232927839278E+04    0.24012E-04   -0.31755E-04  4153   0.152E-02    0.406E-02
RMM:   8    -0.232927839611E+04   -0.33359E-05   -0.93627E-05  3133   0.642E-03
  21 F= -.23507576E+04 E0= -.23507576E+04  d E =-.132511E-01  mag=     4.0000
       N       E                     dE             d eps       ncg     rms          rms(c)
DAV:   1    -0.232927365387E+04    0.47389E-02   -0.27158E+00  4568   0.130E+00    0.421E-01
RMM:   2    -0.232929007274E+04   -0.16419E-01   -0.15934E-01  6030   0.237E-01    0.437E-01
RMM:   3    -0.232929023111E+04   -0.15836E-03   -0.13986E-02  5433   0.914E-02    0.388E-01
RMM:   4    -0.232928854256E+04    0.16885E-02   -0.18667E-03  5081   0.255E-02    0.132E-01
RMM:   5    -0.232928884605E+04   -0.30348E-03   -0.94369E-04  4772   0.187E-02    0.197E-01
RMM:   6    -0.232928841609E+04    0.42996E-03   -0.56870E-04  4905   0.137E-02    0.554E-02
RMM:   7    -0.232928842720E+04   -0.11111E-04   -0.13488E-04  3014   0.836E-03    0.524E-02
RMM:   8    -0.232928839448E+04    0.32719E-04   -0.38866E-05  2943   0.434E-03    0.134E-02
RMM:   9    -0.232928839293E+04    0.15553E-05   -0.84468E-06  2943   0.240E-03
  22 F= -.23507674E+04 E0= -.23507673E+04  d E =-.971013E-02  mag=     4.0000
       N       E                     dE             d eps       ncg     rms          rms(c)
DAV:   1    -0.232925930582E+04    0.29089E-01   -0.69244E+00  4528   0.206E+00    0.659E-01
RMM:   2    -0.232929959855E+04   -0.40293E-01   -0.39662E-01  5994   0.374E-01    0.652E-01
RMM:   3    -0.232930063894E+04   -0.10404E-02   -0.34685E-02  5488   0.145E-01    0.617E-01
RMM:   4    -0.232929634170E+04    0.42972E-02   -0.45997E-03  5300   0.401E-02    0.212E-01
RMM:   5    -0.232929696411E+04   -0.62241E-03   -0.23433E-03  5439   0.291E-02    0.294E-01
RMM:   6    -0.232929601271E+04    0.95140E-03   -0.13683E-03  5454   0.206E-02    0.962E-02
RMM:   7    -0.232929602495E+04   -0.12248E-04   -0.34349E-04  3339   0.119E-02    0.880E-02
RMM:   8    -0.232929593197E+04    0.92984E-04   -0.90985E-05  2967   0.618E-03    0.207E-02
RMM:   9    -0.232929592688E+04    0.50929E-05   -0.23222E-05  2991   0.341E-03
  23 F= -.23507745E+04 E0= -.23507744E+04  d E =-.168093E-01  mag=     4.0000
       N       E                     dE             d eps       ncg     rms          rms(c)
DAV:   1    -0.232929550781E+04    0.42416E-03   -0.23598E+00  4544   0.113E+00    0.372E-01
RMM:   2    -0.232930974282E+04   -0.14235E-01   -0.13516E-01  6163   0.204E-01    0.437E-01
RMM:   3    -0.232930912966E+04    0.61316E-03   -0.11405E-02  5405   0.738E-02    0.325E-01
RMM:   4    -0.232930797326E+04    0.11564E-02   -0.14218E-03  4870   0.209E-02    0.118E-01
RMM:   5    -0.232930817349E+04   -0.20023E-03   -0.72864E-04  4278   0.154E-02    0.165E-01
RMM:   6    -0.232930787293E+04    0.30056E-03   -0.45615E-04  4258   0.124E-02    0.562E-02
RMM:   7    -0.232930787552E+04   -0.25961E-05   -0.11461E-04  3006   0.762E-03    0.501E-02
RMM:   8    -0.232930784557E+04    0.29950E-04   -0.27888E-05  2952   0.395E-03    0.117E-02
RMM:   9    -0.232930784426E+04    0.13090E-05   -0.64372E-06  2913   0.219E-03
  24 F= -.23507860E+04 E0= -.23507860E+04  d E =-.115491E-01  mag=     4.0000
       N       E                     dE             d eps       ncg     rms          rms(c)
DAV:   1    -0.232925454951E+04    0.53296E-01   -0.13279E+01  4528   0.268E+00    0.892E-01
RMM:   2    -0.232933490634E+04   -0.80357E-01   -0.76781E-01  6175   0.486E-01    0.103E+00
RMM:   3    -0.232933213458E+04    0.27718E-02   -0.66352E-02  5630   0.181E-01    0.787E-01
RMM:   4    -0.232932528858E+04    0.68460E-02   -0.81157E-03  5391   0.500E-02    0.276E-01
RMM:   5    -0.232932627549E+04   -0.98691E-03   -0.41256E-03  5652   0.360E-02    0.372E-01
RMM:   6    -0.232932475816E+04    0.15173E-02   -0.24432E-03  5699   0.261E-02    0.132E-01
RMM:   7    -0.232932476685E+04   -0.86906E-05   -0.57601E-04  3750   0.135E-02    0.118E-01
RMM:   8    -0.232932459795E+04    0.16890E-03   -0.16089E-04  3034   0.738E-03    0.288E-02
RMM:   9    -0.232932458898E+04    0.89671E-05   -0.37287E-05  3015   0.425E-03
  25 F= -.23508019E+04 E0= -.23508019E+04  d E =-.274563E-01  mag=     4.0000
       N       E                     dE             d eps       ncg     rms          rms(c)
DAV:   1    -0.232931212057E+04    0.12477E-01   -0.28196E+00  4576   0.124E+00    0.411E-01
RMM:   2    -0.232932899708E+04   -0.16877E-01   -0.16084E-01  6192   0.223E-01    0.476E-01
RMM:   3    -0.232932831832E+04    0.67876E-03   -0.13859E-02  5465   0.802E-02    0.362E-01
RMM:   4    -0.232932687978E+04    0.14385E-02   -0.17372E-03  4970   0.230E-02    0.129E-01
RMM:   5    -0.232932711489E+04   -0.23510E-03   -0.88532E-04  4563   0.168E-02    0.179E-01
RMM:   6    -0.232932675873E+04    0.35616E-03   -0.53654E-04  4502   0.132E-02    0.612E-02
RMM:   7    -0.232932676263E+04   -0.39027E-05   -0.13537E-04  3019   0.802E-03    0.559E-02
RMM:   8    -0.232932672518E+04    0.37453E-04   -0.34586E-05  2939   0.430E-03    0.129E-02
RMM:   9    -0.232932672365E+04    0.15229E-05   -0.84245E-06  2940   0.242E-03
  26 F= -.23508037E+04 E0= -.23508037E+04  d E =-.292228E-01  mag=     4.0000
       N       E                     dE             d eps       ncg     rms          rms(c)
DAV:   1    -0.232932887639E+04   -0.21512E-02   -0.72143E-01  4672   0.618E-01    0.201E-01
RMM:   2    -0.232933313634E+04   -0.42599E-02   -0.39726E-02  6240   0.110E-01    0.250E-01
RMM:   3    -0.232933283507E+04    0.30126E-03   -0.33834E-03  4586   0.395E-02    0.165E-01
RMM:   4    -0.232933254601E+04    0.28906E-03   -0.39286E-04  3482   0.112E-02    0.632E-02
RMM:   5    -0.232933262118E+04   -0.75166E-04   -0.21099E-04  3189   0.856E-03    0.958E-02
RMM:   6    -0.232933251886E+04    0.10232E-03   -0.13448E-04  3160   0.776E-03    0.287E-02
RMM:   7    -0.232933251996E+04   -0.10954E-05   -0.34590E-05  2949   0.509E-03
  27 F= -.23508092E+04 E0= -.23508092E+04  d E =-.557128E-02  mag=     4.0000
       N       E                     dE             d eps       ncg     rms          rms(c)
DAV:   1    -0.232931340498E+04    0.19114E-01   -0.64744E+00  4528   0.185E+00    0.607E-01
RMM:   2    -0.232935223455E+04   -0.38830E-01   -0.36510E-01  6254   0.334E-01    0.740E-01
RMM:   3    -0.232934994718E+04    0.22874E-02   -0.31005E-02  5643   0.122E-01    0.511E-01
RMM:   4    -0.232934712292E+04    0.28243E-02   -0.35944E-03  5153   0.327E-02    0.187E-01
RMM:   5    -0.232934776767E+04   -0.64474E-03   -0.19187E-03  5211   0.235E-02    0.280E-01
RMM:   6    -0.232934688124E+04    0.88643E-03   -0.11511E-03  5204   0.183E-02    0.861E-02
RMM:   7    -0.232934688801E+04   -0.67614E-05   -0.26426E-04  3122   0.966E-03    0.741E-02
RMM:   8    -0.232934682169E+04    0.66311E-04   -0.68625E-05  2964   0.547E-03    0.193E-02
RMM:   9    -0.232934681661E+04    0.50791E-05   -0.17033E-05  2972   0.291E-03
  28 F= -.23508229E+04 E0= -.23508229E+04  d E =-.192042E-01  mag=     4.0000
       N       E                     dE             d eps       ncg     rms          rms(c)
DAV:   1    -0.232922284781E+04    0.12397E+00   -0.25863E+01  4528   0.372E+00    0.122E+00
RMM:   2    -0.232938162731E+04   -0.15878E+00   -0.14930E+00  6250   0.672E-01    0.150E+00
RMM:   3    -0.232937329287E+04    0.83344E-02   -0.12689E-01  5706   0.250E-01    0.102E+00
RMM:   4    -0.232936191008E+04    0.11383E-01   -0.14781E-02  5366   0.657E-02    0.372E-01
RMM:   5    -0.232936409834E+04   -0.21883E-02   -0.77104E-03  5827   0.468E-02    0.531E-01
RMM:   6    -0.232936095181E+04    0.31465E-02   -0.44996E-03  6075   0.345E-02    0.175E-01
RMM:   7    -0.232936094339E+04    0.84249E-05   -0.95185E-04  4247   0.155E-02    0.146E-01
RMM:   8    -0.232936068783E+04    0.25556E-03   -0.27769E-04  3131   0.866E-03    0.395E-02
RMM:   9    -0.232936066673E+04    0.21099E-04   -0.68949E-05  3067   0.528E-03    0.219E-02
RMM:  10    -0.232936066106E+04    0.56677E-05   -0.25753E-05  2960   0.462E-03
  29 F= -.23508354E+04 E0= -.23508354E+04  d E =-.317731E-01  mag=     4.0000
       N       E                     dE             d eps       ncg     rms          rms(c)
DAV:   1    -0.232936601549E+04   -0.53488E-02   -0.94855E-01  4736   0.752E-01    0.260E-01
RMM:   2    -0.232937180134E+04   -0.57859E-02   -0.54061E-02  6034   0.141E-01    0.316E-01
RMM:   3    -0.232937131765E+04    0.48369E-03   -0.48499E-03  5335   0.560E-02    0.218E-01
RMM:   4    -0.232937077227E+04    0.54538E-03   -0.63755E-04  4464   0.155E-02    0.816E-02
RMM:   5    -0.232937088135E+04   -0.10908E-03   -0.33732E-04  3613   0.122E-02    0.128E-01
RMM:   6    -0.232937069250E+04    0.18885E-03   -0.23437E-04  4224   0.104E-02    0.229E-02
RMM:   7    -0.232937069250E+04    0.17462E-08   -0.33074E-05  2994   0.662E-03
  30 F= -.23508453E+04 E0= -.23508453E+04  d E =-.983814E-02  mag=     4.0000
       N       E                     dE             d eps       ncg     rms          rms(c)
DAV:   1    -0.232934285020E+04    0.27842E-01   -0.85132E+00  4528   0.225E+00    0.784E-01
RMM:   2    -0.232939440742E+04   -0.51557E-01   -0.48497E-01  5948   0.425E-01    0.940E-01
RMM:   3    -0.232939058631E+04    0.38211E-02   -0.46746E-02  5499   0.178E-01    0.661E-01
RMM:   4    -0.232938552202E+04    0.50643E-02   -0.58697E-03  5013   0.470E-02    0.246E-01
RMM:   5    -0.232938645482E+04   -0.93280E-03   -0.30540E-03  5410   0.351E-02    0.380E-01
RMM:   6    -0.232938475134E+04    0.17035E-02   -0.20249E-03  5302   0.272E-02    0.686E-02
RMM:   7    -0.232938474497E+04    0.63651E-05   -0.27714E-04  4027   0.154E-02    0.552E-02
RMM:   8    -0.232938471572E+04    0.29253E-04   -0.10556E-04  3167   0.585E-03    0.336E-02
RMM:   9    -0.232938469596E+04    0.19763E-04   -0.23962E-05  2969   0.433E-03    0.145E-02
RMM:  10    -0.232938469026E+04    0.56955E-05   -0.17271E-05  2948   0.417E-03
  31 F= -.23508587E+04 E0= -.23508587E+04  d E =-.232639E-01  mag=     4.0000
       N       E                     dE             d eps       ncg     rms          rms(c)
DAV:   1    -0.232938732150E+04   -0.26255E-02   -0.82834E-01  4672   0.734E-01    0.246E-01
RMM:   2    -0.232939371499E+04   -0.63935E-02   -0.59391E-02  6227   0.141E-01    0.319E-01
RMM:   3    -0.232939312214E+04    0.59285E-03   -0.54779E-03  5531   0.550E-02    0.194E-01
RMM:   4    -0.232939272622E+04    0.39592E-03   -0.69331E-04  4217   0.149E-02    0.928E-02
RMM:   5    -0.232939273049E+04   -0.42754E-05   -0.26577E-04  3125   0.102E-02    0.983E-02
RMM:   6    -0.232939264181E+04    0.88679E-04   -0.19634E-04  3984   0.965E-03    0.469E-02
RMM:   7    -0.232939263106E+04    0.10752E-04   -0.77706E-05  2972   0.747E-03    0.318E-02
RMM:   8    -0.232939261913E+04    0.11931E-04   -0.15626E-05  2919   0.338E-03    0.781E-03
RMM:   9    -0.232939261942E+04   -0.28958E-06   -0.38157E-06  2869   0.224E-03
  32 F= -.23508665E+04 E0= -.23508665E+04  d E =-.779485E-02  mag=     4.0000
       N       E                     dE             d eps       ncg     rms          rms(c)
DAV:   1    -0.232938086541E+04    0.11754E-01   -0.30777E+00  4528   0.141E+00    0.476E-01
RMM:   2    -0.232940462323E+04   -0.23758E-01   -0.22113E-01  6155   0.271E-01    0.617E-01
RMM:   3    -0.232940245010E+04    0.21731E-02   -0.20751E-02  5753   0.108E-01    0.377E-01
RMM:   4    -0.232940096422E+04    0.14859E-02   -0.26085E-03  4984   0.283E-02    0.182E-01
RMM:   5    -0.232940095195E+04    0.12270E-04   -0.97605E-04  4449   0.187E-02    0.187E-01
RMM:   6    -0.232940062711E+04    0.32485E-03   -0.70902E-04  4666   0.165E-02    0.918E-02
RMM:   7    -0.232940057784E+04    0.49262E-04   -0.28000E-04  3331   0.128E-02    0.604E-02
RMM:   8    -0.232940053184E+04    0.46004E-04   -0.54072E-05  2989   0.521E-03    0.151E-02
RMM:   9    -0.232940052985E+04    0.19870E-05   -0.12449E-05  2957   0.351E-03
  33 F= -.23508742E+04 E0= -.23508742E+04  d E =-.154550E-01  mag=     4.0000
       N       E                     dE             d eps       ncg     rms          rms(c)
DAV:   1    -0.232940015423E+04    0.37761E-03   -0.14526E+00  4544   0.101E+00    0.324E-01
RMM:   2    -0.232941131328E+04   -0.11159E-01   -0.10937E-01  6121   0.193E-01    0.351E-01
RMM:   3    -0.232941120667E+04    0.10662E-03   -0.10528E-02  5569   0.798E-02    0.283E-01
RMM:   4    -0.232941031928E+04    0.88739E-03   -0.12747E-03  4801   0.200E-02    0.122E-01
RMM:   5    -0.232941029321E+04    0.26074E-04   -0.45140E-04  3510   0.133E-02    0.122E-01
RMM:   6    -0.232941016078E+04    0.13243E-03   -0.35806E-04  4383   0.121E-02    0.687E-02
RMM:   7    -0.232941012390E+04    0.36880E-04   -0.13179E-04  3050   0.949E-03    0.396E-02
RMM:   8    -0.232941010229E+04    0.21611E-04   -0.24079E-05  2947   0.428E-03    0.103E-02
RMM:   9    -0.232941009939E+04    0.28929E-05   -0.72327E-06  2934   0.296E-03
  34 F= -.23508835E+04 E0= -.23508835E+04  d E =-.936625E-02  mag=     4.0000
       N       E                     dE             d eps       ncg     rms          rms(c)
DAV:   1    -0.232940221992E+04    0.78824E-02   -0.16752E+00  4544   0.108E+00    0.347E-01
RMM:   2    -0.232941505450E+04   -0.12835E-01   -0.12590E-01  6133   0.206E-01    0.375E-01
RMM:   3    -0.232941491882E+04    0.13568E-03   -0.11971E-02  5595   0.851E-02    0.303E-01
RMM:   4    -0.232941390665E+04    0.10122E-02   -0.14629E-03  4881   0.214E-02    0.131E-01
RMM:   5    -0.232941387509E+04    0.31553E-04   -0.52614E-04  3698   0.141E-02    0.132E-01
RMM:   6    -0.232941371980E+04    0.15529E-03   -0.42291E-04  4501   0.129E-02    0.746E-02
RMM:   7    -0.232941367405E+04    0.45752E-04   -0.15212E-04  3090   0.998E-03    0.423E-02
RMM:   8    -0.232941364871E+04    0.25343E-04   -0.27302E-05  2958   0.450E-03    0.110E-02
RMM:   9    -0.232941364485E+04    0.38564E-05   -0.83237E-06  2936   0.315E-03
  35 F= -.23508869E+04 E0= -.23508869E+04  d E =-.126977E-01  mag=     4.0000
       N       E                     dE             d eps       ncg     rms          rms(c)
DAV:   1    -0.232940724833E+04    0.64004E-02   -0.17157E+00  4536   0.108E+00    0.318E-01
RMM:   2    -0.232942094885E+04   -0.13701E-01   -0.13914E-01  6322   0.204E-01    0.303E-01
RMM:   3    -0.232942168689E+04   -0.73804E-03   -0.13328E-02  5614   0.834E-02    0.295E-01
RMM:   4    -0.232942074468E+04    0.94221E-03   -0.14583E-03  4799   0.203E-02    0.119E-01
RMM:   5    -0.232942073557E+04    0.91104E-05   -0.44225E-04  3466   0.118E-02    0.121E-01
RMM:   6    -0.232942060180E+04    0.13377E-03   -0.36933E-04  4321   0.121E-02    0.601E-02
RMM:   7    -0.232942060693E+04   -0.51347E-05   -0.15496E-04  3030   0.887E-03    0.566E-02
RMM:   8    -0.232942056527E+04    0.41663E-04   -0.35936E-05  2943   0.509E-03    0.109E-02
RMM:   9    -0.232942056317E+04    0.21027E-05   -0.67898E-06  2922   0.291E-03
  36 F= -.23508938E+04 E0= -.23508938E+04  d E =-.688830E-02  mag=     4.0000
       N       E                     dE             d eps       ncg     rms          rms(c)
DAV:   1    -0.232935287863E+04    0.67687E-01   -0.94882E+00  4528   0.253E+00    0.754E-01
RMM:   2    -0.232942907338E+04   -0.76195E-01   -0.77803E-01  6302   0.479E-01    0.702E-01
RMM:   3    -0.232943391038E+04   -0.48370E-02   -0.75747E-02  5813   0.200E-01    0.715E-01
RMM:   4    -0.232942837610E+04    0.55343E-02   -0.82573E-03  5846   0.478E-02    0.283E-01
RMM:   5    -0.232942827022E+04    0.10587E-03   -0.24917E-03  5258   0.251E-02    0.280E-01
RMM:   6    -0.232942755000E+04    0.72022E-03   -0.19920E-03  5288   0.251E-02    0.143E-01
RMM:   7    -0.232942759652E+04   -0.46514E-04   -0.86438E-04  4599   0.181E-02    0.140E-01
RMM:   8    -0.232942734424E+04    0.25228E-03   -0.20295E-04  3571   0.835E-03    0.272E-02
RMM:   9    -0.232942733055E+04    0.13686E-04   -0.32604E-05  2989   0.499E-03    0.167E-02
RMM:  10    -0.232942732547E+04    0.50885E-05   -0.17775E-05  2942   0.340E-03
  37 F= -.23509005E+04 E0= -.23509005E+04  d E =-.136018E-01  mag=     4.0000
       N       E                     dE             d eps       ncg     rms          rms(c)
DAV:   1    -0.232941303256E+04    0.14298E-01   -0.32284E+00  4512   0.143E+00    0.454E-01
RMM:   2    -0.232943684313E+04   -0.23811E-01   -0.25251E-01  6234   0.269E-01    0.303E-01
RMM:   3    -0.232943932778E+04   -0.24846E-02   -0.25473E-02  5575   0.117E-01    0.416E-01
RMM:   4    -0.232943751733E+04    0.18105E-02   -0.26943E-03  5454   0.265E-02    0.154E-01
RMM:   5    -0.232943737086E+04    0.14647E-03   -0.87608E-04  4626   0.167E-02    0.119E-01
RMM:   6    -0.232943728165E+04    0.89207E-04   -0.57764E-04  4164   0.140E-02    0.764E-02
RMM:   7    -0.232943721560E+04    0.66051E-04   -0.11632E-04  3470   0.795E-03    0.180E-02
RMM:   8    -0.232943721319E+04    0.24159E-05   -0.21026E-05  2974   0.496E-03
  38 F= -.23509103E+04 E0= -.23509103E+04  d E =-.987487E-02  mag=     4.0000
       N       E                     dE             d eps       ncg     rms          rms(c)
DAV:   1    -0.232941367386E+04    0.23542E-01   -0.36194E+00  4528   0.151E+00    0.482E-01
RMM:   2    -0.232944033869E+04   -0.26665E-01   -0.28225E-01  6190   0.285E-01    0.331E-01
RMM:   3    -0.232944320181E+04   -0.28631E-02   -0.28913E-02  5563   0.127E-01    0.456E-01
RMM:   4    -0.232944101155E+04    0.21903E-02   -0.30461E-03  5622   0.284E-02    0.160E-01
RMM:   5    -0.232944088419E+04    0.12736E-03   -0.99701E-04  4659   0.176E-02    0.132E-01
RMM:   6    -0.232944076232E+04    0.12187E-03   -0.65347E-04  4296   0.146E-02    0.807E-02
RMM:   7    -0.232944069907E+04    0.63251E-04   -0.14993E-04  3635   0.854E-03    0.372E-02
RMM:   8    -0.232944069147E+04    0.75983E-05   -0.38371E-05  2944   0.579E-03
  39 F= -.23509138E+04 E0= -.23509138E+04  d E =-.133545E-01  mag=     4.0000
       N       E                     dE             d eps       ncg     rms          rms(c)
DAV:   1    -0.232941586883E+04    0.24830E-01   -0.39657E+00  4536   0.157E+00    0.478E-01
RMM:   2    -0.232944880583E+04   -0.32937E-01   -0.34561E-01  6318   0.305E-01    0.350E-01
RMM:   3    -0.232945187542E+04   -0.30696E-02   -0.34838E-02  5708   0.131E-01    0.442E-01
RMM:   4    -0.232944994429E+04    0.19311E-02   -0.36609E-03  5625   0.299E-02    0.172E-01
RMM:   5    -0.232944975696E+04    0.18733E-03   -0.10594E-03  4782   0.188E-02    0.136E-01
RMM:   6    -0.232944972983E+04    0.27131E-04   -0.66192E-04  4410   0.141E-02    0.125E-01
RMM:   7    -0.232944957215E+04    0.15767E-03   -0.20371E-04  3682   0.923E-03    0.408E-02
RMM:   8    -0.232944955835E+04    0.13799E-04   -0.54159E-05  2943   0.633E-03    0.268E-02
RMM:   9    -0.232944954700E+04    0.11355E-04   -0.15232E-05  2946   0.297E-03    0.117E-02
RMM:  10    -0.232944954415E+04    0.28484E-05   -0.81349E-06  2923   0.265E-03
  40 F= -.23509224E+04 E0= -.23509224E+04  d E =-.856803E-02  mag=     4.0000
       N       E                     dE             d eps       ncg     rms          rms(c)
DAV:   1    -0.232944609500E+04    0.34520E-02   -0.49441E-01  4664   0.556E-01    0.168E-01
RMM:   2    -0.232945020744E+04   -0.41124E-02   -0.43275E-02  6314   0.108E-01    0.118E-01
RMM:   3    -0.232945056433E+04   -0.35688E-03   -0.42055E-03  4574   0.449E-02    0.150E-01
RMM:   4    -0.232945034782E+04    0.21650E-03   -0.44590E-04  3247   0.110E-02    0.618E-02
RMM:   5    -0.232945031712E+04    0.30704E-04   -0.13173E-04  3102   0.786E-03    0.452E-02
RMM:   6    -0.232945031181E+04    0.53100E-05   -0.84959E-05  2995   0.666E-03
  41 F= -.23509231E+04 E0= -.23509231E+04  d E =-.923951E-02  mag=     4.0000
       N       E                     dE             d eps       ncg     rms          rms(c)
DAV:   1    -0.232941768431E+04    0.32633E-01   -0.42833E+00  4528   0.165E+00    0.509E-01
RMM:   2    -0.232945820044E+04   -0.40516E-01   -0.42562E-01  6282   0.327E-01    0.384E-01
RMM:   3    -0.232946177256E+04   -0.35721E-02   -0.43921E-02  5740   0.141E-01    0.455E-01
RMM:   4    -0.232945978349E+04    0.19891E-02   -0.42957E-03  5636   0.312E-02    0.192E-01
RMM:   5    -0.232945967185E+04    0.11164E-03   -0.10966E-03  4694   0.173E-02    0.174E-01
RMM:   6    -0.232945936756E+04    0.30429E-03   -0.90419E-04  5038   0.157E-02    0.843E-02
RMM:   7    -0.232945935651E+04    0.11042E-04   -0.24802E-04  3832   0.104E-02    0.701E-02
RMM:   8    -0.232945930445E+04    0.52065E-04   -0.79962E-05  2971   0.632E-03    0.266E-02
RMM:   9    -0.232945929293E+04    0.11517E-04   -0.14836E-05  2964   0.362E-03    0.125E-02
RMM:  10    -0.232945929025E+04    0.26784E-05   -0.89331E-06  2922   0.271E-03
  42 F= -.23509318E+04 E0= -.23509318E+04  d E =-.877431E-02  mag=     4.0000
       N       E                     dE             d eps       ncg     rms          rms(c)
DAV:   1    -0.232945195589E+04    0.73370E-02   -0.85463E-01  4608   0.737E-01    0.226E-01
RMM:   2    -0.232946004701E+04   -0.80911E-02   -0.84884E-02  6336   0.146E-01    0.170E-01
RMM:   3    -0.232946075627E+04   -0.70926E-03   -0.86853E-03  5162   0.625E-02    0.203E-01
RMM:   4    -0.232946035783E+04    0.39844E-03   -0.85488E-04  3589   0.143E-02    0.843E-02
RMM:   5    -0.232946033462E+04    0.23216E-04   -0.21771E-04  3121   0.901E-03    0.771E-02
RMM:   6    -0.232946027293E+04    0.61686E-04   -0.18302E-04  3308   0.857E-03    0.354E-02
RMM:   7    -0.232946026874E+04    0.41896E-05   -0.46437E-05  2993   0.620E-03
  43 F= -.23509327E+04 E0= -.23509327E+04  d E =-.966854E-02  mag=     4.0000
       N       E                     dE             d eps       ncg     rms          rms(c)
DAV:   1    -0.232943954415E+04    0.20729E-01   -0.24794E+00  4528   0.132E+00    0.413E-01
RMM:   2    -0.232946663876E+04   -0.27095E-01   -0.28135E-01  6318   0.264E-01    0.349E-01
RMM:   3    -0.232946907574E+04   -0.24370E-02   -0.29560E-02  5544   0.116E-01    0.396E-01
RMM:   4    -0.232946744784E+04    0.16279E-02   -0.28911E-03  5259   0.262E-02    0.145E-01
RMM:   5    -0.232946741409E+04    0.33752E-04   -0.73681E-04  4486   0.147E-02    0.144E-01
RMM:   6    -0.232946719511E+04    0.21899E-03   -0.58989E-04  4737   0.133E-02    0.683E-02
RMM:   7    -0.232946720867E+04   -0.13567E-04   -0.18945E-04  3380   0.923E-03    0.728E-02
RMM:   8    -0.232946714518E+04    0.63494E-04   -0.61430E-05  2952   0.621E-03    0.165E-02
RMM:   9    -0.232946714011E+04    0.50719E-05   -0.12451E-05  2956   0.336E-03
  44 F= -.23509395E+04 E0= -.23509395E+04  d E =-.680656E-02  mag=     4.0000
       N       E                     dE             d eps       ncg     rms          rms(c)
DAV:   1    -0.232938409084E+04    0.83054E-01   -0.75708E+00  4528   0.230E+00    0.716E-01
RMM:   2    -0.232946698042E+04   -0.82890E-01   -0.85585E-01  6298   0.462E-01    0.632E-01
RMM:   3    -0.232947420885E+04   -0.72284E-02   -0.90369E-02  5742   0.198E-01    0.694E-01
RMM:   4    -0.232946909314E+04    0.51157E-02   -0.88246E-03  5939   0.456E-02    0.247E-01
RMM:   5    -0.232946891150E+04    0.18164E-03   -0.22080E-03  5399   0.244E-02    0.236E-01
RMM:   6    -0.232946832617E+04    0.58533E-03   -0.17445E-03  5461   0.213E-02    0.118E-01
RMM:   7    -0.232946828219E+04    0.43984E-04   -0.48356E-04  4606   0.141E-02    0.988E-02
RMM:   8    -0.232946816991E+04    0.11227E-03   -0.13766E-04  3059   0.769E-03    0.356E-02
RMM:   9    -0.232946814851E+04    0.21399E-04   -0.31537E-05  2975   0.463E-03    0.178E-02
RMM:  10    -0.232946814139E+04    0.71273E-05   -0.18148E-05  2945   0.386E-03
  45 F= -.23509405E+04 E0= -.23509405E+04  d E =-.772710E-02  mag=     4.0000
       N       E                     dE             d eps       ncg     rms          rms(c)
DAV:   1    -0.232945353551E+04    0.14613E-01   -0.14306E+00  4560   0.100E+00    0.316E-01
RMM:   2    -0.232946950360E+04   -0.15968E-01   -0.16269E-01  6374   0.202E-01    0.304E-01
RMM:   3    -0.232947047389E+04   -0.97029E-03   -0.17007E-02  5589   0.825E-02    0.287E-01
RMM:   4    -0.232946963371E+04    0.84017E-03   -0.17443E-03  4720   0.199E-02    0.121E-01
RMM:   5    -0.232946958989E+04    0.43822E-04   -0.38792E-04  3419   0.110E-02    0.114E-01
RMM:   6    -0.232946946329E+04    0.12660E-03   -0.35440E-04  4251   0.113E-02    0.662E-02
RMM:   7    -0.232946945703E+04    0.62667E-05   -0.16274E-04  3087   0.852E-03    0.570E-02
RMM:   8    -0.232946941948E+04    0.37550E-04   -0.40099E-05  2962   0.552E-03    0.111E-02
RMM:   9    -0.232946941746E+04    0.20191E-05   -0.76250E-06  2930   0.326E-03
  46 F= -.23509418E+04 E0= -.23509418E+04  d E =-.903325E-02  mag=     4.0000
       N       E                     dE             d eps       ncg     rms          rms(c)
DAV:   1    -0.232943967507E+04    0.29744E-01   -0.31142E+00  4528   0.154E+00    0.480E-01
RMM:   2    -0.232947602827E+04   -0.36353E-01   -0.37129E-01  6277   0.308E-01    0.460E-01
RMM:   3    -0.232947867955E+04   -0.26513E-02   -0.39124E-02  5787   0.131E-01    0.461E-01
RMM:   4    -0.232947630767E+04    0.23719E-02   -0.37921E-03  5514   0.306E-02    0.159E-01
RMM:   5    -0.232947644150E+04   -0.13383E-03   -0.10985E-03  4927   0.182E-02    0.203E-01
RMM:   6    -0.232947597702E+04    0.46448E-03   -0.76771E-04  5200   0.148E-02    0.775E-02
RMM:   7    -0.232947597416E+04    0.28547E-05   -0.24482E-04  3858   0.103E-02    0.660E-02
RMM:   8    -0.232947592236E+04    0.51796E-04   -0.74689E-05  2956   0.624E-03    0.200E-02
RMM:   9    -0.232947591432E+04    0.80486E-05   -0.16792E-05  2971   0.355E-03
  47 F= -.23509482E+04 E0= -.23509482E+04  d E =-.639823E-02  mag=     4.0000
       N       E                     dE             d eps       ncg     rms          rms(c)
DAV:   1    -0.232947230941E+04    0.36130E-02   -0.34496E-01  4656   0.514E-01    0.162E-01
RMM:   2    -0.232947641795E+04   -0.41085E-02   -0.41602E-02  6295   0.104E-01    0.162E-01
RMM:   3    -0.232947665014E+04   -0.23219E-03   -0.43431E-03  4578   0.430E-02    0.149E-01
RMM:   4    -0.232947640587E+04    0.24426E-03   -0.42656E-04  3180   0.109E-02    0.563E-02
RMM:   5    -0.232947641770E+04   -0.11827E-04   -0.11425E-04  3001   0.691E-03    0.684E-02
RMM:   6    -0.232947636322E+04    0.54477E-04   -0.93062E-05  3068   0.670E-03    0.265E-02
RMM:   7    -0.232947636565E+04   -0.24278E-05   -0.40084E-05  2957   0.571E-03
  48 F= -.23509486E+04 E0= -.23509486E+04  d E =-.682125E-02  mag=     4.0000
       N       E                     dE             d eps       ncg     rms          rms(c)
DAV:   1    -0.232944626418E+04    0.30099E-01   -0.30080E+00  4528   0.151E+00    0.467E-01
RMM:   2    -0.232948192493E+04   -0.35661E-01   -0.36833E-01  6340   0.303E-01    0.432E-01
RMM:   3    -0.232948461668E+04   -0.26917E-02   -0.38494E-02  5759   0.133E-01    0.444E-01
RMM:   4    -0.232948240610E+04    0.22106E-02   -0.36344E-03  5452   0.296E-02    0.162E-01
RMM:   5    -0.232948250393E+04   -0.97828E-04   -0.10441E-03  4564   0.165E-02    0.203E-01
RMM:   6    -0.232948206877E+04    0.43516E-03   -0.74744E-04  4981   0.146E-02    0.758E-02
RMM:   7    -0.232948205747E+04    0.11297E-04   -0.22126E-04  3649   0.993E-03    0.534E-02
RMM:   8    -0.232948202475E+04    0.32726E-04   -0.68678E-05  2969   0.619E-03    0.245E-02
RMM:   9    -0.232948201611E+04    0.86351E-05   -0.16002E-05  2951   0.337E-03
  49 F= -.23509542E+04 E0= -.23509542E+04  d E =-.563965E-02  mag=     4.0000
       N       E                     dE             d eps       ncg     rms          rms(c)
DAV:   1    -0.232948072977E+04    0.12950E-02   -0.12035E-01  4896   0.300E-01    0.950E-02
RMM:   2    -0.232948218840E+04   -0.14586E-02   -0.14851E-02  6373   0.613E-02    0.953E-02
RMM:   3    -0.232948226368E+04   -0.75278E-04   -0.15242E-03  3420   0.249E-02    0.857E-02
RMM:   4    -0.232948218186E+04    0.81817E-04   -0.14558E-04  3001   0.717E-03    0.339E-02
RMM:   5    -0.232948218643E+04   -0.45726E-05   -0.41828E-05  2960   0.410E-03
  50 F= -.23509544E+04 E0= -.23509544E+04  d E =-.580990E-02  mag=     4.0000
       N       E                     dE             d eps       ncg     rms          rms(c)
DAV:   1    -0.232945693865E+04    0.25243E-01   -0.24925E+00  4528   0.140E+00    0.435E-01
RMM:   2    -0.232948759706E+04   -0.30658E-01   -0.31910E-01  6357   0.286E-01    0.369E-01
RMM:   3    -0.232949016906E+04   -0.25720E-02   -0.33342E-02  5877   0.121E-01    0.395E-01
RMM:   4    -0.232948849635E+04    0.16727E-02   -0.32148E-03  5357   0.277E-02    0.163E-01
RMM:   5    -0.232948851747E+04   -0.21119E-04   -0.92115E-04  4454   0.157E-02    0.180E-01
RMM:   6    -0.232948822444E+04    0.29303E-03   -0.68356E-04  4799   0.140E-02    0.868E-02
RMM:   7    -0.232948823947E+04   -0.15032E-04   -0.29966E-04  3416   0.106E-02    0.818E-02
RMM:   8    -0.232948814967E+04    0.89792E-04   -0.78625E-05  2978   0.670E-03    0.176E-02
RMM:   9    -0.232948814276E+04    0.69101E-05   -0.14626E-05  2951   0.369E-03
  51 F= -.23509602E+04 E0= -.23509602E+04  d E =-.582604E-02  mag=     4.0000
       N       E                     dE             d eps       ncg     rms          rms(c)
DAV:   1    -0.232947870414E+04    0.94455E-02   -0.81869E-01  4544   0.807E-01    0.251E-01
RMM:   2    -0.232948886741E+04   -0.10163E-01   -0.10526E-01  6309   0.165E-01    0.220E-01
RMM:   3    -0.232948965365E+04   -0.78625E-03   -0.10827E-02  5525   0.705E-02    0.228E-01
RMM:   4    -0.232948909801E+04    0.55565E-03   -0.10587E-03  3837   0.161E-02    0.945E-02
RMM:   5    -0.232948910382E+04   -0.58117E-05   -0.29311E-04  3153   0.991E-03    0.105E-01
RMM:   6    -0.232948899802E+04    0.10580E-03   -0.23471E-04  3684   0.954E-03    0.471E-02
RMM:   7    -0.232948900521E+04   -0.71930E-05   -0.10291E-04  2989   0.723E-03    0.467E-02
RMM:   8    -0.232948897536E+04    0.29855E-04   -0.28821E-05  2928   0.503E-03    0.998E-03
RMM:   9    -0.232948897293E+04    0.24303E-05   -0.58893E-06  2909   0.274E-03
  52 F= -.23509610E+04 E0= -.23509610E+04  d E =-.658841E-02  mag=     4.0000
       N       E                     dE             d eps       ncg     rms          rms(c)
DAV:   1    -0.232947524612E+04    0.13729E-01   -0.14439E+00  4528   0.108E+00    0.334E-01
RMM:   2    -0.232949300993E+04   -0.17764E-01   -0.18561E-01  6306   0.222E-01    0.246E-01
RMM:   3    -0.232949453203E+04   -0.15221E-02   -0.18988E-02  5723   0.944E-02    0.266E-01
RMM:   4    -0.232949385501E+04    0.67702E-03   -0.18900E-03  4764   0.209E-02    0.139E-01
RMM:   5    -0.232949379946E+04    0.55547E-04   -0.50151E-04  3651   0.118E-02    0.125E-01
RMM:   6    -0.232949365369E+04    0.14577E-03   -0.42384E-04  4242   0.120E-02    0.562E-02
RMM:   7    -0.232949368080E+04   -0.27109E-04   -0.14616E-04  3095   0.826E-03    0.658E-02
RMM:   8    -0.232949362576E+04    0.55039E-04   -0.48613E-05  2930   0.564E-03    0.136E-02
RMM:   9    -0.232949362277E+04    0.29890E-05   -0.86700E-06  2930   0.292E-03
  53 F= -.23509656E+04 E0= -.23509656E+04  d E =-.463236E-02  mag=     4.0000
[...]
 272 F= -.23514736E+04 E0= -.23514736E+04  d E =-.647278E-03  mag=     4.0000
       N       E                     dE             d eps       ncg     rms          rms(c)
DAV:   1    -0.233002373772E+04    0.13429E-02   -0.16683E-01  4528   0.358E-01    0.118E-01
RMM:   2    -0.233002559965E+04   -0.18619E-02   -0.17457E-02  6433   0.755E-02    0.153E-01
RMM:   3    -0.233002553036E+04    0.69292E-04   -0.17672E-03  4090   0.278E-02    0.917E-02
RMM:   4    -0.233002543015E+04    0.10022E-03   -0.17913E-04  3060   0.824E-03    0.360E-02
RMM:   5    -0.233002544436E+04   -0.14217E-04   -0.59029E-05  2981   0.548E-03    0.512E-02
RMM:   6    -0.233002541533E+04    0.29038E-04   -0.42256E-05  2975   0.545E-03    0.139E-02
RMM:   7    -0.233002541588E+04   -0.55943E-06   -0.11016E-05  2936   0.403E-03
 273 F= -.23514741E+04 E0= -.23514741E+04  d E =-.452928E-03  mag=     4.0000
       N       E                     dE             d eps       ncg     rms          rms(c)
DAV:   1    -0.233002410586E+04    0.13095E-02   -0.12761E-01  4536   0.313E-01    0.103E-01
RMM:   2    -0.233002552231E+04   -0.14164E-02   -0.13370E-02  6407   0.662E-02    0.131E-01
RMM:   3    -0.233002548455E+04    0.37763E-04   -0.13579E-03  3867   0.244E-02    0.819E-02
RMM:   4    -0.233002540472E+04    0.79825E-04   -0.13807E-04  3045   0.741E-03    0.316E-02
RMM:   5    -0.233002541616E+04   -0.11435E-04   -0.45415E-05  2960   0.485E-03    0.445E-02
RMM:   6    -0.233002539294E+04    0.23220E-04   -0.31674E-05  2957   0.477E-03    0.121E-02
RMM:   7    -0.233002539309E+04   -0.14971E-06   -0.79553E-06  2925   0.347E-03
 274 F= -.23514742E+04 E0= -.23514742E+04  d E =-.533266E-03  mag=     4.0000
       N       E                     dE             d eps       ncg     rms          rms(c)
DAV:   1    -0.233002324466E+04    0.21483E-02   -0.22837E-01  4520   0.422E-01    0.141E-01
RMM:   2    -0.233002585519E+04   -0.26105E-02   -0.24893E-02  6376   0.896E-02    0.174E-01
RMM:   3    -0.233002581611E+04    0.39084E-04   -0.25196E-03  4468   0.332E-02    0.115E-01
RMM:   4    -0.233002565791E+04    0.15820E-03   -0.25837E-04  3140   0.953E-03    0.429E-02
RMM:   5    -0.233002567876E+04   -0.20849E-04   -0.83839E-05  3020   0.638E-03    0.608E-02
RMM:   6    -0.233002563651E+04    0.42247E-04   -0.58378E-05  2997   0.627E-03    0.158E-02
RMM:   7    -0.233002563576E+04    0.75391E-06   -0.12287E-05  2952   0.448E-03
 275 F= -.23514746E+04 E0= -.23514746E+04  d E =-.408959E-03  mag=     4.0000
       N       E                     dE             d eps       ncg     rms          rms(c)
DAV:   1    -0.233002536342E+04    0.27310E-03   -0.21482E-02  4728   0.130E-01    0.442E-02
RMM:   2    -0.233002561969E+04   -0.25628E-03   -0.23931E-03  6229   0.289E-02    0.586E-02
RMM:   3    -0.233002560754E+04    0.12148E-04   -0.24188E-04  3041   0.107E-02    0.344E-02
RMM:   4    -0.233002559378E+04    0.13767E-04   -0.25100E-05  2975   0.358E-03    0.134E-02
RMM:   5    -0.233002559591E+04   -0.21344E-05   -0.83637E-06  2880   0.210E-03
 276 F= -.23514746E+04 E0= -.23514746E+04  d E =-.420461E-03  mag=     4.0000
       N       E                     dE             d eps       ncg     rms          rms(c)
DAV:   1    -0.233002400689E+04    0.15869E-02   -0.17647E-01  4520   0.381E-01    0.125E-01
RMM:   2    -0.233002596128E+04   -0.19544E-02   -0.18962E-02  6249   0.799E-02    0.141E-01
RMM:   3    -0.233002599213E+04   -0.30853E-04   -0.18964E-03  4237   0.303E-02    0.109E-01
RMM:   4    -0.233002584767E+04    0.14446E-03   -0.19809E-04  3101   0.896E-03    0.372E-02
RMM:   5    -0.233002586250E+04   -0.14828E-04   -0.75824E-05  3058   0.644E-03    0.514E-02
RMM:   6    -0.233002583250E+04    0.29999E-04   -0.46686E-05  2956   0.603E-03    0.169E-02
RMM:   7    -0.233002583194E+04    0.56377E-06   -0.12056E-05  2942   0.410E-03
 277 F= -.23514750E+04 E0= -.23514750E+04  d E =-.409751E-03  mag=     4.0000
       N       E                     dE             d eps       ncg     rms          rms(c)
DAV:   1    -0.233002557638E+04    0.25612E-03   -0.19889E-02  4688   0.128E-01    0.434E-02
RMM:   2    -0.233002580219E+04   -0.22581E-03   -0.21792E-03  6204   0.286E-02    0.489E-02
RMM:   3    -0.233002580500E+04   -0.28118E-05   -0.22116E-04  3043   0.107E-02    0.378E-02
RMM:   4    -0.233002578790E+04    0.17107E-04   -0.23477E-05  2965   0.367E-03    0.127E-02
RMM:   5    -0.233002578970E+04   -0.18057E-05   -0.85030E-06  2896   0.219E-03
 278 F= -.23514750E+04 E0= -.23514750E+04  d E =-.426158E-03  mag=     4.0000
       N       E                     dE             d eps       ncg     rms          rms(c)
DAV:   1    -0.233002447310E+04    0.13148E-02   -0.13730E-01  4528   0.338E-01    0.110E-01
RMM:   2    -0.233002606277E+04   -0.15897E-02   -0.15310E-02  6244   0.714E-02    0.131E-01
RMM:   3    -0.233002605940E+04    0.33707E-05   -0.15661E-03  4064   0.276E-02    0.919E-02
RMM:   4    -0.233002595845E+04    0.10095E-03   -0.15791E-04  3063   0.801E-03    0.333E-02
RMM:   5    -0.233002597024E+04   -0.11793E-04   -0.60379E-05  3023   0.566E-03    0.456E-02
RMM:   6    -0.233002594650E+04    0.23742E-04   -0.37606E-05  2952   0.536E-03    0.158E-02
RMM:   7    -0.233002594684E+04   -0.34238E-06   -0.11951E-05  2925   0.386E-03
 279 F= -.23514754E+04 E0= -.23514754E+04  d E =-.326209E-03  mag=     4.0000
       N       E                     dE             d eps       ncg     rms          rms(c)
DAV:   1    -0.233002565035E+04    0.29615E-03   -0.21876E-02  4608   0.135E-01    0.450E-02
RMM:   2    -0.233002590646E+04   -0.25611E-03   -0.24754E-03  6245   0.300E-02    0.520E-02
RMM:   3    -0.233002590904E+04   -0.25746E-05   -0.25895E-04  3044   0.114E-02    0.389E-02
RMM:   4    -0.233002589137E+04    0.17670E-04   -0.26302E-05  2967   0.379E-03    0.131E-02
RMM:   5    -0.233002589333E+04   -0.19623E-05   -0.94426E-06  2913   0.231E-03
 280 F= -.23514754E+04 E0= -.23514754E+04  d E =-.340479E-03  mag=     4.0000
       N       E                     dE             d eps       ncg     rms          rms(c)
DAV:   1    -0.233002445011E+04    0.14413E-02   -0.14778E-01  4536   0.352E-01    0.114E-01
RMM:   2    -0.233002615350E+04   -0.17034E-02   -0.16310E-02  6267   0.740E-02    0.138E-01
RMM:   3    -0.233002613678E+04    0.16717E-04   -0.16677E-03  4110   0.280E-02    0.937E-02
RMM:   4    -0.233002603152E+04    0.10527E-03   -0.16864E-04  3076   0.819E-03    0.340E-02
RMM:   5    -0.233002604398E+04   -0.12468E-04   -0.61772E-05  3014   0.582E-03    0.477E-02
RMM:   6    -0.233002601843E+04    0.25555E-04   -0.38144E-05  2951   0.546E-03    0.151E-02
RMM:   7    -0.233002601727E+04    0.11581E-05   -0.86097E-06  2918   0.364E-03
 281 F= -.23514757E+04 E0= -.23514757E+04  d E =-.304509E-03  mag=     4.0000
       N       E                     dE             d eps       ncg     rms          rms(c)
DAV:   1    -0.233002573757E+04    0.28086E-03   -0.20092E-02  4720   0.130E-01    0.432E-02
RMM:   2    -0.233002597867E+04   -0.24110E-03   -0.22708E-03  6213   0.289E-02    0.547E-02
RMM:   3    -0.233002597086E+04    0.78075E-05   -0.22845E-04  3047   0.108E-02    0.350E-02
RMM:   4    -0.233002595676E+04    0.14101E-04   -0.23784E-05  2967   0.363E-03    0.131E-02
RMM:   5    -0.233002595803E+04   -0.12772E-05   -0.83659E-06  2874   0.212E-03
 282 F= -.23514757E+04 E0= -.23514757E+04  d E =-.312114E-03  mag=     4.0000
       N       E                     dE             d eps       ncg     rms          rms(c)
DAV:   1    -0.233002451042E+04    0.14463E-02   -0.15056E-01  4528   0.349E-01    0.110E-01
RMM:   2    -0.233002619970E+04   -0.16893E-02   -0.16114E-02  6285   0.732E-02    0.137E-01
RMM:   3    -0.233002617010E+04    0.29606E-04   -0.15879E-03  4051   0.272E-02    0.882E-02
RMM:   4    -0.233002607741E+04    0.92684E-04   -0.16299E-04  3078   0.808E-03    0.349E-02
RMM:   5    -0.233002608996E+04   -0.12545E-04   -0.60339E-05  3001   0.560E-03    0.473E-02
RMM:   6    -0.233002606344E+04    0.26519E-04   -0.40032E-05  2968   0.541E-03    0.166E-02
RMM:   7    -0.233002606426E+04   -0.81630E-06   -0.14402E-05  2919   0.408E-03
 283 F= -.23514760E+04 E0= -.23514760E+04  d E =-.285483E-03  mag=     4.0000
       N       E                     dE             d eps       ncg     rms          rms(c)
DAV:   1    -0.233002582069E+04    0.24275E-03   -0.17822E-02  4656   0.120E-01    0.391E-02
RMM:   2    -0.233002602452E+04   -0.20383E-03   -0.19427E-03  6191   0.266E-02    0.481E-02
RMM:   3    -0.233002602199E+04    0.25329E-05   -0.19563E-04  3017   0.986E-03    0.324E-02
RMM:   4    -0.233002600983E+04    0.12161E-04   -0.19972E-05  2969   0.332E-03    0.117E-02
RMM:   5    -0.233002601117E+04   -0.13386E-05   -0.69736E-06  2860   0.203E-03
 284 F= -.23514760E+04 E0= -.23514760E+04  d E =-.294362E-03  mag=     4.0000
       N       E                     dE             d eps       ncg     rms          rms(c)
DAV:   1    -0.233002481216E+04    0.11977E-02   -0.13476E-01  4520   0.335E-01    0.106E-01
RMM:   2    -0.233002621225E+04   -0.14001E-02   -0.13606E-02  6261   0.691E-02    0.119E-01
RMM:   3    -0.233002623237E+04   -0.20124E-04   -0.13733E-03  4021   0.261E-02    0.919E-02
RMM:   4    -0.233002612726E+04    0.10511E-03   -0.14201E-04  3049   0.787E-03    0.334E-02
RMM:   5    -0.233002613884E+04   -0.11580E-04   -0.58000E-05  2987   0.550E-03    0.473E-02
RMM:   6    -0.233002611392E+04    0.24917E-04   -0.36934E-05  2951   0.526E-03    0.133E-02
RMM:   7    -0.233002611377E+04    0.14476E-06   -0.96754E-06  2916   0.379E-03
 285 F= -.23514763E+04 E0= -.23514763E+04  d E =-.280406E-03  mag=     4.0000
       N       E                     dE             d eps       ncg     rms          rms(c)
DAV:   1    -0.233002595889E+04    0.15503E-03   -0.10914E-02  4856   0.953E-02    0.315E-02
RMM:   2    -0.233002607409E+04   -0.11520E-03   -0.11260E-03  5952   0.212E-02    0.340E-02
RMM:   3    -0.233002607732E+04   -0.32348E-05   -0.11802E-04  2959   0.817E-03    0.277E-02
RMM:   4    -0.233002606809E+04    0.92362E-05   -0.12157E-05  2936   0.280E-03
 286 F= -.23514763E+04 E0= -.23514763E+04  d E =-.285655E-03  mag=     4.0000
       N       E                     dE             d eps       ncg     rms          rms(c)
DAV:   1    -0.233002490236E+04    0.11750E-02   -0.12611E-01  4528   0.320E-01    0.102E-01
RMM:   2    -0.233002621416E+04   -0.13118E-02   -0.12761E-02  6372   0.658E-02    0.117E-01
RMM:   3    -0.233002623322E+04   -0.19053E-04   -0.13464E-03  3825   0.244E-02    0.889E-02
RMM:   4    -0.233002613995E+04    0.93271E-04   -0.13574E-04  3037   0.761E-03    0.339E-02
RMM:   5    -0.233002615088E+04   -0.10935E-04   -0.56044E-05  3010   0.531E-03    0.468E-02
RMM:   6    -0.233002612777E+04    0.23108E-04   -0.40735E-05  2959   0.533E-03    0.138E-02
RMM:   7    -0.233002612866E+04   -0.88697E-06   -0.11535E-05  2927   0.372E-03
 287 F= -.23514765E+04 E0= -.23514765E+04  d E =-.259374E-03  mag=     4.0000
       N       E                     dE             d eps       ncg     rms          rms(c)
DAV:   1    -0.233002598522E+04    0.14255E-03   -0.90565E-03  4792   0.858E-02    0.285E-02
RMM:   2    -0.233002608019E+04   -0.94965E-04   -0.94028E-04  5764   0.190E-02    0.299E-02
RMM:   3    -0.233002608381E+04   -0.36237E-05   -0.10122E-04  2955   0.760E-03    0.251E-02
RMM:   4    -0.233002607632E+04    0.74896E-05   -0.10357E-05  2923   0.262E-03
 288 F= -.23514765E+04 E0= -.23514765E+04  d E =-.260648E-03  mag=     4.0000
       N       E                     dE             d eps       ncg     rms          rms(c)
DAV:   1    -0.233002492663E+04    0.11572E-02   -0.13429E-01  4512   0.331E-01    0.108E-01
RMM:   2    -0.233002626317E+04   -0.13365E-02   -0.12941E-02  6305   0.673E-02    0.122E-01
RMM:   3    -0.233002628576E+04   -0.22592E-04   -0.13776E-03  3970   0.258E-02    0.954E-02
RMM:   4    -0.233002617566E+04    0.11010E-03   -0.14042E-04  3044   0.786E-03    0.336E-02
RMM:   5    -0.233002619191E+04   -0.16253E-04   -0.60437E-05  3020   0.557E-03    0.504E-02
RMM:   6    -0.233002616254E+04    0.29370E-04   -0.41846E-05  2959   0.555E-03    0.110E-02
RMM:   7    -0.233002616248E+04    0.63417E-07   -0.79429E-06  2934   0.359E-03
 289 F= -.23514767E+04 E0= -.23514767E+04  d E =-.224846E-03  mag=     4.0000
       N       E                     dE             d eps       ncg     rms          rms(c)
DAV:   1    -0.233002613470E+04    0.27845E-04   -0.12451E-03  5072   0.320E-02    0.122E-02
RMM:   2    -0.233002614904E+04   -0.14341E-04   -0.13014E-04  3261   0.758E-03    0.157E-02
RMM:   3    -0.233002614777E+04    0.12685E-05   -0.17042E-05  2696   0.462E-03
 290 F= -.23514767E+04 E0= -.23514767E+04  d E =-.223660E-03  mag=     4.0000
       N       E                     dE             d eps       ncg     rms          rms(c)
DAV:   1    -0.233002514699E+04    0.10021E-02   -0.12442E-01  4520   0.316E-01    0.104E-01
RMM:   2    -0.233002635070E+04   -0.12037E-02   -0.11694E-02  6259   0.648E-02    0.113E-01
RMM:   3    -0.233002636966E+04   -0.18959E-04   -0.11627E-03  3957   0.243E-02    0.902E-02
RMM:   4    -0.233002626899E+04    0.10067E-03   -0.12699E-04  3044   0.770E-03    0.334E-02
RMM:   5    -0.233002628236E+04   -0.13370E-04   -0.53625E-05  2967   0.536E-03    0.476E-02
RMM:   6    -0.233002625712E+04    0.25238E-04   -0.36645E-05  2954   0.523E-03    0.113E-02
RMM:   7    -0.233002625705E+04    0.74710E-07   -0.76847E-06  2920   0.375E-03
 291 F= -.23514770E+04 E0= -.23514770E+04  d E =-.208097E-03  mag=     4.0000
       N       E                     dE             d eps       ncg     rms          rms(c)
DAV:   1    -0.233002623666E+04    0.20462E-04   -0.10226E-03  5080   0.288E-02    0.115E-02
RMM:   2    -0.233002624853E+04   -0.11873E-04   -0.10486E-04  3239   0.690E-03    0.151E-02
RMM:   3    -0.233002624700E+04    0.15340E-05   -0.13503E-05  2646   0.419E-03
 292 F= -.23514770E+04 E0= -.23514770E+04  d E =-.207167E-03  mag=     4.0000
       N       E                     dE             d eps       ncg     rms          rms(c)
DAV:   1    -0.233002531687E+04    0.93166E-03   -0.11608E-01  4512   0.301E-01    0.101E-01
RMM:   2    -0.233002641629E+04   -0.10994E-02   -0.10567E-02  6256   0.617E-02    0.114E-01
RMM:   3    -0.233002641565E+04    0.64657E-06   -0.10554E-03  3911   0.230E-02    0.873E-02
RMM:   4    -0.233002632522E+04    0.90428E-04   -0.11448E-04  3041   0.730E-03    0.319E-02
RMM:   5    -0.233002633710E+04   -0.11881E-04   -0.50591E-05  2983   0.518E-03    0.435E-02
RMM:   6    -0.233002631559E+04    0.21504E-04   -0.33131E-05  2957   0.500E-03    0.149E-02
RMM:   7    -0.233002631683E+04   -0.12391E-05   -0.12904E-05  2910   0.386E-03
 293 F= -.23514772E+04 E0= -.23514772E+04  d E =-.205869E-03  mag=     4.0000
       N       E                     dE             d eps       ncg     rms          rms(c)
DAV:   1    -0.233002628581E+04    0.29783E-04   -0.12592E-03  5056   0.318E-02    0.118E-02
RMM:   2    -0.233002629835E+04   -0.12540E-04   -0.12330E-04  3308   0.749E-03    0.115E-02
RMM:   3    -0.233002629924E+04   -0.89165E-06   -0.15177E-05  2699   0.442E-03
 294 F= -.23514772E+04 E0= -.23514772E+04  d E =-.202697E-03  mag=     4.0000
       N       E                     dE             d eps       ncg     rms          rms(c)
DAV:   1    -0.233002537360E+04    0.92475E-03   -0.10937E-01  4512   0.282E-01    0.955E-02
RMM:   2    -0.233002641309E+04   -0.10395E-02   -0.96947E-03  6296   0.576E-02    0.120E-01
RMM:   3    -0.233002636618E+04    0.46908E-04   -0.95811E-04  3776   0.212E-02    0.759E-02
RMM:   4    -0.233002629982E+04    0.66360E-04   -0.10535E-04  3039   0.679E-03    0.304E-02
RMM:   5    -0.233002631188E+04   -0.12066E-04   -0.45078E-05  2972   0.480E-03    0.431E-02
RMM:   6    -0.233002629058E+04    0.21303E-04   -0.30504E-05  2961   0.476E-03    0.136E-02
RMM:   7    -0.233002629163E+04   -0.10510E-05   -0.11012E-05  2902   0.357E-03
 295 F= -.23514774E+04 E0= -.23514774E+04  d E =-.210220E-03  mag=     4.0000
       N       E                     dE             d eps       ncg     rms          rms(c)
DAV:   1    -0.233002614433E+04    0.14625E-03   -0.96686E-03  4664   0.840E-02    0.293E-02
RMM:   2    -0.233002623644E+04   -0.92110E-04   -0.86811E-04  5509   0.181E-02    0.343E-02
RMM:   3    -0.233002623486E+04    0.15778E-05   -0.88580E-05  2975   0.740E-03
 296 F= -.23514774E+04 E0= -.23514774E+04  d E =-.218579E-03  mag=     4.0000
       N       E                     dE             d eps       ncg     rms          rms(c)
DAV:   1    -0.233002518514E+04    0.10513E-02   -0.12249E-01  4504   0.297E-01    0.101E-01
RMM:   2    -0.233002635962E+04   -0.11745E-02   -0.10816E-02  6237   0.604E-02    0.130E-01
RMM:   3    -0.233002628774E+04    0.71883E-04   -0.10643E-03  3804   0.222E-02    0.772E-02
RMM:   4    -0.233002622114E+04    0.66595E-04   -0.12053E-04  3060   0.701E-03    0.345E-02
RMM:   5    -0.233002623407E+04   -0.12927E-04   -0.52887E-05  2980   0.498E-03    0.463E-02
RMM:   6    -0.233002621002E+04    0.24050E-04   -0.35496E-05  2978   0.497E-03    0.164E-02
RMM:   7    -0.233002621061E+04   -0.58682E-06   -0.13671E-05  2910   0.384E-03
 297 F= -.23514776E+04 E0= -.23514776E+04  d E =-.221601E-03  mag=     4.0000
       N       E                     dE             d eps       ncg     rms          rms(c)
DAV:   1    -0.233002586665E+04    0.34338E-03   -0.26946E-02  4512   0.139E-01    0.478E-02
RMM:   2    -0.233002612395E+04   -0.25730E-03   -0.23780E-03  6243   0.291E-02    0.604E-02
RMM:   3    -0.233002611116E+04    0.12786E-04   -0.23776E-04  3089   0.107E-02    0.385E-02
RMM:   4    -0.233002609470E+04    0.16464E-04   -0.26403E-05  2970   0.368E-03    0.149E-02
RMM:   5    -0.233002609699E+04   -0.22959E-05   -0.10348E-05  2863   0.232E-03
 298 F= -.23514776E+04 E0= -.23514776E+04  d E =-.223610E-03  mag=     4.0000
       N       E                     dE             d eps       ncg     rms          rms(c)
DAV:   1    -0.233002563152E+04    0.46317E-03   -0.56954E-02  4504   0.195E-01    0.649E-02
RMM:   2    -0.233002615918E+04   -0.52766E-03   -0.50013E-03  6271   0.398E-02    0.788E-02
RMM:   3    -0.233002614833E+04    0.10849E-04   -0.49728E-04  3238   0.145E-02    0.521E-02
RMM:   4    -0.233002611712E+04    0.31216E-04   -0.54087E-05  3000   0.483E-03    0.221E-02
RMM:   5    -0.233002612291E+04   -0.57939E-05   -0.21973E-05  2897   0.312E-03
 299 F= -.23514778E+04 E0= -.23514778E+04  d E =-.166716E-03  mag=     4.0000
       N       E                     dE             d eps       ncg     rms          rms(c)
DAV:   1    -0.233002451201E+04    0.16051E-02   -0.16855E-01  4504   0.335E-01    0.111E-01
RMM:   2    -0.233002606042E+04   -0.15484E-02   -0.14817E-02  6384   0.684E-02    0.131E-01
RMM:   3    -0.233002604787E+04    0.12553E-04   -0.14691E-03  3932   0.244E-02    0.913E-02
RMM:   4    -0.233002595307E+04    0.94799E-04   -0.15911E-04  3102   0.765E-03    0.375E-02
RMM:   5    -0.233002596923E+04   -0.16158E-04   -0.63727E-05  3000   0.525E-03    0.499E-02
RMM:   6    -0.233002594169E+04    0.27535E-04   -0.40769E-05  2984   0.505E-03    0.185E-02
RMM:   7    -0.233002594261E+04   -0.91476E-06   -0.16418E-05  2918   0.387E-03
 300 F= -.23514778E+04 E0= -.23514778E+04  d E =-.228864E-03  mag=     4.0000
       N       E                     dE             d eps       ncg     rms          rms(c)
DAV:   1    -0.233002533821E+04    0.60348E-03   -0.88562E-02  4504   0.244E-01    0.832E-02
RMM:   2    -0.233002616657E+04   -0.82835E-03   -0.79795E-03  6379   0.505E-02    0.932E-02
RMM:   3    -0.233002617466E+04   -0.80936E-05   -0.79973E-04  3499   0.183E-02    0.707E-02
RMM:   4    -0.233002611590E+04    0.58756E-04   -0.86531E-05  3019   0.606E-03    0.277E-02
RMM:   5    -0.233002612376E+04   -0.78560E-05   -0.32120E-05  2948   0.382E-03
 301 F= -.23514781E+04 E0= -.23514781E+04  d E =-.296622E-03  mag=     4.0000
