       N       E                     dE             d eps       ncg     rms          rms(c)
DAV:   1     0.130950601916E+05    0.13095E+05   -0.84189E+05  4536   0.145E+03
DAV:   2    -0.998451136417E+03   -0.14094E+05   -0.13461E+05  4912   0.331E+02
DAV:   3    -0.246989441908E+04   -0.14714E+04   -0.14526E+04  5480   0.115E+02
DAV:   4    -0.251627492269E+04   -0.46381E+02   -0.46127E+02  6736   0.297E+01
DAV:   5    -0.251710584168E+04   -0.83092E+00   -0.82919E+00  6224   0.351E+00    0.170E+02
RMM:   6    -0.148940882849E+04    0.10277E+04   -0.19575E+03  4452   0.383E+01    0.727E+01
RMM:   7    -0.167669851436E+04   -0.18729E+03   -0.29423E+02  5250   0.147E+01    0.560E+01
RMM:   8    -0.170726953094E+04   -0.30571E+02   -0.89081E+01  5261   0.861E+00    0.432E+01
RMM:   9    -0.177543509537E+04   -0.68166E+02   -0.55527E+01  5028   0.749E+00    0.326E+01
RMM:  10    -0.190189861453E+04   -0.12646E+03   -0.62858E+01  5392   0.770E+00    0.279E+01
RMM:  11    -0.197685235678E+04   -0.74954E+02   -0.29409E+01  5347   0.475E+00    0.184E+01
RMM:  12    -0.205934402530E+04   -0.82492E+02   -0.31946E+01  4856   0.446E+00    0.162E+01
RMM:  13    -0.213600649531E+04   -0.76662E+02   -0.38834E+01  4956   0.476E+00    0.142E+01
RMM:  14    -0.224267441546E+04   -0.10667E+03   -0.87547E+01  4476   0.684E+00    0.770E+00
RMM:  15    -0.228514946050E+04   -0.42475E+02   -0.37587E+01  4498   0.477E+00    0.485E+00
RMM:  16    -0.230304818909E+04   -0.17899E+02   -0.19665E+01  4660   0.314E+00    0.263E+00
RMM:  17    -0.230689224070E+04   -0.38441E+01   -0.41323E+00  4883   0.174E+00    0.139E+00
RMM:  18    -0.230856666175E+04   -0.16744E+01   -0.13084E+00  4917   0.724E-01    0.838E-01
RMM:  19    -0.230885385263E+04   -0.28719E+00   -0.23446E-01  5000   0.464E-01    0.397E-01
RMM:  20    -0.230896773902E+04   -0.11389E+00   -0.69074E-02  4701   0.182E-01    0.280E-01
RMM:  21    -0.230899839091E+04   -0.30652E-01   -0.16675E-02  4701   0.121E-01    0.194E-01
RMM:  22    -0.230901719380E+04   -0.18803E-01   -0.82949E-03  4661   0.692E-02    0.109E-01
RMM:  23    -0.230903093247E+04   -0.13739E-01   -0.39474E-03  4541   0.534E-02    0.706E-02
RMM:  24    -0.230904032487E+04   -0.93924E-02   -0.26712E-03  4515   0.384E-02    0.437E-02
RMM:  25    -0.230904556015E+04   -0.52353E-02   -0.16202E-03  4603   0.308E-02    0.236E-02
RMM:  26    -0.230904794511E+04   -0.23850E-02   -0.87533E-04  4314   0.204E-02    0.164E-02
RMM:  27    -0.230904861680E+04   -0.67169E-03   -0.23552E-04  4024   0.127E-02    0.979E-03
RMM:  28    -0.230904895039E+04   -0.33359E-03   -0.88606E-05  3607   0.634E-03    0.462E-03
RMM:  29    -0.230904908361E+04   -0.13322E-03   -0.27042E-05  3090   0.491E-03    0.364E-03
RMM:  30    -0.230904914852E+04   -0.64908E-04   -0.15582E-05  2918   0.321E-03    0.201E-03
RMM:  31    -0.230904917651E+04   -0.27995E-04   -0.70224E-06  2784   0.289E-03    0.108E-03
RMM:  32    -0.230904918240E+04   -0.58909E-05   -0.36098E-06  2444   0.216E-03
   1 F= -.23302815E+04 E0= -.23302785E+04  d E =-.233028E+04  mag=     6.9213
       N       E                     dE             d eps       ncg     rms          rms(c)
DAV:   1    -0.230875926319E+04    0.28991E+00   -0.21255E+01  5024   0.342E+00    0.153E+00
RMM:   2    -0.230916465321E+04   -0.40539E+00   -0.45054E+00  6625   0.920E-01    0.125E+00
RMM:   3    -0.230919212499E+04   -0.27472E-01   -0.47848E-01  6248   0.345E-01    0.993E-01
RMM:   4    -0.230918306147E+04    0.90635E-02   -0.38743E-02  6236   0.781E-02    0.522E-01
RMM:   5    -0.230917964579E+04    0.34157E-02   -0.62884E-03  5520   0.324E-02    0.389E-01
RMM:   6    -0.230917834365E+04    0.13021E-02   -0.10896E-02  6064   0.435E-02    0.387E-01
RMM:   7    -0.230917679796E+04    0.15457E-02   -0.36607E-03  5661   0.297E-02    0.102E-01
RMM:   8    -0.230917664246E+04    0.15551E-03   -0.46551E-04  3582   0.122E-02    0.551E-02
RMM:   9    -0.230917663192E+04    0.10540E-04   -0.29549E-04  3203   0.980E-03    0.568E-02
RMM:  10    -0.230917660093E+04    0.30986E-04   -0.11048E-04  2966   0.657E-03    0.159E-02
RMM:  11    -0.230917661727E+04   -0.16336E-04   -0.25484E-05  2954   0.406E-03    0.927E-03
RMM:  12    -0.230917662874E+04   -0.11479E-04   -0.93501E-06  2880   0.364E-03    0.660E-03
RMM:  13    -0.230917664093E+04   -0.12182E-04   -0.85254E-06  2856   0.309E-03    0.390E-03
RMM:  14    -0.230917665047E+04   -0.95414E-05   -0.48779E-06  2808   0.281E-03
   2 F= -.23304120E+04 E0= -.23304118E+04  d E =-.130457E+00  mag=     6.9923
       N       E                     dE             d eps       ncg     rms          rms(c)
DAV:   1    -0.230917597824E+04    0.66268E-03   -0.73787E-02  5020   0.198E-01    0.894E-02
RMM:   2    -0.230917734811E+04   -0.13699E-02   -0.15194E-02  6536   0.523E-02    0.715E-02
RMM:   3    -0.230917741319E+04   -0.65084E-04   -0.14331E-03  3247   0.197E-02    0.485E-02
RMM:   4    -0.230917739655E+04    0.16643E-04   -0.13197E-04  2994   0.561E-03    0.294E-02
RMM:   5    -0.230917738709E+04    0.94568E-05   -0.22042E-05  2842   0.260E-03
   3 F= -.23304125E+04 E0= -.23304123E+04  d E =-.131004E+00  mag=     6.9937
       N       E                     dE             d eps       ncg     rms          rms(c)
DAV:   1    -0.230905912902E+04    0.11827E+00   -0.79492E+00  4640   0.234E+00    0.964E-01
RMM:   2    -0.230921854492E+04   -0.15942E+00   -0.17959E+00  6576   0.571E-01    0.544E-01
RMM:   3    -0.230923316493E+04   -0.14620E-01   -0.21617E-01  5978   0.245E-01    0.388E-01
RMM:   4    -0.230923283760E+04    0.32733E-03   -0.16188E-02  5217   0.458E-02    0.308E-01
RMM:   5    -0.230923198481E+04    0.85279E-03   -0.17008E-03  4894   0.183E-02    0.243E-01
RMM:   6    -0.230923106699E+04    0.91782E-03   -0.46560E-03  5538   0.289E-02    0.121E-01
RMM:   7    -0.230923101437E+04    0.52619E-04   -0.69116E-04  4261   0.143E-02    0.926E-02
RMM:   8    -0.230923090041E+04    0.11396E-03   -0.15892E-04  3060   0.755E-03    0.330E-02
RMM:   9    -0.230923088188E+04    0.18530E-04   -0.12147E-04  2966   0.579E-03    0.228E-02
RMM:  10    -0.230923087742E+04    0.44582E-05   -0.31268E-05  2938   0.365E-03
   4 F= -.23304677E+04 E0= -.23304676E+04  d E =-.551927E-01  mag=     6.9968
       N       E                     dE             d eps       ncg     rms          rms(c)
DAV:   1    -0.230922370809E+04    0.71738E-02   -0.40093E-01  4792   0.527E-01    0.212E-01
RMM:   2    -0.230923176749E+04   -0.80594E-02   -0.90089E-02  6519   0.127E-01    0.119E-01
RMM:   3    -0.230923238943E+04   -0.62194E-03   -0.94853E-03  4710   0.535E-02    0.823E-02
RMM:   4    -0.230923238092E+04    0.85098E-05   -0.79238E-04  3074   0.106E-02    0.700E-02
RMM:   5    -0.230923232791E+04    0.53013E-04   -0.92493E-05  2923   0.513E-03    0.517E-02
RMM:   6    -0.230923229132E+04    0.36585E-04   -0.16894E-04  3182   0.634E-03    0.349E-02
RMM:   7    -0.230923228160E+04    0.97168E-05   -0.45766E-05  2929   0.482E-03
   5 F= -.23304695E+04 E0= -.23304694E+04  d E =-.570044E-01  mag=     6.9977
       N       E                     dE             d eps       ncg     rms          rms(c)
DAV:   1    -0.230920320542E+04    0.29086E-01   -0.46219E+00  4560   0.189E+00    0.558E-01
RMM:   2    -0.230926348379E+04   -0.60278E-01   -0.63470E-01  6509   0.401E-01    0.359E-01
RMM:   3    -0.230926936328E+04   -0.58795E-02   -0.74456E-02  5952   0.151E-01    0.305E-01
RMM:   4    -0.230926873612E+04    0.62716E-03   -0.66819E-03  5106   0.308E-02    0.188E-01
RMM:   5    -0.230926836273E+04    0.37338E-03   -0.73297E-04  4338   0.151E-02    0.119E-01
RMM:   6    -0.230926832299E+04    0.39740E-04   -0.79409E-04  4716   0.155E-02    0.112E-01
RMM:   7    -0.230926820375E+04    0.11924E-03   -0.27942E-04  4059   0.109E-02    0.404E-02
RMM:   8    -0.230926819706E+04    0.66939E-05   -0.49703E-05  3013   0.538E-03
   6 F= -.23305062E+04 E0= -.23305061E+04  d E =-.367064E-01  mag=     6.9976
       N       E                     dE             d eps       ncg     rms          rms(c)
DAV:   1    -0.230874130405E+04    0.52690E+00   -0.41522E+01  4508   0.566E+00    0.168E+00
RMM:   2    -0.230929803994E+04   -0.55674E+00   -0.58840E+00  6501   0.123E+00    0.107E+00
RMM:   3    -0.230935101984E+04   -0.52980E-01   -0.67870E-01  6045   0.448E-01    0.983E-01
RMM:   4    -0.230934392445E+04    0.70954E-02   -0.59927E-02  6030   0.917E-02    0.583E-01
RMM:   5    -0.230934035626E+04    0.35682E-02   -0.68306E-03  5239   0.424E-02    0.363E-01
RMM:   6    -0.230933897410E+04    0.13822E-02   -0.94139E-03  4885   0.521E-02    0.180E-01
RMM:   7    -0.230933888608E+04    0.88019E-04   -0.15171E-03  4803   0.294E-02    0.154E-01
RMM:   8    -0.230933867539E+04    0.21070E-03   -0.57524E-04  4466   0.122E-02    0.866E-02
RMM:   9    -0.230933861913E+04    0.56252E-04   -0.21737E-04  3025   0.879E-03    0.544E-02
RMM:  10    -0.230933859497E+04    0.24160E-04   -0.98129E-05  2931   0.587E-03    0.239E-02
RMM:  11    -0.230933859551E+04   -0.54005E-06   -0.28823E-05  2973   0.415E-03
   7 F= -.23305792E+04 E0= -.23305789E+04  d E =-.109706E+00  mag=     6.9950
       N       E                     dE             d eps       ncg     rms          rms(c)
DAV:   1    -0.230676846167E+04    0.25701E+01   -0.16531E+02  4488   0.113E+01    0.344E+00
RMM:   2    -0.230915515401E+04   -0.23867E+01   -0.25119E+01  6508   0.254E+00    0.273E+00
RMM:   3    -0.230937535369E+04   -0.22020E+00   -0.29009E+00  6050   0.913E-01    0.272E+00
RMM:   4    -0.230931808644E+04    0.57267E-01   -0.25304E-01  6285   0.194E-01    0.134E+00
RMM:   5    -0.230931106394E+04    0.70225E-02   -0.33741E-02  5710   0.826E-02    0.110E+00
RMM:   6    -0.230930447347E+04    0.65905E-02   -0.22804E-02  5724   0.668E-02    0.844E-01
RMM:   7    -0.230929701351E+04    0.74600E-02   -0.21265E-02  4870   0.738E-02    0.371E-01
RMM:   8    -0.230929763760E+04   -0.62408E-03   -0.64285E-03  5145   0.542E-02    0.409E-01
RMM:   9    -0.230929647563E+04    0.11620E-02   -0.26747E-03  5664   0.286E-02    0.215E-01
RMM:  10    -0.230929634111E+04    0.13453E-03   -0.57945E-04  4479   0.157E-02    0.838E-02
RMM:  11    -0.230929639979E+04   -0.58685E-04   -0.32553E-04  3806   0.101E-02    0.292E-02
RMM:  12    -0.230929643645E+04   -0.36659E-04   -0.90232E-05  3236   0.699E-03    0.120E-02
RMM:  13    -0.230929644685E+04   -0.10396E-04   -0.14416E-05  2926   0.434E-03    0.614E-03
RMM:  14    -0.230929645598E+04   -0.91301E-05   -0.96930E-06  2862   0.336E-03
   8 F= -.23305433E+04 E0= -.23305427E+04  d E =-.737467E-01  mag=     6.9885
       N       E                     dE             d eps       ncg     rms          rms(c)
DAV:   1    -0.230829430088E+04    0.10021E+01   -0.72447E+01  4488   0.738E+00    0.228E+00
RMM:   2    -0.230930448048E+04   -0.10102E+01   -0.10546E+01  6504   0.156E+00    0.185E+00
RMM:   3    -0.230936997788E+04   -0.65497E-01   -0.12518E+00  6138   0.637E-01    0.123E+00
RMM:   4    -0.230936269647E+04    0.72814E-02   -0.10680E-01  6059   0.126E-01    0.815E-01
RMM:   5    -0.230935857454E+04    0.41219E-02   -0.13382E-02  5644   0.547E-02    0.611E-01
RMM:   6    -0.230935490941E+04    0.36651E-02   -0.11440E-02  5396   0.533E-02    0.406E-01
RMM:   7    -0.230935344192E+04    0.14675E-02   -0.47993E-03  5662   0.406E-02    0.197E-01
RMM:   8    -0.230935358248E+04   -0.14056E-03   -0.17474E-03  5111   0.238E-02    0.207E-01
RMM:   9    -0.230935321465E+04    0.36783E-03   -0.49503E-04  4027   0.121E-02    0.863E-02
RMM:  10    -0.230935313477E+04    0.79885E-04   -0.15653E-04  3005   0.882E-03    0.281E-02
RMM:  11    -0.230935312643E+04    0.83343E-05   -0.52757E-05  2997   0.535E-03
   9 F= -.23305957E+04 E0= -.23305953E+04  d E =-.126195E+00  mag=     6.9904
       N       E                     dE             d eps       ncg     rms          rms(c)
DAV:   1    -0.230933563602E+04    0.17499E-01   -0.30061E+00  4560   0.153E+00    0.506E-01
RMM:   2    -0.230938140917E+04   -0.45773E-01   -0.47243E-01  6517   0.348E-01    0.376E-01
RMM:   3    -0.230938549069E+04   -0.40815E-02   -0.54827E-02  6072   0.131E-01    0.317E-01
RMM:   4    -0.230938456674E+04    0.92395E-03   -0.49558E-03  5231   0.278E-02    0.149E-01
RMM:   5    -0.230938432185E+04    0.24489E-03   -0.55155E-04  4237   0.141E-02    0.927E-02
RMM:   6    -0.230938432319E+04   -0.13422E-05   -0.49930E-04  4796   0.136E-02    0.988E-02
RMM:   7    -0.230938421250E+04    0.11069E-03   -0.17927E-04  3671   0.959E-03    0.216E-02
RMM:   8    -0.230938420945E+04    0.30480E-05   -0.29602E-05  2970   0.517E-03
  10 F= -.23306267E+04 E0= -.23306261E+04  d E =-.309397E-01  mag=     6.9887
       N       E                     dE             d eps       ncg     rms          rms(c)
DAV:   1    -0.230899515367E+04    0.38906E+00   -0.26983E+01  4488   0.460E+00    0.155E+00
RMM:   2    -0.230942049445E+04   -0.42534E+00   -0.43788E+00  6509   0.108E+00    0.122E+00
RMM:   3    -0.230945121634E+04   -0.30722E-01   -0.49815E-01  6173   0.393E-01    0.928E-01
RMM:   4    -0.230944373189E+04    0.74845E-02   -0.44698E-02  5966   0.825E-02    0.473E-01
RMM:   5    -0.230944225537E+04    0.14765E-02   -0.56571E-03  5392   0.388E-02    0.372E-01
RMM:   6    -0.230944123230E+04    0.10231E-02   -0.44694E-03  5728   0.348E-02    0.292E-01
RMM:   7    -0.230944052093E+04    0.71137E-03   -0.20547E-03  5116   0.278E-02    0.139E-01
RMM:   8    -0.230944043611E+04    0.84814E-04   -0.60159E-04  4333   0.166E-02    0.101E-01
RMM:   9    -0.230944034165E+04    0.94465E-04   -0.16166E-04  3655   0.787E-03    0.437E-02
RMM:  10    -0.230944031894E+04    0.22708E-04   -0.62428E-05  2947   0.636E-03    0.144E-02
RMM:  11    -0.230944031720E+04    0.17450E-05   -0.30498E-05  2963   0.447E-03
  11 F= -.23306825E+04 E0= -.23306812E+04  d E =-.867769E-01  mag=     6.9731
       N       E                     dE             d eps       ncg     rms          rms(c)
DAV:   1    -0.230934384974E+04    0.96469E-01   -0.63277E+00  4528   0.223E+00    0.737E-01
RMM:   2    -0.230944115926E+04   -0.97310E-01   -0.10088E+00  6488   0.511E-01    0.522E-01
RMM:   3    -0.230944931755E+04   -0.81583E-02   -0.11105E-01  6109   0.188E-01    0.444E-01
RMM:   4    -0.230944755415E+04    0.17634E-02   -0.10261E-02  5746   0.397E-02    0.221E-01
RMM:   5    -0.230944710334E+04    0.45081E-03   -0.12506E-03  4721   0.197E-02    0.153E-01
RMM:   6    -0.230944706003E+04    0.43309E-04   -0.10332E-03  5263   0.179E-02    0.158E-01
RMM:   7    -0.230944681159E+04    0.24844E-03   -0.44256E-04  4647   0.135E-02    0.480E-02
RMM:   8    -0.230944680682E+04    0.47745E-05   -0.10353E-04  2982   0.797E-03    0.447E-02
RMM:   9    -0.230944678930E+04    0.17514E-04   -0.29887E-05  2949   0.437E-03    0.181E-02
RMM:  10    -0.230944678561E+04    0.36932E-05   -0.14047E-05  2897   0.338E-03
  12 F= -.23306889E+04 E0= -.23306872E+04  d E =-.931989E-01  mag=     6.9623
       N       E                     dE             d eps       ncg     rms          rms(c)
DAV:   1    -0.230933833658E+04    0.10845E+00   -0.83325E+00  4496   0.239E+00    0.899E-01
RMM:   2    -0.230948296466E+04   -0.14463E+00   -0.14960E+00  6518   0.597E-01    0.671E-01
RMM:   3    -0.230949266921E+04   -0.97046E-02   -0.16208E-01  6217   0.222E-01    0.521E-01
RMM:   4    -0.230949033361E+04    0.23356E-02   -0.15039E-02  5807   0.467E-02    0.269E-01
RMM:   5    -0.230948976708E+04    0.56653E-03   -0.17840E-03  4920   0.216E-02    0.211E-01
RMM:   6    -0.230948953261E+04    0.23447E-03   -0.13078E-03  5214   0.184E-02    0.185E-01
RMM:   7    -0.230948924404E+04    0.28856E-03   -0.72664E-04  4780   0.156E-02    0.660E-02
RMM:   8    -0.230948923138E+04    0.12667E-04   -0.15956E-04  3063   0.960E-03    0.498E-02
RMM:   9    -0.230948921457E+04    0.16806E-04   -0.42253E-05  3037   0.478E-03    0.223E-02
RMM:  10    -0.230948921358E+04    0.99343E-06   -0.15810E-05  2895   0.367E-03
  13 F= -.23307315E+04 E0= -.23307289E+04  d E =-.425777E-01  mag=     6.9409
       N       E                     dE             d eps       ncg     rms          rms(c)
DAV:   1    -0.230897389468E+04    0.51532E+00   -0.29700E+01  4488   0.452E+00    0.170E+00
RMM:   2    -0.230950178509E+04   -0.52789E+00   -0.54551E+00  6519   0.116E+00    0.130E+00
RMM:   3    -0.230953388414E+04   -0.32099E-01   -0.60005E-01  6184   0.423E-01    0.976E-01
RMM:   4    -0.230952612317E+04    0.77610E-02   -0.54222E-02  6063   0.878E-02    0.562E-01
RMM:   5    -0.230952453247E+04    0.15907E-02   -0.68528E-03  5510   0.384E-02    0.495E-01
RMM:   6    -0.230952234915E+04    0.21833E-02   -0.51110E-03  5696   0.349E-02    0.300E-01
RMM:   7    -0.230952189425E+04    0.45490E-03   -0.27475E-03  5187   0.285E-02    0.204E-01
RMM:   8    -0.230952173256E+04    0.16169E-03   -0.75939E-04  4167   0.176E-02    0.102E-01
RMM:   9    -0.230952176778E+04   -0.35220E-04   -0.25475E-04  4161   0.899E-03    0.567E-02
RMM:  10    -0.230952181210E+04   -0.44320E-04   -0.79551E-05  3090   0.697E-03    0.180E-02
RMM:  11    -0.230952183952E+04   -0.27416E-04   -0.27875E-05  2945   0.479E-03    0.141E-02
RMM:  12    -0.230952184781E+04   -0.82904E-05   -0.10524E-05  2882   0.403E-03
  14 F= -.23307646E+04 E0= -.23307601E+04  d E =-.756316E-01  mag=     6.8797
       N       E                     dE             d eps       ncg     rms          rms(c)
DAV:   1    -0.230949242474E+04    0.29415E-01   -0.40228E+00  4528   0.176E+00    0.633E-01
RMM:   2    -0.230954620727E+04   -0.53783E-01   -0.56536E-01  6328   0.403E-01    0.455E-01
RMM:   3    -0.230954966359E+04   -0.34563E-02   -0.62254E-02  6028   0.156E-01    0.403E-01
RMM:   4    -0.230954829918E+04    0.13644E-02   -0.58767E-03  5682   0.343E-02    0.178E-01
RMM:   5    -0.230954794792E+04    0.35126E-03   -0.10390E-03  5066   0.195E-02    0.149E-01
RMM:   6    -0.230954793458E+04    0.13341E-04   -0.85257E-04  4819   0.161E-02    0.163E-01
RMM:   7    -0.230954775279E+04    0.18179E-03   -0.25677E-04  4184   0.107E-02    0.499E-02
RMM:   8    -0.230954777049E+04   -0.17696E-04   -0.64072E-05  2952   0.683E-03    0.429E-02
RMM:   9    -0.230954777416E+04   -0.36703E-05   -0.24885E-05  2911   0.368E-03
  15 F= -.23307913E+04 E0= -.23307860E+04  d E =-.267804E-01  mag=     6.8461
       N       E                     dE             d eps       ncg     rms          rms(c)
DAV:   1    -0.230939127935E+04    0.15649E+00   -0.12534E+01  4488   0.311E+00    0.111E+00
RMM:   2    -0.230955961355E+04   -0.16833E+00   -0.17685E+00  6320   0.717E-01    0.809E-01
RMM:   3    -0.230957064733E+04   -0.11034E-01   -0.19958E-01  6041   0.279E-01    0.762E-01
RMM:   4    -0.230956631024E+04    0.43371E-02   -0.18621E-02  6059   0.599E-02    0.330E-01
RMM:   5    -0.230956537068E+04    0.93956E-03   -0.33711E-03  5346   0.327E-02    0.366E-01
RMM:   6    -0.230956450402E+04    0.86666E-03   -0.26340E-03  5415   0.267E-02    0.235E-01
RMM:   7    -0.230956416439E+04    0.33964E-03   -0.10574E-03  4975   0.199E-02    0.122E-01
RMM:   8    -0.230956423336E+04   -0.68976E-04   -0.30617E-04  3540   0.128E-02    0.105E-01
RMM:   9    -0.230956433791E+04   -0.10455E-03   -0.10406E-04  3203   0.642E-03    0.564E-02
RMM:  10    -0.230956453823E+04   -0.20032E-03   -0.83119E-05  3187   0.570E-03    0.291E-02
RMM:  11    -0.230956468494E+04   -0.14671E-03   -0.44889E-05  3167   0.505E-03    0.104E-02
RMM:  12    -0.230956473166E+04   -0.46717E-04   -0.12306E-05  2872   0.398E-03    0.163E-02
RMM:  13    -0.230956473971E+04   -0.80476E-05   -0.46647E-06  2813   0.284E-03
  16 F= -.23308098E+04 E0= -.23308020E+04  d E =-.452168E-01  mag=     6.7442
       N       E                     dE             d eps       ncg     rms          rms(c)
DAV:   1    -0.230953964755E+04    0.25084E-01   -0.40210E+00  4544   0.177E+00    0.590E-01
RMM:   2    -0.230958713063E+04   -0.47483E-01   -0.49136E-01  6393   0.375E-01    0.514E-01
RMM:   3    -0.230958972133E+04   -0.25907E-02   -0.53422E-02  6110   0.138E-01    0.454E-01
RMM:   4    -0.230958844786E+04    0.12735E-02   -0.54645E-03  5515   0.314E-02    0.180E-01
RMM:   5    -0.230958853083E+04   -0.82977E-04   -0.94458E-04  4620   0.156E-02    0.276E-01
RMM:   6    -0.230958784045E+04    0.69038E-03   -0.79168E-04  4772   0.154E-02    0.707E-02
RMM:   7    -0.230958780924E+04    0.31203E-04   -0.39554E-04  4383   0.128E-02    0.567E-02
RMM:   8    -0.230958785991E+04   -0.50663E-04   -0.51343E-05  2945   0.635E-03    0.494E-02
RMM:   9    -0.230958787763E+04   -0.17719E-04   -0.21315E-05  2904   0.378E-03    0.363E-02
RMM:  10    -0.230958792231E+04   -0.44686E-04   -0.21094E-05  2933   0.301E-03    0.250E-02
RMM:  11    -0.230958795102E+04   -0.28711E-04   -0.13193E-05  2875   0.283E-03    0.696E-03
RMM:  12    -0.230958796122E+04   -0.10194E-04   -0.45776E-06  2745   0.236E-03    0.609E-03
RMM:  13    -0.230958796414E+04   -0.29170E-05   -0.14953E-06  2484   0.161E-03
  17 F= -.23308336E+04 E0= -.23308250E+04  d E =-.238587E-01  mag=     6.6883
       N       E                     dE             d eps       ncg     rms          rms(c)
DAV:   1    -0.230931652566E+04    0.27144E+00   -0.24735E+01  4488   0.438E+00    0.146E+00
RMM:   2    -0.230961230748E+04   -0.29578E+00   -0.30619E+00  6392   0.932E-01    0.129E+00
RMM:   3    -0.230962769288E+04   -0.15385E-01   -0.33044E-01  6175   0.344E-01    0.118E+00
RMM:   4    -0.230961956251E+04    0.81304E-02   -0.33533E-02  5990   0.771E-02    0.460E-01
RMM:   5    -0.230962022328E+04   -0.66077E-03   -0.59173E-03  5628   0.374E-02    0.791E-01
RMM:   6    -0.230961570073E+04    0.45226E-02   -0.45960E-03  5368   0.343E-02    0.228E-01
RMM:   7    -0.230961498132E+04    0.71940E-03   -0.30919E-03  4936   0.316E-02    0.128E-01
RMM:   8    -0.230961540285E+04   -0.42152E-03   -0.41812E-04  4534   0.160E-02    0.134E-01
RMM:   9    -0.230961555231E+04   -0.14946E-03   -0.16680E-04  3293   0.711E-03    0.114E-01
RMM:  10    -0.230961586993E+04   -0.31763E-03   -0.11677E-04  3243   0.641E-03    0.100E-01
RMM:  11    -0.230961617425E+04   -0.30432E-03   -0.14700E-04  3493   0.691E-03    0.580E-02
RMM:  12    -0.230961630513E+04   -0.13088E-03   -0.11370E-04  3370   0.687E-03    0.986E-03
RMM:  13    -0.230961632332E+04   -0.18193E-04   -0.16374E-05  2919   0.425E-03    0.148E-02
RMM:  14    -0.230961632974E+04   -0.64156E-05   -0.60446E-06  2786   0.249E-03
  18 F= -.23308635E+04 E0= -.23308528E+04  d E =-.536992E-01  mag=     6.5583
       N       E                     dE             d eps       ncg     rms          rms(c)
DAV:   1    -0.230958598216E+04    0.30341E-01   -0.61177E+00  4488   0.208E+00    0.703E-01
RMM:   2    -0.230964671748E+04   -0.60735E-01   -0.63087E-01  6349   0.429E-01    0.613E-01
RMM:   3    -0.230964883732E+04   -0.21198E-02   -0.63437E-02  6035   0.155E-01    0.500E-01
RMM:   4    -0.230964683628E+04    0.20010E-02   -0.67623E-03  5573   0.380E-02    0.206E-01
RMM:   5    -0.230964638994E+04    0.44634E-03   -0.14843E-03  5153   0.242E-02    0.181E-01
RMM:   6    -0.230964633927E+04    0.50672E-04   -0.10489E-03  5199   0.180E-02    0.179E-01
RMM:   7    -0.230964618949E+04    0.14978E-03   -0.46309E-04  4439   0.126E-02    0.107E-01
RMM:   8    -0.230964609490E+04    0.94594E-04   -0.12188E-04  2981   0.767E-03    0.426E-02
RMM:   9    -0.230964609763E+04   -0.27353E-05   -0.35323E-05  2919   0.464E-03
  19 F= -.23308934E+04 E0= -.23308819E+04  d E =-.298830E-01  mag=     6.5091
       N       E                     dE             d eps       ncg     rms          rms(c)
DAV:   1    -0.230953235290E+04    0.11374E+00   -0.13242E+01  4488   0.306E+00    0.103E+00
RMM:   2    -0.230966466373E+04   -0.13231E+00   -0.13743E+00  6347   0.630E-01    0.886E-01
RMM:   3    -0.230966900335E+04   -0.43396E-02   -0.13439E-01  6068   0.225E-01    0.709E-01
RMM:   4    -0.230966446075E+04    0.45426E-02   -0.14419E-02  5648   0.558E-02    0.325E-01
RMM:   5    -0.230966424882E+04    0.21193E-03   -0.35583E-03  5227   0.335E-02    0.386E-01
RMM:   6    -0.230966337443E+04    0.87439E-03   -0.26091E-03  5553   0.275E-02    0.308E-01
RMM:   7    -0.230966310705E+04    0.26738E-03   -0.12489E-03  4985   0.200E-02    0.153E-01
RMM:   8    -0.230966283438E+04    0.27267E-03   -0.45752E-04  4041   0.124E-02    0.895E-02
RMM:   9    -0.230966278859E+04    0.45789E-04   -0.93361E-05  3121   0.680E-03    0.312E-02
RMM:  10    -0.230966285908E+04   -0.70486E-04   -0.44587E-05  2960   0.549E-03    0.406E-02
RMM:  11    -0.230966292440E+04   -0.65323E-04   -0.19845E-05  2911   0.419E-03    0.364E-02
RMM:  12    -0.230966298844E+04   -0.64044E-04   -0.28392E-05  2933   0.361E-03    0.276E-02
RMM:  13    -0.230966302536E+04   -0.36912E-04   -0.31471E-05  2933   0.387E-03    0.881E-03
RMM:  14    -0.230966303320E+04   -0.78415E-05   -0.64336E-06  2852   0.301E-03
  20 F= -.23309104E+04 E0= -.23308983E+04  d E =-.469419E-01  mag=     6.4229
       N       E                     dE             d eps       ncg     rms          rms(c)
DAV:   1    -0.230961906277E+04    0.43963E-01   -0.65070E+00  4492   0.216E+00    0.731E-01
RMM:   2    -0.230968696536E+04   -0.67903E-01   -0.69449E-01  6396   0.432E-01    0.671E-01
RMM:   3    -0.230968986291E+04   -0.28975E-02   -0.72841E-02  6063   0.162E-01    0.660E-01
RMM:   4    -0.230968789252E+04    0.19704E-02   -0.75733E-03  5581   0.361E-02    0.308E-01
RMM:   5    -0.230968855499E+04   -0.66247E-03   -0.19578E-03  5199   0.217E-02    0.619E-01
RMM:   6    -0.230968718769E+04    0.13673E-02   -0.89521E-04  4577   0.152E-02    0.430E-01
RMM:   7    -0.230968679904E+04    0.38865E-03   -0.12114E-03  4497   0.174E-02    0.444E-01
RMM:   8    -0.230968601257E+04    0.78647E-03   -0.86695E-04  4620   0.145E-02    0.363E-01
RMM:   9    -0.230968488914E+04    0.11234E-02   -0.33866E-03  4507   0.246E-02    0.216E-01
RMM:  10    -0.230968470338E+04    0.18576E-03   -0.27821E-03  4570   0.261E-02    0.761E-02
RMM:  11    -0.230968575459E+04   -0.10512E-02   -0.37665E-04  4014   0.114E-02    0.420E-02
RMM:  12    -0.230968663839E+04   -0.88380E-03   -0.14822E-04  3619   0.785E-03    0.569E-02
RMM:  13    -0.230968700882E+04   -0.37043E-03   -0.25673E-04  3594   0.899E-03    0.894E-02
RMM:  14    -0.230968716708E+04   -0.15826E-03   -0.38576E-04  3709   0.964E-03    0.755E-02
RMM:  15    -0.230968766237E+04   -0.49529E-03   -0.18771E-03  4408   0.185E-02    0.630E-02
RMM:  16    -0.230968794321E+04   -0.28084E-03   -0.19524E-03  4523   0.205E-02    0.398E-02
RMM:  17    -0.230968809053E+04   -0.14732E-03   -0.82642E-04  4148   0.121E-02    0.327E-02
RMM:  18    -0.230968826455E+04   -0.17402E-03   -0.12781E-03  4376   0.148E-02    0.332E-02
RMM:  19    -0.230968832493E+04   -0.60380E-04   -0.85559E-04  3838   0.137E-02    0.179E-02
RMM:  20    -0.230968834547E+04   -0.20547E-04   -0.48151E-04  3629   0.963E-03    0.675E-03
RMM:  21    -0.230968834766E+04   -0.21870E-05   -0.65874E-05  2949   0.557E-03
  21 F= -.23309359E+04 E0= -.23309252E+04  d E =-.254668E-01  mag=     5.4414
       N       E                     dE             d eps       ncg     rms          rms(c)
DAV:   1    -0.230909085036E+04    0.59750E+00   -0.58522E+01  4488   0.652E+00    0.219E+00
RMM:   2    -0.230974453068E+04   -0.65368E+00   -0.65538E+00  6423   0.133E+00    0.237E+00
RMM:   3    -0.230974681407E+04   -0.22834E-02   -0.67000E-01  6226   0.480E-01    0.164E+00
RMM:   4    -0.230972782890E+04    0.18985E-01   -0.71211E-02  5516   0.113E-01    0.105E+00
RMM:   5    -0.230972189936E+04    0.59295E-02   -0.13658E-02  5462   0.562E-02    0.720E-01
RMM:   6    -0.230971733886E+04    0.45605E-02   -0.14448E-02  4743   0.646E-02    0.465E-01
RMM:   7    -0.230971720379E+04    0.13508E-03   -0.84038E-03  5329   0.526E-02    0.467E-01
RMM:   8    -0.230971503385E+04    0.21699E-02   -0.24391E-03  5544   0.274E-02    0.107E-01
RMM:   9    -0.230971574098E+04   -0.70714E-03   -0.55829E-04  4097   0.149E-02    0.638E-02
RMM:  10    -0.230971650612E+04   -0.76513E-03   -0.20630E-04  3893   0.955E-03    0.397E-02
RMM:  11    -0.230971718724E+04   -0.68112E-03   -0.11352E-04  3654   0.765E-03    0.295E-02
RMM:  12    -0.230971760535E+04   -0.41811E-03   -0.59840E-05  3335   0.633E-03    0.227E-02
RMM:  13    -0.230971790360E+04   -0.29826E-03   -0.56684E-05  3386   0.549E-03    0.145E-02
RMM:  14    -0.230971806537E+04   -0.16177E-03   -0.41013E-05  3194   0.539E-03    0.923E-03
RMM:  15    -0.230971810045E+04   -0.35085E-04   -0.10995E-05  2871   0.387E-03    0.577E-03
RMM:  16    -0.230971812018E+04   -0.19723E-04   -0.56279E-06  2706   0.270E-03    0.295E-03
RMM:  17    -0.230971812897E+04   -0.87880E-05   -0.28811E-06  2593   0.227E-03
  22 F= -.23309661E+04 E0= -.23309627E+04  d E =-.557125E-01  mag=     5.0894
       N       E                     dE             d eps       ncg     rms          rms(c)
DAV:   1    -0.230970545040E+04    0.12670E-01   -0.30097E+00  4592   0.138E+00    0.463E-01
RMM:   2    -0.230973274272E+04   -0.27292E-01   -0.28609E-01  6495   0.270E-01    0.358E-01
RMM:   3    -0.230973480040E+04   -0.20577E-02   -0.28975E-02  5894   0.952E-02    0.395E-01
RMM:   4    -0.230973352217E+04    0.12782E-02   -0.31727E-03  4905   0.234E-02    0.190E-01
RMM:   5    -0.230973346584E+04    0.56332E-04   -0.80342E-04  3813   0.133E-02    0.190E-01
RMM:   6    -0.230973312492E+04    0.34091E-03   -0.68192E-04  4417   0.144E-02    0.595E-02
RMM:   7    -0.230973311960E+04    0.53227E-05   -0.20006E-04  3442   0.981E-03    0.424E-02
RMM:   8    -0.230973311583E+04    0.37669E-05   -0.53992E-05  2975   0.567E-03
  23 F= -.23309813E+04 E0= -.23309790E+04  d E =-.151311E-01  mag=     5.0677
       N       E                     dE             d eps       ncg     rms          rms(c)
DAV:   1    -0.230951492825E+04    0.21819E+00   -0.27151E+01  4488   0.413E+00    0.139E+00
RMM:   2    -0.230976686362E+04   -0.25194E+00   -0.26138E+00  6476   0.822E-01    0.121E+00
RMM:   3    -0.230978199444E+04   -0.15131E-01   -0.26946E-01  6163   0.285E-01    0.119E+00
RMM:   4    -0.230977005815E+04    0.11936E-01   -0.30103E-02  6030   0.711E-02    0.615E-01
RMM:   5    -0.230976841968E+04    0.16385E-02   -0.74596E-03  5672   0.366E-02    0.513E-01
RMM:   6    -0.230976585775E+04    0.25619E-02   -0.58739E-03  5047   0.384E-02    0.174E-01
RMM:   7    -0.230976599404E+04   -0.13629E-03   -0.17986E-03  5090   0.279E-02    0.167E-01
RMM:   8    -0.230976577764E+04    0.21640E-03   -0.55540E-04  4083   0.122E-02    0.790E-02
RMM:   9    -0.230976575398E+04    0.23660E-04   -0.98326E-05  3033   0.707E-03    0.288E-02
RMM:  10    -0.230976579874E+04   -0.44750E-04   -0.41971E-05  2968   0.471E-03    0.125E-02
RMM:  11    -0.230976584297E+04   -0.44235E-04   -0.14507E-05  2927   0.377E-03    0.721E-03
RMM:  12    -0.230976586571E+04   -0.22742E-04   -0.57942E-06  2844   0.283E-03    0.531E-03
RMM:  13    -0.230976588261E+04   -0.16897E-04   -0.40015E-06  2760   0.228E-03    0.326E-03
RMM:  14    -0.230976589287E+04   -0.10263E-04   -0.27990E-06  2602   0.195E-03    0.272E-03
RMM:  15    -0.230976589716E+04   -0.42839E-05   -0.16720E-06  2506   0.160E-03
  24 F= -.23310145E+04 E0= -.23310137E+04  d E =-.483819E-01  mag=     5.0125
       N       E                     dE             d eps       ncg     rms          rms(c)
DAV:   1    -0.230874134079E+04    0.10246E+01   -0.10865E+02  4488   0.824E+00    0.283E+00
RMM:   2    -0.230982805845E+04   -0.10867E+01   -0.11002E+01  6514   0.170E+00    0.310E+00
RMM:   3    -0.230984483740E+04   -0.16779E-01   -0.11311E+00  6287   0.581E-01    0.242E+00
RMM:   4    -0.230979716332E+04    0.47674E-01   -0.12628E-01  6043   0.150E-01    0.144E+00
RMM:   5    -0.230978592366E+04    0.11240E-01   -0.33070E-02  5973   0.766E-02    0.960E-01
RMM:   6    -0.230977907923E+04    0.68444E-02   -0.19008E-02  5104   0.646E-02    0.541E-01
RMM:   7    -0.230978089143E+04   -0.18122E-02   -0.12710E-02  5785   0.607E-02    0.605E-01
RMM:   8    -0.230977755065E+04    0.33408E-02   -0.55704E-03  5936   0.349E-02    0.239E-01
RMM:   9    -0.230977742282E+04    0.12784E-03   -0.95998E-04  4561   0.184E-02    0.957E-02
RMM:  10    -0.230977751211E+04   -0.89294E-04   -0.21053E-04  3420   0.106E-02    0.377E-02
RMM:  11    -0.230977760542E+04   -0.93310E-04   -0.11999E-04  3448   0.676E-03    0.243E-02
RMM:  12    -0.230977768184E+04   -0.76422E-04   -0.28896E-05  2973   0.522E-03    0.131E-02
RMM:  13    -0.230977773810E+04   -0.56253E-04   -0.16155E-05  2915   0.366E-03    0.592E-03
RMM:  14    -0.230977776484E+04   -0.26745E-04   -0.67224E-06  2850   0.306E-03    0.428E-03
RMM:  15    -0.230977778615E+04   -0.21311E-04   -0.61244E-06  2812   0.237E-03    0.230E-03
RMM:  16    -0.230977779582E+04   -0.96712E-05   -0.37101E-06  2665   0.237E-03
  25 F= -.23310276E+04 E0= -.23310274E+04  d E =-.614581E-01  mag=     5.0002
       N       E                     dE             d eps       ncg     rms          rms(c)
DAV:   1    -0.230968439332E+04    0.93393E-01   -0.15086E+01  4488   0.275E+00    0.102E+00
RMM:   2    -0.230981650499E+04   -0.13211E+00   -0.14523E+00  6449   0.581E-01    0.550E-01
RMM:   3    -0.230982700580E+04   -0.10501E-01   -0.15509E-01  5931   0.218E-01    0.527E-01
RMM:   4    -0.230982632614E+04    0.67966E-03   -0.15626E-02  6111   0.471E-02    0.391E-01
RMM:   5    -0.230982522115E+04    0.11050E-02   -0.37206E-03  5103   0.295E-02    0.288E-01
RMM:   6    -0.230982530569E+04   -0.84539E-04   -0.25384E-03  5105   0.231E-02    0.304E-01
RMM:   7    -0.230982448488E+04    0.82081E-03   -0.12554E-03  5053   0.182E-02    0.940E-02
RMM:   8    -0.230982446759E+04    0.17287E-04   -0.28540E-04  3155   0.105E-02    0.883E-02
RMM:   9    -0.230982439209E+04    0.75496E-04   -0.11085E-04  2978   0.588E-03    0.288E-02
RMM:  10    -0.230982439369E+04   -0.15980E-05   -0.42034E-05  2945   0.397E-03
  26 F= -.23310736E+04 E0= -.23310735E+04  d E =-.460137E-01  mag=     5.0001
       N       E                     dE             d eps       ncg     rms          rms(c)
DAV:   1    -0.230926649121E+04    0.55790E+00   -0.63028E+01  4488   0.558E+00    0.204E+00
RMM:   2    -0.230982802227E+04   -0.56153E+00   -0.61712E+00  6462   0.120E+00    0.108E+00
RMM:   3    -0.230987622723E+04   -0.48205E-01   -0.67467E-01  5826   0.451E-01    0.102E+00
RMM:   4    -0.230987625896E+04   -0.31732E-04   -0.65409E-02  6299   0.949E-02    0.887E-01
RMM:   5    -0.230986979145E+04    0.64675E-02   -0.15022E-02  5470   0.566E-02    0.546E-01
RMM:   6    -0.230987040868E+04   -0.61722E-03   -0.10826E-02  5782   0.475E-02    0.578E-01
RMM:   7    -0.230986749573E+04    0.29129E-02   -0.64635E-03  5931   0.380E-02    0.251E-01
RMM:   8    -0.230986683306E+04    0.66267E-03   -0.93234E-04  4430   0.174E-02    0.114E-01
RMM:   9    -0.230986680962E+04    0.23443E-04   -0.40604E-04  3152   0.984E-03    0.898E-02
RMM:  10    -0.230986677244E+04    0.37184E-04   -0.17627E-04  3043   0.720E-03    0.294E-02
RMM:  11    -0.230986685163E+04   -0.79193E-04   -0.60383E-05  3061   0.561E-03    0.129E-02
RMM:  12    -0.230986689752E+04   -0.45889E-04   -0.18093E-05  2911   0.405E-03    0.777E-03
RMM:  13    -0.230986691989E+04   -0.22376E-04   -0.90292E-06  2860   0.340E-03    0.525E-03
RMM:  14    -0.230986693365E+04   -0.13757E-04   -0.61095E-06  2834   0.269E-03    0.320E-03
RMM:  15    -0.230986694300E+04   -0.93493E-05   -0.45672E-06  2714   0.241E-03
  27 F= -.23311151E+04 E0= -.23311151E+04  d E =-.875211E-01  mag=     5.0000
       N       E                     dE             d eps       ncg     rms          rms(c)
DAV:   1    -0.230970658417E+04    0.16035E+00   -0.16655E+01  4488   0.301E+00    0.115E+00
RMM:   2    -0.230992069226E+04   -0.21411E+00   -0.22634E+00  6438   0.697E-01    0.939E-01
RMM:   3    -0.230994419035E+04   -0.23498E-01   -0.29681E-01  6260   0.302E-01    0.963E-01
RMM:   4    -0.230993505533E+04    0.91350E-02   -0.25302E-02  6249   0.656E-02    0.359E-01
RMM:   5    -0.230993401141E+04    0.10439E-02   -0.48108E-03  5387   0.344E-02    0.328E-01
RMM:   6    -0.230993406733E+04   -0.55919E-04   -0.34120E-03  5231   0.276E-02    0.338E-01
RMM:   7    -0.230993320299E+04    0.86434E-03   -0.13822E-03  5153   0.195E-02    0.132E-01
RMM:   8    -0.230993307921E+04    0.12378E-03   -0.35655E-04  3159   0.117E-02    0.879E-02
RMM:   9    -0.230993298942E+04    0.89786E-04   -0.12973E-04  3010   0.654E-03    0.253E-02
RMM:  10    -0.230993298759E+04    0.18365E-05   -0.43850E-05  2957   0.444E-03
  28 F= -.23311795E+04 E0= -.23311795E+04  d E =-.643641E-01  mag=     5.0000
       N       E                     dE             d eps       ncg     rms          rms(c)
DAV:   1    -0.230973567771E+04    0.19731E+00   -0.16165E+01  4488   0.296E+00    0.114E+00
RMM:   2    -0.230994398409E+04   -0.20831E+00   -0.22046E+00  6430   0.689E-01    0.930E-01
RMM:   3    -0.230996724894E+04   -0.23265E-01   -0.29599E-01  6255   0.302E-01    0.939E-01
RMM:   4    -0.230995858496E+04    0.86640E-02   -0.24820E-02  6227   0.650E-02    0.352E-01
RMM:   5    -0.230995731862E+04    0.12663E-02   -0.47668E-03  5241   0.349E-02    0.266E-01
RMM:   6    -0.230995813683E+04   -0.81820E-03   -0.33733E-03  5288   0.280E-02    0.390E-01
RMM:   7    -0.230995673632E+04    0.14005E-02   -0.13979E-03  5135   0.196E-02    0.901E-02
RMM:   8    -0.230995666100E+04    0.75317E-04   -0.27537E-04  3191   0.104E-02    0.588E-02
RMM:   9    -0.230995663849E+04    0.22505E-04   -0.10630E-04  2966   0.589E-03    0.355E-02
RMM:  10    -0.230995662998E+04    0.85127E-05   -0.35513E-05  2918   0.434E-03
  29 F= -.23312016E+04 E0= -.23312016E+04  d E =-.864795E-01  mag=     5.0000
       N       E                     dE             d eps       ncg     rms          rms(c)
DAV:   1    -0.230981173542E+04    0.14490E+00   -0.17537E+01  4488   0.324E+00    0.111E+00
RMM:   2    -0.230999804810E+04   -0.18631E+00   -0.19786E+00  6391   0.708E-01    0.814E-01
RMM:   3    -0.231001560792E+04   -0.17560E-01   -0.23112E-01  6189   0.278E-01    0.882E-01
RMM:   4    -0.231000786888E+04    0.77390E-02   -0.22035E-02  6180   0.630E-02    0.332E-01
RMM:   5    -0.231000686242E+04    0.10065E-02   -0.39397E-03  4953   0.335E-02    0.257E-01
RMM:   6    -0.231000747325E+04   -0.61083E-03   -0.31014E-03  5094   0.282E-02    0.356E-01
RMM:   7    -0.231000628277E+04    0.11905E-02   -0.13191E-03  4989   0.200E-02    0.865E-02
RMM:   8    -0.231000624568E+04    0.37092E-04   -0.26778E-04  3184   0.113E-02    0.769E-02
RMM:   9    -0.231000618388E+04    0.61802E-04   -0.10041E-04  2958   0.586E-03    0.243E-02
RMM:  10    -0.231000618091E+04    0.29643E-05   -0.29383E-05  2944   0.391E-03
  30 F= -.23312499E+04 E0= -.23312499E+04  d E =-.483420E-01  mag=     4.9999
       N       E                     dE             d eps       ncg     rms          rms(c)
DAV:   1    -0.230972544117E+04    0.28074E+00   -0.27356E+01  4488   0.403E+00    0.138E+00
RMM:   2    -0.231001851625E+04   -0.29308E+00   -0.31156E+00  6374   0.890E-01    0.101E+00
RMM:   3    -0.231004766106E+04   -0.29145E-01   -0.36948E-01  6192   0.349E-01    0.115E+00
RMM:   4    -0.231003471487E+04    0.12946E-01   -0.34346E-02  6285   0.792E-02    0.427E-01
RMM:   5    -0.231003420923E+04    0.50564E-03   -0.69360E-03  5170   0.411E-02    0.461E-01
RMM:   6    -0.231003286621E+04    0.13430E-02   -0.47551E-03  5335   0.341E-02    0.324E-01
RMM:   7    -0.231003197082E+04    0.89539E-03   -0.20539E-03  4985   0.255E-02    0.938E-02
RMM:   8    -0.231003186086E+04    0.10996E-03   -0.26435E-04  3647   0.150E-02    0.396E-02
RMM:   9    -0.231003186399E+04   -0.31204E-05   -0.11261E-04  3077   0.626E-03    0.362E-02
RMM:  10    -0.231003185491E+04    0.90718E-05   -0.34929E-05  2922   0.451E-03
  31 F= -.23312742E+04 E0= -.23312742E+04  d E =-.726331E-01  mag=     4.9997
       N       E                     dE             d eps       ncg     rms          rms(c)
DAV:   1    -0.230978366325E+04    0.24820E+00   -0.24791E+01  4488   0.427E+00    0.136E+00
RMM:   2    -0.231007156132E+04   -0.28790E+00   -0.30682E+00  6229   0.936E-01    0.776E-01
RMM:   3    -0.231009670421E+04   -0.25143E-01   -0.34102E-01  5989   0.370E-01    0.816E-01
RMM:   4    -0.231009242820E+04    0.42760E-02   -0.32196E-02  6413   0.760E-02    0.497E-01
RMM:   5    -0.231009115580E+04    0.12724E-02   -0.53602E-03  5175   0.368E-02    0.434E-01
RMM:   6    -0.231008988775E+04    0.12681E-02   -0.42534E-03  5471   0.342E-02    0.280E-01
RMM:   7    -0.231008914586E+04    0.74188E-03   -0.20410E-03  5054   0.258E-02    0.105E-01
RMM:   8    -0.231008913521E+04    0.10655E-04   -0.48986E-04  3995   0.167E-02    0.107E-01
RMM:   9    -0.231008901091E+04    0.12430E-03   -0.19024E-04  3154   0.738E-03    0.397E-02
RMM:  10    -0.231008899699E+04    0.13915E-04   -0.55230E-05  2943   0.522E-03    0.169E-02
RMM:  11    -0.231008900095E+04   -0.39579E-05   -0.19036E-05  2949   0.354E-03
  32 F= -.23313315E+04 E0= -.23313314E+04  d E =-.572613E-01  mag=     4.9993
       N       E                     dE             d eps       ncg     rms          rms(c)
DAV:   1    -0.230976306996E+04    0.32593E+00   -0.28331E+01  4488   0.458E+00    0.145E+00
RMM:   2    -0.231009270726E+04   -0.32964E+00   -0.35095E+00  6221   0.101E+00    0.847E-01
RMM:   3    -0.231012219521E+04   -0.29488E-01   -0.39384E-01  5998   0.398E-01    0.909E-01
RMM:   4    -0.231011630187E+04    0.58933E-02   -0.37093E-02  6418   0.820E-02    0.522E-01
RMM:   5    -0.231011497378E+04    0.13281E-02   -0.61865E-03  5214   0.390E-02    0.469E-01
RMM:   6    -0.231011340089E+04    0.15729E-02   -0.48101E-03  5450   0.364E-02    0.296E-01
RMM:   7    -0.231011257270E+04    0.82819E-03   -0.23762E-03  5047   0.279E-02    0.114E-01
RMM:   8    -0.231011255872E+04    0.13980E-04   -0.57337E-04  4168   0.179E-02    0.115E-01
RMM:   9    -0.231011241364E+04    0.14508E-03   -0.22002E-04  3248   0.781E-03    0.422E-02
RMM:  10    -0.231011239877E+04    0.14870E-04   -0.63614E-05  2944   0.552E-03    0.182E-02
RMM:  11    -0.231011240464E+04   -0.58724E-05   -0.21089E-05  2948   0.375E-03
  33 F= -.23313551E+04 E0= -.23313550E+04  d E =-.808360E-01  mag=     4.9984
       N       E                     dE             d eps       ncg     rms          rms(c)
DAV:   1    -0.230980266656E+04    0.30973E+00   -0.28173E+01  4488   0.433E+00    0.143E+00
RMM:   2    -0.231013979110E+04   -0.33712E+00   -0.36104E+00  6344   0.987E-01    0.775E-01
RMM:   3    -0.231016776745E+04   -0.27976E-01   -0.40181E-01  6022   0.370E-01    0.729E-01
RMM:   4    -0.231016669326E+04    0.10742E-02   -0.37185E-02  6218   0.750E-02    0.556E-01
RMM:   5    -0.231016453091E+04    0.21624E-02   -0.58266E-03  5255   0.379E-02    0.395E-01
RMM:   6    -0.231016404017E+04    0.49074E-03   -0.48255E-03  5499   0.339E-02    0.345E-01
RMM:   7    -0.231016272120E+04    0.13190E-02   -0.25249E-03  5409   0.268E-02    0.109E-01
RMM:   8    -0.231016271240E+04    0.88050E-05   -0.52373E-04  3998   0.147E-02    0.101E-01
RMM:   9    -0.231016262004E+04    0.92356E-04   -0.22379E-04  3277   0.820E-03    0.600E-02
RMM:  10    -0.231016259083E+04    0.29212E-04   -0.66984E-05  2952   0.620E-03    0.189E-02
RMM:  11    -0.231016260232E+04   -0.11490E-04   -0.31349E-05  2981   0.403E-03    0.935E-03
RMM:  12    -0.231016261018E+04   -0.78540E-05   -0.76910E-06  2906   0.334E-03
  34 F= -.23314060E+04 E0= -.23314059E+04  d E =-.509836E-01  mag=     4.9974
       N       E                     dE             d eps       ncg     rms          rms(c)
DAV:   1    -0.230981454377E+04    0.34806E+00   -0.28849E+01  4488   0.438E+00    0.143E+00
RMM:   2    -0.231015797938E+04   -0.34344E+00   -0.36802E+00  6307   0.100E+00    0.767E-01
RMM:   3    -0.231018622574E+04   -0.28246E-01   -0.41148E-01  5963   0.378E-01    0.672E-01
RMM:   4    -0.231018586962E+04    0.35612E-03   -0.37857E-02  6161   0.758E-02    0.545E-01
RMM:   5    -0.231018368474E+04    0.21849E-02   -0.59111E-03  5371   0.391E-02    0.386E-01
RMM:   6    -0.231018351046E+04    0.17428E-03   -0.48686E-03  5477   0.335E-02    0.371E-01
RMM:   7    -0.231018195425E+04    0.15562E-02   -0.24948E-03  5447   0.267E-02    0.106E-01
RMM:   8    -0.231018190645E+04    0.47804E-04   -0.48635E-04  4103   0.137E-02    0.833E-02
RMM:   9    -0.231018187398E+04    0.32470E-04   -0.20211E-04  3220   0.807E-03    0.692E-02
RMM:  10    -0.231018183037E+04    0.43604E-04   -0.70611E-05  2950   0.633E-03    0.185E-02
RMM:  11    -0.231018184218E+04   -0.11804E-04   -0.32279E-05  2993   0.410E-03    0.919E-03
RMM:  12    -0.231018185064E+04   -0.84631E-05   -0.79119E-06  2899   0.344E-03
  35 F= -.23314260E+04 E0= -.23314258E+04  d E =-.709407E-01  mag=     4.9965
       N       E                     dE             d eps       ncg     rms          rms(c)
DAV:   1    -0.230983728318E+04    0.34456E+00   -0.30404E+01  4488   0.427E+00    0.149E+00
RMM:   2    -0.231020836561E+04   -0.37108E+00   -0.39303E+00  6268   0.100E+00    0.108E+00
RMM:   3    -0.231024604762E+04   -0.37682E-01   -0.44514E-01  6018   0.379E-01    0.129E+00
RMM:   4    -0.231023058043E+04    0.15467E-01   -0.43460E-02  6190   0.860E-02    0.553E-01
RMM:   5    -0.231022897938E+04    0.16011E-02   -0.84431E-03  5393   0.393E-02    0.478E-01
RMM:   6    -0.231022641824E+04    0.25611E-02   -0.57576E-03  5619   0.385E-02    0.239E-01
RMM:   7    -0.231022580884E+04    0.60940E-03   -0.27588E-03  5189   0.271E-02    0.968E-02
RMM:   8    -0.231022575607E+04    0.52770E-04   -0.37718E-04  4140   0.157E-02    0.528E-02
RMM:   9    -0.231022580857E+04   -0.52504E-04   -0.15299E-04  3189   0.738E-03    0.521E-02
RMM:  10    -0.231022579819E+04    0.10385E-04   -0.46473E-05  2944   0.509E-03    0.242E-02
RMM:  11    -0.231022583073E+04   -0.32541E-04   -0.21887E-05  2928   0.379E-03    0.895E-03
RMM:  12    -0.231022585363E+04   -0.22902E-04   -0.10680E-05  2896   0.315E-03    0.504E-03
RMM:  13    -0.231022586834E+04   -0.14711E-04   -0.55344E-06  2833   0.255E-03    0.375E-03
RMM:  14    -0.231022587800E+04   -0.96525E-05   -0.39130E-06  2742   0.229E-03
  36 F= -.23314704E+04 E0= -.23314702E+04  d E =-.444127E-01  mag=     4.9971
       N       E                     dE             d eps       ncg     rms          rms(c)
DAV:   1    -0.231001707836E+04    0.20879E+00   -0.17272E+01  4488   0.320E+00    0.111E+00
RMM:   2    -0.231022555535E+04   -0.20848E+00   -0.22107E+00  6269   0.747E-01    0.776E-01
RMM:   3    -0.231024627633E+04   -0.20721E-01   -0.24546E-01  6015   0.282E-01    0.938E-01
RMM:   4    -0.231023835014E+04    0.79262E-02   -0.24185E-02  6102   0.634E-02    0.410E-01
RMM:   5    -0.231023745313E+04    0.89701E-03   -0.45391E-03  5171   0.296E-02    0.356E-01
RMM:   6    -0.231023601530E+04    0.14378E-02   -0.32419E-03  5470   0.292E-02    0.176E-01
RMM:   7    -0.231023568858E+04    0.32672E-03   -0.14584E-03  5030   0.199E-02    0.712E-02
RMM:   8    -0.231023569722E+04   -0.86455E-05   -0.25141E-04  3489   0.121E-02    0.771E-02
RMM:   9    -0.231023564447E+04    0.52754E-04   -0.99447E-05  2982   0.646E-03    0.329E-02
RMM:  10    -0.231023564513E+04   -0.65530E-06   -0.27525E-05  2921   0.432E-03
  37 F= -.23314804E+04 E0= -.23314803E+04  d E =-.543888E-01  mag=     4.9977
       N       E                     dE             d eps       ncg     rms          rms(c)
DAV:   1    -0.230996662206E+04    0.26902E+00   -0.20400E+01  4488   0.342E+00    0.123E+00
RMM:   2    -0.231026154445E+04   -0.29492E+00   -0.30745E+00  6378   0.833E-01    0.108E+00
RMM:   3    -0.231028443775E+04   -0.22893E-01   -0.34191E-01  6081   0.314E-01    0.106E+00
RMM:   4    -0.231027456852E+04    0.98692E-02   -0.33024E-02  6093   0.706E-02    0.484E-01
RMM:   5    -0.231027331742E+04    0.12511E-02   -0.51543E-03  5116   0.291E-02    0.399E-01
RMM:   6    -0.231027137190E+04    0.19455E-02   -0.35973E-03  5288   0.296E-02    0.203E-01
RMM:   7    -0.231027127063E+04    0.10127E-03   -0.21685E-03  5290   0.241E-02    0.167E-01
RMM:   8    -0.231027101898E+04    0.25165E-03   -0.58885E-04  4188   0.137E-02    0.815E-02
RMM:   9    -0.231027097591E+04    0.43066E-04   -0.14040E-04  3074   0.728E-03    0.349E-02
RMM:  10    -0.231027099231E+04   -0.16396E-04   -0.47998E-05  2954   0.513E-03    0.131E-02
RMM:  11    -0.231027101400E+04   -0.21686E-04   -0.15327E-05  2920   0.350E-03    0.648E-03
RMM:  12    -0.231027102856E+04   -0.14567E-04   -0.64833E-06  2870   0.269E-03    0.375E-03
RMM:  13    -0.231027103714E+04   -0.85777E-05   -0.34755E-06  2736   0.219E-03
  38 F= -.23315163E+04 E0= -.23315162E+04  d E =-.358936E-01  mag=     4.9982
       N       E                     dE             d eps       ncg     rms          rms(c)
DAV:   1    -0.230953588887E+04    0.73514E+00   -0.49957E+01  4488   0.537E+00    0.195E+00
RMM:   2    -0.231027805685E+04   -0.74217E+00   -0.76948E+00  6358   0.132E+00    0.187E+00
RMM:   3    -0.231032754931E+04   -0.49492E-01   -0.87608E-01  6051   0.505E-01    0.163E+00
RMM:   4    -0.231030330348E+04    0.24246E-01   -0.79718E-02  6155   0.111E-01    0.778E-01
RMM:   5    -0.231030009919E+04    0.32043E-02   -0.12189E-02  5479   0.440E-02    0.614E-01
RMM:   6    -0.231029548775E+04    0.46114E-02   -0.79513E-03  5377   0.435E-02    0.327E-01
RMM:   7    -0.231029491869E+04    0.56906E-03   -0.53361E-03  5391   0.368E-02    0.214E-01
RMM:   8    -0.231029473591E+04    0.18278E-03   -0.14792E-03  5217   0.218E-02    0.173E-01
RMM:   9    -0.231029444698E+04    0.28893E-03   -0.43472E-04  3677   0.108E-02    0.587E-02
RMM:  10    -0.231029448175E+04   -0.34773E-04   -0.13789E-04  3036   0.776E-03    0.212E-02
RMM:  11    -0.231029452822E+04   -0.46467E-04   -0.38068E-05  2964   0.474E-03    0.108E-02
RMM:  12    -0.231029456068E+04   -0.32455E-04   -0.13823E-05  2892   0.398E-03    0.581E-03
RMM:  13    -0.231029457960E+04   -0.18920E-04   -0.82594E-06  2855   0.309E-03    0.397E-03
RMM:  14    -0.231029459090E+04   -0.11308E-04   -0.50452E-06  2823   0.267E-03    0.247E-03
RMM:  15    -0.231029459941E+04   -0.85023E-05   -0.53155E-06  2719   0.230E-03
  39 F= -.23315404E+04 E0= -.23315404E+04  d E =-.600486E-01  mag=     4.9991
       N       E                     dE             d eps       ncg     rms          rms(c)
DAV:   1    -0.230988919994E+04    0.40539E+00   -0.26143E+01  4488   0.404E+00    0.149E+00
RMM:   2    -0.231033150285E+04   -0.44230E+00   -0.46064E+00  6261   0.101E+00    0.132E+00
RMM:   3    -0.231035820615E+04   -0.26703E-01   -0.51005E-01  6028   0.398E-01    0.121E+00
RMM:   4    -0.231034539540E+04    0.12811E-01   -0.47653E-02  6207   0.853E-02    0.591E-01
RMM:   5    -0.231034347378E+04    0.19216E-02   -0.64219E-03  5191   0.337E-02    0.446E-01
RMM:   6    -0.231034110089E+04    0.23729E-02   -0.42654E-03  5454   0.318E-02    0.260E-01
RMM:   7    -0.231034075287E+04    0.34801E-03   -0.30441E-03  5393   0.287E-02    0.177E-01
RMM:   8    -0.231034050272E+04    0.25015E-03   -0.85838E-04  4692   0.165E-02    0.106E-01
RMM:   9    -0.231034038248E+04    0.12024E-03   -0.19876E-04  3267   0.811E-03    0.444E-02
RMM:  10    -0.231034037120E+04    0.11280E-04   -0.59973E-05  2954   0.596E-03    0.150E-02
RMM:  11    -0.231034037562E+04   -0.44185E-05   -0.17959E-05  2936   0.363E-03
  40 F= -.23315870E+04 E0= -.23315869E+04  d E =-.465498E-01  mag=     4.9993
       N       E                     dE             d eps       ncg     rms          rms(c)
DAV:   1    -0.230964694226E+04    0.69343E+00   -0.41054E+01  4488   0.507E+00    0.187E+00
RMM:   2    -0.231035445270E+04   -0.70751E+00   -0.73323E+00  6268   0.127E+00    0.178E+00
RMM:   3    -0.231038857691E+04   -0.34124E-01   -0.81196E-01  6007   0.501E-01    0.149E+00
RMM:   4    -0.231036952299E+04    0.19054E-01   -0.74876E-02  6202   0.107E-01    0.767E-01
RMM:   5    -0.231036627235E+04    0.32506E-02   -0.10178E-02  5333   0.413E-02    0.555E-01
RMM:   6    -0.231036257194E+04    0.37004E-02   -0.64028E-03  5416   0.387E-02    0.329E-01
RMM:   7    -0.231036178822E+04    0.78373E-03   -0.45705E-03  5350   0.351E-02    0.174E-01
RMM:   8    -0.231036176146E+04    0.26760E-04   -0.12699E-03  5136   0.204E-02    0.165E-01
RMM:   9    -0.231036147742E+04    0.28404E-03   -0.38915E-04  3713   0.103E-02    0.590E-02
RMM:  10    -0.231036146234E+04    0.15077E-04   -0.10422E-04  2982   0.718E-03    0.195E-02
RMM:  11    -0.231036147451E+04   -0.12162E-04   -0.28172E-05  2950   0.432E-03    0.922E-03
RMM:  12    -0.231036148451E+04   -0.10004E-04   -0.87563E-06  2888   0.353E-03    0.492E-03
RMM:  13    -0.231036149111E+04   -0.65981E-05   -0.48465E-06  2822   0.255E-03
  41 F= -.23316088E+04 E0= -.23316088E+04  d E =-.683878E-01  mag=     4.9996
       N       E                     dE             d eps       ncg     rms          rms(c)
DAV:   1    -0.230983465759E+04    0.52683E+00   -0.28164E+01  4488   0.440E+00    0.161E+00
RMM:   2    -0.231039448045E+04   -0.55982E+00   -0.57719E+00  6279   0.112E+00    0.156E+00
RMM:   3    -0.231043007279E+04   -0.35592E-01   -0.67430E-01  5989   0.452E-01    0.134E+00
RMM:   4    -0.231041416649E+04    0.15906E-01   -0.60207E-02  6108   0.942E-02    0.651E-01
RMM:   5    -0.231041155260E+04    0.26139E-02   -0.79719E-03  5227   0.367E-02    0.457E-01
RMM:   6    -0.231040900288E+04    0.25497E-02   -0.42828E-03  5359   0.317E-02    0.265E-01
RMM:   7    -0.231040835029E+04    0.65258E-03   -0.30476E-03  5162   0.288E-02    0.116E-01
RMM:   8    -0.231040842332E+04   -0.73026E-04   -0.72407E-04  4834   0.169E-02    0.137E-01
RMM:   9    -0.231040822984E+04    0.19348E-03   -0.27165E-04  3483   0.885E-03    0.561E-02
RMM:  10    -0.231040820084E+04    0.29001E-04   -0.67977E-05  2943   0.656E-03    0.151E-02
RMM:  11    -0.231040820251E+04   -0.16665E-05   -0.19917E-05  2937   0.382E-03
  42 F= -.23316560E+04 E0= -.23316560E+04  d E =-.472208E-01  mag=     4.9995
       N       E                     dE             d eps       ncg     rms          rms(c)
DAV:   1    -0.230964154976E+04    0.76665E+00   -0.38436E+01  4488   0.517E+00    0.189E+00
RMM:   2    -0.231041841991E+04   -0.77687E+00   -0.79800E+00  6293   0.133E+00    0.191E+00
RMM:   3    -0.231045768386E+04   -0.39264E-01   -0.91292E-01  5970   0.527E-01    0.156E+00
RMM:   4    -0.231043636236E+04    0.21322E-01   -0.81769E-02  6170   0.111E-01    0.777E-01
RMM:   5    -0.231043250956E+04    0.38528E-02   -0.11262E-02  5408   0.440E-02    0.539E-01
RMM:   6    -0.231042891039E+04    0.35992E-02   -0.61351E-03  5304   0.386E-02    0.297E-01
RMM:   7    -0.231042810849E+04    0.80190E-03   -0.40429E-03  5198   0.333E-02    0.124E-01
RMM:   8    -0.231042822261E+04   -0.11411E-03   -0.83789E-04  4956   0.188E-02    0.149E-01
RMM:   9    -0.231042800118E+04    0.22142E-03   -0.34383E-04  3756   0.988E-03    0.691E-02
RMM:  10    -0.231042796018E+04    0.41007E-04   -0.93305E-05  2976   0.736E-03    0.169E-02
RMM:  11    -0.231042796587E+04   -0.56894E-05   -0.25100E-05  2951   0.432E-03
  43 F= -.23316761E+04 E0= -.23316760E+04  d E =-.673166E-01  mag=     4.9993
       N       E                     dE             d eps       ncg     rms          rms(c)
DAV:   1    -0.230969393509E+04    0.73403E+00   -0.36884E+01  4488   0.512E+00    0.187E+00
RMM:   2    -0.231045973539E+04   -0.76580E+00   -0.78454E+00  6283   0.132E+00    0.193E+00
RMM:   3    -0.231050495410E+04   -0.45219E-01   -0.87987E-01  5969   0.521E-01    0.170E+00
RMM:   4    -0.231047486276E+04    0.30091E-01   -0.79485E-02  6173   0.113E-01    0.625E-01
RMM:   5    -0.231047278777E+04    0.20750E-02   -0.10532E-02  5520   0.443E-02    0.557E-01
RMM:   6    -0.231046969889E+04    0.30889E-02   -0.54390E-03  5619   0.355E-02    0.306E-01
RMM:   7    -0.231046878066E+04    0.91823E-03   -0.39066E-03  5101   0.326E-02    0.130E-01
RMM:   8    -0.231046888307E+04   -0.10241E-03   -0.93150E-04  4854   0.209E-02    0.148E-01
RMM:   9    -0.231046865906E+04    0.22401E-03   -0.33117E-04  3984   0.101E-02    0.703E-02
RMM:  10    -0.231046861867E+04    0.40389E-04   -0.90257E-05  2962   0.731E-03    0.181E-02
RMM:  11    -0.231046862353E+04   -0.48552E-05   -0.29093E-05  2947   0.422E-03
  44 F= -.23317165E+04 E0= -.23317164E+04  d E =-.403467E-01  mag=     4.9987
       N       E                     dE             d eps       ncg     rms          rms(c)
DAV:   1    -0.231031132482E+04    0.15729E+00   -0.78966E+00  4512   0.236E+00    0.846E-01
RMM:   2    -0.231046633178E+04   -0.15501E+00   -0.16166E+00  6246   0.595E-01    0.710E-01
RMM:   3    -0.231048152612E+04   -0.15194E-01   -0.18034E-01  5988   0.237E-01    0.833E-01
RMM:   4    -0.231047445255E+04    0.70736E-02   -0.16827E-02  6009   0.517E-02    0.268E-01
RMM:   5    -0.231047377448E+04    0.67807E-03   -0.19605E-03  4816   0.210E-02    0.191E-01
RMM:   6    -0.231047367696E+04    0.97519E-04   -0.12670E-03  5085   0.178E-02    0.185E-01
RMM:   7    -0.231047328463E+04    0.39233E-03   -0.70288E-04  5112   0.153E-02    0.570E-02
RMM:   8    -0.231047326871E+04    0.15919E-04   -0.12796E-04  3263   0.856E-03    0.440E-02
RMM:   9    -0.231047326652E+04    0.21864E-05   -0.57004E-05  2924   0.564E-03
  45 F= -.23317209E+04 E0= -.23317208E+04  d E =-.447738E-01  mag=     4.9984
       N       E                     dE             d eps       ncg     rms          rms(c)
DAV:   1    -0.231019539716E+04    0.27787E+00   -0.13837E+01  4488   0.319E+00    0.119E+00
RMM:   2    -0.231049230285E+04   -0.29691E+00   -0.30055E+00  6183   0.824E-01    0.131E+00
RMM:   3    -0.231050710270E+04   -0.14800E-01   -0.34014E-01  5979   0.333E-01    0.104E+00
RMM:   4    -0.231049571374E+04    0.11389E-01   -0.30862E-02  6025   0.721E-02    0.404E-01
RMM:   5    -0.231049485041E+04    0.86332E-03   -0.42742E-03  5534   0.294E-02    0.352E-01
RMM:   6    -0.231049329469E+04    0.15557E-02   -0.23235E-03  5165   0.245E-02    0.175E-01
RMM:   7    -0.231049304203E+04    0.25266E-03   -0.16533E-03  5410   0.229E-02    0.995E-02
RMM:   8    -0.231049303505E+04    0.69756E-05   -0.39354E-04  3789   0.126E-02    0.915E-02
RMM:   9    -0.231049294878E+04    0.86276E-04   -0.10427E-04  3036   0.702E-03    0.331E-02
RMM:  10    -0.231049294617E+04    0.26043E-05   -0.33504E-05  2917   0.497E-03
  46 F= -.23317405E+04 E0= -.23317403E+04  d E =-.195518E-01  mag=     4.9982
       N       E                     dE             d eps       ncg     rms          rms(c)
DAV:   1    -0.231044959156E+04    0.43357E-01   -0.21138E+00  4592   0.124E+00    0.458E-01
RMM:   2    -0.231049378990E+04   -0.44198E-01   -0.45274E-01  6172   0.318E-01    0.448E-01
RMM:   3    -0.231049699105E+04   -0.32011E-02   -0.50640E-02  5958   0.128E-01    0.420E-01
RMM:   4    -0.231049519781E+04    0.17932E-02   -0.47670E-03  5228   0.282E-02    0.159E-01
RMM:   5    -0.231049505356E+04    0.14426E-03   -0.62951E-04  3775   0.123E-02    0.132E-01
RMM:   6    -0.231049481511E+04    0.23845E-03   -0.38003E-04  4216   0.112E-02    0.661E-02
RMM:   7    -0.231049478751E+04    0.27599E-04   -0.25621E-04  4155   0.102E-02    0.430E-02
RMM:   8    -0.231049477865E+04    0.88635E-05   -0.57151E-05  2926   0.643E-03
  47 F= -.23317422E+04 E0= -.23317421E+04  d E =-.213210E-01  mag=     4.9982
       N       E                     dE             d eps       ncg     rms          rms(c)
DAV:   1    -0.231030502292E+04    0.18976E+00   -0.10212E+01  4488   0.288E+00    0.102E+00
RMM:   2    -0.231051003049E+04   -0.20501E+00   -0.20651E+00  6125   0.718E-01    0.114E+00
RMM:   3    -0.231051970069E+04   -0.96702E-02   -0.23457E-01  5987   0.278E-01    0.858E-01
RMM:   4    -0.231051242685E+04    0.72738E-02   -0.21373E-02  5824   0.621E-02    0.374E-01
RMM:   5    -0.231051154595E+04    0.88090E-03   -0.31375E-03  5318   0.263E-02    0.288E-01
RMM:   6    -0.231051048496E+04    0.10610E-02   -0.17450E-03  4992   0.236E-02    0.139E-01
RMM:   7    -0.231051040834E+04    0.76617E-04   -0.11637E-03  5072   0.213E-02    0.974E-02
RMM:   8    -0.231051033375E+04    0.74593E-04   -0.25410E-04  3548   0.107E-02    0.540E-02
RMM:   9    -0.231051029943E+04    0.34316E-04   -0.55100E-05  2970   0.600E-03    0.241E-02
RMM:  10    -0.231051030046E+04   -0.10289E-05   -0.24703E-05  2899   0.424E-03
  48 F= -.23317580E+04 E0= -.23317578E+04  d E =-.157417E-01  mag=     4.9985
       N       E                     dE             d eps       ncg     rms          rms(c)
DAV:   1    -0.231045580584E+04    0.54494E-01   -0.28375E+00  4512   0.152E+00    0.531E-01
RMM:   2    -0.231051165614E+04   -0.55850E-01   -0.56625E-01  6127   0.375E-01    0.554E-01
RMM:   3    -0.231051503116E+04   -0.33750E-02   -0.63804E-02  5970   0.144E-01    0.458E-01
RMM:   4    -0.231051301104E+04    0.20201E-02   -0.59607E-03  5419   0.328E-02    0.197E-01
RMM:   5    -0.231051276102E+04    0.25003E-03   -0.85849E-04  4061   0.145E-02    0.149E-01
RMM:   6    -0.231051246865E+04    0.29237E-03   -0.49378E-04  4416   0.133E-02    0.736E-02
RMM:   7    -0.231051247084E+04   -0.21973E-05   -0.35092E-04  4222   0.125E-02    0.689E-02
RMM:   8    -0.231051242052E+04    0.50320E-04   -0.86133E-05  2984   0.673E-03    0.218E-02
RMM:   9    -0.231051241702E+04    0.35029E-05   -0.15998E-05  2931   0.420E-03
  49 F= -.23317602E+04 E0= -.23317601E+04  d E =-.179508E-01  mag=     4.9987
       N       E                     dE             d eps       ncg     rms          rms(c)
DAV:   1    -0.231037236116E+04    0.14006E+00   -0.85300E+00  4488   0.261E+00    0.879E-01
RMM:   2    -0.231052352802E+04   -0.15117E+00   -0.15580E+00  6188   0.631E-01    0.807E-01
RMM:   3    -0.231053398455E+04   -0.10457E-01   -0.16771E-01  6014   0.233E-01    0.757E-01
RMM:   4    -0.231052826933E+04    0.57152E-02   -0.15487E-02  5786   0.525E-02    0.315E-01
RMM:   5    -0.231052773477E+04    0.53455E-03   -0.23111E-03  4976   0.215E-02    0.257E-01
RMM:   6    -0.231052696246E+04    0.77231E-03   -0.13811E-03  5104   0.203E-02    0.134E-01
RMM:   7    -0.231052684946E+04    0.11301E-03   -0.99901E-04  4947   0.186E-02    0.781E-02
RMM:   8    -0.231052680370E+04    0.45755E-04   -0.16797E-04  3097   0.935E-03    0.462E-02
RMM:   9    -0.231052677640E+04    0.27306E-04   -0.42018E-05  2978   0.511E-03    0.218E-02
RMM:  10    -0.231052677424E+04    0.21532E-05   -0.18674E-05  2903   0.356E-03
  50 F= -.23317744E+04 E0= -.23317743E+04  d E =-.142339E-01  mag=     4.9992
       N       E                     dE             d eps       ncg     rms          rms(c)
DAV:   1    -0.231040476720E+04    0.12201E+00   -0.70395E+00  4488   0.237E+00    0.796E-01
RMM:   2    -0.231052903272E+04   -0.12427E+00   -0.12814E+00  6171   0.570E-01    0.727E-01
RMM:   3    -0.231053784226E+04   -0.88095E-02   -0.13772E-01  6013   0.210E-01    0.693E-01
RMM:   4    -0.231053313624E+04    0.47060E-02   -0.12762E-02  5716   0.474E-02    0.290E-01
RMM:   5    -0.231053268339E+04    0.45285E-03   -0.18997E-03  4763   0.195E-02    0.233E-01
RMM:   6    -0.231053203682E+04    0.64656E-03   -0.11476E-03  4993   0.186E-02    0.121E-01
RMM:   7    -0.231053195693E+04    0.79897E-04   -0.84824E-04  4858   0.173E-02    0.798E-02
RMM:   8    -0.231053189826E+04    0.58672E-04   -0.15368E-04  3049   0.873E-03    0.387E-02
RMM:   9    -0.231053187842E+04    0.19835E-04   -0.34096E-05  2965   0.484E-03    0.193E-02
RMM:  10    -0.231053187627E+04    0.21470E-05   -0.15719E-05  2898   0.335E-03
  51 F= -.23317794E+04 E0= -.23317793E+04  d E =-.192020E-01  mag=     4.9995
       N       E                     dE             d eps       ncg     rms          rms(c)
DAV:   1    -0.231047669927E+04    0.55179E-01   -0.36710E+00  4496   0.183E+00    0.625E-01
RMM:   2    -0.231053771451E+04   -0.61015E-01   -0.64520E-01  6008   0.428E-01    0.374E-01
RMM:   3    -0.231054318004E+04   -0.54655E-02   -0.69071E-02  5885   0.164E-01    0.438E-01
RMM:   4    -0.231054149893E+04    0.16811E-02   -0.62042E-03  5699   0.355E-02    0.220E-01
RMM:   5    -0.231054124587E+04    0.25306E-03   -0.11502E-03  4858   0.181E-02    0.184E-01
RMM:   6    -0.231054091280E+04    0.33306E-03   -0.77818E-04  5004   0.157E-02    0.104E-01
RMM:   7    -0.231054082348E+04    0.89321E-04   -0.34935E-04  4619   0.128E-02    0.501E-02
RMM:   8    -0.231054080842E+04    0.15062E-04   -0.81634E-05  2976   0.724E-03    0.333E-02
RMM:   9    -0.231054079140E+04    0.17023E-04   -0.21759E-05  2927   0.420E-03    0.153E-02
RMM:  10    -0.231054078797E+04    0.34246E-05   -0.11100E-05  2890   0.324E-03
  52 F= -.23317877E+04 E0= -.23317876E+04  d E =-.831647E-02  mag=     4.9996
       N       E                     dE             d eps       ncg     rms          rms(c)
DAV:   1    -0.231053644079E+04    0.43506E-02   -0.28490E-01  4784   0.509E-01    0.173E-01
RMM:   2    -0.231054113721E+04   -0.46964E-02   -0.49767E-02  6027   0.119E-01    0.966E-02
RMM:   3    -0.231054151978E+04   -0.38258E-03   -0.52467E-03  5029   0.438E-02    0.100E-01
RMM:   4    -0.231054144832E+04    0.71466E-04   -0.46446E-04  3131   0.102E-02    0.619E-02
RMM:   5    -0.231054142814E+04    0.20174E-04   -0.81130E-05  2949   0.632E-03    0.515E-02
RMM:   6    -0.231054140250E+04    0.25643E-04   -0.63029E-05  2943   0.580E-03    0.303E-02
RMM:   7    -0.231054139615E+04    0.63500E-05   -0.30635E-05  2944   0.527E-03
  53 F= -.23317881E+04 E0= -.23317881E+04  d E =-.875915E-02  mag=     4.9996
       N       E                     dE             d eps       ncg     rms          rms(c)
DAV:   1    -0.231049970195E+04    0.41701E-01   -0.27851E+00  4496   0.159E+00    0.534E-01
RMM:   2    -0.231054684859E+04   -0.47147E-01   -0.49360E-01  6062   0.371E-01    0.330E-01
RMM:   3    -0.231055068580E+04   -0.38372E-02   -0.49583E-02  5879   0.139E-01    0.365E-01
RMM:   4    -0.231054934310E+04    0.13427E-02   -0.47019E-03  5524   0.300E-02    0.194E-01
RMM:   5    -0.231054912725E+04    0.21585E-03   -0.67907E-04  4119   0.143E-02    0.147E-01
RMM:   6    -0.231054887643E+04    0.25082E-03   -0.55045E-04  4584   0.137E-02    0.773E-02
RMM:   7    -0.231054882182E+04    0.54610E-04   -0.24200E-04  4312   0.110E-02    0.296E-02
RMM:   8    -0.231054882230E+04   -0.48193E-06   -0.42973E-05  2949   0.598E-03
  54 F= -.23317946E+04 E0= -.23317945E+04  d E =-.641742E-02  mag=     4.9994
       N       E                     dE             d eps       ncg     rms          rms(c)
DAV:   1    -0.231047021968E+04    0.78602E-01   -0.46013E+00  4488   0.205E+00    0.689E-01
RMM:   2    -0.231054858732E+04   -0.78368E-01   -0.81737E-01  6035   0.478E-01    0.457E-01
RMM:   3    -0.231055516761E+04   -0.65803E-02   -0.82860E-02  5902   0.178E-01    0.521E-01
RMM:   4    -0.231055229136E+04    0.28763E-02   -0.79008E-03  5845   0.395E-02    0.250E-01
RMM:   5    -0.231055193627E+04    0.35509E-03   -0.12445E-03  4841   0.184E-02    0.188E-01
RMM:   6    -0.231055151064E+04    0.42563E-03   -0.89746E-04  4978   0.169E-02    0.969E-02
RMM:   7    -0.231055142213E+04    0.88504E-04   -0.40322E-04  4755   0.132E-02    0.345E-02
RMM:   8    -0.231055142385E+04   -0.17193E-05   -0.68230E-05  3006   0.689E-03
  55 F= -.23317959E+04 E0= -.23317958E+04  d E =-.772744E-02  mag=     4.9991
       N       E                     dE             d eps       ncg     rms          rms(c)
DAV:   1    -0.231054311156E+04    0.83106E-02   -0.47643E-01  4560   0.660E-01    0.220E-01
RMM:   2    -0.231055110458E+04   -0.79930E-02   -0.83606E-02  6136   0.151E-01    0.128E-01
RMM:   3    -0.231055162110E+04   -0.51652E-03   -0.83829E-03  5660   0.571E-02    0.105E-01
RMM:   4    -0.231055151292E+04    0.10819E-03   -0.73755E-04  3365   0.122E-02    0.619E-02
RMM:   5    -0.231055146901E+04    0.43911E-04   -0.10084E-04  3055   0.754E-03    0.460E-02
RMM:   6    -0.231055147845E+04   -0.94439E-05   -0.88891E-05  2962   0.687E-03
  56 F= -.23317963E+04 E0= -.23317963E+04  d E =-.819663E-02  mag=     4.9991
       N       E                     dE             d eps       ncg     rms          rms(c)
DAV:   1    -0.231051538558E+04    0.36083E-01   -0.23241E+00  4492   0.144E+00    0.492E-01
RMM:   2    -0.231055855778E+04   -0.43172E-01   -0.43236E-01  6104   0.346E-01    0.466E-01
RMM:   3    -0.231056042180E+04   -0.18640E-02   -0.41775E-02  5912   0.128E-01    0.421E-01
RMM:   4    -0.231055863483E+04    0.17870E-02   -0.44503E-03  5408   0.297E-02    0.197E-01
RMM:   5    -0.231055831040E+04    0.32443E-03   -0.70211E-04  3657   0.136E-02    0.123E-01
RMM:   6    -0.231055809071E+04    0.21969E-03   -0.41536E-04  4296   0.131E-02    0.582E-02
RMM:   7    -0.231055807641E+04    0.14303E-04   -0.22963E-04  4013   0.114E-02    0.437E-02
RMM:   8    -0.231055806403E+04    0.12385E-04   -0.54817E-05  2949   0.584E-03    0.286E-02
RMM:   9    -0.231055805640E+04    0.76282E-05   -0.11251E-05  2904   0.378E-03
  57 F= -.23318020E+04 E0= -.23318019E+04  d E =-.568027E-02  mag=     4.9989
       N       E                     dE             d eps       ncg     rms          rms(c)
DAV:   1    -0.231053050875E+04    0.27555E-01   -0.16604E+00  4492   0.122E+00    0.416E-01
RMM:   2    -0.231056124267E+04   -0.30734E-01   -0.30955E-01  6092   0.293E-01    0.375E-01
RMM:   3    -0.231056273429E+04   -0.14916E-02   -0.29767E-02  5887   0.107E-01    0.347E-01
RMM:   4    -0.231056151406E+04    0.12202E-02   -0.31602E-03  5132   0.249E-02    0.166E-01
RMM:   5    -0.231056129492E+04    0.21914E-03   -0.50206E-04  3332   0.117E-02    0.105E-01
RMM:   6    -0.231056113588E+04    0.15904E-03   -0.29678E-04  4158   0.114E-02    0.497E-02
RMM:   7    -0.231056111572E+04    0.20154E-04   -0.16056E-04  3813   0.983E-03    0.191E-02
RMM:   8    -0.231056111826E+04   -0.25331E-05   -0.27799E-05  2938   0.537E-03
  58 F= -.23318043E+04 E0= -.23318042E+04  d E =-.798502E-02  mag=     4.9987
       N       E                     dE             d eps       ncg     rms          rms(c)
DAV:   1    -0.231043752751E+04    0.12359E+00   -0.66391E+00  4488   0.244E+00    0.834E-01
RMM:   2    -0.231056169740E+04   -0.12417E+00   -0.12454E+00  6078   0.592E-01    0.796E-01
RMM:   3    -0.231056722395E+04   -0.55265E-02   -0.12304E-01  5920   0.212E-01    0.713E-01
RMM:   4    -0.231056206117E+04    0.51628E-02   -0.12730E-02  5868   0.498E-02    0.322E-01
RMM:   5    -0.231056124928E+04    0.81189E-03   -0.20218E-03  5110   0.216E-02    0.211E-01
RMM:   6    -0.231056062934E+04    0.61995E-03   -0.11591E-03  4763   0.200E-02    0.103E-01
RMM:   7    -0.231056055514E+04    0.74193E-04   -0.66427E-04  4996   0.174E-02    0.600E-02
RMM:   8    -0.231056054870E+04    0.64441E-05   -0.14864E-04  3212   0.838E-03    0.630E-02
RMM:   9    -0.231056051429E+04    0.34410E-04   -0.34244E-05  2920   0.530E-03    0.200E-02
RMM:  10    -0.231056051079E+04    0.35039E-05   -0.17053E-05  2908   0.345E-03
  59 F= -.23318022E+04 E0= -.23318021E+04  d E =-.587176E-02  mag=     4.9983
       N       E                     dE             d eps       ncg     rms          rms(c)
DAV:   1    -0.231049555970E+04    0.64955E-01   -0.35930E+00  4492   0.180E+00    0.615E-01
RMM:   2    -0.231056164693E+04   -0.66087E-01   -0.67043E-01  6082   0.426E-01    0.511E-01
RMM:   3    -0.231056468740E+04   -0.30405E-02   -0.65547E-02  5967   0.159E-01    0.443E-01
RMM:   4    -0.231056274238E+04    0.19450E-02   -0.67159E-03  5718   0.356E-02    0.257E-01
RMM:   5    -0.231056222101E+04    0.52137E-03   -0.10261E-03  4265   0.161E-02    0.157E-01
RMM:   6    -0.231056187357E+04    0.34744E-03   -0.63550E-04  4569   0.157E-02    0.717E-02
RMM:   7    -0.231056183131E+04    0.42261E-04   -0.33399E-04  4443   0.134E-02    0.263E-02
RMM:   8    -0.231056183452E+04   -0.32183E-05   -0.45594E-05  2949   0.600E-03
  60 F= -.23318046E+04 E0= -.23318045E+04  d E =-.830206E-02  mag=     4.9984
       N       E                     dE             d eps       ncg     rms          rms(c)
DAV:   1    -0.231050374228E+04    0.58089E-01   -0.31940E+00  4492   0.167E+00    0.600E-01
RMM:   2    -0.231057194539E+04   -0.68203E-01   -0.65744E-01  6160   0.424E-01    0.741E-01
RMM:   3    -0.231057162071E+04    0.32468E-03   -0.66211E-02  5977   0.154E-01    0.496E-01
RMM:   4    -0.231056951934E+04    0.21014E-02   -0.69848E-03  5565   0.361E-02    0.248E-01
RMM:   5    -0.231056890229E+04    0.61705E-03   -0.10170E-03  4285   0.159E-02    0.138E-01
RMM:   6    -0.231056863369E+04    0.26860E-03   -0.50574E-04  4415   0.141E-02    0.820E-02
RMM:   7    -0.231056867142E+04   -0.37738E-04   -0.42705E-04  4013   0.135E-02    0.102E-01
RMM:   8    -0.231056857613E+04    0.95290E-04   -0.12691E-04  3133   0.732E-03    0.210E-02
RMM:   9    -0.231056857334E+04    0.27931E-05   -0.17815E-05  2924   0.459E-03
  61 F= -.23318107E+04 E0= -.23318105E+04  d E =-.601656E-02  mag=     4.9983
       N       E                     dE             d eps       ncg     rms          rms(c)
DAV:   1    -0.231052999552E+04    0.38581E-01   -0.19977E+00  4492   0.132E+00    0.476E-01
RMM:   2    -0.231057266287E+04   -0.42667E-01   -0.41156E-01  6146   0.336E-01    0.583E-01
RMM:   3    -0.231057244958E+04    0.21329E-03   -0.40987E-02  5946   0.122E-01    0.393E-01
RMM:   4    -0.231057116690E+04    0.12827E-02   -0.44123E-03  5343   0.287E-02    0.201E-01
RMM:   5    -0.231057075888E+04    0.40801E-03   -0.65998E-04  3603   0.131E-02    0.109E-01
RMM:   6    -0.231057058961E+04    0.16928E-03   -0.32213E-04  4224   0.118E-02    0.619E-02
RMM:   7    -0.231057061706E+04   -0.27452E-04   -0.25795E-04  3567   0.110E-02    0.788E-02
RMM:   8    -0.231057056220E+04    0.54856E-04   -0.78653E-05  3019   0.641E-03    0.172E-02
RMM:   9    -0.231057056154E+04    0.65938E-06   -0.11745E-05  2916   0.394E-03
  62 F= -.23318121E+04 E0= -.23318120E+04  d E =-.743768E-02  mag=     4.9982
       N       E                     dE             d eps       ncg     rms          rms(c)
DAV:   1    -0.231050137658E+04    0.69186E-01   -0.40861E+00  4488   0.181E+00    0.661E-01
RMM:   2    -0.231058290109E+04   -0.81525E-01   -0.78280E-01  6205   0.458E-01    0.824E-01
RMM:   3    -0.231058127527E+04    0.16258E-02   -0.72901E-02  6036   0.159E-01    0.538E-01
RMM:   4    -0.231057881405E+04    0.24612E-02   -0.82151E-03  5652   0.389E-02    0.282E-01
RMM:   5    -0.231057801300E+04    0.80104E-03   -0.12555E-03  4544   0.174E-02    0.155E-01
RMM:   6    -0.231057769120E+04    0.32181E-03   -0.65115E-04  4513   0.152E-02    0.991E-02
RMM:   7    -0.231057773370E+04   -0.42509E-04   -0.58147E-04  4213   0.145E-02    0.122E-01
RMM:   8    -0.231057759829E+04    0.13541E-03   -0.16361E-04  3275   0.800E-03    0.193E-02
RMM:   9    -0.231057759840E+04   -0.11211E-06   -0.24492E-05  2943   0.486E-03
  63 F= -.23318183E+04 E0= -.23318182E+04  d E =-.623263E-02  mag=     4.9982
       N       E                     dE             d eps       ncg     rms          rms(c)
DAV:   1    -0.231053968391E+04    0.37914E-01   -0.21519E+00  4492   0.131E+00    0.479E-01
RMM:   2    -0.231058237510E+04   -0.42691E-01   -0.41059E-01  6199   0.331E-01    0.589E-01
RMM:   3    -0.231058163632E+04    0.73878E-03   -0.38045E-02  5997   0.116E-01    0.391E-01
RMM:   4    -0.231058034884E+04    0.12875E-02   -0.43224E-03  5312   0.282E-02    0.207E-01
RMM:   5    -0.231057991586E+04    0.43298E-03   -0.66491E-04  3601   0.130E-02    0.112E-01
RMM:   6    -0.231057974274E+04    0.17312E-03   -0.34938E-04  4214   0.119E-02    0.707E-02
RMM:   7    -0.231057976802E+04   -0.25289E-04   -0.30411E-04  3588   0.110E-02    0.896E-02
RMM:   8    -0.231057969658E+04    0.71448E-04   -0.88136E-05  3068   0.665E-03    0.140E-02
RMM:   9    -0.231057969662E+04   -0.38359E-07   -0.14513E-05  2928   0.408E-03
  64 F= -.23318198E+04 E0= -.23318197E+04  d E =-.775083E-02  mag=     4.9982
       N       E                     dE             d eps       ncg     rms          rms(c)
DAV:   1    -0.231049721344E+04    0.82483E-01   -0.49251E+00  4488   0.195E+00    0.716E-01
RMM:   2    -0.231058927135E+04   -0.92058E-01   -0.91383E-01  6149   0.489E-01    0.722E-01
RMM:   3    -0.231059180470E+04   -0.25333E-02   -0.87435E-02  6030   0.176E-01    0.570E-01
RMM:   4    -0.231058874801E+04    0.30567E-02   -0.91953E-03  5712   0.411E-02    0.297E-01
RMM:   5    -0.231058801248E+04    0.73554E-03   -0.14144E-03  4460   0.177E-02    0.183E-01
RMM:   6    -0.231058760580E+04    0.40667E-03   -0.81358E-04  4669   0.165E-02    0.116E-01
RMM:   7    -0.231058766102E+04   -0.55211E-04   -0.80810E-04  4495   0.161E-02    0.142E-01
RMM:   8    -0.231058747063E+04    0.19038E-03   -0.19226E-04  3320   0.871E-03    0.217E-02
RMM:   9    -0.231058746658E+04    0.40545E-05   -0.34348E-05  2982   0.520E-03
  65 F= -.23318267E+04 E0= -.23318265E+04  d E =-.681869E-02  mag=     4.9983
       N       E                     dE             d eps       ncg     rms          rms(c)
DAV:   1    -0.231053782186E+04    0.49649E-01   -0.28155E+00  4488   0.147E+00    0.541E-01
RMM:   2    -0.231059035952E+04   -0.52538E-01   -0.52224E-01  6147   0.369E-01    0.539E-01
RMM:   3    -0.231059186650E+04   -0.15070E-02   -0.49635E-02  6015   0.132E-01    0.428E-01
RMM:   4    -0.231059015451E+04    0.17120E-02   -0.52541E-03  5419   0.311E-02    0.226E-01
RMM:   5    -0.231058973194E+04    0.42257E-03   -0.80741E-04  3600   0.138E-02    0.139E-01
RMM:   6    -0.231058949699E+04    0.23495E-03   -0.47395E-04  4283   0.133E-02    0.890E-02
RMM:   7    -0.231058952628E+04   -0.29288E-04   -0.46810E-04  3924   0.128E-02    0.107E-01
RMM:   8    -0.231058941828E+04    0.10800E-03   -0.11016E-04  3105   0.733E-03    0.168E-02
RMM:   9    -0.231058941585E+04    0.24346E-05   -0.20824E-05  2958   0.457E-03
  66 F= -.23318279E+04 E0= -.23318278E+04  d E =-.805607E-02  mag=     4.9984
       N       E                     dE             d eps       ncg     rms          rms(c)
DAV:   1    -0.231053634683E+04    0.53071E-01   -0.29488E+00  4488   0.148E+00    0.554E-01
RMM:   2    -0.231059504815E+04   -0.58701E-01   -0.58980E-01  6328   0.379E-01    0.515E-01
RMM:   3    -0.231059719820E+04   -0.21501E-02   -0.56201E-02  6071   0.134E-01    0.390E-01
RMM:   4    -0.231059576261E+04    0.14356E-02   -0.56631E-03  5289   0.304E-02    0.218E-01
RMM:   5    -0.231059542023E+04    0.34238E-03   -0.69153E-04  3321   0.122E-02    0.143E-01
RMM:   6    -0.231059518439E+04    0.23584E-03   -0.45260E-04  4089   0.122E-02    0.957E-02
RMM:   7    -0.231059520971E+04   -0.25322E-04   -0.51382E-04  3853   0.122E-02    0.112E-01
RMM:   8    -0.231059509237E+04    0.11734E-03   -0.12487E-04  3156   0.755E-03    0.175E-02
RMM:   9    -0.231059508915E+04    0.32193E-05   -0.22061E-05  2972   0.443E-03
  67 F= -.23318328E+04 E0= -.23318327E+04  d E =-.495463E-02  mag=     4.9984
       N       E                     dE             d eps       ncg     rms          rms(c)
DAV:   1    -0.231031618791E+04    0.27890E+00   -0.14129E+01  4488   0.324E+00    0.122E+00
RMM:   2    -0.231060223950E+04   -0.28605E+00   -0.28659E+00  6305   0.837E-01    0.119E+00
RMM:   3    -0.231061208163E+04   -0.98421E-02   -0.27710E-01  6127   0.296E-01    0.904E-01
RMM:   4    -0.231060417693E+04    0.79047E-02   -0.27532E-02  6021   0.671E-02    0.489E-01
RMM:   5    -0.231060239310E+04    0.17838E-02   -0.36565E-03  5109   0.249E-02    0.319E-01
RMM:   6    -0.231060125665E+04    0.11365E-02   -0.20685E-03  5052   0.235E-02    0.205E-01
RMM:   7    -0.231060137374E+04   -0.11709E-03   -0.25573E-03  5328   0.252E-02    0.242E-01
RMM:   8    -0.231060080381E+04    0.56993E-03   -0.62702E-04  4395   0.139E-02    0.408E-02
RMM:   9    -0.231060078867E+04    0.15135E-04   -0.11697E-04  3152   0.669E-03    0.303E-02
RMM:  10    -0.231060078524E+04    0.34346E-05   -0.30423E-05  2906   0.479E-03
  68 F= -.23318370E+04 E0= -.23318369E+04  d E =-.910956E-02  mag=     4.9983
[...]
DAV:   1    -0.231092946191E+04    0.26500E-03   -0.17422E-02  4496   0.107E-01    0.392E-02
RMM:   2    -0.231092970913E+04   -0.24722E-03   -0.24893E-03  5940   0.275E-02    0.375E-02
RMM:   3    -0.231092971618E+04   -0.70563E-05   -0.23777E-04  3010   0.105E-02    0.334E-02
RMM:   4    -0.231092970375E+04    0.12434E-04   -0.24144E-05  2942   0.338E-03    0.136E-02
RMM:   5    -0.231092970506E+04   -0.13153E-05   -0.84696E-06  2766   0.198E-03
 260 F= -.23321345E+04 E0= -.23321345E+04  d E =-.572708E-04  mag=     3.0000
       N       E                     dE             d eps       ncg     rms          rms(c)
DAV:   1    -0.231092953702E+04    0.16673E-03   -0.82577E-03  4496   0.734E-02    0.284E-02
RMM:   2    -0.231092966165E+04   -0.12463E-03   -0.11829E-03  5198   0.189E-02    0.376E-02
RMM:   3    -0.231092965527E+04    0.63785E-05   -0.12053E-04  2963   0.777E-03    0.232E-02
RMM:   4    -0.231092965054E+04    0.47318E-05   -0.12239E-05  2905   0.255E-03
 261 F= -.23321345E+04 E0= -.23321345E+04  d E =-.559146E-04  mag=     3.0000
       N       E                     dE             d eps       ncg     rms          rms(c)
DAV:   1    -0.231092941211E+04    0.24316E-03   -0.15839E-02  4496   0.100E-01    0.364E-02
RMM:   2    -0.231092962347E+04   -0.21136E-03   -0.21888E-03  5859   0.251E-02    0.258E-02
RMM:   3    -0.231092963899E+04   -0.15517E-04   -0.21186E-04  2988   0.966E-03    0.366E-02
RMM:   4    -0.231092962631E+04    0.12675E-04   -0.21843E-05  2908   0.302E-03    0.135E-02
RMM:   5    -0.231092962774E+04   -0.14313E-05   -0.62128E-06  2627   0.158E-03
 262 F= -.23321345E+04 E0= -.23321345E+04  d E =-.529211E-04  mag=     3.0000
       N       E                     dE             d eps       ncg     rms          rms(c)
DAV:   1    -0.231092933390E+04    0.29241E-03   -0.17155E-02  4492   0.104E-01    0.392E-02
RMM:   2    -0.231092958299E+04   -0.24909E-03   -0.24105E-03  5918   0.261E-02    0.482E-02
RMM:   3    -0.231092957562E+04    0.73757E-05   -0.20906E-04  3004   0.964E-03    0.345E-02
RMM:   4    -0.231092956261E+04    0.13005E-04   -0.22846E-05  2930   0.318E-03    0.148E-02
RMM:   5    -0.231092956269E+04   -0.74651E-07   -0.59486E-06  2540   0.165E-03
 263 F= -.23321345E+04 E0= -.23321345E+04  d E =-.669878E-04  mag=     3.0000
       N       E                     dE             d eps       ncg     rms          rms(c)
DAV:   1    -0.231092939211E+04    0.17050E-03   -0.12860E-02  4496   0.966E-02    0.359E-02
RMM:   2    -0.231092955862E+04   -0.16650E-03   -0.17572E-03  5866   0.236E-02    0.233E-02
RMM:   3    -0.231092957408E+04   -0.15462E-04   -0.16988E-04  2954   0.938E-03    0.342E-02
RMM:   4    -0.231092956094E+04    0.13138E-04   -0.17905E-05  2892   0.305E-03    0.122E-02
RMM:   5    -0.231092956157E+04   -0.62544E-06   -0.65011E-06  2738   0.180E-03
 264 F= -.23321346E+04 E0= -.23321346E+04  d E =-.652446E-04  mag=     3.0000
       N       E                     dE             d eps       ncg     rms          rms(c)
DAV:   1    -0.231092946998E+04    0.90961E-04   -0.43620E-03  4648   0.562E-02    0.220E-02
RMM:   2    -0.231092952999E+04   -0.60007E-04   -0.60294E-04  4346   0.141E-02    0.220E-02
RMM:   3    -0.231092953209E+04   -0.21037E-05   -0.66329E-05  2916   0.686E-03
 265 F= -.23321346E+04 E0= -.23321346E+04  d E =-.745642E-04  mag=     3.0000
       N       E                     dE             d eps       ncg     rms          rms(c)
DAV:   1    -0.231092940727E+04    0.12271E-03   -0.82784E-03  4496   0.822E-02    0.303E-02
RMM:   2    -0.231092952217E+04   -0.11490E-03   -0.12169E-03  5647   0.202E-02    0.189E-02
RMM:   3    -0.231092953209E+04   -0.99186E-05   -0.12805E-04  2935   0.876E-03    0.237E-02
RMM:   4    -0.231092952627E+04    0.58180E-05   -0.13128E-05  2906   0.262E-03
 266 F= -.23321347E+04 E0= -.23321347E+04  d E =-.389358E-04  mag=     3.0000
       N       E                     dE             d eps       ncg     rms          rms(c)
DAV:   1    -0.231092948050E+04    0.51595E-04   -0.19444E-03  4792   0.399E-02    0.192E-02
RMM:   2    -0.231092952609E+04   -0.45593E-04   -0.29634E-04  3632   0.100E-02    0.417E-02
RMM:   3    -0.231092950725E+04    0.18841E-04   -0.39278E-05  2886   0.551E-03    0.121E-02
RMM:   4    -0.231092950654E+04    0.70981E-06   -0.57845E-06  2755   0.175E-03
 267 F= -.23321347E+04 E0= -.23321347E+04  d E =-.411210E-04  mag=     3.0000
       N       E                     dE             d eps       ncg     rms          rms(c)
DAV:   1    -0.231092936385E+04    0.14340E-03   -0.86394E-03  4496   0.828E-02    0.312E-02
RMM:   2    -0.231092949378E+04   -0.12993E-03   -0.13330E-03  5643   0.203E-02    0.268E-02
RMM:   3    -0.231092950387E+04   -0.10089E-04   -0.14313E-04  2943   0.895E-03    0.292E-02
RMM:   4    -0.231092949380E+04    0.10077E-04   -0.14037E-05  2888   0.280E-03    0.109E-02
RMM:   5    -0.231092949501E+04   -0.12149E-05   -0.49361E-06  2620   0.159E-03
 268 F= -.23321347E+04 E0= -.23321347E+04  d E =-.416270E-04  mag=     3.0000
       N       E                     dE             d eps       ncg     rms          rms(c)
DAV:   1    -0.231092945576E+04    0.38036E-04   -0.11335E-03  4720   0.302E-02    0.117E-02
RMM:   2    -0.231092947373E+04   -0.17965E-04   -0.18100E-04  3406   0.780E-03    0.128E-02
RMM:   3    -0.231092947496E+04   -0.12362E-05   -0.24796E-05  2673   0.462E-03
 269 F= -.23321347E+04 E0= -.23321347E+04  d E =-.412069E-04  mag=     3.0000
       N       E                     dE             d eps       ncg     rms          rms(c)
DAV:   1    -0.231092933397E+04    0.13975E-03   -0.82719E-03  4496   0.802E-02    0.302E-02
RMM:   2    -0.231092946865E+04   -0.13468E-03   -0.13346E-03  5620   0.201E-02    0.332E-02
RMM:   3    -0.231092946956E+04   -0.90699E-06   -0.12303E-04  2954   0.824E-03    0.255E-02
RMM:   4    -0.231092946216E+04    0.74001E-05   -0.13314E-05  2904   0.265E-03
 270 F= -.23321347E+04 E0= -.23321347E+04  d E =-.395749E-04  mag=     3.0000
       N       E                     dE             d eps       ncg     rms          rms(c)
DAV:   1    -0.231092936331E+04    0.10626E-03   -0.43074E-03  4528   0.579E-02    0.237E-02
RMM:   2    -0.231092943975E+04   -0.76445E-04   -0.67881E-04  4521   0.144E-02    0.370E-02
RMM:   3    -0.231092943204E+04    0.77150E-05   -0.76856E-05  2906   0.681E-03
 271 F= -.23321347E+04 E0= -.23321347E+04  d E =-.474186E-04  mag=     3.0000
       N       E                     dE             d eps       ncg     rms          rms(c)
DAV:   1    -0.231092930255E+04    0.13720E-03   -0.87902E-03  4496   0.823E-02    0.315E-02
RMM:   2    -0.231092944485E+04   -0.14229E-03   -0.13628E-03  5800   0.209E-02    0.393E-02
RMM:   3    -0.231092944045E+04    0.44016E-05   -0.13041E-04  2947   0.835E-03    0.256E-02
RMM:   4    -0.231092943272E+04    0.77231E-05   -0.13879E-05  2914   0.272E-03
 272 F= -.23321348E+04 E0= -.23321348E+04  d E =-.360405E-04  mag=     3.0000
       N       E                     dE             d eps       ncg     rms          rms(c)
DAV:   1    -0.231092939003E+04    0.50413E-04   -0.19889E-03  4688   0.392E-02    0.214E-02
RMM:   2    -0.231092945343E+04   -0.63394E-04   -0.32523E-04  3687   0.101E-02    0.580E-02
RMM:   3    -0.231092941706E+04    0.36363E-04   -0.44401E-05  2904   0.550E-03    0.101E-02
RMM:   4    -0.231092941642E+04    0.64322E-06   -0.57088E-06  2778   0.170E-03
 273 F= -.23321348E+04 E0= -.23321348E+04  d E =-.367024E-04  mag=     3.0000
       N       E                     dE             d eps       ncg     rms          rms(c)
DAV:   1    -0.231092928794E+04    0.12912E-03   -0.96695E-03  4496   0.851E-02    0.336E-02
RMM:   2    -0.231092944769E+04   -0.15975E-03   -0.13834E-03  5747   0.207E-02    0.554E-02
RMM:   3    -0.231092942089E+04    0.26792E-04   -0.12290E-04  2974   0.828E-03    0.237E-02
RMM:   4    -0.231092941570E+04    0.51974E-05   -0.14851E-05  2916   0.270E-03
 274 F= -.23321348E+04 E0= -.23321348E+04  d E =-.414064E-04  mag=     3.0000
       N       E                     dE             d eps       ncg     rms          rms(c)
DAV:   1    -0.231092935962E+04    0.61271E-04   -0.25515E-03  4552   0.438E-02    0.196E-02
RMM:   2    -0.231092940533E+04   -0.45702E-04   -0.35812E-04  3763   0.109E-02    0.365E-02
RMM:   3    -0.231092939345E+04    0.11876E-04   -0.41823E-05  2895   0.573E-03    0.136E-02
RMM:   4    -0.231092939117E+04    0.22748E-05   -0.47220E-06  2803   0.179E-03
 275 F= -.23321348E+04 E0= -.23321348E+04  d E =-.386694E-04  mag=     3.0000
       N       E                     dE             d eps       ncg     rms          rms(c)
DAV:   1    -0.231092926705E+04    0.12640E-03   -0.87428E-03  4496   0.792E-02    0.310E-02
RMM:   2    -0.231092940526E+04   -0.13821E-03   -0.12140E-03  5580   0.194E-02    0.505E-02
RMM:   3    -0.231092938281E+04    0.22445E-04   -0.10384E-04  2957   0.770E-03    0.209E-02
RMM:   4    -0.231092937927E+04    0.35462E-05   -0.13142E-05  2890   0.258E-03
 276 F= -.23321349E+04 E0= -.23321349E+04  d E =-.406786E-04  mag=     3.0000
       N       E                     dE             d eps       ncg     rms          rms(c)
DAV:   1    -0.231092928087E+04    0.10195E-03   -0.48732E-03  4496   0.590E-02    0.233E-02
RMM:   2    -0.231092935291E+04   -0.72043E-04   -0.65212E-04  4451   0.145E-02    0.344E-02
RMM:   3    -0.231092934628E+04    0.66287E-05   -0.68454E-05  2902   0.678E-03
 277 F= -.23321349E+04 E0= -.23321349E+04  d E =-.469273E-04  mag=     3.0000
       N       E                     dE             d eps       ncg     rms          rms(c)
DAV:   1    -0.231092922047E+04    0.13244E-03   -0.87779E-03  4496   0.822E-02    0.323E-02
RMM:   2    -0.231092934705E+04   -0.12658E-03   -0.11663E-03  5694   0.204E-02    0.432E-02
RMM:   3    -0.231092933611E+04    0.10939E-04   -0.11280E-04  2949   0.822E-03    0.240E-02
RMM:   4    -0.231092932921E+04    0.68980E-05   -0.12467E-05  2928   0.271E-03
 278 F= -.23321349E+04 E0= -.23321349E+04  d E =-.367867E-04  mag=     3.0000
       N       E                     dE             d eps       ncg     rms          rms(c)
DAV:   1    -0.231092928361E+04    0.52499E-04   -0.18580E-03  4720   0.379E-02    0.230E-02
RMM:   2    -0.231092935905E+04   -0.75445E-04   -0.29324E-04  3643   0.974E-03    0.711E-02
RMM:   3    -0.231092930353E+04    0.55528E-04   -0.42270E-05  2911   0.510E-03    0.913E-03
RMM:   4    -0.231092930320E+04    0.32372E-06   -0.56798E-06  2755   0.169E-03
 279 F= -.23321349E+04 E0= -.23321349E+04  d E =-.358382E-04  mag=     3.0000
       N       E                     dE             d eps       ncg     rms          rms(c)
DAV:   1    -0.231092919638E+04    0.10715E-03   -0.80158E-03  4480   0.740E-02    0.288E-02
RMM:   2    -0.231092931576E+04   -0.11938E-03   -0.11132E-03  5421   0.184E-02    0.400E-02
RMM:   3    -0.231092930596E+04    0.97924E-05   -0.97804E-05  2953   0.756E-03
 280 F= -.23321349E+04 E0= -.23321349E+04  d E =-.355160E-04  mag=     3.0000
       N       E                     dE             d eps       ncg     rms          rms(c)
DAV:   1    -0.231092928648E+04    0.29273E-04   -0.46634E-04  4936   0.183E-02    0.126E-02
RMM:   2    -0.231092930081E+04   -0.14330E-04   -0.78947E-05  3110   0.507E-03    0.285E-02
RMM:   3    -0.231092929253E+04    0.82835E-05   -0.12126E-05  2489   0.329E-03
 281 F= -.23321349E+04 E0= -.23321349E+04  d E =-.300533E-04  mag=     3.0000
       N       E                     dE             d eps       ncg     rms          rms(c)
DAV:   1    -0.231092926928E+04    0.31535E-04   -0.45415E-03  4496   0.647E-02    0.263E-02
RMM:   2    -0.231092933267E+04   -0.63396E-04   -0.56650E-04  4990   0.149E-02    0.351E-02
RMM:   3    -0.231092932479E+04    0.78806E-05   -0.60962E-05  2920   0.707E-03
 282 F= -.23321350E+04 E0= -.23321350E+04  d E =-.431422E-04  mag=     3.0000
       N       E                     dE             d eps       ncg     rms          rms(c)
DAV:   1    -0.231092930218E+04    0.30496E-04   -0.13040E-03  4824   0.347E-02    0.166E-02
RMM:   2    -0.231092932223E+04   -0.20047E-04   -0.17055E-04  3445   0.842E-03    0.244E-02
RMM:   3    -0.231092931826E+04    0.39656E-05   -0.23625E-05  2843   0.459E-03
 283 F= -.23321350E+04 E0= -.23321350E+04  d E =-.424997E-04  mag=     3.0000
       N       E                     dE             d eps       ncg     rms          rms(c)
DAV:   1    -0.231092927331E+04    0.48914E-04   -0.24530E-03  4456   0.467E-02    0.189E-02
RMM:   2    -0.231092931422E+04   -0.40912E-04   -0.35886E-04  3937   0.117E-02    0.294E-02
RMM:   3    -0.231092930773E+04    0.64903E-05   -0.40054E-05  2871   0.616E-03
 284 F= -.23321350E+04 E0= -.23321350E+04  d E =-.173187E-04  mag=     3.0000
       N       E                     dE             d eps       ncg     rms          rms(c)
DAV:   1    -0.231092928801E+04    0.26216E-04   -0.48379E-04  5008   0.208E-02    0.101E-02
RMM:   2    -0.231092929592E+04   -0.79163E-05   -0.73459E-05  3058   0.553E-03
 285 F= -.23321350E+04 E0= -.23321350E+04  d E =-.179836E-04  mag=     3.0000
       N       E                     dE             d eps       ncg     rms          rms(c)
DAV:   1    -0.231092924725E+04    0.40759E-04   -0.21883E-03  4416   0.442E-02    0.166E-02
RMM:   2    -0.231092927994E+04   -0.32694E-04   -0.31176E-04  3832   0.115E-02    0.195E-02
RMM:   3    -0.231092928090E+04   -0.95315E-06   -0.39708E-05  2713   0.630E-03
 286 F= -.23321350E+04 E0= -.23321350E+04  d E =-.191757E-04  mag=     3.0000
       N       E                     dE             d eps       ncg     rms          rms(c)
DAV:   1    -0.231092924640E+04    0.33539E-04   -0.87546E-04  4472   0.281E-02    0.120E-02
RMM:   2    -0.231092925963E+04   -0.13223E-04   -0.12704E-04  3342   0.731E-03    0.150E-02
RMM:   3    -0.231092925878E+04    0.84323E-06   -0.15923E-05  2641   0.418E-03
 287 F= -.23321350E+04 E0= -.23321350E+04  d E =-.189071E-04  mag=     3.0000
       N       E                     dE             d eps       ncg     rms          rms(c)
DAV:   1    -0.231092921325E+04    0.46376E-04   -0.27228E-03  4496   0.495E-02    0.182E-02
RMM:   2    -0.231092925132E+04   -0.38067E-04   -0.39708E-04  4100   0.122E-02    0.134E-02
RMM:   3    -0.231092925373E+04   -0.24130E-05   -0.41355E-05  2876   0.635E-03
 288 F= -.23321350E+04 E0= -.23321350E+04  d E =-.185121E-04  mag=     3.0000
       N       E                     dE             d eps       ncg     rms          rms(c)
DAV:   1    -0.231092923961E+04    0.11713E-04   -0.31635E-04  5008   0.172E-02    0.875E-03
RMM:   2    -0.231092924584E+04   -0.62386E-05   -0.52032E-05  2898   0.472E-03
 289 F= -.23321350E+04 E0= -.23321350E+04  d E =-.187274E-04  mag=     3.0000
       N       E                     dE             d eps       ncg     rms          rms(c)
DAV:   1    -0.231092920449E+04    0.35114E-04   -0.22147E-03  4384   0.427E-02    0.167E-02
RMM:   2    -0.231092924797E+04   -0.43481E-04   -0.37224E-04  3829   0.116E-02    0.290E-02
RMM:   3    -0.231092924147E+04    0.65012E-05   -0.41315E-05  2729   0.615E-03
 290 F= -.23321351E+04 E0= -.23321351E+04  d E =-.165428E-04  mag=     3.0000
       N       E                     dE             d eps       ncg     rms          rms(c)
DAV:   1    -0.231092922730E+04    0.20675E-04   -0.35244E-04  4688   0.172E-02    0.961E-03
RMM:   2    -0.231092923685E+04   -0.95516E-05   -0.66484E-05  3053   0.499E-03
 291 F= -.23321351E+04 E0= -.23321351E+04  d E =-.203578E-04  mag=     3.0000
       N       E                     dE             d eps       ncg     rms          rms(c)
DAV:   1    -0.231092919941E+04    0.27883E-04   -0.20900E-03  4432   0.426E-02    0.159E-02
RMM:   2    -0.231092923223E+04   -0.32820E-04   -0.32156E-04  3790   0.114E-02    0.174E-02
RMM:   3    -0.231092923332E+04   -0.10827E-05   -0.38056E-05  2765   0.615E-03
 292 F= -.23321351E+04 E0= -.23321351E+04  d E =-.187016E-04  mag=     3.0000
       N       E                     dE             d eps       ncg     rms          rms(c)
DAV:   1    -0.231092920057E+04    0.31663E-04   -0.11566E-03  4368   0.316E-02    0.133E-02
RMM:   2    -0.231092921826E+04   -0.17686E-04   -0.17755E-04  3402   0.839E-03    0.138E-02
RMM:   3    -0.231092921893E+04   -0.67588E-06   -0.21047E-05  2798   0.476E-03
 293 F= -.23321351E+04 E0= -.23321351E+04  d E =-.209897E-04  mag=     3.0000
       N       E                     dE             d eps       ncg     rms          rms(c)
DAV:   1    -0.231092917796E+04    0.40300E-04   -0.25051E-03  4456   0.463E-02    0.182E-02
RMM:   2    -0.231092922260E+04   -0.44640E-04   -0.38345E-04  3857   0.117E-02    0.299E-02
RMM:   3    -0.231092921561E+04    0.69916E-05   -0.39002E-05  2869   0.604E-03
 294 F= -.23321351E+04 E0= -.23321351E+04  d E =-.178280E-04  mag=     3.0000
       N       E                     dE             d eps       ncg     rms          rms(c)
DAV:   1    -0.231092918705E+04    0.35546E-04   -0.10680E-03  4552   0.303E-02    0.152E-02
RMM:   2    -0.231092921401E+04   -0.26962E-04   -0.17468E-04  3389   0.799E-03    0.343E-02
RMM:   3    -0.231092920219E+04    0.11824E-04   -0.22028E-05  2766   0.450E-03    0.811E-03
RMM:   4    -0.231092920235E+04   -0.15722E-06   -0.34692E-06  2437   0.152E-03
 295 F= -.23321351E+04 E0= -.23321351E+04  d E =-.184406E-04  mag=     3.0000
       N       E                     dE             d eps       ncg     rms          rms(c)
DAV:   1    -0.231092917787E+04    0.24323E-04   -0.13042E-03  4256   0.314E-02    0.115E-02
RMM:   2    -0.231092919856E+04   -0.20693E-04   -0.20900E-04  3469   0.825E-03    0.111E-02
RMM:   3    -0.231092920062E+04   -0.20599E-05   -0.25964E-05  2460   0.478E-03
 296 F= -.23321351E+04 E0= -.23321351E+04  d E =-.151945E-04  mag=     3.0000
       N       E                     dE             d eps       ncg     rms          rms(c)
DAV:   1    -0.231092916532E+04    0.33243E-04   -0.14880E-03  4288   0.335E-02    0.132E-02
RMM:   2    -0.231092919148E+04   -0.26168E-04   -0.24687E-04  3474   0.884E-03    0.184E-02
RMM:   3    -0.231092918974E+04    0.17397E-05   -0.23786E-05  2649   0.479E-03
 297 F= -.23321351E+04 E0= -.23321351E+04  d E =-.223290E-04  mag=     3.0000
       N       E                     dE             d eps       ncg     rms          rms(c)
DAV:   1    -0.231092905381E+04    0.13767E-03   -0.59496E-03  4496   0.667E-02    0.253E-02
RMM:   2    -0.231092915073E+04   -0.96916E-04   -0.96871E-04  5012   0.172E-02    0.273E-02
RMM:   3    -0.231092915251E+04   -0.17853E-05   -0.96906E-05  2927   0.754E-03
 298 F= -.23321351E+04 E0= -.23321351E+04  d E =-.211023E-04  mag=     3.0000
       N       E                     dE             d eps       ncg     rms          rms(c)
DAV:   1    -0.231092914847E+04    0.22537E-05   -0.16360E-03  4240   0.352E-02    0.158E-02
RMM:   2    -0.231092917869E+04   -0.30221E-04   -0.24979E-04  3567   0.896E-03    0.274E-02
RMM:   3    -0.231092917332E+04    0.53782E-05   -0.34696E-05  2578   0.546E-03
 299 F= -.23321351E+04 E0= -.23321351E+04  d E =-.232780E-04  mag=     3.0000
       N       E                     dE             d eps       ncg     rms          rms(c)
DAV:   1    -0.231092913817E+04    0.40524E-04   -0.17769E-03  4200   0.353E-02    0.136E-02
RMM:   2    -0.231092916766E+04   -0.29491E-04   -0.29462E-04  3571   0.927E-03    0.138E-02
RMM:   3    -0.231092916841E+04   -0.74421E-06   -0.34941E-05  2466   0.530E-03
 300 F= -.23321351E+04 E0= -.23321351E+04  d E =-.172790E-04  mag=     3.0000
       N       E                     dE             d eps       ncg     rms          rms(c)
DAV:   1    -0.231092907578E+04    0.91879E-04   -0.44660E-03  4464   0.560E-02    0.222E-02
RMM:   2    -0.231092916049E+04   -0.84705E-04   -0.78157E-04  4358   0.147E-02    0.343E-02
RMM:   3    -0.231092915302E+04    0.74647E-05   -0.73426E-05  2906   0.677E-03
 301 F= -.23321352E+04 E0= -.23321352E+04  d E =-.370526E-04  mag=     3.0000
