       N       E                     dE             d eps       ncg     rms          rms(c)
DAV:   1     0.131951449019E+05    0.13195E+05   -0.84418E+05  4528   0.145E+03
DAV:   2    -0.999185367309E+03   -0.14194E+05   -0.13571E+05  4976   0.332E+02
DAV:   3    -0.248026471456E+04   -0.14811E+04   -0.14627E+04  5552   0.116E+02
DAV:   4    -0.252660679687E+04   -0.46342E+02   -0.46108E+02  6720   0.297E+01
DAV:   5    -0.252744947461E+04   -0.84268E+00   -0.84069E+00  6160   0.344E+00    0.170E+02
RMM:   6    -0.149879411090E+04    0.10287E+04   -0.19765E+03  4471   0.384E+01    0.735E+01
RMM:   7    -0.167385182916E+04   -0.17506E+03   -0.30843E+02  5375   0.149E+01    0.585E+01
RMM:   8    -0.171612174802E+04   -0.42270E+02   -0.83881E+01  5375   0.877E+00    0.489E+01
RMM:   9    -0.175696872402E+04   -0.40847E+02   -0.60959E+01  5151   0.728E+00    0.341E+01
RMM:  10    -0.191618622357E+04   -0.15922E+03   -0.76043E+01  5326   0.854E+00    0.264E+01
RMM:  11    -0.198527812669E+04   -0.69092E+02   -0.29413E+01  5243   0.514E+00    0.233E+01
RMM:  12    -0.205194925093E+04   -0.66671E+02   -0.25813E+01  5171   0.415E+00    0.176E+01
RMM:  13    -0.211208552029E+04   -0.60136E+02   -0.24257E+01  5367   0.401E+00    0.169E+01
RMM:  14    -0.220361409397E+04   -0.91529E+02   -0.59094E+01  4985   0.569E+00    0.104E+01
RMM:  15    -0.228640026003E+04   -0.82786E+02   -0.75417E+01  4486   0.601E+00    0.647E+00
RMM:  16    -0.230613550628E+04   -0.19735E+02   -0.20042E+01  4654   0.375E+00    0.476E+00
RMM:  17    -0.231318503553E+04   -0.70495E+01   -0.80075E+00  4884   0.188E+00    0.260E+00
RMM:  18    -0.231565435865E+04   -0.24693E+01   -0.18861E+00  4987   0.114E+00    0.237E+00
RMM:  19    -0.231627743862E+04   -0.62308E+00   -0.42000E-01  5353   0.448E-01    0.251E+00
RMM:  20    -0.231631408832E+04   -0.36650E-01   -0.47869E-02  5906   0.165E-01    0.239E+00
RMM:  21    -0.231689492572E+04   -0.58084E+00   -0.23100E-01  4518   0.317E-01    0.131E+00
RMM:  22    -0.231715539531E+04   -0.26047E+00   -0.10567E-01  4673   0.229E-01    0.806E-01
RMM:  23    -0.231728750444E+04   -0.13211E+00   -0.65844E-02  4723   0.156E-01    0.481E-01
RMM:  24    -0.231736926637E+04   -0.81762E-01   -0.46087E-02  4572   0.127E-01    0.247E-01
RMM:  25    -0.231741375865E+04   -0.44492E-01   -0.15463E-02  4798   0.848E-02    0.202E-01
RMM:  26    -0.231743910448E+04   -0.25346E-01   -0.53752E-03  4682   0.507E-02    0.145E-01
RMM:  27    -0.231746219719E+04   -0.23093E-01   -0.46012E-03  4506   0.483E-02    0.892E-02
RMM:  28    -0.231747150252E+04   -0.93053E-02   -0.16118E-03  4818   0.345E-02    0.598E-02
RMM:  29    -0.231747955006E+04   -0.80475E-02   -0.14296E-03  4218   0.229E-02    0.513E-02
RMM:  30    -0.231748322285E+04   -0.36728E-02   -0.62505E-04  4251   0.203E-02    0.380E-02
RMM:  31    -0.231748562911E+04   -0.24063E-02   -0.62450E-04  4113   0.140E-02    0.258E-02
RMM:  32    -0.231748629744E+04   -0.66833E-03   -0.21667E-04  3884   0.129E-02    0.146E-02
RMM:  33    -0.231748639082E+04   -0.93374E-04   -0.57760E-05  3484   0.536E-03    0.134E-02
RMM:  34    -0.231748644423E+04   -0.53419E-04   -0.25767E-05  3088   0.539E-03    0.115E-02
RMM:  35    -0.231748645734E+04   -0.13109E-04   -0.23320E-05  3026   0.366E-03    0.869E-03
RMM:  36    -0.231748646228E+04   -0.49397E-05   -0.13335E-05  2903   0.325E-03
   1 F= -.23387093E+04 E0= -.23387078E+04  d E =-.233871E+04  mag=     2.9997
       N       E                     dE             d eps       ncg     rms          rms(c)
DAV:   1    -0.231665481867E+04    0.83164E+00   -0.46694E+01  4864   0.675E+00    0.225E+00
RMM:   2    -0.231785878250E+04   -0.12040E+01   -0.12925E+01  6682   0.205E+00    0.178E+00
RMM:   3    -0.231794721418E+04   -0.88432E-01   -0.11998E+00  6412   0.664E-01    0.231E+00
RMM:   4    -0.231789837062E+04    0.48844E-01   -0.10989E-01  6668   0.158E-01    0.103E+00
RMM:   5    -0.231789212237E+04    0.62483E-02   -0.17843E-02  6268   0.657E-02    0.945E-01
RMM:   6    -0.231788446115E+04    0.76612E-02   -0.10641E-02  6223   0.591E-02    0.551E-01
RMM:   7    -0.231788543000E+04   -0.96885E-03   -0.13038E-02  6242   0.584E-02    0.742E-01
RMM:   8    -0.231788046335E+04    0.49666E-02   -0.67454E-03  6303   0.466E-02    0.274E-01
RMM:   9    -0.231788045404E+04    0.93093E-05   -0.18865E-03  5820   0.240E-02    0.194E-01
RMM:  10    -0.231788071426E+04   -0.26022E-03   -0.86980E-04  4814   0.179E-02    0.154E-01
RMM:  11    -0.231788107582E+04   -0.36155E-03   -0.58543E-04  4460   0.135E-02    0.110E-01
RMM:  12    -0.231788133598E+04   -0.26016E-03   -0.34292E-04  4156   0.104E-02    0.607E-02
RMM:  13    -0.231788155643E+04   -0.22045E-03   -0.21981E-04  3881   0.898E-03    0.242E-02
RMM:  14    -0.231788169605E+04   -0.13961E-03   -0.59881E-05  3135   0.588E-03    0.119E-02
RMM:  15    -0.231788179552E+04   -0.99474E-04   -0.27567E-05  3017   0.410E-03    0.809E-03
RMM:  16    -0.231788185261E+04   -0.57087E-04   -0.99091E-06  2850   0.344E-03    0.558E-03
RMM:  17    -0.231788188661E+04   -0.34000E-04   -0.79463E-06  2786   0.277E-03    0.309E-03
RMM:  18    -0.231788189857E+04   -0.11957E-04   -0.38325E-06  2626   0.242E-03    0.181E-03
RMM:  19    -0.231788190331E+04   -0.47385E-05   -0.24519E-06  2526   0.173E-03
   2 F= -.23391097E+04 E0= -.23391097E+04  d E =-.400361E+00  mag=     3.0000
       N       E                     dE             d eps       ncg     rms          rms(c)
DAV:   1    -0.231765787777E+04    0.22402E+00   -0.10372E+01  4688   0.323E+00    0.103E+00
RMM:   2    -0.231790901973E+04   -0.25114E+00   -0.27035E+00  6606   0.932E-01    0.714E-01
RMM:   3    -0.231793142318E+04   -0.22403E-01   -0.29272E-01  6300   0.368E-01    0.877E-01
RMM:   4    -0.231792493078E+04    0.64924E-02   -0.24699E-02  6589   0.720E-02    0.409E-01
RMM:   5    -0.231792355738E+04    0.13734E-02   -0.30875E-03  5809   0.282E-02    0.376E-01
RMM:   6    -0.231792194348E+04    0.16139E-02   -0.29739E-03  6130   0.316E-02    0.230E-01
RMM:   7    -0.231792158473E+04    0.35874E-03   -0.31982E-03  5945   0.293E-02    0.198E-01
RMM:   8    -0.231792129603E+04    0.28870E-03   -0.71380E-04  5066   0.179E-02    0.107E-01
RMM:   9    -0.231792120569E+04    0.90343E-04   -0.20040E-04  4352   0.876E-03    0.500E-02
RMM:  10    -0.231792118392E+04    0.21766E-04   -0.81948E-05  3085   0.693E-03    0.221E-02
RMM:  11    -0.231792119860E+04   -0.14675E-04   -0.57012E-05  3322   0.485E-03    0.100E-02
RMM:  12    -0.231792121004E+04   -0.11446E-04   -0.60805E-06  2892   0.318E-03    0.656E-03
RMM:  13    -0.231792122160E+04   -0.11554E-04   -0.40837E-06  2777   0.188E-03    0.428E-03
RMM:  14    -0.231792123151E+04   -0.99079E-05   -0.22594E-06  2686   0.187E-03
   3 F= -.23391517E+04 E0= -.23391517E+04  d E =-.442372E+00  mag=     3.0000
       N       E                     dE             d eps       ncg     rms          rms(c)
DAV:   1    -0.231779121914E+04    0.13000E+00   -0.37722E+01  4560   0.593E+00    0.172E+00
RMM:   2    -0.231810856749E+04   -0.31735E+00   -0.33613E+00  6406   0.125E+00    0.142E+00
RMM:   3    -0.231812582652E+04   -0.17259E-01   -0.34017E-01  6186   0.439E-01    0.159E+00
RMM:   4    -0.231810041512E+04    0.25411E-01   -0.35383E-02  6476   0.119E-01    0.596E-01
RMM:   5    -0.231809872530E+04    0.16898E-02   -0.12861E-02  6143   0.638E-02    0.575E-01
RMM:   6    -0.231809442698E+04    0.42983E-02   -0.96708E-03  5938   0.587E-02    0.283E-01
RMM:   7    -0.231809369851E+04    0.72847E-03   -0.34661E-03  5982   0.399E-02    0.195E-01
RMM:   8    -0.231809350741E+04    0.19110E-03   -0.86694E-04  5574   0.191E-02    0.139E-01
RMM:   9    -0.231809328695E+04    0.22047E-03   -0.22677E-04  4684   0.102E-02    0.426E-02
RMM:  10    -0.231809326467E+04    0.22276E-04   -0.11533E-04  3855   0.728E-03    0.186E-02
RMM:  11    -0.231809326282E+04    0.18461E-05   -0.36743E-05  3182   0.602E-03
   4 F= -.23393287E+04 E0= -.23393287E+04  d E =-.176993E+00  mag=     3.0000
       N       E                     dE             d eps       ncg     rms          rms(c)
DAV:   1    -0.231805472609E+04    0.38539E-01   -0.67707E+00  4656   0.248E+00    0.730E-01
RMM:   2    -0.231811068599E+04   -0.55960E-01   -0.59251E-01  6393   0.522E-01    0.598E-01
RMM:   3    -0.231811341417E+04   -0.27282E-02   -0.56736E-02  6140   0.177E-01    0.654E-01
RMM:   4    -0.231810915418E+04    0.42600E-02   -0.63011E-03  6204   0.495E-02    0.250E-01
RMM:   5    -0.231810890788E+04    0.24631E-03   -0.22964E-03  5857   0.274E-02    0.251E-01
RMM:   6    -0.231810805340E+04    0.85447E-03   -0.17613E-03  5661   0.250E-02    0.114E-01
RMM:   7    -0.231810798290E+04    0.70505E-04   -0.58318E-04  5436   0.171E-02    0.974E-02
RMM:   8    -0.231810790114E+04    0.81757E-04   -0.16571E-04  3782   0.859E-03    0.475E-02
RMM:   9    -0.231810787627E+04    0.24871E-04   -0.37433E-05  3239   0.558E-03    0.155E-02
RMM:  10    -0.231810787287E+04    0.33939E-05   -0.21589E-05  2965   0.391E-03
   5 F= -.23393454E+04 E0= -.23393454E+04  d E =-.193669E+00  mag=     3.0000
       N       E                     dE             d eps       ncg     rms          rms(c)
DAV:   1    -0.231793091974E+04    0.17696E+00   -0.42617E+01  4504   0.591E+00    0.159E+00
RMM:   2    -0.231825889904E+04   -0.32798E+00   -0.32207E+00  6455   0.126E+00    0.192E+00
RMM:   3    -0.231825292003E+04    0.59790E-02   -0.29942E-01  6345   0.402E-01    0.137E+00
RMM:   4    -0.231823239084E+04    0.20529E-01   -0.30522E-02  6267   0.108E-01    0.483E-01
RMM:   5    -0.231823225121E+04    0.13962E-03   -0.11156E-02  6186   0.624E-02    0.587E-01
RMM:   6    -0.231822771620E+04    0.45350E-02   -0.81587E-03  5869   0.562E-02    0.197E-01
RMM:   7    -0.231822739090E+04    0.32529E-03   -0.22339E-03  5755   0.336E-02    0.943E-02
RMM:   8    -0.231822736187E+04    0.29034E-04   -0.34980E-04  4848   0.133E-02    0.864E-02
RMM:   9    -0.231822729086E+04    0.71008E-04   -0.12859E-04  3659   0.891E-03    0.457E-02
RMM:  10    -0.231822725451E+04    0.36349E-04   -0.62830E-05  3390   0.636E-03    0.171E-02
RMM:  11    -0.231822724708E+04    0.74292E-05   -0.30178E-05  3125   0.506E-03
   6 F= -.23394671E+04 E0= -.23394671E+04  d E =-.121711E+00  mag=     3.0000
       N       E                     dE             d eps       ncg     rms          rms(c)
DAV:   1    -0.231820722842E+04    0.20026E-01   -0.35789E+00  4720   0.178E+00    0.461E-01
RMM:   2    -0.231823427447E+04   -0.27046E-01   -0.26569E-01  6444   0.369E-01    0.559E-01
RMM:   3    -0.231823373281E+04    0.54165E-03   -0.23653E-02  6249   0.114E-01    0.390E-01
RMM:   4    -0.231823210466E+04    0.16282E-02   -0.26173E-03  5881   0.316E-02    0.144E-01
RMM:   5    -0.231823209228E+04    0.12373E-04   -0.88470E-04  5530   0.178E-02    0.173E-01
RMM:   6    -0.231823167824E+04    0.41405E-03   -0.68576E-04  5356   0.166E-02    0.574E-02
RMM:   7    -0.231823168318E+04   -0.49397E-05   -0.21629E-04  4440   0.117E-02    0.574E-02
RMM:   8    -0.231823164703E+04    0.36152E-04   -0.57036E-05  3173   0.564E-03    0.225E-02
RMM:   9    -0.231823164074E+04    0.62861E-05   -0.11736E-05  2947   0.382E-03
   7 F= -.23394738E+04 E0= -.23394738E+04  d E =-.128461E+00  mag=     3.0000
       N       E                     dE             d eps       ncg     rms          rms(c)
DAV:   1    -0.231808769653E+04    0.14395E+00   -0.17651E+01  4528   0.402E+00    0.115E+00
RMM:   2    -0.231829193833E+04   -0.20424E+00   -0.20394E+00  6563   0.952E-01    0.129E+00
RMM:   3    -0.231829405753E+04   -0.21192E-02   -0.18116E-01  6395   0.293E-01    0.954E-01
RMM:   4    -0.231828540906E+04    0.86485E-02   -0.19837E-02  6256   0.759E-02    0.403E-01
RMM:   5    -0.231828467694E+04    0.73212E-03   -0.42352E-03  6001   0.383E-02    0.369E-01
RMM:   6    -0.231828288423E+04    0.17927E-02   -0.36172E-03  5828   0.393E-02    0.176E-01
RMM:   7    -0.231828278630E+04    0.97923E-04   -0.14317E-03  5709   0.266E-02    0.149E-01
RMM:   8    -0.231828255868E+04    0.22762E-03   -0.39826E-04  4505   0.125E-02    0.646E-02
RMM:   9    -0.231828251121E+04    0.47469E-04   -0.61811E-05  3167   0.696E-03    0.244E-02
RMM:  10    -0.231828250974E+04    0.14728E-05   -0.33734E-05  3158   0.457E-03
   8 F= -.23395904E+04 E0= -.23395904E+04  d E =-.116610E+00  mag=     3.0000
       N       E                     dE             d eps       ncg     rms          rms(c)
DAV:   1    -0.231684694283E+04    0.14356E+01   -0.11058E+02  4504   0.101E+01    0.302E+00
RMM:   2    -0.231831674004E+04   -0.14698E+01   -0.14189E+01  6554   0.258E+00    0.411E+00
RMM:   3    -0.231819480386E+04    0.12194E+00   -0.12164E+00  6144   0.783E-01    0.207E+00
RMM:   4    -0.231816769349E+04    0.27110E-01   -0.14886E-01  6398   0.201E-01    0.139E+00
RMM:   5    -0.231815039183E+04    0.17302E-01   -0.29959E-02  6203   0.103E-01    0.847E-01
RMM:   6    -0.231814026903E+04    0.10123E-01   -0.22768E-02  5785   0.955E-02    0.501E-01
RMM:   7    -0.231813951674E+04    0.75229E-03   -0.10202E-02  5783   0.706E-02    0.392E-01
RMM:   8    -0.231813797029E+04    0.15464E-02   -0.30763E-03  5998   0.337E-02    0.168E-01
RMM:   9    -0.231813771366E+04    0.25663E-03   -0.52473E-04  5024   0.171E-02    0.652E-02
RMM:  10    -0.231813780141E+04   -0.87742E-04   -0.21948E-04  4556   0.962E-03    0.274E-02
RMM:  11    -0.231813787920E+04   -0.77797E-04   -0.67171E-05  3671   0.732E-03    0.137E-02
RMM:  12    -0.231813793587E+04   -0.56671E-04   -0.34122E-05  3247   0.545E-03    0.863E-03
RMM:  13    -0.231813798091E+04   -0.45033E-04   -0.21333E-05  2979   0.501E-03    0.486E-03
RMM:  14    -0.231813800388E+04   -0.22972E-04   -0.16719E-05  2898   0.424E-03    0.307E-03
RMM:  15    -0.231813801103E+04   -0.71511E-05   -0.82995E-06  2844   0.389E-03
   9 F= -.23394545E+04 E0= -.23394545E+04  d E =0.193804E-01  mag=     3.0000
       N       E                     dE             d eps       ncg     rms          rms(c)
DAV:   1    -0.231771887513E+04    0.41913E+00   -0.49845E+01  4504   0.671E+00    0.191E+00
RMM:   2    -0.231826854496E+04   -0.54967E+00   -0.57028E+00  6571   0.156E+00    0.155E+00
RMM:   3    -0.231832032641E+04   -0.51781E-01   -0.55647E-01  6397   0.495E-01    0.185E+00
RMM:   4    -0.231828620330E+04    0.34123E-01   -0.53829E-02  6514   0.134E-01    0.654E-01
RMM:   5    -0.231828358545E+04    0.26178E-02   -0.11814E-02  6187   0.571E-02    0.566E-01
RMM:   6    -0.231828056031E+04    0.30251E-02   -0.95790E-03  5913   0.565E-02    0.362E-01
RMM:   7    -0.231827901322E+04    0.15471E-02   -0.41828E-03  6011   0.425E-02    0.142E-01
RMM:   8    -0.231827884598E+04    0.16724E-03   -0.73609E-04  5522   0.197E-02    0.112E-01
RMM:   9    -0.231827873792E+04    0.10806E-03   -0.28184E-04  4344   0.112E-02    0.680E-02
RMM:  10    -0.231827865101E+04    0.86915E-04   -0.11678E-04  3805   0.769E-03    0.260E-02
RMM:  11    -0.231827863937E+04    0.11634E-04   -0.53618E-05  3131   0.595E-03    0.115E-02
RMM:  12    -0.231827864168E+04   -0.23042E-05   -0.17460E-05  2933   0.471E-03
  10 F= -.23395968E+04 E0= -.23395968E+04  d E =-.122946E+00  mag=     3.0000
       N       E                     dE             d eps       ncg     rms          rms(c)
DAV:   1    -0.231827203798E+04    0.66014E-02   -0.11448E+00  4576   0.102E+00    0.286E-01
RMM:   2    -0.231828452140E+04   -0.12483E-01   -0.12719E-01  6572   0.233E-01    0.277E-01
RMM:   3    -0.231828520834E+04   -0.68694E-03   -0.11137E-02  6059   0.718E-02    0.263E-01
RMM:   4    -0.231828452158E+04    0.68677E-03   -0.12210E-03  5465   0.199E-02    0.956E-02
RMM:   5    -0.231828448171E+04    0.39863E-04   -0.28824E-04  4491   0.104E-02    0.922E-02
RMM:   6    -0.231828437316E+04    0.10855E-03   -0.22974E-04  4536   0.106E-02    0.418E-02
RMM:   7    -0.231828435741E+04    0.15753E-04   -0.90653E-05  4021   0.767E-03    0.243E-02
RMM:   8    -0.231828435315E+04    0.42613E-05   -0.18091E-05  2896   0.458E-03
  11 F= -.23396022E+04 E0= -.23396022E+04  d E =-.128407E+00  mag=     3.0000
       N       E                     dE             d eps       ncg     rms          rms(c)
DAV:   1    -0.231811632515E+04    0.16803E+00   -0.20824E+01  4504   0.403E+00    0.111E+00
RMM:   2    -0.231831684620E+04   -0.20052E+00   -0.21017E+00  6649   0.949E-01    0.760E-01
RMM:   3    -0.231833136439E+04   -0.14518E-01   -0.19529E-01  6457   0.277E-01    0.823E-01
RMM:   4    -0.231832611906E+04    0.52453E-02   -0.20677E-02  6482   0.671E-02    0.403E-01
RMM:   5    -0.231832532633E+04    0.79273E-03   -0.31467E-03  5798   0.334E-02    0.345E-01
RMM:   6    -0.231832408471E+04    0.12416E-02   -0.33575E-03  6023   0.349E-02    0.235E-01
RMM:   7    -0.231832346454E+04    0.62016E-03   -0.15751E-03  5749   0.254E-02    0.860E-02
RMM:   8    -0.231832348284E+04   -0.18293E-04   -0.28666E-04  4111   0.119E-02    0.896E-02
RMM:   9    -0.231832342298E+04    0.59857E-04   -0.10046E-04  3087   0.726E-03    0.290E-02
RMM:  10    -0.231832347023E+04   -0.47246E-04   -0.61215E-05  3487   0.533E-03    0.190E-02
RMM:  11    -0.231832350399E+04   -0.33766E-04   -0.22119E-05  2925   0.472E-03    0.676E-03
RMM:  12    -0.231832352465E+04   -0.20657E-04   -0.11247E-05  2888   0.338E-03    0.407E-03
RMM:  13    -0.231832353376E+04   -0.91078E-05   -0.56118E-06  2834   0.294E-03
  12 F= -.23396413E+04 E0= -.23396413E+04  d E =-.390978E-01  mag=     3.0000
       N       E                     dE             d eps       ncg     rms          rms(c)
DAV:   1    -0.231831986687E+04    0.36578E-02   -0.44677E-01  4688   0.580E-01    0.160E-01
RMM:   2    -0.231832410973E+04   -0.42429E-02   -0.44446E-02  6642   0.135E-01    0.111E-01
RMM:   3    -0.231832440625E+04   -0.29651E-03   -0.39851E-03  5216   0.395E-02    0.117E-01
RMM:   4    -0.231832430231E+04    0.10394E-03   -0.42227E-04  3633   0.103E-02    0.584E-02
RMM:   5    -0.231832428681E+04    0.15497E-04   -0.68826E-05  3101   0.645E-03    0.507E-02
RMM:   6    -0.231832425976E+04    0.27050E-04   -0.74751E-05  3332   0.628E-03    0.329E-02
RMM:   7    -0.231832424978E+04    0.99852E-05   -0.38732E-05  3192   0.557E-03
  13 F= -.23396420E+04 E0= -.23396420E+04  d E =-.397072E-01  mag=     3.0000
       N       E                     dE             d eps       ncg     rms          rms(c)
DAV:   1    -0.231828711193E+04    0.37148E-01   -0.79053E+00  4504   0.254E+00    0.712E-01
RMM:   2    -0.231835863195E+04   -0.71520E-01   -0.75277E-01  6478   0.579E-01    0.541E-01
RMM:   3    -0.231836523674E+04   -0.66048E-02   -0.75046E-02  6285   0.185E-01    0.706E-01
RMM:   4    -0.231835995798E+04    0.52788E-02   -0.72313E-03  6361   0.481E-02    0.251E-01
RMM:   5    -0.231835987707E+04    0.80915E-04   -0.20236E-03  5851   0.260E-02    0.275E-01
RMM:   6    -0.231835902907E+04    0.84800E-03   -0.15059E-03  5919   0.246E-02    0.109E-01
RMM:   7    -0.231835894578E+04    0.83291E-04   -0.48212E-04  5384   0.143E-02    0.508E-02
RMM:   8    -0.231835892771E+04    0.18070E-04   -0.91429E-05  3321   0.729E-03    0.389E-02
RMM:   9    -0.231835891704E+04    0.10669E-04   -0.39886E-05  2990   0.536E-03    0.246E-02
RMM:  10    -0.231835891022E+04    0.68242E-05   -0.18356E-05  2940   0.385E-03
  14 F= -.23396775E+04 E0= -.23396775E+04  d E =-.355257E-01  mag=     3.0000
       N       E                     dE             d eps       ncg     rms          rms(c)
DAV:   1    -0.231833885398E+04    0.20063E-01   -0.28325E+00  4516   0.152E+00    0.427E-01
RMM:   2    -0.231836455789E+04   -0.25704E-01   -0.26859E-01  6478   0.343E-01    0.348E-01
RMM:   3    -0.231836675814E+04   -0.22003E-02   -0.26149E-02  6143   0.110E-01    0.436E-01
RMM:   4    -0.231836475957E+04    0.19986E-02   -0.25883E-03  5977   0.289E-02    0.147E-01
RMM:   5    -0.231836475192E+04    0.76490E-05   -0.74183E-04  5389   0.163E-02    0.169E-01
RMM:   6    -0.231836440706E+04    0.34486E-03   -0.55952E-04  5519   0.154E-02    0.569E-02
RMM:   7    -0.231836438580E+04    0.21252E-04   -0.14690E-04  4235   0.877E-03    0.241E-02
RMM:   8    -0.231836437885E+04    0.69574E-05   -0.24452E-05  3112   0.489E-03
  15 F= -.23396834E+04 E0= -.23396834E+04  d E =-.414837E-01  mag=     3.0000
       N       E                     dE             d eps       ncg     rms          rms(c)
DAV:   1    -0.231831992447E+04    0.44461E-01   -0.10894E+01  4504   0.318E+00    0.933E-01
RMM:   2    -0.231838950255E+04   -0.69578E-01   -0.72156E-01  6220   0.655E-01    0.753E-01
RMM:   3    -0.231839540058E+04   -0.58980E-02   -0.64736E-02  6063   0.231E-01    0.103E+00
RMM:   4    -0.231838401502E+04    0.11386E-01   -0.82314E-03  6391   0.634E-02    0.279E-01
RMM:   5    -0.231838407174E+04   -0.56714E-04   -0.31462E-03  6005   0.353E-02    0.340E-01
RMM:   6    -0.231838259956E+04    0.14722E-02   -0.24775E-03  5665   0.337E-02    0.727E-02
RMM:   7    -0.231838259047E+04    0.90807E-05   -0.36952E-04  4872   0.167E-02    0.547E-02
RMM:   8    -0.231838257134E+04    0.19134E-04   -0.10483E-04  3292   0.706E-03    0.396E-02
RMM:   9    -0.231838255287E+04    0.18469E-04   -0.27234E-05  2958   0.516E-03    0.167E-02
RMM:  10    -0.231838255290E+04   -0.30166E-07   -0.21440E-05  2966   0.419E-03
  16 F= -.23397015E+04 E0= -.23397015E+04  d E =-.180484E-01  mag=     3.0000
       N       E                     dE             d eps       ncg     rms          rms(c)
DAV:   1    -0.231838187533E+04    0.67754E-03   -0.17720E-01  4720   0.404E-01    0.119E-01
RMM:   2    -0.231838300094E+04   -0.11256E-02   -0.11647E-02  6306   0.836E-02    0.951E-02
RMM:   3    -0.231838311047E+04   -0.10953E-03   -0.10390E-03  4792   0.284E-02    0.134E-01
RMM:   4    -0.231838292173E+04    0.18874E-03   -0.12877E-04  3345   0.891E-03    0.333E-02
RMM:   5    -0.231838292742E+04   -0.56947E-05   -0.54415E-05  3068   0.615E-03
  17 F= -.23397019E+04 E0= -.23397019E+04  d E =-.184733E-01  mag=     3.0000
       N       E                     dE             d eps       ncg     rms          rms(c)
DAV:   1    -0.231835625980E+04    0.26662E-01   -0.92637E+00  4504   0.284E+00    0.653E-01
RMM:   2    -0.231840839017E+04   -0.52130E-01   -0.53251E-01  6584   0.549E-01    0.611E-01
RMM:   3    -0.231841030747E+04   -0.19173E-02   -0.42127E-02  6248   0.163E-01    0.710E-01
RMM:   4    -0.231840533218E+04    0.49753E-02   -0.48143E-03  6208   0.449E-02    0.215E-01
RMM:   5    -0.231840532904E+04    0.31419E-05   -0.17367E-03  5881   0.250E-02    0.258E-01
RMM:   6    -0.231840442097E+04    0.90807E-03   -0.16231E-03  5735   0.264E-02    0.831E-02
RMM:   7    -0.231840436713E+04    0.53845E-04   -0.34726E-04  5088   0.139E-02    0.359E-02
RMM:   8    -0.231840435414E+04    0.12993E-04   -0.44786E-05  3212   0.558E-03    0.207E-02
RMM:   9    -0.231840436085E+04   -0.67120E-05   -0.20247E-05  2940   0.455E-03
  18 F= -.23397221E+04 E0= -.23397221E+04  d E =-.201631E-01  mag=     3.0000
       N       E                     dE             d eps       ncg     rms          rms(c)
DAV:   1    -0.231838842812E+04    0.15926E-01   -0.41135E+00  4516   0.189E+00    0.437E-01
RMM:   2    -0.231841157297E+04   -0.23145E-01   -0.23576E-01  6590   0.364E-01    0.421E-01
RMM:   3    -0.231841244110E+04   -0.86812E-03   -0.19286E-02  6183   0.109E-01    0.479E-01
RMM:   4    -0.231841015586E+04    0.22852E-02   -0.21682E-03  6005   0.303E-02    0.143E-01
RMM:   5    -0.231841014792E+04    0.79439E-05   -0.79689E-04  5585   0.172E-02    0.169E-01
RMM:   6    -0.231840976506E+04    0.38286E-03   -0.71756E-04  5605   0.176E-02    0.619E-02
RMM:   7    -0.231840973488E+04    0.30180E-04   -0.17202E-04  4544   0.100E-02    0.254E-02
RMM:   8    -0.231840973258E+04    0.23038E-05   -0.22942E-05  3008   0.442E-03
  19 F= -.23397266E+04 E0= -.23397266E+04  d E =-.246421E-01  mag=     3.0000
       N       E                     dE             d eps       ncg     rms          rms(c)
DAV:   1    -0.231837652412E+04    0.33211E-01   -0.88332E+00  4504   0.272E+00    0.666E-01
RMM:   2    -0.231843098303E+04   -0.54459E-01   -0.55872E-01  6528   0.534E-01    0.594E-01
RMM:   3    -0.231843318513E+04   -0.22021E-02   -0.44793E-02  6272   0.162E-01    0.658E-01
RMM:   4    -0.231842942578E+04    0.37594E-02   -0.52282E-03  6215   0.452E-02    0.247E-01
RMM:   5    -0.231842924373E+04    0.18204E-03   -0.18233E-03  5865   0.247E-02    0.239E-01
RMM:   6    -0.231842838729E+04    0.85644E-03   -0.14908E-03  5632   0.251E-02    0.833E-02
RMM:   7    -0.231842833089E+04    0.56396E-04   -0.36753E-04  4885   0.146E-02    0.406E-02
RMM:   8    -0.231842832366E+04    0.72380E-05   -0.64127E-05  3169   0.680E-03
  20 F= -.23397454E+04 E0= -.23397454E+04  d E =-.188136E-01  mag=     3.0000
       N       E                     dE             d eps       ncg     rms          rms(c)
DAV:   1    -0.231840625039E+04    0.22081E-01   -0.43696E+00  4504   0.191E+00    0.468E-01
RMM:   2    -0.231843305694E+04   -0.26807E-01   -0.27711E-01  6543   0.375E-01    0.396E-01
RMM:   3    -0.231843428291E+04   -0.12260E-02   -0.21394E-02  6199   0.110E-01    0.467E-01
RMM:   4    -0.231843238927E+04    0.18936E-02   -0.25950E-03  6011   0.318E-02    0.172E-01
RMM:   5    -0.231843231372E+04    0.75550E-04   -0.91735E-04  5504   0.178E-02    0.171E-01
RMM:   6    -0.231843188887E+04    0.42486E-03   -0.77870E-04  5485   0.182E-02    0.592E-02
RMM:   7    -0.231843186238E+04    0.26489E-04   -0.18510E-04  4423   0.107E-02    0.252E-02
RMM:   8    -0.231843185944E+04    0.29348E-05   -0.25956E-05  3037   0.500E-03
  21 F= -.23397489E+04 E0= -.23397489E+04  d E =-.223743E-01  mag=     3.0000
       N       E                     dE             d eps       ncg     rms          rms(c)
DAV:   1    -0.231840520356E+04    0.26659E-01   -0.63062E+00  4504   0.221E+00    0.549E-01
RMM:   2    -0.231844832304E+04   -0.43119E-01   -0.42981E-01  6560   0.447E-01    0.610E-01
RMM:   3    -0.231844854256E+04   -0.21952E-03   -0.33537E-02  6287   0.131E-01    0.513E-01
RMM:   4    -0.231844635280E+04    0.21898E-02   -0.40305E-03  6123   0.376E-02    0.223E-01
RMM:   5    -0.231844606071E+04    0.29209E-03   -0.11581E-03  5598   0.200E-02    0.193E-01
RMM:   6    -0.231844548082E+04    0.57989E-03   -0.11219E-03  5238   0.217E-02    0.591E-02
RMM:   7    -0.231844548275E+04   -0.19313E-05   -0.22545E-04  4472   0.131E-02    0.339E-02
RMM:   8    -0.231844548520E+04   -0.24496E-05   -0.43691E-05  3094   0.542E-03
  22 F= -.23397629E+04 E0= -.23397629E+04  d E =-.139966E-01  mag=     3.0000
       N       E                     dE             d eps       ncg     rms          rms(c)
DAV:   1    -0.231839393842E+04    0.51544E-01   -0.88770E+00  4504   0.262E+00    0.654E-01
RMM:   2    -0.231845457687E+04   -0.60638E-01   -0.60710E-01  6561   0.531E-01    0.711E-01
RMM:   3    -0.231845499135E+04   -0.41448E-03   -0.47382E-02  6296   0.157E-01    0.606E-01
RMM:   4    -0.231845196615E+04    0.30252E-02   -0.56191E-03  6219   0.447E-02    0.269E-01
RMM:   5    -0.231845154235E+04    0.42380E-03   -0.16800E-03  5765   0.234E-02    0.229E-01
RMM:   6    -0.231845071726E+04    0.82509E-03   -0.15688E-03  5327   0.256E-02    0.698E-02
RMM:   7    -0.231845072324E+04   -0.59844E-05   -0.31136E-04  4638   0.152E-02    0.415E-02
RMM:   8    -0.231845072484E+04   -0.15953E-05   -0.64241E-05  3225   0.633E-03
  23 F= -.23397685E+04 E0= -.23397685E+04  d E =-.195969E-01  mag=     3.0000
       N       E                     dE             d eps       ncg     rms          rms(c)
DAV:   1    -0.231842709939E+04    0.23624E-01   -0.51801E+00  4528   0.191E+00    0.515E-01
RMM:   2    -0.231846745263E+04   -0.40353E-01   -0.38649E-01  6578   0.406E-01    0.735E-01
RMM:   3    -0.231846499130E+04    0.24613E-02   -0.30686E-02  6232   0.118E-01    0.421E-01
RMM:   4    -0.231846368279E+04    0.13085E-02   -0.38814E-03  6131   0.341E-02    0.228E-01
RMM:   5    -0.231846324421E+04    0.43857E-03   -0.92198E-04  5316   0.171E-02    0.166E-01
RMM:   6    -0.231846288339E+04    0.36083E-03   -0.84738E-04  5328   0.177E-02    0.878E-02
RMM:   7    -0.231846280545E+04    0.77935E-04   -0.36504E-04  4819   0.131E-02    0.272E-02
RMM:   8    -0.231846281591E+04   -0.10457E-04   -0.29617E-05  3038   0.554E-03    0.202E-02
RMM:   9    -0.231846282282E+04   -0.69057E-05   -0.13805E-05  2909   0.396E-03
  24 F= -.23397811E+04 E0= -.23397811E+04  d E =-.126140E-01  mag=     3.0000
       N       E                     dE             d eps       ncg     rms          rms(c)
DAV:   1    -0.231842454752E+04    0.38268E-01   -0.61801E+00  4504   0.210E+00    0.558E-01
RMM:   2    -0.231847217825E+04   -0.47631E-01   -0.45734E-01  6591   0.445E-01    0.795E-01
RMM:   3    -0.231846966642E+04    0.25118E-02   -0.37576E-02  6255   0.133E-01    0.458E-01
RMM:   4    -0.231846813077E+04    0.15356E-02   -0.46012E-03  6187   0.373E-02    0.245E-01
RMM:   5    -0.231846764034E+04    0.49043E-03   -0.10956E-03  5486   0.185E-02    0.183E-01
RMM:   6    -0.231846719588E+04    0.44446E-03   -0.99475E-04  5375   0.192E-02    0.963E-02
RMM:   7    -0.231846709774E+04    0.98146E-04   -0.44955E-04  4956   0.144E-02    0.308E-02
RMM:   8    -0.231846710675E+04   -0.90122E-05   -0.39652E-05  3078   0.614E-03
  25 F= -.23397860E+04 E0= -.23397860E+04  d E =-.174307E-01  mag=     3.0000
       N       E                     dE             d eps       ncg     rms          rms(c)
DAV:   1    -0.231842363128E+04    0.43466E-01   -0.71526E+00  4504   0.225E+00    0.636E-01
RMM:   2    -0.231848000865E+04   -0.56377E-01   -0.56708E-01  6518   0.487E-01    0.697E-01
RMM:   3    -0.231848050542E+04   -0.49677E-03   -0.51614E-02  6294   0.152E-01    0.523E-01
RMM:   4    -0.231847863366E+04    0.18718E-02   -0.58054E-03  6178   0.411E-02    0.300E-01
RMM:   5    -0.231847793646E+04    0.69720E-03   -0.13637E-03  5581   0.209E-02    0.194E-01
RMM:   6    -0.231847738419E+04    0.55227E-03   -0.12631E-03  5469   0.220E-02    0.906E-02
RMM:   7    -0.231847732048E+04    0.63708E-04   -0.45772E-04  5041   0.155E-02    0.431E-02
RMM:   8    -0.231847732047E+04    0.11089E-07   -0.71834E-05  3159   0.684E-03
  26 F= -.23397964E+04 E0= -.23397964E+04  d E =-.104860E-01  mag=     3.0000
       N       E                     dE             d eps       ncg     rms          rms(c)
DAV:   1    -0.231847543650E+04    0.18840E-02   -0.27998E-01  4768   0.445E-01    0.131E-01
RMM:   2    -0.231847765997E+04   -0.22235E-02   -0.22510E-02  6511   0.983E-02    0.139E-01
RMM:   3    -0.231847768523E+04   -0.25267E-04   -0.20185E-03  4683   0.298E-02    0.109E-01
RMM:   4    -0.231847760689E+04    0.78342E-04   -0.22850E-04  3305   0.919E-03    0.612E-02
RMM:   5    -0.231847757916E+04    0.27737E-04   -0.60758E-05  2967   0.589E-03    0.388E-02
RMM:   6    -0.231847755807E+04    0.21087E-04   -0.55203E-05  3195   0.563E-03    0.168E-02
RMM:   7    -0.231847755991E+04   -0.18460E-05   -0.20087E-05  2955   0.475E-03
  27 F= -.23397967E+04 E0= -.23397967E+04  d E =-.107745E-01  mag=     3.0000
       N       E                     dE             d eps       ncg     rms          rms(c)
DAV:   1    -0.231845278056E+04    0.24778E-01   -0.42646E+00  4504   0.168E+00    0.453E-01
RMM:   2    -0.231848645657E+04   -0.33676E-01   -0.35215E-01  6615   0.366E-01    0.370E-01
RMM:   3    -0.231848785852E+04   -0.14019E-02   -0.30745E-02  6370   0.111E-01    0.313E-01
RMM:   4    -0.231848681113E+04    0.10474E-02   -0.31704E-03  5955   0.284E-02    0.165E-01
RMM:   5    -0.231848678751E+04    0.23626E-04   -0.59566E-04  4953   0.133E-02    0.193E-01
RMM:   6    -0.231848636078E+04    0.42673E-03   -0.74360E-04  5136   0.171E-02    0.563E-02
RMM:   7    -0.231848634995E+04    0.10824E-04   -0.19215E-04  4416   0.105E-02    0.349E-02
RMM:   8    -0.231848634021E+04    0.97443E-05   -0.34787E-05  2979   0.526E-03
  28 F= -.23398051E+04 E0= -.23398051E+04  d E =-.839962E-02  mag=     3.0000
       N       E                     dE             d eps       ncg     rms          rms(c)
DAV:   1    -0.231846032461E+04    0.26025E-01   -0.36105E+00  4504   0.155E+00    0.419E-01
RMM:   2    -0.231848893206E+04   -0.28607E-01   -0.29916E-01  6606   0.336E-01    0.345E-01
RMM:   3    -0.231849005939E+04   -0.11273E-02   -0.26084E-02  6322   0.101E-01    0.288E-01
RMM:   4    -0.231848916255E+04    0.89684E-03   -0.26838E-03  5843   0.260E-02    0.150E-01
RMM:   5    -0.231848915491E+04    0.76370E-05   -0.50985E-04  4772   0.124E-02    0.180E-01
RMM:   6    -0.231848878693E+04    0.36798E-03   -0.63297E-04  5013   0.158E-02    0.521E-02
RMM:   7    -0.231848878044E+04    0.64933E-05   -0.16533E-04  4246   0.983E-03    0.347E-02
RMM:   8    -0.231848877045E+04    0.99905E-05   -0.32009E-05  2964   0.516E-03
  29 F= -.23398072E+04 E0= -.23398072E+04  d E =-.104698E-01  mag=     3.0000
       N       E                     dE             d eps       ncg     rms          rms(c)
DAV:   1    -0.231847155925E+04    0.17221E-01   -0.31853E+00  4504   0.147E+00    0.394E-01
RMM:   2    -0.231849522219E+04   -0.23663E-01   -0.25103E-01  6553   0.316E-01    0.287E-01
RMM:   3    -0.231849718752E+04   -0.19653E-02   -0.21729E-02  6178   0.945E-02    0.377E-01
RMM:   4    -0.231849599175E+04    0.11958E-02   -0.23341E-03  5776   0.255E-02    0.142E-01
RMM:   5    -0.231849589551E+04    0.96238E-04   -0.54160E-04  4860   0.135E-02    0.124E-01
RMM:   6    -0.231849570868E+04    0.18683E-03   -0.48150E-04  5002   0.135E-02    0.593E-02
RMM:   7    -0.231849567800E+04    0.30683E-04   -0.13031E-04  3960   0.861E-03    0.148E-02
RMM:   8    -0.231849567942E+04   -0.14258E-05   -0.11899E-05  2933   0.474E-03
  30 F= -.23398138E+04 E0= -.23398138E+04  d E =-.656707E-02  mag=     3.0000
       N       E                     dE             d eps       ncg     rms          rms(c)
DAV:   1    -0.231845661653E+04    0.39061E-01   -0.56303E+00  4504   0.195E+00    0.525E-01
RMM:   2    -0.231849868340E+04   -0.42067E-01   -0.44533E-01  6541   0.420E-01    0.392E-01
RMM:   3    -0.231850215727E+04   -0.34739E-02   -0.38985E-02  6302   0.127E-01    0.510E-01
RMM:   4    -0.231849998425E+04    0.21730E-02   -0.42082E-03  6118   0.340E-02    0.190E-01
RMM:   5    -0.231849979600E+04    0.18825E-03   -0.94883E-04  5320   0.174E-02    0.163E-01
RMM:   6    -0.231849947548E+04    0.32052E-03   -0.86762E-04  5418   0.173E-02    0.823E-02
RMM:   7    -0.231849941017E+04    0.65312E-04   -0.22675E-04  4683   0.108E-02    0.191E-02
RMM:   8    -0.231849941151E+04   -0.13443E-05   -0.15015E-05  2950   0.484E-03
  31 F= -.23398170E+04 E0= -.23398170E+04  d E =-.983159E-02  mag=     3.0000
       N       E                     dE             d eps       ncg     rms          rms(c)
DAV:   1    -0.231847815972E+04    0.21250E-01   -0.30228E+00  4504   0.150E+00    0.439E-01
RMM:   2    -0.231851030604E+04   -0.32146E-01   -0.30389E-01  6574   0.351E-01    0.668E-01
RMM:   3    -0.231850790815E+04    0.23979E-02   -0.24841E-02  6325   0.104E-01    0.365E-01
RMM:   4    -0.231850660775E+04    0.13004E-02   -0.26971E-03  5653   0.273E-02    0.138E-01
RMM:   5    -0.231850657286E+04    0.34895E-04   -0.62201E-04  4929   0.154E-02    0.148E-01
RMM:   6    -0.231850626028E+04    0.31258E-03   -0.56964E-04  5330   0.157E-02    0.408E-02
RMM:   7    -0.231850625571E+04    0.45675E-05   -0.97889E-05  3508   0.902E-03
  32 F= -.23398238E+04 E0= -.23398238E+04  d E =-.677607E-02  mag=     3.0000
       N       E                     dE             d eps       ncg     rms          rms(c)
DAV:   1    -0.231847993059E+04    0.26330E-01   -0.29754E+00  4504   0.148E+00    0.439E-01
RMM:   2    -0.231851160962E+04   -0.31679E-01   -0.29940E-01  6585   0.349E-01    0.669E-01
RMM:   3    -0.231850925194E+04    0.23577E-02   -0.24623E-02  6337   0.105E-01    0.368E-01
RMM:   4    -0.231850793741E+04    0.13145E-02   -0.26487E-03  5684   0.274E-02    0.135E-01
RMM:   5    -0.231850790977E+04    0.27644E-04   -0.61136E-04  4967   0.154E-02    0.149E-01
RMM:   6    -0.231850759858E+04    0.31119E-03   -0.56150E-04  5301   0.156E-02    0.407E-02
RMM:   7    -0.231850759093E+04    0.76516E-05   -0.97878E-05  3523   0.901E-03
  33 F= -.23398251E+04 E0= -.23398251E+04  d E =-.804169E-02  mag=     3.0000
       N       E                     dE             d eps       ncg     rms          rms(c)
DAV:   1    -0.231848020847E+04    0.27390E-01   -0.32529E+00  4504   0.155E+00    0.435E-01
RMM:   2    -0.231851488319E+04   -0.34675E-01   -0.33540E-01  6622   0.359E-01    0.639E-01
RMM:   3    -0.231851360368E+04    0.12795E-02   -0.28185E-02  6315   0.107E-01    0.399E-01
RMM:   4    -0.231851224256E+04    0.13611E-02   -0.30506E-03  5762   0.278E-02    0.145E-01
RMM:   5    -0.231851214147E+04    0.10109E-03   -0.49628E-04  4794   0.131E-02    0.141E-01
RMM:   6    -0.231851185282E+04    0.28864E-03   -0.51366E-04  5047   0.147E-02    0.410E-02
RMM:   7    -0.231851185022E+04    0.25975E-05   -0.12831E-04  3747   0.988E-03    0.194E-02
RMM:   8    -0.231851185103E+04   -0.80117E-06   -0.21797E-05  2924   0.464E-03
  34 F= -.23398295E+04 E0= -.23398295E+04  d E =-.445245E-02  mag=     3.0000
       N       E                     dE             d eps       ncg     rms          rms(c)
DAV:   1    -0.231845812283E+04    0.53727E-01   -0.55469E+00  4504   0.202E+00    0.567E-01
RMM:   2    -0.231851723115E+04   -0.59108E-01   -0.57313E-01  6619   0.469E-01    0.828E-01
RMM:   3    -0.231851530809E+04    0.19231E-02   -0.48306E-02  6408   0.138E-01    0.529E-01
RMM:   4    -0.231851288023E+04    0.24279E-02   -0.51770E-03  5947   0.360E-02    0.185E-01
RMM:   5    -0.231851273690E+04    0.14333E-03   -0.85833E-04  5384   0.166E-02    0.187E-01
RMM:   6    -0.231851223127E+04    0.50563E-03   -0.88267E-04  5318   0.187E-02    0.549E-02
RMM:   7    -0.231851222342E+04    0.78462E-05   -0.23065E-04  4285   0.120E-02    0.243E-02
RMM:   8    -0.231851222577E+04   -0.23550E-05   -0.33870E-05  2947   0.526E-03
  35 F= -.23398302E+04 E0= -.23398302E+04  d E =-.507880E-02  mag=     3.0000
       N       E                     dE             d eps       ncg     rms          rms(c)
DAV:   1    -0.231848246051E+04    0.29763E-01   -0.34796E+00  4504   0.164E+00    0.451E-01
RMM:   2    -0.231851784640E+04   -0.35386E-01   -0.36599E-01  6601   0.370E-01    0.429E-01
RMM:   3    -0.231851939522E+04   -0.15488E-02   -0.32758E-02  6303   0.114E-01    0.401E-01
RMM:   4    -0.231851820158E+04    0.11936E-02   -0.35422E-03  5775   0.291E-02    0.193E-01
RMM:   5    -0.231851793885E+04    0.26273E-03   -0.53393E-04  4485   0.131E-02    0.145E-01
RMM:   6    -0.231851762261E+04    0.31624E-03   -0.53165E-04  5117   0.151E-02    0.475E-02
RMM:   7    -0.231851762154E+04    0.10647E-05   -0.17559E-04  4071   0.108E-02    0.219E-02
RMM:   8    -0.231851762229E+04   -0.74669E-06   -0.24715E-05  2962   0.504E-03
  36 F= -.23398355E+04 E0= -.23398355E+04  d E =-.538537E-02  mag=     3.0000
       N       E                     dE             d eps       ncg     rms          rms(c)
DAV:   1    -0.231847998095E+04    0.37641E-01   -0.39176E+00  4504   0.173E+00    0.479E-01
RMM:   2    -0.231851961367E+04   -0.39633E-01   -0.41097E-01  6608   0.393E-01    0.445E-01
RMM:   3    -0.231852154540E+04   -0.19317E-02   -0.36954E-02  6323   0.121E-01    0.422E-01
RMM:   4    -0.231852023242E+04    0.13130E-02   -0.39826E-03  5833   0.308E-02    0.205E-01
RMM:   5    -0.231851993927E+04    0.29315E-03   -0.61680E-04  4660   0.139E-02    0.154E-01
RMM:   6    -0.231851957800E+04    0.36127E-03   -0.59980E-04  5083   0.159E-02    0.493E-02
RMM:   7    -0.231851957562E+04    0.23835E-05   -0.19669E-04  4113   0.115E-02    0.189E-02
RMM:   8    -0.231851957881E+04   -0.31947E-05   -0.19450E-05  2961   0.481E-03
  37 F= -.23398375E+04 E0= -.23398375E+04  d E =-.733521E-02  mag=     3.0000
       N       E                     dE             d eps       ncg     rms          rms(c)
DAV:   1    -0.231850815724E+04    0.11418E-01   -0.12187E+00  4504   0.107E+00    0.330E-01
RMM:   2    -0.231852595036E+04   -0.17793E-01   -0.17751E-01  6601   0.261E-01    0.363E-01
RMM:   3    -0.231852569588E+04    0.25448E-03   -0.16002E-02  6302   0.840E-02    0.239E-01
RMM:   4    -0.231852523063E+04    0.46525E-03   -0.18683E-03  5633   0.224E-02    0.187E-01
RMM:   5    -0.231852494877E+04    0.28186E-03   -0.35968E-04  3897   0.111E-02    0.875E-02
RMM:   6    -0.231852480907E+04    0.13970E-03   -0.40075E-04  5150   0.134E-02    0.305E-02
RMM:   7    -0.231852480795E+04    0.11118E-05   -0.66855E-05  3441   0.875E-03
  38 F= -.23398423E+04 E0= -.23398423E+04  d E =-.480359E-02  mag=     3.0000
       N       E                     dE             d eps       ncg     rms          rms(c)
DAV:   1    -0.231852066573E+04    0.41433E-02   -0.36213E-01  4672   0.581E-01    0.182E-01
RMM:   2    -0.231852591529E+04   -0.52496E-02   -0.52870E-02  6594   0.142E-01    0.192E-01
RMM:   3    -0.231852588717E+04    0.28119E-04   -0.47693E-03  5831   0.470E-02    0.128E-01
RMM:   4    -0.231852574350E+04    0.14366E-03   -0.53688E-04  3912   0.125E-02    0.966E-02
RMM:   5    -0.231852567313E+04    0.70371E-04   -0.10121E-04  3070   0.723E-03    0.497E-02
RMM:   6    -0.231852563240E+04    0.40729E-04   -0.12634E-04  4334   0.808E-03    0.203E-02
RMM:   7    -0.231852563588E+04   -0.34764E-05   -0.30818E-05  2994   0.648E-03
  39 F= -.23398429E+04 E0= -.23398429E+04  d E =-.540441E-02  mag=     3.0000
       N       E                     dE             d eps       ncg     rms          rms(c)
DAV:   1    -0.231851613973E+04    0.94927E-02   -0.83164E-01  4504   0.915E-01    0.276E-01
RMM:   2    -0.231852913740E+04   -0.12998E-01   -0.13332E-01  6597   0.227E-01    0.248E-01
RMM:   3    -0.231852952592E+04   -0.38852E-03   -0.11957E-02  6160   0.719E-02    0.177E-01
RMM:   4    -0.231852916659E+04    0.35932E-03   -0.12553E-03  5444   0.183E-02    0.112E-01
RMM:   5    -0.231852912300E+04    0.43588E-04   -0.21771E-04  3399   0.902E-03    0.102E-01
RMM:   6    -0.231852899926E+04    0.12374E-03   -0.24223E-04  4494   0.108E-02    0.258E-02
RMM:   7    -0.231852899905E+04    0.21172E-06   -0.55073E-05  3076   0.728E-03
  40 F= -.23398461E+04 E0= -.23398461E+04  d E =-.316786E-02  mag=     3.0000
       N       E                     dE             d eps       ncg     rms          rms(c)
DAV:   1    -0.231850539685E+04    0.23602E-01   -0.15487E+00  4504   0.125E+00    0.379E-01
RMM:   2    -0.231852972942E+04   -0.24333E-01   -0.24920E-01  6593   0.311E-01    0.342E-01
RMM:   3    -0.231853036433E+04   -0.63491E-03   -0.22395E-02  6291   0.990E-02    0.244E-01
RMM:   4    -0.231852970271E+04    0.66161E-03   -0.23559E-03  5898   0.250E-02    0.158E-01
RMM:   5    -0.231852959767E+04    0.10505E-03   -0.41810E-04  3953   0.119E-02    0.135E-01
RMM:   6    -0.231852937073E+04    0.22693E-03   -0.44601E-04  5078   0.140E-02    0.353E-02
RMM:   7    -0.231852936955E+04    0.11858E-05   -0.10418E-04  3460   0.916E-03    0.220E-02
RMM:   8    -0.231852936761E+04    0.19346E-05   -0.21911E-05  2969   0.458E-03
  41 F= -.23398462E+04 E0= -.23398462E+04  d E =-.328840E-02  mag=     3.0000
       N       E                     dE             d eps       ncg     rms          rms(c)
DAV:   1    -0.231852481897E+04    0.45506E-02   -0.32365E-01  4516   0.571E-01    0.169E-01
RMM:   2    -0.231852981096E+04   -0.49920E-02   -0.51409E-02  6568   0.141E-01    0.146E-01
RMM:   3    -0.231852998514E+04   -0.17417E-03   -0.46120E-03  5652   0.458E-02    0.105E-01
RMM:   4    -0.231852984849E+04    0.13665E-03   -0.46944E-04  3749   0.116E-02    0.571E-02
RMM:   5    -0.231852985542E+04   -0.69304E-05   -0.90475E-05  3051   0.707E-03
  42 F= -.23398468E+04 E0= -.23398468E+04  d E =-.388690E-02  mag=     3.0000
       N       E                     dE             d eps       ncg     rms          rms(c)
DAV:   1    -0.231852006150E+04    0.97870E-02   -0.78195E-01  4504   0.907E-01    0.268E-01
RMM:   2    -0.231853242381E+04   -0.12362E-01   -0.12805E-01  6561   0.222E-01    0.241E-01
RMM:   3    -0.231853308349E+04   -0.65968E-03   -0.11542E-02  5958   0.678E-02    0.232E-01
RMM:   4    -0.231853273488E+04    0.34861E-03   -0.13008E-03  4844   0.185E-02    0.116E-01
RMM:   5    -0.231853264688E+04    0.87996E-04   -0.24601E-04  3597   0.959E-03    0.870E-02
RMM:   6    -0.231853254242E+04    0.10446E-03   -0.18285E-04  4194   0.990E-03    0.349E-02
RMM:   7    -0.231853253648E+04    0.59354E-05   -0.90681E-05  3573   0.745E-03
  43 F= -.23398498E+04 E0= -.23398498E+04  d E =-.300610E-02  mag=     3.0000
       N       E                     dE             d eps       ncg     rms          rms(c)
DAV:   1    -0.231850297777E+04    0.29565E-01   -0.19119E+00  4504   0.142E+00    0.417E-01
RMM:   2    -0.231853317330E+04   -0.30196E-01   -0.31389E-01  6593   0.347E-01    0.379E-01
RMM:   3    -0.231853505264E+04   -0.18793E-02   -0.28920E-02  6225   0.110E-01    0.405E-01
RMM:   4    -0.231853396237E+04    0.10903E-02   -0.32245E-03  5901   0.297E-02    0.179E-01
RMM:   5    -0.231853376855E+04    0.19382E-03   -0.68340E-04  5032   0.143E-02    0.143E-01
RMM:   6    -0.231853349828E+04    0.27027E-03   -0.50161E-04  4959   0.146E-02    0.546E-02
RMM:   7    -0.231853349081E+04    0.74659E-05   -0.20144E-04  4190   0.111E-02    0.427E-02
RMM:   8    -0.231853347699E+04    0.13819E-04   -0.47660E-05  3017   0.571E-03    0.227E-02
RMM:   9    -0.231853347115E+04    0.58415E-05   -0.11291E-05  2972   0.401E-03
  44 F= -.23398512E+04 E0= -.23398512E+04  d E =-.445843E-02  mag=     3.0000
       N       E                     dE             d eps       ncg     rms          rms(c)
DAV:   1    -0.231852663196E+04    0.68450E-02   -0.57562E-01  4504   0.766E-01    0.223E-01
RMM:   2    -0.231853567860E+04   -0.90466E-02   -0.92349E-02  6597   0.184E-01    0.245E-01
RMM:   3    -0.231853601456E+04   -0.33595E-03   -0.87905E-03  5719   0.589E-02    0.200E-01
RMM:   4    -0.231853578993E+04    0.22463E-03   -0.97645E-04  4195   0.156E-02    0.103E-01
RMM:   5    -0.231853569857E+04    0.91358E-04   -0.16603E-04  3197   0.840E-03    0.670E-02
RMM:   6    -0.231853562943E+04    0.69141E-04   -0.13108E-04  4038   0.840E-03    0.259E-02
RMM:   7    -0.231853563284E+04   -0.34125E-05   -0.54780E-05  3186   0.664E-03
  45 F= -.23398538E+04 E0= -.23398538E+04  d E =-.257901E-02  mag=     3.0000
       N       E                     dE             d eps       ncg     rms          rms(c)
DAV:   1    -0.231845679443E+04    0.78835E-01   -0.51711E+00  4504   0.230E+00    0.662E-01
RMM:   2    -0.231853614403E+04   -0.79350E-01   -0.82192E-01  6594   0.544E-01    0.632E-01
RMM:   3    -0.231854161771E+04   -0.54737E-02   -0.80635E-02  6355   0.177E-01    0.640E-01
RMM:   4    -0.231853892229E+04    0.26954E-02   -0.84398E-03  6240   0.458E-02    0.282E-01
RMM:   5    -0.231853838450E+04    0.53779E-03   -0.15503E-03  5558   0.202E-02    0.215E-01
RMM:   6    -0.231853772098E+04    0.66353E-03   -0.10607E-03  5120   0.200E-02    0.809E-02
RMM:   7    -0.231853771667E+04    0.43092E-05   -0.52276E-04  4919   0.164E-02    0.692E-02
RMM:   8    -0.231853767068E+04    0.45990E-04   -0.10684E-04  3354   0.773E-03    0.306E-02
RMM:   9    -0.231853766081E+04    0.98672E-05   -0.23024E-05  3077   0.502E-03
  46 F= -.23398571E+04 E0= -.23398571E+04  d E =-.586456E-02  mag=     3.0000
       N       E                     dE             d eps       ncg     rms          rms(c)
DAV:   1    -0.231852485379E+04    0.12817E-01   -0.10902E+00  4504   0.101E+00    0.315E-01
RMM:   2    -0.231854136946E+04   -0.16516E-01   -0.16925E-01  6538   0.244E-01    0.325E-01
RMM:   3    -0.231854192742E+04   -0.55797E-03   -0.16885E-02  6099   0.808E-02    0.239E-01
RMM:   4    -0.231854152181E+04    0.40561E-03   -0.17188E-03  5119   0.200E-02    0.118E-01
RMM:   5    -0.231854148609E+04    0.35727E-04   -0.29407E-04  3708   0.105E-02    0.118E-01
RMM:   6    -0.231854130962E+04    0.17647E-03   -0.27114E-04  4782   0.113E-02    0.359E-02
RMM:   7    -0.231854131694E+04   -0.73259E-05   -0.10147E-04  3515   0.820E-03    0.364E-02
RMM:   8    -0.231854130148E+04    0.15460E-04   -0.28145E-05  2950   0.505E-03    0.136E-02
RMM:   9    -0.231854129865E+04    0.28322E-05   -0.66531E-06  2923   0.299E-03
  47 F= -.23398611E+04 E0= -.23398611E+04  d E =-.402820E-02  mag=     3.0000
       N       E                     dE             d eps       ncg     rms          rms(c)
DAV:   1    -0.231848016101E+04    0.61140E-01   -0.40987E+00  4504   0.196E+00    0.605E-01
RMM:   2    -0.231854176802E+04   -0.61607E-01   -0.63435E-01  6542   0.467E-01    0.591E-01
RMM:   3    -0.231854453026E+04   -0.27622E-02   -0.64800E-02  6331   0.157E-01    0.473E-01
RMM:   4    -0.231854275413E+04    0.17761E-02   -0.64482E-03  6045   0.385E-02    0.218E-01
RMM:   5    -0.231854272383E+04    0.30299E-04   -0.11203E-03  5342   0.187E-02    0.243E-01
RMM:   6    -0.231854200415E+04    0.71968E-03   -0.10031E-03  5350   0.193E-02    0.698E-02
RMM:   7    -0.231854199414E+04    0.10012E-04   -0.35860E-04  4639   0.136E-02    0.527E-02
RMM:   8    -0.231854196722E+04    0.26916E-04   -0.77164E-05  3112   0.684E-03    0.314E-02
RMM:   9    -0.231854195398E+04    0.13243E-04   -0.20031E-05  2960   0.456E-03    0.140E-02
RMM:  10    -0.231854195202E+04    0.19547E-05   -0.13222E-05  2968   0.294E-03
  48 F= -.23398626E+04 E0= -.23398626E+04  d E =-.545877E-02  mag=     3.0000
       N       E                     dE             d eps       ncg     rms          rms(c)
DAV:   1    -0.231853638286E+04    0.55711E-02   -0.41556E-01  4560   0.622E-01    0.197E-01
RMM:   2    -0.231854284646E+04   -0.64636E-02   -0.65075E-02  6539   0.151E-01    0.235E-01
RMM:   3    -0.231854284616E+04    0.29954E-06   -0.62762E-03  5566   0.494E-02    0.146E-01
RMM:   4    -0.231854274238E+04    0.10378E-03   -0.68226E-04  3749   0.127E-02    0.853E-02
RMM:   5    -0.231854269091E+04    0.51465E-04   -0.11455E-04  3063   0.759E-03    0.611E-02
RMM:   6    -0.231854263831E+04    0.52606E-04   -0.11124E-04  3982   0.775E-03    0.231E-02
RMM:   7    -0.231854264482E+04   -0.65132E-05   -0.40267E-05  3014   0.611E-03
  49 F= -.23398630E+04 E0= -.23398630E+04  d E =-.590123E-02  mag=     3.0000
       N       E                     dE             d eps       ncg     rms          rms(c)
DAV:   1    -0.231852862047E+04    0.14018E-01   -0.10476E+00  4504   0.968E-01    0.306E-01
RMM:   2    -0.231854596526E+04   -0.17345E-01   -0.18107E-01  6596   0.240E-01    0.274E-01
RMM:   3    -0.231854704521E+04   -0.10799E-02   -0.18230E-02  6082   0.786E-02    0.248E-01
RMM:   4    -0.231854660969E+04    0.43552E-03   -0.18358E-03  4594   0.193E-02    0.111E-01
RMM:   5    -0.231854659040E+04    0.19284E-04   -0.28256E-04  3536   0.982E-03    0.120E-01
RMM:   6    -0.231854641199E+04    0.17841E-03   -0.26588E-04  4628   0.104E-02    0.361E-02
RMM:   7    -0.231854640642E+04    0.55731E-05   -0.91012E-05  3612   0.688E-03
  50 F= -.23398670E+04 E0= -.23398670E+04  d E =-.402642E-02  mag=     3.0000
       N       E                     dE             d eps       ncg     rms          rms(c)
DAV:   1    -0.231838963327E+04    0.15678E+00   -0.94065E+00  4504   0.290E+00    0.918E-01
RMM:   2    -0.231854402523E+04   -0.15439E+00   -0.16269E+00  6602   0.719E-01    0.724E-01
RMM:   3    -0.231855642329E+04   -0.12398E-01   -0.17410E-01  6429   0.247E-01    0.687E-01
RMM:   4    -0.231855192139E+04    0.45019E-02   -0.16696E-02  6489   0.587E-02    0.274E-01
RMM:   5    -0.231855211640E+04   -0.19501E-03   -0.24629E-03  5724   0.260E-02    0.397E-01
RMM:   6    -0.231855075101E+04    0.13654E-02   -0.20178E-03  5784   0.242E-02    0.152E-01
RMM:   7    -0.231855056587E+04    0.18514E-03   -0.93187E-04  5199   0.167E-02    0.585E-02
RMM:   8    -0.231855056713E+04   -0.12670E-05   -0.14551E-04  3327   0.106E-02    0.544E-02
RMM:   9    -0.231855054556E+04    0.21575E-04   -0.55393E-05  3011   0.549E-03    0.257E-02
RMM:  10    -0.231855055014E+04   -0.45867E-05   -0.25571E-05  3058   0.396E-03
  51 F= -.23398720E+04 E0= -.23398720E+04  d E =-.901607E-02  mag=     3.0000
       N       E                     dE             d eps       ncg     rms          rms(c)
DAV:   1    -0.231853878089E+04    0.11765E-01   -0.83139E-01  4504   0.837E-01    0.272E-01
RMM:   2    -0.231855320786E+04   -0.14427E-01   -0.15320E-01  6624   0.213E-01    0.211E-01
RMM:   3    -0.231855449463E+04   -0.12868E-02   -0.15428E-02  5862   0.691E-02    0.242E-01
RMM:   4    -0.231855414143E+04    0.35320E-03   -0.15824E-03  4198   0.174E-02    0.103E-01
RMM:   5    -0.231855411898E+04    0.22453E-04   -0.24239E-04  3421   0.911E-03    0.102E-01
RMM:   6    -0.231855399210E+04    0.12688E-03   -0.20284E-04  4005   0.921E-03    0.351E-02
RMM:   7    -0.231855399222E+04   -0.12646E-06   -0.75551E-05  3257   0.629E-03
  52 F= -.23398758E+04 E0= -.23398758E+04  d E =-.377758E-02  mag=     3.0000
       N       E                     dE             d eps       ncg     rms          rms(c)
DAV:   1    -0.231842360335E+04    0.13039E+00   -0.74660E+00  4504   0.251E+00    0.809E-01
RMM:   2    -0.231855190343E+04   -0.12830E+00   -0.13724E+00  6658   0.635E-01    0.534E-01
RMM:   3    -0.231856406992E+04   -0.12166E-01   -0.14695E-01  6402   0.213E-01    0.582E-01
RMM:   4    -0.231856171077E+04    0.23591E-02   -0.14236E-02  6326   0.505E-02    0.269E-01
RMM:   5    -0.231856189109E+04   -0.18031E-03   -0.19445E-03  5596   0.229E-02    0.355E-01
RMM:   6    -0.231856070002E+04    0.11911E-02   -0.16028E-03  5657   0.217E-02    0.127E-01
RMM:   7    -0.231856057972E+04    0.12030E-03   -0.77970E-04  5140   0.149E-02    0.610E-02
RMM:   8    -0.231856057858E+04    0.11350E-05   -0.12560E-04  3169   0.915E-03    0.539E-02
RMM:   9    -0.231856055099E+04    0.27598E-04   -0.44080E-05  3017   0.493E-03    0.199E-02
RMM:  10    -0.231856055350E+04   -0.25151E-05   -0.20293E-05  3004   0.329E-03
  53 F= -.23398834E+04 E0= -.23398834E+04  d E =-.113773E-01  mag=     3.0000
       N       E                     dE             d eps       ncg     rms          rms(c)
DAV:   1    -0.231800270723E+04    0.55784E+00   -0.29819E+01  4504   0.502E+00    0.163E+00
RMM:   2    -0.231852494920E+04   -0.52224E+00   -0.55677E+00  6662   0.128E+00    0.107E+00
RMM:   3    -0.231857298484E+04   -0.48036E-01   -0.59044E-01  6384   0.427E-01    0.103E+00
RMM:   4    -0.231856338297E+04    0.96019E-02   -0.54908E-02  6579   0.102E-01    0.631E-01
RMM:   5    -0.231856087878E+04    0.25042E-02   -0.87169E-03  5842   0.453E-02    0.508E-01
RMM:   6    -0.231855953351E+04    0.13453E-02   -0.54956E-03  6037   0.382E-02    0.430E-01
RMM:   7    -0.231855787773E+04    0.16558E-02   -0.40014E-03  5593   0.335E-02    0.112E-01
RMM:   8    -0.231855791726E+04   -0.39531E-04   -0.48328E-04  4606   0.174E-02    0.969E-02
RMM:   9    -0.231855789003E+04    0.27229E-04   -0.18315E-04  3572   0.810E-03    0.694E-02
RMM:  10    -0.231855787261E+04    0.17421E-04   -0.82502E-05  3114   0.620E-03    0.316E-02
RMM:  11    -0.231855788942E+04   -0.16807E-04   -0.40642E-05  3035   0.444E-03    0.123E-02
RMM:  12    -0.231855791056E+04   -0.21144E-04   -0.11686E-05  2924   0.353E-03    0.620E-03
RMM:  13    -0.231855792241E+04   -0.11855E-04   -0.48155E-06  2826   0.276E-03    0.355E-03
RMM:  14    -0.231855793167E+04   -0.92575E-05   -0.34550E-06  2725   0.219E-03
  54 F= -.23398830E+04 E0= -.23398830E+04  d E =-.109420E-01  mag=     3.0000
       N       E                     dE             d eps       ncg     rms          rms(c)
DAV:   1    -0.231840763387E+04    0.15029E+00   -0.83652E+00  4504   0.266E+00    0.917E-01
RMM:   2    -0.231856682775E+04   -0.15919E+00   -0.16040E+00  6669   0.701E-01    0.123E+00
RMM:   3    -0.231856660446E+04    0.22329E-03   -0.16156E-01  6453   0.228E-01    0.724E-01
RMM:   4    -0.231856450071E+04    0.21038E-02   -0.17762E-02  6249   0.572E-02    0.416E-01
RMM:   5    -0.231856293546E+04    0.15652E-02   -0.27128E-03  5748   0.260E-02    0.258E-01
RMM:   6    -0.231856198554E+04    0.94992E-03   -0.20897E-03  5401   0.251E-02    0.110E-01
RMM:   7    -0.231856215254E+04   -0.16699E-03   -0.87745E-04  5013   0.197E-02    0.137E-01
RMM:   8    -0.231856192226E+04    0.23027E-03   -0.21784E-04  3848   0.950E-03    0.284E-02
RMM:   9    -0.231856191071E+04    0.11554E-04   -0.36130E-05  3000   0.505E-03    0.153E-02
RMM:  10    -0.231856191066E+04    0.47992E-07   -0.18549E-05  2954   0.319E-03
  55 F= -.23398858E+04 E0= -.23398858E+04  d E =-.137490E-01  mag=     3.0000
       N       E                     dE             d eps       ncg     rms          rms(c)
DAV:   1    -0.231852991950E+04    0.31991E-01   -0.19046E+00  4504   0.123E+00    0.418E-01
RMM:   2    -0.231856514149E+04   -0.35222E-01   -0.37500E-01  6674   0.322E-01    0.308E-01
RMM:   3    -0.231856853866E+04   -0.33972E-02   -0.38522E-02  6193   0.106E-01    0.373E-01
RMM:   4    -0.231856770993E+04    0.82874E-03   -0.39092E-03  5101   0.262E-02    0.158E-01
RMM:   5    -0.231856765748E+04    0.52451E-04   -0.56396E-04  4223   0.125E-02    0.156E-01
RMM:   6    -0.231856735724E+04    0.30024E-03   -0.43608E-04  4633   0.123E-02    0.559E-02
RMM:   7    -0.231856734274E+04    0.14495E-04   -0.20402E-04  4177   0.858E-03    0.339E-02
RMM:   8    -0.231856733544E+04    0.73010E-05   -0.34080E-05  2961   0.562E-03
  56 F= -.23398918E+04 E0= -.23398918E+04  d E =-.601371E-02  mag=     3.0000
       N       E                     dE             d eps       ncg     rms          rms(c)
DAV:   1    -0.231823859193E+04    0.32875E+00   -0.17112E+01  4504   0.370E+00    0.126E+00
RMM:   2    -0.231855597645E+04   -0.31738E+00   -0.33984E+00  6668   0.961E-01    0.760E-01
RMM:   3    -0.231858518136E+04   -0.29205E-01   -0.36218E-01  6357   0.319E-01    0.716E-01
RMM:   4    -0.231858151279E+04    0.36686E-02   -0.33645E-02  6497   0.746E-02    0.434E-01
RMM:   5    -0.231857959583E+04    0.19170E-02   -0.40359E-03  5674   0.330E-02    0.277E-01
RMM:   6    -0.231858034194E+04   -0.74611E-03   -0.30290E-03  5816   0.281E-02    0.445E-01
RMM:   7    -0.231857873791E+04    0.16040E-02   -0.22390E-03  5734   0.246E-02    0.118E-01
RMM:   8    -0.231857867654E+04    0.61379E-04   -0.34260E-04  3958   0.110E-02    0.667E-02
RMM:   9    -0.231857866128E+04    0.15260E-04   -0.10761E-04  3171   0.664E-03    0.549E-02
RMM:  10    -0.231857863268E+04    0.28598E-04   -0.47928E-05  3035   0.522E-03    0.212E-02
RMM:  11    -0.231857863338E+04   -0.70017E-06   -0.24452E-05  2980   0.360E-03
  57 F= -.23399049E+04 E0= -.23399049E+04  d E =-.190847E-01  mag=     3.0000
       N       E                     dE             d eps       ncg     rms          rms(c)
DAV:   1    -0.231716625744E+04    0.14124E+01   -0.68002E+01  4504   0.741E+00    0.263E+00
RMM:   2    -0.231853686506E+04   -0.13706E+01   -0.14337E+01  6658   0.198E+00    0.239E+00
RMM:   3    -0.231862754455E+04   -0.90679E-01   -0.15488E+00  6469   0.711E-01    0.209E+00
RMM:   4    -0.231859330555E+04    0.34239E-01   -0.14169E-01  6647   0.163E-01    0.120E+00
RMM:   5    -0.231858371851E+04    0.95870E-02   -0.19322E-02  6018   0.686E-02    0.671E-01
RMM:   6    -0.231858268108E+04    0.10374E-02   -0.15546E-02  6333   0.621E-02    0.656E-01
RMM:   7    -0.231857777404E+04    0.49070E-02   -0.92353E-03  6084   0.514E-02    0.208E-01
RMM:   8    -0.231857790399E+04   -0.12995E-03   -0.19564E-03  5518   0.254E-02    0.185E-01
RMM:   9    -0.231857780982E+04    0.94174E-04   -0.71855E-04  4705   0.142E-02    0.168E-01
RMM:  10    -0.231857763239E+04    0.17743E-03   -0.24581E-04  3632   0.919E-03    0.615E-02
RMM:  11    -0.231857764615E+04   -0.13761E-04   -0.12133E-04  3189   0.648E-03    0.189E-02
RMM:  12    -0.231857767964E+04   -0.33491E-04   -0.31394E-05  2999   0.466E-03    0.765E-03
RMM:  13    -0.231857769698E+04   -0.17337E-04   -0.83847E-06  2909   0.366E-03    0.561E-03
RMM:  14    -0.231857770886E+04   -0.11879E-04   -0.50329E-06  2844   0.268E-03    0.287E-03
RMM:  15    -0.231857771691E+04   -0.80528E-05   -0.33099E-06  2745   0.228E-03
  58 F= -.23399073E+04 E0= -.23399073E+04  d E =-.215808E-01  mag=     3.0000
       N       E                     dE             d eps       ncg     rms          rms(c)
DAV:   1    -0.231830953993E+04    0.26817E+00   -0.13660E+01  4504   0.331E+00    0.124E+00
RMM:   2    -0.231860354309E+04   -0.29400E+00   -0.28874E+00  6693   0.917E-01    0.195E+00
RMM:   3    -0.231858866247E+04    0.14881E-01   -0.28135E-01  6428   0.293E-01    0.869E-01
RMM:   4    -0.231858715842E+04    0.15040E-02   -0.33793E-02  6390   0.754E-02    0.587E-01
RMM:   5    -0.231858379555E+04    0.33629E-02   -0.50830E-03  6023   0.344E-02    0.333E-01
RMM:   6    -0.231858246756E+04    0.13280E-02   -0.30944E-03  5336   0.287E-02    0.183E-01
RMM:   7    -0.231858265608E+04   -0.18852E-03   -0.17652E-03  5319   0.260E-02    0.198E-01
RMM:   8    -0.231858222192E+04    0.43416E-03   -0.45339E-04  4734   0.131E-02    0.581E-02
RMM:   9    -0.231858218911E+04    0.32810E-04   -0.72198E-05  3162   0.624E-03    0.303E-02
RMM:  10    -0.231858218060E+04    0.85043E-05   -0.35348E-05  3032   0.408E-03
  59 F= -.23399103E+04 E0= -.23399103E+04  d E =-.245575E-01  mag=     3.0000
       N       E                     dE             d eps       ncg     rms          rms(c)
DAV:   1    -0.231852479712E+04    0.57392E-01   -0.30472E+00  4504   0.153E+00    0.545E-01
RMM:   2    -0.231858624127E+04   -0.61444E-01   -0.64398E-01  6699   0.415E-01    0.511E-01
RMM:   3    -0.231859201000E+04   -0.57687E-02   -0.67211E-02  6331   0.137E-01    0.568E-01
RMM:   4    -0.231859014673E+04    0.18633E-02   -0.69685E-03  5715   0.354E-02    0.227E-01
RMM:   5    -0.231858985963E+04    0.28711E-03   -0.99731E-04  4780   0.157E-02    0.187E-01
RMM:   6    -0.231858939608E+04    0.46355E-03   -0.64798E-04  4907   0.143E-02    0.685E-02
RMM:   7    -0.231858939671E+04   -0.62492E-06   -0.34631E-04  4455   0.112E-02    0.566E-02
RMM:   8    -0.231858936917E+04    0.27537E-04   -0.67985E-05  3036   0.643E-03    0.279E-02
RMM:   9    -0.231858936066E+04    0.85117E-05   -0.15564E-05  3016   0.378E-03
  60 F= -.23399182E+04 E0= -.23399182E+04  d E =-.783721E-02  mag=     3.0000
       N       E                     dE             d eps       ncg     rms          rms(c)
DAV:   1    -0.231801177843E+04    0.57759E+00   -0.27381E+01  4504   0.459E+00    0.164E+00
RMM:   2    -0.231856278474E+04   -0.55101E+00   -0.58510E+00  6687   0.125E+00    0.109E+00
RMM:   3    -0.231861918302E+04   -0.56398E-01   -0.64517E-01  6476   0.435E-01    0.112E+00
RMM:   4    -0.231860789449E+04    0.11289E-01   -0.59405E-02  6584   0.998E-02    0.527E-01
RMM:   5    -0.231860518350E+04    0.27110E-02   -0.61279E-03  5777   0.407E-02    0.398E-01
RMM:   6    -0.231860683533E+04   -0.16518E-02   -0.70055E-03  6081   0.401E-02    0.636E-01
RMM:   7    -0.231860355210E+04    0.32832E-02   -0.30006E-03  6060   0.292E-02    0.124E-01
RMM:   8    -0.231860353113E+04    0.20976E-04   -0.67634E-04  4704   0.137E-02    0.120E-01
RMM:   9    -0.231860346618E+04    0.64946E-04   -0.21446E-04  3472   0.849E-03    0.791E-02
RMM:  10    -0.231860341091E+04    0.55271E-04   -0.95294E-05  3190   0.646E-03    0.356E-02
RMM:  11    -0.231860340821E+04    0.27014E-05   -0.45632E-05  3035   0.459E-03
  61 F= -.23399341E+04 E0= -.23399341E+04  d E =-.237326E-01  mag=     3.0000
       N       E                     dE             d eps       ncg     rms          rms(c)
DAV:   1    -0.231606516168E+04    0.25382E+01   -0.10849E+02  4504   0.923E+00    0.360E+00
RMM:   2    -0.231867491172E+04   -0.26098E+01   -0.26271E+01  6678   0.260E+00    0.469E+00
RMM:   3    -0.231866642586E+04    0.84859E-02   -0.28349E+00  6364   0.966E-01    0.265E+00
RMM:   4    -0.231861109249E+04    0.55333E-01   -0.25463E-01  6417   0.209E-01    0.158E+00
RMM:   5    -0.231860136537E+04    0.97271E-02   -0.27196E-02  5890   0.790E-02    0.983E-01
RMM:   6    -0.231860004806E+04    0.13173E-02   -0.21584E-02  6205   0.645E-02    0.902E-01
RMM:   7    -0.231859048295E+04    0.95651E-02   -0.16249E-02  6215   0.665E-02    0.328E-01
RMM:   8    -0.231859033813E+04    0.14482E-03   -0.57656E-03  5654   0.387E-02    0.313E-01
RMM:   9    -0.231859033513E+04    0.29981E-05   -0.15685E-03  5493   0.234E-02    0.307E-01
RMM:  10    -0.231858993520E+04    0.39992E-03   -0.53819E-04  4302   0.125E-02    0.958E-02
RMM:  11    -0.231858998434E+04   -0.49134E-04   -0.24211E-04  3860   0.810E-03    0.422E-02
RMM:  12    -0.231859003855E+04   -0.54212E-04   -0.70922E-05  3266   0.569E-03    0.164E-02
RMM:  13    -0.231859007021E+04   -0.31663E-04   -0.18482E-05  2952   0.442E-03    0.772E-03
RMM:  14    -0.231859008891E+04   -0.18697E-04   -0.88420E-06  2894   0.339E-03    0.567E-03
RMM:  15    -0.231859009997E+04   -0.11061E-04   -0.52413E-06  2829   0.285E-03    0.310E-03
RMM:  16    -0.231859010712E+04   -0.71446E-05   -0.35571E-06  2724   0.227E-03
  62 F= -.23399236E+04 E0= -.23399236E+04  d E =-.132605E-01  mag=     3.0000
       N       E                     dE             d eps       ncg     rms          rms(c)
DAV:   1    -0.231742537437E+04    0.11647E+01   -0.53502E+01  4504   0.639E+00    0.291E+00
RMM:   2    -0.231900975423E+04   -0.15844E+01   -0.13723E+01  6706   0.194E+00    0.631E+00
RMM:   3    -0.231862119001E+04    0.38856E+00   -0.13027E+00  6085   0.658E-01    0.146E+00
RMM:   4    -0.231863567767E+04   -0.14488E-01   -0.20779E-01  6624   0.174E-01    0.149E+00
RMM:   5    -0.231861148434E+04    0.24193E-01   -0.27313E-02  6384   0.779E-02    0.672E-01
RMM:   6    -0.231861010346E+04    0.13809E-02   -0.10620E-02  5610   0.485E-02    0.658E-01
RMM:   7    -0.231860831540E+04    0.17881E-02   -0.97884E-03  6257   0.525E-02    0.476E-01
RMM:   8    -0.231860627426E+04    0.20411E-02   -0.40650E-03  6117   0.336E-02    0.244E-01
RMM:   9    -0.231860601899E+04    0.25527E-03   -0.50448E-04  4300   0.125E-02    0.147E-01
RMM:  10    -0.231860589093E+04    0.12806E-03   -0.22886E-04  3476   0.865E-03    0.339E-02
RMM:  11    -0.231860587959E+04    0.11345E-04   -0.48893E-05  3053   0.511E-03    0.273E-02
RMM:  12    -0.231860587276E+04    0.68315E-05   -0.26151E-05  2967   0.419E-03
  63 F= -.23399375E+04 E0= -.23399375E+04  d E =-.271868E-01  mag=     3.0000
       N       E                     dE             d eps       ncg     rms          rms(c)
DAV:   1    -0.231853655636E+04    0.69323E-01   -0.34783E+00  4504   0.164E+00    0.632E-01
RMM:   2    -0.231861759876E+04   -0.81042E-01   -0.81632E-01  6690   0.469E-01    0.862E-01
RMM:   3    -0.231862071351E+04   -0.31147E-02   -0.81768E-02  6398   0.153E-01    0.652E-01
RMM:   4    -0.231861902986E+04    0.16836E-02   -0.92864E-03  5980   0.415E-02    0.324E-01
RMM:   5    -0.231861802265E+04    0.10072E-02   -0.16062E-03  5327   0.200E-02    0.191E-01
RMM:   6    -0.231861749835E+04    0.52430E-03   -0.91737E-04  5282   0.161E-02    0.794E-02
RMM:   7    -0.231861749051E+04    0.78361E-05   -0.28074E-04  4343   0.122E-02    0.487E-02
RMM:   8    -0.231861747821E+04    0.12301E-04   -0.73184E-05  3058   0.643E-03    0.345E-02
RMM:   9    -0.231861746449E+04    0.13718E-04   -0.17445E-05  2938   0.431E-03    0.126E-02
RMM:  10    -0.231861746296E+04    0.15356E-05   -0.76058E-06  2957   0.220E-03
  64 F= -.23399494E+04 E0= -.23399494E+04  d E =-.119059E-01  mag=     3.0000
       N       E                     dE             d eps       ncg     rms          rms(c)
DAV:   1    -0.231788416172E+04    0.73330E+00   -0.31221E+01  4504   0.492E+00    0.187E+00
RMM:   2    -0.231859001987E+04   -0.70586E+00   -0.73526E+00  6683   0.141E+00    0.162E+00
RMM:   3    -0.231866579818E+04   -0.75778E-01   -0.86261E-01  6526   0.507E-01    0.192E+00
RMM:   4    -0.231864209683E+04    0.23701E-01   -0.85154E-02  6469   0.121E-01    0.797E-01
RMM:   5    -0.231863965968E+04    0.24371E-02   -0.12787E-02  6266   0.526E-02    0.795E-01
RMM:   6    -0.231863342202E+04    0.62377E-02   -0.69986E-03  5870   0.443E-02    0.277E-01
RMM:   7    -0.231863274133E+04    0.68069E-03   -0.50673E-03  5626   0.355E-02    0.183E-01
RMM:   8    -0.231863259801E+04    0.14332E-03   -0.57199E-04  4686   0.191E-02    0.902E-02
RMM:   9    -0.231863260627E+04   -0.82574E-05   -0.18728E-04  3589   0.844E-03    0.815E-02
RMM:  10    -0.231863255075E+04    0.55518E-04   -0.91698E-05  3169   0.689E-03    0.253E-02
RMM:  11    -0.231863255239E+04   -0.16466E-05   -0.35419E-05  3011   0.414E-03
  65 F= -.23399653E+04 E0= -.23399653E+04  d E =-.277563E-01  mag=     3.0000
       N       E                     dE             d eps       ncg     rms          rms(c)
DAV:   1    -0.231847095001E+04    0.16160E+00   -0.75973E+00  4504   0.246E+00    0.948E-01
RMM:   2    -0.231864650278E+04   -0.17555E+00   -0.17716E+00  6684   0.701E-01    0.132E+00
RMM:   3    -0.231865672885E+04   -0.10226E-01   -0.19397E-01  6477   0.241E-01    0.108E+00
RMM:   4    -0.231865151911E+04    0.52097E-02   -0.21409E-02  6286   0.642E-02    0.479E-01
RMM:   5    -0.231864928255E+04    0.22366E-02   -0.38200E-03  5929   0.309E-02    0.295E-01
RMM:   6    -0.231864805261E+04    0.12299E-02   -0.20886E-03  5673   0.245E-02    0.122E-01
RMM:   7    -0.231864799233E+04    0.60280E-04   -0.73147E-04  4978   0.184E-02    0.662E-02
RMM:   8    -0.231864798399E+04    0.83400E-05   -0.15954E-04  3507   0.908E-03    0.574E-02
RMM:   9    -0.231864795461E+04    0.29384E-04   -0.51901E-05  3040   0.635E-03    0.264E-02
RMM:  10    -0.231864795076E+04    0.38447E-05   -0.20062E-05  3032   0.361E-03
  66 F= -.23399805E+04 E0= -.23399805E+04  d E =-.151934E-01  mag=     3.0000
       N       E                     dE             d eps       ncg     rms          rms(c)
DAV:   1    -0.231856917173E+04    0.78783E-01   -0.35511E+00  4504   0.169E+00    0.658E-01
RMM:   2    -0.231865365647E+04   -0.84485E-01   -0.83598E-01  6680   0.482E-01    0.105E+00
RMM:   3    -0.231865519535E+04   -0.15389E-02   -0.85737E-02  6409   0.160E-01    0.686E-01
RMM:   4    -0.231865348911E+04    0.17062E-02   -0.10180E-02  6093   0.440E-02    0.343E-01
RMM:   5    -0.231865226199E+04    0.12271E-02   -0.18422E-03  5546   0.218E-02    0.192E-01
RMM:   6    -0.231865172214E+04    0.53985E-03   -0.10293E-03  5450   0.173E-02    0.889E-02
RMM:   7    -0.231865168530E+04    0.36845E-04   -0.31523E-04  4643   0.133E-02    0.355E-02
RMM:   8    -0.231865168100E+04    0.42998E-05   -0.58475E-05  3079   0.603E-03
  67 F= -.23399840E+04 E0= -.23399840E+04  d E =-.187372E-01  mag=     3.0000
       N       E                     dE             d eps       ncg     rms          rms(c)
DAV:   1    -0.231861869987E+04    0.32985E-01   -0.26783E+00  4516   0.154E+00    0.521E-01
RMM:   2    -0.231866337388E+04   -0.44674E-01   -0.45455E-01  6622   0.374E-01    0.716E-01
RMM:   3    -0.231866649721E+04   -0.31233E-02   -0.50766E-02  6351   0.129E-01    0.621E-01
RMM:   4    -0.231866426164E+04    0.22356E-02   -0.53179E-03  5917   0.342E-02    0.207E-01
RMM:   5    -0.231866406154E+04    0.20010E-03   -0.99844E-04  5077   0.180E-02    0.176E-01
RMM:   6    -0.231866365235E+04    0.40919E-03   -0.64455E-04  5084   0.158E-02    0.570E-02
RMM:   7    -0.231866365074E+04    0.16107E-05   -0.17059E-04  4212   0.114E-02    0.340E-02
RMM:   8    -0.231866365047E+04    0.26399E-06   -0.43488E-05  2977   0.538E-03
  68 F= -.23399955E+04 E0= -.23399955E+04  d E =-.115423E-01  mag=     3.0000
       N       E                     dE             d eps       ncg     rms          rms(c)
DAV:   1    -0.231828083678E+04    0.38281E+00   -0.23052E+01  4504   0.452E+00    0.149E+00
RMM:   2    -0.231864791870E+04   -0.36708E+00   -0.38966E+00  6614   0.109E+00    0.134E+00
RMM:   3    -0.231870826974E+04   -0.60351E-01   -0.45348E-01  6415   0.391E-01    0.219E+00
RMM:   4    -0.231867653496E+04    0.31735E-01   -0.46266E-02  6495   0.103E-01    0.540E-01
RMM:   5    -0.231867680355E+04   -0.26860E-03   -0.10111E-02  6145   0.493E-02    0.623E-01
RMM:   6    -0.231867265647E+04    0.41471E-02   -0.54688E-03  5922   0.427E-02    0.221E-01
RMM:   7    -0.231867227644E+04    0.38002E-03   -0.24840E-03  5413   0.291E-02    0.123E-01
RMM:   8    -0.231867229473E+04   -0.18288E-04   -0.42046E-04  4690   0.164E-02    0.914E-02
RMM:   9    -0.231867226777E+04    0.26959E-04   -0.15402E-04  3472   0.772E-03    0.611E-02
RMM:  10    -0.231867225397E+04    0.13796E-04   -0.68360E-05  3093   0.617E-03    0.197E-02
RMM:  11    -0.231867228086E+04   -0.26888E-04   -0.31187E-05  3000   0.414E-03    0.144E-02
RMM:  12    -0.231867229706E+04   -0.16194E-04   -0.81197E-06  2896   0.367E-03    0.581E-03
RMM:  13    -0.231867230955E+04   -0.12495E-04   -0.53787E-06  2837   0.260E-03    0.356E-03
RMM:  14    -0.231867231820E+04   -0.86475E-05   -0.31210E-06  2790   0.238E-03
  69 F= -.23400028E+04 E0= -.23400028E+04  d E =-.187657E-01  mag=     3.0000
       N       E                     dE             d eps       ncg     rms          rms(c)
DAV:   1    -0.231863585777E+04    0.36452E-01   -0.22675E+00  4516   0.141E+00    0.512E-01
RMM:   2    -0.231867901395E+04   -0.43156E-01   -0.39943E-01  6624   0.356E-01    0.100E+00
RMM:   3    -0.231867510478E+04    0.39092E-02   -0.42829E-02  6328   0.120E-01    0.392E-01
RMM:   4    -0.231867460562E+04    0.49916E-03   -0.50243E-03  5878   0.309E-02    0.225E-01
RMM:   5    -0.231867416590E+04    0.43972E-03   -0.93508E-04  5066   0.169E-02    0.143E-01
RMM:   6    -0.231867390531E+04    0.26059E-03   -0.55125E-04  4895   0.143E-02    0.810E-02
RMM:   7    -0.231867392479E+04   -0.19479E-04   -0.23488E-04  3852   0.128E-02    0.719E-02
RMM:   8    -0.231867386727E+04    0.57523E-04   -0.61284E-05  3023   0.595E-03    0.254E-02
RMM:   9    -0.231867386156E+04    0.57050E-05   -0.11639E-05  2928   0.411E-03
  70 F= -.23400048E+04 E0= -.23400048E+04  d E =-.207916E-01  mag=     3.0000
       N       E                     dE             d eps       ncg     rms          rms(c)
DAV:   1    -0.231865826292E+04    0.15604E-01   -0.17300E+00  4528   0.124E+00    0.395E-01
RMM:   2    -0.231868286762E+04   -0.24605E-01   -0.24794E-01  6576   0.284E-01    0.573E-01
RMM:   3    -0.231868428592E+04   -0.14183E-02   -0.27409E-02  6241   0.970E-02    0.466E-01
RMM:   4    -0.231868296462E+04    0.13213E-02   -0.28127E-03  5615   0.251E-02    0.144E-01
RMM:   5    -0.231868292730E+04    0.37319E-04   -0.56111E-04  4412   0.139E-02    0.139E-01
RMM:   6    -0.231868267306E+04    0.25424E-03   -0.37970E-04  4907   0.126E-02    0.442E-02
RMM:   7    -0.231868266735E+04    0.57034E-05   -0.10093E-04  3635   0.891E-03    0.215E-02
RMM:   8    -0.231868266673E+04    0.61965E-06   -0.22183E-05  2947   0.472E-03
  71 F= -.23400133E+04 E0= -.23400133E+04  d E =-.849807E-02  mag=     3.0000
       N       E                     dE             d eps       ncg     rms          rms(c)
DAV:   1    -0.231847525954E+04    0.20741E+00   -0.15560E+01  4504   0.373E+00    0.116E+00
RMM:   2    -0.231868770013E+04   -0.21244E+00   -0.22308E+00  6578   0.849E-01    0.125E+00
RMM:   3    -0.231871822194E+04   -0.30522E-01   -0.25506E-01  6442   0.297E-01    0.170E+00
RMM:   4    -0.231869948224E+04    0.18740E-01   -0.26921E-02  6347   0.790E-02    0.432E-01
RMM:   5    -0.231869941090E+04    0.71345E-04   -0.55468E-03  6035   0.390E-02    0.461E-01
RMM:   6    -0.231869705394E+04    0.23570E-02   -0.32188E-03  5689   0.333E-02    0.166E-01
RMM:   7    -0.231869689852E+04    0.15542E-03   -0.13393E-03  5521   0.232E-02    0.929E-02
RMM:   8    -0.231869689923E+04   -0.71008E-06   -0.24323E-04  4092   0.114E-02    0.706E-02
RMM:   9    -0.231869687718E+04    0.22046E-04   -0.94681E-05  3057   0.678E-03    0.431E-02
RMM:  10    -0.231869687573E+04    0.14543E-05   -0.37042E-05  2980   0.491E-03
  72 F= -.23400265E+04 E0= -.23400265E+04  d E =-.217094E-01  mag=     3.0000
       N       E                     dE             d eps       ncg     rms          rms(c)
DAV:   1    -0.231869126212E+04    0.56151E-02   -0.13088E+00  4560   0.115E+00    0.375E-01
RMM:   2    -0.231870857071E+04   -0.17309E-01   -0.16575E-01  6473   0.262E-01    0.621E-01
RMM:   3    -0.231870793897E+04    0.63173E-03   -0.16360E-02  6219   0.850E-02    0.382E-01
RMM:   4    -0.231870699062E+04    0.94835E-03   -0.18385E-03  5454   0.243E-02    0.118E-01
RMM:   5    -0.231870710775E+04   -0.11713E-03   -0.61301E-04  5019   0.170E-02    0.155E-01
RMM:   6    -0.231870681357E+04    0.29419E-03   -0.39579E-04  5294   0.136E-02    0.410E-02
RMM:   7    -0.231870681031E+04    0.32579E-05   -0.62931E-05  3050   0.814E-03
  73 F= -.23400363E+04 E0= -.23400363E+04  d E =-.978429E-02  mag=     3.0000
       N       E                     dE             d eps       ncg     rms          rms(c)
DAV:   1    -0.231867312953E+04    0.33684E-01   -0.33004E+00  4504   0.182E+00    0.591E-01
RMM:   2    -0.231871565188E+04   -0.42522E-01   -0.41591E-01  6452   0.415E-01    0.913E-01
RMM:   3    -0.231871556578E+04    0.86098E-04   -0.41347E-02  6294   0.137E-01    0.646E-01
RMM:   4    -0.231871281096E+04    0.27548E-02   -0.45775E-03  5700   0.390E-02    0.186E-01
RMM:   5    -0.231871312470E+04   -0.31374E-03   -0.15441E-03  5628   0.264E-02    0.251E-01
RMM:   6    -0.231871236212E+04    0.76258E-03   -0.95257E-04  5588   0.206E-02    0.654E-02
RMM:   7    -0.231871233464E+04    0.27479E-04   -0.15426E-04  4098   0.112E-02    0.321E-02
RMM:   8    -0.231871233891E+04   -0.42726E-05   -0.51447E-05  2963   0.548E-03
  74 F= -.23400416E+04 E0= -.23400416E+04  d E =-.150721E-01  mag=     3.0000
       N       E                     dE             d eps       ncg     rms          rms(c)
DAV:   1    -0.231870153876E+04    0.10796E-01   -0.14943E+00  4544   0.125E+00    0.371E-01
RMM:   2    -0.231872249991E+04   -0.20961E-01   -0.19574E-01  6620   0.286E-01    0.706E-01
RMM:   3    -0.231872088225E+04    0.16177E-02   -0.18373E-02  6288   0.878E-02    0.324E-01
RMM:   4    -0.231872021749E+04    0.66476E-03   -0.19563E-03  5238   0.224E-02    0.108E-01
RMM:   5    -0.231872016752E+04    0.49966E-04   -0.46236E-04  5264   0.148E-02    0.103E-01
RMM:   6    -0.231872011022E+04    0.57297E-04   -0.35529E-04  4336   0.126E-02    0.728E-02
RMM:   7    -0.231872005652E+04    0.53705E-04   -0.56079E-05  3122   0.631E-03    0.136E-02
RMM:   8    -0.231872005594E+04    0.58314E-06   -0.10079E-05  2976   0.384E-03
  75 F= -.23400491E+04 E0= -.23400491E+04  d E =-.754869E-02  mag=     3.0000
       N       E                     dE             d eps       ncg     rms          rms(c)
DAV:   1    -0.231856420134E+04    0.15586E+00   -0.13439E+01  4504   0.374E+00    0.109E+00
RMM:   2    -0.231874755004E+04   -0.18335E+00   -0.17506E+00  6626   0.853E-01    0.196E+00
RMM:   3    -0.231873965737E+04    0.78927E-02   -0.16917E-01  6498   0.263E-01    0.102E+00
RMM:   4    -0.231873297032E+04    0.66870E-02   -0.17843E-02  5823   0.675E-02    0.346E-01
RMM:   5    -0.231873370919E+04   -0.73887E-03   -0.48781E-03  6230   0.412E-02    0.448E-01
RMM:   6    -0.231873135043E+04    0.23588E-02   -0.37829E-03  5914   0.377E-02    0.150E-01
RMM:   7    -0.231873124632E+04    0.10410E-03   -0.64641E-04  5058   0.177E-02    0.629E-02
RMM:   8    -0.231873124837E+04   -0.20495E-05   -0.13469E-04  3232   0.817E-03    0.569E-02
RMM:   9    -0.231873121937E+04    0.29000E-04   -0.49549E-05  3023   0.592E-03    0.261E-02
RMM:  10    -0.231873121788E+04    0.14945E-05   -0.23528E-05  3057   0.371E-03
  76 F= -.23400598E+04 E0= -.23400598E+04  d E =-.182208E-01  mag=     3.0000
       N       E                     dE             d eps       ncg     rms          rms(c)
DAV:   1    -0.231871388903E+04    0.17330E-01   -0.25830E+00  4504   0.166E+00    0.494E-01
[...]
       N       E                     dE             d eps       ncg     rms          rms(c)
DAV:   1    -0.231904000963E+04    0.19263E-02   -0.21274E-01  4528   0.411E-01    0.135E-01
RMM:   2    -0.231904263652E+04   -0.26269E-02   -0.26085E-02  6106   0.979E-02    0.145E-01
RMM:   3    -0.231904273558E+04   -0.99061E-04   -0.21474E-03  4636   0.312E-02    0.135E-01
RMM:   4    -0.231904255296E+04    0.18262E-03   -0.25882E-04  3234   0.917E-03    0.477E-02
RMM:   5    -0.231904254629E+04    0.66732E-05   -0.56331E-05  2962   0.550E-03
 168 F= -.23404386E+04 E0= -.23404386E+04  d E =-.480121E-03  mag=     2.9995
       N       E                     dE             d eps       ncg     rms          rms(c)
DAV:   1    -0.231904185648E+04    0.69648E-03   -0.65753E-02  4560   0.228E-01    0.743E-02
RMM:   2    -0.231904264515E+04   -0.78868E-03   -0.80140E-03  6292   0.545E-02    0.709E-02
RMM:   3    -0.231904269878E+04   -0.53629E-04   -0.72299E-04  3406   0.179E-02    0.767E-02
RMM:   4    -0.231904263925E+04    0.59528E-04   -0.82548E-05  3031   0.627E-03    0.260E-02
RMM:   5    -0.231904264116E+04   -0.19100E-05   -0.23886E-05  2907   0.367E-03
 169 F= -.23404386E+04 E0= -.23404386E+04  d E =-.499932E-03  mag=     2.9996
       N       E                     dE             d eps       ncg     rms          rms(c)
DAV:   1    -0.231904106767E+04    0.15716E-02   -0.16760E-01  4528   0.356E-01    0.118E-01
RMM:   2    -0.231904320873E+04   -0.21411E-02   -0.21220E-02  6162   0.867E-02    0.131E-01
RMM:   3    -0.231904328813E+04   -0.79405E-04   -0.17485E-03  4346   0.278E-02    0.120E-01
RMM:   4    -0.231904314760E+04    0.14053E-03   -0.20725E-04  3148   0.829E-03    0.393E-02
RMM:   5    -0.231904314378E+04    0.38217E-05   -0.41517E-05  2954   0.467E-03
 170 F= -.23404390E+04 E0= -.23404390E+04  d E =-.403115E-03  mag=     2.9996
       N       E                     dE             d eps       ncg     rms          rms(c)
DAV:   1    -0.231904125912E+04    0.18885E-02   -0.16691E-01  4528   0.355E-01    0.117E-01
RMM:   2    -0.231904336278E+04   -0.21037E-02   -0.20937E-02  6233   0.860E-02    0.126E-01
RMM:   3    -0.231904345930E+04   -0.96520E-04   -0.18526E-03  4259   0.281E-02    0.118E-01
RMM:   4    -0.231904332080E+04    0.13850E-03   -0.20818E-04  3147   0.840E-03    0.403E-02
RMM:   5    -0.231904331883E+04    0.19659E-05   -0.45916E-05  2962   0.489E-03
 171 F= -.23404391E+04 E0= -.23404391E+04  d E =-.478554E-03  mag=     2.9996
       N       E                     dE             d eps       ncg     rms          rms(c)
DAV:   1    -0.231904150707E+04    0.18137E-02   -0.19820E-01  4516   0.385E-01    0.126E-01
RMM:   2    -0.231904388994E+04   -0.23829E-02   -0.23872E-02  6209   0.925E-02    0.129E-01
RMM:   3    -0.231904402051E+04   -0.13057E-03   -0.20017E-03  4537   0.303E-02    0.132E-01
RMM:   4    -0.231904384832E+04    0.17219E-03   -0.23554E-04  3171   0.887E-03    0.406E-02
RMM:   5    -0.231904384526E+04    0.30617E-05   -0.47741E-05  2975   0.507E-03
 172 F= -.23404395E+04 E0= -.23404395E+04  d E =-.423202E-03  mag=     2.9996
       N       E                     dE             d eps       ncg     rms          rms(c)
DAV:   1    -0.231904089970E+04    0.29486E-02   -0.26811E-01  4504   0.447E-01    0.147E-01
RMM:   2    -0.231904413336E+04   -0.32337E-02   -0.32292E-02  6220   0.107E-01    0.155E-01
RMM:   3    -0.231904428327E+04   -0.14991E-03   -0.27304E-03  4837   0.351E-02    0.150E-01
RMM:   4    -0.231904406011E+04    0.22316E-03   -0.31712E-04  3304   0.989E-03    0.495E-02
RMM:   5    -0.231904405513E+04    0.49768E-05   -0.65775E-05  2987   0.583E-03
 173 F= -.23404396E+04 E0= -.23404396E+04  d E =-.512994E-03  mag=     2.9996
       N       E                     dE             d eps       ncg     rms          rms(c)
DAV:   1    -0.231904198101E+04    0.20791E-02   -0.22263E-01  4516   0.401E-01    0.130E-01
RMM:   2    -0.231904459665E+04   -0.26156E-02   -0.26444E-02  6283   0.964E-02    0.127E-01
RMM:   3    -0.231904477148E+04   -0.17482E-03   -0.22655E-03  4619   0.317E-02    0.138E-01
RMM:   4    -0.231904458274E+04    0.18874E-03   -0.26261E-04  3196   0.928E-03    0.426E-02
RMM:   5    -0.231904458109E+04    0.16437E-05   -0.53819E-05  2979   0.530E-03
 174 F= -.23404400E+04 E0= -.23404400E+04  d E =-.440086E-03  mag=     2.9996
       N       E                     dE             d eps       ncg     rms          rms(c)
DAV:   1    -0.231904190531E+04    0.26774E-02   -0.24598E-01  4516   0.421E-01    0.138E-01
RMM:   2    -0.231904481544E+04   -0.29101E-02   -0.29259E-02  6267   0.101E-01    0.141E-01
RMM:   3    -0.231904497162E+04   -0.15618E-03   -0.25151E-03  4766   0.334E-02    0.140E-01
RMM:   4    -0.231904477597E+04    0.19565E-03   -0.28843E-04  3247   0.956E-03    0.476E-02
RMM:   5    -0.231904477164E+04    0.43255E-05   -0.59598E-05  2979   0.558E-03
 175 F= -.23404401E+04 E0= -.23404401E+04  d E =-.540376E-03  mag=     2.9996
       N       E                     dE             d eps       ncg     rms          rms(c)
DAV:   1    -0.231904239094E+04    0.23850E-02   -0.24896E-01  4516   0.427E-01    0.141E-01
RMM:   2    -0.231904525952E+04   -0.28686E-02   -0.29236E-02  6220   0.102E-01    0.127E-01
RMM:   3    -0.231904548429E+04   -0.22477E-03   -0.25833E-03  4810   0.351E-02    0.148E-01
RMM:   4    -0.231904526232E+04    0.22198E-03   -0.29819E-04  3268   0.991E-03    0.468E-02
RMM:   5    -0.231904526082E+04    0.14937E-05   -0.66108E-05  2985   0.583E-03
 176 F= -.23404406E+04 E0= -.23404406E+04  d E =-.445775E-03  mag=     2.9996
       N       E                     dE             d eps       ncg     rms          rms(c)
DAV:   1    -0.231904461009E+04    0.65223E-03   -0.58327E-02  4656   0.206E-01    0.688E-02
RMM:   2    -0.231904527879E+04   -0.66870E-03   -0.68691E-03  6310   0.497E-02    0.616E-02
RMM:   3    -0.231904532772E+04   -0.48931E-04   -0.62974E-04  3277   0.167E-02    0.674E-02
RMM:   4    -0.231904528130E+04    0.46418E-04   -0.68993E-05  3025   0.600E-03    0.234E-02
RMM:   5    -0.231904528484E+04   -0.35412E-05   -0.23211E-05  2926   0.345E-03
 177 F= -.23404406E+04 E0= -.23404406E+04  d E =-.448594E-03  mag=     2.9996
       N       E                     dE             d eps       ncg     rms          rms(c)
DAV:   1    -0.231904315405E+04    0.21273E-02   -0.22872E-01  4528   0.416E-01    0.138E-01
RMM:   2    -0.231904580339E+04   -0.26493E-02   -0.26891E-02  6136   0.981E-02    0.128E-01
RMM:   3    -0.231904598947E+04   -0.18608E-03   -0.23761E-03  4842   0.335E-02    0.141E-01
RMM:   4    -0.231904578609E+04    0.20338E-03   -0.27959E-04  3252   0.963E-03    0.476E-02
RMM:   5    -0.231904577699E+04    0.91061E-05   -0.57153E-05  2979   0.553E-03
 178 F= -.23404410E+04 E0= -.23404410E+04  d E =-.456045E-03  mag=     2.9996
       N       E                     dE             d eps       ncg     rms          rms(c)
DAV:   1    -0.231904524909E+04    0.53700E-03   -0.48693E-02  4560   0.192E-01    0.645E-02
RMM:   2    -0.231904581120E+04   -0.56210E-03   -0.56945E-03  6283   0.454E-02    0.654E-02
RMM:   3    -0.231904583526E+04   -0.24062E-04   -0.54043E-04  3231   0.157E-02    0.569E-02
RMM:   4    -0.231904580084E+04    0.34416E-04   -0.56546E-05  3020   0.552E-03    0.198E-02
RMM:   5    -0.231904580672E+04   -0.58799E-05   -0.21889E-05  2915   0.359E-03
 179 F= -.23404411E+04 E0= -.23404410E+04  d E =-.468889E-03  mag=     2.9996
       N       E                     dE             d eps       ncg     rms          rms(c)
DAV:   1    -0.231904373816E+04    0.20627E-02   -0.21966E-01  4528   0.415E-01    0.135E-01
RMM:   2    -0.231904631243E+04   -0.25743E-02   -0.26131E-02  6123   0.971E-02    0.130E-01
RMM:   3    -0.231904648161E+04   -0.16918E-03   -0.22993E-03  4819   0.336E-02    0.138E-01
RMM:   4    -0.231904628682E+04    0.19478E-03   -0.26992E-04  3212   0.948E-03    0.457E-02
RMM:   5    -0.231904627966E+04    0.71641E-05   -0.54099E-05  2969   0.548E-03
 180 F= -.23404415E+04 E0= -.23404415E+04  d E =-.424123E-03  mag=     2.9996
       N       E                     dE             d eps       ncg     rms          rms(c)
DAV:   1    -0.231904590273E+04    0.38409E-03   -0.34196E-02  4576   0.164E-01    0.541E-02
RMM:   2    -0.231904629871E+04   -0.39597E-03   -0.40259E-03  6195   0.384E-02    0.560E-02
RMM:   3    -0.231904631588E+04   -0.17173E-04   -0.39762E-04  3110   0.137E-02    0.476E-02
RMM:   4    -0.231904629192E+04    0.23963E-04   -0.41964E-05  3001   0.481E-03    0.180E-02
RMM:   5    -0.231904629600E+04   -0.40804E-05   -0.16592E-05  2890   0.309E-03
 181 F= -.23404415E+04 E0= -.23404414E+04  d E =-.420843E-03  mag=     2.9996
       N       E                     dE             d eps       ncg     rms          rms(c)
DAV:   1    -0.231904392478E+04    0.23671E-02   -0.23738E-01  4516   0.440E-01    0.145E-01
RMM:   2    -0.231904675934E+04   -0.28346E-02   -0.28470E-02  6070   0.102E-01    0.151E-01
RMM:   3    -0.231904690156E+04   -0.14222E-03   -0.24808E-03  4905   0.352E-02    0.146E-01
RMM:   4    -0.231904667975E+04    0.22181E-03   -0.28996E-04  3298   0.982E-03    0.472E-02
RMM:   5    -0.231904667334E+04    0.64051E-05   -0.62987E-05  2988   0.583E-03
 182 F= -.23404418E+04 E0= -.23404418E+04  d E =-.347920E-03  mag=     2.9996
       N       E                     dE             d eps       ncg     rms          rms(c)
DAV:   1    -0.231904659363E+04    0.86115E-04   -0.44740E-03  5336   0.611E-02    0.244E-02
RMM:   2    -0.231904665134E+04   -0.57709E-04   -0.55017E-04  4777   0.147E-02    0.342E-02
RMM:   3    -0.231904664610E+04    0.52448E-05   -0.62811E-05  2916   0.643E-03
 183 F= -.23404418E+04 E0= -.23404418E+04  d E =-.316382E-03  mag=     2.9996
       N       E                     dE             d eps       ncg     rms          rms(c)
DAV:   1    -0.231904477266E+04    0.18787E-02   -0.18022E-01  4528   0.388E-01    0.131E-01
RMM:   2    -0.231904708048E+04   -0.23078E-02   -0.22418E-02  6094   0.909E-02    0.161E-01
RMM:   3    -0.231904709713E+04   -0.16648E-04   -0.19836E-03  4572   0.315E-02    0.125E-01
RMM:   4    -0.231904694054E+04    0.15658E-03   -0.23764E-04  3217   0.893E-03    0.485E-02
RMM:   5    -0.231904692921E+04    0.11335E-04   -0.52513E-05  2970   0.549E-03    0.419E-02
RMM:   6    -0.231904690553E+04    0.23678E-04   -0.50659E-05  3055   0.571E-03    0.121E-02
RMM:   7    -0.231904690581E+04   -0.27614E-06   -0.15155E-05  2960   0.460E-03
 184 F= -.23404421E+04 E0= -.23404420E+04  d E =-.255709E-03  mag=     2.9996
       N       E                     dE             d eps       ncg     rms          rms(c)
DAV:   1    -0.231904689675E+04    0.87857E-05   -0.53379E-04  5168   0.214E-02    0.992E-03
RMM:   2    -0.231904690551E+04   -0.87584E-05   -0.75134E-05  3215   0.561E-03
 185 F= -.23404421E+04 E0= -.23404420E+04  d E =-.255163E-03  mag=     2.9996
       N       E                     dE             d eps       ncg     rms          rms(c)
DAV:   1    -0.231904530811E+04    0.15886E-02   -0.14790E-01  4528   0.351E-01    0.121E-01
RMM:   2    -0.231904727780E+04   -0.19697E-02   -0.19125E-02  6071   0.835E-02    0.147E-01
RMM:   3    -0.231904728663E+04   -0.88353E-05   -0.16626E-03  4508   0.303E-02    0.113E-01
RMM:   4    -0.231904715933E+04    0.12730E-03   -0.20328E-04  3153   0.840E-03    0.452E-02
RMM:   5    -0.231904714883E+04    0.10495E-04   -0.43181E-05  2959   0.514E-03    0.374E-02
RMM:   6    -0.231904713009E+04    0.18743E-04   -0.38926E-05  2973   0.507E-03    0.115E-02
RMM:   7    -0.231904713002E+04    0.75757E-07   -0.12689E-05  2903   0.417E-03
 186 F= -.23404423E+04 E0= -.23404422E+04  d E =-.228502E-03  mag=     2.9996
       N       E                     dE             d eps       ncg     rms          rms(c)
DAV:   1    -0.231904712048E+04    0.96091E-05   -0.56637E-04  5152   0.220E-02    0.101E-02
RMM:   2    -0.231904713008E+04   -0.96004E-05   -0.81438E-05  3238   0.581E-03
 187 F= -.23404423E+04 E0= -.23404422E+04  d E =-.228805E-03  mag=     2.9996
       N       E                     dE             d eps       ncg     rms          rms(c)
DAV:   1    -0.231904597393E+04    0.11466E-02   -0.11191E-01  4528   0.308E-01    0.106E-01
RMM:   2    -0.231904747463E+04   -0.15007E-02   -0.14406E-02  6105   0.731E-02    0.135E-01
RMM:   3    -0.231904745472E+04    0.19909E-04   -0.12514E-03  4302   0.262E-02    0.969E-02
RMM:   4    -0.231904736256E+04    0.92158E-04   -0.15530E-04  3101   0.756E-03    0.392E-02
RMM:   5    -0.231904735458E+04    0.79876E-05   -0.33158E-05  2946   0.461E-03
 188 F= -.23404425E+04 E0= -.23404425E+04  d E =-.228648E-03  mag=     2.9996
       N       E                     dE             d eps       ncg     rms          rms(c)
DAV:   1    -0.231904727254E+04    0.90022E-04   -0.53364E-03  5096   0.674E-02    0.231E-02
RMM:   2    -0.231904733477E+04   -0.62225E-04   -0.67177E-04  5035   0.162E-02    0.148E-02
RMM:   3    -0.231904734133E+04   -0.65617E-05   -0.68679E-05  2926   0.675E-03
 189 F= -.23404425E+04 E0= -.23404425E+04  d E =-.216258E-03  mag=     2.9996
       N       E                     dE             d eps       ncg     rms          rms(c)
DAV:   1    -0.231904620459E+04    0.11302E-02   -0.10477E-01  4528   0.294E-01    0.965E-02
RMM:   2    -0.231904761374E+04   -0.14092E-02   -0.13924E-02  6156   0.704E-02    0.109E-01
RMM:   3    -0.231904765219E+04   -0.38445E-04   -0.11732E-03  4014   0.229E-02    0.930E-02
RMM:   4    -0.231904756669E+04    0.85500E-04   -0.14524E-04  3078   0.717E-03    0.351E-02
RMM:   5    -0.231904756217E+04    0.45156E-05   -0.28027E-05  2925   0.411E-03
 190 F= -.23404427E+04 E0= -.23404427E+04  d E =-.206354E-03  mag=     2.9996
       N       E                     dE             d eps       ncg     rms          rms(c)
DAV:   1    -0.231904740405E+04    0.16264E-03   -0.11744E-02  4640   0.985E-02    0.324E-02
RMM:   2    -0.231904755463E+04   -0.15059E-03   -0.15294E-03  5758   0.237E-02    0.332E-02
RMM:   3    -0.231904756384E+04   -0.92098E-05   -0.15138E-04  2976   0.857E-03    0.318E-02
RMM:   4    -0.231904755380E+04    0.10045E-04   -0.16835E-05  2943   0.315E-03    0.129E-02
RMM:   5    -0.231904755446E+04   -0.65846E-06   -0.60363E-06  2749   0.188E-03
 191 F= -.23404427E+04 E0= -.23404427E+04  d E =-.193522E-03  mag=     2.9996
       N       E                     dE             d eps       ncg     rms          rms(c)
DAV:   1    -0.231904661955E+04    0.93425E-03   -0.96595E-02  4516   0.282E-01    0.940E-02
RMM:   2    -0.231904789241E+04   -0.12729E-02   -0.12447E-02  6083   0.666E-02    0.112E-01
RMM:   3    -0.231904790553E+04   -0.13118E-04   -0.10731E-03  3946   0.221E-02    0.887E-02
RMM:   4    -0.231904782766E+04    0.77874E-04   -0.12679E-04  3068   0.697E-03    0.332E-02
RMM:   5    -0.231904782261E+04    0.50477E-05   -0.25739E-05  2904   0.393E-03
 192 F= -.23404429E+04 E0= -.23404429E+04  d E =-.213612E-03  mag=     2.9996
       N       E                     dE             d eps       ncg     rms          rms(c)
DAV:   1    -0.231904766565E+04    0.16201E-03   -0.14111E-02  4632   0.108E-01    0.360E-02
RMM:   2    -0.231904784353E+04   -0.17787E-03   -0.17967E-03  5886   0.258E-02    0.375E-02
RMM:   3    -0.231904785146E+04   -0.79294E-05   -0.16993E-04  2982   0.922E-03    0.326E-02
RMM:   4    -0.231904784083E+04    0.10624E-04   -0.19717E-05  2957   0.335E-03    0.143E-02
RMM:   5    -0.231904784132E+04   -0.49328E-06   -0.65013E-06  2761   0.195E-03
 193 F= -.23404429E+04 E0= -.23404429E+04  d E =-.211069E-03  mag=     2.9996
       N       E                     dE             d eps       ncg     rms          rms(c)
DAV:   1    -0.231904688442E+04    0.95641E-03   -0.96699E-02  4516   0.284E-01    0.952E-02
RMM:   2    -0.231904812883E+04   -0.12444E-02   -0.12403E-02  6083   0.669E-02    0.101E-01
RMM:   3    -0.231904818021E+04   -0.51384E-04   -0.10782E-03  3981   0.225E-02    0.938E-02
RMM:   4    -0.231904809103E+04    0.89176E-04   -0.12907E-04  3064   0.719E-03    0.333E-02
RMM:   5    -0.231904808655E+04    0.44800E-05   -0.27079E-05  2909   0.400E-03
 194 F= -.23404431E+04 E0= -.23404431E+04  d E =-.205021E-03  mag=     2.9996
       N       E                     dE             d eps       ncg     rms          rms(c)
DAV:   1    -0.231904798365E+04    0.10738E-03   -0.87352E-03  4856   0.854E-02    0.296E-02
RMM:   2    -0.231904809313E+04   -0.10948E-03   -0.11087E-03  5616   0.205E-02    0.310E-02
RMM:   3    -0.231904809730E+04   -0.41656E-05   -0.11735E-04  2940   0.796E-03    0.246E-02
RMM:   4    -0.231904809086E+04    0.64389E-05   -0.12206E-05  2945   0.287E-03
 195 F= -.23404431E+04 E0= -.23404431E+04  d E =-.196945E-03  mag=     2.9996
       N       E                     dE             d eps       ncg     rms          rms(c)
DAV:   1    -0.231904718842E+04    0.90888E-03   -0.90998E-02  4528   0.281E-01    0.964E-02
RMM:   2    -0.231904837289E+04   -0.11845E-02   -0.11382E-02  6137   0.655E-02    0.119E-01
RMM:   3    -0.231904837185E+04    0.10464E-05   -0.10674E-03  3948   0.230E-02    0.918E-02
RMM:   4    -0.231904828976E+04    0.82084E-04   -0.12327E-04  3062   0.728E-03    0.345E-02
RMM:   5    -0.231904828375E+04    0.60102E-05   -0.28601E-05  2929   0.425E-03
 196 F= -.23404433E+04 E0= -.23404433E+04  d E =-.184820E-03  mag=     2.9996
       N       E                     dE             d eps       ncg     rms          rms(c)
DAV:   1    -0.231904824595E+04    0.43814E-04   -0.21900E-03  5240   0.439E-02    0.179E-02
RMM:   2    -0.231904827726E+04   -0.31314E-04   -0.28602E-04  4072   0.108E-02    0.259E-02
RMM:   3    -0.231904827339E+04    0.38720E-05   -0.34415E-05  2840   0.536E-03
 197 F= -.23404433E+04 E0= -.23404432E+04  d E =-.173114E-03  mag=     2.9996
       N       E                     dE             d eps       ncg     rms          rms(c)
DAV:   1    -0.231904735400E+04    0.92326E-03   -0.85920E-02  4528   0.272E-01    0.927E-02
RMM:   2    -0.231904849413E+04   -0.11401E-02   -0.11357E-02  6163   0.652E-02    0.984E-02
RMM:   3    -0.231904856004E+04   -0.65904E-04   -0.10832E-03  3847   0.231E-02    0.982E-02
RMM:   4    -0.231904846417E+04    0.95861E-04   -0.12445E-04  3061   0.729E-03    0.308E-02
RMM:   5    -0.231904846240E+04    0.17732E-05   -0.28882E-05  2930   0.412E-03
 198 F= -.23404434E+04 E0= -.23404434E+04  d E =-.168699E-03  mag=     2.9996
       N       E                     dE             d eps       ncg     rms          rms(c)
DAV:   1    -0.231904843139E+04    0.32787E-04   -0.15436E-03  5296   0.371E-02    0.142E-02
RMM:   2    -0.231904845251E+04   -0.21127E-04   -0.21441E-04  3810   0.926E-03    0.161E-02
RMM:   3    -0.231904845251E+04    0.59954E-08   -0.24301E-05  2758   0.491E-03
 199 F= -.23404434E+04 E0= -.23404434E+04  d E =-.155946E-03  mag=     2.9996
       N       E                     dE             d eps       ncg     rms          rms(c)
DAV:   1    -0.231904747230E+04    0.98021E-03   -0.90794E-02  4522   0.282E-01    0.935E-02
RMM:   2    -0.231904866040E+04   -0.11881E-02   -0.11936E-02  6159   0.670E-02    0.956E-02
RMM:   3    -0.231904873893E+04   -0.78527E-04   -0.10822E-03  3985   0.233E-02    0.101E-01
RMM:   4    -0.231904863587E+04    0.10306E-03   -0.12621E-04  3061   0.733E-03    0.288E-02
RMM:   5    -0.231904863576E+04    0.11311E-06   -0.29414E-05  2935   0.414E-03
 200 F= -.23404436E+04 E0= -.23404436E+04  d E =-.174800E-03  mag=     2.9996
       N       E                     dE             d eps       ncg     rms          rms(c)
DAV:   1    -0.231904858379E+04    0.52087E-04   -0.30369E-03  5192   0.521E-02    0.190E-02
RMM:   2    -0.231904862470E+04   -0.40909E-04   -0.40698E-04  4472   0.128E-02    0.231E-02
RMM:   3    -0.231904862449E+04    0.21220E-06   -0.45248E-05  2885   0.598E-03
 201 F= -.23404436E+04 E0= -.23404436E+04  d E =-.161889E-03  mag=     2.9995
