       N       E                     dE             d eps       ncg     rms          rms(c)
DAV:   1     0.128130705385E+05    0.12813E+05   -0.85168E+05  4640   0.144E+03
DAV:   2    -0.121790973441E+04   -0.14031E+05   -0.13452E+05  5200   0.326E+02
DAV:   3    -0.250088758704E+04   -0.12830E+04   -0.12722E+04  5520   0.107E+02
DAV:   4    -0.253175174133E+04   -0.30864E+02   -0.30685E+02  5600   0.213E+01
DAV:   5    -0.253282075131E+04   -0.10690E+01   -0.10666E+01  5680   0.324E+00    0.170E+02
RMM:   6    -0.150237469629E+04    0.10304E+04   -0.19500E+03  4518   0.381E+01    0.738E+01
RMM:   7    -0.166888433532E+04   -0.16651E+03   -0.31610E+02  5348   0.149E+01    0.535E+01
RMM:   8    -0.171745164522E+04   -0.48567E+02   -0.65778E+01  5474   0.797E+00    0.459E+01
RMM:   9    -0.177234806872E+04   -0.54896E+02   -0.63641E+01  4908   0.706E+00    0.356E+01
RMM:  10    -0.191786567039E+04   -0.14552E+03   -0.75386E+01  4910   0.862E+00    0.239E+01
RMM:  11    -0.202830728919E+04   -0.11044E+03   -0.49409E+01  4979   0.628E+00    0.228E+01
RMM:  12    -0.206995154379E+04   -0.41644E+02   -0.16349E+01  5264   0.333E+00    0.154E+01
RMM:  13    -0.215584242357E+04   -0.85891E+02   -0.45340E+01  4767   0.504E+00    0.129E+01
RMM:  14    -0.223236190978E+04   -0.76519E+02   -0.48961E+01  4983   0.538E+00    0.117E+01
RMM:  15    -0.228649890872E+04   -0.54137E+02   -0.42192E+01  4984   0.470E+00    0.899E+00
RMM:  16    -0.231095957772E+04   -0.24461E+02   -0.22080E+01  4725   0.339E+00    0.484E+00
RMM:  17    -0.232061439182E+04   -0.96548E+01   -0.91884E+00  4799   0.213E+00    0.302E+00
RMM:  18    -0.232258119346E+04   -0.19668E+01   -0.16808E+00  5210   0.109E+00    0.149E+00
RMM:  19    -0.232375357583E+04   -0.11724E+01   -0.60375E-01  4811   0.512E-01    0.775E-01
RMM:  20    -0.232403197907E+04   -0.27840E+00   -0.20470E-01  4729   0.400E-01    0.424E-01
RMM:  21    -0.232410353631E+04   -0.71557E-01   -0.62828E-02  4906   0.164E-01    0.341E-01
RMM:  22    -0.232413116878E+04   -0.27632E-01   -0.17645E-02  4923   0.998E-02    0.180E-01
RMM:  23    -0.232414926680E+04   -0.18098E-01   -0.69909E-03  4595   0.627E-02    0.129E-01
RMM:  24    -0.232416054210E+04   -0.11275E-01   -0.35830E-03  4664   0.511E-02    0.759E-02
RMM:  25    -0.232416941048E+04   -0.88684E-02   -0.22406E-03  4589   0.367E-02    0.494E-02
RMM:  26    -0.232417685543E+04   -0.74450E-02   -0.21524E-03  4504   0.340E-02    0.305E-02
RMM:  27    -0.232417968464E+04   -0.28292E-02   -0.10154E-03  4573   0.252E-02    0.171E-02
RMM:  28    -0.232418073843E+04   -0.10538E-02   -0.35102E-04  4186   0.126E-02    0.957E-03
RMM:  29    -0.232418110600E+04   -0.36757E-03   -0.87225E-05  3786   0.854E-03    0.633E-03
RMM:  30    -0.232418128101E+04   -0.17501E-03   -0.39586E-05  3330   0.484E-03    0.368E-03
RMM:  31    -0.232418135617E+04   -0.75168E-04   -0.14857E-05  2985   0.407E-03    0.251E-03
RMM:  32    -0.232418139584E+04   -0.39666E-04   -0.99863E-06  2922   0.288E-03    0.150E-03
RMM:  33    -0.232418140584E+04   -0.99962E-05   -0.41369E-06  2588   0.252E-03
   1 F= -.23455982E+04 E0= -.23455978E+04  d E =-.866625E-03  mag=     4.9917
       N       E                     dE             d eps       ncg     rms          rms(c)
DAV:   1    -0.232418026736E+04    0.11285E-02   -0.18189E+00  4480   0.741E-01    0.359E-01
RMM:   2    -0.232418095795E+04   -0.69059E-03   -0.14607E-02  4597   0.600E-02    0.293E-01
RMM:   3    -0.232418028883E+04    0.66912E-03   -0.24299E-03  4993   0.285E-02    0.224E-01
RMM:   4    -0.232418097458E+04   -0.68575E-03   -0.19128E-03  4805   0.203E-02    0.310E-01
RMM:   5    -0.232417992562E+04    0.10490E-02   -0.63893E-04  4740   0.143E-02    0.631E-02
RMM:   6    -0.232417992626E+04   -0.64369E-06   -0.17217E-04  3443   0.780E-03    0.605E-02
RMM:   7    -0.232417987997E+04    0.46298E-04   -0.47842E-05  2974   0.519E-03    0.164E-02
RMM:   8    -0.232417987981E+04    0.15914E-06   -0.13006E-05  2812   0.285E-03
   2 F= -.23455990E+04 E0= -.23455984E+04  d E =-.130696E-02  mag=     4.9885
       N       E                     dE             d eps       ncg     rms          rms(c)
DAV:   1    -0.232416885469E+04    0.11025E-01   -0.71752E+00  4480   0.143E+00    0.714E-01
RMM:   2    -0.232417162716E+04   -0.27725E-02   -0.59778E-02  5033   0.132E-01    0.575E-01
RMM:   3    -0.232416895453E+04    0.26726E-02   -0.97394E-03  5082   0.688E-02    0.432E-01
RMM:   4    -0.232417163076E+04   -0.26762E-02   -0.74634E-03  5313   0.416E-02    0.612E-01
RMM:   5    -0.232416762117E+04    0.40096E-02   -0.23625E-03  5471   0.287E-02    0.120E-01
RMM:   6    -0.232416765650E+04   -0.35330E-04   -0.62780E-04  4632   0.135E-02    0.122E-01
RMM:   7    -0.232416747920E+04    0.17730E-03   -0.19018E-04  3577   0.817E-03    0.418E-02
RMM:   8    -0.232416748907E+04   -0.98690E-05   -0.61077E-05  3101   0.493E-03
   3 F= -.23455823E+04 E0= -.23455820E+04  d E =-.542282E-03  mag=     4.9924
       N       E                     dE             d eps       ncg     rms          rms(c)
DAV:   1    -0.232415739747E+04    0.10082E-01   -0.34979E+00  4480   0.104E+00    0.479E-01
RMM:   2    -0.232415876681E+04   -0.13693E-02   -0.16176E-02  4711   0.662E-02    0.397E-01
RMM:   3    -0.232415806820E+04    0.69861E-03   -0.39713E-03  5075   0.350E-02    0.288E-01
RMM:   4    -0.232415910881E+04   -0.10406E-02   -0.30429E-03  5413   0.254E-02    0.395E-01
RMM:   5    -0.232415769688E+04    0.14119E-02   -0.12654E-03  4865   0.176E-02    0.140E-01
RMM:   6    -0.232415752428E+04    0.17260E-03   -0.41053E-04  4042   0.110E-02    0.655E-02
RMM:   7    -0.232415749073E+04    0.33548E-04   -0.58370E-05  3040   0.526E-03    0.205E-02
RMM:   8    -0.232415749704E+04   -0.63138E-05   -0.18503E-05  2866   0.321E-03
   4 F= -.23455744E+04 E0= -.23455739E+04  d E =-.981846E-03  mag=     4.9913
       N       E                     dE             d eps       ncg     rms          rms(c)
DAV:   1    -0.232418716830E+04   -0.29678E-01   -0.78568E+00  4480   0.153E+00    0.678E-01
RMM:   2    -0.232418851097E+04   -0.13427E-02   -0.35461E-02  4712   0.107E-01    0.575E-01
RMM:   3    -0.232419029364E+04   -0.17827E-02   -0.10914E-02  5696   0.587E-02    0.687E-01
RMM:   4    -0.232418660849E+04    0.36852E-02   -0.65257E-03  5436   0.399E-02    0.375E-01
RMM:   5    -0.232418568900E+04    0.91949E-03   -0.24826E-03  5071   0.258E-02    0.222E-01
RMM:   6    -0.232418514778E+04    0.54122E-03   -0.72185E-04  4862   0.149E-02    0.721E-02
RMM:   7    -0.232418514648E+04    0.12997E-05   -0.16560E-04  3509   0.711E-03    0.572E-02
RMM:   8    -0.232418514343E+04    0.30494E-05   -0.88242E-05  3014   0.595E-03
   5 F= -.23456019E+04 E0= -.23456015E+04  d E =-.745534E-03  mag=     4.9913
       N       E                     dE             d eps       ncg     rms          rms(c)
DAV:   1    -0.232417085786E+04    0.14289E-01   -0.40517E+00  4640   0.101E+00    0.424E-01
RMM:   2    -0.232417221544E+04   -0.13576E-02   -0.18778E-02  4556   0.649E-02    0.333E-01
RMM:   3    -0.232417282453E+04   -0.60909E-03   -0.36606E-03  5288   0.333E-02    0.402E-01
RMM:   4    -0.232417191488E+04    0.90965E-03   -0.29537E-03  5230   0.236E-02    0.275E-01
RMM:   5    -0.232417128077E+04    0.63411E-03   -0.89097E-04  4732   0.143E-02    0.121E-01
RMM:   6    -0.232417114324E+04    0.13753E-03   -0.28126E-04  3602   0.920E-03    0.547E-02
RMM:   7    -0.232417112035E+04    0.22883E-04   -0.50682E-05  2966   0.481E-03    0.303E-02
RMM:   8    -0.232417111675E+04    0.36078E-05   -0.27353E-05  2786   0.361E-03
   6 F= -.23455873E+04 E0= -.23455869E+04  d E =-.929392E-03  mag=     4.9912
       N       E                     dE             d eps       ncg     rms          rms(c)
DAV:   1    -0.232414690093E+04    0.24219E-01   -0.81156E+00  4480   0.141E+00    0.758E-01
RMM:   2    -0.232414705819E+04   -0.15726E-03   -0.48509E-02  4759   0.123E-01    0.499E-01
RMM:   3    -0.232414848651E+04   -0.14283E-02   -0.12452E-02  5116   0.732E-02    0.641E-01
RMM:   4    -0.232414519807E+04    0.32884E-02   -0.78639E-03  5467   0.417E-02    0.312E-01
RMM:   5    -0.232414444819E+04    0.74988E-03   -0.17162E-03  4850   0.248E-02    0.164E-01
RMM:   6    -0.232414433910E+04    0.10909E-03   -0.56692E-04  4038   0.121E-02    0.130E-01
RMM:   7    -0.232414416520E+04    0.17390E-03   -0.12624E-04  3432   0.710E-03    0.345E-02
RMM:   8    -0.232414416705E+04   -0.18536E-05   -0.50534E-05  3035   0.471E-03
   7 F= -.23455617E+04 E0= -.23455613E+04  d E =-.864222E-03  mag=     4.9915
       N       E                     dE             d eps       ncg     rms          rms(c)
DAV:   1    -0.232415797822E+04   -0.13813E-01   -0.63642E+00  4640   0.142E+00    0.475E-01
RMM:   2    -0.232415993590E+04   -0.19577E-02   -0.32338E-02  4524   0.101E-01    0.318E-01
RMM:   3    -0.232416059327E+04   -0.65737E-03   -0.54173E-03  5149   0.472E-02    0.464E-01
RMM:   4    -0.232415875895E+04    0.18343E-02   -0.27790E-03  5170   0.253E-02    0.177E-01
RMM:   5    -0.232415885676E+04   -0.97817E-04   -0.85896E-04  4245   0.152E-02    0.191E-01
RMM:   6    -0.232415848685E+04    0.36991E-03   -0.33885E-04  3644   0.946E-03    0.450E-02
RMM:   7    -0.232415847355E+04    0.13308E-04   -0.51145E-05  3011   0.479E-03    0.280E-02
RMM:   8    -0.232415846591E+04    0.76320E-05   -0.19395E-05  2754   0.336E-03
   8 F= -.23455756E+04 E0= -.23455752E+04  d E =-.745682E-03  mag=     4.9924
       N       E                     dE             d eps       ncg     rms          rms(c)
DAV:   1    -0.232418783321E+04   -0.29360E-01   -0.20112E+01  4480   0.252E+00    0.694E-01
RMM:   2    -0.232418890898E+04   -0.10758E-02   -0.87125E-02  4480   0.164E-01    0.406E-01
RMM:   3    -0.232419164444E+04   -0.27355E-02   -0.14140E-02  4862   0.889E-02    0.723E-01
RMM:   4    -0.232418649257E+04    0.51519E-02   -0.60126E-03  5623   0.395E-02    0.251E-01
RMM:   5    -0.232418621935E+04    0.27322E-03   -0.17132E-03  4602   0.221E-02    0.197E-01
RMM:   6    -0.232418586881E+04    0.35054E-03   -0.56529E-04  3904   0.129E-02    0.767E-02
RMM:   7    -0.232418581233E+04    0.56477E-04   -0.11487E-04  3333   0.703E-03    0.372E-02
RMM:   8    -0.232418581393E+04   -0.16068E-05   -0.60929E-05  3120   0.517E-03
   9 F= -.23456023E+04 E0= -.23456018E+04  d E =-.101349E-02  mag=     4.9909
       N       E                     dE             d eps       ncg     rms          rms(c)
DAV:   1    -0.232417702419E+04    0.87881E-02   -0.99828E+00  4480   0.176E+00    0.381E-01
RMM:   2    -0.232417918098E+04   -0.21568E-02   -0.37652E-02  4355   0.104E-01    0.284E-01
RMM:   3    -0.232417996302E+04   -0.78204E-03   -0.41860E-03  5162   0.393E-02    0.451E-01
RMM:   4    -0.232417805198E+04    0.19110E-02   -0.25660E-03  4722   0.245E-02    0.160E-01
RMM:   5    -0.232417795952E+04    0.92453E-04   -0.76764E-04  3922   0.152E-02    0.128E-01
RMM:   6    -0.232417781532E+04    0.14420E-03   -0.19451E-04  3363   0.816E-03    0.350E-02
RMM:   7    -0.232417780708E+04    0.82401E-05   -0.28811E-05  2955   0.406E-03
  10 F= -.23455940E+04 E0= -.23455936E+04  d E =-.865910E-03  mag=     4.9914
       N       E                     dE             d eps       ncg     rms          rms(c)
DAV:   1    -0.232416768109E+04    0.10134E-01   -0.20069E+01  4480   0.246E+00    0.696E-01
RMM:   2    -0.232417252454E+04   -0.48435E-02   -0.10444E-01  4497   0.195E-01    0.395E-01
RMM:   3    -0.232417684135E+04   -0.43168E-02   -0.13441E-02  5061   0.981E-02    0.821E-01
RMM:   4    -0.232416982163E+04    0.70197E-02   -0.68633E-03  5488   0.423E-02    0.182E-01
RMM:   5    -0.232416997002E+04   -0.14839E-03   -0.17550E-03  4783   0.225E-02    0.208E-01
RMM:   6    -0.232416952298E+04    0.44704E-03   -0.62321E-04  4265   0.129E-02    0.531E-02
RMM:   7    -0.232416953316E+04   -0.10182E-04   -0.12362E-04  3244   0.677E-03    0.524E-02
RMM:   8    -0.232416950790E+04    0.25261E-04   -0.58209E-05  3005   0.530E-03    0.251E-02
RMM:   9    -0.232416950417E+04    0.37332E-05   -0.11772E-05  2916   0.317E-03
  11 F= -.23455869E+04 E0= -.23455864E+04  d E =-.859071E-03  mag=     4.9915
       N       E                     dE             d eps       ncg     rms          rms(c)
DAV:   1    -0.232417110089E+04   -0.15930E-02   -0.10129E+01  4480   0.178E+00    0.372E-01
RMM:   2    -0.232417403247E+04   -0.29316E-02   -0.38438E-02  4566   0.103E-01    0.289E-01
RMM:   3    -0.232417408063E+04   -0.48158E-04   -0.41453E-03  5273   0.430E-02    0.350E-01
RMM:   4    -0.232417322034E+04    0.86029E-03   -0.21475E-03  4882   0.239E-02    0.206E-01
RMM:   5    -0.232417308512E+04    0.13522E-03   -0.86667E-04  4536   0.150E-02    0.156E-01
RMM:   6    -0.232417288002E+04    0.20511E-03   -0.36849E-04  3782   0.978E-03    0.743E-02
RMM:   7    -0.232417284276E+04    0.37259E-04   -0.75334E-05  3253   0.570E-03    0.243E-02
RMM:   8    -0.232417285593E+04   -0.13167E-04   -0.20129E-05  2981   0.370E-03    0.119E-02
RMM:   9    -0.232417286740E+04   -0.11469E-04   -0.68338E-06  2825   0.278E-03    0.113E-02
RMM:  10    -0.232417287261E+04   -0.52148E-05   -0.36215E-06  2598   0.195E-03
  12 F= -.23455903E+04 E0= -.23455899E+04  d E =-.982390E-03  mag=     4.9907
       N       E                     dE             d eps       ncg     rms          rms(c)
DAV:   1    -0.232417044432E+04    0.24231E-02   -0.20195E+01  4480   0.254E+00    0.778E-01
RMM:   2    -0.232417707600E+04   -0.66317E-02   -0.10243E-01  4739   0.169E-01    0.708E-01
RMM:   3    -0.232417724452E+04   -0.16852E-03   -0.17340E-02  5477   0.844E-02    0.774E-01
RMM:   4    -0.232417306506E+04    0.41795E-02   -0.87203E-03  5398   0.464E-02    0.419E-01
RMM:   5    -0.232417190129E+04    0.11638E-02   -0.34812E-03  5124   0.285E-02    0.272E-01
RMM:   6    -0.232417128908E+04    0.61221E-03   -0.10129E-03  4879   0.161E-02    0.102E-01
RMM:   7    -0.232417126232E+04    0.26760E-04   -0.24624E-04  3906   0.894E-03    0.438E-02
RMM:   8    -0.232417130653E+04   -0.44209E-04   -0.83227E-05  3268   0.631E-03    0.363E-02
RMM:   9    -0.232417131866E+04   -0.12134E-04   -0.41554E-05  3007   0.532E-03    0.257E-02
RMM:  10    -0.232417133783E+04   -0.19169E-04   -0.10737E-05  2856   0.312E-03    0.897E-03
RMM:  11    -0.232417136351E+04   -0.25678E-04   -0.57643E-06  2801   0.233E-03    0.576E-03
RMM:  12    -0.232417137860E+04   -0.15096E-04   -0.32096E-06  2681   0.199E-03    0.428E-03
RMM:  13    -0.232417138587E+04   -0.72696E-05   -0.21450E-06  2635   0.175E-03
  13 F= -.23455876E+04 E0= -.23455872E+04  d E =-.764252E-03  mag=     4.9925
       N       E                     dE             d eps       ncg     rms          rms(c)
DAV:   1    -0.232418818727E+04   -0.16809E-01   -0.99386E+00  4480   0.173E+00    0.511E-01
RMM:   2    -0.232419318344E+04   -0.49962E-02   -0.62324E-02  4450   0.135E-01    0.363E-01
RMM:   3    -0.232419418139E+04   -0.99795E-03   -0.72220E-03  4833   0.635E-02    0.537E-01
RMM:   4    -0.232419164568E+04    0.25357E-02   -0.42880E-03  5090   0.324E-02    0.202E-01
RMM:   5    -0.232419151765E+04    0.12803E-03   -0.12016E-03  4798   0.182E-02    0.171E-01
RMM:   6    -0.232419124937E+04    0.26829E-03   -0.43774E-04  3626   0.107E-02    0.638E-02
RMM:   7    -0.232419122071E+04    0.28659E-04   -0.62662E-05  3214   0.563E-03    0.224E-02
RMM:   8    -0.232419123457E+04   -0.13863E-04   -0.22676E-05  2988   0.362E-03    0.162E-02
RMM:   9    -0.232419124035E+04   -0.57778E-05   -0.11284E-05  2823   0.302E-03
  14 F= -.23456059E+04 E0= -.23456056E+04  d E =-.605360E-03  mag=     4.9939
       N       E                     dE             d eps       ncg     rms          rms(c)
DAV:   1    -0.232416663876E+04    0.24596E-01   -0.19453E+01  4480   0.212E+00    0.670E-01
RMM:   2    -0.232417236981E+04   -0.57311E-02   -0.77954E-02  4590   0.122E-01    0.398E-01
RMM:   3    -0.232417281618E+04   -0.44637E-03   -0.83256E-03  4636   0.619E-02    0.420E-01
RMM:   4    -0.232417197748E+04    0.83870E-03   -0.44446E-03  5634   0.304E-02    0.294E-01
RMM:   5    -0.232417167458E+04    0.30290E-03   -0.13947E-03  5116   0.188E-02    0.181E-01
RMM:   6    -0.232417148944E+04    0.18514E-03   -0.51903E-04  3581   0.113E-02    0.122E-01
RMM:   7    -0.232417140348E+04    0.85960E-04   -0.17599E-04  3471   0.775E-03    0.538E-02
RMM:   8    -0.232417139108E+04    0.12404E-04   -0.71477E-05  3051   0.565E-03    0.376E-02
RMM:   9    -0.232417137596E+04    0.15117E-04   -0.33160E-05  2987   0.422E-03    0.146E-02
RMM:  10    -0.232417137575E+04    0.20748E-06   -0.80326E-06  2824   0.264E-03
  15 F= -.23455904E+04 E0= -.23455897E+04  d E =-.129741E-02  mag=     4.9889
       N       E                     dE             d eps       ncg     rms          rms(c)
DAV:   1    -0.232416457003E+04    0.68059E-02   -0.97571E+00  4480   0.152E+00    0.511E-01
RMM:   2    -0.232416788384E+04   -0.33138E-02   -0.42122E-02  4317   0.882E-02    0.326E-01
RMM:   3    -0.232416860891E+04   -0.72507E-03   -0.57420E-03  5477   0.441E-02    0.423E-01
RMM:   4    -0.232416712881E+04    0.14801E-02   -0.25968E-03  5364   0.241E-02    0.217E-01
RMM:   5    -0.232416736282E+04   -0.23401E-03   -0.13171E-03  4624   0.168E-02    0.228E-01
RMM:   6    -0.232416682085E+04    0.54197E-03   -0.44856E-04  4095   0.111E-02    0.470E-02
RMM:   7    -0.232416682662E+04   -0.57734E-05   -0.84312E-05  3065   0.593E-03
  16 F= -.23455833E+04 E0= -.23455826E+04  d E =-.141529E-02  mag=     4.9870
       N       E                     dE             d eps       ncg     rms          rms(c)
DAV:   1    -0.232417816423E+04   -0.11343E-01   -0.19692E+01  4480   0.218E+00    0.676E-01
RMM:   2    -0.232418572345E+04   -0.75592E-02   -0.86802E-02  4458   0.130E-01    0.412E-01
RMM:   3    -0.232418740555E+04   -0.16821E-02   -0.10638E-02  5796   0.634E-02    0.625E-01
RMM:   4    -0.232418374710E+04    0.36585E-02   -0.41847E-03  5484   0.304E-02    0.249E-01
RMM:   5    -0.232418375793E+04   -0.10836E-04   -0.18257E-03  4826   0.199E-02    0.219E-01
RMM:   6    -0.232418326364E+04    0.49430E-03   -0.73071E-04  4691   0.135E-02    0.707E-02
RMM:   7    -0.232418323406E+04    0.29575E-04   -0.10296E-04  3241   0.619E-03    0.417E-02
RMM:   8    -0.232418322401E+04    0.10051E-04   -0.40665E-05  2867   0.448E-03    0.271E-02
RMM:   9    -0.232418321733E+04    0.66751E-05   -0.12743E-05  2864   0.290E-03
  17 F= -.23456004E+04 E0= -.23456001E+04  d E =-.571839E-03  mag=     4.9926
       N       E                     dE             d eps       ncg     rms          rms(c)
DAV:   1    -0.232418134944E+04    0.18746E-02   -0.97913E+00  4560   0.151E+00    0.527E-01
RMM:   2    -0.232418576339E+04   -0.44139E-02   -0.48115E-02  4337   0.901E-02    0.374E-01
RMM:   3    -0.232418687807E+04   -0.11147E-02   -0.71308E-03  5820   0.476E-02    0.541E-01
RMM:   4    -0.232418404358E+04    0.28345E-02   -0.24303E-03  5208   0.246E-02    0.196E-01
RMM:   5    -0.232418419686E+04   -0.15328E-03   -0.13510E-03  4670   0.175E-02    0.218E-01
RMM:   6    -0.232418374373E+04    0.45313E-03   -0.57273E-04  4541   0.125E-02    0.487E-02
RMM:   7    -0.232418372994E+04    0.13789E-04   -0.79040E-05  3198   0.606E-03    0.355E-02
RMM:   8    -0.232418371976E+04    0.10189E-04   -0.27306E-05  2869   0.411E-03    0.205E-02
RMM:   9    -0.232418371627E+04    0.34856E-05   -0.10282E-05  2858   0.262E-03
  18 F= -.23456001E+04 E0= -.23455993E+04  d E =-.174290E-02  mag=     4.9847
       N       E                     dE             d eps       ncg     rms          rms(c)
DAV:   1    -0.232416512041E+04    0.18599E-01   -0.19809E+01  4480   0.215E+00    0.676E-01
RMM:   2    -0.232417376141E+04   -0.86410E-02   -0.92069E-02  4471   0.132E-01    0.465E-01
RMM:   3    -0.232417676322E+04   -0.30018E-02   -0.12138E-02  5461   0.694E-02    0.703E-01
RMM:   4    -0.232417188609E+04    0.48771E-02   -0.43720E-03  5477   0.339E-02    0.218E-01
RMM:   5    -0.232417234460E+04   -0.45851E-03   -0.19797E-03  4887   0.210E-02    0.272E-01
RMM:   6    -0.232417159010E+04    0.75450E-03   -0.80635E-04  4476   0.142E-02    0.515E-02
RMM:   7    -0.232417158599E+04    0.41127E-05   -0.11559E-04  3283   0.620E-03    0.363E-02
RMM:   8    -0.232417158216E+04    0.38303E-05   -0.45413E-05  2989   0.489E-03
  19 F= -.23455888E+04 E0= -.23455886E+04  d E =-.450031E-03  mag=     4.9922
       N       E                     dE             d eps       ncg     rms          rms(c)
DAV:   1    -0.232417511691E+04   -0.35309E-02   -0.52931E+00  4480   0.109E+00    0.371E-01
RMM:   2    -0.232417776454E+04   -0.26476E-02   -0.30748E-02  4243   0.673E-02    0.236E-01
RMM:   3    -0.232417830009E+04   -0.53555E-03   -0.30521E-03  5328   0.327E-02    0.352E-01
RMM:   4    -0.232417715889E+04    0.11412E-02   -0.13703E-03  4742   0.181E-02    0.142E-01
RMM:   5    -0.232417728943E+04   -0.13054E-03   -0.61714E-04  3939   0.121E-02    0.154E-01
RMM:   6    -0.232417704010E+04    0.24933E-03   -0.21761E-04  3217   0.835E-03    0.226E-02
RMM:   7    -0.232417704109E+04   -0.98435E-06   -0.25216E-05  2864   0.354E-03
  20 F= -.23455938E+04 E0= -.23455934E+04  d E =-.841809E-03  mag=     4.9920
       N       E                     dE             d eps       ncg     rms          rms(c)
DAV:   1    -0.232418316064E+04   -0.61205E-02   -0.12177E+00  4560   0.421E-01    0.380E-01
RMM:   2    -0.232418288062E+04    0.28002E-03   -0.46083E-03  3938   0.285E-02    0.227E-01
RMM:   3    -0.232418318312E+04   -0.30250E-03   -0.17794E-03  4952   0.195E-02    0.201E-01
RMM:   4    -0.232418278900E+04    0.39412E-03   -0.83074E-04  4106   0.147E-02    0.105E-01
RMM:   5    -0.232418268712E+04    0.10188E-03   -0.20073E-04  3516   0.727E-03    0.398E-02
RMM:   6    -0.232418270252E+04   -0.15402E-04   -0.61693E-05  2755   0.456E-03    0.535E-02
RMM:   7    -0.232418267197E+04    0.30553E-04   -0.20217E-05  2623   0.314E-03    0.156E-02
RMM:   8    -0.232418267257E+04   -0.60178E-06   -0.91576E-06  2471   0.204E-03
  21 F= -.23455995E+04 E0= -.23455990E+04  d E =-.910399E-03  mag=     4.9916
       N       E                     dE             d eps       ncg     rms          rms(c)
DAV:   1    -0.232419221653E+04   -0.95446E-02   -0.60352E-01  4560   0.299E-01    0.289E-01
RMM:   2    -0.232419200899E+04    0.20753E-03   -0.20812E-03  4060   0.213E-02    0.175E-01
RMM:   3    -0.232419222497E+04   -0.21597E-03   -0.10747E-03  4905   0.151E-02    0.185E-01
RMM:   4    -0.232419210320E+04    0.12177E-03   -0.75060E-04  3958   0.124E-02    0.146E-01
RMM:   5    -0.232419187450E+04    0.22870E-03   -0.18378E-04  3444   0.740E-03    0.293E-02
RMM:   6    -0.232419188581E+04   -0.11313E-04   -0.44111E-05  2798   0.403E-03    0.418E-02
RMM:   7    -0.232419186773E+04    0.18088E-04   -0.19941E-05  2637   0.312E-03    0.838E-03
RMM:   8    -0.232419186879E+04   -0.10659E-05   -0.46509E-06  2497   0.161E-03
  22 F= -.23456084E+04 E0= -.23456080E+04  d E =-.817028E-03  mag=     4.9919
       N       E                     dE             d eps       ncg     rms          rms(c)
DAV:   1    -0.232416777091E+04    0.24097E-01   -0.12197E+00  4720   0.421E-01    0.394E-01
RMM:   2    -0.232416750649E+04    0.26442E-03   -0.50631E-03  4185   0.313E-02    0.241E-01
RMM:   3    -0.232416820601E+04   -0.69952E-03   -0.23081E-03  5006   0.233E-02    0.315E-01
RMM:   4    -0.232416756337E+04    0.64264E-03   -0.15864E-03  4588   0.167E-02    0.173E-01
RMM:   5    -0.232416729169E+04    0.27168E-03   -0.37805E-04  3971   0.994E-03    0.793E-02
RMM:   6    -0.232416724747E+04    0.44211E-04   -0.12112E-04  3036   0.610E-03    0.459E-02
RMM:   7    -0.232416722950E+04    0.17970E-04   -0.27248E-05  2797   0.400E-03    0.149E-02
RMM:   8    -0.232416723272E+04   -0.32136E-05   -0.10902E-05  2615   0.245E-03
  23 F= -.23455843E+04 E0= -.23455838E+04  d E =-.930857E-03  mag=     4.9915
       N       E                     dE             d eps       ncg     rms          rms(c)
DAV:   1    -0.232416016970E+04    0.70598E-02   -0.66131E-01  4960   0.315E-01    0.416E-01
RMM:   2    -0.232415807796E+04    0.20917E-02   -0.86715E-03  4232   0.358E-02    0.232E-01
RMM:   3    -0.232415783134E+04    0.24662E-03   -0.16185E-03  4585   0.239E-02    0.196E-01
RMM:   4    -0.232415805552E+04   -0.22418E-03   -0.13487E-03  4583   0.172E-02    0.234E-01
RMM:   5    -0.232415753681E+04    0.51870E-03   -0.52801E-04  4217   0.115E-02    0.862E-02
RMM:   6    -0.232415747067E+04    0.66140E-04   -0.16045E-04  3224   0.758E-03    0.493E-02
RMM:   7    -0.232415743986E+04    0.30818E-04   -0.31219E-05  2764   0.408E-03    0.138E-02
RMM:   8    -0.232415743974E+04    0.11041E-06   -0.79289E-06  2566   0.214E-03
  24 F= -.23455739E+04 E0= -.23455735E+04  d E =-.870028E-03  mag=     4.9916
       N       E                     dE             d eps       ncg     rms          rms(c)
DAV:   1    -0.232418634620E+04   -0.28906E-01   -0.13223E+00  4880   0.435E-01    0.641E-01
RMM:   2    -0.232418036243E+04    0.59838E-02   -0.23949E-02  4538   0.600E-02    0.353E-01
RMM:   3    -0.232418078520E+04   -0.42277E-03   -0.51467E-03  4620   0.422E-02    0.450E-01
RMM:   4    -0.232417949575E+04    0.12895E-02   -0.35217E-03  5040   0.265E-02    0.289E-01
RMM:   5    -0.232417898125E+04    0.51449E-03   -0.12571E-03  4882   0.176E-02    0.187E-01
RMM:   6    -0.232417864482E+04    0.33644E-03   -0.49365E-04  3779   0.114E-02    0.708E-02
RMM:   7    -0.232417860402E+04    0.40797E-04   -0.61293E-05  3012   0.520E-03    0.299E-02
RMM:   8    -0.232417859868E+04    0.53387E-05   -0.29994E-05  2673   0.376E-03
  25 F= -.23455958E+04 E0= -.23455954E+04  d E =-.849340E-03  mag=     4.9915
