       N       E                     dE             d eps       ncg     rms          rms(c)
DAV:   1     0.127597505396E+05    0.12760E+05   -0.82825E+05  4424   0.144E+03
DAV:   2    -0.105645643221E+04   -0.13816E+05   -0.13227E+05  5288   0.330E+02
DAV:   3    -0.246752997111E+04   -0.14111E+04   -0.13980E+04  5328   0.111E+02
DAV:   4    -0.251162328466E+04   -0.44093E+02   -0.43872E+02  6656   0.290E+01
DAV:   5    -0.251241507065E+04   -0.79179E+00   -0.79037E+00  5512   0.315E+00    0.170E+02
RMM:   6    -0.147501253793E+04    0.10374E+04   -0.19161E+03  4382   0.385E+01    0.720E+01
RMM:   7    -0.164201067191E+04   -0.16700E+03   -0.27787E+02  4953   0.139E+01    0.473E+01
RMM:   8    -0.169988531238E+04   -0.57875E+02   -0.32277E+01  5148   0.653E+00    0.354E+01
RMM:   9    -0.184558400749E+04   -0.14570E+03   -0.67282E+01  4769   0.806E+00    0.350E+01
RMM:  10    -0.192017104250E+04   -0.74587E+02   -0.36678E+01  5022   0.562E+00    0.230E+01
RMM:  11    -0.203083097595E+04   -0.11066E+03   -0.45667E+01  4571   0.541E+00    0.157E+01
RMM:  12    -0.209877938997E+04   -0.67948E+02   -0.27622E+01  4816   0.422E+00    0.123E+01
RMM:  13    -0.224884079553E+04   -0.15006E+03   -0.14514E+02  4375   0.830E+00    0.731E+00
RMM:  14    -0.229153845904E+04   -0.42698E+02   -0.45541E+01  4478   0.501E+00    0.717E+00
RMM:  15    -0.229486605269E+04   -0.33276E+01   -0.80145E+00  5302   0.215E+00    0.576E+00
RMM:  16    -0.229950863976E+04   -0.46426E+01   -0.43041E+00  4397   0.138E+00    0.362E+00
RMM:  17    -0.230330306032E+04   -0.37944E+01   -0.26944E+00  4545   0.113E+00    0.182E+00
RMM:  18    -0.230426691336E+04   -0.96385E+00   -0.74206E-01  4752   0.669E-01    0.949E-01
RMM:  19    -0.230452693071E+04   -0.26002E+00   -0.25230E-01  4604   0.293E-01    0.658E-01
RMM:  20    -0.230465513271E+04   -0.12820E+00   -0.88268E-02  4530   0.229E-01    0.316E-01
RMM:  21    -0.230470500650E+04   -0.49874E-01   -0.32475E-02  4764   0.115E-01    0.214E-01
RMM:  22    -0.230473726963E+04   -0.32263E-01   -0.11513E-02  4448   0.745E-02    0.129E-01
RMM:  23    -0.230476155911E+04   -0.24289E-01   -0.79093E-03  4446   0.674E-02    0.840E-02
RMM:  24    -0.230477220415E+04   -0.10645E-01   -0.31281E-03  4597   0.502E-02    0.562E-02
RMM:  25    -0.230477920504E+04   -0.70009E-02   -0.22528E-03  4407   0.347E-02    0.350E-02
RMM:  26    -0.230478200855E+04   -0.28035E-02   -0.10105E-03  4133   0.293E-02    0.219E-02
RMM:  27    -0.230478282430E+04   -0.81575E-03   -0.38000E-04  4173   0.139E-02    0.101E-02
RMM:  28    -0.230478311001E+04   -0.28571E-03   -0.10992E-04  3619   0.103E-02    0.628E-03
RMM:  29    -0.230478319874E+04   -0.88729E-04   -0.32988E-05  3209   0.573E-03    0.401E-03
RMM:  30    -0.230478323884E+04   -0.40106E-04   -0.17556E-05  2951   0.450E-03    0.195E-03
RMM:  31    -0.230478325502E+04   -0.16172E-04   -0.88774E-06  2831   0.339E-03    0.154E-03
RMM:  32    -0.230478325926E+04   -0.42408E-05   -0.40748E-06  2530   0.249E-03
   1 F= -.23251555E+04 E0= -.23251555E+04  d E =-.232516E+04  mag=     3.0000
       N       E                     dE             d eps       ncg     rms          rms(c)
DAV:   1    -0.230456274479E+04    0.22051E+00   -0.18823E+02  4656   0.567E+00    0.382E+00
RMM:   2    -0.230538661679E+04   -0.82387E+00   -0.10304E+01  6194   0.145E+00    0.299E+00
RMM:   3    -0.230542052399E+04   -0.33907E-01   -0.74279E-01  5943   0.446E-01    0.372E+00
RMM:   4    -0.230527624463E+04    0.14428E+00   -0.18366E-01  6089   0.182E-01    0.110E+00
RMM:   5    -0.230525131585E+04    0.24929E-01   -0.73208E-02  4621   0.104E-01    0.411E-01
RMM:   6    -0.230524864987E+04    0.26660E-02   -0.10994E-02  4912   0.734E-02    0.186E-01
RMM:   7    -0.230524896482E+04   -0.31495E-03   -0.56257E-03  4475   0.367E-02    0.108E-01
RMM:   8    -0.230524942327E+04   -0.45846E-03   -0.69235E-04  4254   0.232E-02    0.624E-02
RMM:   9    -0.230525028295E+04   -0.85968E-03   -0.85070E-04  4230   0.156E-02    0.337E-02
RMM:  10    -0.230525072014E+04   -0.43719E-03   -0.19653E-04  3823   0.114E-02    0.230E-02
RMM:  11    -0.230525131577E+04   -0.59563E-03   -0.24645E-04  3851   0.884E-03    0.129E-02
RMM:  12    -0.230525163012E+04   -0.31435E-03   -0.72364E-05  3371   0.751E-03    0.101E-02
RMM:  13    -0.230525191714E+04   -0.28702E-03   -0.87765E-05  3496   0.530E-03    0.589E-03
RMM:  14    -0.230525200381E+04   -0.86673E-04   -0.29575E-05  2955   0.518E-03    0.532E-03
RMM:  15    -0.230525202497E+04   -0.21151E-04   -0.10908E-05  2828   0.284E-03    0.308E-03
RMM:  16    -0.230525203042E+04   -0.54569E-05   -0.45811E-06  2655   0.265E-03
   2 F= -.23256292E+04 E0= -.23256292E+04  d E =-.473656E+00  mag=     3.0000
       N       E                     dE             d eps       ncg     rms          rms(c)
DAV:   1    -0.230543380574E+04   -0.18178E+00   -0.34785E+01  4656   0.280E+00    0.121E+00
RMM:   2    -0.230560090546E+04   -0.16710E+00   -0.17936E+00  6220   0.640E-01    0.149E+00
RMM:   3    -0.230558382241E+04    0.17083E-01   -0.11709E-01  5818   0.149E-01    0.105E+00
RMM:   4    -0.230557332316E+04    0.10499E-01   -0.21533E-02  5360   0.590E-02    0.691E-01
RMM:   5    -0.230556388804E+04    0.94351E-02   -0.26824E-02  4739   0.735E-02    0.199E-01
RMM:   6    -0.230556277591E+04    0.11121E-02   -0.28894E-03  4647   0.443E-02    0.901E-02
RMM:   7    -0.230556250059E+04    0.27532E-03   -0.76790E-04  4344   0.140E-02    0.516E-02
RMM:   8    -0.230556242061E+04    0.79983E-04   -0.15512E-04  3877   0.117E-02    0.287E-02
RMM:   9    -0.230556239830E+04    0.22302E-04   -0.11637E-04  3824   0.743E-03    0.129E-02
RMM:  10    -0.230556240055E+04   -0.22513E-05   -0.26228E-05  2974   0.616E-03
   3 F= -.23259373E+04 E0= -.23259373E+04  d E =-.781803E+00  mag=     3.0000
       N       E                     dE             d eps       ncg     rms          rms(c)
DAV:   1    -0.230555810807E+04    0.42902E-02   -0.99785E+00  4568   0.189E+00    0.999E-01
RMM:   2    -0.230566540162E+04   -0.10729E+00   -0.96355E-01  6234   0.363E-01    0.192E+00
RMM:   3    -0.230563964998E+04    0.25752E-01   -0.96308E-02  5759   0.136E-01    0.490E-01
RMM:   4    -0.230563799745E+04    0.16525E-02   -0.12706E-02  4776   0.364E-02    0.303E-01
RMM:   5    -0.230563727141E+04    0.72604E-03   -0.43007E-03  4945   0.302E-02    0.218E-01
RMM:   6    -0.230563693883E+04    0.33258E-03   -0.15105E-03  4690   0.188E-02    0.396E-02
RMM:   7    -0.230563691435E+04    0.24484E-04   -0.16412E-04  3197   0.777E-03    0.254E-02
RMM:   8    -0.230563691641E+04   -0.20632E-05   -0.47203E-05  2986   0.459E-03
   4 F= -.23260113E+04 E0= -.23260113E+04  d E =-.739444E-01  mag=     3.0000
       N       E                     dE             d eps       ncg     rms          rms(c)
DAV:   1    -0.230563692602E+04   -0.11670E-04   -0.45568E-04  4384   0.146E-02    0.918E-03
RMM:   2    -0.230563693289E+04   -0.68693E-05   -0.45259E-05  2941   0.377E-03
   5 F= -.23260113E+04 E0= -.23260113E+04  d E =-.739574E-01  mag=     3.0000
       N       E                     dE             d eps       ncg     rms          rms(c)
DAV:   1    -0.230563951534E+04   -0.25893E-02   -0.28800E+00  4496   0.103E+00    0.557E-01
RMM:   2    -0.230569437991E+04   -0.54865E-01   -0.42253E-01  6305   0.223E-01    0.144E+00
RMM:   3    -0.230567951149E+04    0.14868E-01   -0.46322E-02  5501   0.887E-02    0.358E-01
RMM:   4    -0.230567908135E+04    0.43013E-03   -0.85552E-03  4603   0.237E-02    0.179E-01
RMM:   5    -0.230567892250E+04    0.15886E-03   -0.10354E-03  4077   0.128E-02    0.186E-01
RMM:   6    -0.230567864433E+04    0.27817E-03   -0.78750E-04  3957   0.129E-02    0.312E-02
RMM:   7    -0.230567866671E+04   -0.22386E-04   -0.12132E-04  2905   0.575E-03    0.317E-02
RMM:   8    -0.230567869097E+04   -0.24256E-04   -0.33296E-05  2807   0.403E-03    0.680E-03
RMM:   9    -0.230567871197E+04   -0.21005E-04   -0.99045E-06  2775   0.274E-03    0.419E-03
RMM:  10    -0.230567872471E+04   -0.12737E-04   -0.29388E-06  2567   0.190E-03    0.314E-03
RMM:  11    -0.230567873451E+04   -0.97989E-05   -0.25254E-06  2589   0.168E-03
   6 F= -.23260532E+04 E0= -.23260532E+04  d E =-.418786E-01  mag=     3.0000
       N       E                     dE             d eps       ncg     rms          rms(c)
DAV:   1    -0.230567099896E+04    0.77257E-02   -0.10795E+00  4528   0.627E-01    0.340E-01
RMM:   2    -0.230569154157E+04   -0.20543E-01   -0.15642E-01  6268   0.136E-01    0.897E-01
RMM:   3    -0.230568586675E+04    0.56748E-02   -0.16995E-02  4970   0.542E-02    0.226E-01
RMM:   4    -0.230568568428E+04    0.18247E-03   -0.31665E-03  3779   0.147E-02    0.109E-01
RMM:   5    -0.230568565280E+04    0.31474E-04   -0.37973E-04  3510   0.827E-03    0.122E-01
RMM:   6    -0.230568553471E+04    0.11810E-03   -0.29295E-04  3332   0.832E-03    0.180E-02
RMM:   7    -0.230568554348E+04   -0.87734E-05   -0.36726E-05  2831   0.429E-03
   7 F= -.23260600E+04 E0= -.23260600E+04  d E =-.487348E-01  mag=     3.0000
       N       E                     dE             d eps       ncg     rms          rms(c)
DAV:   1    -0.230567540495E+04    0.10130E-01   -0.10824E+00  4520   0.705E-01    0.362E-01
RMM:   2    -0.230569791612E+04   -0.22511E-01   -0.23878E-01  6453   0.189E-01    0.262E-01
RMM:   3    -0.230569988908E+04   -0.19730E-02   -0.22283E-02  5392   0.616E-02    0.319E-01
RMM:   4    -0.230569922322E+04    0.66587E-03   -0.29211E-03  3605   0.159E-02    0.115E-01
RMM:   5    -0.230569907641E+04    0.14681E-03   -0.44169E-04  3275   0.890E-03    0.700E-02
RMM:   6    -0.230569905209E+04    0.24319E-04   -0.27924E-04  3537   0.772E-03    0.378E-02
RMM:   7    -0.230569904664E+04    0.54477E-05   -0.52069E-05  2931   0.623E-03
   8 F= -.23260739E+04 E0= -.23260739E+04  d E =-.138698E-01  mag=     3.0000
       N       E                     dE             d eps       ncg     rms          rms(c)
DAV:   1    -0.230565918504E+04    0.39867E-01   -0.20859E+00  4448   0.982E-01    0.506E-01
RMM:   2    -0.230570320960E+04   -0.44025E-01   -0.46677E-01  6477   0.267E-01    0.385E-01
RMM:   3    -0.230570689683E+04   -0.36872E-02   -0.44066E-02  5764   0.864E-02    0.450E-01
RMM:   4    -0.230570552080E+04    0.13760E-02   -0.56675E-03  4147   0.223E-02    0.160E-01
RMM:   5    -0.230570522475E+04    0.29605E-03   -0.91086E-04  3662   0.122E-02    0.964E-02
RMM:   6    -0.230570516970E+04    0.55046E-04   -0.52293E-04  3906   0.103E-02    0.523E-02
RMM:   7    -0.230570514937E+04    0.20335E-04   -0.99786E-05  3017   0.793E-03    0.195E-02
RMM:   8    -0.230570515062E+04   -0.12502E-05   -0.32073E-05  2874   0.431E-03
   9 F= -.23260805E+04 E0= -.23260805E+04  d E =-.204372E-01  mag=     3.0000
       N       E                     dE             d eps       ncg     rms          rms(c)
DAV:   1    -0.230569244053E+04    0.12709E-01   -0.10178E+00  4448   0.773E-01    0.359E-01
RMM:   2    -0.230571502725E+04   -0.22587E-01   -0.19896E-01  5990   0.175E-01    0.752E-01
RMM:   3    -0.230571158150E+04    0.34457E-02   -0.21355E-02  5262   0.774E-02    0.159E-01
RMM:   4    -0.230571157234E+04    0.91583E-05   -0.27919E-03  4399   0.168E-02    0.960E-02
RMM:   5    -0.230571150905E+04    0.63292E-04   -0.35482E-04  4169   0.111E-02    0.113E-01
RMM:   6    -0.230571139445E+04    0.11460E-03   -0.37700E-04  4351   0.113E-02    0.197E-02
RMM:   7    -0.230571139583E+04   -0.13749E-05   -0.43949E-05  2865   0.627E-03
  10 F= -.23260875E+04 E0= -.23260875E+04  d E =-.706015E-02  mag=     3.0000
       N       E                     dE             d eps       ncg     rms          rms(c)
DAV:   1    -0.230570689510E+04    0.44994E-02   -0.26314E-01  4512   0.393E-01    0.183E-01
RMM:   2    -0.230571284632E+04   -0.59512E-02   -0.52648E-02  6025   0.902E-02    0.387E-01
RMM:   3    -0.230571189383E+04    0.95250E-03   -0.50855E-03  4341   0.380E-02    0.820E-02
RMM:   4    -0.230571189339E+04    0.43900E-06   -0.71389E-04  3123   0.908E-03    0.497E-02
RMM:   5    -0.230571187737E+04    0.16021E-04   -0.95959E-05  3138   0.613E-03    0.590E-02
RMM:   6    -0.230571184610E+04    0.31267E-04   -0.99107E-05  3094   0.688E-03    0.104E-02
RMM:   7    -0.230571184701E+04   -0.90900E-06   -0.15366E-05  2847   0.451E-03
  11 F= -.23260884E+04 E0= -.23260884E+04  d E =-.792225E-02  mag=     3.0000
       N       E                     dE             d eps       ncg     rms          rms(c)
DAV:   1    -0.230570136303E+04    0.10483E-01   -0.11435E+00  4448   0.944E-01    0.375E-01
RMM:   2    -0.230571502105E+04   -0.13658E-01   -0.14120E-01  5802   0.188E-01    0.383E-01
RMM:   3    -0.230571571770E+04   -0.69666E-03   -0.16177E-02  5442   0.727E-02    0.350E-01
RMM:   4    -0.230571464453E+04    0.10732E-02   -0.17751E-03  4981   0.205E-02    0.100E-01
RMM:   5    -0.230571445565E+04    0.18888E-03   -0.77607E-04  5089   0.167E-02    0.438E-02
RMM:   6    -0.230571442927E+04    0.26374E-04   -0.14525E-04  4462   0.936E-03    0.152E-02
RMM:   7    -0.230571442312E+04    0.61556E-05   -0.21956E-05  2958   0.481E-03
  12 F= -.23260913E+04 E0= -.23260913E+04  d E =-.291133E-02  mag=     3.0000
       N       E                     dE             d eps       ncg     rms          rms(c)
DAV:   1    -0.230571404093E+04    0.38834E-03   -0.77174E-02  4592   0.244E-01    0.983E-02
RMM:   2    -0.230571497391E+04   -0.93297E-03   -0.94171E-03  5848   0.501E-02    0.105E-01
RMM:   3    -0.230571500546E+04   -0.31554E-04   -0.11007E-03  3750   0.215E-02    0.831E-02
RMM:   4    -0.230571494663E+04    0.58828E-04   -0.11872E-04  2916   0.640E-03    0.256E-02
RMM:   5    -0.230571493770E+04    0.89360E-05   -0.49064E-05  2969   0.496E-03
  13 F= -.23260917E+04 E0= -.23260917E+04  d E =-.333923E-02  mag=     3.0000
       N       E                     dE             d eps       ncg     rms          rms(c)
DAV:   1    -0.230571295186E+04    0.19948E-02   -0.29079E-01  4448   0.439E-01    0.189E-01
RMM:   2    -0.230571804995E+04   -0.50981E-02   -0.49935E-02  6249   0.103E-01    0.283E-01
RMM:   3    -0.230571778622E+04    0.26373E-03   -0.39086E-03  4805   0.314E-02    0.128E-01
RMM:   4    -0.230571768801E+04    0.98215E-04   -0.52457E-04  3196   0.930E-03    0.491E-02
RMM:   5    -0.230571765446E+04    0.33546E-04   -0.95887E-05  3508   0.718E-03    0.245E-02
RMM:   6    -0.230571765014E+04    0.43162E-05   -0.30896E-05  2938   0.612E-03
  14 F= -.23260942E+04 E0= -.23260942E+04  d E =-.246201E-02  mag=     3.0000
       N       E                     dE             d eps       ncg     rms          rms(c)
DAV:   1    -0.230571269183E+04    0.49626E-02   -0.37566E-01  4448   0.499E-01    0.217E-01
RMM:   2    -0.230571926561E+04   -0.65738E-02   -0.64404E-02  6170   0.116E-01    0.319E-01
RMM:   3    -0.230571896130E+04    0.30431E-03   -0.54601E-03  4982   0.367E-02    0.146E-01
RMM:   4    -0.230571883783E+04    0.12347E-03   -0.70445E-04  3437   0.104E-02    0.563E-02
RMM:   5    -0.230571879532E+04    0.42513E-04   -0.12113E-04  3712   0.795E-03    0.281E-02
RMM:   6    -0.230571878938E+04    0.59390E-05   -0.40174E-05  3010   0.660E-03
  15 F= -.23260950E+04 E0= -.23260950E+04  d E =-.331107E-02  mag=     3.0000
       N       E                     dE             d eps       ncg     rms          rms(c)
DAV:   1    -0.230571836471E+04    0.43061E-03   -0.97839E-02  4528   0.237E-01    0.117E-01
RMM:   2    -0.230572067590E+04   -0.23112E-02   -0.21603E-02  6250   0.603E-02    0.214E-01
RMM:   3    -0.230572043598E+04    0.23992E-03   -0.16861E-03  3360   0.182E-02    0.619E-02
RMM:   4    -0.230572042987E+04    0.61056E-05   -0.24435E-04  2951   0.590E-03    0.285E-02
RMM:   5    -0.230572042306E+04    0.68172E-05   -0.19791E-05  2859   0.313E-03
  16 F= -.23260965E+04 E0= -.23260965E+04  d E =-.147751E-02  mag=     3.0000
       N       E                     dE             d eps       ncg     rms          rms(c)
DAV:   1    -0.230570513516E+04    0.15295E-01   -0.87779E-01  4424   0.711E-01    0.350E-01
RMM:   2    -0.230572624174E+04   -0.21107E-01   -0.19592E-01  6204   0.180E-01    0.657E-01
RMM:   3    -0.230572376531E+04    0.24764E-02   -0.15033E-02  5499   0.538E-02    0.183E-01
RMM:   4    -0.230572369777E+04    0.67535E-04   -0.21866E-03  3687   0.139E-02    0.861E-02
RMM:   5    -0.230572363007E+04    0.67699E-04   -0.16348E-04  3221   0.771E-03    0.652E-02
RMM:   6    -0.230572360721E+04    0.22860E-04   -0.21012E-04  3534   0.899E-03    0.121E-02
RMM:   7    -0.230572361016E+04   -0.29455E-05   -0.18952E-05  2870   0.541E-03
  17 F= -.23260992E+04 E0= -.23260992E+04  d E =-.418386E-02  mag=     3.0000
       N       E                     dE             d eps       ncg     rms          rms(c)
DAV:   1    -0.230564792416E+04    0.75683E-01   -0.35173E+00  4400   0.143E+00    0.700E-01
RMM:   2    -0.230573251673E+04   -0.84593E-01   -0.78650E-01  6213   0.364E-01    0.130E+00
RMM:   3    -0.230572289894E+04    0.96178E-02   -0.65187E-02  5878   0.111E-01    0.355E-01
RMM:   4    -0.230572270201E+04    0.19693E-03   -0.88761E-03  4798   0.275E-02    0.173E-01
RMM:   5    -0.230572242835E+04    0.27366E-03   -0.70379E-04  4248   0.145E-02    0.132E-01
RMM:   6    -0.230572232199E+04    0.10636E-03   -0.89979E-04  4533   0.160E-02    0.275E-02
RMM:   7    -0.230572234313E+04   -0.21143E-04   -0.68976E-05  2972   0.873E-03    0.139E-02
RMM:   8    -0.230572237291E+04   -0.29774E-04   -0.16587E-05  2882   0.303E-03    0.792E-03
RMM:   9    -0.230572238991E+04   -0.16999E-04   -0.66762E-06  2801   0.240E-03    0.321E-03
RMM:  10    -0.230572239617E+04   -0.62659E-05   -0.25307E-06  2622   0.179E-03
  18 F= -.23260970E+04 E0= -.23260970E+04  d E =-.195274E-02  mag=     3.0000
       N       E                     dE             d eps       ncg     rms          rms(c)
DAV:   1    -0.230568652521E+04    0.35865E-01   -0.18020E+00  4400   0.102E+00    0.497E-01
RMM:   2    -0.230572895821E+04   -0.42433E-01   -0.39882E-01  6166   0.254E-01    0.888E-01
RMM:   3    -0.230572476729E+04    0.41909E-02   -0.28280E-02  5684   0.745E-02    0.273E-01
RMM:   4    -0.230572449324E+04    0.27404E-03   -0.39927E-03  4435   0.190E-02    0.122E-01
RMM:   5    -0.230572434275E+04    0.15049E-03   -0.37213E-04  3915   0.114E-02    0.870E-02
RMM:   6    -0.230572429406E+04    0.48689E-04   -0.35308E-04  4026   0.112E-02    0.168E-02
RMM:   7    -0.230572429414E+04   -0.75350E-07   -0.32912E-05  2903   0.637E-03
  19 F= -.23260996E+04 E0= -.23260996E+04  d E =-.458619E-02  mag=     3.0000
       N       E                     dE             d eps       ncg     rms          rms(c)
DAV:   1    -0.230572360190E+04    0.69217E-03   -0.13123E-01  4448   0.297E-01    0.134E-01
RMM:   2    -0.230572581921E+04   -0.22173E-02   -0.21872E-02  6014   0.699E-02    0.182E-01
RMM:   3    -0.230572569123E+04    0.12798E-03   -0.14112E-03  3679   0.209E-02    0.103E-01
RMM:   4    -0.230572560902E+04    0.82210E-04   -0.21350E-04  3023   0.719E-03    0.304E-02
RMM:   5    -0.230572559526E+04    0.13756E-04   -0.35808E-05  2926   0.495E-03    0.165E-02
RMM:   6    -0.230572559135E+04    0.39155E-05   -0.16063E-05  2850   0.482E-03
  20 F= -.23261007E+04 E0= -.23261007E+04  d E =-.108720E-02  mag=     3.0000
       N       E                     dE             d eps       ncg     rms          rms(c)
DAV:   1    -0.230572502431E+04    0.57095E-03   -0.57189E-02  4480   0.196E-01    0.892E-02
RMM:   2    -0.230572599632E+04   -0.97201E-03   -0.96025E-03  6009   0.465E-02    0.122E-01
RMM:   3    -0.230572593689E+04    0.59428E-04   -0.62225E-04  3237   0.148E-02    0.682E-02
RMM:   4    -0.230572590172E+04    0.35173E-04   -0.94788E-05  2904   0.521E-03    0.203E-02
RMM:   5    -0.230572589569E+04    0.60298E-05   -0.16391E-05  2861   0.347E-03
  21 F= -.23261009E+04 E0= -.23261009E+04  d E =-.125131E-02  mag=     3.0000
       N       E                     dE             d eps       ncg     rms          rms(c)
DAV:   1    -0.230572587671E+04    0.25013E-04   -0.36872E-02  4464   0.170E-01    0.672E-02
RMM:   2    -0.230572626510E+04   -0.38839E-03   -0.41106E-03  5890   0.365E-02    0.629E-02
RMM:   3    -0.230572628321E+04   -0.18112E-04   -0.30509E-04  3068   0.122E-02    0.649E-02
RMM:   4    -0.230572624814E+04    0.35073E-04   -0.48864E-05  2876   0.459E-03    0.162E-02
RMM:   5    -0.230572624502E+04    0.31177E-05   -0.16649E-05  2852   0.330E-03
  22 F= -.23261012E+04 E0= -.23261012E+04  d E =-.313439E-03  mag=     3.0000
       N       E                     dE             d eps       ncg     rms          rms(c)
DAV:   1    -0.230572617592E+04    0.72223E-04   -0.11965E-02  4592   0.967E-02    0.383E-02
RMM:   2    -0.230572630270E+04   -0.12678E-03   -0.13554E-03  5385   0.212E-02    0.338E-02
RMM:   3    -0.230572631045E+04   -0.77543E-05   -0.10077E-04  2862   0.765E-03    0.372E-02
RMM:   4    -0.230572629921E+04    0.11243E-04   -0.16851E-05  2846   0.293E-03    0.981E-03
RMM:   5    -0.230572629802E+04    0.11892E-05   -0.56047E-06  2804   0.198E-03
  23 F= -.23261012E+04 E0= -.23261012E+04  d E =-.345643E-03  mag=     3.0000
       N       E                     dE             d eps       ncg     rms          rms(c)
DAV:   1    -0.230572608997E+04    0.20924E-03   -0.27739E-02  4448   0.153E-01    0.577E-02
RMM:   2    -0.230572652619E+04   -0.43622E-03   -0.44472E-03  5875   0.315E-02    0.695E-02
RMM:   3    -0.230572653438E+04   -0.81919E-05   -0.40816E-04  2952   0.116E-02    0.485E-02
RMM:   4    -0.230572651514E+04    0.19242E-04   -0.49037E-05  2872   0.392E-03    0.155E-02
RMM:   5    -0.230572651130E+04    0.38457E-05   -0.12736E-05  2839   0.270E-03
  24 F= -.23261014E+04 E0= -.23261014E+04  d E =-.235937E-03  mag=     3.0000
       N       E                     dE             d eps       ncg     rms          rms(c)
DAV:   1    -0.230572613400E+04    0.38115E-03   -0.27434E-02  4448   0.152E-01    0.573E-02
RMM:   2    -0.230572656052E+04   -0.42652E-03   -0.44354E-03  5905   0.314E-02    0.621E-02
RMM:   3    -0.230572657923E+04   -0.18713E-04   -0.39841E-04  2945   0.114E-02    0.511E-02
RMM:   4    -0.230572655807E+04    0.21157E-04   -0.49015E-05  2869   0.398E-03    0.160E-02
RMM:   5    -0.230572655429E+04    0.37791E-05   -0.12801E-05  2849   0.269E-03
  25 F= -.23261015E+04 E0= -.23261015E+04  d E =-.301520E-03  mag=     3.0000
       N       E                     dE             d eps       ncg     rms          rms(c)
DAV:   1    -0.230572596819E+04    0.58988E-03   -0.45130E-02  4432   0.200E-01    0.751E-02
RMM:   2    -0.230572675908E+04   -0.79089E-03   -0.77872E-03  6008   0.409E-02    0.106E-01
RMM:   3    -0.230572673777E+04    0.21304E-04   -0.69205E-04  3192   0.153E-02    0.558E-02
RMM:   4    -0.230572671269E+04    0.25089E-04   -0.88152E-05  2878   0.491E-03    0.180E-02
RMM:   5    -0.230572670551E+04    0.71787E-05   -0.16993E-05  2845   0.331E-03
  26 F= -.23261017E+04 E0= -.23261017E+04  d E =-.201248E-03  mag=     3.0000
       N       E                     dE             d eps       ncg     rms          rms(c)
DAV:   1    -0.230572656368E+04    0.14901E-03   -0.79364E-03  4672   0.838E-02    0.311E-02
RMM:   2    -0.230572669781E+04   -0.13413E-03   -0.13672E-03  5254   0.183E-02    0.370E-02
RMM:   3    -0.230572670113E+04   -0.33188E-05   -0.12539E-04  2848   0.718E-03    0.260E-02
RMM:   4    -0.230572669551E+04    0.56169E-05   -0.16440E-05  2846   0.266E-03
  27 F= -.23261017E+04 E0= -.23261017E+04  d E =-.212529E-03  mag=     3.0000
       N       E                     dE             d eps       ncg     rms          rms(c)
DAV:   1    -0.230572607668E+04    0.62445E-03   -0.44809E-02  4432   0.194E-01    0.725E-02
RMM:   2    -0.230572687444E+04   -0.79777E-03   -0.74922E-03  5944   0.393E-02    0.117E-01
RMM:   3    -0.230572682781E+04    0.46633E-04   -0.74622E-04  3087   0.145E-02    0.434E-02
RMM:   4    -0.230572681579E+04    0.12017E-04   -0.97464E-05  2881   0.457E-03    0.181E-02
RMM:   5    -0.230572681207E+04    0.37288E-05   -0.11765E-05  2836   0.300E-03
  28 F= -.23261019E+04 E0= -.23261019E+04  d E =-.197385E-03  mag=     3.0000
       N       E                     dE             d eps       ncg     rms          rms(c)
DAV:   1    -0.230572626923E+04    0.54656E-03   -0.31667E-02  4448   0.163E-01    0.630E-02
RMM:   2    -0.230572684097E+04   -0.57174E-03   -0.53136E-03  5945   0.341E-02    0.104E-01
RMM:   3    -0.230572679953E+04    0.41443E-04   -0.52867E-04  2968   0.121E-02    0.372E-02
RMM:   4    -0.230572679127E+04    0.82585E-05   -0.69430E-05  2871   0.411E-03
  29 F= -.23261020E+04 E0= -.23261020E+04  d E =-.244934E-03  mag=     3.0000
       N       E                     dE             d eps       ncg     rms          rms(c)
DAV:   1    -0.230572640614E+04    0.39338E-03   -0.26331E-02  4460   0.142E-01    0.514E-02
RMM:   2    -0.230572690166E+04   -0.49551E-03   -0.50507E-03  5825   0.296E-02    0.535E-02
RMM:   3    -0.230572693718E+04   -0.35525E-04   -0.50069E-04  2894   0.110E-02    0.446E-02
RMM:   4    -0.230572692244E+04    0.14739E-04   -0.65380E-05  2880   0.362E-03    0.170E-02
RMM:   5    -0.230572691999E+04    0.24530E-05   -0.72464E-06  2752   0.200E-03
  30 F= -.23261022E+04 E0= -.23261022E+04  d E =-.190849E-03  mag=     3.0000
       N       E                     dE             d eps       ncg     rms          rms(c)
DAV:   1    -0.230572248154E+04    0.44409E-02   -0.23863E-01  4408   0.428E-01    0.170E-01
RMM:   2    -0.230572731658E+04   -0.48350E-02   -0.46410E-02  5959   0.891E-02    0.265E-01
RMM:   3    -0.230572718711E+04    0.12947E-03   -0.45907E-03  4433   0.316E-02    0.114E-01
RMM:   4    -0.230572710655E+04    0.80557E-04   -0.59164E-04  3126   0.858E-03    0.407E-02
RMM:   5    -0.230572708923E+04    0.17325E-04   -0.41466E-05  2876   0.460E-03    0.332E-02
RMM:   6    -0.230572708073E+04    0.84983E-05   -0.58668E-05  2929   0.553E-03
  31 F= -.23261025E+04 E0= -.23261025E+04  d E =-.538548E-03  mag=     3.0000
       N       E                     dE             d eps       ncg     rms          rms(c)
DAV:   1    -0.230570786866E+04    0.19221E-01   -0.95636E-01  4408   0.858E-01    0.341E-01
RMM:   2    -0.230572732898E+04   -0.19460E-01   -0.18654E-01  5901   0.179E-01    0.536E-01
RMM:   3    -0.230572674947E+04    0.57951E-03   -0.18948E-02  5444   0.643E-02    0.225E-01
RMM:   4    -0.230572644411E+04    0.30535E-03   -0.24190E-03  4412   0.158E-02    0.811E-02
RMM:   5    -0.230572637248E+04    0.71631E-04   -0.15751E-04  3194   0.810E-03    0.664E-02
RMM:   6    -0.230572633695E+04    0.35531E-04   -0.24235E-04  3932   0.102E-02    0.139E-02
RMM:   7    -0.230572633643E+04    0.52233E-06   -0.29288E-05  2883   0.619E-03
  32 F= -.23261021E+04 E0= -.23261021E+04  d E =-.170707E-03  mag=     3.0000
       N       E                     dE             d eps       ncg     rms          rms(c)
DAV:   1    -0.230571902082E+04    0.73161E-02   -0.41587E-01  4408   0.565E-01    0.224E-01
RMM:   2    -0.230572751518E+04   -0.84944E-02   -0.80690E-02  5925   0.116E-01    0.361E-01
RMM:   3    -0.230572715873E+04    0.35644E-03   -0.76408E-03  5018   0.415E-02    0.141E-01
RMM:   4    -0.230572703167E+04    0.12707E-03   -0.99735E-04  3366   0.105E-02    0.521E-02
RMM:   5    -0.230572700249E+04    0.29173E-04   -0.65137E-05  2913   0.574E-03    0.458E-02
RMM:   6    -0.230572698330E+04    0.19195E-04   -0.10096E-04  3226   0.703E-03    0.802E-03
RMM:   7    -0.230572698394E+04   -0.64413E-06   -0.14310E-05  2839   0.472E-03
  33 F= -.23261025E+04 E0= -.23261025E+04  d E =-.569839E-03  mag=     3.0000
       N       E                     dE             d eps       ncg     rms          rms(c)
DAV:   1    -0.230572673663E+04    0.24666E-03   -0.16093E-02  4512   0.106E-01    0.442E-02
RMM:   2    -0.230572707934E+04   -0.34271E-03   -0.32825E-03  5434   0.226E-02    0.689E-02
RMM:   3    -0.230572707226E+04    0.70805E-05   -0.32088E-04  2871   0.841E-03    0.295E-02
RMM:   4    -0.230572706660E+04    0.56628E-05   -0.40230E-05  2812   0.286E-03
  34 F= -.23261027E+04 E0= -.23261027E+04  d E =-.128135E-03  mag=     3.0000
       N       E                     dE             d eps       ncg     rms          rms(c)
DAV:   1    -0.230572420647E+04    0.28658E-02   -0.14385E-01  4408   0.317E-01    0.128E-01
RMM:   2    -0.230572722314E+04   -0.30167E-02   -0.29813E-02  6079   0.674E-02    0.170E-01
RMM:   3    -0.230572729820E+04   -0.75054E-04   -0.29015E-03  3668   0.242E-02    0.983E-02
RMM:   4    -0.230572723086E+04    0.67339E-04   -0.37303E-04  3005   0.712E-03    0.344E-02
RMM:   5    -0.230572721815E+04    0.12707E-04   -0.30485E-05  2841   0.370E-03    0.261E-02
RMM:   6    -0.230572721231E+04    0.58430E-05   -0.33815E-05  2864   0.413E-03
  35 F= -.23261029E+04 E0= -.23261029E+04  d E =-.410632E-03  mag=     3.0000
       N       E                     dE             d eps       ncg     rms          rms(c)
DAV:   1    -0.230571509296E+04    0.12125E-01   -0.57634E-01  4408   0.635E-01    0.265E-01
RMM:   2    -0.230572735944E+04   -0.12266E-01   -0.11986E-01  5935   0.136E-01    0.379E-01
RMM:   3    -0.230572742233E+04   -0.62890E-04   -0.12087E-02  5175   0.505E-02    0.193E-01
RMM:   4    -0.230572717677E+04    0.24556E-03   -0.15152E-03  3625   0.121E-02    0.637E-02
RMM:   5    -0.230572713273E+04    0.44035E-04   -0.10244E-04  2933   0.608E-03    0.498E-02
RMM:   6    -0.230572711127E+04    0.21463E-04   -0.13247E-04  3366   0.747E-03    0.101E-02
RMM:   7    -0.230572711121E+04    0.59867E-07   -0.17940E-05  2853   0.484E-03
  36 F= -.23261031E+04 E0= -.23261031E+04  d E =-.584794E-03  mag=     3.0000
       N       E                     dE             d eps       ncg     rms          rms(c)
DAV:   1    -0.230572557874E+04    0.15325E-02   -0.87300E-02  4440   0.232E-01    0.998E-02
RMM:   2    -0.230572728617E+04   -0.17074E-02   -0.17198E-02  6047   0.506E-02    0.107E-01
RMM:   3    -0.230572739583E+04   -0.10966E-03   -0.16659E-03  3235   0.188E-02    0.858E-02
RMM:   4    -0.230572733959E+04    0.56247E-04   -0.21301E-04  2950   0.592E-03    0.262E-02
RMM:   5    -0.230572733250E+04    0.70912E-05   -0.17975E-05  2815   0.295E-03
  37 F= -.23261035E+04 E0= -.23261035E+04  d E =-.339398E-03  mag=     3.0000
       N       E                     dE             d eps       ncg     rms          rms(c)
DAV:   1    -0.230571560640E+04    0.11733E-01   -0.59287E-01  4408   0.606E-01    0.262E-01
RMM:   2    -0.230572725724E+04   -0.11651E-01   -0.11644E-01  6056   0.131E-01    0.305E-01
RMM:   3    -0.230572785961E+04   -0.60237E-03   -0.11417E-02  5274   0.469E-02    0.223E-01
RMM:   4    -0.230572748294E+04    0.37667E-03   -0.14297E-03  3517   0.123E-02    0.672E-02
RMM:   5    -0.230572743722E+04    0.45719E-04   -0.11570E-04  2972   0.659E-03    0.473E-02
RMM:   6    -0.230572742114E+04    0.16080E-04   -0.11218E-04  3185   0.747E-03    0.995E-03
RMM:   7    -0.230572742168E+04   -0.53766E-06   -0.16720E-05  2851   0.481E-03
  38 F= -.23261039E+04 E0= -.23261039E+04  d E =-.738279E-03  mag=     3.0000
       N       E                     dE             d eps       ncg     rms          rms(c)
DAV:   1    -0.230572476706E+04    0.26541E-02   -0.14805E-01  4408   0.297E-01    0.134E-01
RMM:   2    -0.230572772429E+04   -0.29572E-02   -0.29596E-02  6107   0.654E-02    0.152E-01
RMM:   3    -0.230572788303E+04   -0.15874E-03   -0.29018E-03  3797   0.247E-02    0.113E-01
RMM:   4    -0.230572778197E+04    0.10106E-03   -0.36333E-04  3017   0.726E-03    0.340E-02
RMM:   5    -0.230572776837E+04    0.13607E-04   -0.34934E-05  2860   0.401E-03    0.237E-02
RMM:   6    -0.230572776396E+04    0.44042E-05   -0.31849E-05  2865   0.421E-03
  39 F= -.23261044E+04 E0= -.23261044E+04  d E =-.511195E-03  mag=     3.0000
       N       E                     dE             d eps       ncg     rms          rms(c)
DAV:   1    -0.230571459688E+04    0.13171E-01   -0.65226E-01  4408   0.625E-01    0.283E-01
RMM:   2    -0.230572761586E+04   -0.13019E-01   -0.12950E-01  6070   0.135E-01    0.340E-01
RMM:   3    -0.230572820451E+04   -0.58865E-03   -0.12936E-02  5354   0.484E-02    0.236E-01
RMM:   4    -0.230572777286E+04    0.43165E-03   -0.16177E-03  3735   0.129E-02    0.703E-02
RMM:   5    -0.230572771221E+04    0.60654E-04   -0.14051E-04  3083   0.712E-03    0.503E-02
RMM:   6    -0.230572769186E+04    0.20352E-04   -0.12949E-04  3381   0.809E-03    0.107E-02
RMM:   7    -0.230572769216E+04   -0.30230E-06   -0.20162E-05  2855   0.497E-03
  40 F= -.23261047E+04 E0= -.23261047E+04  d E =-.794901E-03  mag=     3.0000
       N       E                     dE             d eps       ncg     rms          rms(c)
DAV:   1    -0.230572569705E+04    0.19948E-02   -0.10394E-01  4472   0.244E-01    0.112E-01
RMM:   2    -0.230572790147E+04   -0.22044E-02   -0.21609E-02  6127   0.543E-02    0.150E-01
RMM:   3    -0.230572795070E+04   -0.49229E-04   -0.21572E-03  3367   0.198E-02    0.853E-02
RMM:   4    -0.230572790073E+04    0.49970E-04   -0.26976E-04  2946   0.599E-03    0.275E-02
RMM:   5    -0.230572789207E+04    0.86644E-05   -0.19078E-05  2808   0.297E-03
  41 F= -.23261050E+04 E0= -.23261050E+04  d E =-.300046E-03  mag=     3.0000
       N       E                     dE             d eps       ncg     rms          rms(c)
DAV:   1    -0.230570850388E+04    0.19397E-01   -0.93077E-01  4408   0.732E-01    0.338E-01
RMM:   2    -0.230572837961E+04   -0.19876E-01   -0.19325E-01  6182   0.159E-01    0.480E-01
RMM:   3    -0.230572860533E+04   -0.22573E-03   -0.19514E-02  5466   0.565E-02    0.253E-01
RMM:   4    -0.230572817387E+04    0.43146E-03   -0.24157E-03  3845   0.144E-02    0.817E-02
RMM:   5    -0.230572810098E+04    0.72895E-04   -0.15815E-04  3091   0.724E-03    0.649E-02
RMM:   6    -0.230572807368E+04    0.27295E-04   -0.19082E-04  3375   0.860E-03    0.129E-02
RMM:   7    -0.230572807454E+04   -0.85702E-06   -0.25622E-05  2861   0.494E-03
  42 F= -.23261054E+04 E0= -.23261054E+04  d E =-.783307E-03  mag=     3.0000
       N       E                     dE             d eps       ncg     rms          rms(c)
DAV:   1    -0.230572356256E+04    0.45111E-02   -0.20878E-01  4408   0.345E-01    0.159E-01
RMM:   2    -0.230572798946E+04   -0.44269E-02   -0.43329E-02  6200   0.760E-02    0.217E-01
RMM:   3    -0.230572806971E+04   -0.80245E-04   -0.42824E-03  3953   0.275E-02    0.121E-01
RMM:   4    -0.230572796982E+04    0.99883E-04   -0.53789E-04  3054   0.779E-03    0.390E-02
RMM:   5    -0.230572795238E+04    0.17443E-04   -0.36738E-05  2853   0.398E-03    0.307E-02
RMM:   6    -0.230572794569E+04    0.66899E-05   -0.47767E-05  2883   0.439E-03
  43 F= -.23261054E+04 E0= -.23261054E+04  d E =-.796690E-03  mag=     3.0000
       N       E                     dE             d eps       ncg     rms          rms(c)
DAV:   1    -0.230572096311E+04    0.69893E-02   -0.39069E-01  4408   0.485E-01    0.227E-01
RMM:   2    -0.230572944935E+04   -0.84862E-02   -0.78863E-02  6110   0.108E-01    0.391E-01
RMM:   3    -0.230572883685E+04    0.61251E-03   -0.73116E-03  4925   0.374E-02    0.135E-01
RMM:   4    -0.230572873934E+04    0.97502E-04   -0.95280E-04  3279   0.978E-03    0.501E-02
RMM:   5    -0.230572871482E+04    0.24523E-04   -0.62289E-05  2916   0.534E-03    0.451E-02
RMM:   6    -0.230572869954E+04    0.15280E-04   -0.89100E-05  2987   0.642E-03    0.817E-03
RMM:   7    -0.230572869945E+04    0.89611E-07   -0.13906E-05  2839   0.435E-03
  44 F= -.23261063E+04 E0= -.23261063E+04  d E =-.806172E-03  mag=     3.0000
       N       E                     dE             d eps       ncg     rms          rms(c)
DAV:   1    -0.230571230013E+04    0.16399E-01   -0.84062E-01  4400   0.712E-01    0.330E-01
RMM:   2    -0.230573050188E+04   -0.18202E-01   -0.17017E-01  6107   0.159E-01    0.558E-01
RMM:   3    -0.230572937871E+04    0.11232E-02   -0.15921E-02  5452   0.550E-02    0.201E-01
RMM:   4    -0.230572915700E+04    0.22171E-03   -0.20615E-03  3925   0.139E-02    0.747E-02
RMM:   5    -0.230572909908E+04    0.57923E-04   -0.13356E-04  3110   0.747E-03    0.660E-02
RMM:   6    -0.230572906646E+04    0.32616E-04   -0.20161E-04  3581   0.911E-03    0.124E-02
RMM:   7    -0.230572906568E+04    0.78010E-06   -0.27130E-05  2859   0.537E-03
  45 F= -.23261067E+04 E0= -.23261067E+04  d E =-.124948E-02  mag=     3.0000
       N       E                     dE             d eps       ncg     rms          rms(c)
DAV:   1    -0.230571941317E+04    0.96533E-02   -0.49373E-01  4400   0.541E-01    0.261E-01
RMM:   2    -0.230573116378E+04   -0.11751E-01   -0.10759E-01  6172   0.125E-01    0.485E-01
RMM:   3    -0.230573003455E+04    0.11292E-02   -0.10024E-02  5174   0.429E-02    0.138E-01
RMM:   4    -0.230572996900E+04    0.65553E-04   -0.13399E-03  3370   0.111E-02    0.583E-02
RMM:   5    -0.230572993777E+04    0.31225E-04   -0.81698E-05  2930   0.576E-03    0.544E-02
RMM:   6    -0.230572991484E+04    0.22934E-04   -0.12918E-04  3118   0.724E-03    0.100E-02
RMM:   7    -0.230572991506E+04   -0.22177E-06   -0.18773E-05  2843   0.476E-03
  46 F= -.23261076E+04 E0= -.23261076E+04  d E =-.917370E-03  mag=     3.0000
       N       E                     dE             d eps       ncg     rms          rms(c)
DAV:   1    -0.230571757072E+04    0.12344E-01   -0.58669E-01  4400   0.591E-01    0.285E-01
RMM:   2    -0.230573165925E+04   -0.14089E-01   -0.12860E-01  6140   0.136E-01    0.534E-01
RMM:   3    -0.230573026881E+04    0.13904E-02   -0.12036E-02  5269   0.473E-02    0.148E-01
RMM:   4    -0.230573019835E+04    0.70456E-04   -0.16097E-03  3477   0.119E-02    0.637E-02
RMM:   5    -0.230573015981E+04    0.38545E-04   -0.90760E-05  2943   0.618E-03    0.597E-02
RMM:   6    -0.230573013132E+04    0.28491E-04   -0.15864E-04  3284   0.794E-03    0.110E-02
RMM:   7    -0.230573013138E+04   -0.57451E-07   -0.22205E-05  2845   0.501E-03
  47 F= -.23261079E+04 E0= -.23261079E+04  d E =-.120783E-02  mag=     3.0000
       N       E                     dE             d eps       ncg     rms          rms(c)
DAV:   1    -0.230572256047E+04    0.75708E-02   -0.35456E-01  4408   0.476E-01    0.223E-01
RMM:   2    -0.230573098009E+04   -0.84196E-02   -0.79604E-02  6058   0.108E-01    0.364E-01
RMM:   3    -0.230573062480E+04    0.35529E-03   -0.80546E-03  5023   0.411E-02    0.135E-01
RMM:   4    -0.230573052790E+04    0.96908E-04   -0.10233E-03  3308   0.102E-02    0.507E-02
RMM:   5    -0.230573050217E+04    0.25728E-04   -0.61245E-05  2901   0.565E-03    0.455E-02
RMM:   6    -0.230573048681E+04    0.15356E-04   -0.95859E-05  3031   0.676E-03    0.892E-03
RMM:   7    -0.230573048688E+04   -0.64989E-07   -0.13940E-05  2839   0.461E-03
  48 F= -.23261084E+04 E0= -.23261084E+04  d E =-.534646E-03  mag=     3.0000
       N       E                     dE             d eps       ncg     rms          rms(c)
DAV:   1    -0.230572919119E+04    0.12956E-02   -0.56397E-02  4576   0.190E-01    0.885E-02
RMM:   2    -0.230573051692E+04   -0.13257E-02   -0.12666E-02  6015   0.430E-02    0.138E-01
RMM:   3    -0.230573047307E+04    0.43849E-04   -0.11937E-03  3184   0.167E-02    0.562E-02
RMM:   4    -0.230573045433E+04    0.18737E-04   -0.15546E-04  2897   0.499E-03    0.205E-02
RMM:   5    -0.230573045006E+04    0.42742E-05   -0.11124E-05  2819   0.260E-03
  49 F= -.23261085E+04 E0= -.23261085E+04  d E =-.568988E-03  mag=     3.0000
       N       E                     dE             d eps       ncg     rms          rms(c)
DAV:   1    -0.230572500054E+04    0.54538E-02   -0.27619E-01  4408   0.423E-01    0.180E-01
RMM:   2    -0.230573053562E+04   -0.55351E-02   -0.56496E-02  6010   0.899E-02    0.185E-01
RMM:   3    -0.230573097955E+04   -0.44393E-03   -0.58270E-03  4460   0.349E-02    0.163E-01
RMM:   4    -0.230573076753E+04    0.21202E-03   -0.70418E-04  3173   0.950E-03    0.465E-02
RMM:   5    -0.230573074432E+04    0.23204E-04   -0.60614E-05  2888   0.520E-03    0.322E-02
RMM:   6    -0.230573073411E+04    0.10209E-04   -0.52988E-05  2982   0.561E-03    0.677E-03
RMM:   7    -0.230573073451E+04   -0.39148E-06   -0.92039E-06  2841   0.410E-03
  50 F= -.23261090E+04 E0= -.23261090E+04  d E =-.509445E-03  mag=     3.0000
       N       E                     dE             d eps       ncg     rms          rms(c)
DAV:   1    -0.230572786317E+04    0.28709E-02   -0.13278E-01  4408   0.293E-01    0.125E-01
RMM:   2    -0.230573054761E+04   -0.26844E-02   -0.27424E-02  6052   0.632E-02    0.126E-01
RMM:   3    -0.230573076646E+04   -0.21885E-03   -0.28281E-03  3735   0.247E-02    0.112E-01
RMM:   4    -0.230573066652E+04    0.99943E-04   -0.34124E-04  2999   0.719E-03    0.324E-02
RMM:   5    -0.230573065415E+04    0.12366E-04   -0.31941E-05  2852   0.384E-03    0.224E-02
RMM:   6    -0.230573064879E+04    0.53630E-05   -0.27555E-05  2872   0.402E-03
  51 F= -.23261091E+04 E0= -.23261091E+04  d E =-.578607E-03  mag=     3.0000
       N       E                     dE             d eps       ncg     rms          rms(c)
DAV:   1    -0.230572501796E+04    0.56362E-02   -0.28406E-01  4408   0.435E-01    0.179E-01
RMM:   2    -0.230573041828E+04   -0.54003E-02   -0.56481E-02  6047   0.911E-02    0.123E-01
RMM:   3    -0.230573102426E+04   -0.60598E-03   -0.58659E-03  4394   0.343E-02    0.152E-01
RMM:   4    -0.230573084293E+04    0.18133E-03   -0.68254E-04  3100   0.894E-03    0.490E-02
RMM:   5    -0.230573081851E+04    0.24426E-04   -0.66204E-05  2875   0.510E-03    0.300E-02
RMM:   6    -0.230573080799E+04    0.10522E-04   -0.48450E-05  2979   0.520E-03    0.790E-03
RMM:   7    -0.230573080827E+04   -0.28667E-06   -0.86627E-06  2844   0.414E-03
  52 F= -.23261095E+04 E0= -.23261095E+04  d E =-.438516E-03  mag=     3.0000
       N       E                     dE             d eps       ncg     rms          rms(c)
DAV:   1    -0.230572909085E+04    0.17171E-02   -0.78178E-02  4416   0.228E-01    0.940E-02
RMM:   2    -0.230573059143E+04   -0.15006E-02   -0.15706E-02  6011   0.486E-02    0.622E-02
RMM:   3    -0.230573075600E+04   -0.16457E-03   -0.15997E-03  3192   0.187E-02    0.770E-02
RMM:   4    -0.230573071117E+04    0.44834E-04   -0.19176E-04  2919   0.552E-03    0.260E-02
RMM:   5    -0.230573070354E+04    0.76266E-05   -0.17001E-05  2812   0.287E-03
  53 F= -.23261095E+04 E0= -.23261095E+04  d E =-.479551E-03  mag=     3.0000
       N       E                     dE             d eps       ncg     rms          rms(c)
DAV:   1    -0.230572653186E+04    0.41793E-02   -0.20684E-01  4408   0.380E-01    0.157E-01
RMM:   2    -0.230573051563E+04   -0.39838E-02   -0.41989E-02  6030   0.818E-02    0.950E-02
RMM:   3    -0.230573095090E+04   -0.43527E-03   -0.43211E-03  3994   0.306E-02    0.119E-01
RMM:   4    -0.230573084878E+04    0.10212E-03   -0.50929E-04  3034   0.830E-03    0.456E-02
RMM:   5    -0.230573082823E+04    0.20554E-04   -0.53621E-05  2852   0.492E-03    0.259E-02
RMM:   6    -0.230573082114E+04    0.70852E-05   -0.36022E-05  2899   0.477E-03
  54 F= -.23261099E+04 E0= -.23261099E+04  d E =-.362393E-03  mag=     3.0000
       N       E                     dE             d eps       ncg     rms          rms(c)
DAV:   1    -0.230573047563E+04    0.35260E-03   -0.13825E-02  4736   0.983E-02    0.417E-02
RMM:   2    -0.230573074414E+04   -0.26851E-03   -0.28339E-03  5557   0.225E-02    0.284E-02
RMM:   3    -0.230573077552E+04   -0.31378E-04   -0.29298E-04  2854   0.843E-03    0.357E-02
RMM:   4    -0.230573076600E+04    0.95154E-05   -0.35398E-05  2859   0.304E-03
  55 F= -.23261099E+04 E0= -.23261099E+04  d E =-.370617E-03  mag=     3.0000
       N       E                     dE             d eps       ncg     rms          rms(c)
DAV:   1    -0.230572853937E+04    0.22362E-02   -0.12953E-01  4408   0.322E-01    0.128E-01
RMM:   2    -0.230573088718E+04   -0.23478E-02   -0.24104E-02  5925   0.675E-02    0.125E-01
RMM:   3    -0.230573106340E+04   -0.17622E-03   -0.23087E-03  3900   0.255E-02    0.120E-01
RMM:   4    -0.230573094152E+04    0.12188E-03   -0.29195E-04  3010   0.745E-03    0.328E-02
RMM:   5    -0.230573092754E+04    0.13982E-04   -0.41803E-05  2876   0.465E-03    0.207E-02
RMM:   6    -0.230573092357E+04    0.39664E-05   -0.23102E-05  2852   0.463E-03
  56 F= -.23261102E+04 E0= -.23261102E+04  d E =-.296564E-03  mag=     3.0000
       N       E                     dE             d eps       ncg     rms          rms(c)
DAV:   1    -0.230573048215E+04    0.44538E-03   -0.20718E-02  4568   0.129E-01    0.530E-02
RMM:   2    -0.230573086676E+04   -0.38460E-03   -0.39199E-03  5879   0.287E-02    0.572E-02
RMM:   3    -0.230573088940E+04   -0.22645E-04   -0.38110E-04  2907   0.104E-02    0.481E-02
RMM:   4    -0.230573087071E+04    0.18688E-04   -0.48788E-05  2873   0.383E-03    0.124E-02
RMM:   5    -0.230573086881E+04    0.19087E-05   -0.67417E-06  2824   0.202E-03
  57 F= -.23261102E+04 E0= -.23261102E+04  d E =-.297552E-03  mag=     3.0000
       N       E                     dE             d eps       ncg     rms          rms(c)
DAV:   1    -0.230572908008E+04    0.17906E-02   -0.11592E-01  4408   0.300E-01    0.117E-01
RMM:   2    -0.230573116054E+04   -0.20805E-02   -0.19815E-02  6021   0.613E-02    0.179E-01
RMM:   3    -0.230573107307E+04    0.87473E-04   -0.17931E-03  3579   0.211E-02    0.790E-02
RMM:   4    -0.230573102986E+04    0.43209E-04   -0.23719E-04  2987   0.664E-03    0.278E-02
RMM:   5    -0.230573102172E+04    0.81431E-05   -0.21932E-05  2851   0.389E-03
  58 F= -.23261104E+04 E0= -.23261104E+04  d E =-.231934E-03  mag=     3.0000
       N       E                     dE             d eps       ncg     rms          rms(c)
DAV:   1    -0.230573026581E+04    0.76405E-03   -0.43758E-02  4424   0.184E-01    0.726E-02
RMM:   2    -0.230573103340E+04   -0.76760E-03   -0.73741E-03  6029   0.385E-02    0.104E-01
RMM:   3    -0.230573101859E+04    0.14808E-04   -0.73776E-04  3013   0.135E-02    0.500E-02
RMM:   4    -0.230573100171E+04    0.16881E-04   -0.92301E-05  2888   0.473E-03    0.172E-02
RMM:   5    -0.230573099929E+04    0.24208E-05   -0.99597E-06  2814   0.257E-03
  59 F= -.23261105E+04 E0= -.23261105E+04  d E =-.258270E-03  mag=     3.0000
       N       E                     dE             d eps       ncg     rms          rms(c)
DAV:   1    -0.230572922370E+04    0.17780E-02   -0.13595E-01  4400   0.341E-01    0.131E-01
RMM:   2    -0.230573155219E+04   -0.23285E-02   -0.21216E-02  5911   0.682E-02    0.223E-01
RMM:   3    -0.230573130731E+04    0.24488E-03   -0.19788E-03  3993   0.252E-02    0.735E-02
RMM:   4    -0.230573126931E+04    0.38004E-04   -0.25458E-04  2985   0.716E-03    0.294E-02
RMM:   5    -0.230573125817E+04    0.11134E-04   -0.32619E-05  2899   0.505E-03    0.263E-02
RMM:   6    -0.230573125297E+04    0.52018E-05   -0.25195E-05  2851   0.514E-03
  60 F= -.23261108E+04 E0= -.23261108E+04  d E =-.323701E-03  mag=     3.0000
       N       E                     dE             d eps       ncg     rms          rms(c)
DAV:   1    -0.230573077830E+04    0.47988E-03   -0.29422E-02  4544   0.159E-01    0.626E-02
RMM:   2    -0.230573130402E+04   -0.52572E-03   -0.46839E-03  5975   0.334E-02    0.114E-01
RMM:   3    -0.230573123034E+04    0.73677E-04   -0.43428E-04  2967   0.116E-02    0.325E-02
RMM:   4    -0.230573122417E+04    0.61703E-05   -0.57967E-05  2871   0.402E-03
  61 F= -.23261108E+04 E0= -.23261108E+04  d E =-.327355E-03  mag=     3.0000
       N       E                     dE             d eps       ncg     rms          rms(c)
DAV:   1    -0.230572928132E+04    0.19490E-02   -0.13814E-01  4440   0.339E-01    0.119E-01
RMM:   2    -0.230573151117E+04   -0.22298E-02   -0.21300E-02  5955   0.659E-02    0.178E-01
RMM:   3    -0.230573143698E+04    0.74187E-04   -0.19825E-03  3877   0.248E-02    0.773E-02
RMM:   4    -0.230573139496E+04    0.42025E-04   -0.25279E-04  2991   0.690E-03    0.329E-02
RMM:   5    -0.230573138324E+04    0.11716E-04   -0.36293E-05  2903   0.489E-03    0.257E-02
RMM:   6    -0.230573137990E+04    0.33456E-05   -0.26662E-05  2857   0.476E-03
  62 F= -.23261110E+04 E0= -.23261110E+04  d E =-.249944E-03  mag=     3.0000
       N       E                     dE             d eps       ncg     rms          rms(c)
DAV:   1    -0.230572975603E+04    0.16272E-02   -0.10112E-01  4416   0.290E-01    0.108E-01
RMM:   2    -0.230573151606E+04   -0.17600E-02   -0.15984E-02  5923   0.571E-02    0.194E-01
RMM:   3    -0.230573132391E+04    0.19215E-03   -0.14717E-03  3718   0.217E-02    0.590E-02
RMM:   4    -0.230573130408E+04    0.19826E-04   -0.18907E-04  2928   0.588E-03    0.255E-02
RMM:   5    -0.230573129796E+04    0.61235E-05   -0.21145E-05  2867   0.395E-03
  63 F= -.23261110E+04 E0= -.23261110E+04  d E =-.248130E-03  mag=     3.0000
       N       E                     dE             d eps       ncg     rms          rms(c)
DAV:   1    -0.230573000198E+04    0.13021E-02   -0.11076E-01  4432   0.308E-01    0.108E-01
RMM:   2    -0.230573152641E+04   -0.15244E-02   -0.14962E-02  6039   0.589E-02    0.134E-01
RMM:   3    -0.230573154590E+04   -0.19486E-04   -0.14069E-03  3675   0.209E-02    0.868E-02
RMM:   4    -0.230573148579E+04    0.60113E-04   -0.18047E-04  2979   0.667E-03    0.271E-02
RMM:   5    -0.230573147774E+04    0.80489E-05   -0.27753E-05  2878   0.433E-03
  64 F= -.23261113E+04 E0= -.23261113E+04  d E =-.239498E-03  mag=     3.0000
       N       E                     dE             d eps       ncg     rms          rms(c)
DAV:   1    -0.230573040566E+04    0.10801E-02   -0.78851E-02  4408   0.259E-01    0.910E-02
RMM:   2    -0.230573149539E+04   -0.10897E-02   -0.10694E-02  6109   0.506E-02    0.114E-01
RMM:   3    -0.230573150734E+04   -0.11950E-04   -0.10056E-03  3382   0.173E-02    0.727E-02
RMM:   4    -0.230573146525E+04    0.42086E-04   -0.12978E-04  2932   0.598E-03    0.231E-02
RMM:   5    -0.230573145950E+04    0.57474E-05   -0.20428E-05  2858   0.380E-03
  65 F= -.23261113E+04 E0= -.23261113E+04  d E =-.271629E-03  mag=     3.0000
       N       E                     dE             d eps       ncg     rms          rms(c)
DAV:   1    -0.230573084314E+04    0.62211E-03   -0.69674E-02  4440   0.246E-01    0.866E-02
RMM:   2    -0.230573167961E+04   -0.83647E-03   -0.88680E-03  6051   0.488E-02    0.511E-02
RMM:   3    -0.230573175891E+04   -0.79299E-04   -0.77459E-04  3322   0.172E-02    0.713E-02
RMM:   4    -0.230573171855E+04    0.40358E-04   -0.10316E-04  2910   0.566E-03    0.238E-02
RMM:   5    -0.230573171233E+04    0.62245E-05   -0.19736E-05  2851   0.368E-03
  66 F= -.23261116E+04 E0= -.23261116E+04  d E =-.284029E-03  mag=     3.0000
       N       E                     dE             d eps       ncg     rms          rms(c)
DAV:   1    -0.230573134771E+04    0.37085E-03   -0.30281E-02  4528   0.162E-01    0.573E-02
RMM:   2    -0.230573171652E+04   -0.36881E-03   -0.39014E-03  5940   0.331E-02    0.360E-02
RMM:   3    -0.230573175199E+04   -0.35476E-04   -0.33819E-04  2958   0.116E-02    0.497E-02
RMM:   4    -0.230573173213E+04    0.19865E-04   -0.46238E-05  2877   0.411E-03    0.160E-02
RMM:   5    -0.230573172925E+04    0.28760E-05   -0.95229E-06  2844   0.255E-03
  67 F= -.23261116E+04 E0= -.23261116E+04  d E =-.321621E-03  mag=     3.0000
       N       E                     dE             d eps       ncg     rms          rms(c)
DAV:   1    -0.230573127225E+04    0.45988E-03   -0.41733E-02  4408   0.191E-01    0.694E-02
RMM:   2    -0.230573180746E+04   -0.53521E-03   -0.57309E-03  5976   0.385E-02    0.336E-02
RMM:   3    -0.230573184645E+04   -0.38988E-04   -0.47536E-04  3089   0.140E-02    0.376E-02
RMM:   4    -0.230573183945E+04    0.69973E-05   -0.63186E-05  2874   0.423E-03
  68 F= -.23261118E+04 E0= -.23261118E+04  d E =-.161981E-03  mag=     3.0000
       N       E                     dE             d eps       ncg     rms          rms(c)
DAV:   1    -0.230573176238E+04    0.84069E-04   -0.46470E-03  4864   0.637E-02    0.241E-02
RMM:   2    -0.230573182115E+04   -0.58765E-04   -0.62948E-04  4212   0.131E-02    0.155E-02
RMM:   3    -0.230573182649E+04   -0.53404E-05   -0.59841E-05  2838   0.622E-03
  69 F= -.23261118E+04 E0= -.23261118E+04  d E =-.166587E-03  mag=     3.0000
       N       E                     dE             d eps       ncg     rms          rms(c)
DAV:   1    -0.230573169912E+04    0.12203E-03   -0.19576E-02  4416   0.142E-01    0.507E-02
RMM:   2    -0.230573190904E+04   -0.20992E-03   -0.22043E-03  5685   0.271E-02    0.399E-02
RMM:   3    -0.230573193359E+04   -0.24557E-04   -0.24773E-04  2963   0.113E-02    0.499E-02
RMM:   4    -0.230573191127E+04    0.22321E-04   -0.31309E-05  2854   0.384E-03    0.145E-02
RMM:   5    -0.230573190916E+04    0.21141E-05   -0.11853E-05  2842   0.293E-03
  70 F= -.23261119E+04 E0= -.23261119E+04  d E =-.110272E-03  mag=     3.0000
       N       E                     dE             d eps       ncg     rms          rms(c)
DAV:   1    -0.230573186783E+04    0.43439E-04   -0.31199E-03  4768   0.570E-02    0.204E-02
RMM:   2    -0.230573190048E+04   -0.32644E-04   -0.35363E-04  3988   0.122E-02    0.133E-02
RMM:   3    -0.230573190551E+04   -0.50385E-05   -0.42296E-05  2824   0.633E-03
  71 F= -.23261119E+04 E0= -.23261119E+04  d E =-.117756E-03  mag=     3.0000
       N       E                     dE             d eps       ncg     rms          rms(c)
DAV:   1    -0.230573182545E+04    0.75028E-04   -0.15429E-02  4416   0.124E-01    0.407E-02
RMM:   2    -0.230573200642E+04   -0.18097E-03   -0.18329E-03  5519   0.235E-02    0.418E-02
RMM:   3    -0.230573201488E+04   -0.84559E-05   -0.19235E-04  2877   0.932E-03    0.338E-02
RMM:   4    -0.230573200608E+04    0.87974E-05   -0.26029E-05  2861   0.326E-03
  72 F= -.23261120E+04 E0= -.23261120E+04  d E =-.937504E-04  mag=     3.0000
       N       E                     dE             d eps       ncg     rms          rms(c)
DAV:   1    -0.230573177802E+04    0.23685E-03   -0.23455E-02  4408   0.153E-01    0.492E-02
RMM:   2    -0.230573204602E+04   -0.26800E-03   -0.27593E-03  5701   0.280E-02    0.476E-02
RMM:   3    -0.230573206302E+04   -0.17000E-04   -0.28004E-04  2920   0.113E-02    0.449E-02
RMM:   4    -0.230573204548E+04    0.17537E-04   -0.38227E-05  2863   0.377E-03    0.146E-02
RMM:   5    -0.230573204313E+04    0.23472E-05   -0.99192E-06  2839   0.274E-03
  73 F= -.23261120E+04 E0= -.23261120E+04  d E =-.122243E-03  mag=     3.0000
       N       E                     dE             d eps       ncg     rms          rms(c)
DAV:   1    -0.230573191917E+04    0.12631E-03   -0.23319E-02  4408   0.154E-01    0.513E-02
RMM:   2    -0.230573217652E+04   -0.25735E-03   -0.26079E-03  5714   0.293E-02    0.523E-02
RMM:   3    -0.230573218952E+04   -0.13000E-04   -0.26731E-04  2981   0.118E-02    0.466E-02
RMM:   4    -0.230573217041E+04    0.19106E-04   -0.35520E-05  2864   0.396E-03    0.123E-02
RMM:   5    -0.230573216838E+04    0.20310E-05   -0.79886E-06  2836   0.261E-03
  74 F= -.23261121E+04 E0= -.23261121E+04  d E =-.108637E-03  mag=     3.0000
       N       E                     dE             d eps       ncg     rms          rms(c)
DAV:   1    -0.230573211072E+04    0.59696E-04   -0.70636E-03  4592   0.849E-02    0.283E-02
RMM:   2    -0.230573218908E+04   -0.78363E-04   -0.79970E-04  4963   0.169E-02    0.278E-02
RMM:   3    -0.230573219410E+04   -0.50235E-05   -0.83563E-05  2845   0.722E-03
  75 F= -.23261122E+04 E0= -.23261122E+04  d E =-.125087E-03  mag=     3.0000
       N       E                     dE             d eps       ncg     rms          rms(c)
DAV:   1    -0.230573200605E+04    0.18303E-03   -0.24543E-02  4440   0.155E-01    0.529E-02
RMM:   2    -0.230573231511E+04   -0.30906E-03   -0.31041E-03  5761   0.303E-02    0.571E-02
RMM:   3    -0.230573232373E+04   -0.86233E-05   -0.27763E-04  2913   0.105E-02    0.447E-02
RMM:   4    -0.230573230834E+04    0.15389E-04   -0.42512E-05  2869   0.392E-03    0.146E-02
RMM:   5    -0.230573230536E+04    0.29800E-05   -0.95145E-06  2834   0.274E-03
  76 F= -.23261123E+04 E0= -.23261123E+04  d E =-.927638E-04  mag=     3.0000
       N       E                     dE             d eps       ncg     rms          rms(c)
DAV:   1    -0.230573222964E+04    0.78700E-04   -0.75687E-03  4536   0.860E-02    0.291E-02
RMM:   2    -0.230573231974E+04   -0.90100E-04   -0.94411E-04  5158   0.176E-02    0.233E-02
RMM:   3    -0.230573232934E+04   -0.96005E-05   -0.94814E-05  2843   0.708E-03
  77 F= -.23261123E+04 E0= -.23261123E+04  d E =-.106300E-03  mag=     3.0000
       N       E                     dE             d eps       ncg     rms          rms(c)
DAV:   1    -0.230573207489E+04    0.24486E-03   -0.26238E-02  4424   0.156E-01    0.546E-02
RMM:   2    -0.230573244148E+04   -0.36659E-03   -0.36960E-03  5822   0.311E-02    0.573E-02
RMM:   3    -0.230573245854E+04   -0.17058E-04   -0.36002E-04  2905   0.111E-02    0.457E-02
RMM:   4    -0.230573244320E+04    0.15341E-04   -0.51040E-05  2869   0.389E-03    0.156E-02
RMM:   5    -0.230573243994E+04    0.32535E-05   -0.97924E-06  2808   0.256E-03
  78 F= -.23261124E+04 E0= -.23261124E+04  d E =-.989840E-04  mag=     3.0000
       N       E                     dE             d eps       ncg     rms          rms(c)
DAV:   1    -0.230573221943E+04    0.22377E-03   -0.17573E-02  4408   0.127E-01    0.445E-02
RMM:   2    -0.230573245505E+04   -0.23562E-03   -0.24540E-03  5757   0.256E-02    0.381E-02
RMM:   3    -0.230573247701E+04   -0.21952E-04   -0.23905E-04  2871   0.952E-03    0.427E-02
RMM:   4    -0.230573246173E+04    0.15279E-04   -0.32205E-05  2865   0.337E-03    0.118E-02
RMM:   5    -0.230573246035E+04    0.13809E-05   -0.57164E-06  2775   0.197E-03
  79 F= -.23261124E+04 E0= -.23261124E+04  d E =-.109707E-03  mag=     3.0000
       N       E                     dE             d eps       ncg     rms          rms(c)
DAV:   1    -0.230573222929E+04    0.23244E-03   -0.22891E-02  4408   0.142E-01    0.498E-02
RMM:   2    -0.230573253402E+04   -0.30473E-03   -0.31247E-03  5805   0.277E-02    0.474E-02
RMM:   3    -0.230573255746E+04   -0.23439E-04   -0.30566E-04  2902   0.105E-02    0.463E-02
RMM:   4    -0.230573253933E+04    0.18125E-04   -0.39373E-05  2864   0.363E-03    0.129E-02
RMM:   5    -0.230573253770E+04    0.16357E-05   -0.73881E-06  2805   0.219E-03
  80 F= -.23261125E+04 E0= -.23261125E+04  d E =-.802608E-04  mag=     3.0000
       N       E                     dE             d eps       ncg     rms          rms(c)
DAV:   1    -0.230573241791E+04    0.12142E-03   -0.97215E-03  4512   0.927E-02    0.327E-02
RMM:   2    -0.230573254787E+04   -0.12996E-03   -0.13384E-03  5333   0.185E-02    0.303E-02
RMM:   3    -0.230573255866E+04   -0.10798E-04   -0.13090E-04  2845   0.737E-03    0.307E-02
RMM:   4    -0.230573255092E+04    0.77416E-05   -0.17275E-05  2828   0.262E-03
  81 F= -.23261125E+04 E0= -.23261125E+04  d E =-.952963E-04  mag=     3.0000
       N       E                     dE             d eps       ncg     rms          rms(c)
DAV:   1    -0.230573246318E+04    0.95483E-04   -0.14365E-02  4408   0.116E-01    0.424E-02
RMM:   2    -0.230573263167E+04   -0.16849E-03   -0.17979E-03  5542   0.222E-02    0.248E-02
RMM:   3    -0.230573264794E+04   -0.16268E-04   -0.17455E-04  2867   0.942E-03    0.335E-02
RMM:   4    -0.230573263861E+04    0.93286E-05   -0.24172E-05  2853   0.305E-03
  82 F= -.23261126E+04 E0= -.23261126E+04  d E =-.941696E-04  mag=     3.0000
       N       E                     dE             d eps       ncg     rms          rms(c)
DAV:   1    -0.230573259408E+04    0.53853E-04   -0.40700E-03  4672   0.619E-02    0.229E-02
RMM:   2    -0.230573264033E+04   -0.46249E-04   -0.50774E-04  4215   0.124E-02    0.118E-02
RMM:   3    -0.230573264388E+04   -0.35510E-05   -0.53960E-05  2827   0.655E-03
  83 F= -.23261126E+04 E0= -.23261126E+04  d E =-.102891E-03  mag=     3.0000
       N       E                     dE             d eps       ncg     rms          rms(c)
DAV:   1    -0.230573257149E+04    0.68845E-04   -0.87719E-03  4408   0.904E-02    0.333E-02
RMM:   2    -0.230573267553E+04   -0.10404E-03   -0.11175E-03  5287   0.182E-02    0.170E-02
RMM:   3    -0.230573268438E+04   -0.88514E-05   -0.12813E-04  2848   0.774E-03    0.195E-02
RMM:   4    -0.230573268390E+04    0.48301E-06   -0.17572E-05  2836   0.246E-03
  84 F= -.23261126E+04 E0= -.23261126E+04  d E =-.587156E-04  mag=     3.0000
       N       E                     dE             d eps       ncg     rms          rms(c)
DAV:   1    -0.230573266448E+04    0.19903E-04   -0.97501E-04  4808   0.302E-02    0.122E-02
RMM:   2    -0.230573267615E+04   -0.11668E-04   -0.12384E-04  2981   0.643E-03    0.111E-02
RMM:   3    -0.230573267701E+04   -0.86185E-06   -0.14208E-05  2601   0.385E-03
  85 F= -.23261126E+04 E0= -.23261126E+04  d E =-.582069E-04  mag=     3.0000
       N       E                     dE             d eps       ncg     rms          rms(c)
DAV:   1    -0.230573260117E+04    0.74982E-04   -0.89054E-03  4408   0.918E-02    0.334E-02
RMM:   2    -0.230573270700E+04   -0.10583E-03   -0.10735E-03  5196   0.177E-02    0.332E-02
RMM:   3    -0.230573271135E+04   -0.43454E-05   -0.94980E-05  2852   0.780E-03
  86 F= -.23261127E+04 E0= -.23261127E+04  d E =-.558910E-04  mag=     3.0000
       N       E                     dE             d eps       ncg     rms          rms(c)
DAV:   1    -0.230573264791E+04    0.59095E-04   -0.38986E-03  4512   0.608E-02    0.244E-02
RMM:   2    -0.230573269376E+04   -0.45855E-04   -0.48632E-04  3915   0.122E-02    0.210E-02
RMM:   3    -0.230573269723E+04   -0.34727E-05   -0.48514E-05  2833   0.550E-03
  87 F= -.23261127E+04 E0= -.23261127E+04  d E =-.561037E-04  mag=     3.0000
       N       E                     dE             d eps       ncg     rms          rms(c)
DAV:   1    -0.230573259796E+04    0.95803E-04   -0.11265E-02  4408   0.105E-01    0.377E-02
RMM:   2    -0.230573273902E+04   -0.14106E-03   -0.14279E-03  5446   0.210E-02    0.374E-02
RMM:   3    -0.230573274509E+04   -0.60725E-05   -0.13145E-04  2851   0.834E-03    0.324E-02
RMM:   4    -0.230573273685E+04    0.82367E-05   -0.20207E-05  2852   0.295E-03
  88 F= -.23261127E+04 E0= -.23261127E+04  d E =-.493010E-04  mag=     3.0000
       N       E                     dE             d eps       ncg     rms          rms(c)
DAV:   1    -0.230573271461E+04    0.30484E-04   -0.16405E-03  4944   0.400E-02    0.146E-02
RMM:   2    -0.230573273306E+04   -0.18454E-04   -0.19598E-04  3250   0.818E-03    0.118E-02
RMM:   3    -0.230573273560E+04   -0.25368E-05   -0.25512E-05  2736   0.465E-03
  89 F= -.23261127E+04 E0= -.23261127E+04  d E =-.518199E-04  mag=     3.0000
       N       E                     dE             d eps       ncg     rms          rms(c)
DAV:   1    -0.230573260504E+04    0.12802E-03   -0.12899E-02  4408   0.110E-01    0.402E-02
RMM:   2    -0.230573278086E+04   -0.17582E-03   -0.17807E-03  5576   0.221E-02    0.417E-02
RMM:   3    -0.230573278751E+04   -0.66512E-05   -0.15314E-04  2858   0.877E-03    0.359E-02
RMM:   4    -0.230573277754E+04    0.99757E-05   -0.23445E-05  2855   0.301E-03
  90 F= -.23261128E+04 E0= -.23261128E+04  d E =-.488007E-04  mag=     3.0000
       N       E                     dE             d eps       ncg     rms          rms(c)
DAV:   1    -0.230573275946E+04    0.28053E-04   -0.11777E-03  4848   0.332E-02    0.124E-02
RMM:   2    -0.230573277369E+04   -0.14233E-04   -0.15446E-04  3085   0.704E-03    0.847E-03
RMM:   3    -0.230573277564E+04   -0.19489E-05   -0.19535E-05  2659   0.401E-03
  91 F= -.23261128E+04 E0= -.23261128E+04  d E =-.490403E-04  mag=     3.0000
       N       E                     dE             d eps       ncg     rms          rms(c)
DAV:   1    -0.230573267097E+04    0.10273E-03   -0.93968E-03  4408   0.929E-02    0.336E-02
RMM:   2    -0.230573279093E+04   -0.11996E-03   -0.12517E-03  5374   0.187E-02    0.256E-02
RMM:   3    -0.230573280183E+04   -0.10901E-04   -0.11039E-04  2849   0.795E-03    0.308E-02
RMM:   4    -0.230573279432E+04    0.75078E-05   -0.17541E-05  2840   0.263E-03
  92 F= -.23261128E+04 E0= -.23261128E+04  d E =-.404100E-04  mag=     3.0000
       N       E                     dE             d eps       ncg     rms          rms(c)
DAV:   1    -0.230573278526E+04    0.16564E-04   -0.32767E-04  4952   0.173E-02    0.745E-03
RMM:   2    -0.230573278904E+04   -0.37790E-05   -0.43029E-05  2674   0.394E-03
  93 F= -.23261128E+04 E0= -.23261128E+04  d E =-.393533E-04  mag=     3.0000
       N       E                     dE             d eps       ncg     rms          rms(c)
DAV:   1    -0.230573271322E+04    0.72048E-04   -0.60099E-03  4416   0.758E-02    0.290E-02
RMM:   2    -0.230573278705E+04   -0.73829E-04   -0.76616E-04  4692   0.155E-02    0.251E-02
RMM:   3    -0.230573279622E+04   -0.91759E-05   -0.97766E-05  2837   0.784E-03
  94 F= -.23261129E+04 E0= -.23261129E+04  d E =-.415196E-04  mag=     3.0000
       N       E                     dE             d eps       ncg     rms          rms(c)
DAV:   1    -0.230573276428E+04    0.22766E-04   -0.91196E-04  5000   0.296E-02    0.139E-02
RMM:   2    -0.230573277543E+04   -0.11148E-04   -0.12866E-04  2968   0.652E-03    0.821E-03
RMM:   3    -0.230573277598E+04   -0.54968E-06   -0.13583E-05  2658   0.369E-03
  95 F= -.23261129E+04 E0= -.23261129E+04  d E =-.346939E-04  mag=     3.0000
       N       E                     dE             d eps       ncg     rms          rms(c)
DAV:   1    -0.230573269684E+04    0.78593E-04   -0.48185E-03  4416   0.657E-02    0.237E-02
RMM:   2    -0.230573276235E+04   -0.65515E-04   -0.68914E-04  4423   0.134E-02    0.178E-02
RMM:   3    -0.230573277038E+04   -0.80309E-05   -0.73228E-05  2840   0.671E-03
  96 F= -.23261129E+04 E0= -.23261129E+04  d E =-.305662E-04  mag=     3.0000
       N       E                     dE             d eps       ncg     rms          rms(c)
DAV:   1    -0.230573274988E+04    0.12469E-04   -0.45352E-04  4920   0.202E-02    0.102E-02
RMM:   2    -0.230573275624E+04   -0.63551E-05   -0.70485E-05  2779   0.465E-03
  97 F= -.23261129E+04 E0= -.23261129E+04  d E =-.273458E-04  mag=     3.0000
       N       E                     dE             d eps       ncg     rms          rms(c)
DAV:   1    -0.230573269500E+04    0.54884E-04   -0.44326E-03  4416   0.652E-02    0.264E-02
RMM:   2    -0.230573276002E+04   -0.65020E-04   -0.61319E-04  4380   0.141E-02    0.367E-02
RMM:   3    -0.230573275817E+04    0.18438E-05   -0.76090E-05  2831   0.716E-03
  98 F= -.23261129E+04 E0= -.23261129E+04  d E =-.257368E-04  mag=     3.0000
       N       E                     dE             d eps       ncg     rms          rms(c)
DAV:   1    -0.230573275342E+04    0.65960E-05   -0.21591E-05  4040   0.457E-03    0.693E-03
RMM:   2    -0.230573275316E+04    0.25952E-06   -0.35338E-06  2301   0.234E-03
  99 F= -.23261129E+04 E0= -.23261129E+04  d E =-.218132E-04  mag=     3.0000
       N       E                     dE             d eps       ncg     rms          rms(c)
DAV:   1    -0.230573269319E+04    0.60230E-04   -0.45959E-03  4416   0.658E-02    0.250E-02
RMM:   2    -0.230573274972E+04   -0.56526E-04   -0.60988E-04  4516   0.130E-02    0.134E-02
RMM:   3    -0.230573275621E+04   -0.64966E-05   -0.63842E-05  2836   0.676E-03
 100 F= -.23261129E+04 E0= -.23261129E+04  d E =-.234518E-04  mag=     3.0000
       N       E                     dE             d eps       ncg     rms          rms(c)
DAV:   1    -0.230573275169E+04   -0.19709E-05   -0.44425E-05  4392   0.619E-03    0.728E-03
RMM:   2    -0.230573275327E+04   -0.15832E-05   -0.80257E-06  2355   0.262E-03
 101 F= -.23261129E+04 E0= -.23261129E+04  d E =-.221091E-04  mag=     3.0000
       N       E                     dE             d eps       ncg     rms          rms(c)
DAV:   1    -0.230573270730E+04    0.44383E-04   -0.38962E-03  4408   0.581E-02    0.218E-02
RMM:   2    -0.230573275633E+04   -0.49026E-04   -0.51589E-04  4072   0.120E-02    0.161E-02
RMM:   3    -0.230573276330E+04   -0.69739E-05   -0.62936E-05  2776   0.635E-03
 102 F= -.23261130E+04 E0= -.23261130E+04  d E =-.245255E-04  mag=     3.0000
       N       E                     dE             d eps       ncg     rms          rms(c)
DAV:   1    -0.230573275161E+04    0.47211E-05   -0.32166E-04  4760   0.167E-02    0.919E-03
RMM:   2    -0.230573275600E+04   -0.43929E-05   -0.49202E-05  2653   0.399E-03
 103 F= -.23261130E+04 E0= -.23261130E+04  d E =-.213433E-04  mag=     3.0000
       N       E                     dE             d eps       ncg     rms          rms(c)
DAV:   1    -0.230573271203E+04    0.39577E-04   -0.37951E-03  4400   0.577E-02    0.214E-02
RMM:   2    -0.230573275946E+04   -0.47426E-04   -0.50580E-04  4012   0.126E-02    0.122E-02
RMM:   3    -0.230573276543E+04   -0.59712E-05   -0.58914E-05  2809   0.667E-03
 104 F= -.23261130E+04 E0= -.23261130E+04  d E =-.234465E-04  mag=     3.0000
       N       E                     dE             d eps       ncg     rms          rms(c)
DAV:   1    -0.230573275625E+04    0.32043E-05   -0.34446E-04  4792   0.174E-02    0.992E-03
RMM:   2    -0.230573276239E+04   -0.61338E-05   -0.50793E-05  2739   0.423E-03
 105 F= -.23261130E+04 E0= -.23261130E+04  d E =-.245738E-04  mag=     3.0000
       N       E                     dE             d eps       ncg     rms          rms(c)
DAV:   1    -0.230573273146E+04    0.24798E-04   -0.30972E-03  4408   0.518E-02    0.196E-02
RMM:   2    -0.230573277380E+04   -0.42342E-04   -0.41529E-04  3691   0.116E-02    0.238E-02
RMM:   3    -0.230573277618E+04   -0.23846E-05   -0.55909E-05  2709   0.634E-03
 106 F= -.23261130E+04 E0= -.23261130E+04  d E =-.191828E-04  mag=     3.0000
       N       E                     dE             d eps       ncg     rms          rms(c)
DAV:   1    -0.230573276960E+04    0.41978E-05   -0.30689E-04  4664   0.164E-02    0.863E-03
RMM:   2    -0.230573277390E+04   -0.42974E-05   -0.47196E-05  2625   0.406E-03
 107 F= -.23261130E+04 E0= -.23261130E+04  d E =-.185982E-04  mag=     3.0000
       N       E                     dE             d eps       ncg     rms          rms(c)
DAV:   1    -0.230573274436E+04    0.25241E-04   -0.32493E-03  4400   0.544E-02    0.198E-02
RMM:   2    -0.230573278438E+04   -0.40026E-04   -0.42539E-04  3805   0.122E-02    0.108E-02
RMM:   3    -0.230573278876E+04   -0.43766E-05   -0.48904E-05  2755   0.648E-03
 108 F= -.23261130E+04 E0= -.23261130E+04  d E =-.248566E-04  mag=     3.0000
       N       E                     dE             d eps       ncg     rms          rms(c)
DAV:   1    -0.230573278007E+04    0.43128E-05   -0.47428E-04  4472   0.208E-02    0.107E-02
RMM:   2    -0.230573278786E+04   -0.77841E-05   -0.71054E-05  2852   0.503E-03
 109 F= -.23261130E+04 E0= -.23261130E+04  d E =-.277646E-04  mag=     3.0000
       N       E                     dE             d eps       ncg     rms          rms(c)
DAV:   1    -0.230573275480E+04    0.25268E-04   -0.29466E-03  4400   0.506E-02    0.190E-02
RMM:   2    -0.230573279403E+04   -0.39230E-04   -0.41602E-04  3697   0.118E-02    0.104E-02
RMM:   3    -0.230573279786E+04   -0.38250E-05   -0.47369E-05  2776   0.635E-03
 110 F= -.23261130E+04 E0= -.23261130E+04  d E =-.196510E-04  mag=     3.0000
       N       E                     dE             d eps       ncg     rms          rms(c)
DAV:   1    -0.230573279205E+04    0.19812E-05   -0.26942E-04  4752   0.154E-02    0.104E-02
RMM:   2    -0.230573279934E+04   -0.72824E-05   -0.47320E-05  2643   0.391E-03
 111 F= -.23261131E+04 E0= -.23261131E+04  d E =-.240590E-04  mag=     3.0000
       N       E                     dE             d eps       ncg     rms          rms(c)
DAV:   1    -0.230573275906E+04    0.32993E-04   -0.34910E-03  4392   0.535E-02    0.206E-02
RMM:   2    -0.230573281312E+04   -0.54060E-04   -0.54077E-04  3893   0.124E-02    0.223E-02
RMM:   3    -0.230573281590E+04   -0.27840E-05   -0.58680E-05  2736   0.641E-03
 112 F= -.23261131E+04 E0= -.23261131E+04  d E =-.195982E-04  mag=     3.0000
       N       E                     dE             d eps       ncg     rms          rms(c)
DAV:   1    -0.230573280567E+04    0.74479E-05   -0.51448E-04  4432   0.205E-02    0.102E-02
RMM:   2    -0.230573281415E+04   -0.84779E-05   -0.86549E-05  2859   0.516E-03
 113 F= -.23261131E+04 E0= -.23261131E+04  d E =-.190067E-04  mag=     3.0000
       N       E                     dE             d eps       ncg     rms          rms(c)
DAV:   1    -0.230573277235E+04    0.33324E-04   -0.37950E-03  4400   0.559E-02    0.239E-02
RMM:   2    -0.230573283862E+04   -0.66273E-04   -0.58034E-04  3937   0.131E-02    0.419E-02
RMM:   3    -0.230573283007E+04    0.85565E-05   -0.64630E-05  2800   0.649E-03
 114 F= -.23261131E+04 E0= -.23261131E+04  d E =-.236525E-04  mag=     3.0000
       N       E                     dE             d eps       ncg     rms          rms(c)
DAV:   1    -0.230573282341E+04    0.15215E-04   -0.29371E-04  4712   0.155E-02    0.906E-03
RMM:   2    -0.230573282810E+04   -0.46891E-05   -0.47554E-05  2614   0.393E-03
 115 F= -.23261131E+04 E0= -.23261131E+04  d E =-.238363E-04  mag=     3.0000
       N       E                     dE             d eps       ncg     rms          rms(c)
DAV:   1    -0.230573277827E+04    0.45140E-04   -0.34579E-03  4392   0.533E-02    0.217E-02
RMM:   2    -0.230573283142E+04   -0.53158E-04   -0.50796E-04  3767   0.120E-02    0.287E-02
RMM:   3    -0.230573283119E+04    0.23778E-06   -0.56241E-05  2744   0.624E-03
 116 F= -.23261131E+04 E0= -.23261131E+04  d E =-.220741E-04  mag=     3.0000
       N       E                     dE             d eps       ncg     rms          rms(c)
DAV:   1    -0.230573280709E+04    0.24338E-04   -0.99173E-04  4336   0.285E-02    0.126E-02
RMM:   2    -0.230573282160E+04   -0.14511E-04   -0.15196E-04  2975   0.678E-03    0.976E-03
RMM:   3    -0.230573282297E+04   -0.13758E-05   -0.14991E-05  2571   0.374E-03
 117 F= -.23261131E+04 E0= -.23261131E+04  d E =-.240965E-04  mag=     3.0000
       N       E                     dE             d eps       ncg     rms          rms(c)
DAV:   1    -0.230573277144E+04    0.50156E-04   -0.37182E-03  4400   0.547E-02    0.209E-02
RMM:   2    -0.230573282547E+04   -0.54031E-04   -0.56355E-04  3828   0.119E-02    0.129E-02
RMM:   3    -0.230573283112E+04   -0.56428E-05   -0.58370E-05  2766   0.623E-03
 118 F= -.23261131E+04 E0= -.23261131E+04  d E =-.269629E-04  mag=     3.0000
       N       E                     dE             d eps       ncg     rms          rms(c)
DAV:   1    -0.230573280028E+04    0.25197E-04   -0.13343E-03  4408   0.327E-02    0.139E-02
RMM:   2    -0.230573282067E+04   -0.20393E-04   -0.21425E-04  3058   0.757E-03    0.912E-03
RMM:   3    -0.230573282318E+04   -0.25091E-05   -0.24938E-05  2650   0.418E-03
 119 F= -.23261131E+04 E0= -.23261131E+04  d E =-.303038E-04  mag=     3.0000
       N       E                     dE             d eps       ncg     rms          rms(c)
DAV:   1    -0.230573276614E+04    0.54528E-04   -0.36931E-03  4376   0.535E-02    0.212E-02
RMM:   2    -0.230573282351E+04   -0.57371E-04   -0.57896E-04  3806   0.115E-02    0.210E-02
RMM:   3    -0.230573282906E+04   -0.55452E-05   -0.67787E-05  2770   0.609E-03
 120 F= -.23261132E+04 E0= -.23261132E+04  d E =-.221272E-04  mag=     3.0000
       N       E                     dE             d eps       ncg     rms          rms(c)
DAV:   1    -0.230573278829E+04    0.35226E-04   -0.17953E-03  4312   0.373E-02    0.156E-02
RMM:   2    -0.230573281701E+04   -0.28722E-04   -0.29942E-04  3193   0.867E-03    0.104E-02
RMM:   3    -0.230573281964E+04   -0.26287E-05   -0.30727E-05  2713   0.457E-03
 121 F= -.23261132E+04 E0= -.23261132E+04  d E =-.240716E-04  mag=     3.0000
       N       E                     dE             d eps       ncg     rms          rms(c)
DAV:   1    -0.230573276785E+04    0.49159E-04   -0.40694E-03  4400   0.561E-02    0.217E-02
RMM:   2    -0.230573283108E+04   -0.63234E-04   -0.66033E-04  3910   0.125E-02    0.124E-02
RMM:   3    -0.230573283691E+04   -0.58221E-05   -0.67563E-05  2805   0.635E-03
 122 F= -.23261132E+04 E0= -.23261132E+04  d E =-.234291E-04  mag=     3.0000
       N       E                     dE             d eps       ncg     rms          rms(c)
DAV:   1    -0.230573281350E+04    0.17585E-04   -0.12912E-03  4416   0.316E-02    0.140E-02
RMM:   2    -0.230573283489E+04   -0.21390E-04   -0.21937E-04  3065   0.737E-03    0.125E-02
RMM:   3    -0.230573283769E+04   -0.28028E-05   -0.29350E-05  2683   0.423E-03
 123 F= -.23261132E+04 E0= -.23261132E+04  d E =-.276802E-04  mag=     3.0000
       N       E                     dE             d eps       ncg     rms          rms(c)
DAV:   1    -0.230573276468E+04    0.70207E-04   -0.46302E-03  4400   0.602E-02    0.238E-02
RMM:   2    -0.230573283694E+04   -0.72255E-04   -0.72945E-04  4089   0.129E-02    0.234E-02
RMM:   3    -0.230573284358E+04   -0.66419E-05   -0.83955E-05  2818   0.678E-03
 124 F= -.23261132E+04 E0= -.23261132E+04  d E =-.258870E-04  mag=     3.0000
       N       E                     dE             d eps       ncg     rms          rms(c)
DAV:   1    -0.230573281547E+04    0.21464E-04   -0.98501E-04  4424   0.278E-02    0.129E-02
RMM:   2    -0.230573283189E+04   -0.16413E-04   -0.17272E-04  2996   0.666E-03    0.877E-03
RMM:   3    -0.230573283321E+04   -0.13273E-05   -0.16850E-05  2655   0.366E-03
 125 F= -.23261132E+04 E0= -.23261132E+04  d E =-.247569E-04  mag=     3.0000
       N       E                     dE             d eps       ncg     rms          rms(c)
DAV:   1    -0.230573274817E+04    0.83719E-04   -0.47647E-03  4400   0.617E-02    0.238E-02
RMM:   2    -0.230573282397E+04   -0.75807E-04   -0.78990E-04  4238   0.136E-02    0.162E-02
RMM:   3    -0.230573283144E+04   -0.74638E-05   -0.74267E-05  2822   0.677E-03
 126 F= -.23261133E+04 E0= -.23261133E+04  d E =-.291211E-04  mag=     3.0000
       N       E                     dE             d eps       ncg     rms          rms(c)
DAV:   1    -0.230573281623E+04    0.77453E-05   -0.31189E-04  4920   0.158E-02    0.971E-03
RMM:   2    -0.230573282200E+04   -0.57674E-05   -0.61733E-05  2645   0.393E-03
 127 F= -.23261133E+04 E0= -.23261133E+04  d E =-.274713E-04  mag=     3.0000
       N       E                     dE             d eps       ncg     rms          rms(c)
DAV:   1    -0.230573278075E+04    0.35483E-04   -0.29410E-03  4392   0.504E-02    0.195E-02
RMM:   2    -0.230573282675E+04   -0.46002E-04   -0.48429E-04  3725   0.116E-02    0.101E-02
RMM:   3    -0.230573283118E+04   -0.44342E-05   -0.52139E-05  2755   0.626E-03
 128 F= -.23261133E+04 E0= -.23261133E+04  d E =-.208638E-04  mag=     3.0000
       N       E                     dE             d eps       ncg     rms          rms(c)
DAV:   1    -0.230573281940E+04    0.73447E-05   -0.54420E-04  4416   0.216E-02    0.130E-02
RMM:   2    -0.230573283515E+04   -0.15743E-04   -0.99712E-05  2947   0.529E-03    0.318E-02
RMM:   3    -0.230573282793E+04    0.72214E-05   -0.14900E-05  2462   0.323E-03
 129 F= -.23261133E+04 E0= -.23261133E+04  d E =-.226098E-04  mag=     3.0000
       N       E                     dE             d eps       ncg     rms          rms(c)
DAV:   1    -0.230573279674E+04    0.38405E-04   -0.23557E-03  4368   0.446E-02    0.181E-02
RMM:   2    -0.230573283657E+04   -0.39827E-04   -0.38981E-04  3478   0.964E-03    0.221E-02
RMM:   3    -0.230573283734E+04   -0.77081E-06   -0.40012E-05  2765   0.525E-03
 130 F= -.23261133E+04 E0= -.23261133E+04  d E =-.182108E-04  mag=     3.0000
       N       E                     dE             d eps       ncg     rms          rms(c)
DAV:   1    -0.230573282174E+04    0.14834E-04   -0.68088E-04  4376   0.239E-02    0.106E-02
RMM:   2    -0.230573283343E+04   -0.11698E-04   -0.11879E-04  2927   0.572E-03    0.106E-02
RMM:   3    -0.230573283410E+04   -0.66479E-06   -0.12449E-05  2480   0.331E-03
 131 F= -.23261133E+04 E0= -.23261133E+04  d E =-.197022E-04  mag=     3.0000
       N       E                     dE             d eps       ncg     rms          rms(c)
DAV:   1    -0.230573279357E+04    0.39861E-04   -0.26461E-03  4368   0.460E-02    0.186E-02
RMM:   2    -0.230573283919E+04   -0.45613E-04   -0.45465E-04  3610   0.103E-02    0.200E-02
RMM:   3    -0.230573284169E+04   -0.25087E-05   -0.47082E-05  2732   0.557E-03
 132 F= -.23261133E+04 E0= -.23261133E+04  d E =-.220695E-04  mag=     3.0000
       N       E                     dE             d eps       ncg     rms          rms(c)
DAV:   1    -0.230573282106E+04    0.18129E-04   -0.72149E-04  4392   0.240E-02    0.108E-02
RMM:   2    -0.230573283430E+04   -0.13246E-04   -0.13368E-04  2949   0.586E-03    0.113E-02
RMM:   3    -0.230573283489E+04   -0.59092E-06   -0.12958E-05  2440   0.335E-03
 133 F= -.23261133E+04 E0= -.23261133E+04  d E =-.228154E-04  mag=     3.0000
       N       E                     dE             d eps       ncg     rms          rms(c)
DAV:   1    -0.230573279098E+04    0.43324E-04   -0.26725E-03  4352   0.458E-02    0.187E-02
RMM:   2    -0.230573283799E+04   -0.47009E-04   -0.47107E-04  3590   0.104E-02    0.194E-02
RMM:   3    -0.230573284083E+04   -0.28463E-05   -0.47381E-05  2747   0.560E-03
 134 F= -.23261133E+04 E0= -.23261133E+04  d E =-.222027E-04  mag=     3.0000
       N       E                     dE             d eps       ncg     rms          rms(c)
DAV:   1    -0.230573282942E+04    0.85660E-05   -0.29905E-04  4792   0.153E-02    0.798E-03
RMM:   2    -0.230573283497E+04   -0.55502E-05   -0.58713E-05  2612   0.391E-03
 135 F= -.23261133E+04 E0= -.23261133E+04  d E =-.217422E-04  mag=     3.0000
       N       E                     dE             d eps       ncg     rms          rms(c)
DAV:   1    -0.230573280950E+04    0.19918E-04   -0.14348E-03  4320   0.353E-02    0.165E-02
RMM:   2    -0.230573283922E+04   -0.29720E-04   -0.25373E-04  3246   0.859E-03    0.294E-02
RMM:   3    -0.230573283477E+04    0.44518E-05   -0.28895E-05  2469   0.478E-03
 136 F= -.23261134E+04 E0= -.23261134E+04  d E =-.171938E-04  mag=     3.0000
       N       E                     dE             d eps       ncg     rms          rms(c)
DAV:   1    -0.230573282150E+04    0.17722E-04   -0.35276E-04  4480   0.174E-02    0.830E-03
RMM:   2    -0.230573282734E+04   -0.58377E-05   -0.59366E-05  2727   0.441E-03
 137 F= -.23261134E+04 E0= -.23261134E+04  d E =-.184302E-04  mag=     3.0000
       N       E                     dE             d eps       ncg     rms          rms(c)
DAV:   1    -0.230573280904E+04    0.12458E-04   -0.13291E-03  4320   0.341E-02    0.157E-02
RMM:   2    -0.230573283501E+04   -0.25964E-04   -0.23058E-04  3205   0.844E-03    0.253E-02
RMM:   3    -0.230573283217E+04    0.28410E-05   -0.26266E-05  2537   0.466E-03
 138 F= -.23261134E+04 E0= -.23261134E+04  d E =-.140377E-04  mag=     3.0000
