       N       E                     dE             d eps       ncg     rms          rms(c)
DAV:   1     0.129895905515E+05    0.12990E+05   -0.84465E+05  4536   0.144E+03
DAV:   2    -0.106023654313E+04   -0.14050E+05   -0.13440E+05  5104   0.331E+02
DAV:   3    -0.248982498173E+04   -0.14296E+04   -0.14141E+04  5448   0.112E+02
DAV:   4    -0.253485720278E+04   -0.45032E+02   -0.44784E+02  6776   0.296E+01
DAV:   5    -0.253567530987E+04   -0.81811E+00   -0.81641E+00  5896   0.337E+00    0.171E+02
RMM:   6    -0.150159329244E+04    0.10341E+04   -0.19551E+03  4476   0.386E+01    0.735E+01
RMM:   7    -0.167554306339E+04   -0.17395E+03   -0.31275E+02  5066   0.149E+01    0.549E+01
RMM:   8    -0.171373492913E+04   -0.38192E+02   -0.66203E+01  5331   0.749E+00    0.495E+01
RMM:   9    -0.175881964561E+04   -0.45085E+02   -0.53608E+01  4900   0.645E+00    0.380E+01
RMM:  10    -0.190681216584E+04   -0.14799E+03   -0.72810E+01  4910   0.846E+00    0.349E+01
RMM:  11    -0.195753861562E+04   -0.50726E+02   -0.22758E+01  4933   0.474E+00    0.243E+01
RMM:  12    -0.204188287888E+04   -0.84344E+02   -0.32853E+01  4825   0.457E+00    0.210E+01
RMM:  13    -0.208363516011E+04   -0.41752E+02   -0.13159E+01  5125   0.289E+00    0.152E+01
RMM:  14    -0.217737577059E+04   -0.93741E+02   -0.57215E+01  4756   0.559E+00    0.106E+01
RMM:  15    -0.227863060624E+04   -0.10125E+03   -0.90843E+01  4593   0.669E+00    0.853E+00
RMM:  16    -0.230914568440E+04   -0.30515E+02   -0.26755E+01  4600   0.399E+00    0.675E+00
RMM:  17    -0.232109168360E+04   -0.11946E+02   -0.12006E+01  4662   0.246E+00    0.398E+00
RMM:  18    -0.232458355267E+04   -0.34919E+01   -0.27822E+00  4786   0.138E+00    0.198E+00
RMM:  19    -0.232610915432E+04   -0.15256E+01   -0.77404E-01  5268   0.663E-01    0.938E-01
RMM:  20    -0.232656592092E+04   -0.45677E+00   -0.17052E-01  5069   0.323E-01    0.518E-01
RMM:  21    -0.232666729050E+04   -0.10137E+00   -0.40425E-02  4817   0.191E-01    0.279E-01
RMM:  22    -0.232671412099E+04   -0.46830E-01   -0.17001E-02  4583   0.118E-01    0.179E-01
RMM:  23    -0.232673942287E+04   -0.25302E-01   -0.93128E-03  4591   0.820E-02    0.112E-01
RMM:  24    -0.232675107714E+04   -0.11654E-01   -0.37452E-03  4572   0.550E-02    0.764E-02
RMM:  25    -0.232676294673E+04   -0.11870E-01   -0.42693E-03  4446   0.505E-02    0.569E-02
RMM:  26    -0.232676789658E+04   -0.49498E-02   -0.18063E-03  4563   0.406E-02    0.285E-02
RMM:  27    -0.232677016037E+04   -0.22638E-02   -0.89633E-04  4253   0.229E-02    0.162E-02
RMM:  28    -0.232677097888E+04   -0.81851E-03   -0.28496E-04  4018   0.168E-02    0.991E-03
RMM:  29    -0.232677126684E+04   -0.28796E-03   -0.10077E-04  3703   0.843E-03    0.550E-03
RMM:  30    -0.232677140942E+04   -0.14258E-03   -0.36483E-05  3360   0.674E-03    0.381E-03
RMM:  31    -0.232677150341E+04   -0.93983E-04   -0.23395E-05  3126   0.410E-03    0.225E-03
RMM:  32    -0.232677153529E+04   -0.31885E-04   -0.91664E-06  2861   0.340E-03    0.138E-03
RMM:  33    -0.232677154286E+04   -0.75649E-05   -0.44250E-06  2479   0.235E-03
   1 F= -.23477587E+04 E0= -.23477587E+04  d E =-.234776E+04  mag=     5.0000
       N       E                     dE             d eps       ncg     rms          rms(c)
DAV:   1    -0.232653388873E+04    0.23765E+00   -0.18384E+01  5088   0.377E+00    0.141E+00
RMM:   2    -0.232694010706E+04   -0.40622E+00   -0.40873E+00  6069   0.104E+00    0.189E+00
RMM:   3    -0.232693319236E+04    0.69147E-02   -0.35587E-01  5507   0.422E-01    0.122E+00
RMM:   4    -0.232691935138E+04    0.13841E-01   -0.35179E-02  5720   0.852E-02    0.463E-01
RMM:   5    -0.232691688212E+04    0.24693E-02   -0.61586E-03  5505   0.416E-02    0.419E-01
RMM:   6    -0.232691533930E+04    0.15428E-02   -0.65795E-03  5535   0.426E-02    0.305E-01
RMM:   7    -0.232691461416E+04    0.72513E-03   -0.26060E-03  5329   0.313E-02    0.990E-02
RMM:   8    -0.232691446128E+04    0.15289E-03   -0.22221E-04  3719   0.111E-02    0.435E-02
RMM:   9    -0.232691442661E+04    0.34667E-04   -0.14792E-04  3752   0.809E-03    0.186E-02
RMM:  10    -0.232691443160E+04   -0.49943E-05   -0.41708E-05  3177   0.500E-03
   2 F= -.23479005E+04 E0= -.23479005E+04  d E =-.141781E+00  mag=     5.0000
       N       E                     dE             d eps       ncg     rms          rms(c)
DAV:   1    -0.232690034911E+04    0.14077E-01   -0.94789E-01  4936   0.849E-01    0.322E-01
RMM:   2    -0.232692050238E+04   -0.20153E-01   -0.19757E-01  5797   0.228E-01    0.475E-01
RMM:   3    -0.232692026299E+04    0.23939E-03   -0.25404E-02  4911   0.140E-01    0.237E-01
RMM:   4    -0.232691978779E+04    0.47520E-03   -0.21304E-03  4775   0.201E-02    0.107E-01
RMM:   5    -0.232691970362E+04    0.84169E-04   -0.29943E-04  3556   0.102E-02    0.113E-01
RMM:   6    -0.232691955437E+04    0.14925E-03   -0.33248E-04  4595   0.107E-02    0.532E-02
RMM:   7    -0.232691953226E+04    0.22111E-04   -0.13532E-04  3655   0.806E-03    0.215E-02
RMM:   8    -0.232691952613E+04    0.61234E-05   -0.15259E-05  2930   0.443E-03
   3 F= -.23479054E+04 E0= -.23479054E+04  d E =-.146646E+00  mag=     5.0000
       N       E                     dE             d eps       ncg     rms          rms(c)
DAV:   1    -0.232672457648E+04    0.19496E+00   -0.14048E+01  4624   0.354E+00    0.130E+00
RMM:   2    -0.232699221867E+04   -0.26764E+00   -0.29127E+00  6127   0.915E-01    0.973E-01
RMM:   3    -0.232700575194E+04   -0.13533E-01   -0.23958E-01  5685   0.331E-01    0.110E+00
RMM:   4    -0.232699488210E+04    0.10870E-01   -0.25442E-02  5819   0.722E-02    0.446E-01
RMM:   5    -0.232699298128E+04    0.19008E-02   -0.47226E-03  5600   0.386E-02    0.346E-01
RMM:   6    -0.232699208566E+04    0.89562E-03   -0.41665E-03  5513   0.333E-02    0.227E-01
RMM:   7    -0.232699163189E+04    0.45376E-03   -0.96275E-04  5232   0.204E-02    0.645E-02
RMM:   8    -0.232699157986E+04    0.52034E-04   -0.12966E-04  3314   0.867E-03    0.335E-02
RMM:   9    -0.232699156980E+04    0.10061E-04   -0.63929E-05  3082   0.628E-03    0.161E-02
RMM:  10    -0.232699157067E+04   -0.86834E-06   -0.19539E-05  3014   0.370E-03
   4 F= -.23479778E+04 E0= -.23479778E+04  d E =-.723785E-01  mag=     5.0000
       N       E                     dE             d eps       ncg     rms          rms(c)
DAV:   1    -0.232696486461E+04    0.26705E-01   -0.16974E+00  4688   0.122E+00    0.451E-01
RMM:   2    -0.232699513181E+04   -0.30267E-01   -0.33273E-01  5911   0.306E-01    0.310E-01
RMM:   3    -0.232699795114E+04   -0.28193E-02   -0.36958E-02  5349   0.158E-01    0.347E-01
RMM:   4    -0.232699713149E+04    0.81965E-03   -0.33267E-03  5183   0.252E-02    0.162E-01
RMM:   5    -0.232699694832E+04    0.18317E-03   -0.50657E-04  4082   0.131E-02    0.133E-01
RMM:   6    -0.232699675076E+04    0.19756E-03   -0.53114E-04  4756   0.131E-02    0.627E-02
RMM:   7    -0.232699671482E+04    0.35935E-04   -0.13039E-04  3797   0.830E-03    0.252E-02
RMM:   8    -0.232699670904E+04    0.57777E-05   -0.17817E-05  2935   0.456E-03
   5 F= -.23479830E+04 E0= -.23479830E+04  d E =-.775916E-01  mag=     5.0000
       N       E                     dE             d eps       ncg     rms          rms(c)
DAV:   1    -0.232697546607E+04    0.21249E-01   -0.53212E+00  4576   0.203E+00    0.689E-01
RMM:   2    -0.232702700417E+04   -0.51538E-01   -0.53813E-01  6008   0.478E-01    0.534E-01
RMM:   3    -0.232702822783E+04   -0.12237E-02   -0.39347E-02  5820   0.144E-01    0.594E-01
RMM:   4    -0.232702508418E+04    0.31436E-02   -0.51780E-03  5606   0.399E-02    0.225E-01
RMM:   5    -0.232702478858E+04    0.29560E-03   -0.13439E-03  5169   0.230E-02    0.198E-01
RMM:   6    -0.232702451683E+04    0.27175E-03   -0.99067E-04  5258   0.195E-02    0.112E-01
RMM:   7    -0.232702439025E+04    0.12658E-03   -0.26883E-04  4517   0.130E-02    0.398E-02
RMM:   8    -0.232702437019E+04    0.20059E-04   -0.47667E-05  3171   0.583E-03    0.182E-02
RMM:   9    -0.232702436454E+04    0.56522E-05   -0.13537E-05  2939   0.419E-03
   6 F= -.23480110E+04 E0= -.23480110E+04  d E =-.280503E-01  mag=     5.0000
       N       E                     dE             d eps       ncg     rms          rms(c)
DAV:   1    -0.232701973718E+04    0.46330E-02   -0.74438E-01  4640   0.765E-01    0.257E-01
RMM:   2    -0.232702677457E+04   -0.70374E-02   -0.73936E-02  6006   0.178E-01    0.189E-01
RMM:   3    -0.232702698490E+04   -0.21033E-03   -0.56918E-03  5543   0.574E-02    0.214E-01
RMM:   4    -0.232702659491E+04    0.38998E-03   -0.72769E-04  4386   0.150E-02    0.846E-02
RMM:   5    -0.232702655213E+04    0.42782E-04   -0.19793E-04  3646   0.964E-03    0.759E-02
RMM:   6    -0.232702650850E+04    0.43636E-04   -0.13992E-04  3900   0.875E-03    0.405E-02
RMM:   7    -0.232702649123E+04    0.17264E-04   -0.38977E-05  3142   0.622E-03    0.145E-02
RMM:   8    -0.232702648820E+04    0.30272E-05   -0.97930E-06  2899   0.389E-03
   7 F= -.23480133E+04 E0= -.23480133E+04  d E =-.303099E-01  mag=     5.0000
       N       E                     dE             d eps       ncg     rms          rms(c)
DAV:   1    -0.232702959619E+04   -0.31050E-02   -0.28883E+00  4560   0.134E+00    0.400E-01
RMM:   2    -0.232704854915E+04   -0.18953E-01   -0.19764E-01  6062   0.274E-01    0.245E-01
RMM:   3    -0.232704886748E+04   -0.31833E-03   -0.13070E-02  5649   0.792E-02    0.287E-01
RMM:   4    -0.232704824150E+04    0.62598E-03   -0.17827E-03  4545   0.224E-02    0.130E-01
RMM:   5    -0.232704808539E+04    0.15611E-03   -0.40473E-04  4260   0.120E-02    0.893E-02
RMM:   6    -0.232704802361E+04    0.61779E-04   -0.33627E-04  4237   0.124E-02    0.609E-02
RMM:   7    -0.232704800909E+04    0.14528E-04   -0.10000E-04  3221   0.858E-03    0.368E-02
RMM:   8    -0.232704799690E+04    0.12184E-04   -0.17992E-05  2949   0.393E-03    0.934E-03
RMM:   9    -0.232704799724E+04   -0.34089E-06   -0.44205E-06  2839   0.228E-03
   8 F= -.23480347E+04 E0= -.23480347E+04  d E =-.213706E-01  mag=     5.0000
       N       E                     dE             d eps       ncg     rms          rms(c)
DAV:   1    -0.232691445841E+04    0.13354E+00   -0.25913E+01  4496   0.400E+00    0.120E+00
RMM:   2    -0.232708753342E+04   -0.17308E+00   -0.18075E+00  6081   0.818E-01    0.710E-01
RMM:   3    -0.232709204318E+04   -0.45098E-02   -0.11367E-01  5794   0.233E-01    0.898E-01
RMM:   4    -0.232708576933E+04    0.62739E-02   -0.15516E-02  5732   0.664E-02    0.374E-01
RMM:   5    -0.232708449366E+04    0.12757E-02   -0.34636E-03  5265   0.324E-02    0.271E-01
RMM:   6    -0.232708397699E+04    0.51666E-03   -0.30493E-03  5003   0.340E-02    0.191E-01
RMM:   7    -0.232708381076E+04    0.16624E-03   -0.93285E-04  4577   0.221E-02    0.109E-01
RMM:   8    -0.232708369981E+04    0.11094E-03   -0.17281E-04  3485   0.851E-03    0.323E-02
RMM:   9    -0.232708370015E+04   -0.33500E-06   -0.41323E-05  3092   0.502E-03
   9 F= -.23480698E+04 E0= -.23480698E+04  d E =-.565076E-01  mag=     5.0000
       N       E                     dE             d eps       ncg     rms          rms(c)
DAV:   1    -0.232707033104E+04    0.13369E-01   -0.24403E+00  4592   0.121E+00    0.372E-01
RMM:   2    -0.232708641606E+04   -0.16085E-01   -0.16797E-01  6082   0.247E-01    0.220E-01
RMM:   3    -0.232708668338E+04   -0.26733E-03   -0.11275E-02  5635   0.728E-02    0.255E-01
RMM:   4    -0.232708619625E+04    0.48714E-03   -0.15050E-03  4349   0.202E-02    0.120E-01
RMM:   5    -0.232708606320E+04    0.13304E-03   -0.33418E-04  4103   0.110E-02    0.811E-02
RMM:   6    -0.232708600571E+04    0.57491E-04   -0.27695E-04  4142   0.114E-02    0.463E-02
RMM:   7    -0.232708600566E+04    0.51019E-07   -0.78795E-05  3114   0.787E-03
  10 F= -.23480719E+04 E0= -.23480719E+04  d E =-.585989E-01  mag=     5.0000
       N       E                     dE             d eps       ncg     rms          rms(c)
DAV:   1    -0.232706838017E+04    0.17626E-01   -0.57376E+00  4528   0.185E+00    0.593E-01
RMM:   2    -0.232711214898E+04   -0.43769E-01   -0.46471E-01  6092   0.406E-01    0.282E-01
RMM:   3    -0.232711171686E+04    0.43213E-03   -0.27082E-02  5723   0.110E-01    0.204E-01
RMM:   4    -0.232711187518E+04   -0.15832E-03   -0.34122E-03  5426   0.281E-02    0.228E-01
RMM:   5    -0.232711142171E+04    0.45346E-03   -0.65479E-04  4646   0.170E-02    0.112E-01
RMM:   6    -0.232711133247E+04    0.89245E-04   -0.47778E-04  4506   0.139E-02    0.721E-02
RMM:   7    -0.232711130527E+04    0.27195E-04   -0.15154E-04  3337   0.972E-03    0.562E-02
RMM:   8    -0.232711128071E+04    0.24562E-04   -0.30102E-05  2965   0.461E-03    0.127E-02
RMM:   9    -0.232711128024E+04    0.47109E-06   -0.82745E-06  2927   0.308E-03
  11 F= -.23480958E+04 E0= -.23480958E+04  d E =-.239658E-01  mag=     5.0000
       N       E                     dE             d eps       ncg     rms          rms(c)
DAV:   1    -0.232701417843E+04    0.97102E-01   -0.14873E+01  4496   0.296E+00    0.952E-01
RMM:   2    -0.232712782107E+04   -0.11364E+00   -0.12069E+00  6089   0.649E-01    0.447E-01
RMM:   3    -0.232712725405E+04    0.56701E-03   -0.71427E-02  5762   0.175E-01    0.346E-01
RMM:   4    -0.232712756440E+04   -0.31035E-03   -0.90146E-03  5767   0.448E-02    0.365E-01
RMM:   5    -0.232712637558E+04    0.11888E-02   -0.17205E-03  5181   0.267E-02    0.175E-01
RMM:   6    -0.232712625738E+04    0.11819E-03   -0.13146E-03  5002   0.220E-02    0.157E-01
RMM:   7    -0.232712605336E+04    0.20403E-03   -0.44954E-04  4252   0.146E-02    0.746E-02
RMM:   8    -0.232712600978E+04    0.43575E-04   -0.76414E-05  3205   0.619E-03    0.221E-02
RMM:   9    -0.232712600526E+04    0.45241E-05   -0.23631E-05  3014   0.441E-03
  12 F= -.23481084E+04 E0= -.23481084E+04  d E =-.365174E-01  mag=     5.0000
       N       E                     dE             d eps       ncg     rms          rms(c)
DAV:   1    -0.232709932869E+04    0.26681E-01   -0.57762E+00  4512   0.184E+00    0.626E-01
RMM:   2    -0.232714426260E+04   -0.44934E-01   -0.46681E-01  6023   0.412E-01    0.418E-01
RMM:   3    -0.232714614167E+04   -0.18791E-02   -0.29980E-02  5748   0.122E-01    0.602E-01
RMM:   4    -0.232714265535E+04    0.34863E-02   -0.43287E-03  5507   0.354E-02    0.159E-01
RMM:   5    -0.232714239113E+04    0.26421E-03   -0.11272E-03  4962   0.196E-02    0.111E-01
RMM:   6    -0.232714233168E+04    0.59449E-04   -0.55968E-04  4644   0.161E-02    0.104E-01
RMM:   7    -0.232714224378E+04    0.87909E-04   -0.16346E-04  3621   0.903E-03    0.322E-02
RMM:   8    -0.232714223427E+04    0.95063E-05   -0.26695E-05  2999   0.527E-03
  13 F= -.23481233E+04 E0= -.23481233E+04  d E =-.148980E-01  mag=     5.0000
       N       E                     dE             d eps       ncg     rms          rms(c)
DAV:   1    -0.232713167134E+04    0.10572E-01   -0.18162E+00  4560   0.103E+00    0.352E-01
RMM:   2    -0.232714575232E+04   -0.14081E-01   -0.14639E-01  6045   0.231E-01    0.234E-01
RMM:   3    -0.232714632341E+04   -0.57108E-03   -0.93155E-03  5617   0.689E-02    0.339E-01
RMM:   4    -0.232714522094E+04    0.11025E-02   -0.13752E-03  4858   0.201E-02    0.897E-02
RMM:   5    -0.232714512789E+04    0.93046E-04   -0.34142E-04  4351   0.115E-02    0.612E-02
RMM:   6    -0.232714510494E+04    0.22956E-04   -0.17604E-04  3825   0.985E-03    0.581E-02
RMM:   7    -0.232714507772E+04    0.27222E-04   -0.55374E-05  3068   0.652E-03    0.191E-02
RMM:   8    -0.232714507423E+04    0.34846E-05   -0.10988E-05  2910   0.388E-03
  14 F= -.23481254E+04 E0= -.23481254E+04  d E =-.169767E-01  mag=     5.0000
       N       E                     dE             d eps       ncg     rms          rms(c)
DAV:   1    -0.232714922982E+04   -0.41521E-02   -0.19425E+00  4496   0.103E+00    0.303E-01
RMM:   2    -0.232715612384E+04   -0.68940E-02   -0.73323E-02  5829   0.179E-01    0.136E-01
RMM:   3    -0.232715609967E+04    0.24162E-04   -0.51933E-03  5392   0.558E-02    0.943E-02
RMM:   4    -0.232715610122E+04   -0.15463E-05   -0.62854E-04  4731   0.150E-02    0.107E-01
RMM:   5    -0.232715600390E+04    0.97320E-04   -0.20715E-04  3587   0.107E-02    0.601E-02
RMM:   6    -0.232715599127E+04    0.12630E-04   -0.13391E-04  3770   0.877E-03    0.431E-02
RMM:   7    -0.232715597747E+04    0.13798E-04   -0.28137E-05  2996   0.574E-03    0.204E-02
RMM:   8    -0.232715597402E+04    0.34535E-05   -0.59504E-06  2862   0.248E-03
  15 F= -.23481359E+04 E0= -.23481359E+04  d E =-.105372E-01  mag=     5.0000
       N       E                     dE             d eps       ncg     rms          rms(c)
DAV:   1    -0.232713978157E+04    0.16196E-01   -0.71575E+00  4472   0.197E+00    0.582E-01
RMM:   2    -0.232716558644E+04   -0.25805E-01   -0.27439E-01  5803   0.342E-01    0.259E-01
RMM:   3    -0.232716535427E+04    0.23217E-03   -0.18406E-02  5510   0.104E-01    0.180E-01
RMM:   4    -0.232716538498E+04   -0.30714E-04   -0.21510E-03  5135   0.281E-02    0.204E-01
RMM:   5    -0.232716509550E+04    0.28949E-03   -0.80854E-04  4810   0.199E-02    0.142E-01
RMM:   6    -0.232716494740E+04    0.14810E-03   -0.47231E-04  4806   0.149E-02    0.654E-02
RMM:   7    -0.232716491992E+04    0.27475E-04   -0.89349E-05  3158   0.835E-03    0.402E-02
RMM:   8    -0.232716490824E+04    0.11684E-04   -0.22072E-05  2948   0.388E-03    0.155E-02
RMM:   9    -0.232716490854E+04   -0.30022E-06   -0.71154E-06  2895   0.266E-03
  16 F= -.23481441E+04 E0= -.23481441E+04  d E =-.187591E-01  mag=     5.0000
       N       E                     dE             d eps       ncg     rms          rms(c)
DAV:   1    -0.232716181196E+04    0.30963E-02   -0.31870E+00  4512   0.144E+00    0.397E-01
RMM:   2    -0.232717468606E+04   -0.12874E-01   -0.13648E-01  5678   0.244E-01    0.203E-01
RMM:   3    -0.232717479538E+04   -0.10932E-03   -0.96062E-03  5241   0.806E-02    0.222E-01
RMM:   4    -0.232717443705E+04    0.35833E-03   -0.12448E-03  5104   0.208E-02    0.129E-01
RMM:   5    -0.232717431763E+04    0.11941E-03   -0.42862E-04  4587   0.148E-02    0.976E-02
RMM:   6    -0.232717427215E+04    0.45485E-04   -0.29227E-04  4080   0.113E-02    0.868E-02
RMM:   7    -0.232717421095E+04    0.61196E-04   -0.10008E-04  3351   0.834E-03    0.180E-02
RMM:   8    -0.232717420683E+04    0.41278E-05   -0.11849E-05  2909   0.460E-03
  17 F= -.23481533E+04 E0= -.23481533E+04  d E =-.919026E-02  mag=     5.0000
       N       E                     dE             d eps       ncg     rms          rms(c)
DAV:   1    -0.232716806324E+04    0.61477E-02   -0.20987E+00  4528   0.116E+00    0.324E-01
RMM:   2    -0.232717658008E+04   -0.85168E-02   -0.90276E-02  5680   0.198E-01    0.167E-01
RMM:   3    -0.232717669128E+04   -0.11120E-03   -0.64448E-03  5167   0.681E-02    0.187E-01
RMM:   4    -0.232717642789E+04    0.26339E-03   -0.82965E-04  4797   0.171E-02    0.103E-01
RMM:   5    -0.232717635622E+04    0.71672E-04   -0.28959E-04  4363   0.124E-02    0.834E-02
RMM:   6    -0.232717631577E+04    0.40452E-04   -0.19674E-04  3677   0.957E-03    0.684E-02
RMM:   7    -0.232717627725E+04    0.38520E-04   -0.69942E-05  3173   0.738E-03    0.151E-02
RMM:   8    -0.232717627390E+04    0.33455E-05   -0.92822E-06  2892   0.425E-03
  18 F= -.23481553E+04 E0= -.23481553E+04  d E =-.111758E-01  mag=     5.0000
       N       E                     dE             d eps       ncg     rms          rms(c)
DAV:   1    -0.232716835095E+04    0.79263E-02   -0.27983E+00  4512   0.140E+00    0.362E-01
RMM:   2    -0.232718432344E+04   -0.15972E-01   -0.16222E-01  5776   0.254E-01    0.321E-01
RMM:   3    -0.232718466582E+04   -0.34238E-03   -0.12275E-02  5168   0.869E-02    0.305E-01
RMM:   4    -0.232718375563E+04    0.91019E-03   -0.14321E-03  5139   0.220E-02    0.119E-01
RMM:   5    -0.232718371075E+04    0.44883E-04   -0.41263E-04  4306   0.134E-02    0.129E-01
RMM:   6    -0.232718353485E+04    0.17590E-03   -0.33635E-04  4436   0.130E-02    0.469E-02
RMM:   7    -0.232718352521E+04    0.96330E-05   -0.10123E-04  3385   0.903E-03    0.170E-02
RMM:   8    -0.232718352126E+04    0.39507E-05   -0.14121E-05  2963   0.414E-03
  19 F= -.23481624E+04 E0= -.23481624E+04  d E =-.704706E-02  mag=     5.0000
       N       E                     dE             d eps       ncg     rms          rms(c)
DAV:   1    -0.232716597979E+04    0.17545E-01   -0.36336E+00  4504   0.160E+00    0.413E-01
RMM:   2    -0.232718678800E+04   -0.20808E-01   -0.21124E-01  5799   0.292E-01    0.370E-01
RMM:   3    -0.232718720896E+04   -0.42096E-03   -0.16063E-02  5195   0.974E-02    0.349E-01
RMM:   4    -0.232718601492E+04    0.11940E-02   -0.18649E-03  5262   0.250E-02    0.136E-01
RMM:   5    -0.232718595462E+04    0.60302E-04   -0.54579E-04  4556   0.150E-02    0.147E-01
RMM:   6    -0.232718572503E+04    0.22959E-03   -0.44584E-04  4573   0.147E-02    0.536E-02
RMM:   7    -0.232718571085E+04    0.14177E-04   -0.13576E-04  3594   0.100E-02    0.195E-02
RMM:   8    -0.232718570544E+04    0.54176E-05   -0.18367E-05  2988   0.443E-03
  20 F= -.23481643E+04 E0= -.23481643E+04  d E =-.900611E-02  mag=     5.0000
       N       E                     dE             d eps       ncg     rms          rms(c)
DAV:   1    -0.232716663619E+04    0.19075E-01   -0.36033E+00  4464   0.161E+00    0.431E-01
RMM:   2    -0.232719558062E+04   -0.28944E-01   -0.28877E-01  5955   0.319E-01    0.477E-01
RMM:   3    -0.232719554894E+04    0.31680E-04   -0.22965E-02  5428   0.104E-01    0.339E-01
RMM:   4    -0.232719450449E+04    0.10444E-02   -0.24171E-03  5219   0.243E-02    0.139E-01
RMM:   5    -0.232719441427E+04    0.90223E-04   -0.40468E-04  3982   0.127E-02    0.134E-01
RMM:   6    -0.232719420539E+04    0.20888E-03   -0.38597E-04  4427   0.144E-02    0.503E-02
RMM:   7    -0.232719419443E+04    0.10957E-04   -0.14877E-04  3807   0.112E-02    0.177E-02
RMM:   8    -0.232719419131E+04    0.31229E-05   -0.18917E-05  2984   0.424E-03
  21 F= -.23481722E+04 E0= -.23481722E+04  d E =-.789908E-02  mag=     5.0000
       N       E                     dE             d eps       ncg     rms          rms(c)
DAV:   1    -0.232696132525E+04    0.23287E+00   -0.30260E+01  4480   0.467E+00    0.126E+00
RMM:   2    -0.232721216874E+04   -0.25084E+00   -0.24921E+00  6003   0.944E-01    0.146E+00
RMM:   3    -0.232720835990E+04    0.38088E-02   -0.20233E-01  5523   0.301E-01    0.971E-01
RMM:   4    -0.232719990888E+04    0.84510E-02   -0.21666E-02  5604   0.708E-02    0.430E-01
RMM:   5    -0.232719894077E+04    0.96811E-03   -0.34702E-03  5366   0.353E-02    0.383E-01
RMM:   6    -0.232719719849E+04    0.17423E-02   -0.34407E-03  4778   0.418E-02    0.155E-01
RMM:   7    -0.232719707756E+04    0.12093E-03   -0.14275E-03  4879   0.303E-02    0.505E-02
RMM:   8    -0.232719704172E+04    0.35838E-04   -0.13140E-04  3931   0.937E-03    0.283E-02
RMM:   9    -0.232719702573E+04    0.15994E-04   -0.56857E-05  3080   0.714E-03    0.132E-02
RMM:  10    -0.232719702451E+04    0.12247E-05   -0.17380E-05  2979   0.411E-03
  22 F= -.23481733E+04 E0= -.23481733E+04  d E =-.894659E-02  mag=     5.0000
       N       E                     dE             d eps       ncg     rms          rms(c)
DAV:   1    -0.232714976552E+04    0.47260E-01   -0.65541E+00  4464   0.218E+00    0.579E-01
RMM:   2    -0.232720114444E+04   -0.51379E-01   -0.51873E-01  6000   0.427E-01    0.573E-01
RMM:   3    -0.232720228089E+04   -0.11365E-02   -0.42793E-02  5503   0.142E-01    0.468E-01
RMM:   4    -0.232720027646E+04    0.20044E-02   -0.44807E-03  5475   0.337E-02    0.188E-01
RMM:   5    -0.232720010859E+04    0.16788E-03   -0.71848E-04  4631   0.166E-02    0.177E-01
RMM:   6    -0.232719976560E+04    0.34299E-03   -0.69309E-04  4730   0.178E-02    0.757E-02
RMM:   7    -0.232719973604E+04    0.29562E-04   -0.27989E-04  4300   0.137E-02    0.324E-02
RMM:   8    -0.232719972488E+04    0.11151E-04   -0.38336E-05  3149   0.523E-03    0.152E-02
RMM:   9    -0.232719972189E+04    0.29957E-05   -0.94480E-06  2884   0.372E-03
  23 F= -.23481768E+04 E0= -.23481768E+04  d E =-.124890E-01  mag=     5.0000
       N       E                     dE             d eps       ncg     rms          rms(c)
DAV:   1    -0.232716957313E+04    0.30152E-01   -0.45470E+00  4464   0.184E+00    0.554E-01
RMM:   2    -0.232721046036E+04   -0.40887E-01   -0.41484E-01  5976   0.376E-01    0.489E-01
RMM:   3    -0.232721201682E+04   -0.15565E-02   -0.34688E-02  5554   0.124E-01    0.460E-01
RMM:   4    -0.232720998486E+04    0.20320E-02   -0.37430E-03  5523   0.314E-02    0.169E-01
RMM:   5    -0.232720984428E+04    0.14058E-03   -0.65538E-04  4569   0.159E-02    0.160E-01
RMM:   6    -0.232720954513E+04    0.29915E-03   -0.52632E-04  4721   0.164E-02    0.649E-02
RMM:   7    -0.232720951168E+04    0.33450E-04   -0.21868E-04  4330   0.126E-02    0.184E-02
RMM:   8    -0.232720950476E+04    0.69210E-05   -0.20935E-05  2990   0.491E-03
  24 F= -.23481859E+04 E0= -.23481859E+04  d E =-.911894E-02  mag=     5.0000
       N       E                     dE             d eps       ncg     rms          rms(c)
DAV:   1    -0.232718674862E+04    0.22763E-01   -0.28097E+00  4496   0.144E+00    0.437E-01
RMM:   2    -0.232721215184E+04   -0.25403E-01   -0.25690E-01  5984   0.295E-01    0.400E-01
RMM:   3    -0.232721297782E+04   -0.82598E-03   -0.21354E-02  5533   0.945E-02    0.360E-01
RMM:   4    -0.232721173301E+04    0.12448E-02   -0.23150E-03  5360   0.245E-02    0.134E-01
RMM:   5    -0.232721164557E+04    0.87442E-04   -0.40719E-04  4077   0.126E-02    0.127E-01
RMM:   6    -0.232721145366E+04    0.19191E-03   -0.33182E-04  4479   0.133E-02    0.507E-02
RMM:   7    -0.232721143281E+04    0.20845E-04   -0.13769E-04  3947   0.106E-02    0.154E-02
RMM:   8    -0.232721142846E+04    0.43560E-05   -0.15476E-05  2942   0.440E-03
  25 F= -.23481873E+04 E0= -.23481873E+04  d E =-.104984E-01  mag=     5.0000
       N       E                     dE             d eps       ncg     rms          rms(c)
DAV:   1    -0.232717038439E+04    0.41048E-01   -0.46878E+00  4480   0.171E+00    0.540E-01
RMM:   2    -0.232721975019E+04   -0.49366E-01   -0.49153E-01  6113   0.360E-01    0.556E-01
RMM:   3    -0.232722165854E+04   -0.19083E-02   -0.44793E-02  5575   0.125E-01    0.445E-01
RMM:   4    -0.232721972841E+04    0.19301E-02   -0.43730E-03  5426   0.290E-02    0.164E-01
RMM:   5    -0.232721956127E+04    0.16714E-03   -0.49569E-04  4078   0.131E-02    0.148E-01
RMM:   6    -0.232721934671E+04    0.21456E-03   -0.42445E-04  4345   0.138E-02    0.827E-02
RMM:   7    -0.232721929999E+04    0.46718E-04   -0.33108E-04  4360   0.129E-02    0.218E-02
RMM:   8    -0.232721929372E+04    0.62742E-05   -0.25348E-05  3018   0.533E-03
  26 F= -.23481945E+04 E0= -.23481945E+04  d E =-.722009E-02  mag=     5.0000
       N       E                     dE             d eps       ncg     rms          rms(c)
DAV:   1    -0.232710134241E+04    0.11796E+00   -0.11739E+01  4496   0.270E+00    0.857E-01
RMM:   2    -0.232722567906E+04   -0.12434E+00   -0.12420E+00  6157   0.570E-01    0.873E-01
RMM:   3    -0.232723138932E+04   -0.57103E-02   -0.11718E-01  5661   0.197E-01    0.742E-01
RMM:   4    -0.232722603317E+04    0.53562E-02   -0.11162E-02  5688   0.462E-02    0.256E-01
RMM:   5    -0.232722556878E+04    0.46439E-03   -0.12634E-03  4894   0.207E-02    0.228E-01
RMM:   6    -0.232722512926E+04    0.43951E-03   -0.10692E-03  4788   0.202E-02    0.149E-01
RMM:   7    -0.232722496702E+04    0.16224E-03   -0.93717E-04  5167   0.198E-02    0.417E-02
RMM:   8    -0.232722494439E+04    0.22628E-04   -0.82671E-05  3267   0.774E-03    0.259E-02
RMM:   9    -0.232722493324E+04    0.11153E-04   -0.34748E-05  2930   0.504E-03    0.144E-02
RMM:  10    -0.232722493195E+04    0.12891E-05   -0.14666E-05  2948   0.307E-03
  27 F= -.23481991E+04 E0= -.23481991E+04  d E =-.117769E-01  mag=     5.0000
       N       E                     dE             d eps       ncg     rms          rms(c)
DAV:   1    -0.232715601192E+04    0.68921E-01   -0.71303E+00  4528   0.208E+00    0.715E-01
RMM:   2    -0.232723743452E+04   -0.81423E-01   -0.81122E-01  6056   0.446E-01    0.756E-01
RMM:   3    -0.232724040318E+04   -0.29687E-02   -0.76831E-02  5554   0.167E-01    0.603E-01
RMM:   4    -0.232723677863E+04    0.36245E-02   -0.75068E-03  5514   0.381E-02    0.196E-01
RMM:   5    -0.232723634276E+04    0.43587E-03   -0.97576E-04  4994   0.192E-02    0.152E-01
RMM:   6    -0.232723628500E+04    0.57764E-04   -0.78385E-04  4652   0.170E-02    0.158E-01
RMM:   7    -0.232723609744E+04    0.18756E-03   -0.44400E-04  4634   0.139E-02    0.278E-02
RMM:   8    -0.232723608833E+04    0.91138E-05   -0.42458E-05  3039   0.660E-03
  28 F= -.23482096E+04 E0= -.23482096E+04  d E =-.104695E-01  mag=     5.0000
       N       E                     dE             d eps       ncg     rms          rms(c)
DAV:   1    -0.232721734002E+04    0.18757E-01   -0.18032E+00  4560   0.104E+00    0.363E-01
RMM:   2    -0.232723810213E+04   -0.20762E-01   -0.20563E-01  6077   0.225E-01    0.402E-01
RMM:   3    -0.232723861733E+04   -0.51520E-03   -0.19082E-02  5454   0.817E-02    0.296E-01
RMM:   4    -0.232723775373E+04    0.86360E-03   -0.19193E-03  4865   0.191E-02    0.994E-02
RMM:   5    -0.232723766009E+04    0.93637E-04   -0.24809E-04  3737   0.100E-02    0.883E-02
RMM:   6    -0.232723760664E+04    0.53453E-04   -0.19742E-04  3480   0.975E-03    0.647E-02
RMM:   7    -0.232723757981E+04    0.26834E-04   -0.11265E-04  3569   0.823E-03    0.144E-02
RMM:   8    -0.232723757743E+04    0.23811E-05   -0.12389E-05  2932   0.506E-03
  29 F= -.23482107E+04 E0= -.23482107E+04  d E =-.116000E-01  mag=     5.0000
       N       E                     dE             d eps       ncg     rms          rms(c)
DAV:   1    -0.232716992162E+04    0.67658E-01   -0.62578E+00  4496   0.196E+00    0.679E-01
RMM:   2    -0.232724764763E+04   -0.77726E-01   -0.78659E-01  6175   0.426E-01    0.663E-01
RMM:   3    -0.232725164382E+04   -0.39962E-02   -0.74989E-02  5658   0.159E-01    0.578E-01
RMM:   4    -0.232724835975E+04    0.32841E-02   -0.73205E-03  5498   0.358E-02    0.193E-01
RMM:   5    -0.232724791762E+04    0.44213E-03   -0.73682E-04  4560   0.163E-02    0.126E-01
RMM:   6    -0.232724799099E+04   -0.73372E-04   -0.83808E-04  4685   0.177E-02    0.179E-01
RMM:   7    -0.232724772887E+04    0.26212E-03   -0.38948E-04  4369   0.130E-02    0.273E-02
RMM:   8    -0.232724772285E+04    0.60193E-05   -0.50940E-05  3003   0.538E-03
  30 F= -.23482200E+04 E0= -.23482200E+04  d E =-.936062E-02  mag=     5.0000
       N       E                     dE             d eps       ncg     rms          rms(c)
DAV:   1    -0.232709498048E+04    0.15275E+00   -0.12502E+01  4496   0.278E+00    0.962E-01
RMM:   2    -0.232725167825E+04   -0.15670E+00   -0.15900E+00  6202   0.607E-01    0.931E-01
RMM:   3    -0.232726021737E+04   -0.85391E-02   -0.15577E-01  5722   0.224E-01    0.833E-01
RMM:   4    -0.232725337224E+04    0.68451E-02   -0.14820E-02  5674   0.508E-02    0.275E-01
RMM:   5    -0.232725244726E+04    0.92498E-03   -0.14405E-03  4956   0.227E-02    0.176E-01
RMM:   6    -0.232725219840E+04    0.24886E-03   -0.19736E-03  5056   0.278E-02    0.134E-01
RMM:   7    -0.232725207555E+04    0.12285E-03   -0.38358E-04  4328   0.149E-02    0.559E-02
RMM:   8    -0.232725204783E+04    0.27718E-04   -0.70912E-05  3144   0.514E-03    0.282E-02
RMM:   9    -0.232725203786E+04    0.99656E-05   -0.38819E-05  2938   0.463E-03
  31 F= -.23482232E+04 E0= -.23482232E+04  d E =-.125112E-01  mag=     5.0000
       N       E                     dE             d eps       ncg     rms          rms(c)
DAV:   1    -0.232719119156E+04    0.60856E-01   -0.53622E+00  4496   0.178E+00    0.630E-01
RMM:   2    -0.232726130195E+04   -0.70110E-01   -0.70105E-01  6222   0.404E-01    0.662E-01
RMM:   3    -0.232726358100E+04   -0.22790E-02   -0.61878E-02  5743   0.143E-01    0.527E-01
RMM:   4    -0.232726093104E+04    0.26500E-02   -0.63351E-03  5475   0.326E-02    0.172E-01
RMM:   5    -0.232726060000E+04    0.33104E-03   -0.55321E-04  4445   0.148E-02    0.121E-01
RMM:   6    -0.232726066007E+04   -0.60075E-04   -0.65583E-04  4439   0.157E-02    0.163E-01
RMM:   7    -0.232726044583E+04    0.21424E-03   -0.34271E-04  4270   0.124E-02    0.244E-02
RMM:   8    -0.232726044002E+04    0.58119E-05   -0.38839E-05  2981   0.543E-03
  32 F= -.23482305E+04 E0= -.23482305E+04  d E =-.726487E-02  mag=     5.0000
       N       E                     dE             d eps       ncg     rms          rms(c)
DAV:   1    -0.232687733377E+04    0.38311E+00   -0.29353E+01  4496   0.416E+00    0.148E+00
RMM:   2    -0.232727035042E+04   -0.39302E+00   -0.39520E+00  6347   0.968E-01    0.151E+00
RMM:   3    -0.232728511032E+04   -0.14760E-01   -0.35700E-01  5924   0.318E-01    0.132E+00
RMM:   4    -0.232726829226E+04    0.16818E-01   -0.35388E-02  5766   0.761E-02    0.408E-01
RMM:   5    -0.232726630916E+04    0.19831E-02   -0.31485E-03  5198   0.342E-02    0.279E-01
RMM:   6    -0.232726583034E+04    0.47882E-03   -0.53216E-03  5239   0.434E-02    0.216E-01
RMM:   7    -0.232726546591E+04    0.36443E-03   -0.86924E-04  4756   0.225E-02    0.928E-02
RMM:   8    -0.232726538613E+04    0.79780E-04   -0.18173E-04  3340   0.764E-03    0.418E-02
RMM:   9    -0.232726536248E+04    0.23644E-04   -0.96107E-05  2988   0.682E-03    0.243E-02
RMM:  10    -0.232726535931E+04    0.31682E-05   -0.36889E-05  3067   0.407E-03
  33 F= -.23482326E+04 E0= -.23482326E+04  d E =-.938000E-02  mag=     5.0000
       N       E                     dE             d eps       ncg     rms          rms(c)
DAV:   1    -0.232720745403E+04    0.57908E-01   -0.45272E+00  4496   0.163E+00    0.585E-01
RMM:   2    -0.232726649277E+04   -0.59039E-01   -0.58913E-01  6249   0.368E-01    0.624E-01
RMM:   3    -0.232726830620E+04   -0.18134E-02   -0.53969E-02  5745   0.131E-01    0.453E-01
RMM:   4    -0.232726639261E+04    0.19136E-02   -0.54907E-03  5330   0.301E-02    0.177E-01
RMM:   5    -0.232726620227E+04    0.19034E-03   -0.55514E-04  3870   0.130E-02    0.151E-01
RMM:   6    -0.232726598533E+04    0.21694E-03   -0.51640E-04  4413   0.136E-02    0.870E-02
RMM:   7    -0.232726593482E+04    0.50506E-04   -0.25820E-04  4134   0.119E-02    0.250E-02
RMM:   8    -0.232726593030E+04    0.45167E-05   -0.32071E-05  3019   0.542E-03
  34 F= -.23482343E+04 E0= -.23482343E+04  d E =-.110726E-01  mag=     5.0000
       N       E                     dE             d eps       ncg     rms          rms(c)
DAV:   1    -0.232722925999E+04    0.36675E-01   -0.32338E+00  4504   0.142E+00    0.547E-01
RMM:   2    -0.232727780261E+04   -0.48543E-01   -0.47292E-01  6191   0.339E-01    0.679E-01
RMM:   3    -0.232727725755E+04    0.54505E-03   -0.40784E-02  5758   0.119E-01    0.416E-01
RMM:   4    -0.232727563881E+04    0.16187E-02   -0.43125E-03  5361   0.277E-02    0.143E-01
RMM:   5    -0.232727551190E+04    0.12692E-03   -0.49247E-04  4387   0.140E-02    0.142E-01
RMM:   6    -0.232727535382E+04    0.15807E-03   -0.39742E-04  4384   0.130E-02    0.847E-02
RMM:   7    -0.232727530539E+04    0.48438E-04   -0.23021E-04  4033   0.113E-02    0.199E-02
RMM:   8    -0.232727530117E+04    0.42190E-05   -0.25346E-05  2988   0.517E-03
  35 F= -.23482425E+04 E0= -.23482425E+04  d E =-.819525E-02  mag=     5.0000
       N       E                     dE             d eps       ncg     rms          rms(c)
DAV:   1    -0.232723531311E+04    0.39992E-01   -0.29932E+00  4488   0.136E+00    0.531E-01
RMM:   2    -0.232728125888E+04   -0.45946E-01   -0.44634E-01  6186   0.329E-01    0.674E-01
RMM:   3    -0.232728059869E+04    0.66018E-03   -0.39291E-02  5747   0.113E-01    0.402E-01
RMM:   4    -0.232727910212E+04    0.14966E-02   -0.40101E-03  5334   0.265E-02    0.137E-01
RMM:   5    -0.232727898988E+04    0.11224E-03   -0.46966E-04  4309   0.135E-02    0.139E-01
RMM:   6    -0.232727884081E+04    0.14907E-03   -0.37268E-04  4340   0.126E-02    0.819E-02
RMM:   7    -0.232727879777E+04    0.43034E-04   -0.21638E-04  3985   0.109E-02    0.194E-02
RMM:   8    -0.232727879416E+04    0.36133E-05   -0.23750E-05  2980   0.512E-03
  36 F= -.23482448E+04 E0= -.23482448E+04  d E =-.105371E-01  mag=     5.0000
       N       E                     dE             d eps       ncg     rms          rms(c)
DAV:   1    -0.232725592001E+04    0.22878E-01   -0.17725E+00  4512   0.108E+00    0.422E-01
RMM:   2    -0.232728619186E+04   -0.30272E-01   -0.29314E-01  6190   0.268E-01    0.559E-01
RMM:   3    -0.232728536239E+04    0.82948E-03   -0.24684E-02  5678   0.898E-02    0.307E-01
RMM:   4    -0.232728451270E+04    0.84969E-03   -0.26552E-03  5103   0.211E-02    0.112E-01
RMM:   5    -0.232728443845E+04    0.74249E-04   -0.29310E-04  3857   0.112E-02    0.114E-01
RMM:   6    -0.232728433645E+04    0.10200E-03   -0.24485E-04  4003   0.107E-02    0.696E-02
RMM:   7    -0.232728429992E+04    0.36526E-04   -0.14136E-04  3648   0.955E-03    0.142E-02
RMM:   8    -0.232728429757E+04    0.23509E-05   -0.17270E-05  2948   0.478E-03
  37 F= -.23482492E+04 E0= -.23482492E+04  d E =-.442368E-02  mag=     5.0000
       N       E                     dE             d eps       ncg     rms          rms(c)
DAV:   1    -0.232727166797E+04    0.12632E-01   -0.87561E-01  4560   0.760E-01    0.297E-01
RMM:   2    -0.232728664382E+04   -0.14976E-01   -0.14497E-01  6213   0.187E-01    0.393E-01
RMM:   3    -0.232728623075E+04    0.41307E-03   -0.12207E-02  5472   0.622E-02    0.214E-01
RMM:   4    -0.232728582061E+04    0.41014E-03   -0.13177E-03  4489   0.149E-02    0.805E-02
RMM:   5    -0.232728578372E+04    0.36888E-04   -0.14703E-04  3210   0.812E-03    0.822E-02
RMM:   6    -0.232728572565E+04    0.58076E-04   -0.12439E-04  3339   0.829E-03    0.478E-02
RMM:   7    -0.232728570800E+04    0.17649E-04   -0.76641E-05  3291   0.755E-03    0.106E-02
RMM:   8    -0.232728570663E+04    0.13676E-05   -0.11063E-05  2923   0.444E-03
  38 F= -.23482499E+04 E0= -.23482499E+04  d E =-.507009E-02  mag=     5.0000
       N       E                     dE             d eps       ncg     rms          rms(c)
DAV:   1    -0.232726139288E+04    0.24315E-01   -0.20138E+00  4512   0.121E+00    0.430E-01
RMM:   2    -0.232729165986E+04   -0.30267E-01   -0.30065E-01  6123   0.275E-01    0.501E-01
RMM:   3    -0.232729184502E+04   -0.18516E-03   -0.25834E-02  5616   0.940E-02    0.345E-01
RMM:   4    -0.232729070864E+04    0.11364E-02   -0.27636E-03  5080   0.219E-02    0.112E-01
RMM:   5    -0.232729056626E+04    0.14238E-03   -0.25793E-04  3953   0.108E-02    0.789E-02
RMM:   6    -0.232729057947E+04   -0.13219E-04   -0.30427E-04  4137   0.118E-02    0.103E-01
RMM:   7    -0.232729049135E+04    0.88121E-04   -0.12289E-04  3238   0.864E-03    0.203E-02
RMM:   8    -0.232729048740E+04    0.39552E-05   -0.20040E-05  2965   0.459E-03
  39 F= -.23482538E+04 E0= -.23482538E+04  d E =-.389519E-02  mag=     5.0000
       N       E                     dE             d eps       ncg     rms          rms(c)
DAV:   1    -0.232726952991E+04    0.20961E-01   -0.15461E+00  4504   0.106E+00    0.378E-01
RMM:   2    -0.232729282460E+04   -0.23295E-01   -0.23106E-01  6163   0.241E-01    0.445E-01
RMM:   3    -0.232729289613E+04   -0.71527E-04   -0.19864E-02  5592   0.815E-02    0.301E-01
RMM:   4    -0.232729203618E+04    0.85995E-03   -0.21229E-03  4913   0.193E-02    0.979E-02
RMM:   5    -0.232729193109E+04    0.10508E-03   -0.20357E-04  3686   0.956E-03    0.720E-02
RMM:   6    -0.232729193620E+04   -0.51053E-05   -0.22590E-04  3786   0.103E-02    0.904E-02
RMM:   7    -0.232729186960E+04    0.66595E-04   -0.10020E-04  3180   0.803E-03    0.173E-02
RMM:   8    -0.232729186642E+04    0.31858E-05   -0.16816E-05  2949   0.469E-03
  40 F= -.23482544E+04 E0= -.23482544E+04  d E =-.449461E-02  mag=     5.0000
       N       E                     dE             d eps       ncg     rms          rms(c)
DAV:   1    -0.232727481707E+04    0.17053E-01   -0.14616E+00  4528   0.107E+00    0.368E-01
RMM:   2    -0.232729602442E+04   -0.21207E-01   -0.21238E-01  6087   0.228E-01    0.407E-01
RMM:   3    -0.232729651726E+04   -0.49284E-03   -0.19574E-02  5458   0.840E-02    0.301E-01
RMM:   4    -0.232729560528E+04    0.91198E-03   -0.19997E-03  4842   0.190E-02    0.987E-02
RMM:   5    -0.232729548610E+04    0.11918E-03   -0.19281E-04  3620   0.926E-03    0.634E-02
RMM:   6    -0.232729544894E+04    0.37158E-04   -0.24733E-04  4223   0.116E-02    0.390E-02
RMM:   7    -0.232729543802E+04    0.10919E-04   -0.49161E-05  3093   0.725E-03    0.249E-02
RMM:   8    -0.232729543356E+04    0.44657E-05   -0.11677E-05  2881   0.303E-03
  41 F= -.23482575E+04 E0= -.23482575E+04  d E =-.317773E-02  mag=     5.0000
       N       E                     dE             d eps       ncg     rms          rms(c)
DAV:   1    -0.232727279045E+04    0.22648E-01   -0.17204E+00  4504   0.116E+00    0.400E-01
RMM:   2    -0.232729778159E+04   -0.24991E-01   -0.25013E-01  6038   0.248E-01    0.444E-01
RMM:   3    -0.232729832203E+04   -0.54044E-03   -0.23101E-02  5434   0.907E-02    0.326E-01
RMM:   4    -0.232729725135E+04    0.10707E-02   -0.23601E-03  5036   0.205E-02    0.107E-01
RMM:   5    -0.232729710964E+04    0.14171E-03   -0.22842E-04  3802   0.990E-03    0.691E-02
RMM:   6    -0.232729705876E+04    0.50885E-04   -0.29602E-04  4306   0.125E-02    0.337E-02
RMM:   7    -0.232729705128E+04    0.74734E-05   -0.52676E-05  3139   0.759E-03
  42 F= -.23482587E+04 E0= -.23482587E+04  d E =-.437467E-02  mag=     5.0000
       N       E                     dE             d eps       ncg     rms          rms(c)
DAV:   1    -0.232729342965E+04    0.36291E-02   -0.43346E-01  4592   0.610E-01    0.223E-01
RMM:   2    -0.232729936850E+04   -0.59388E-02   -0.60408E-02  5899   0.128E-01    0.207E-01
RMM:   3    -0.232729977052E+04   -0.40203E-03   -0.59456E-03  5081   0.544E-02    0.191E-01
RMM:   4    -0.232729941026E+04    0.36027E-03   -0.65229E-04  4074   0.128E-02    0.597E-02
RMM:   5    -0.232729936552E+04    0.44736E-04   -0.11191E-04  3479   0.813E-03    0.375E-02
RMM:   6    -0.232729937323E+04   -0.77076E-05   -0.78208E-05  3123   0.729E-03
  43 F= -.23482611E+04 E0= -.23482611E+04  d E =-.233496E-02  mag=     5.0000
       N       E                     dE             d eps       ncg     rms          rms(c)
DAV:   1    -0.232729580577E+04    0.35598E-02   -0.29226E-01  4560   0.500E-01    0.182E-01
RMM:   2    -0.232729978808E+04   -0.39823E-02   -0.40994E-02  6150   0.107E-01    0.156E-01
RMM:   3    -0.232730010641E+04   -0.31833E-03   -0.39430E-03  4875   0.409E-02    0.161E-01
RMM:   4    -0.232729986147E+04    0.24495E-03   -0.43380E-04  3454   0.106E-02    0.537E-02
RMM:   5    -0.232729984124E+04    0.20229E-04   -0.84533E-05  3151   0.666E-03    0.481E-02
RMM:   6    -0.232729982194E+04    0.19292E-04   -0.59517E-05  3047   0.660E-03    0.260E-02
RMM:   7    -0.232729981718E+04    0.47684E-05   -0.23178E-05  2977   0.533E-03
  44 F= -.23482615E+04 E0= -.23482615E+04  d E =-.279066E-02  mag=     5.0000
       N       E                     dE             d eps       ncg     rms          rms(c)
DAV:   1    -0.232729651667E+04    0.33053E-02   -0.33192E-01  4496   0.545E-01    0.185E-01
RMM:   2    -0.232730113416E+04   -0.46175E-02   -0.47697E-02  6185   0.114E-01    0.147E-01
RMM:   3    -0.232730155253E+04   -0.41837E-03   -0.46296E-03  4879   0.449E-02    0.159E-01
RMM:   4    -0.232730131618E+04    0.23635E-03   -0.48576E-04  3446   0.108E-02    0.528E-02
RMM:   5    -0.232730129187E+04    0.24308E-04   -0.77409E-05  3117   0.645E-03    0.449E-02
RMM:   6    -0.232730127475E+04    0.17121E-04   -0.52255E-05  3006   0.585E-03    0.285E-02
RMM:   7    -0.232730126849E+04    0.62627E-05   -0.29048E-05  3027   0.529E-03
  45 F= -.23482629E+04 E0= -.23482629E+04  d E =-.137289E-02  mag=     5.0000
       N       E                     dE             d eps       ncg     rms          rms(c)
DAV:   1    -0.232729707607E+04    0.41987E-02   -0.32292E-01  4544   0.537E-01    0.183E-01
RMM:   2    -0.232730157845E+04   -0.45024E-02   -0.46482E-02  6241   0.113E-01    0.146E-01
RMM:   3    -0.232730198478E+04   -0.40633E-03   -0.45372E-03  4808   0.449E-02    0.158E-01
RMM:   4    -0.232730175392E+04    0.23085E-03   -0.47271E-04  3430   0.107E-02    0.525E-02
RMM:   5    -0.232730173092E+04    0.23004E-04   -0.76057E-05  3122   0.635E-03    0.455E-02
RMM:   6    -0.232730171195E+04    0.18965E-04   -0.52206E-05  3005   0.581E-03    0.273E-02
RMM:   7    -0.232730170572E+04    0.62341E-05   -0.28632E-05  3037   0.526E-03
  46 F= -.23482633E+04 E0= -.23482633E+04  d E =-.173328E-02  mag=     5.0000
       N       E                     dE             d eps       ncg     rms          rms(c)
DAV:   1    -0.232729878704E+04    0.29249E-02   -0.35758E-01  4496   0.591E-01    0.180E-01
RMM:   2    -0.232730347804E+04   -0.46910E-02   -0.47828E-02  6282   0.123E-01    0.161E-01
RMM:   3    -0.232730368786E+04   -0.20983E-03   -0.39359E-03  5018   0.420E-02    0.148E-01
RMM:   4    -0.232730349095E+04    0.19692E-03   -0.44888E-04  3488   0.108E-02    0.579E-02
RMM:   5    -0.232730347756E+04    0.13392E-04   -0.80519E-05  3058   0.670E-03    0.552E-02
RMM:   6    -0.232730344468E+04    0.32874E-04   -0.58321E-05  3092   0.639E-03    0.233E-02
RMM:   7    -0.232730344086E+04    0.38214E-05   -0.29590E-05  3011   0.581E-03
  47 F= -.23482647E+04 E0= -.23482647E+04  d E =-.144691E-02  mag=     5.0000
       N       E                     dE             d eps       ncg     rms          rms(c)
DAV:   1    -0.232729789252E+04    0.55522E-02   -0.48523E-01  4496   0.688E-01    0.210E-01
RMM:   2    -0.232730424901E+04   -0.63565E-02   -0.64857E-02  6209   0.143E-01    0.186E-01
RMM:   3    -0.232730454634E+04   -0.29733E-03   -0.54376E-03  5228   0.504E-02    0.171E-01
RMM:   4    -0.232730428117E+04    0.26517E-03   -0.61274E-04  3911   0.124E-02    0.671E-02
RMM:   5    -0.232730426292E+04    0.18244E-04   -0.10507E-04  3100   0.746E-03    0.645E-02
RMM:   6    -0.232730421741E+04    0.45509E-04   -0.78536E-05  3336   0.723E-03    0.276E-02
RMM:   7    -0.232730421114E+04    0.62712E-05   -0.39928E-05  3059   0.650E-03
  48 F= -.23482651E+04 E0= -.23482651E+04  d E =-.188154E-02  mag=     5.0000
       N       E                     dE             d eps       ncg     rms          rms(c)
DAV:   1    -0.232730120193E+04    0.30155E-02   -0.33478E-01  4528   0.579E-01    0.176E-01
RMM:   2    -0.232730585194E+04   -0.46500E-02   -0.46539E-02  6225   0.125E-01    0.200E-01
RMM:   3    -0.232730580782E+04    0.44116E-04   -0.36893E-03  5033   0.424E-02    0.135E-01
RMM:   4    -0.232730565722E+04    0.15060E-03   -0.42952E-04  3440   0.102E-02    0.566E-02
RMM:   5    -0.232730564157E+04    0.15654E-04   -0.66598E-05  3032   0.611E-03    0.505E-02
RMM:   6    -0.232730561345E+04    0.28122E-04   -0.50577E-05  3129   0.601E-03    0.201E-02
RMM:   7    -0.232730561183E+04    0.16141E-05   -0.23428E-05  2968   0.532E-03
  49 F= -.23482663E+04 E0= -.23482663E+04  d E =-.120036E-02  mag=     5.0000
       N       E                     dE             d eps       ncg     rms          rms(c)
DAV:   1    -0.232729737583E+04    0.82376E-02   -0.68359E-01  4496   0.826E-01    0.251E-01
RMM:   2    -0.232730686323E+04   -0.94874E-02   -0.94923E-02  6111   0.178E-01    0.286E-01
RMM:   3    -0.232730676466E+04    0.98572E-04   -0.76680E-03  5396   0.619E-02    0.189E-01
RMM:   4    -0.232730647262E+04    0.29203E-03   -0.89586E-04  4515   0.140E-02    0.816E-02
RMM:   5    -0.232730643810E+04    0.34526E-04   -0.13038E-04  3127   0.785E-03    0.713E-02
RMM:   6    -0.232730638100E+04    0.57102E-04   -0.10013E-04  3840   0.801E-03    0.292E-02
RMM:   7    -0.232730637641E+04    0.45873E-05   -0.46243E-05  3048   0.710E-03
  50 F= -.23482668E+04 E0= -.23482668E+04  d E =-.167841E-02  mag=     5.0000
       N       E                     dE             d eps       ncg     rms          rms(c)
DAV:   1    -0.232730145658E+04    0.49244E-02   -0.48469E-01  4480   0.685E-01    0.212E-01
RMM:   2    -0.232730816971E+04   -0.67131E-02   -0.66817E-02  6059   0.151E-01    0.266E-01
RMM:   3    -0.232730796299E+04    0.20673E-03   -0.50270E-03  5200   0.514E-02    0.151E-01
RMM:   4    -0.232730778819E+04    0.17479E-03   -0.60342E-04  3911   0.117E-02    0.743E-02
RMM:   5    -0.232730775744E+04    0.30755E-04   -0.99641E-05  3072   0.704E-03    0.606E-02
RMM:   6    -0.232730771747E+04    0.39971E-04   -0.80969E-05  3682   0.731E-03    0.256E-02
RMM:   7    -0.232730771430E+04    0.31687E-05   -0.29305E-05  2973   0.612E-03
  51 F= -.23482682E+04 E0= -.23482682E+04  d E =-.135976E-02  mag=     5.0000
       N       E                     dE             d eps       ncg     rms          rms(c)
DAV:   1    -0.232730253830E+04    0.51792E-02   -0.42584E-01  4480   0.642E-01    0.199E-01
RMM:   2    -0.232730843513E+04   -0.58968E-02   -0.58706E-02  6019   0.141E-01    0.249E-01
RMM:   3    -0.232730825473E+04    0.18040E-03   -0.44753E-03  5110   0.490E-02    0.140E-01
RMM:   4    -0.232730810582E+04    0.14891E-03   -0.54273E-04  3753   0.110E-02    0.709E-02
RMM:   5    -0.232730807617E+04    0.29658E-04   -0.87905E-05  3053   0.669E-03    0.560E-02
RMM:   6    -0.232730804086E+04    0.35308E-04   -0.71839E-05  3561   0.693E-03    0.243E-02
RMM:   7    -0.232730803761E+04    0.32507E-05   -0.26098E-05  2966   0.580E-03
  52 F= -.23482685E+04 E0= -.23482685E+04  d E =-.170326E-02  mag=     5.0000
       N       E                     dE             d eps       ncg     rms          rms(c)
DAV:   1    -0.232730398316E+04    0.40577E-02   -0.57114E-01  4480   0.725E-01    0.212E-01
RMM:   2    -0.232730979877E+04   -0.58156E-02   -0.58390E-02  6021   0.148E-01    0.228E-01
RMM:   3    -0.232730969888E+04    0.99887E-04   -0.45609E-03  5151   0.529E-02    0.159E-01
RMM:   4    -0.232730948824E+04    0.21065E-03   -0.54067E-04  4128   0.122E-02    0.724E-02
RMM:   5    -0.232730946579E+04    0.22448E-04   -0.10765E-04  3094   0.751E-03    0.657E-02
RMM:   6    -0.232730941933E+04    0.46460E-04   -0.85085E-05  3752   0.757E-03    0.236E-02
RMM:   7    -0.232730941660E+04    0.27290E-05   -0.31414E-05  2992   0.634E-03
  53 F= -.23482699E+04 E0= -.23482699E+04  d E =-.133122E-02  mag=     5.0000
       N       E                     dE             d eps       ncg     rms          rms(c)
DAV:   1    -0.232730633483E+04    0.30845E-02   -0.35058E-01  4480   0.568E-01    0.166E-01
RMM:   2    -0.232730990666E+04   -0.35718E-02   -0.35892E-02  6043   0.117E-01    0.177E-01
RMM:   3    -0.232730985450E+04    0.52159E-04   -0.27987E-03  4918   0.418E-02    0.126E-01
RMM:   4    -0.232730972120E+04    0.13330E-03   -0.32916E-04  3432   0.981E-03    0.567E-02
RMM:   5    -0.232730970741E+04    0.13785E-04   -0.67242E-05  3042   0.625E-03    0.516E-02
RMM:   6    -0.232730967791E+04    0.29501E-04   -0.52796E-05  3220   0.616E-03    0.184E-02
RMM:   7    -0.232730967586E+04    0.20533E-05   -0.20601E-05  2963   0.522E-03
  54 F= -.23482701E+04 E0= -.23482701E+04  d E =-.155304E-02  mag=     5.0000
       N       E                     dE             d eps       ncg     rms          rms(c)
DAV:   1    -0.232730637043E+04    0.33075E-02   -0.62552E-01  4480   0.743E-01    0.197E-01
RMM:   2    -0.232731136742E+04   -0.49970E-02   -0.50529E-02  6033   0.143E-01    0.187E-01
RMM:   3    -0.232731143720E+04   -0.69782E-04   -0.40962E-03  5114   0.519E-02    0.158E-01
RMM:   4    -0.232731122379E+04    0.21341E-03   -0.46580E-04  3911   0.120E-02    0.665E-02
RMM:   5    -0.232731120939E+04    0.14399E-04   -0.10158E-04  3101   0.724E-03    0.645E-02
RMM:   6    -0.232731116635E+04    0.43039E-04   -0.81765E-05  3495   0.742E-03    0.208E-02
RMM:   7    -0.232731116576E+04    0.58631E-06   -0.26697E-05  2983   0.588E-03
  55 F= -.23482714E+04 E0= -.23482714E+04  d E =-.131058E-02  mag=     5.0000
       N       E                     dE             d eps       ncg     rms          rms(c)
DAV:   1    -0.232730130207E+04    0.98643E-02   -0.13907E+00  4472   0.111E+00    0.294E-01
RMM:   2    -0.232731241260E+04   -0.11111E-01   -0.11240E-01  5977   0.212E-01    0.278E-01
RMM:   3    -0.232731258390E+04   -0.17130E-03   -0.91371E-03  5295   0.786E-02    0.238E-01
RMM:   4    -0.232731210102E+04    0.48288E-03   -0.10439E-03  5062   0.176E-02    0.982E-02
RMM:   5    -0.232731207159E+04    0.29425E-04   -0.22461E-04  3382   0.985E-03    0.975E-02
RMM:   6    -0.232731197372E+04    0.97867E-04   -0.17567E-04  4139   0.104E-02    0.312E-02
RMM:   7    -0.232731197157E+04    0.21496E-05   -0.59097E-05  3145   0.814E-03
  56 F= -.23482719E+04 E0= -.23482719E+04  d E =-.185073E-02  mag=     5.0000
       N       E                     dE             d eps       ncg     rms          rms(c)
DAV:   1    -0.232730927876E+04    0.26950E-02   -0.48710E-01  4496   0.677E-01    0.177E-01
RMM:   2    -0.232731336558E+04   -0.40868E-02   -0.41245E-02  5986   0.130E-01    0.177E-01
RMM:   3    -0.232731338371E+04   -0.18135E-04   -0.32304E-03  5037   0.482E-02    0.144E-01
RMM:   4    -0.232731320621E+04    0.17750E-03   -0.37248E-04  3611   0.109E-02    0.626E-02
RMM:   5    -0.232731318999E+04    0.16224E-04   -0.83499E-05  3063   0.664E-03    0.570E-02
RMM:   6    -0.232731315581E+04    0.34175E-04   -0.65020E-05  3321   0.674E-03    0.188E-02
RMM:   7    -0.232731315488E+04    0.93854E-06   -0.23546E-05  2982   0.549E-03
  57 F= -.23482730E+04 E0= -.23482730E+04  d E =-.106472E-02  mag=     5.0000
       N       E                     dE             d eps       ncg     rms          rms(c)
DAV:   1    -0.232730704624E+04    0.61096E-02   -0.84280E-01  4472   0.890E-01    0.231E-01
RMM:   2    -0.232731410379E+04   -0.70576E-02   -0.71087E-02  5994   0.170E-01    0.235E-01
RMM:   3    -0.232731412867E+04   -0.24873E-04   -0.55956E-03  5190   0.636E-02    0.188E-01
RMM:   4    -0.232731382716E+04    0.30151E-03   -0.64556E-04  4420   0.141E-02    0.823E-02
RMM:   5    -0.232731379828E+04    0.28873E-04   -0.14231E-04  3154   0.815E-03    0.750E-02
RMM:   6    -0.232731373801E+04    0.60273E-04   -0.11273E-04  3868   0.864E-03    0.248E-02
RMM:   7    -0.232731373580E+04    0.22080E-05   -0.39927E-05  3058   0.694E-03
  58 F= -.23482734E+04 E0= -.23482734E+04  d E =-.149087E-02  mag=     5.0000
       N       E                     dE             d eps       ncg     rms          rms(c)
DAV:   1    -0.232731279017E+04    0.94784E-03   -0.24163E-01  4544   0.496E-01    0.136E-01
RMM:   2    -0.232731484096E+04   -0.20508E-02   -0.20553E-02  5973   0.966E-02    0.142E-01
RMM:   3    -0.232731480433E+04    0.36628E-04   -0.15845E-03  4636   0.354E-02    0.111E-01
RMM:   4    -0.232731469308E+04    0.11125E-03   -0.19562E-04  3354   0.893E-03    0.457E-02
RMM:   5    -0.232731468506E+04    0.80196E-05   -0.52604E-05  3013   0.583E-03
  59 F= -.23482744E+04 E0= -.23482744E+04  d E =-.966248E-03  mag=     5.0000
       N       E                     dE             d eps       ncg     rms          rms(c)
DAV:   1    -0.232731222851E+04    0.24646E-02   -0.35837E-01  4488   0.604E-01    0.162E-01
RMM:   2    -0.232731517370E+04   -0.29452E-02   -0.29979E-02  5963   0.116E-01    0.158E-01
RMM:   3    -0.232731518590E+04   -0.12197E-04   -0.22474E-03  4898   0.415E-02    0.135E-01
RMM:   4    -0.232731501311E+04    0.17279E-03   -0.28326E-04  3849   0.105E-02    0.522E-02
RMM:   5    -0.232731501441E+04   -0.13005E-05   -0.92302E-05  3118   0.741E-03
  60 F= -.23482747E+04 E0= -.23482747E+04  d E =-.131684E-02  mag=     5.0000
       N       E                     dE             d eps       ncg     rms          rms(c)
DAV:   1    -0.232731377788E+04    0.12352E-02   -0.31199E-01  4512   0.556E-01    0.147E-01
RMM:   2    -0.232731600062E+04   -0.22227E-02   -0.23000E-02  5949   0.103E-01    0.131E-01
RMM:   3    -0.232731601465E+04   -0.14035E-04   -0.17513E-03  4699   0.371E-02    0.122E-01
RMM:   4    -0.232731587529E+04    0.13936E-03   -0.21577E-04  3422   0.956E-03    0.461E-02
RMM:   5    -0.232731588136E+04   -0.60746E-05   -0.73881E-05  3076   0.689E-03
  61 F= -.23482757E+04 E0= -.23482757E+04  d E =-.953515E-03  mag=     5.0000
       N       E                     dE             d eps       ncg     rms          rms(c)
DAV:   1    -0.232731299404E+04    0.28812E-02   -0.45056E-01  4488   0.668E-01    0.177E-01
RMM:   2    -0.232731621142E+04   -0.32174E-02   -0.33235E-02  5925   0.125E-01    0.161E-01
RMM:   3    -0.232731621160E+04   -0.17833E-06   -0.25371E-03  4930   0.459E-02    0.143E-01
RMM:   4    -0.232731602249E+04    0.18910E-03   -0.31310E-04  3943   0.112E-02    0.565E-02
RMM:   5    -0.232731602851E+04   -0.60219E-05   -0.10278E-04  3123   0.787E-03    0.696E-02
RMM:   6    -0.232731598186E+04    0.46656E-04   -0.85641E-05  3696   0.775E-03    0.174E-02
RMM:   7    -0.232731598185E+04    0.10943E-07   -0.17487E-05  2948   0.561E-03
  62 F= -.23482759E+04 E0= -.23482759E+04  d E =-.115849E-02  mag=     5.0000
       N       E                     dE             d eps       ncg     rms          rms(c)
DAV:   1    -0.232731470071E+04    0.12811E-02   -0.36999E-01  4488   0.586E-01    0.152E-01
RMM:   2    -0.232731695799E+04   -0.22573E-02   -0.23150E-02  5851   0.107E-01    0.137E-01
RMM:   3    -0.232731694100E+04    0.16998E-04   -0.17623E-03  4742   0.388E-02    0.117E-01
RMM:   4    -0.232731682490E+04    0.11609E-03   -0.21993E-04  3476   0.963E-03    0.538E-02
RMM:   5    -0.232731682090E+04    0.39982E-05   -0.67757E-05  3031   0.657E-03
  63 F= -.23482767E+04 E0= -.23482767E+04  d E =-.794995E-03  mag=     5.0000
       N       E                     dE             d eps       ncg     rms          rms(c)
DAV:   1    -0.232731548899E+04    0.13359E-02   -0.25879E-01  4512   0.489E-01    0.126E-01
RMM:   2    -0.232731702104E+04   -0.15321E-02   -0.16061E-02  5920   0.885E-02    0.993E-02
RMM:   3    -0.232731703831E+04   -0.17270E-04   -0.12511E-03  4494   0.318E-02    0.955E-02
RMM:   4    -0.232731695832E+04    0.79995E-04   -0.14533E-04  3194   0.843E-03    0.404E-02
RMM:   5    -0.232731696804E+04   -0.97255E-05   -0.70480E-05  3087   0.722E-03
  64 F= -.23482768E+04 E0= -.23482768E+04  d E =-.905529E-03  mag=     5.0000
       N       E                     dE             d eps       ncg     rms          rms(c)
DAV:   1    -0.232731581253E+04    0.11458E-02   -0.38616E-01  4472   0.589E-01    0.162E-01
RMM:   2    -0.232731803960E+04   -0.22271E-02   -0.22996E-02  5994   0.109E-01    0.129E-01
RMM:   3    -0.232731806992E+04   -0.30319E-04   -0.17118E-03  4926   0.411E-02    0.133E-01
RMM:   4    -0.232731791482E+04    0.15510E-03   -0.23777E-04  3732   0.105E-02    0.504E-02
RMM:   5    -0.232731792481E+04   -0.99926E-05   -0.94074E-05  3097   0.777E-03
  65 F= -.23482776E+04 E0= -.23482776E+04  d E =-.810954E-03  mag=     5.0000
       N       E                     dE             d eps       ncg     rms          rms(c)
DAV:   1    -0.232731754332E+04    0.37150E-03   -0.81043E-02  4680   0.270E-01    0.753E-02
RMM:   2    -0.232731801147E+04   -0.46815E-03   -0.48938E-03  6174   0.509E-02    0.580E-02
RMM:   3    -0.232731802148E+04   -0.10007E-04   -0.35669E-04  3672   0.169E-02    0.638E-02
RMM:   4    -0.232731798560E+04    0.35876E-04   -0.52239E-05  3009   0.592E-03    0.242E-02
RMM:   5    -0.232731799011E+04   -0.45035E-05   -0.27701E-05  2961   0.450E-03
  66 F= -.23482776E+04 E0= -.23482776E+04  d E =-.809013E-03  mag=     5.0000
       N       E                     dE             d eps       ncg     rms          rms(c)
DAV:   1    -0.232731709540E+04    0.89020E-03   -0.36075E-01  4472   0.545E-01    0.148E-01
RMM:   2    -0.232731893952E+04   -0.18441E-02   -0.19121E-02  5873   0.968E-02    0.120E-01
RMM:   3    -0.232731893950E+04    0.18714E-07   -0.14415E-03  4734   0.360E-02    0.115E-01
RMM:   4    -0.232731882980E+04    0.10970E-03   -0.19257E-04  3361   0.929E-03    0.467E-02
RMM:   5    -0.232731884061E+04   -0.10813E-04   -0.76292E-05  3058   0.690E-03    0.619E-02
RMM:   6    -0.232731880380E+04    0.36811E-04   -0.50453E-05  3090   0.627E-03    0.131E-02
RMM:   7    -0.232731880372E+04    0.82844E-07   -0.11990E-05  2914   0.485E-03
  67 F= -.23482784E+04 E0= -.23482784E+04  d E =-.755245E-03  mag=     5.0000
       N       E                     dE             d eps       ncg     rms          rms(c)
DAV:   1    -0.232731797128E+04    0.83252E-03   -0.20807E-01  4512   0.414E-01    0.113E-01
RMM:   2    -0.232731905160E+04   -0.10803E-02   -0.11149E-02  5886   0.740E-02    0.943E-02
RMM:   3    -0.232731904973E+04    0.18680E-05   -0.81496E-04  4223   0.286E-02    0.911E-02
RMM:   4    -0.232731898121E+04    0.68521E-04   -0.11326E-04  3102   0.769E-03    0.383E-02
RMM:   5    -0.232731898144E+04   -0.23458E-06   -0.40994E-05  2996   0.535E-03
  68 F= -.23482785E+04 E0= -.23482785E+04  d E =-.888858E-03  mag=     5.0000
       N       E                     dE             d eps       ncg     rms          rms(c)
DAV:   1    -0.232731792448E+04    0.10567E-02   -0.39088E-01  4472   0.556E-01    0.153E-01
RMM:   2    -0.232731985401E+04   -0.19295E-02   -0.20117E-02  5898   0.982E-02    0.129E-01
RMM:   3    -0.232731983924E+04    0.14773E-04   -0.16162E-03  4802   0.360E-02    0.111E-01
RMM:   4    -0.232731972788E+04    0.11136E-03   -0.18970E-04  3369   0.923E-03    0.445E-02
RMM:   5    -0.232731973959E+04   -0.11708E-04   -0.82401E-05  3302   0.744E-03    0.598E-02
RMM:   6    -0.232731971116E+04    0.28433E-04   -0.52740E-05  2980   0.675E-03    0.227E-02
RMM:   7    -0.232731970798E+04    0.31799E-05   -0.15671E-05  2953   0.429E-03
  69 F= -.23482793E+04 E0= -.23482793E+04  d E =-.791301E-03  mag=     5.0000
       N       E                     dE             d eps       ncg     rms          rms(c)
DAV:   1    -0.232731903786E+04    0.67330E-03   -0.15844E-01  4496   0.354E-01    0.986E-02
RMM:   2    -0.232731983951E+04   -0.80165E-03   -0.83110E-03  5995   0.634E-02    0.853E-02
RMM:   3    -0.232731982208E+04    0.17434E-04   -0.61404E-04  3969   0.230E-02    0.708E-02
RMM:   4    -0.232731977712E+04    0.44962E-04   -0.72960E-05  3035   0.659E-03    0.263E-02
RMM:   5    -0.232731977080E+04    0.63148E-05   -0.29977E-05  2996   0.503E-03
  70 F= -.23482794E+04 E0= -.23482794E+04  d E =-.895441E-03  mag=     5.0000
       N       E                     dE             d eps       ncg     rms          rms(c)
DAV:   1    -0.232731768690E+04    0.20902E-02   -0.49774E-01  4472   0.626E-01    0.186E-01
RMM:   2    -0.232732077568E+04   -0.30888E-02   -0.31197E-02  5935   0.117E-01    0.192E-01
RMM:   3    -0.232732063467E+04    0.14100E-03   -0.23504E-03  4963   0.431E-02    0.142E-01
RMM:   4    -0.232732048135E+04    0.15332E-03   -0.32497E-04  3803   0.111E-02    0.692E-02
RMM:   5    -0.232732046770E+04    0.13645E-04   -0.10586E-04  3084   0.757E-03    0.658E-02
RMM:   6    -0.232732042947E+04    0.38234E-04   -0.82995E-05  3774   0.763E-03    0.176E-02
RMM:   7    -0.232732042912E+04    0.34949E-06   -0.20283E-05  2969   0.571E-03
  71 F= -.23482802E+04 E0= -.23482802E+04  d E =-.773167E-03  mag=     5.0000
       N       E                     dE             d eps       ncg     rms          rms(c)
DAV:   1    -0.232731990575E+04    0.52372E-03   -0.90900E-02  4576   0.268E-01    0.799E-02
RMM:   2    -0.232732046134E+04   -0.55559E-03   -0.57346E-03  5883   0.506E-02    0.724E-02
RMM:   3    -0.232732044624E+04    0.15099E-04   -0.41642E-04  3763   0.185E-02    0.565E-02
RMM:   4    -0.232732041915E+04    0.27085E-04   -0.53840E-05  3008   0.540E-03    0.212E-02
RMM:   5    -0.232732042318E+04   -0.40304E-05   -0.19304E-05  2962   0.403E-03
  72 F= -.23482802E+04 E0= -.23482802E+04  d E =-.816361E-03  mag=     5.0000
       N       E                     dE             d eps       ncg     rms          rms(c)
DAV:   1    -0.232731686054E+04    0.35586E-02   -0.52588E-01  4472   0.654E-01    0.205E-01
RMM:   2    -0.232732140402E+04   -0.45435E-02   -0.46041E-02  5961   0.135E-01    0.221E-01
RMM:   3    -0.232732121138E+04    0.19264E-03   -0.32430E-03  5156   0.450E-02    0.146E-01
RMM:   4    -0.232732104396E+04    0.16743E-03   -0.43611E-04  4047   0.115E-02    0.707E-02
RMM:   5    -0.232732104143E+04    0.25318E-05   -0.12304E-04  3088   0.784E-03    0.762E-02
RMM:   6    -0.232732098853E+04    0.52900E-04   -0.86504E-05  3753   0.773E-03    0.184E-02
RMM:   7    -0.232732098808E+04    0.44949E-06   -0.22351E-05  2940   0.597E-03
  73 F= -.23482809E+04 E0= -.23482809E+04  d E =-.644474E-03  mag=     5.0000
       N       E                     dE             d eps       ncg     rms          rms(c)
DAV:   1    -0.232732080285E+04    0.18568E-03   -0.20488E-02  4864   0.129E-01    0.419E-02
RMM:   2    -0.232732098359E+04   -0.18075E-03   -0.18331E-03  5924   0.278E-02    0.452E-02
RMM:   3    -0.232732097582E+04    0.77714E-05   -0.12866E-04  3028   0.971E-03    0.313E-02
RMM:   4    -0.232732096901E+04    0.68110E-05   -0.19362E-05  2965   0.331E-03
  74 F= -.23482809E+04 E0= -.23482809E+04  d E =-.641267E-03  mag=     5.0000
       N       E                     dE             d eps       ncg     rms          rms(c)
DAV:   1    -0.232731781969E+04    0.31561E-02   -0.52761E-01  4464   0.659E-01    0.209E-01
RMM:   2    -0.232732221516E+04   -0.43955E-02   -0.44449E-02  5899   0.133E-01    0.211E-01
RMM:   3    -0.232732205072E+04    0.16445E-03   -0.33724E-03  5063   0.436E-02    0.154E-01
RMM:   4    -0.232732187498E+04    0.17574E-03   -0.44694E-04  4167   0.117E-02    0.786E-02
RMM:   5    -0.232732185061E+04    0.24369E-04   -0.12335E-04  3099   0.757E-03    0.698E-02
RMM:   6    -0.232732180396E+04    0.46649E-04   -0.89653E-05  3751   0.785E-03    0.176E-02
RMM:   7    -0.232732180369E+04    0.26703E-06   -0.22899E-05  2959   0.602E-03
  75 F= -.23482816E+04 E0= -.23482816E+04  d E =-.782396E-03  mag=     5.0000
       N       E                     dE             d eps       ncg     rms          rms(c)
DAV:   1    -0.232732131351E+04    0.49045E-03   -0.67766E-02  4528   0.236E-01    0.762E-02
RMM:   2    -0.232732188011E+04   -0.56660E-03   -0.57783E-03  6080   0.492E-02    0.741E-02
RMM:   3    -0.232732186168E+04    0.18427E-04   -0.42717E-04  3542   0.169E-02    0.543E-02
RMM:   4    -0.232732183929E+04    0.22384E-04   -0.56280E-05  3043   0.528E-03    0.250E-02
RMM:   5    -0.232732183877E+04    0.52186E-06   -0.17167E-05  2920   0.333E-03
  76 F= -.23482817E+04 E0= -.23482817E+04  d E =-.798833E-03  mag=     5.0000
       N       E                     dE             d eps       ncg     rms          rms(c)
DAV:   1    -0.232731909518E+04    0.27441E-02   -0.52056E-01  4464   0.637E-01    0.199E-01
RMM:   2    -0.232732285253E+04   -0.37573E-02   -0.38552E-02  5967   0.126E-01    0.174E-01
RMM:   3    -0.232732279870E+04    0.53829E-04   -0.29867E-03  5140   0.398E-02    0.140E-01
RMM:   4    -0.232732261665E+04    0.18205E-03   -0.34509E-04  3910   0.107E-02    0.494E-02
RMM:   5    -0.232732262206E+04   -0.54063E-05   -0.10107E-04  3374   0.821E-03    0.626E-02
RMM:   6    -0.232732259376E+04    0.28299E-04   -0.67808E-05  3031   0.674E-03    0.318E-02
RMM:   7    -0.232732258553E+04    0.82238E-05   -0.20080E-05  2940   0.504E-03
  77 F= -.23482824E+04 E0= -.23482824E+04  d E =-.702224E-03  mag=     5.0000
       N       E                     dE             d eps       ncg     rms          rms(c)
DAV:   1    -0.232732199818E+04    0.59558E-03   -0.91871E-02  4544   0.268E-01    0.852E-02
RMM:   2    -0.232732267345E+04   -0.67526E-03   -0.69139E-03  6220   0.548E-02    0.761E-02
RMM:   3    -0.232732265788E+04    0.15565E-04   -0.51060E-04  3611   0.172E-02    0.599E-02
RMM:   4    -0.232732262666E+04    0.31216E-04   -0.62884E-05  3048   0.576E-03    0.213E-02
RMM:   5    -0.232732262941E+04   -0.27424E-05   -0.18360E-05  2951   0.394E-03
  78 F= -.23482824E+04 E0= -.23482824E+04  d E =-.727465E-03  mag=     5.0000
       N       E                     dE             d eps       ncg     rms          rms(c)
DAV:   1    -0.232731923700E+04    0.33897E-02   -0.53655E-01  4496   0.644E-01    0.206E-01
RMM:   2    -0.232732336197E+04   -0.41250E-02   -0.42480E-02  5972   0.131E-01    0.178E-01
RMM:   3    -0.232732329252E+04    0.69452E-04   -0.32435E-03  5237   0.420E-02    0.142E-01
RMM:   4    -0.232732311491E+04    0.17760E-03   -0.39862E-04  3895   0.111E-02    0.509E-02
RMM:   5    -0.232732309991E+04    0.15005E-04   -0.96124E-05  3490   0.830E-03    0.413E-02
RMM:   6    -0.232732310692E+04   -0.70088E-05   -0.59505E-05  3028   0.648E-03
  79 F= -.23482830E+04 E0= -.23482830E+04  d E =-.631799E-03  mag=     5.0000
       N       E                     dE             d eps       ncg     rms          rms(c)
DAV:   1    -0.232732272531E+04    0.37460E-03   -0.42826E-02  4784   0.182E-01    0.602E-02
RMM:   2    -0.232732304260E+04   -0.31730E-03   -0.33028E-03  6187   0.377E-02    0.485E-02
RMM:   3    -0.232732305296E+04   -0.10357E-04   -0.29708E-04  3082   0.130E-02    0.431E-02
RMM:   4    -0.232732303997E+04    0.12987E-04   -0.38156E-05  3034   0.453E-03    0.186E-02
RMM:   5    -0.232732304032E+04   -0.34035E-06   -0.96165E-06  2905   0.253E-03
  80 F= -.23482830E+04 E0= -.23482830E+04  d E =-.609126E-03  mag=     5.0000
       N       E                     dE             d eps       ncg     rms          rms(c)
DAV:   1    -0.232731911153E+04    0.39284E-02   -0.56050E-01  4480   0.650E-01    0.211E-01
RMM:   2    -0.232732368873E+04   -0.45772E-02   -0.46858E-02  5954   0.135E-01    0.193E-01
RMM:   3    -0.232732368614E+04    0.25841E-05   -0.32849E-03  5195   0.406E-02    0.148E-01
RMM:   4    -0.232732350313E+04    0.18301E-03   -0.44675E-04  4033   0.113E-02    0.567E-02
RMM:   5    -0.232732353617E+04   -0.33035E-04   -0.12053E-04  3156   0.814E-03    0.850E-02
RMM:   6    -0.232732347127E+04    0.64897E-04   -0.85919E-05  3113   0.721E-03    0.225E-02
RMM:   7    -0.232732346962E+04    0.16466E-05   -0.24707E-05  2970   0.554E-03
  81 F= -.23482836E+04 E0= -.23482836E+04  d E =-.652517E-03  mag=     5.0000
       N       E                     dE             d eps       ncg     rms          rms(c)
DAV:   1    -0.232732282174E+04    0.64953E-03   -0.72329E-02  4560   0.234E-01    0.771E-02
RMM:   2    -0.232732341785E+04   -0.59611E-03   -0.61342E-03  6194   0.502E-02    0.669E-02
RMM:   3    -0.232732342009E+04   -0.22356E-05   -0.43943E-04  3467   0.158E-02    0.558E-02
RMM:   4    -0.232732339582E+04    0.24263E-04   -0.61405E-05  3037   0.544E-03    0.222E-02
RMM:   5    -0.232732339850E+04   -0.26815E-05   -0.16179E-05  2943   0.336E-03
  82 F= -.23482837E+04 E0= -.23482837E+04  d E =-.661811E-03  mag=     5.0000
       N       E                     dE             d eps       ncg     rms          rms(c)
DAV:   1    -0.232731932854E+04    0.40673E-02   -0.62612E-01  4472   0.676E-01    0.218E-01
RMM:   2    -0.232732414110E+04   -0.48126E-02   -0.49201E-02  5961   0.139E-01    0.199E-01
RMM:   3    -0.232732407574E+04    0.65368E-04   -0.33206E-03  5270   0.403E-02    0.153E-01
RMM:   4    -0.232732386025E+04    0.21549E-03   -0.42874E-04  4138   0.115E-02    0.532E-02
RMM:   5    -0.232732383544E+04    0.24814E-04   -0.11323E-04  3770   0.863E-03    0.318E-02
RMM:   6    -0.232732384106E+04   -0.56209E-05   -0.54534E-05  3033   0.674E-03
  83 F= -.23482842E+04 E0= -.23482842E+04  d E =-.578440E-03  mag=     5.0000
       N       E                     dE             d eps       ncg     rms          rms(c)
DAV:   1    -0.232732370214E+04    0.13329E-03   -0.12849E-02  5104   0.968E-02    0.360E-02
RMM:   2    -0.232732381029E+04   -0.10815E-03   -0.10133E-03  5712   0.218E-02    0.468E-02
RMM:   3    -0.232732380170E+04    0.85917E-05   -0.11466E-04  2975   0.850E-03    0.276E-02
RMM:   4    -0.232732379698E+04    0.47245E-05   -0.14427E-05  2954   0.308E-03
  84 F= -.23482842E+04 E0= -.23482842E+04  d E =-.553946E-03  mag=     5.0000
       N       E                     dE             d eps       ncg     rms          rms(c)
DAV:   1    -0.232731996015E+04    0.38416E-02   -0.63373E-01  4480   0.680E-01    0.223E-01
RMM:   2    -0.232732483021E+04   -0.48701E-02   -0.49334E-02  5930   0.139E-01    0.222E-01
RMM:   3    -0.232732454903E+04    0.28117E-03   -0.32858E-03  5295   0.417E-02    0.156E-01
RMM:   4    -0.232732434360E+04    0.20544E-03   -0.45418E-04  4102   0.117E-02    0.612E-02
RMM:   5    -0.232732437451E+04   -0.30909E-04   -0.14976E-04  3330   0.880E-03    0.878E-02
RMM:   6    -0.232732430918E+04    0.65327E-04   -0.91108E-05  3139   0.802E-03    0.317E-02
RMM:   7    -0.232732430348E+04    0.56985E-05   -0.35547E-05  2995   0.574E-03
  85 F= -.23482847E+04 E0= -.23482847E+04  d E =-.541243E-03  mag=     5.0000
       N       E                     dE             d eps       ncg     rms          rms(c)
DAV:   1    -0.232732423291E+04    0.76271E-04   -0.77337E-03  5184   0.752E-02    0.265E-02
RMM:   2    -0.232732429142E+04   -0.58514E-04   -0.60576E-04  5191   0.169E-02    0.235E-02
RMM:   3    -0.232732429077E+04    0.65863E-06   -0.50417E-05  2950   0.649E-03
  86 F= -.23482847E+04 E0= -.23482847E+04  d E =-.532422E-03  mag=     5.0000
       N       E                     dE             d eps       ncg     rms          rms(c)
DAV:   1    -0.232732019836E+04    0.40931E-02   -0.59589E-01  4488   0.671E-01    0.228E-01
RMM:   2    -0.232732530443E+04   -0.51061E-02   -0.51828E-02  5973   0.142E-01    0.228E-01
RMM:   3    -0.232732516102E+04    0.14341E-03   -0.33612E-03  5299   0.407E-02    0.155E-01
RMM:   4    -0.232732495777E+04    0.20325E-03   -0.47038E-04  4183   0.116E-02    0.552E-02
RMM:   5    -0.232732492813E+04    0.29634E-04   -0.10970E-04  3816   0.865E-03    0.307E-02
RMM:   6    -0.232732492839E+04   -0.25671E-06   -0.53375E-05  3047   0.693E-03
  87 F= -.23482854E+04 E0= -.23482854E+04  d E =-.663324E-03  mag=     5.0000
       N       E                     dE             d eps       ncg     rms          rms(c)
DAV:   1    -0.232732452461E+04    0.40352E-03   -0.47119E-02  4696   0.189E-01    0.690E-02
RMM:   2    -0.232732496321E+04   -0.43860E-03   -0.41749E-03  6251   0.418E-02    0.856E-02
RMM:   3    -0.232732492944E+04    0.33768E-04   -0.36350E-04  3247   0.131E-02    0.520E-02
RMM:   4    -0.232732490818E+04    0.21261E-04   -0.47861E-05  3004   0.511E-03    0.263E-02
RMM:   5    -0.232732490422E+04    0.39662E-05   -0.13449E-05  2933   0.286E-03
  88 F= -.23482854E+04 E0= -.23482854E+04  d E =-.646503E-03  mag=     5.0000
       N       E                     dE             d eps       ncg     rms          rms(c)
DAV:   1    -0.232732083459E+04    0.40736E-02   -0.50239E-01  4472   0.619E-01    0.211E-01
RMM:   2    -0.232732567326E+04   -0.48387E-02   -0.49454E-02  5958   0.135E-01    0.202E-01
RMM:   3    -0.232732564541E+04    0.27851E-04   -0.31928E-03  5149   0.397E-02    0.153E-01
RMM:   4    -0.232732546481E+04    0.18060E-03   -0.44223E-04  3783   0.112E-02    0.595E-02
RMM:   5    -0.232732550433E+04   -0.39519E-04   -0.12991E-04  3137   0.775E-03    0.920E-02
RMM:   6    -0.232732542911E+04    0.75223E-04   -0.92777E-05  3173   0.749E-03    0.179E-02
RMM:   7    -0.232732542985E+04   -0.74515E-06   -0.23885E-05  2959   0.539E-03
  89 F= -.23482860E+04 E0= -.23482860E+04  d E =-.596708E-03  mag=     5.0000
       N       E                     dE             d eps       ncg     rms          rms(c)
DAV:   1    -0.232732482508E+04    0.60402E-03   -0.63849E-02  4504   0.221E-01    0.760E-02
RMM:   2    -0.232732543915E+04   -0.61407E-03   -0.63084E-03  6177   0.495E-02    0.693E-02
RMM:   3    -0.232732544100E+04   -0.18510E-05   -0.41892E-04  3401   0.154E-02    0.547E-02
RMM:   4    -0.232732541893E+04    0.22075E-04   -0.58063E-05  3060   0.516E-03    0.192E-02
RMM:   5    -0.232732542425E+04   -0.53203E-05   -0.16608E-05  2943   0.331E-03
  90 F= -.23482860E+04 E0= -.23482860E+04  d E =-.616529E-03  mag=     5.0000
       N       E                     dE             d eps       ncg     rms          rms(c)
DAV:   1    -0.232732294071E+04    0.24782E-02   -0.32827E-01  4472   0.520E-01    0.184E-01
RMM:   2    -0.232732590451E+04   -0.29638E-02   -0.30908E-02  5969   0.114E-01    0.148E-01
RMM:   3    -0.232732593957E+04   -0.35061E-04   -0.20569E-03  4966   0.344E-02    0.135E-01
RMM:   4    -0.232732578410E+04    0.15547E-03   -0.30892E-04  3683   0.103E-02    0.460E-02
RMM:   5    -0.232732580216E+04   -0.18058E-04   -0.95683E-05  3320   0.787E-03    0.657E-02
RMM:   6    -0.232732576536E+04    0.36807E-04   -0.57116E-05  2998   0.644E-03    0.221E-02
RMM:   7    -0.232732576196E+04    0.33976E-05   -0.16570E-05  2942   0.442E-03
  91 F= -.23482865E+04 E0= -.23482865E+04  d E =-.493019E-03  mag=     5.0000
       N       E                     dE             d eps       ncg     rms          rms(c)
DAV:   1    -0.232732563465E+04    0.13070E-03   -0.96201E-03  5040   0.892E-02    0.324E-02
RMM:   2    -0.232732572145E+04   -0.86799E-04   -0.91227E-04  5689   0.211E-02    0.247E-02
RMM:   3    -0.232732572383E+04   -0.23802E-05   -0.72601E-05  2964   0.755E-03
  92 F= -.23482865E+04 E0= -.23482865E+04  d E =-.481577E-03  mag=     5.0000
       N       E                     dE             d eps       ncg     rms          rms(c)
DAV:   1    -0.232732335602E+04    0.23654E-02   -0.31947E-01  4480   0.487E-01    0.169E-01
RMM:   2    -0.232732612083E+04   -0.27648E-02   -0.28323E-02  5994   0.106E-01    0.151E-01
RMM:   3    -0.232732610698E+04    0.13855E-04   -0.19031E-03  4720   0.301E-02    0.120E-01
RMM:   4    -0.232732598161E+04    0.12537E-03   -0.26311E-04  3368   0.922E-03    0.456E-02
RMM:   5    -0.232732599820E+04   -0.16594E-04   -0.89715E-05  3086   0.702E-03    0.610E-02
RMM:   6    -0.232732596976E+04    0.28440E-04   -0.51529E-05  2992   0.649E-03    0.264E-02
RMM:   7    -0.232732596564E+04    0.41241E-05   -0.19442E-05  2958   0.430E-03
  93 F= -.23482869E+04 E0= -.23482869E+04  d E =-.432145E-03  mag=     5.0000
       N       E                     dE             d eps       ncg     rms          rms(c)
DAV:   1    -0.232732556374E+04    0.40602E-03   -0.41203E-02  4576   0.175E-01    0.613E-02
RMM:   2    -0.232732591359E+04   -0.34985E-03   -0.36197E-03  6186   0.387E-02    0.503E-02
RMM:   3    -0.232732591925E+04   -0.56538E-05   -0.24779E-04  3146   0.119E-02    0.442E-02
RMM:   4    -0.232732590236E+04    0.16890E-04   -0.34887E-05  2998   0.438E-03    0.153E-02
RMM:   5    -0.232732590155E+04    0.80610E-06   -0.98298E-06  2899   0.281E-03
  94 F= -.23482869E+04 E0= -.23482869E+04  d E =-.436595E-03  mag=     5.0000
       N       E                     dE             d eps       ncg     rms          rms(c)
DAV:   1    -0.232732376665E+04    0.21357E-02   -0.31053E-01  4480   0.497E-01    0.178E-01
RMM:   2    -0.232732634532E+04   -0.25787E-02   -0.26724E-02  5952   0.107E-01    0.143E-01
RMM:   3    -0.232732638043E+04   -0.35111E-04   -0.18076E-03  4886   0.316E-02    0.134E-01
RMM:   4    -0.232732622809E+04    0.15234E-03   -0.29370E-04  3690   0.101E-02    0.482E-02
RMM:   5    -0.232732624659E+04   -0.18502E-04   -0.85514E-05  3082   0.709E-03    0.711E-02
RMM:   6    -0.232732620035E+04    0.46242E-04   -0.70511E-05  3113   0.679E-03    0.171E-02
RMM:   7    -0.232732619905E+04    0.12959E-05   -0.21258E-05  2973   0.520E-03
  95 F= -.23482874E+04 E0= -.23482874E+04  d E =-.460760E-03  mag=     5.0000
       N       E                     dE             d eps       ncg     rms          rms(c)
DAV:   1    -0.232732619857E+04    0.17775E-05   -0.72074E-06  3472   0.418E-03    0.358E-03
RMM:   2    -0.232732619843E+04    0.14502E-06   -0.20169E-06  2472   0.221E-03
  96 F= -.23482874E+04 E0= -.23482874E+04  d E =-.459812E-03  mag=     5.0000
[...]
RMM:   8    -0.232743787534E+04    0.17132E-04   -0.21861E-05  2981   0.479E-03    0.968E-03
RMM:   9    -0.232743787379E+04    0.15540E-05   -0.43868E-06  2889   0.236E-03
 175 F= -.23484383E+04 E0= -.23484383E+04  d E =-.554276E-02  mag=     5.0000
       N       E                     dE             d eps       ncg     rms          rms(c)
DAV:   1    -0.232737551292E+04    0.62362E-01   -0.72119E+00  4464   0.206E+00    0.688E-01
RMM:   2    -0.232744239481E+04   -0.66882E-01   -0.68878E-01  6364   0.493E-01    0.634E-01
RMM:   3    -0.232744320026E+04   -0.80545E-03   -0.60334E-02  5872   0.165E-01    0.483E-01
RMM:   4    -0.232744088181E+04    0.23184E-02   -0.65510E-03  5943   0.384E-02    0.208E-01
RMM:   5    -0.232744052821E+04    0.35360E-03   -0.11578E-03  5043   0.198E-02    0.141E-01
RMM:   6    -0.232744050995E+04    0.18270E-04   -0.90228E-04  4931   0.193E-02    0.139E-01
RMM:   7    -0.232744039337E+04    0.11658E-03   -0.29983E-04  3938   0.111E-02    0.765E-02
RMM:   8    -0.232744033333E+04    0.60039E-04   -0.58715E-05  3117   0.606E-03    0.163E-02
RMM:   9    -0.232744032771E+04    0.56197E-05   -0.12141E-05  2934   0.334E-03
 176 F= -.23484418E+04 E0= -.23484418E+04  d E =-.903480E-02  mag=     5.0000
       N       E                     dE             d eps       ncg     rms          rms(c)
DAV:   1    -0.232742742273E+04    0.12911E-01   -0.16447E+00  4512   0.105E+00    0.355E-01
RMM:   2    -0.232744500462E+04   -0.17582E-01   -0.17933E-01  6317   0.248E-01    0.332E-01
RMM:   3    -0.232744521306E+04   -0.20844E-03   -0.15529E-02  5909   0.791E-02    0.248E-01
RMM:   4    -0.232744457065E+04    0.64241E-03   -0.16761E-03  5333   0.203E-02    0.102E-01
RMM:   5    -0.232744443539E+04    0.13526E-03   -0.29628E-04  4503   0.121E-02    0.532E-02
RMM:   6    -0.232744445744E+04   -0.22050E-04   -0.17925E-04  3890   0.109E-02    0.678E-02
RMM:   7    -0.232744441660E+04    0.40836E-04   -0.52883E-05  3039   0.639E-03    0.210E-02
RMM:   8    -0.232744441281E+04    0.37988E-05   -0.10728E-05  2917   0.379E-03
 177 F= -.23484462E+04 E0= -.23484462E+04  d E =-.432826E-02  mag=     5.0000
       N       E                     dE             d eps       ncg     rms          rms(c)
DAV:   1    -0.232742073810E+04    0.23679E-01   -0.23590E+00  4464   0.127E+00    0.426E-01
RMM:   2    -0.232744598267E+04   -0.25245E-01   -0.25777E-01  6299   0.298E-01    0.397E-01
RMM:   3    -0.232744629686E+04   -0.31419E-03   -0.22421E-02  5941   0.952E-02    0.298E-01
RMM:   4    -0.232744535982E+04    0.93704E-03   -0.24056E-03  5629   0.244E-02    0.121E-01
RMM:   5    -0.232744516705E+04    0.19277E-03   -0.42371E-04  4698   0.143E-02    0.623E-02
RMM:   6    -0.232744518176E+04   -0.14714E-04   -0.23837E-04  4312   0.125E-02    0.696E-02
RMM:   7    -0.232744514068E+04    0.41078E-04   -0.64878E-05  3104   0.665E-03    0.273E-02
RMM:   8    -0.232744513422E+04    0.64610E-05   -0.13856E-05  2941   0.406E-03
 178 F= -.23484472E+04 E0= -.23484472E+04  d E =-.532760E-02  mag=     5.0000
       N       E                     dE             d eps       ncg     rms          rms(c)
DAV:   1    -0.232742970885E+04    0.15432E-01   -0.16466E+00  4496   0.104E+00    0.333E-01
RMM:   2    -0.232744775962E+04   -0.18051E-01   -0.18537E-01  6468   0.238E-01    0.292E-01
RMM:   3    -0.232744846937E+04   -0.70975E-03   -0.15952E-02  5917   0.755E-02    0.239E-01
RMM:   4    -0.232744794986E+04    0.51952E-03   -0.17673E-03  4692   0.189E-02    0.101E-01
RMM:   5    -0.232744788152E+04    0.68340E-04   -0.26937E-04  4007   0.104E-02    0.849E-02
RMM:   6    -0.232744786426E+04    0.17260E-04   -0.20861E-04  3528   0.969E-03    0.825E-02
RMM:   7    -0.232744781147E+04    0.52784E-04   -0.85702E-05  3220   0.742E-03    0.159E-02
RMM:   8    -0.232744780884E+04    0.26349E-05   -0.13676E-05  2933   0.466E-03
 179 F= -.23484502E+04 E0= -.23484502E+04  d E =-.301509E-02  mag=     5.0000
       N       E                     dE             d eps       ncg     rms          rms(c)
DAV:   1    -0.232740532009E+04    0.42491E-01   -0.39568E+00  4480   0.161E+00    0.515E-01
RMM:   2    -0.232744852595E+04   -0.43206E-01   -0.44471E-01  6461   0.369E-01    0.443E-01
RMM:   3    -0.232745040572E+04   -0.18798E-02   -0.38839E-02  6109   0.116E-01    0.374E-01
RMM:   4    -0.232744913370E+04    0.12720E-02   -0.42293E-03  5761   0.290E-02    0.158E-01
RMM:   5    -0.232744895614E+04    0.17757E-03   -0.64690E-04  4718   0.152E-02    0.128E-01
RMM:   6    -0.232744893496E+04    0.21171E-04   -0.49767E-04  4385   0.143E-02    0.133E-01
RMM:   7    -0.232744879138E+04    0.14358E-03   -0.21163E-04  4068   0.100E-02    0.250E-02
RMM:   8    -0.232744878328E+04    0.80968E-05   -0.29671E-05  2974   0.592E-03
 180 F= -.23484517E+04 E0= -.23484517E+04  d E =-.449880E-02  mag=     5.0000
       N       E                     dE             d eps       ncg     rms          rms(c)
DAV:   1    -0.232744504722E+04    0.37442E-02   -0.51524E-01  4608   0.692E-01    0.237E-01
RMM:   2    -0.232745118783E+04   -0.61406E-02   -0.65366E-02  6020   0.155E-01    0.141E-01
RMM:   3    -0.232745156144E+04   -0.37361E-03   -0.60912E-03  5718   0.570E-02    0.148E-01
RMM:   4    -0.232745136039E+04    0.20105E-03   -0.71016E-04  4427   0.142E-02    0.701E-02
RMM:   5    -0.232745131970E+04    0.40688E-04   -0.17730E-04  4182   0.103E-02    0.531E-02
RMM:   6    -0.232745130924E+04    0.10467E-04   -0.93217E-05  3371   0.797E-03    0.493E-02
RMM:   7    -0.232745128882E+04    0.20414E-04   -0.33115E-05  2995   0.610E-03    0.123E-02
RMM:   8    -0.232745128681E+04    0.20115E-05   -0.85267E-06  2897   0.374E-03
 181 F= -.23484547E+04 E0= -.23484547E+04  d E =-.299613E-02  mag=     5.0000
       N       E                     dE             d eps       ncg     rms          rms(c)
DAV:   1    -0.232744958564E+04    0.17032E-02   -0.14197E-01  4704   0.363E-01    0.124E-01
RMM:   2    -0.232745128089E+04   -0.16952E-02   -0.18050E-02  6033   0.818E-02    0.725E-02
RMM:   3    -0.232745138333E+04   -0.10245E-03   -0.16728E-03  4759   0.296E-02    0.761E-02
RMM:   4    -0.232745133023E+04    0.53105E-04   -0.19407E-04  3165   0.806E-03    0.374E-02
RMM:   5    -0.232745131850E+04    0.11730E-04   -0.50390E-05  3079   0.603E-03    0.284E-02
RMM:   6    -0.232745131563E+04    0.28666E-05   -0.28123E-05  2964   0.540E-03
 182 F= -.23484549E+04 E0= -.23484549E+04  d E =-.328307E-02  mag=     5.0000
       N       E                     dE             d eps       ncg     rms          rms(c)
DAV:   1    -0.232744840441E+04    0.29141E-02   -0.29177E-01  4544   0.535E-01    0.179E-01
RMM:   2    -0.232745247883E+04   -0.40744E-02   -0.43483E-02  6008   0.119E-01    0.997E-02
RMM:   3    -0.232745280288E+04   -0.32405E-03   -0.47877E-03  5448   0.494E-02    0.883E-02
RMM:   4    -0.232745274435E+04    0.58529E-04   -0.46453E-04  3519   0.107E-02    0.517E-02
RMM:   5    -0.232745270752E+04    0.36827E-04   -0.85504E-05  3343   0.788E-03    0.242E-02
RMM:   6    -0.232745270695E+04    0.57084E-06   -0.50118E-05  3269   0.656E-03
 183 F= -.23484567E+04 E0= -.23484567E+04  d E =-.175940E-02  mag=     5.0000
       N       E                     dE             d eps       ncg     rms          rms(c)
DAV:   1    -0.232745115576E+04    0.15518E-02   -0.10579E-01  4640   0.322E-01    0.109E-01
RMM:   2    -0.232745263965E+04   -0.14839E-02   -0.15866E-02  6263   0.735E-02    0.640E-02
RMM:   3    -0.232745278962E+04   -0.14997E-03   -0.18944E-03  4421   0.289E-02    0.763E-02
RMM:   4    -0.232745274817E+04    0.41447E-04   -0.17761E-04  3107   0.733E-03    0.332E-02
RMM:   5    -0.232745274311E+04    0.50586E-05   -0.33400E-05  3005   0.430E-03
 184 F= -.23484570E+04 E0= -.23484570E+04  d E =-.201740E-02  mag=     5.0000
       N       E                     dE             d eps       ncg     rms          rms(c)
DAV:   1    -0.232745138166E+04    0.13665E-02   -0.22784E-01  4512   0.492E-01    0.151E-01
RMM:   2    -0.232745424418E+04   -0.28625E-02   -0.29359E-02  6120   0.106E-01    0.126E-01
RMM:   3    -0.232745442493E+04   -0.18075E-03   -0.30343E-03  5383   0.404E-02    0.117E-01
RMM:   4    -0.232745430196E+04    0.12298E-03   -0.32919E-04  3321   0.977E-03    0.432E-02
RMM:   5    -0.232745429706E+04    0.48935E-05   -0.68165E-05  3083   0.670E-03
 185 F= -.23484585E+04 E0= -.23484585E+04  d E =-.154424E-02  mag=     5.0000
       N       E                     dE             d eps       ncg     rms          rms(c)
DAV:   1    -0.232745057329E+04    0.37287E-02   -0.33150E-01  4512   0.593E-01    0.182E-01
RMM:   2    -0.232745469712E+04   -0.41238E-02   -0.42872E-02  6194   0.129E-01    0.128E-01
RMM:   3    -0.232745499851E+04   -0.30139E-03   -0.43987E-03  5626   0.497E-02    0.126E-01
RMM:   4    -0.232745484988E+04    0.14863E-03   -0.47421E-04  3572   0.117E-02    0.514E-02
RMM:   5    -0.232745482322E+04    0.26661E-04   -0.98514E-05  3535   0.838E-03    0.358E-02
RMM:   6    -0.232745482693E+04   -0.37056E-05   -0.56124E-05  3110   0.684E-03
 186 F= -.23484590E+04 E0= -.23484590E+04  d E =-.206062E-02  mag=     5.0000
       N       E                     dE             d eps       ncg     rms          rms(c)
DAV:   1    -0.232745394048E+04    0.88274E-03   -0.15735E-01  4608   0.399E-01    0.120E-01
RMM:   2    -0.232745590302E+04   -0.19625E-02   -0.20546E-02  6255   0.861E-02    0.848E-02
RMM:   3    -0.232745604911E+04   -0.14609E-03   -0.21074E-03  4752   0.316E-02    0.841E-02
RMM:   4    -0.232745599029E+04    0.58825E-04   -0.22865E-04  3121   0.796E-03    0.369E-02
RMM:   5    -0.232745598258E+04    0.77016E-05   -0.33809E-05  2996   0.467E-03
 187 F= -.23484601E+04 E0= -.23484601E+04  d E =-.105571E-02  mag=     5.0000
       N       E                     dE             d eps       ncg     rms          rms(c)
DAV:   1    -0.232744843288E+04    0.75574E-02   -0.66164E-01  4496   0.816E-01    0.244E-01
RMM:   2    -0.232745674170E+04   -0.83088E-02   -0.85811E-02  6131   0.175E-01    0.199E-01
RMM:   3    -0.232745727960E+04   -0.53790E-03   -0.90974E-03  5748   0.675E-02    0.174E-01
RMM:   4    -0.232745700271E+04    0.27689E-03   -0.94261E-04  4388   0.152E-02    0.689E-02
RMM:   5    -0.232745696438E+04    0.38336E-04   -0.15800E-04  3797   0.933E-03    0.579E-02
RMM:   6    -0.232745694640E+04    0.17975E-04   -0.10943E-04  3482   0.805E-03    0.543E-02
RMM:   7    -0.232745692149E+04    0.24912E-04   -0.54693E-05  3122   0.716E-03    0.144E-02
RMM:   8    -0.232745691922E+04    0.22669E-05   -0.10936E-05  2913   0.459E-03
 188 F= -.23484608E+04 E0= -.23484608E+04  d E =-.178423E-02  mag=     5.0000
       N       E                     dE             d eps       ncg     rms          rms(c)
DAV:   1    -0.232745611387E+04    0.80762E-03   -0.15572E-01  4576   0.400E-01    0.123E-01
RMM:   2    -0.232745792244E+04   -0.18086E-02   -0.19014E-02  6043   0.862E-02    0.856E-02
RMM:   3    -0.232745805431E+04   -0.13188E-03   -0.19509E-03  4789   0.336E-02    0.888E-02
RMM:   4    -0.232745798525E+04    0.69069E-04   -0.21091E-04  3145   0.818E-03    0.352E-02
RMM:   5    -0.232745797933E+04    0.59183E-05   -0.42138E-05  2997   0.535E-03
 189 F= -.23484617E+04 E0= -.23484617E+04  d E =-.889369E-03  mag=     5.0000
       N       E                     dE             d eps       ncg     rms          rms(c)
DAV:   1    -0.232745615129E+04    0.18340E-02   -0.19148E-01  4512   0.444E-01    0.136E-01
RMM:   2    -0.232745839140E+04   -0.22401E-02   -0.23415E-02  6153   0.968E-02    0.100E-01
RMM:   3    -0.232745854036E+04   -0.14896E-03   -0.25298E-03  5096   0.392E-02    0.943E-02
RMM:   4    -0.232745844617E+04    0.94193E-04   -0.25896E-04  3213   0.952E-03    0.362E-02
RMM:   5    -0.232745842456E+04    0.21608E-04   -0.58272E-05  3375   0.673E-03    0.191E-02
RMM:   6    -0.232745842147E+04    0.30846E-05   -0.27746E-05  3013   0.597E-03
 190 F= -.23484619E+04 E0= -.23484619E+04  d E =-.114038E-02  mag=     5.0000
       N       E                     dE             d eps       ncg     rms          rms(c)
DAV:   1    -0.232745721160E+04    0.12130E-02   -0.16573E-01  4528   0.403E-01    0.118E-01
RMM:   2    -0.232745920301E+04   -0.19914E-02   -0.21348E-02  6156   0.895E-02    0.613E-02
RMM:   3    -0.232745933072E+04   -0.12770E-03   -0.20233E-03  4838   0.317E-02    0.557E-02
RMM:   4    -0.232745931565E+04    0.15064E-04   -0.20603E-04  3097   0.751E-03    0.358E-02
RMM:   5    -0.232745930420E+04    0.11459E-04   -0.36195E-05  3002   0.500E-03    0.320E-02
RMM:   6    -0.232745929910E+04    0.50958E-05   -0.29764E-05  2927   0.474E-03
 191 F= -.23484627E+04 E0= -.23484627E+04  d E =-.779216E-03  mag=     5.0000
       N       E                     dE             d eps       ncg     rms          rms(c)
DAV:   1    -0.232745618715E+04    0.31170E-02   -0.27995E-01  4480   0.524E-01    0.153E-01
RMM:   2    -0.232745954013E+04   -0.33530E-02   -0.35922E-02  6073   0.116E-01    0.834E-02
RMM:   3    -0.232745976774E+04   -0.22761E-03   -0.34075E-03  5336   0.431E-02    0.759E-02
RMM:   4    -0.232745973966E+04    0.28073E-04   -0.34995E-04  3181   0.906E-03    0.520E-02
RMM:   5    -0.232745971497E+04    0.24696E-04   -0.61847E-05  3033   0.658E-03    0.337E-02
RMM:   6    -0.232745971161E+04    0.33579E-05   -0.46609E-05  3043   0.601E-03
 192 F= -.23484630E+04 E0= -.23484630E+04  d E =-.106187E-02  mag=     5.0000
       N       E                     dE             d eps       ncg     rms          rms(c)
DAV:   1    -0.232745845243E+04    0.12625E-02   -0.15846E-01  4528   0.390E-01    0.108E-01
RMM:   2    -0.232746034262E+04   -0.18902E-02   -0.20296E-02  6230   0.847E-02    0.558E-02
RMM:   3    -0.232746047761E+04   -0.13499E-03   -0.20307E-03  4542   0.311E-02    0.422E-02
RMM:   4    -0.232746047889E+04   -0.12807E-05   -0.19943E-04  3090   0.697E-03    0.351E-02
RMM:   5    -0.232746046685E+04    0.12044E-04   -0.31439E-05  2963   0.472E-03    0.260E-02
RMM:   6    -0.232746046474E+04    0.21111E-05   -0.27327E-05  2945   0.426E-03
 193 F= -.23484637E+04 E0= -.23484637E+04  d E =-.668466E-03  mag=     5.0000
       N       E                     dE             d eps       ncg     rms          rms(c)
DAV:   1    -0.232745369511E+04    0.67717E-02   -0.58443E-01  4496   0.748E-01    0.206E-01
RMM:   2    -0.232746071973E+04   -0.70246E-02   -0.75162E-02  6145   0.162E-01    0.110E-01
RMM:   3    -0.232746116611E+04   -0.44638E-03   -0.70829E-03  5624   0.586E-02    0.838E-02
RMM:   4    -0.232746115135E+04    0.14766E-04   -0.71792E-04  3518   0.120E-02    0.666E-02
RMM:   5    -0.232746109734E+04    0.54007E-04   -0.11950E-04  3378   0.865E-03    0.404E-02
RMM:   6    -0.232746109940E+04   -0.20557E-05   -0.88121E-05  3472   0.737E-03
 194 F= -.23484641E+04 E0= -.23484641E+04  d E =-.113705E-02  mag=     5.0000
       N       E                     dE             d eps       ncg     rms          rms(c)
DAV:   1    -0.232745856114E+04    0.25362E-02   -0.28825E-01  4472   0.538E-01    0.151E-01
RMM:   2    -0.232746195969E+04   -0.33986E-02   -0.36386E-02  6160   0.115E-01    0.750E-02
RMM:   3    -0.232746221445E+04   -0.25476E-03   -0.37664E-03  5250   0.431E-02    0.550E-02
RMM:   4    -0.232746221835E+04   -0.38965E-05   -0.35095E-04  3229   0.869E-03    0.471E-02
RMM:   5    -0.232746219632E+04    0.22030E-04   -0.60314E-05  3002   0.656E-03    0.326E-02
RMM:   6    -0.232746219247E+04    0.38498E-05   -0.46073E-05  3102   0.575E-03
 195 F= -.23484650E+04 E0= -.23484650E+04  d E =-.824268E-03  mag=     5.0000
       N       E                     dE             d eps       ncg     rms          rms(c)
DAV:   1    -0.232746014894E+04    0.20474E-02   -0.19227E-01  4512   0.439E-01    0.123E-01
RMM:   2    -0.232746242931E+04   -0.22804E-02   -0.24387E-02  6210   0.946E-02    0.604E-02
RMM:   3    -0.232746259043E+04   -0.16112E-03   -0.25008E-03  4860   0.346E-02    0.383E-02
RMM:   4    -0.232746259229E+04   -0.18525E-05   -0.22682E-04  3094   0.738E-03    0.354E-02
RMM:   5    -0.232746258286E+04    0.94271E-05   -0.43153E-05  2962   0.583E-03
 196 F= -.23484651E+04 E0= -.23484651E+04  d E =-.992969E-03  mag=     5.0000
       N       E                     dE             d eps       ncg     rms          rms(c)
DAV:   1    -0.232746060212E+04    0.19902E-02   -0.22609E-01  4480   0.475E-01    0.137E-01
RMM:   2    -0.232746332979E+04   -0.27277E-02   -0.28611E-02  6148   0.993E-02    0.920E-02
RMM:   3    -0.232746358995E+04   -0.26016E-03   -0.31664E-03  5008   0.400E-02    0.105E-01
RMM:   4    -0.232746349993E+04    0.90026E-04   -0.30466E-04  3203   0.889E-03    0.398E-02
RMM:   5    -0.232746348971E+04    0.10212E-04   -0.51501E-05  3041   0.565E-03    0.382E-02
RMM:   6    -0.232746347387E+04    0.15842E-04   -0.41095E-05  2995   0.562E-03    0.202E-02
RMM:   7    -0.232746346988E+04    0.39947E-05   -0.17600E-05  2938   0.463E-03
 197 F= -.23484658E+04 E0= -.23484658E+04  d E =-.659139E-03  mag=     5.0000
       N       E                     dE             d eps       ncg     rms          rms(c)
DAV:   1    -0.232746197976E+04    0.14941E-02   -0.14151E-01  4528   0.375E-01    0.108E-01
RMM:   2    -0.232746367020E+04   -0.16904E-02   -0.17923E-02  6253   0.795E-02    0.548E-02
RMM:   3    -0.232746380812E+04   -0.13792E-03   -0.19188E-03  4465   0.314E-02    0.445E-02
RMM:   4    -0.232746380143E+04    0.66833E-05   -0.18172E-04  3101   0.720E-03    0.342E-02
RMM:   5    -0.232746378603E+04    0.15405E-04   -0.30083E-05  2949   0.492E-03    0.205E-02
RMM:   6    -0.232746378634E+04   -0.30659E-06   -0.24265E-05  2945   0.434E-03
 198 F= -.23484659E+04 E0= -.23484659E+04  d E =-.794295E-03  mag=     5.0000
       N       E                     dE             d eps       ncg     rms          rms(c)
DAV:   1    -0.232746223330E+04    0.15527E-02   -0.17304E-01  4464   0.400E-01    0.111E-01
RMM:   2    -0.232746437890E+04   -0.21456E-02   -0.22561E-02  6140   0.834E-02    0.636E-02
RMM:   3    -0.232746457524E+04   -0.19634E-03   -0.24643E-03  4493   0.323E-02    0.571E-02
RMM:   4    -0.232746456138E+04    0.13863E-04   -0.22024E-04  3095   0.695E-03    0.386E-02
RMM:   5    -0.232746454688E+04    0.14499E-04   -0.27875E-05  2950   0.433E-03    0.258E-02
RMM:   6    -0.232746454297E+04    0.39165E-05   -0.27720E-05  2950   0.423E-03
 199 F= -.23484666E+04 E0= -.23484666E+04  d E =-.653610E-03  mag=     5.0000
       N       E                     dE             d eps       ncg     rms          rms(c)
DAV:   1    -0.232745142064E+04    0.13126E-01   -0.10397E+00  4464   0.981E-01    0.272E-01
RMM:   2    -0.232746425682E+04   -0.12836E-01   -0.13482E-01  5938   0.203E-01    0.156E-01
RMM:   3    -0.232746547561E+04   -0.12188E-02   -0.15041E-02  5400   0.898E-02    0.144E-01
RMM:   4    -0.232746537786E+04    0.97751E-04   -0.13407E-03  4279   0.157E-02    0.907E-02
RMM:   5    -0.232746529284E+04    0.85020E-04   -0.16981E-04  3824   0.955E-03    0.620E-02
RMM:   6    -0.232746527330E+04    0.19542E-04   -0.15812E-04  3800   0.932E-03    0.566E-02
RMM:   7    -0.232746524218E+04    0.31117E-04   -0.67247E-05  3375   0.708E-03    0.165E-02
RMM:   8    -0.232746523932E+04    0.28612E-05   -0.11400E-05  2925   0.453E-03
 200 F= -.23484670E+04 E0= -.23484670E+04  d E =-.109327E-02  mag=     5.0000
       N       E                     dE             d eps       ncg     rms          rms(c)
DAV:   1    -0.232746402341E+04    0.12188E-02   -0.13781E-01  4576   0.350E-01    0.961E-02
RMM:   2    -0.232746568467E+04   -0.16613E-02   -0.17299E-02  6156   0.723E-02    0.669E-02
RMM:   3    -0.232746583460E+04   -0.14992E-03   -0.18339E-03  4103   0.277E-02    0.660E-02
RMM:   4    -0.232746580417E+04    0.30424E-04   -0.17398E-04  3082   0.666E-03    0.302E-02
RMM:   5    -0.232746579574E+04    0.84287E-05   -0.21208E-05  2931   0.377E-03
 201 F= -.23484675E+04 E0= -.23484675E+04  d E =-.512782E-03  mag=     5.0000
