       N       E                     dE             d eps       ncg     rms          rms(c)
DAV:   1     0.127521013382E+05    0.12752E+05   -0.82949E+05  4432   0.144E+03
DAV:   2    -0.105614837323E+04   -0.13808E+05   -0.13225E+05  5288   0.330E+02
DAV:   3    -0.246934209306E+04   -0.14132E+04   -0.13999E+04  5352   0.111E+02
DAV:   4    -0.251596457049E+04   -0.46622E+02   -0.46389E+02  6616   0.300E+01
DAV:   5    -0.251692788589E+04   -0.96332E+00   -0.96179E+00  5616   0.341E+00    0.171E+02
RMM:   6    -0.147378545598E+04    0.10431E+04   -0.19752E+03  4390   0.389E+01    0.763E+01
RMM:   7    -0.166954899865E+04   -0.19576E+03   -0.35683E+02  5048   0.145E+01    0.608E+01
RMM:   8    -0.168299487965E+04   -0.13446E+02   -0.85611E+01  5227   0.857E+00    0.413E+01
RMM:   9    -0.176106182738E+04   -0.78067E+02   -0.63917E+01  5093   0.613E+00    0.384E+01
RMM:  10    -0.187245135025E+04   -0.11139E+03   -0.56406E+01  5084   0.700E+00    0.320E+01
RMM:  11    -0.196937357170E+04   -0.96922E+02   -0.46121E+01  5251   0.598E+00    0.190E+01
RMM:  12    -0.206701971613E+04   -0.97646E+02   -0.39998E+01  4567   0.507E+00    0.137E+01
RMM:  13    -0.220097636221E+04   -0.13396E+03   -0.10421E+02  4419   0.731E+00    0.904E+00
RMM:  14    -0.227814213658E+04   -0.77166E+02   -0.72822E+01  4462   0.599E+00    0.100E+01
RMM:  15    -0.228844058087E+04   -0.10298E+02   -0.11212E+01  4579   0.337E+00    0.738E+00
RMM:  16    -0.229522809785E+04   -0.67875E+01   -0.58234E+00  4449   0.153E+00    0.461E+00
RMM:  17    -0.230233139150E+04   -0.71033E+01   -0.41238E+00  4454   0.166E+00    0.529E+00
RMM:  18    -0.230360331530E+04   -0.12719E+01   -0.12391E+00  5089   0.776E-01    0.542E+00
RMM:  19    -0.230334158907E+04    0.26173E+00   -0.13495E-01  6000   0.202E-01    0.592E+00
RMM:  20    -0.230693025507E+04   -0.35887E+01   -0.25802E+00  4464   0.619E-01    0.357E+00
RMM:  21    -0.230858862439E+04   -0.16584E+01   -0.11624E+00  4480   0.524E-01    0.179E+00
RMM:  22    -0.230932986866E+04   -0.74124E+00   -0.82685E-01  4580   0.464E-01    0.932E-01
RMM:  23    -0.230948760462E+04   -0.15774E+00   -0.16605E-01  4823   0.280E-01    0.659E-01
RMM:  24    -0.230962599996E+04   -0.13840E+00   -0.70740E-02  4562   0.131E-01    0.425E-01
RMM:  25    -0.230978193330E+04   -0.15593E+00   -0.85744E-02  4420   0.155E-01    0.244E-01
RMM:  26    -0.230983293957E+04   -0.51006E-01   -0.22891E-02  4669   0.981E-02    0.185E-01
RMM:  27    -0.230987114164E+04   -0.38202E-01   -0.10487E-02  4550   0.600E-02    0.117E-01
RMM:  28    -0.230988946726E+04   -0.18326E-01   -0.37933E-03  4543   0.482E-02    0.940E-02
RMM:  29    -0.230989840483E+04   -0.89376E-02   -0.22176E-03  4589   0.310E-02    0.613E-02
RMM:  30    -0.230990180847E+04   -0.34036E-02   -0.85568E-04  4299   0.242E-02    0.334E-02
RMM:  31    -0.230990320307E+04   -0.13946E-02   -0.41607E-04  4178   0.130E-02    0.279E-02
RMM:  32    -0.230990366915E+04   -0.46608E-03   -0.11836E-04  3718   0.104E-02    0.113E-02
RMM:  33    -0.230990384499E+04   -0.17584E-03   -0.59609E-05  3444   0.552E-03    0.707E-03
RMM:  34    -0.230990389196E+04   -0.46968E-04   -0.12766E-05  2896   0.433E-03    0.377E-03
RMM:  35    -0.230990392264E+04   -0.30685E-04   -0.78017E-06  2818   0.269E-03    0.192E-03
RMM:  36    -0.230990393725E+04   -0.14611E-04   -0.41145E-06  2634   0.247E-03    0.130E-03
RMM:  37    -0.230990394233E+04   -0.50707E-05   -0.21309E-06  2414   0.170E-03
   1 F= -.23303906E+04 E0= -.23303906E+04  d E =-.233039E+04  mag=     0.9999
       N       E                     dE             d eps       ncg     rms          rms(c)
DAV:   1    -0.231011329920E+04   -0.20936E+00   -0.28488E+02  4592   0.103E+01    0.477E+00
RMM:   2    -0.231265541127E+04   -0.25421E+01   -0.20715E+01  6252   0.282E+00    0.810E+00
RMM:   3    -0.231166672209E+04    0.98869E+00   -0.21634E+00  5106   0.122E+00    0.233E+00
RMM:   4    -0.231159735569E+04    0.69366E-01   -0.17763E-01  5590   0.238E-01    0.130E+00
RMM:   5    -0.231158455589E+04    0.12800E-01   -0.78886E-02  4895   0.162E-01    0.630E-01
RMM:   6    -0.231157891889E+04    0.56370E-02   -0.21130E-02  5637   0.987E-02    0.273E-01
RMM:   7    -0.231157798261E+04    0.93629E-03   -0.24329E-03  5545   0.337E-02    0.102E-01
RMM:   8    -0.231157780637E+04    0.17623E-03   -0.49783E-04  4590   0.160E-02    0.566E-02
RMM:   9    -0.231157774455E+04    0.61820E-04   -0.18739E-04  4325   0.116E-02    0.244E-02
RMM:  10    -0.231157775940E+04   -0.14844E-04   -0.78961E-05  3671   0.764E-03    0.141E-02
RMM:  11    -0.231157777831E+04   -0.18915E-04   -0.38173E-05  3304   0.558E-03    0.879E-03
RMM:  12    -0.231157779817E+04   -0.19859E-04   -0.36218E-05  3311   0.549E-03    0.425E-03
RMM:  13    -0.231157780817E+04   -0.10001E-04   -0.10731E-05  2826   0.444E-03    0.280E-03
RMM:  14    -0.231157781648E+04   -0.83103E-05   -0.59499E-06  2802   0.297E-03
   2 F= -.23320781E+04 E0= -.23320781E+04  d E =-.168749E+01  mag=     1.0000
       N       E                     dE             d eps       ncg     rms          rms(c)
DAV:   1    -0.231157803638E+04   -0.22821E-03   -0.16916E-01  5068   0.291E-01    0.977E-02
RMM:   2    -0.231157935772E+04   -0.13213E-02   -0.99383E-03  6132   0.667E-02    0.205E-01
RMM:   3    -0.231157883051E+04    0.52721E-03   -0.96198E-04  4019   0.221E-02    0.498E-02
RMM:   4    -0.231157881055E+04    0.19958E-04   -0.99324E-05  3197   0.555E-03    0.290E-02
RMM:   5    -0.231157880894E+04    0.16167E-05   -0.35976E-05  3024   0.457E-03
   3 F= -.23320792E+04 E0= -.23320792E+04  d E =-.168864E+01  mag=     1.0000
       N       E                     dE             d eps       ncg     rms          rms(c)
DAV:   1    -0.231145354163E+04    0.12527E+00   -0.44185E+01  4464   0.576E+00    0.193E+00
RMM:   2    -0.231194066452E+04   -0.48712E+00   -0.52070E+00  6150   0.149E+00    0.167E+00
RMM:   3    -0.231191467866E+04    0.25986E-01   -0.31799E-01  5953   0.407E-01    0.130E+00
RMM:   4    -0.231189989732E+04    0.14781E-01   -0.47602E-02  5936   0.125E-01    0.790E-01
RMM:   5    -0.231189200339E+04    0.78939E-02   -0.12568E-02  5985   0.701E-02    0.389E-01
RMM:   6    -0.231188985026E+04    0.21531E-02   -0.65923E-03  4998   0.500E-02    0.995E-02
RMM:   7    -0.231188973558E+04    0.11468E-03   -0.70754E-04  4482   0.286E-02    0.398E-02
RMM:   8    -0.231188970187E+04    0.33712E-04   -0.19952E-04  4220   0.914E-03    0.197E-02
RMM:   9    -0.231188970076E+04    0.11099E-05   -0.30462E-05  3086   0.587E-03
   4 F= -.23323868E+04 E0= -.23323868E+04  d E =-.307554E+00  mag=     1.0000
       N       E                     dE             d eps       ncg     rms          rms(c)
DAV:   1    -0.231170111947E+04    0.18858E+00   -0.25587E+01  4464   0.448E+00    0.146E+00
RMM:   2    -0.231199299063E+04   -0.29187E+00   -0.31163E+00  6152   0.116E+00    0.129E+00
RMM:   3    -0.231197140327E+04    0.21587E-01   -0.16940E-01  6027   0.280E-01    0.960E-01
RMM:   4    -0.231196305019E+04    0.83531E-02   -0.25267E-02  5734   0.922E-02    0.583E-01
RMM:   5    -0.231195889809E+04    0.41521E-02   -0.72608E-03  5905   0.538E-02    0.304E-01
RMM:   6    -0.231195756146E+04    0.13366E-02   -0.40687E-03  5005   0.396E-02    0.765E-02
RMM:   7    -0.231195747828E+04    0.83181E-04   -0.41166E-04  4419   0.222E-02    0.292E-02
RMM:   8    -0.231195746316E+04    0.15122E-04   -0.10160E-04  3939   0.697E-03    0.150E-02
RMM:   9    -0.231195746809E+04   -0.49295E-05   -0.19253E-05  2948   0.479E-03
   5 F= -.23324520E+04 E0= -.23324520E+04  d E =-.372717E+00  mag=     1.0000
       N       E                     dE             d eps       ncg     rms          rms(c)
DAV:   1    -0.231181552571E+04    0.14194E+00   -0.57045E+01  4504   0.648E+00    0.171E+00
RMM:   2    -0.231221175177E+04   -0.39623E+00   -0.37607E+00  6017   0.131E+00    0.206E+00
RMM:   3    -0.231216801753E+04    0.43734E-01   -0.27635E-01  5692   0.384E-01    0.109E+00
RMM:   4    -0.231214972617E+04    0.18291E-01   -0.29784E-02  5516   0.970E-02    0.466E-01
RMM:   5    -0.231214541619E+04    0.43100E-02   -0.15782E-02  5172   0.823E-02    0.208E-01
RMM:   6    -0.231214513107E+04    0.28512E-03   -0.29074E-03  5207   0.501E-02    0.860E-02
RMM:   7    -0.231214502938E+04    0.10169E-03   -0.42934E-04  4701   0.139E-02    0.560E-02
RMM:   8    -0.231214497522E+04    0.54155E-04   -0.13445E-04  4419   0.113E-02    0.250E-02
RMM:   9    -0.231214496054E+04    0.14682E-04   -0.48410E-05  3396   0.617E-03    0.108E-02
RMM:  10    -0.231214495731E+04    0.32285E-05   -0.10782E-05  2831   0.468E-03
   6 F= -.23326391E+04 E0= -.23326391E+04  d E =-.187094E+00  mag=     1.0000
       N       E                     dE             d eps       ncg     rms          rms(c)
DAV:   1    -0.231202340133E+04    0.12156E+00   -0.27704E+01  4560   0.451E+00    0.119E+00
RMM:   2    -0.231221327571E+04   -0.18987E+00   -0.17857E+00  5999   0.918E-01    0.147E+00
RMM:   3    -0.231218964997E+04    0.23626E-01   -0.12779E-01  5699   0.259E-01    0.731E-01
RMM:   4    -0.231218125695E+04    0.83930E-02   -0.14445E-02  5461   0.673E-02    0.317E-01
RMM:   5    -0.231217958124E+04    0.16757E-02   -0.69018E-03  5612   0.552E-02    0.203E-01
RMM:   6    -0.231217902958E+04    0.55166E-03   -0.21363E-03  5476   0.336E-02    0.559E-02
RMM:   7    -0.231217898969E+04    0.39887E-04   -0.16943E-04  4013   0.107E-02    0.361E-02
RMM:   8    -0.231217896937E+04    0.20316E-04   -0.67171E-05  3724   0.797E-03    0.155E-02
RMM:   9    -0.231217896449E+04    0.48835E-05   -0.23366E-05  2947   0.522E-03
   7 F= -.23326729E+04 E0= -.23326729E+04  d E =-.220938E+00  mag=     1.0000
       N       E                     dE             d eps       ncg     rms          rms(c)
DAV:   1    -0.231180121562E+04    0.37775E+00   -0.51379E+01  4440   0.662E+00    0.191E+00
RMM:   2    -0.231234527250E+04   -0.54406E+00   -0.55737E+00  6023   0.146E+00    0.142E+00
RMM:   3    -0.231237241544E+04   -0.27143E-01   -0.47158E-01  5757   0.413E-01    0.156E+00
RMM:   4    -0.231233863820E+04    0.33777E-01   -0.46217E-02  5965   0.114E-01    0.531E-01
RMM:   5    -0.231233439178E+04    0.42464E-02   -0.11971E-02  5316   0.655E-02    0.271E-01
RMM:   6    -0.231233383313E+04    0.55865E-03   -0.56551E-03  5088   0.598E-02    0.133E-01
RMM:   7    -0.231233357633E+04    0.25680E-03   -0.67676E-04  4959   0.215E-02    0.614E-02
RMM:   8    -0.231233352216E+04    0.54167E-04   -0.22461E-04  4060   0.101E-02    0.295E-02
RMM:   9    -0.231233351951E+04    0.26488E-05   -0.74791E-05  3509   0.715E-03
   8 F= -.23328271E+04 E0= -.23328271E+04  d E =-.154207E+00  mag=     1.0000
       N       E                     dE             d eps       ncg     rms          rms(c)
DAV:   1    -0.231189226860E+04    0.44125E+00   -0.47520E+01  4472   0.634E+00    0.184E+00
RMM:   2    -0.231239521767E+04   -0.50295E+00   -0.51509E+00  5988   0.140E+00    0.139E+00
RMM:   3    -0.231242360376E+04   -0.28386E-01   -0.43905E-01  5771   0.394E-01    0.159E+00
RMM:   4    -0.231238910113E+04    0.34503E-01   -0.43273E-02  5914   0.111E-01    0.514E-01
RMM:   5    -0.231238516280E+04    0.39383E-02   -0.11584E-02  5314   0.630E-02    0.274E-01
RMM:   6    -0.231238455918E+04    0.60362E-03   -0.58010E-03  5094   0.602E-02    0.144E-01
RMM:   7    -0.231238426280E+04    0.29638E-03   -0.70154E-04  4969   0.219E-02    0.608E-02
RMM:   8    -0.231238422405E+04    0.38753E-04   -0.22754E-04  4128   0.105E-02    0.290E-02
RMM:   9    -0.231238424071E+04   -0.16659E-04   -0.83545E-05  3664   0.720E-03    0.134E-02
RMM:  10    -0.231238426311E+04   -0.22407E-04   -0.25678E-05  3014   0.508E-03    0.711E-03
RMM:  11    -0.231238428389E+04   -0.20774E-04   -0.13330E-05  2842   0.436E-03    0.507E-03
RMM:  12    -0.231238430306E+04   -0.19169E-04   -0.13386E-05  2841   0.381E-03    0.265E-03
RMM:  13    -0.231238431119E+04   -0.81284E-05   -0.68451E-06  2800   0.363E-03
   9 F= -.23328776E+04 E0= -.23328776E+04  d E =-.204714E+00  mag=     1.0000
       N       E                     dE             d eps       ncg     rms          rms(c)
DAV:   1    -0.231208441757E+04    0.29989E+00   -0.50190E+01  4440   0.673E+00    0.195E+00
RMM:   2    -0.231251552456E+04   -0.43111E+00   -0.43640E+00  5894   0.138E+00    0.161E+00
RMM:   3    -0.231252929214E+04   -0.13768E-01   -0.37568E-01  5485   0.411E-01    0.171E+00
RMM:   4    -0.231248798360E+04    0.41309E-01   -0.38948E-02  5688   0.115E-01    0.494E-01
RMM:   5    -0.231248351194E+04    0.44717E-02   -0.16375E-02  5487   0.858E-02    0.210E-01
RMM:   6    -0.231248331821E+04    0.19373E-03   -0.33954E-03  5345   0.448E-02    0.100E-01
RMM:   7    -0.231248318959E+04    0.12862E-03   -0.63599E-04  4849   0.180E-02    0.647E-02
RMM:   8    -0.231248310888E+04    0.80715E-04   -0.18916E-04  4405   0.121E-02    0.274E-02
RMM:   9    -0.231248309489E+04    0.13986E-04   -0.58825E-05  3543   0.628E-03    0.127E-02
RMM:  10    -0.231248309403E+04    0.86115E-06   -0.17842E-05  2888   0.509E-03
  10 F= -.23329763E+04 E0= -.23329763E+04  d E =-.987098E-01  mag=     1.0000
       N       E                     dE             d eps       ncg     rms          rms(c)
DAV:   1    -0.231244871781E+04    0.34377E-01   -0.52235E+00  4592   0.217E+00    0.626E-01
RMM:   2    -0.231249298390E+04   -0.44266E-01   -0.44356E-01  5938   0.447E-01    0.545E-01
RMM:   3    -0.231249354038E+04   -0.55648E-03   -0.35055E-02  5615   0.128E-01    0.516E-01
RMM:   4    -0.231248966556E+04    0.38748E-02   -0.40256E-03  5487   0.370E-02    0.155E-01
RMM:   5    -0.231248920769E+04    0.45788E-03   -0.16241E-03  5336   0.278E-02    0.660E-02
RMM:   6    -0.231248919109E+04    0.16602E-04   -0.33126E-04  4855   0.152E-02    0.345E-02
RMM:   7    -0.231248917571E+04    0.15373E-04   -0.54868E-05  3398   0.607E-03    0.181E-02
RMM:   8    -0.231248917215E+04    0.35573E-05   -0.14892E-05  2887   0.464E-03
  11 F= -.23329824E+04 E0= -.23329824E+04  d E =-.104765E+00  mag=     1.0000
       N       E                     dE             d eps       ncg     rms          rms(c)
DAV:   1    -0.231234219854E+04    0.14698E+00   -0.49660E+01  4408   0.637E+00    0.159E+00
RMM:   2    -0.231262059886E+04   -0.27840E+00   -0.28214E+00  5918   0.119E+00    0.140E+00
RMM:   3    -0.231261645304E+04    0.41458E-02   -0.20946E-01  5166   0.381E-01    0.133E+00
RMM:   4    -0.231259197979E+04    0.24473E-01   -0.24616E-02  5622   0.964E-02    0.439E-01
RMM:   5    -0.231258975748E+04    0.22223E-02   -0.12117E-02  5632   0.725E-02    0.299E-01
RMM:   6    -0.231258866931E+04    0.10882E-02   -0.42386E-03  5634   0.444E-02    0.867E-02
RMM:   7    -0.231258857488E+04    0.94429E-04   -0.33991E-04  4601   0.149E-02    0.466E-02
RMM:   8    -0.231258853735E+04    0.37526E-04   -0.10998E-04  3987   0.868E-03    0.195E-02
RMM:   9    -0.231258852595E+04    0.11400E-04   -0.30084E-05  3068   0.588E-03    0.888E-03
RMM:  10    -0.231258852186E+04    0.40965E-05   -0.13341E-05  2859   0.420E-03
  12 F= -.23330818E+04 E0= -.23330818E+04  d E =-.994529E-01  mag=     1.0000
       N       E                     dE             d eps       ncg     rms          rms(c)
DAV:   1    -0.231233256784E+04    0.25596E+00   -0.59272E+01  4408   0.694E+00    0.174E+00
RMM:   2    -0.231266080178E+04   -0.32823E+00   -0.33689E+00  5882   0.130E+00    0.140E+00
RMM:   3    -0.231266207677E+04   -0.12750E-02   -0.25778E-01  5130   0.430E-01    0.146E+00
RMM:   4    -0.231263251660E+04    0.29560E-01   -0.30630E-02  5633   0.107E-01    0.486E-01
RMM:   5    -0.231262966887E+04    0.28477E-02   -0.15061E-02  5599   0.810E-02    0.317E-01
RMM:   6    -0.231262845806E+04    0.12108E-02   -0.47667E-03  5611   0.479E-02    0.981E-02
RMM:   7    -0.231262833363E+04    0.12443E-03   -0.42389E-04  4771   0.162E-02    0.516E-02
RMM:   8    -0.231262828119E+04    0.52439E-04   -0.14680E-04  4239   0.997E-03    0.222E-02
RMM:   9    -0.231262826591E+04    0.15279E-04   -0.37925E-05  3221   0.619E-03    0.102E-02
RMM:  10    -0.231262826058E+04    0.53360E-05   -0.17074E-05  2907   0.460E-03
  13 F= -.23331218E+04 E0= -.23331218E+04  d E =-.139405E+00  mag=     1.0000
       N       E                     dE             d eps       ncg     rms          rms(c)
DAV:   1    -0.231245309024E+04    0.17518E+00   -0.70920E+01  4408   0.747E+00    0.186E+00
RMM:   2    -0.231275395186E+04   -0.30086E+00   -0.32450E+00  5844   0.136E+00    0.959E-01
RMM:   3    -0.231273989547E+04    0.14056E-01   -0.18978E-01  5247   0.428E-01    0.114E+00
RMM:   4    -0.231272562662E+04    0.14269E-01   -0.26879E-02  5911   0.106E-01    0.570E-01
RMM:   5    -0.231272084220E+04    0.47844E-02   -0.16417E-02  4960   0.879E-02    0.232E-01
RMM:   6    -0.231272015979E+04    0.68241E-03   -0.30384E-03  5161   0.503E-02    0.975E-02
RMM:   7    -0.231272000422E+04    0.15557E-03   -0.44858E-04  4744   0.144E-02    0.448E-02
RMM:   8    -0.231271997999E+04    0.24231E-04   -0.95671E-05  4124   0.101E-02    0.217E-02
RMM:   9    -0.231271999073E+04   -0.10748E-04   -0.42045E-05  3453   0.613E-03    0.948E-03
RMM:  10    -0.231272000956E+04   -0.18829E-04   -0.12675E-05  2852   0.457E-03    0.567E-03
RMM:  11    -0.231272003484E+04   -0.25280E-04   -0.11969E-05  2821   0.366E-03    0.374E-03
RMM:  12    -0.231272005709E+04   -0.22246E-04   -0.10515E-05  2818   0.366E-03    0.190E-03
RMM:  13    -0.231272006878E+04   -0.11693E-04   -0.60437E-06  2770   0.317E-03    0.124E-03
RMM:  14    -0.231272007478E+04   -0.59962E-05   -0.36053E-06  2612   0.228E-03
  14 F= -.23332151E+04 E0= -.23332151E+04  d E =-.932957E-01  mag=     1.0000
       N       E                     dE             d eps       ncg     rms          rms(c)
DAV:   1    -0.231270576989E+04    0.14299E-01   -0.50113E+00  4576   0.196E+00    0.485E-01
RMM:   2    -0.231272607088E+04   -0.20301E-01   -0.22004E-01  5966   0.362E-01    0.224E-01
RMM:   3    -0.231272460522E+04    0.14657E-02   -0.90722E-03  5585   0.821E-02    0.202E-01
RMM:   4    -0.231272450044E+04    0.10478E-03   -0.16578E-03  5379   0.257E-02    0.186E-01
RMM:   5    -0.231272398805E+04    0.51239E-03   -0.11188E-03  4678   0.235E-02    0.367E-02
RMM:   6    -0.231272397651E+04    0.11547E-04   -0.11545E-04  3706   0.123E-02    0.212E-02
RMM:   7    -0.231272396997E+04    0.65365E-05   -0.21894E-05  2995   0.392E-03
  15 F= -.23332194E+04 E0= -.23332194E+04  d E =-.976044E-01  mag=     1.0000
       N       E                     dE             d eps       ncg     rms          rms(c)
DAV:   1    -0.231257744727E+04    0.14653E+00   -0.75383E+01  4408   0.742E+00    0.169E+00
RMM:   2    -0.231285384312E+04   -0.27640E+00   -0.29036E+00  5866   0.128E+00    0.110E+00
RMM:   3    -0.231282949987E+04    0.24343E-01   -0.12717E-01  5652   0.304E-01    0.113E+00
RMM:   4    -0.231281418548E+04    0.15314E-01   -0.21520E-02  5871   0.981E-02    0.584E-01
RMM:   5    -0.231281067812E+04    0.35074E-02   -0.11594E-02  5629   0.741E-02    0.392E-01
RMM:   6    -0.231280863595E+04    0.20422E-02   -0.84860E-03  5317   0.596E-02    0.805E-02
RMM:   7    -0.231280843529E+04    0.20067E-03   -0.45555E-04  4687   0.269E-02    0.432E-02
RMM:   8    -0.231280840828E+04    0.27006E-04   -0.16511E-04  4152   0.960E-03    0.190E-02
RMM:   9    -0.231280839875E+04    0.95279E-05   -0.21573E-05  3000   0.660E-03
  16 F= -.23333056E+04 E0= -.23333056E+04  d E =-.862288E-01  mag=     1.0000
       N       E                     dE             d eps       ncg     rms          rms(c)
DAV:   1    -0.231274252185E+04    0.65886E-01   -0.26837E+01  4408   0.445E+00    0.986E-01
RMM:   2    -0.231283369210E+04   -0.91170E-01   -0.96581E-01  5860   0.767E-01    0.576E-01
RMM:   3    -0.231282751054E+04    0.61816E-02   -0.41805E-02  5621   0.174E-01    0.611E-01
RMM:   4    -0.231282319816E+04    0.43124E-02   -0.71038E-03  5811   0.555E-02    0.340E-01
RMM:   5    -0.231282203789E+04    0.11603E-02   -0.44828E-03  5453   0.456E-02    0.227E-01
RMM:   6    -0.231282130789E+04    0.73000E-03   -0.23848E-03  5554   0.337E-02    0.460E-02
RMM:   7    -0.231282125527E+04    0.52616E-04   -0.11084E-04  4061   0.117E-02    0.259E-02
RMM:   8    -0.231282124176E+04    0.13515E-04   -0.53228E-05  3388   0.627E-03    0.106E-02
RMM:   9    -0.231282123865E+04    0.31063E-05   -0.96444E-06  2838   0.444E-03
  17 F= -.23333196E+04 E0= -.23333196E+04  d E =-.100167E+00  mag=     1.0000
       N       E                     dE             d eps       ncg     rms          rms(c)
DAV:   1    -0.231269462415E+04    0.12662E+00   -0.64012E+01  4408   0.692E+00    0.149E+00
RMM:   2    -0.231293488770E+04   -0.24026E+00   -0.24934E+00  5834   0.116E+00    0.102E+00
RMM:   3    -0.231292419385E+04    0.10694E-01   -0.12911E-01  5589   0.286E-01    0.102E+00
RMM:   4    -0.231291177043E+04    0.12423E-01   -0.18441E-02  5880   0.883E-02    0.524E-01
RMM:   5    -0.231290895770E+04    0.28127E-02   -0.85666E-03  5598   0.640E-02    0.345E-01
RMM:   6    -0.231290738645E+04    0.15713E-02   -0.70520E-03  4815   0.545E-02    0.741E-02
RMM:   7    -0.231290725082E+04    0.13563E-03   -0.45516E-04  4396   0.323E-02    0.424E-02
RMM:   8    -0.231290722781E+04    0.23011E-04   -0.15999E-04  4151   0.914E-03    0.172E-02
RMM:   9    -0.231290722269E+04    0.51187E-05   -0.16792E-05  2920   0.646E-03
  18 F= -.23334074E+04 E0= -.23334074E+04  d E =-.878759E-01  mag=     1.0000
       N       E                     dE             d eps       ncg     rms          rms(c)
DAV:   1    -0.231259559512E+04    0.31163E+00   -0.10259E+02  4408   0.871E+00    0.189E+00
RMM:   2    -0.231299192101E+04   -0.39633E+00   -0.41331E+00  5801   0.144E+00    0.126E+00
RMM:   3    -0.231297397658E+04    0.17944E-01   -0.22939E-01  5463   0.391E-01    0.122E+00
RMM:   4    -0.231295707870E+04    0.16898E-01   -0.29560E-02  5925   0.110E-01    0.691E-01
RMM:   5    -0.231295213789E+04    0.49408E-02   -0.13769E-02  5645   0.810E-02    0.441E-01
RMM:   6    -0.231294958618E+04    0.25517E-02   -0.11805E-02  4780   0.688E-02    0.100E-01
RMM:   7    -0.231294932571E+04    0.26047E-03   -0.94931E-04  4444   0.431E-02    0.542E-02
RMM:   8    -0.231294929155E+04    0.34153E-04   -0.28848E-04  4365   0.116E-02    0.246E-02
RMM:   9    -0.231294928237E+04    0.91883E-05   -0.33677E-05  3054   0.829E-03
  19 F= -.23334519E+04 E0= -.23334519E+04  d E =-.132337E+00  mag=     1.0000
       N       E                     dE             d eps       ncg     rms          rms(c)
DAV:   1    -0.231264273700E+04    0.30655E+00   -0.97884E+01  4408   0.848E+00    0.199E+00
RMM:   2    -0.231305034514E+04   -0.40761E+00   -0.43100E+00  5755   0.147E+00    0.111E+00
RMM:   3    -0.231304611746E+04    0.42277E-02   -0.28668E-01  5385   0.428E-01    0.116E+00
RMM:   4    -0.231303209677E+04    0.14021E-01   -0.34572E-02  5995   0.110E-01    0.681E-01
RMM:   5    -0.231302690530E+04    0.51915E-02   -0.16646E-02  5594   0.950E-02    0.405E-01
RMM:   6    -0.231302487193E+04    0.20334E-02   -0.82235E-03  5338   0.598E-02    0.109E-01
RMM:   7    -0.231302462772E+04    0.24421E-03   -0.55635E-04  4619   0.262E-02    0.555E-02
RMM:   8    -0.231302458804E+04    0.39683E-04   -0.27208E-04  4482   0.118E-02    0.255E-02
RMM:   9    -0.231302457584E+04    0.12201E-04   -0.30412E-05  3047   0.728E-03    0.107E-02
RMM:  10    -0.231302457140E+04    0.44366E-05   -0.20515E-05  2904   0.437E-03
  20 F= -.23335283E+04 E0= -.23335283E+04  d E =-.764330E-01  mag=     1.0000
       N       E                     dE             d eps       ncg     rms          rms(c)
DAV:   1    -0.231301868043E+04    0.58954E-02   -0.19806E+00  4776   0.122E+00    0.271E-01
RMM:   2    -0.231302614995E+04   -0.74695E-02   -0.78864E-02  5838   0.210E-01    0.151E-01
RMM:   3    -0.231302619947E+04   -0.49522E-04   -0.46699E-03  5554   0.551E-02    0.178E-01
RMM:   4    -0.231302583517E+04    0.36430E-03   -0.61962E-04  4766   0.157E-02    0.859E-02
RMM:   5    -0.231302570596E+04    0.12921E-03   -0.46881E-04  4445   0.158E-02    0.205E-02
RMM:   6    -0.231302570333E+04    0.26231E-05   -0.33383E-05  3100   0.949E-03
  21 F= -.23335296E+04 E0= -.23335296E+04  d E =-.777253E-01  mag=     1.0000
       N       E                     dE             d eps       ncg     rms          rms(c)
DAV:   1    -0.231290561881E+04    0.12009E+00   -0.52820E+01  4408   0.617E+00    0.134E+00
RMM:   2    -0.231310193896E+04   -0.19632E+00   -0.20662E+00  5788   0.103E+00    0.936E-01
RMM:   3    -0.231310255037E+04   -0.61142E-03   -0.13787E-01  5561   0.273E-01    0.103E+00
RMM:   4    -0.231309022421E+04    0.12326E-01   -0.17326E-02  5850   0.795E-02    0.472E-01
RMM:   5    -0.231308780243E+04    0.24218E-02   -0.75750E-03  5588   0.614E-02    0.326E-01
RMM:   6    -0.231308641281E+04    0.13896E-02   -0.63168E-03  4694   0.504E-02    0.816E-02
RMM:   7    -0.231308625825E+04    0.15456E-03   -0.53898E-04  4270   0.326E-02    0.432E-02
RMM:   8    -0.231308622777E+04    0.30477E-04   -0.21635E-04  4346   0.938E-03    0.202E-02
RMM:   9    -0.231308621935E+04    0.84268E-05   -0.19665E-05  2884   0.590E-03
  22 F= -.23335901E+04 E0= -.23335901E+04  d E =-.605184E-01  mag=     1.0000
       N       E                     dE             d eps       ncg     rms          rms(c)
DAV:   1    -0.231297981531E+04    0.10641E+00   -0.36251E+01  4408   0.511E+00    0.109E+00
RMM:   2    -0.231310882174E+04   -0.12901E+00   -0.13655E+00  5769   0.848E-01    0.717E-01
RMM:   3    -0.231311093483E+04   -0.21131E-02   -0.98282E-02  5511   0.225E-01    0.818E-01
RMM:   4    -0.231310313432E+04    0.78005E-02   -0.11523E-02  5809   0.638E-02    0.383E-01
RMM:   5    -0.231310140363E+04    0.17307E-02   -0.58065E-03  5496   0.544E-02    0.252E-01
RMM:   6    -0.231310058799E+04    0.81564E-03   -0.37654E-03  4975   0.393E-02    0.711E-02
RMM:   7    -0.231310046322E+04    0.12477E-03   -0.30334E-04  4042   0.211E-02    0.373E-02
RMM:   8    -0.231310043670E+04    0.26523E-04   -0.17129E-04  4103   0.851E-03    0.173E-02
RMM:   9    -0.231310043033E+04    0.63719E-05   -0.16319E-05  2871   0.510E-03
  23 F= -.23336042E+04 E0= -.23336042E+04  d E =-.746203E-01  mag=     1.0000
       N       E                     dE             d eps       ncg     rms          rms(c)
DAV:   1    -0.231295403494E+04    0.14640E+00   -0.67201E+01  4408   0.718E+00    0.157E+00
RMM:   2    -0.231317407767E+04   -0.22004E+00   -0.23758E+00  5752   0.119E+00    0.773E-01
RMM:   3    -0.231315877716E+04    0.15301E-01   -0.11193E-01  5475   0.282E-01    0.522E-01
RMM:   4    -0.231315631092E+04    0.24662E-02   -0.17805E-02  5203   0.918E-02    0.446E-01
RMM:   5    -0.231315576737E+04    0.54356E-03   -0.11013E-02  5136   0.774E-02    0.419E-01
RMM:   6    -0.231315359257E+04    0.21748E-02   -0.24176E-03  5778   0.375E-02    0.115E-01
RMM:   7    -0.231315340102E+04    0.19155E-03   -0.39842E-04  4424   0.123E-02    0.496E-02
RMM:   8    -0.231315337413E+04    0.26887E-04   -0.22320E-04  4163   0.105E-02    0.225E-02
RMM:   9    -0.231315336872E+04    0.54064E-05   -0.28357E-05  2936   0.548E-03
  24 F= -.23336560E+04 E0= -.23336560E+04  d E =-.517635E-01  mag=     1.0000
       N       E                     dE             d eps       ncg     rms          rms(c)
DAV:   1    -0.231315113706E+04    0.22371E-02   -0.11762E+00  4768   0.945E-01    0.201E-01
RMM:   2    -0.231315468013E+04   -0.35431E-02   -0.38483E-02  5801   0.157E-01    0.943E-02
RMM:   3    -0.231315445497E+04    0.22516E-03   -0.14709E-03  5394   0.358E-02    0.655E-02
RMM:   4    -0.231315448478E+04   -0.29810E-04   -0.37794E-04  4644   0.144E-02    0.949E-02
RMM:   5    -0.231315437671E+04    0.10807E-03   -0.15691E-04  4313   0.104E-02    0.257E-02
RMM:   6    -0.231315437051E+04    0.61990E-05   -0.21725E-05  2896   0.458E-03
  25 F= -.23336568E+04 E0= -.23336568E+04  d E =-.525809E-01  mag=     1.0000
       N       E                     dE             d eps       ncg     rms          rms(c)
DAV:   1    -0.231306995131E+04    0.84425E-01   -0.33318E+01  4408   0.526E+00    0.116E+00
RMM:   2    -0.231320903824E+04   -0.13909E+00   -0.14530E+00  5815   0.923E-01    0.775E-01
RMM:   3    -0.231320796990E+04    0.10683E-02   -0.81047E-02  5576   0.230E-01    0.901E-01
RMM:   4    -0.231319845662E+04    0.95133E-02   -0.11654E-02  5792   0.731E-02    0.393E-01
RMM:   5    -0.231319615462E+04    0.23020E-02   -0.80488E-03  4960   0.596E-02    0.199E-01
RMM:   6    -0.231319573409E+04    0.42052E-03   -0.25493E-03  5126   0.401E-02    0.872E-02
RMM:   7    -0.231319561783E+04    0.11626E-03   -0.30375E-04  4408   0.123E-02    0.402E-02
RMM:   8    -0.231319558810E+04    0.29730E-04   -0.13477E-04  3833   0.947E-03    0.179E-02
RMM:   9    -0.231319558020E+04    0.79051E-05   -0.27523E-05  3025   0.490E-03
  26 F= -.23336967E+04 E0= -.23336967E+04  d E =-.398660E-01  mag=     1.0000
       N       E                     dE             d eps       ncg     rms          rms(c)
DAV:   1    -0.231319209268E+04    0.34954E-02   -0.13472E+00  4624   0.106E+00    0.231E-01
RMM:   2    -0.231319752349E+04   -0.54308E-02   -0.57004E-02  5834   0.187E-01    0.152E-01
RMM:   3    -0.231319757088E+04   -0.47394E-04   -0.32387E-03  5527   0.497E-02    0.189E-01
RMM:   4    -0.231319714991E+04    0.42097E-03   -0.46929E-04  4554   0.148E-02    0.756E-02
RMM:   5    -0.231319703709E+04    0.11282E-03   -0.39736E-04  4418   0.143E-02    0.202E-02
RMM:   6    -0.231319703553E+04    0.15580E-05   -0.39561E-05  3124   0.995E-03
  27 F= -.23336978E+04 E0= -.23336978E+04  d E =-.410246E-01  mag=     1.0000
       N       E                     dE             d eps       ncg     rms          rms(c)
DAV:   1    -0.231310515827E+04    0.91879E-01   -0.33556E+01  4408   0.547E+00    0.112E+00
RMM:   2    -0.231324212910E+04   -0.13697E+00   -0.14383E+00  5725   0.911E-01    0.690E-01
RMM:   3    -0.231324366696E+04   -0.15379E-02   -0.90884E-02  5403   0.239E-01    0.733E-01
RMM:   4    -0.231323830076E+04    0.53662E-02   -0.11582E-02  5773   0.693E-02    0.416E-01
RMM:   5    -0.231323603425E+04    0.22665E-02   -0.67136E-03  5133   0.558E-02    0.213E-01
RMM:   6    -0.231323562498E+04    0.40927E-03   -0.28686E-03  5196   0.404E-02    0.923E-02
RMM:   7    -0.231323549915E+04    0.12583E-03   -0.32414E-04  4593   0.136E-02    0.423E-02
RMM:   8    -0.231323548103E+04    0.18117E-04   -0.12230E-04  3584   0.825E-03    0.185E-02
RMM:   9    -0.231323548266E+04   -0.16305E-05   -0.24330E-05  2883   0.471E-03
  28 F= -.23337355E+04 E0= -.23337355E+04  d E =-.376308E-01  mag=     1.0000
       N       E                     dE             d eps       ncg     rms          rms(c)
DAV:   1    -0.231321991689E+04    0.15564E-01   -0.50790E+00  4448   0.212E+00    0.430E-01
RMM:   2    -0.231324012094E+04   -0.20204E-01   -0.21265E-01  5689   0.349E-01    0.256E-01
RMM:   3    -0.231324035010E+04   -0.22916E-03   -0.12008E-02  5333   0.943E-02    0.287E-01
RMM:   4    -0.231323952425E+04    0.82585E-03   -0.17273E-03  5409   0.265E-02    0.155E-01
RMM:   5    -0.231323914198E+04    0.38227E-03   -0.11946E-03  4638   0.242E-02    0.597E-02
RMM:   6    -0.231323912147E+04    0.20509E-04   -0.25592E-04  4201   0.169E-02    0.286E-02
RMM:   7    -0.231323911255E+04    0.89208E-05   -0.33235E-05  3025   0.456E-03
  29 F= -.23337387E+04 E0= -.23337387E+04  d E =-.408941E-01  mag=     1.0000
       N       E                     dE             d eps       ncg     rms          rms(c)
DAV:   1    -0.231309516250E+04    0.14396E+00   -0.35648E+01  4408   0.581E+00    0.123E+00
RMM:   2    -0.231327109006E+04   -0.17593E+00   -0.18750E+00  5712   0.977E-01    0.634E-01
RMM:   3    -0.231327548711E+04   -0.43970E-02   -0.15198E-01  5375   0.276E-01    0.476E-01
RMM:   4    -0.231327498473E+04    0.50238E-03   -0.15804E-02  5501   0.751E-02    0.457E-01
RMM:   5    -0.231327340150E+04    0.15832E-02   -0.67138E-03  5421   0.550E-02    0.332E-01
RMM:   6    -0.231327226823E+04    0.11333E-02   -0.29781E-03  4868   0.371E-02    0.117E-01
RMM:   7    -0.231327208716E+04    0.18107E-03   -0.49867E-04  4464   0.250E-02    0.634E-02
RMM:   8    -0.231327202902E+04    0.58136E-04   -0.22128E-04  3705   0.104E-02    0.251E-02
RMM:   9    -0.231327203177E+04   -0.27461E-05   -0.60718E-05  3078   0.541E-03
  30 F= -.23337703E+04 E0= -.23337703E+04  d E =-.315204E-01  mag=     1.0000
       N       E                     dE             d eps       ncg     rms          rms(c)
DAV:   1    -0.231326966292E+04    0.23661E-02   -0.62922E-01  4752   0.775E-01    0.162E-01
RMM:   2    -0.231327274036E+04   -0.30774E-02   -0.32774E-02  5752   0.130E-01    0.810E-02
RMM:   3    -0.231327276702E+04   -0.26656E-04   -0.20127E-03  5037   0.382E-02    0.548E-02
RMM:   4    -0.231327273212E+04    0.34892E-04   -0.31435E-04  4177   0.113E-02    0.367E-02
RMM:   5    -0.231327273981E+04   -0.76875E-05   -0.70241E-05  3239   0.814E-03
  31 F= -.23337708E+04 E0= -.23337708E+04  d E =-.320309E-01  mag=     1.0000
       N       E                     dE             d eps       ncg     rms          rms(c)
DAV:   1    -0.231314538407E+04    0.12735E+00   -0.24384E+01  4408   0.497E+00    0.111E+00
RMM:   2    -0.231329220800E+04   -0.14682E+00   -0.15729E+00  5754   0.865E-01    0.559E-01
RMM:   3    -0.231329783095E+04   -0.56230E-02   -0.14160E-01  5376   0.253E-01    0.414E-01
RMM:   4    -0.231329753164E+04    0.29930E-03   -0.15393E-02  5350   0.655E-02    0.393E-01
RMM:   5    -0.231329633146E+04    0.12002E-02   -0.37100E-03  5472   0.451E-02    0.303E-01
RMM:   6    -0.231329532698E+04    0.10045E-02   -0.31049E-03  4871   0.374E-02    0.107E-01
RMM:   7    -0.231329518132E+04    0.14566E-03   -0.47701E-04  4500   0.206E-02    0.581E-02
RMM:   8    -0.231329512033E+04    0.60985E-04   -0.16547E-04  3707   0.932E-03    0.285E-02
RMM:   9    -0.231329510968E+04    0.10654E-04   -0.52197E-05  3014   0.569E-03    0.122E-02
RMM:  10    -0.231329510600E+04    0.36837E-05   -0.19269E-05  2888   0.453E-03
  32 F= -.23337913E+04 E0= -.23337913E+04  d E =-.205740E-01  mag=     1.0000
       N       E                     dE             d eps       ncg     rms          rms(c)
DAV:   1    -0.231329458750E+04    0.52218E-03   -0.77014E-02  5104   0.280E-01    0.622E-02
RMM:   2    -0.231329505772E+04   -0.47022E-03   -0.49814E-03  6019   0.497E-02    0.312E-02
RMM:   3    -0.231329506760E+04   -0.98763E-05   -0.31396E-04  3409   0.144E-02    0.220E-02
RMM:   4    -0.231329506918E+04   -0.15816E-05   -0.42488E-05  2887   0.497E-03
  33 F= -.23337914E+04 E0= -.23337914E+04  d E =-.206410E-01  mag=     1.0000
       N       E                     dE             d eps       ncg     rms          rms(c)
DAV:   1    -0.231323711938E+04    0.57948E-01   -0.12043E+01  4408   0.362E+00    0.770E-01
RMM:   2    -0.231331438831E+04   -0.77269E-01   -0.80730E-01  5689   0.620E-01    0.421E-01
RMM:   3    -0.231331637034E+04   -0.19820E-02   -0.57902E-02  5250   0.190E-01    0.392E-01
RMM:   4    -0.231331559233E+04    0.77801E-03   -0.71623E-03  5621   0.474E-02    0.306E-01
RMM:   5    -0.231331437460E+04    0.12177E-02   -0.26994E-03  5225   0.365E-02    0.135E-01
RMM:   6    -0.231331424281E+04    0.13179E-03   -0.10841E-03  5019   0.250E-02    0.645E-02
RMM:   7    -0.231331418390E+04    0.58906E-04   -0.17723E-04  4247   0.116E-02    0.304E-02
RMM:   8    -0.231331416987E+04    0.14034E-04   -0.47512E-05  2957   0.589E-03    0.131E-02
RMM:   9    -0.231331416866E+04    0.12032E-05   -0.12972E-05  2849   0.380E-03
  34 F= -.23338093E+04 E0= -.23338093E+04  d E =-.178477E-01  mag=     1.0000
       N       E                     dE             d eps       ncg     rms          rms(c)
DAV:   1    -0.231330094599E+04    0.13224E-01   -0.25110E+00  4432   0.165E+00    0.350E-01
RMM:   2    -0.231331679358E+04   -0.15848E-01   -0.16598E-01  5650   0.281E-01    0.181E-01
RMM:   3    -0.231331713859E+04   -0.34501E-03   -0.12062E-02  5236   0.935E-02    0.133E-01
RMM:   4    -0.231331719670E+04   -0.58115E-04   -0.15910E-03  5226   0.227E-02    0.153E-01
RMM:   5    -0.231331695026E+04    0.24644E-03   -0.60515E-04  5019   0.174E-02    0.782E-02
RMM:   6    -0.231331689107E+04    0.59198E-04   -0.21087E-04  4372   0.108E-02    0.297E-02
RMM:   7    -0.231331687946E+04    0.11604E-04   -0.33223E-05  3018   0.692E-03    0.126E-02
RMM:   8    -0.231331687770E+04    0.17622E-05   -0.10729E-05  2830   0.324E-03
  35 F= -.23338114E+04 E0= -.23338114E+04  d E =-.199722E-01  mag=     1.0000
       N       E                     dE             d eps       ncg     rms          rms(c)
DAV:   1    -0.231329142638E+04    0.25453E-01   -0.65494E+00  4408   0.268E+00    0.546E-01
RMM:   2    -0.231333452140E+04   -0.43095E-01   -0.43034E-01  5717   0.458E-01    0.481E-01
RMM:   3    -0.231333514742E+04   -0.62603E-03   -0.31851E-02  4974   0.140E-01    0.430E-01
RMM:   4    -0.231333305131E+04    0.20961E-02   -0.40681E-03  5348   0.375E-02    0.190E-01
RMM:   5    -0.231333250312E+04    0.54819E-03   -0.17222E-03  5038   0.298E-02    0.903E-02
RMM:   6    -0.231333246662E+04    0.36497E-04   -0.56815E-04  4810   0.201E-02    0.406E-02
RMM:   7    -0.231333244848E+04    0.18145E-04   -0.89453E-05  3573   0.823E-03    0.208E-02
RMM:   8    -0.231333244743E+04    0.10472E-05   -0.20828E-05  2886   0.479E-03
  36 F= -.23338258E+04 E0= -.23338258E+04  d E =-.143803E-01  mag=     1.0000
       N       E                     dE             d eps       ncg     rms          rms(c)
DAV:   1    -0.231330915405E+04    0.23294E-01   -0.45670E+00  4408   0.224E+00    0.455E-01
RMM:   2    -0.231333906498E+04   -0.29911E-01   -0.29939E-01  5710   0.383E-01    0.391E-01
RMM:   3    -0.231333960144E+04   -0.53645E-03   -0.21994E-02  4992   0.120E-01    0.358E-01
RMM:   4    -0.231333815136E+04    0.14501E-02   -0.28198E-03  5306   0.313E-02    0.158E-01
RMM:   5    -0.231333776628E+04    0.38508E-03   -0.12081E-03  4976   0.250E-02    0.744E-02
RMM:   6    -0.231333774127E+04    0.25018E-04   -0.38913E-04  4714   0.170E-02    0.334E-02
RMM:   7    -0.231333772842E+04    0.12848E-04   -0.61742E-05  3339   0.699E-03    0.173E-02
RMM:   8    -0.231333772712E+04    0.13007E-05   -0.14295E-05  2861   0.441E-03
  37 F= -.23338300E+04 E0= -.23338300E+04  d E =-.186613E-01  mag=     1.0000
       N       E                     dE             d eps       ncg     rms          rms(c)
DAV:   1    -0.231333917676E+04   -0.14483E-02   -0.13405E+00  4480   0.124E+00    0.293E-01
RMM:   2    -0.231334423326E+04   -0.50565E-02   -0.54936E-02  5534   0.197E-01    0.133E-01
RMM:   3    -0.231334405532E+04    0.17794E-03   -0.28099E-03  5134   0.638E-02    0.126E-01
RMM:   4    -0.231334396431E+04    0.91007E-04   -0.56808E-04  5135   0.177E-02    0.106E-01
RMM:   5    -0.231334381760E+04    0.14671E-03   -0.40827E-04  4851   0.162E-02    0.364E-02
RMM:   6    -0.231334380467E+04    0.12925E-04   -0.66838E-05  3392   0.913E-03    0.150E-02
RMM:   7    -0.231334380220E+04    0.24685E-05   -0.11180E-05  2852   0.325E-03
  38 F= -.23338359E+04 E0= -.23338359E+04  d E =-.584189E-02  mag=     1.0000
       N       E                     dE             d eps       ncg     rms          rms(c)
DAV:   1    -0.231334312795E+04    0.67672E-03   -0.62265E-01  4512   0.844E-01    0.199E-01
RMM:   2    -0.231334547094E+04   -0.23430E-02   -0.25490E-02  5559   0.135E-01    0.901E-02
RMM:   3    -0.231334537759E+04    0.93352E-04   -0.13005E-03  5062   0.456E-02    0.812E-02
RMM:   4    -0.231334534821E+04    0.29378E-04   -0.26134E-04  4622   0.124E-02    0.748E-02
RMM:   5    -0.231334527550E+04    0.72709E-04   -0.19730E-04  4507   0.116E-02    0.263E-02
RMM:   6    -0.231334526721E+04    0.82978E-05   -0.33050E-05  3016   0.702E-03
  39 F= -.23338372E+04 E0= -.23338372E+04  d E =-.714686E-02  mag=     1.0000
       N       E                     dE             d eps       ncg     rms          rms(c)
DAV:   1    -0.231334798929E+04   -0.27138E-02   -0.16064E+00  4432   0.133E+00    0.259E-01
RMM:   2    -0.231335189255E+04   -0.39033E-02   -0.42710E-02  5299   0.192E-01    0.121E-01
RMM:   3    -0.231335150079E+04    0.39176E-03   -0.16879E-03  4818   0.576E-02    0.924E-02
RMM:   4    -0.231335154650E+04   -0.45703E-04   -0.46611E-04  5096   0.175E-02    0.124E-01
RMM:   5    -0.231335135001E+04    0.19648E-03   -0.41680E-04  5058   0.174E-02    0.252E-02
RMM:   6    -0.231335134234E+04    0.76700E-05   -0.37138E-05  3119   0.792E-03
  40 F= -.23338429E+04 E0= -.23338429E+04  d E =-.573812E-02  mag=     1.0000
       N       E                     dE             d eps       ncg     rms          rms(c)
DAV:   1    -0.231334891323E+04    0.24368E-02   -0.26740E+00  4432   0.172E+00    0.334E-01
RMM:   2    -0.231335541160E+04   -0.64984E-02   -0.71149E-02  5297   0.249E-01    0.157E-01
RMM:   3    -0.231335475246E+04    0.65915E-03   -0.28066E-03  4856   0.755E-02    0.117E-01
RMM:   4    -0.231335485017E+04   -0.97713E-04   -0.80897E-04  5172   0.233E-02    0.166E-01
RMM:   5    -0.231335449504E+04    0.35513E-03   -0.70276E-04  5199   0.225E-02    0.290E-02
RMM:   6    -0.231335448256E+04    0.12476E-04   -0.53929E-05  3416   0.950E-03    0.165E-02
RMM:   7    -0.231335447893E+04    0.36306E-05   -0.19096E-05  2885   0.413E-03
  41 F= -.23338456E+04 E0= -.23338456E+04  d E =-.843490E-02  mag=     1.0000
       N       E                     dE             d eps       ncg     rms          rms(c)
DAV:   1    -0.231335572091E+04   -0.12384E-02   -0.21845E+00  4432   0.152E+00    0.286E-01
RMM:   2    -0.231336042846E+04   -0.47076E-02   -0.51828E-02  5087   0.220E-01    0.137E-01
RMM:   3    -0.231335991738E+04    0.51108E-03   -0.19581E-03  4863   0.703E-02    0.963E-02
RMM:   4    -0.231335993207E+04   -0.14683E-04   -0.66733E-04  4794   0.212E-02    0.120E-01
RMM:   5    -0.231335979255E+04    0.13952E-03   -0.38583E-04  5133   0.181E-02    0.689E-02
RMM:   6    -0.231335973700E+04    0.55554E-04   -0.95076E-05  3889   0.830E-03    0.160E-02
RMM:   7    -0.231335973144E+04    0.55610E-05   -0.18795E-05  2928   0.555E-03
  42 F= -.23338505E+04 E0= -.23338505E+04  d E =-.486765E-02  mag=     1.0000
       N       E                     dE             d eps       ncg     rms          rms(c)
DAV:   1    -0.231335974497E+04   -0.79746E-05   -0.59967E-01  4496   0.796E-01    0.150E-01
RMM:   2    -0.231336102652E+04   -0.12815E-02   -0.14149E-02  5111   0.115E-01    0.720E-02
RMM:   3    -0.231336089005E+04    0.13647E-03   -0.55866E-04  4727   0.390E-02    0.499E-02
RMM:   4    -0.231336088488E+04    0.51769E-05   -0.19124E-04  4453   0.115E-02    0.582E-02
RMM:   5    -0.231336085440E+04    0.30478E-04   -0.10082E-04  3873   0.979E-03    0.379E-02
RMM:   6    -0.231336083753E+04    0.16868E-04   -0.26844E-05  2982   0.527E-03    0.843E-03
RMM:   7    -0.231336083581E+04    0.17186E-05   -0.54919E-06  2804   0.367E-03
  43 F= -.23338514E+04 E0= -.23338514E+04  d E =-.576724E-02  mag=     1.0000
       N       E                     dE             d eps       ncg     rms          rms(c)
DAV:   1    -0.231336128473E+04   -0.44720E-03   -0.91052E-01  4496   0.101E+00    0.238E-01
RMM:   2    -0.231336434878E+04   -0.30641E-02   -0.33184E-02  5642   0.164E-01    0.107E-01
RMM:   3    -0.231336432873E+04    0.20054E-04   -0.19606E-03  5320   0.486E-02    0.136E-01
RMM:   4    -0.231336415989E+04    0.16884E-03   -0.31079E-04  4700   0.136E-02    0.681E-02
RMM:   5    -0.231336408438E+04    0.75511E-04   -0.26555E-04  4506   0.137E-02    0.203E-02
RMM:   6    -0.231336408044E+04    0.39417E-05   -0.28588E-05  3057   0.826E-03
  44 F= -.23338548E+04 E0= -.23338548E+04  d E =-.343781E-02  mag=     1.0000
       N       E                     dE             d eps       ncg     rms          rms(c)
DAV:   1    -0.231335977541E+04    0.43090E-02   -0.15253E+00  4452   0.130E+00    0.309E-01
RMM:   2    -0.231336494918E+04   -0.51738E-02   -0.56025E-02  5645   0.213E-01    0.140E-01
RMM:   3    -0.231336492089E+04    0.28294E-04   -0.32745E-03  5392   0.586E-02    0.179E-01
RMM:   4    -0.231336462383E+04    0.29706E-03   -0.52173E-04  5134   0.173E-02    0.883E-02
RMM:   5    -0.231336449061E+04    0.13322E-03   -0.44382E-04  4615   0.174E-02    0.259E-02
RMM:   6    -0.231336448434E+04    0.62673E-05   -0.47758E-05  3393   0.102E-02
  45 F= -.23338555E+04 E0= -.23338555E+04  d E =-.408309E-02  mag=     1.0000
       N       E                     dE             d eps       ncg     rms          rms(c)
DAV:   1    -0.231336436613E+04    0.12448E-03   -0.14819E-01  4592   0.405E-01    0.941E-02
RMM:   2    -0.231336485227E+04   -0.48614E-03   -0.53046E-03  5698   0.661E-02    0.412E-02
RMM:   3    -0.231336484147E+04    0.10801E-04   -0.30239E-04  4485   0.208E-02    0.464E-02
RMM:   4    -0.231336482549E+04    0.15980E-04   -0.46110E-05  2995   0.605E-03    0.298E-02
RMM:   5    -0.231336481450E+04    0.10986E-04   -0.42334E-05  3391   0.630E-03    0.120E-02
RMM:   6    -0.231336481370E+04    0.80420E-06   -0.83793E-06  2847   0.439E-03
  46 F= -.23338557E+04 E0= -.23338557E+04  d E =-.433837E-02  mag=     1.0000
       N       E                     dE             d eps       ncg     rms          rms(c)
DAV:   1    -0.231336480623E+04    0.82696E-05   -0.49637E-01  4432   0.736E-01    0.148E-01
RMM:   2    -0.231336699437E+04   -0.21881E-02   -0.23222E-02  5695   0.122E-01    0.792E-02
RMM:   3    -0.231336703429E+04   -0.39914E-04   -0.16405E-03  5153   0.374E-02    0.773E-02
RMM:   4    -0.231336698317E+04    0.51115E-04   -0.20088E-04  3671   0.953E-03    0.536E-02
RMM:   5    -0.231336694715E+04    0.36026E-04   -0.10127E-04  3808   0.889E-03    0.255E-02
RMM:   6    -0.231336694159E+04    0.55541E-05   -0.49285E-05  3313   0.663E-03
  47 F= -.23338579E+04 E0= -.23338579E+04  d E =-.219119E-02  mag=     1.0000
       N       E                     dE             d eps       ncg     rms          rms(c)
DAV:   1    -0.231335001382E+04    0.16933E-01   -0.44588E+00  4408   0.221E+00    0.447E-01
RMM:   2    -0.231336983400E+04   -0.19820E-01   -0.20997E-01  5694   0.368E-01    0.241E-01
RMM:   3    -0.231337024871E+04   -0.41470E-03   -0.15479E-02  5483   0.103E-01    0.235E-01
RMM:   4    -0.231336979589E+04    0.45282E-03   -0.18692E-03  5604   0.275E-02    0.163E-01
RMM:   5    -0.231336946806E+04    0.32783E-03   -0.84251E-04  5077   0.221E-02    0.765E-02
RMM:   6    -0.231336941814E+04    0.49928E-04   -0.43589E-04  4965   0.167E-02    0.321E-02
RMM:   7    -0.231336940007E+04    0.18066E-04   -0.41967E-05  3061   0.776E-03    0.168E-02
RMM:   8    -0.231336939606E+04    0.40042E-05   -0.19126E-05  2863   0.388E-03
  48 F= -.23338605E+04 E0= -.23338605E+04  d E =-.481076E-02  mag=     1.0000
       N       E                     dE             d eps       ncg     rms          rms(c)
DAV:   1    -0.231336588005E+04    0.35200E-02   -0.11929E+00  4420   0.115E+00    0.244E-01
RMM:   2    -0.231337279527E+04   -0.69152E-02   -0.73176E-02  5753   0.202E-01    0.130E-01
RMM:   3    -0.231337297882E+04   -0.18355E-03   -0.53576E-03  5473   0.600E-02    0.123E-01
RMM:   4    -0.231337286270E+04    0.11612E-03   -0.64845E-04  4914   0.153E-02    0.889E-02
RMM:   5    -0.231337276299E+04    0.99706E-04   -0.25941E-04  4435   0.124E-02    0.390E-02
RMM:   6    -0.231337274664E+04    0.16358E-04   -0.11522E-04  4219   0.923E-03    0.137E-02
RMM:   7    -0.231337274325E+04    0.33874E-05   -0.13280E-05  2836   0.545E-03
  49 F= -.23338639E+04 E0= -.23338639E+04  d E =-.339497E-02  mag=     1.0000
       N       E                     dE             d eps       ncg     rms          rms(c)
DAV:   1    -0.231336036068E+04    0.12386E-01   -0.24167E+00  4408   0.163E+00    0.347E-01
RMM:   2    -0.231337439908E+04   -0.14038E-01   -0.14845E-01  5759   0.289E-01    0.191E-01
RMM:   3    -0.231337483293E+04   -0.43385E-03   -0.11134E-02  5530   0.838E-02    0.190E-01
RMM:   4    -0.231337451910E+04    0.31384E-03   -0.13362E-03  5448   0.220E-02    0.124E-01
RMM:   5    -0.231337432022E+04    0.19887E-03   -0.50468E-04  4853   0.168E-02    0.560E-02
RMM:   6    -0.231337428469E+04    0.35537E-04   -0.25420E-04  4725   0.128E-02    0.211E-02
RMM:   7    -0.231337427598E+04    0.87021E-05   -0.26717E-05  2902   0.698E-03
  50 F= -.23338655E+04 E0= -.23338655E+04  d E =-.497733E-02  mag=     1.0000
       N       E                     dE             d eps       ncg     rms          rms(c)
DAV:   1    -0.231336529177E+04    0.89929E-02   -0.18205E+00  4408   0.143E+00    0.320E-01
RMM:   2    -0.231337680934E+04   -0.11518E-01   -0.12269E-01  5800   0.262E-01    0.151E-01
RMM:   3    -0.231337705295E+04   -0.24361E-03   -0.88914E-03  5525   0.737E-02    0.129E-01
RMM:   4    -0.231337698914E+04    0.63816E-04   -0.10436E-03  5189   0.190E-02    0.115E-01
RMM:   5    -0.231337683195E+04    0.15718E-03   -0.44018E-04  4716   0.154E-02    0.525E-02
RMM:   6    -0.231337680246E+04    0.29500E-04   -0.14751E-04  4368   0.100E-02    0.218E-02
RMM:   7    -0.231337679650E+04    0.59592E-05   -0.24899E-05  2951   0.650E-03
  51 F= -.23338682E+04 E0= -.23338682E+04  d E =-.268219E-02  mag=     1.0000
       N       E                     dE             d eps       ncg     rms          rms(c)
DAV:   1    -0.231337497323E+04    0.18292E-02   -0.29473E-01  4560   0.575E-01    0.130E-01
RMM:   2    -0.231337684707E+04   -0.18738E-02   -0.19947E-02  5839   0.106E-01    0.623E-02
RMM:   3    -0.231337689406E+04   -0.46994E-04   -0.14604E-03  5087   0.294E-02    0.566E-02
RMM:   4    -0.231337687537E+04    0.18690E-04   -0.16531E-04  3230   0.802E-03    0.459E-02
RMM:   5    -0.231337684869E+04    0.26676E-04   -0.69203E-05  3152   0.706E-03    0.207E-02
RMM:   6    -0.231337684376E+04    0.49290E-05   -0.31353E-05  3110   0.569E-03
  52 F= -.23338683E+04 E0= -.23338683E+04  d E =-.279014E-02  mag=     1.0000
       N       E                     dE             d eps       ncg     rms          rms(c)
DAV:   1    -0.231337364582E+04    0.32029E-02   -0.85030E-01  4420   0.972E-01    0.209E-01
RMM:   2    -0.231337857819E+04   -0.49324E-02   -0.52052E-02  5818   0.176E-01    0.138E-01
RMM:   3    -0.231337873943E+04   -0.16124E-03   -0.39541E-03  5465   0.480E-02    0.149E-01
RMM:   4    -0.231337848412E+04    0.25531E-03   -0.49115E-04  4639   0.140E-02    0.690E-02
RMM:   5    -0.231337843008E+04    0.54035E-04   -0.16541E-04  4109   0.997E-03    0.428E-02
RMM:   6    -0.231337840691E+04    0.23169E-04   -0.14371E-04  4267   0.103E-02    0.155E-02
RMM:   7    -0.231337840224E+04    0.46712E-05   -0.12506E-05  2835   0.551E-03
  53 F= -.23338700E+04 E0= -.23338700E+04  d E =-.167204E-02  mag=     1.0000
       N       E                     dE             d eps       ncg     rms          rms(c)
DAV:   1    -0.231337738943E+04    0.10175E-02   -0.20577E-01  4496   0.479E-01    0.103E-01
RMM:   2    -0.231337859031E+04   -0.12009E-02   -0.12651E-02  5810   0.872E-02    0.683E-02
RMM:   3    -0.231337863232E+04   -0.42012E-04   -0.96926E-04  4690   0.249E-02    0.744E-02
RMM:   4    -0.231337856784E+04    0.64486E-04   -0.11818E-04  3124   0.747E-03    0.340E-02
RMM:   5    -0.231337855415E+04    0.13691E-04   -0.41274E-05  3052   0.587E-03    0.212E-02
RMM:   6    -0.231337854879E+04    0.53604E-05   -0.38457E-05  3086   0.621E-03
  54 F= -.23338702E+04 E0= -.23338702E+04  d E =-.187218E-02  mag=     1.0000
       N       E                     dE             d eps       ncg     rms          rms(c)
DAV:   1    -0.231337705057E+04    0.15036E-02   -0.56044E-01  4420   0.809E-01    0.190E-01
RMM:   2    -0.231337996177E+04   -0.29112E-02   -0.31305E-02  5816   0.150E-01    0.917E-02
RMM:   3    -0.231337998519E+04   -0.23419E-04   -0.18847E-03  5345   0.397E-02    0.109E-01
RMM:   4    -0.231337985496E+04    0.13022E-03   -0.26437E-04  4182   0.115E-02    0.548E-02
RMM:   5    -0.231337981283E+04    0.42135E-04   -0.15238E-04  4209   0.105E-02    0.239E-02
RMM:   6    -0.231337980754E+04    0.52862E-05   -0.43301E-05  3100   0.697E-03
  55 F= -.23338716E+04 E0= -.23338716E+04  d E =-.141058E-02  mag=     1.0000
       N       E                     dE             d eps       ncg     rms          rms(c)
DAV:   1    -0.231337904232E+04    0.77051E-03   -0.16337E-01  4528   0.437E-01    0.104E-01
RMM:   2    -0.231337989921E+04   -0.85689E-03   -0.92198E-03  5947   0.826E-02    0.484E-02
RMM:   3    -0.231337990576E+04   -0.65506E-05   -0.57790E-04  4738   0.237E-02    0.555E-02
RMM:   4    -0.231337987424E+04    0.31524E-04   -0.74955E-05  3032   0.691E-03    0.309E-02
RMM:   5    -0.231337986117E+04    0.13070E-04   -0.46895E-05  3129   0.636E-03    0.128E-02
RMM:   6    -0.231337986008E+04    0.10901E-05   -0.14079E-05  2849   0.486E-03
  56 F= -.23338717E+04 E0= -.23338717E+04  d E =-.154405E-02  mag=     1.0000
       N       E                     dE             d eps       ncg     rms          rms(c)
DAV:   1    -0.231337843784E+04    0.14233E-02   -0.49244E-01  4420   0.760E-01    0.163E-01
RMM:   2    -0.231338100068E+04   -0.25628E-02   -0.26349E-02  5801   0.137E-01    0.116E-01
RMM:   3    -0.231338103246E+04   -0.31785E-04   -0.17702E-03  5289   0.381E-02    0.130E-01
RMM:   4    -0.231338081433E+04    0.21814E-03   -0.24329E-04  4142   0.113E-02    0.441E-02
RMM:   5    -0.231338078871E+04    0.25618E-04   -0.11541E-04  4059   0.896E-03    0.295E-02
RMM:   6    -0.231338077599E+04    0.12713E-04   -0.52348E-05  3262   0.723E-03    0.867E-03
RMM:   7    -0.231338077486E+04    0.11384E-05   -0.73077E-06  2825   0.465E-03
  57 F= -.23338728E+04 E0= -.23338728E+04  d E =-.108757E-02  mag=     1.0000
       N       E                     dE             d eps       ncg     rms          rms(c)
DAV:   1    -0.231337913744E+04    0.16386E-02   -0.37325E-01  4432   0.662E-01    0.142E-01
RMM:   2    -0.231338108746E+04   -0.19500E-02   -0.19967E-02  5806   0.119E-01    0.104E-01
RMM:   3    -0.231338110328E+04   -0.15819E-04   -0.13499E-03  5160   0.328E-02    0.114E-01
RMM:   4    -0.231338093378E+04    0.16950E-03   -0.18575E-04  3769   0.991E-03    0.385E-02
RMM:   5    -0.231338091388E+04    0.19896E-04   -0.86730E-05  3800   0.799E-03    0.265E-02
RMM:   6    -0.231338090290E+04    0.10986E-04   -0.43300E-05  3130   0.662E-03    0.735E-03
RMM:   7    -0.231338090202E+04    0.87830E-06   -0.63888E-06  2813   0.448E-03
  58 F= -.23338731E+04 E0= -.23338731E+04  d E =-.136330E-02  mag=     1.0000
       N       E                     dE             d eps       ncg     rms          rms(c)
DAV:   1    -0.231337919973E+04    0.17032E-02   -0.51982E-01  4420   0.787E-01    0.175E-01
RMM:   2    -0.231338213102E+04   -0.29313E-02   -0.29519E-02  5810   0.143E-01    0.144E-01
RMM:   3    -0.231338206644E+04    0.64579E-04   -0.19085E-03  5298   0.388E-02    0.143E-01
RMM:   4    -0.231338179496E+04    0.27149E-03   -0.26904E-04  4460   0.120E-02    0.452E-02
RMM:   5    -0.231338177032E+04    0.24638E-04   -0.12329E-04  4182   0.919E-03    0.329E-02
RMM:   6    -0.231338175411E+04    0.16215E-04   -0.55319E-05  3320   0.730E-03    0.764E-03
RMM:   7    -0.231338175357E+04    0.53452E-06   -0.67202E-06  2823   0.463E-03
  59 F= -.23338742E+04 E0= -.23338742E+04  d E =-.110701E-02  mag=     1.0000
       N       E                     dE             d eps       ncg     rms          rms(c)
DAV:   1    -0.231338070626E+04    0.10478E-02   -0.21203E-01  4464   0.503E-01    0.112E-01
RMM:   2    -0.231338190387E+04   -0.11976E-02   -0.12062E-02  5798   0.918E-02    0.916E-02
RMM:   3    -0.231338187980E+04    0.24070E-04   -0.78588E-04  4908   0.260E-02    0.915E-02
RMM:   4    -0.231338176792E+04    0.11188E-03   -0.10820E-04  3228   0.794E-03    0.292E-02
RMM:   5    -0.231338175761E+04    0.10308E-04   -0.49841E-05  3370   0.661E-03    0.215E-02
RMM:   6    -0.231338175100E+04    0.66130E-05   -0.25769E-05  2907   0.560E-03
  60 F= -.23338744E+04 E0= -.23338744E+04  d E =-.126670E-02  mag=     1.0000
       N       E                     dE             d eps       ncg     rms          rms(c)
DAV:   1    -0.231337913276E+04    0.26249E-02   -0.62975E-01  4408   0.875E-01    0.201E-01
RMM:   2    -0.231338279441E+04   -0.36617E-02   -0.37498E-02  5854   0.165E-01    0.142E-01
RMM:   3    -0.231338282869E+04   -0.34277E-04   -0.22279E-03  5395   0.416E-02    0.166E-01
RMM:   4    -0.231338246744E+04    0.36125E-03   -0.33090E-04  4620   0.133E-02    0.498E-02
RMM:   5    -0.231338243538E+04    0.32057E-04   -0.16576E-04  4346   0.106E-02    0.322E-02
RMM:   6    -0.231338242160E+04    0.13779E-04   -0.52766E-05  3219   0.762E-03    0.932E-03
RMM:   7    -0.231338242056E+04    0.10425E-05   -0.72865E-06  2824   0.430E-03
  61 F= -.23338753E+04 E0= -.23338753E+04  d E =-.899518E-03  mag=     1.0000
       N       E                     dE             d eps       ncg     rms          rms(c)
DAV:   1    -0.231338211010E+04    0.31150E-03   -0.53513E-02  4592   0.255E-01    0.591E-02
RMM:   2    -0.231338242125E+04   -0.31115E-03   -0.31696E-03  5844   0.481E-02    0.428E-02
RMM:   3    -0.231338242657E+04   -0.53153E-05   -0.19910E-04  3725   0.152E-02    0.495E-02
RMM:   4    -0.231338239478E+04    0.31781E-04   -0.28941E-05  2879   0.520E-03    0.148E-02
RMM:   5    -0.231338239218E+04    0.26034E-05   -0.15438E-05  2868   0.394E-03
  62 F= -.23338753E+04 E0= -.23338753E+04  d E =-.937962E-03  mag=     1.0000
       N       E                     dE             d eps       ncg     rms          rms(c)
DAV:   1    -0.231338032871E+04    0.20661E-02   -0.49672E-01  4408   0.777E-01    0.188E-01
RMM:   2    -0.231338324551E+04   -0.29168E-02   -0.29923E-02  5868   0.148E-01    0.128E-01
RMM:   3    -0.231338332119E+04   -0.75683E-04   -0.18894E-03  5327   0.403E-02    0.154E-01
RMM:   4    -0.231338301906E+04    0.30213E-03   -0.29948E-04  4447   0.126E-02    0.467E-02
RMM:   5    -0.231338299368E+04    0.25385E-04   -0.12866E-04  4098   0.939E-03    0.314E-02
RMM:   6    -0.231338298014E+04    0.13535E-04   -0.56792E-05  3264   0.750E-03    0.948E-03
RMM:   7    -0.231338297872E+04    0.14168E-05   -0.83425E-06  2825   0.486E-03
  63 F= -.23338760E+04 E0= -.23338760E+04  d E =-.713017E-03  mag=     1.0000
       N       E                     dE             d eps       ncg     rms          rms(c)
DAV:   1    -0.231338288308E+04    0.97061E-04   -0.14363E-02  4864   0.132E-01    0.327E-02
RMM:   2    -0.231338297002E+04   -0.86942E-04   -0.88010E-04  5811   0.255E-02    0.240E-02
RMM:   3    -0.231338297218E+04   -0.21562E-05   -0.61032E-05  2983   0.864E-03
  64 F= -.23338760E+04 E0= -.23338760E+04  d E =-.727899E-03  mag=     1.0000
       N       E                     dE             d eps       ncg     rms          rms(c)
DAV:   1    -0.231338139873E+04    0.15713E-02   -0.32723E-01  4464   0.628E-01    0.154E-01
RMM:   2    -0.231338369073E+04   -0.22920E-02   -0.22790E-02  5862   0.121E-01    0.139E-01
RMM:   3    -0.231338361609E+04    0.74634E-04   -0.15788E-03  5149   0.312E-02    0.118E-01
RMM:   4    -0.231338344125E+04    0.17484E-03   -0.23209E-04  3851   0.104E-02    0.441E-02
RMM:   5    -0.231338342065E+04    0.20606E-04   -0.82274E-05  3607   0.748E-03    0.314E-02
RMM:   6    -0.231338340707E+04    0.13581E-04   -0.62682E-05  3675   0.745E-03    0.769E-03
RMM:   7    -0.231338340620E+04    0.87084E-06   -0.64001E-06  2819   0.469E-03
  65 F= -.23338765E+04 E0= -.23338765E+04  d E =-.526485E-03  mag=     1.0000
       N       E                     dE             d eps       ncg     rms          rms(c)
DAV:   1    -0.231338336270E+04    0.44366E-04   -0.52757E-03  5080   0.800E-02    0.203E-02
RMM:   2    -0.231338340179E+04   -0.39086E-04   -0.37994E-04  5574   0.160E-02    0.197E-02
RMM:   3    -0.231338339994E+04    0.18520E-05   -0.28090E-05  2853   0.567E-03
  66 F= -.23338766E+04 E0= -.23338766E+04  d E =-.531922E-03  mag=     1.0000
       N       E                     dE             d eps       ncg     rms          rms(c)
DAV:   1    -0.231338138576E+04    0.20160E-02   -0.30358E-01  4432   0.620E-01    0.154E-01
RMM:   2    -0.231338383254E+04   -0.24468E-02   -0.25267E-02  5876   0.125E-01    0.107E-01
RMM:   3    -0.231338390388E+04   -0.71343E-04   -0.16559E-03  5244   0.312E-02    0.122E-01
RMM:   4    -0.231338371383E+04    0.19006E-03   -0.22645E-04  3691   0.103E-02    0.412E-02
RMM:   5    -0.231338369197E+04    0.21860E-04   -0.10030E-04  3856   0.837E-03    0.218E-02
RMM:   6    -0.231338368749E+04    0.44787E-05   -0.33680E-05  2973   0.611E-03
  67 F= -.23338770E+04 E0= -.23338770E+04  d E =-.493898E-03  mag=     1.0000
       N       E                     dE             d eps       ncg     rms          rms(c)
DAV:   1    -0.231338343406E+04    0.25790E-03   -0.23912E-02  4608   0.174E-01    0.448E-02
RMM:   2    -0.231338362995E+04   -0.19589E-03   -0.20475E-03  6031   0.373E-02    0.285E-02
RMM:   3    -0.231338364111E+04   -0.11160E-04   -0.16440E-04  3189   0.113E-02    0.358E-02
RMM:   4    -0.231338362580E+04    0.15315E-04   -0.20027E-05  2855   0.448E-03    0.119E-02
RMM:   5    -0.231338362407E+04    0.17277E-05   -0.89239E-06  2804   0.285E-03
  68 F= -.23338770E+04 E0= -.23338770E+04  d E =-.488745E-03  mag=     1.0000
       N       E                     dE             d eps       ncg     rms          rms(c)
DAV:   1    -0.231338231700E+04    0.13088E-02   -0.20264E-01  4408   0.505E-01    0.120E-01
RMM:   2    -0.231338401518E+04   -0.16982E-02   -0.17185E-02  5887   0.101E-01    0.979E-02
RMM:   3    -0.231338403060E+04   -0.15423E-04   -0.11741E-03  4955   0.268E-02    0.948E-02
RMM:   4    -0.231338391418E+04    0.11642E-03   -0.14487E-04  3176   0.831E-03    0.325E-02
RMM:   5    -0.231338390209E+04    0.12086E-04   -0.58606E-05  3314   0.656E-03    0.213E-02
RMM:   6    -0.231338389667E+04    0.54281E-05   -0.30465E-05  2955   0.581E-03
  69 F= -.23338775E+04 E0= -.23338775E+04  d E =-.407641E-03  mag=     1.0000
       N       E                     dE             d eps       ncg     rms          rms(c)
DAV:   1    -0.231338195292E+04    0.19492E-02   -0.23318E-01  4408   0.541E-01    0.130E-01
RMM:   2    -0.231338390817E+04   -0.19553E-02   -0.19808E-02  5891   0.110E-01    0.104E-01
RMM:   3    -0.231338394299E+04   -0.34825E-04   -0.14681E-03  5165   0.325E-02    0.103E-01
RMM:   4    -0.231338380794E+04    0.13506E-03   -0.16860E-04  3223   0.890E-03    0.349E-02
RMM:   5    -0.231338379321E+04    0.14728E-04   -0.69989E-05  3438   0.699E-03    0.216E-02
RMM:   6    -0.231338378782E+04    0.53910E-05   -0.31643E-05  2968   0.602E-03
  70 F= -.23338775E+04 E0= -.23338775E+04  d E =-.443760E-03  mag=     1.0000
       N       E                     dE             d eps       ncg     rms          rms(c)
DAV:   1    -0.231338243613E+04    0.13571E-02   -0.22204E-01  4440   0.520E-01    0.124E-01
RMM:   2    -0.231338429346E+04   -0.18573E-02   -0.18164E-02  5939   0.104E-01    0.126E-01
RMM:   3    -0.231338422264E+04    0.70818E-04   -0.14573E-03  5064   0.325E-02    0.896E-02
RMM:   4    -0.231338412213E+04    0.10051E-03   -0.17088E-04  3187   0.867E-03    0.357E-02
RMM:   5    -0.231338410907E+04    0.13061E-04   -0.50937E-05  3237   0.628E-03    0.256E-02
RMM:   6    -0.231338410081E+04    0.82674E-05   -0.48280E-05  3363   0.660E-03
  71 F= -.23338778E+04 E0= -.23338778E+04  d E =-.360238E-03  mag=     1.0000
       N       E                     dE             d eps       ncg     rms          rms(c)
DAV:   1    -0.231338347464E+04    0.63444E-03   -0.82668E-02  4496   0.318E-01    0.764E-02
RMM:   2    -0.231338417090E+04   -0.69626E-03   -0.68006E-03  6084   0.646E-02    0.780E-02
RMM:   3    -0.231338414342E+04    0.27483E-04   -0.54504E-04  4058   0.193E-02    0.554E-02
RMM:   4    -0.231338410548E+04    0.37935E-04   -0.63987E-05  2920   0.627E-03    0.219E-02
RMM:   5    -0.231338410077E+04    0.47124E-05   -0.20394E-05  2951   0.425E-03
  72 F= -.23338779E+04 E0= -.23338779E+04  d E =-.389021E-03  mag=     1.0000
       N       E                     dE             d eps       ncg     rms          rms(c)
DAV:   1    -0.231338391154E+04    0.19394E-03   -0.72086E-02  4432   0.302E-01    0.833E-02
RMM:   2    -0.231338439203E+04   -0.48048E-03   -0.51299E-03  5903   0.604E-02    0.450E-02
RMM:   3    -0.231338441900E+04   -0.26977E-04   -0.33244E-04  4153   0.189E-02    0.630E-02
RMM:   4    -0.231338436965E+04    0.49352E-04   -0.53201E-05  2949   0.647E-03    0.202E-02
RMM:   5    -0.231338436344E+04    0.62107E-05   -0.28794E-05  2989   0.534E-03
  73 F= -.23338782E+04 E0= -.23338782E+04  d E =-.321086E-03  mag=     1.0000
       N       E                     dE             d eps       ncg     rms          rms(c)
DAV:   1    -0.231338424174E+04    0.12792E-03   -0.17227E-02  4688   0.148E-01    0.414E-02
RMM:   2    -0.231338436084E+04   -0.11911E-03   -0.12653E-03  6079   0.317E-02    0.237E-02
RMM:   3    -0.231338436804E+04   -0.71907E-05   -0.87065E-05  3066   0.908E-03
  74 F= -.23338782E+04 E0= -.23338782E+04  d E =-.354257E-03  mag=     1.0000
       N       E                     dE             d eps       ncg     rms          rms(c)
DAV:   1    -0.231338429354E+04    0.67306E-04   -0.58926E-02  4432   0.265E-01    0.725E-02
RMM:   2    -0.231338461433E+04   -0.32079E-03   -0.33177E-03  5879   0.497E-02    0.534E-02
RMM:   3    -0.231338461487E+04   -0.53257E-06   -0.24432E-04  3741   0.139E-02    0.580E-02
RMM:   4    -0.231338457149E+04    0.43372E-04   -0.45418E-05  2919   0.609E-03    0.210E-02
RMM:   5    -0.231338456677E+04    0.47191E-05   -0.18950E-05  2908   0.456E-03
  75 F= -.23338784E+04 E0= -.23338784E+04  d E =-.207550E-03  mag=     1.0000
       N       E                     dE             d eps       ncg     rms          rms(c)
DAV:   1    -0.231338448281E+04    0.88688E-04   -0.19477E-02  4560   0.153E-01    0.421E-02
RMM:   2    -0.231338459222E+04   -0.10941E-03   -0.10905E-03  5981   0.289E-02    0.351E-02
RMM:   3    -0.231338459149E+04    0.73039E-06   -0.87909E-05  3080   0.902E-03
  76 F= -.23338785E+04 E0= -.23338785E+04  d E =-.237339E-03  mag=     1.0000
       N       E                     dE             d eps       ncg     rms          rms(c)
DAV:   1    -0.231338441014E+04    0.18208E-03   -0.70359E-02  4420   0.293E-01    0.767E-02
RMM:   2    -0.231338480967E+04   -0.39953E-03   -0.41734E-03  5875   0.560E-02    0.562E-02
RMM:   3    -0.231338481598E+04   -0.63078E-05   -0.29019E-04  3934   0.151E-02    0.623E-02
RMM:   4    -0.231338476465E+04    0.51328E-04   -0.50667E-05  2949   0.638E-03    0.216E-02
RMM:   5    -0.231338475902E+04    0.56328E-05   -0.25428E-05  2964   0.511E-03
  77 F= -.23338787E+04 E0= -.23338787E+04  d E =-.196948E-03  mag=     1.0000
       N       E                     dE             d eps       ncg     rms          rms(c)
DAV:   1    -0.231338469136E+04    0.73293E-04   -0.10369E-02  4792   0.113E-01    0.299E-02
RMM:   2    -0.231338475104E+04   -0.59686E-04   -0.61939E-04  5841   0.227E-02    0.222E-02
RMM:   3    -0.231338475422E+04   -0.31738E-05   -0.49111E-05  2939   0.711E-03
  78 F= -.23338787E+04 E0= -.23338787E+04  d E =-.203628E-03  mag=     1.0000
       N       E                     dE             d eps       ncg     rms          rms(c)
DAV:   1    -0.231338458180E+04    0.16924E-03   -0.59669E-02  4420   0.272E-01    0.707E-02
RMM:   2    -0.231338495597E+04   -0.37417E-03   -0.39646E-03  5891   0.531E-02    0.446E-02
RMM:   3    -0.231338496943E+04   -0.13460E-04   -0.24171E-04  3779   0.138E-02    0.573E-02
RMM:   4    -0.231338492698E+04    0.42449E-04   -0.41539E-05  2920   0.588E-03    0.187E-02
RMM:   5    -0.231338492241E+04    0.45692E-05   -0.24106E-05  2932   0.488E-03
  79 F= -.23338789E+04 E0= -.23338789E+04  d E =-.193773E-03  mag=     1.0000
       N       E                     dE             d eps       ncg     rms          rms(c)
DAV:   1    -0.231338453114E+04    0.39583E-03   -0.66363E-02  4420   0.287E-01    0.744E-02
RMM:   2    -0.231338494911E+04   -0.41797E-03   -0.43920E-03  6029   0.562E-02    0.457E-02
RMM:   3    -0.231338496853E+04   -0.19418E-04   -0.28097E-04  3944   0.157E-02    0.618E-02
RMM:   4    -0.231338491921E+04    0.49323E-04   -0.45694E-05  2926   0.617E-03    0.180E-02
RMM:   5    -0.231338491519E+04    0.40162E-05   -0.24719E-05  2945   0.478E-03
  80 F= -.23338789E+04 E0= -.23338789E+04  d E =-.213478E-03  mag=     1.0000
       N       E                     dE             d eps       ncg     rms          rms(c)
DAV:   1    -0.231338478374E+04    0.13547E-03   -0.51973E-02  4432   0.251E-01    0.618E-02
RMM:   2    -0.231338512258E+04   -0.33883E-03   -0.34877E-03  6087   0.490E-02    0.471E-02
RMM:   3    -0.231338512702E+04   -0.44412E-05   -0.24236E-04  3651   0.138E-02    0.509E-02
RMM:   4    -0.231338509312E+04    0.33898E-04   -0.34091E-05  2895   0.560E-03    0.166E-02
RMM:   5    -0.231338509035E+04    0.27666E-05   -0.16347E-05  2888   0.392E-03
  81 F= -.23338790E+04 E0= -.23338790E+04  d E =-.164191E-03  mag=     1.0000
       N       E                     dE             d eps       ncg     rms          rms(c)
DAV:   1    -0.231338488114E+04    0.21198E-03   -0.42011E-02  4480   0.226E-01    0.555E-02
RMM:   2    -0.231338515411E+04   -0.27297E-03   -0.28120E-03  6000   0.435E-02    0.425E-02
RMM:   3    -0.231338515826E+04   -0.41420E-05   -0.19454E-04  3496   0.129E-02    0.461E-02
RMM:   4    -0.231338513031E+04    0.27947E-04   -0.27519E-05  2877   0.521E-03    0.146E-02
RMM:   5    -0.231338512795E+04    0.23609E-05   -0.13640E-05  2863   0.362E-03
  82 F= -.23338791E+04 E0= -.23338791E+04  d E =-.191865E-03  mag=     1.0000
       N       E                     dE             d eps       ncg     rms          rms(c)
DAV:   1    -0.231338518295E+04   -0.52636E-04   -0.28961E-02  4496   0.185E-01    0.580E-02
RMM:   2    -0.231338536513E+04   -0.18218E-03   -0.18662E-03  5912   0.358E-02    0.479E-02
RMM:   3    -0.231338536454E+04    0.59401E-06   -0.15786E-04  3455   0.127E-02    0.480E-02
RMM:   4    -0.231338533348E+04    0.31058E-04   -0.26670E-05  2873   0.523E-03    0.145E-02
RMM:   5    -0.231338533093E+04    0.25463E-05   -0.11197E-05  2832   0.342E-03
  83 F= -.23338792E+04 E0= -.23338792E+04  d E =-.161564E-03  mag=     1.0000
       N       E                     dE             d eps       ncg     rms          rms(c)
DAV:   1    -0.231338532501E+04    0.84661E-05   -0.61577E-03  4808   0.858E-02    0.265E-02
RMM:   2    -0.231338536393E+04   -0.38918E-04   -0.40228E-04  5637   0.172E-02    0.224E-02
RMM:   3    -0.231338536413E+04   -0.20428E-06   -0.35814E-05  2891   0.631E-03
  84 F= -.23338793E+04 E0= -.23338793E+04  d E =-.175352E-03  mag=     1.0000
       N       E                     dE             d eps       ncg     rms          rms(c)
DAV:   1    -0.231338539090E+04   -0.26965E-04   -0.14949E-02  4432   0.135E-01    0.399E-02
RMM:   2    -0.231338550208E+04   -0.11118E-03   -0.11625E-03  5877   0.272E-02    0.314E-02
RMM:   3    -0.231338550129E+04    0.78740E-06   -0.86096E-05  2997   0.761E-03
  85 F= -.23338794E+04 E0= -.23338794E+04  d E =-.117701E-03  mag=     1.0000
       N       E                     dE             d eps       ncg     rms          rms(c)
DAV:   1    -0.231338541677E+04    0.85303E-04   -0.17971E-02  4420   0.148E-01    0.457E-02
RMM:   2    -0.231338554161E+04   -0.12483E-03   -0.13964E-03  5870   0.297E-02    0.302E-02
RMM:   3    -0.231338554209E+04   -0.48740E-06   -0.10792E-04  3037   0.899E-03    0.313E-02
RMM:   4    -0.231338553092E+04    0.11170E-04   -0.19751E-05  2853   0.412E-03    0.181E-02
RMM:   5    -0.231338552732E+04    0.36001E-05   -0.10189E-05  2828   0.329E-03
  86 F= -.23338794E+04 E0= -.23338794E+04  d E =-.122302E-03  mag=     1.0000
       N       E                     dE             d eps       ncg     rms          rms(c)
DAV:   1    -0.231338552632E+04    0.46004E-05   -0.89081E-03  4592   0.106E-01    0.267E-02
RMM:   2    -0.231338560034E+04   -0.74019E-04   -0.79106E-04  5817   0.226E-02    0.162E-02
RMM:   3    -0.231338560389E+04   -0.35430E-05   -0.48441E-05  2911   0.612E-03
  87 F= -.23338795E+04 E0= -.23338795E+04  d E =-.816627E-04  mag=     1.0000
       N       E                     dE             d eps       ncg     rms          rms(c)
DAV:   1    -0.231338546556E+04    0.13478E-03   -0.22062E-02  4420   0.166E-01    0.423E-02
RMM:   2    -0.231338564794E+04   -0.18238E-03   -0.19844E-03  5947   0.349E-02    0.238E-02
RMM:   3    -0.231338564846E+04   -0.52032E-06   -0.10494E-04  3099   0.833E-03    0.258E-02
RMM:   4    -0.231338564210E+04    0.63592E-05   -0.18137E-05  2853   0.393E-03
  88 F= -.23338795E+04 E0= -.23338795E+04  d E =-.127796E-03  mag=     1.0000
       N       E                     dE             d eps       ncg     rms          rms(c)
DAV:   1    -0.231338571790E+04   -0.69441E-04   -0.63237E-03  4680   0.894E-02    0.306E-02
RMM:   2    -0.231338575199E+04   -0.34092E-04   -0.38475E-04  5741   0.179E-02    0.180E-02
RMM:   3    -0.231338575679E+04   -0.47947E-05   -0.38361E-05  2888   0.753E-03
  89 F= -.23338796E+04 E0= -.23338796E+04  d E =-.104469E-03  mag=     1.0000
       N       E                     dE             d eps       ncg     rms          rms(c)
DAV:   1    -0.231338575347E+04   -0.14819E-05   -0.63748E-03  4480   0.897E-02    0.328E-02
RMM:   2    -0.231338578385E+04   -0.30377E-04   -0.39618E-04  5725   0.181E-02    0.154E-02
RMM:   3    -0.231338578075E+04    0.31008E-05   -0.25463E-05  2848   0.566E-03
  90 F= -.23338796E+04 E0= -.23338796E+04  d E =-.118202E-03  mag=     1.0000
       N       E                     dE             d eps       ncg     rms          rms(c)
DAV:   1    -0.231338582025E+04   -0.36396E-04   -0.59832E-03  4520   0.846E-02    0.260E-02
RMM:   2    -0.231338585845E+04   -0.38200E-04   -0.41424E-04  5645   0.169E-02    0.178E-02
RMM:   3    -0.231338585954E+04   -0.10899E-05   -0.31683E-05  2880   0.612E-03
  91 F= -.23338797E+04 E0= -.23338797E+04  d E =-.494223E-04  mag=     1.0000
       N       E                     dE             d eps       ncg     rms          rms(c)
DAV:   1    -0.231338586927E+04   -0.10820E-04   -0.14595E-03  5176   0.419E-02    0.161E-02
RMM:   2    -0.231338588070E+04   -0.11429E-04   -0.97300E-05  4053   0.834E-03    0.217E-02
RMM:   3    -0.231338587645E+04    0.42446E-05   -0.14916E-05  2682   0.439E-03
  92 F= -.23338797E+04 E0= -.23338797E+04  d E =-.518427E-04  mag=     1.0000
       N       E                     dE             d eps       ncg     rms          rms(c)
DAV:   1    -0.231338591145E+04   -0.30754E-04   -0.67317E-03  4432   0.913E-02    0.310E-02
RMM:   2    -0.231338594891E+04   -0.37463E-04   -0.41733E-04  5744   0.182E-02    0.183E-02
RMM:   3    -0.231338595118E+04   -0.22634E-05   -0.32219E-05  2873   0.645E-03
  93 F= -.23338797E+04 E0= -.23338797E+04  d E =-.638570E-04  mag=     1.0000
       N       E                     dE             d eps       ncg     rms          rms(c)
DAV:   1    -0.231338594589E+04    0.30209E-05   -0.65557E-04  5440   0.289E-02    0.140E-02
RMM:   2    -0.231338594888E+04   -0.29834E-05   -0.43129E-05  3286   0.602E-03
  94 F= -.23338797E+04 E0= -.23338797E+04  d E =-.581536E-04  mag=     1.0000
       N       E                     dE             d eps       ncg     rms          rms(c)
DAV:   1    -0.231338592508E+04    0.20809E-04   -0.72778E-03  4432   0.961E-02    0.286E-02
RMM:   2    -0.231338598227E+04   -0.57184E-04   -0.60227E-04  5793   0.208E-02    0.214E-02
RMM:   3    -0.231338598609E+04   -0.38190E-05   -0.51637E-05  2934   0.759E-03
  95 F= -.23338798E+04 E0= -.23338798E+04  d E =-.440514E-04  mag=     1.0000
       N       E                     dE             d eps       ncg     rms          rms(c)
DAV:   1    -0.231338597271E+04    0.95578E-05   -0.54670E-04  5416   0.268E-02    0.116E-02
RMM:   2    -0.231338597616E+04   -0.34554E-05   -0.46780E-05  3265   0.589E-03
  96 F= -.23338798E+04 E0= -.23338798E+04  d E =-.359902E-04  mag=     1.0000
       N       E                     dE             d eps       ncg     rms          rms(c)
DAV:   1    -0.231338597249E+04    0.22005E-06   -0.75855E-03  4432   0.975E-02    0.314E-02
RMM:   2    -0.231338604548E+04   -0.72989E-04   -0.64436E-04  5767   0.217E-02    0.400E-02
RMM:   3    -0.231338603285E+04    0.12631E-04   -0.68224E-05  2942   0.875E-03    0.212E-02
RMM:   4    -0.231338602674E+04    0.61014E-05   -0.72161E-06  2802   0.312E-03
  97 F= -.23338798E+04 E0= -.23338798E+04  d E =-.507470E-04  mag=     1.0000
       N       E                     dE             d eps       ncg     rms          rms(c)
DAV:   1    -0.231338601138E+04    0.21470E-04   -0.21479E-03  4664   0.519E-02    0.161E-02
RMM:   2    -0.231338602719E+04   -0.15812E-04   -0.17493E-04  4826   0.111E-02    0.976E-03
RMM:   3    -0.231338602747E+04   -0.28548E-06   -0.17487E-05  2804   0.490E-03
  98 F= -.23338798E+04 E0= -.23338798E+04  d E =-.515568E-04  mag=     1.0000
       N       E                     dE             d eps       ncg     rms          rms(c)
DAV:   1    -0.231338602273E+04    0.44625E-05   -0.76068E-03  4420   0.945E-02    0.254E-02
RMM:   2    -0.231338608273E+04   -0.60003E-04   -0.63887E-04  5767   0.194E-02    0.158E-02
RMM:   3    -0.231338608438E+04   -0.16476E-05   -0.47819E-05  2884   0.587E-03
  99 F= -.23338799E+04 E0= -.23338799E+04  d E =-.392125E-04  mag=     1.0000
       N       E                     dE             d eps       ncg     rms          rms(c)
DAV:   1    -0.231338605717E+04    0.25557E-04   -0.59036E-03  4464   0.834E-02    0.240E-02
RMM:   2    -0.231338610371E+04   -0.46536E-04   -0.50874E-04  5687   0.174E-02    0.161E-02
RMM:   3    -0.231338610366E+04    0.50786E-07   -0.39175E-05  2870   0.546E-03
 100 F= -.23338799E+04 E0= -.23338799E+04  d E =-.428603E-04  mag=     1.0000
       N       E                     dE             d eps       ncg     rms          rms(c)
DAV:   1    -0.231338611253E+04   -0.88201E-05   -0.80816E-03  4420   0.972E-02    0.273E-02
RMM:   2    -0.231338618664E+04   -0.74110E-04   -0.78992E-04  5798   0.209E-02    0.171E-02
RMM:   3    -0.231338618633E+04    0.30943E-06   -0.60846E-05  2883   0.614E-03
 101 F= -.23338799E+04 E0= -.23338799E+04  d E =-.512566E-04  mag=     1.0000
       N       E                     dE             d eps       ncg     rms          rms(c)
DAV:   1    -0.231338612312E+04    0.63515E-04   -0.12705E-02  4420   0.122E-01    0.346E-02
RMM:   2    -0.231338623784E+04   -0.11472E-03   -0.12352E-03  5851   0.259E-02    0.206E-02
RMM:   3    -0.231338623656E+04    0.12820E-05   -0.91705E-05  2918   0.739E-03
 102 F= -.23338799E+04 E0= -.23338799E+04  d E =-.620344E-04  mag=     1.0000
       N       E                     dE             d eps       ncg     rms          rms(c)
DAV:   1    -0.231338620984E+04    0.27998E-04   -0.88229E-03  4420   0.103E-01    0.299E-02
RMM:   2    -0.231338630647E+04   -0.96630E-04   -0.10068E-03  5829   0.233E-02    0.225E-02
RMM:   3    -0.231338631239E+04   -0.59138E-05   -0.89085E-05  2937   0.759E-03
 103 F= -.23338800E+04 E0= -.23338800E+04  d E =-.547129E-04  mag=     1.0000
       N       E                     dE             d eps       ncg     rms          rms(c)
DAV:   1    -0.231338622238E+04    0.84088E-04   -0.11910E-02  4420   0.120E-01    0.357E-02
RMM:   2    -0.231338635407E+04   -0.13168E-03   -0.13624E-03  5849   0.266E-02    0.296E-02
RMM:   3    -0.231338635804E+04   -0.39726E-05   -0.11822E-04  2959   0.829E-03    0.304E-02
RMM:   4    -0.231338634677E+04    0.11268E-04   -0.15075E-05  2851   0.351E-03    0.110E-02
RMM:   5    -0.231338634559E+04    0.11770E-05   -0.86275E-06  2819   0.259E-03
 104 F= -.23338800E+04 E0= -.23338800E+04  d E =-.634485E-04  mag=     1.0000
       N       E                     dE             d eps       ncg     rms          rms(c)
[...]
DAV:   1    -0.231339041963E+04    0.61427E-04   -0.95604E-03  4408   0.805E-02    0.281E-02
RMM:   2    -0.231339053309E+04   -0.11346E-03   -0.11922E-03  5467   0.204E-02    0.189E-02
RMM:   3    -0.231339053793E+04   -0.48348E-05   -0.10165E-04  2882   0.654E-03    0.195E-02
RMM:   4    -0.231339053471E+04    0.32205E-05   -0.12569E-05  2792   0.259E-03
 260 F= -.23338825E+04 E0= -.23338825E+04  d E =-.384687E-04  mag=     1.0000
       N       E                     dE             d eps       ncg     rms          rms(c)
DAV:   1    -0.231339057449E+04   -0.36560E-04   -0.12044E-03  4320   0.313E-02    0.116E-02
RMM:   2    -0.231339058660E+04   -0.12111E-04   -0.12322E-04  3771   0.745E-03    0.117E-02
RMM:   3    -0.231339058698E+04   -0.38423E-06   -0.16634E-05  2580   0.399E-03
 261 F= -.23338825E+04 E0= -.23338825E+04  d E =-.336202E-04  mag=     1.0000
       N       E                     dE             d eps       ncg     rms          rms(c)
DAV:   1    -0.231339060389E+04   -0.17292E-04   -0.36002E-03  4376   0.535E-02    0.202E-02
RMM:   2    -0.231339063856E+04   -0.34668E-04   -0.37207E-04  4904   0.127E-02    0.150E-02
RMM:   3    -0.231339064041E+04   -0.18479E-05   -0.32899E-05  2824   0.513E-03
 262 F= -.23338825E+04 E0= -.23338825E+04  d E =-.552848E-04  mag=     1.0000
       N       E                     dE             d eps       ncg     rms          rms(c)
DAV:   1    -0.231339064223E+04   -0.36759E-05   -0.13531E-04  5288   0.107E-02    0.839E-03
RMM:   2    -0.231339064374E+04   -0.15113E-05   -0.16939E-05  2502   0.265E-03
 263 F= -.23338825E+04 E0= -.23338825E+04  d E =-.526400E-04  mag=     1.0000
       N       E                     dE             d eps       ncg     rms          rms(c)
DAV:   1    -0.231339066888E+04   -0.26650E-04   -0.13382E-03  4160   0.319E-02    0.118E-02
RMM:   2    -0.231339068244E+04   -0.13557E-04   -0.14646E-04  3752   0.787E-03    0.777E-03
RMM:   3    -0.231339068359E+04   -0.11549E-05   -0.17317E-05  2368   0.410E-03
 264 F= -.23338825E+04 E0= -.23338825E+04  d E =-.196040E-04  mag=     1.0000
       N       E                     dE             d eps       ncg     rms          rms(c)
DAV:   1    -0.231339069377E+04   -0.11330E-04   -0.26687E-03  4328   0.449E-02    0.176E-02
RMM:   2    -0.231339072502E+04   -0.31255E-04   -0.29536E-04  4474   0.109E-02    0.228E-02
RMM:   3    -0.231339072221E+04    0.28140E-05   -0.34296E-05  2767   0.492E-03
 265 F= -.23338825E+04 E0= -.23338825E+04  d E =-.295319E-04  mag=     1.0000
       N       E                     dE             d eps       ncg     rms          rms(c)
DAV:   1    -0.231339074077E+04   -0.15747E-04   -0.21427E-03  4360   0.415E-02    0.159E-02
RMM:   2    -0.231339076262E+04   -0.21851E-04   -0.23048E-04  4281   0.101E-02    0.120E-02
RMM:   3    -0.231339076345E+04   -0.82396E-06   -0.21457E-05  2711   0.431E-03
 266 F= -.23338826E+04 E0= -.23338826E+04  d E =-.254561E-04  mag=     1.0000
       N       E                     dE             d eps       ncg     rms          rms(c)
DAV:   1    -0.231339075584E+04    0.67845E-05   -0.36615E-03  4408   0.541E-02    0.204E-02
RMM:   2    -0.231339079167E+04   -0.35832E-04   -0.38845E-04  4845   0.130E-02    0.119E-02
RMM:   3    -0.231339079231E+04   -0.64098E-06   -0.34561E-05  2826   0.500E-03
 267 F= -.23338826E+04 E0= -.23338826E+04  d E =-.336734E-04  mag=     1.0000
       N       E                     dE             d eps       ncg     rms          rms(c)
DAV:   1    -0.231339080453E+04   -0.12857E-04   -0.17080E-03  4216   0.351E-02    0.136E-02
RMM:   2    -0.231339082607E+04   -0.21549E-04   -0.20228E-04  4095   0.899E-03    0.174E-02
RMM:   3    -0.231339082451E+04    0.15612E-05   -0.23304E-05  2663   0.414E-03
 268 F= -.23338826E+04 E0= -.23338826E+04  d E =-.202384E-04  mag=     1.0000
       N       E                     dE             d eps       ncg     rms          rms(c)
DAV:   1    -0.231339082771E+04   -0.16373E-05   -0.10078E-03  4300   0.270E-02    0.109E-02
RMM:   2    -0.231339083872E+04   -0.11005E-04   -0.11787E-04  3738   0.698E-03    0.825E-03
RMM:   3    -0.231339083961E+04   -0.89212E-06   -0.15215E-05  2471   0.373E-03
 269 F= -.23338826E+04 E0= -.23338826E+04  d E =-.261354E-04  mag=     1.0000
       N       E                     dE             d eps       ncg     rms          rms(c)
DAV:   1    -0.231339086176E+04   -0.23044E-04   -0.13068E-03  4292   0.337E-02    0.125E-02
RMM:   2    -0.231339087430E+04   -0.12543E-04   -0.13508E-04  3843   0.830E-03    0.746E-03
RMM:   3    -0.231339087526E+04   -0.95303E-06   -0.14993E-05  2410   0.405E-03
 270 F= -.23338826E+04 E0= -.23338826E+04  d E =-.267493E-04  mag=     1.0000
       N       E                     dE             d eps       ncg     rms          rms(c)
DAV:   1    -0.231339088145E+04   -0.71487E-05   -0.91149E-04  4228   0.282E-02    0.117E-02
RMM:   2    -0.231339089045E+04   -0.89970E-05   -0.94509E-05  3694   0.697E-03
 271 F= -.23338826E+04 E0= -.23338826E+04  d E =-.344854E-04  mag=     1.0000
       N       E                     dE             d eps       ncg     rms          rms(c)
DAV:   1    -0.231339089354E+04   -0.12089E-04   -0.10363E-04  5152   0.103E-02    0.114E-02
RMM:   2    -0.231339090377E+04   -0.10227E-04   -0.25564E-05  2678   0.346E-03    0.298E-02
RMM:   3    -0.231339089309E+04    0.10678E-04   -0.70381E-06  2165   0.296E-03    0.386E-03
RMM:   4    -0.231339089285E+04    0.24168E-06   -0.13704E-06  1982   0.108E-03
 272 F= -.23338826E+04 E0= -.23338826E+04  d E =-.346595E-04  mag=     1.0000
       N       E                     dE             d eps       ncg     rms          rms(c)
DAV:   1    -0.231339091270E+04   -0.19611E-04   -0.12854E-03  4260   0.328E-02    0.116E-02
RMM:   2    -0.231339092388E+04   -0.11175E-04   -0.11889E-04  3747   0.765E-03    0.756E-03
RMM:   3    -0.231339092472E+04   -0.84657E-06   -0.11868E-05  2387   0.379E-03
 273 F= -.23338827E+04 E0= -.23338827E+04  d E =-.179956E-04  mag=     1.0000
       N       E                     dE             d eps       ncg     rms          rms(c)
DAV:   1    -0.231339093152E+04   -0.76456E-05   -0.57139E-04  4304   0.220E-02    0.887E-03
RMM:   2    -0.231339093631E+04   -0.47851E-05   -0.54940E-05  3220   0.535E-03
 274 F= -.23338827E+04 E0= -.23338827E+04  d E =-.203070E-04  mag=     1.0000
       N       E                     dE             d eps       ncg     rms          rms(c)
DAV:   1    -0.231339095298E+04   -0.21455E-04   -0.13595E-03  4216   0.322E-02    0.114E-02
RMM:   2    -0.231339096508E+04   -0.12106E-04   -0.12266E-04  3771   0.782E-03    0.110E-02
RMM:   3    -0.231339096519E+04   -0.10501E-06   -0.12896E-05  2461   0.431E-03
 275 F= -.23338827E+04 E0= -.23338827E+04  d E =-.165583E-04  mag=     1.0000
       N       E                     dE             d eps       ncg     rms          rms(c)
DAV:   1    -0.231339096928E+04   -0.41995E-05   -0.34114E-04  4408   0.162E-02    0.725E-03
RMM:   2    -0.231339097187E+04   -0.25914E-05   -0.31140E-05  2817   0.408E-03
 276 F= -.23338827E+04 E0= -.23338827E+04  d E =-.170369E-04  mag=     1.0000
       N       E                     dE             d eps       ncg     rms          rms(c)
DAV:   1    -0.231339099241E+04   -0.23130E-04   -0.10766E-03  4152   0.280E-02    0.100E-02
RMM:   2    -0.231339100130E+04   -0.88847E-05   -0.94693E-05  3496   0.691E-03
 277 F= -.23338827E+04 E0= -.23338827E+04  d E =-.162714E-04  mag=     1.0000
       N       E                     dE             d eps       ncg     rms          rms(c)
DAV:   1    -0.231339101092E+04   -0.18510E-04   -0.50827E-04  4144   0.197E-02    0.112E-02
RMM:   2    -0.231339102212E+04   -0.11196E-04   -0.62613E-05  3235   0.550E-03    0.254E-02
RMM:   3    -0.231339101464E+04    0.74792E-05   -0.90025E-06  2415   0.357E-03
 278 F= -.23338827E+04 E0= -.23338827E+04  d E =-.207048E-04  mag=     1.0000
       N       E                     dE             d eps       ncg     rms          rms(c)
DAV:   1    -0.231339103719E+04   -0.15070E-04   -0.12855E-03  4136   0.300E-02    0.105E-02
RMM:   2    -0.231339104762E+04   -0.10436E-04   -0.10974E-04  3631   0.719E-03    0.874E-03
RMM:   3    -0.231339104798E+04   -0.35317E-06   -0.10822E-05  2406   0.365E-03
 279 F= -.23338827E+04 E0= -.23338827E+04  d E =-.165366E-04  mag=     1.0000
       N       E                     dE             d eps       ncg     rms          rms(c)
DAV:   1    -0.231339105540E+04   -0.77732E-05   -0.29700E-04  4592   0.145E-02    0.676E-03
RMM:   2    -0.231339105774E+04   -0.23439E-05   -0.27393E-05  2752   0.367E-03
 280 F= -.23338827E+04 E0= -.23338827E+04  d E =-.182349E-04  mag=     1.0000
       N       E                     dE             d eps       ncg     rms          rms(c)
DAV:   1    -0.231339106823E+04   -0.12831E-04   -0.11481E-03  4184   0.290E-02    0.104E-02
RMM:   2    -0.231339107748E+04   -0.92538E-05   -0.96658E-05  3397   0.702E-03
 281 F= -.23338827E+04 E0= -.23338827E+04  d E =-.150521E-04  mag=     1.0000
       N       E                     dE             d eps       ncg     rms          rms(c)
DAV:   1    -0.231339108026E+04   -0.12036E-04   -0.22582E-04  4416   0.138E-02    0.106E-02
RMM:   2    -0.231339108879E+04   -0.85295E-05   -0.32975E-05  2833   0.390E-03
 282 F= -.23338827E+04 E0= -.23338827E+04  d E =-.243772E-04  mag=     1.0000
       N       E                     dE             d eps       ncg     rms          rms(c)
DAV:   1    -0.231339109354E+04   -0.13276E-04   -0.12711E-03  4136   0.296E-02    0.109E-02
RMM:   2    -0.231339110679E+04   -0.13255E-04   -0.13778E-04  3720   0.765E-03    0.978E-03
RMM:   3    -0.231339110710E+04   -0.30469E-06   -0.13611E-05  2371   0.408E-03
 283 F= -.23338828E+04 E0= -.23338828E+04  d E =-.828197E-05  mag=     1.0000
       N       E                     dE             d eps       ncg     rms          rms(c)
DAV:   1    -0.231339110990E+04   -0.31031E-05   -0.10430E-03  4132   0.266E-02    0.103E-02
RMM:   2    -0.231339112019E+04   -0.10289E-04   -0.10901E-04  3633   0.684E-03    0.818E-03
RMM:   3    -0.231339112054E+04   -0.35041E-06   -0.10394E-05  2466   0.353E-03
 284 F= -.23338828E+04 E0= -.23338828E+04  d E =-.125016E-04  mag=     1.0000
       N       E                     dE             d eps       ncg     rms          rms(c)
DAV:   1    -0.231339113027E+04   -0.10083E-04   -0.57570E-04  4096   0.187E-02    0.737E-03
RMM:   2    -0.231339113614E+04   -0.58703E-05   -0.62014E-05  3150   0.488E-03
 285 F= -.23338828E+04 E0= -.23338828E+04  d E =-.807373E-05  mag=     1.0000
       N       E                     dE             d eps       ncg     rms          rms(c)
DAV:   1    -0.231339114358E+04   -0.13309E-04   -0.14192E-03  4072   0.293E-02    0.105E-02
RMM:   2    -0.231339115755E+04   -0.13966E-04   -0.14690E-04  3712   0.737E-03    0.754E-03
RMM:   3    -0.231339115879E+04   -0.12468E-05   -0.18027E-05  2399   0.444E-03
 286 F= -.23338828E+04 E0= -.23338828E+04  d E =-.190040E-04  mag=     1.0000
       N       E                     dE             d eps       ncg     rms          rms(c)
DAV:   1    -0.231339113468E+04    0.22862E-04   -0.56398E-03  4328   0.581E-02    0.209E-02
RMM:   2    -0.231339119606E+04   -0.61374E-04   -0.58883E-04  4822   0.143E-02    0.262E-02
RMM:   3    -0.231339119243E+04    0.36330E-05   -0.54549E-05  2822   0.523E-03
 287 F= -.23338828E+04 E0= -.23338828E+04  d E =-.291669E-04  mag=     1.0000
       N       E                     dE             d eps       ncg     rms          rms(c)
DAV:   1    -0.231339120523E+04   -0.91674E-05   -0.10133E-03  4096   0.239E-02    0.110E-02
RMM:   2    -0.231339121577E+04   -0.10545E-04   -0.11275E-04  3637   0.632E-03    0.860E-03
RMM:   3    -0.231339121587E+04   -0.10262E-06   -0.11115E-05  2442   0.330E-03
 288 F= -.23338828E+04 E0= -.23338828E+04  d E =-.139879E-04  mag=     1.0000
       N       E                     dE             d eps       ncg     rms          rms(c)
DAV:   1    -0.231339118172E+04    0.34049E-04   -0.91648E-03  4296   0.708E-02    0.234E-02
RMM:   2    -0.231339127242E+04   -0.90704E-04   -0.95082E-04  5097   0.180E-02    0.145E-02
RMM:   3    -0.231339127426E+04   -0.18329E-05   -0.74679E-05  2848   0.529E-03
 289 F= -.23338828E+04 E0= -.23338828E+04  d E =-.439714E-04  mag=     1.0000
       N       E                     dE             d eps       ncg     rms          rms(c)
DAV:   1    -0.231339097558E+04    0.29684E-03   -0.36761E-02  4408   0.142E-01    0.469E-02
RMM:   2    -0.231339134011E+04   -0.36453E-03   -0.38119E-03  5898   0.358E-02    0.306E-02
RMM:   3    -0.231339134867E+04   -0.85582E-05   -0.29607E-04  3105   0.101E-02    0.270E-02
RMM:   4    -0.231339134581E+04    0.28589E-05   -0.37221E-05  2882   0.362E-03
 290 F= -.23338828E+04 E0= -.23338828E+04  d E =-.586634E-04  mag=     1.0000
       N       E                     dE             d eps       ncg     rms          rms(c)
DAV:   1    -0.231339135123E+04   -0.25634E-05   -0.15388E-03  4544   0.288E-02    0.135E-02
RMM:   2    -0.231339136955E+04   -0.18323E-04   -0.15888E-04  3889   0.721E-03    0.206E-02
RMM:   3    -0.231339136630E+04    0.32576E-05   -0.21043E-05  2664   0.443E-03
 291 F= -.23338829E+04 E0= -.23338829E+04  d E =-.111187E-04  mag=     1.0000
       N       E                     dE             d eps       ncg     rms          rms(c)
DAV:   1    -0.231339129621E+04    0.73343E-04   -0.14582E-02  4312   0.863E-02    0.286E-02
RMM:   2    -0.231339143933E+04   -0.14312E-03   -0.14713E-03  5195   0.216E-02    0.240E-02
RMM:   3    -0.231339144173E+04   -0.23994E-05   -0.10429E-04  2886   0.589E-03    0.228E-02
RMM:   4    -0.231339143671E+04    0.50183E-05   -0.13393E-05  2641   0.264E-03
 292 F= -.23338829E+04 E0= -.23338829E+04  d E =-.534085E-04  mag=     1.0000
       N       E                     dE             d eps       ncg     rms          rms(c)
DAV:   1    -0.231339099644E+04    0.44529E-03   -0.57988E-02  4408   0.172E-01    0.555E-02
RMM:   2    -0.231339155830E+04   -0.56186E-03   -0.57616E-03  5935   0.422E-02    0.486E-02
RMM:   3    -0.231339157111E+04   -0.12808E-04   -0.46473E-04  3270   0.121E-02    0.454E-02
RMM:   4    -0.231339154969E+04    0.21415E-04   -0.50488E-05  2889   0.420E-03    0.194E-02
RMM:   5    -0.231339154587E+04    0.38205E-05   -0.18636E-05  2897   0.285E-03
 293 F= -.23338830E+04 E0= -.23338830E+04  d E =-.106271E-03  mag=     1.0000
       N       E                     dE             d eps       ncg     rms          rms(c)
DAV:   1    -0.231338946100E+04    0.20887E-02   -0.23331E-01  4408   0.345E-01    0.112E-01
RMM:   2    -0.231339174388E+04   -0.22829E-02   -0.23336E-02  6158   0.861E-02    0.985E-02
RMM:   3    -0.231339178298E+04   -0.39106E-04   -0.18107E-03  4004   0.229E-02    0.894E-02
RMM:   4    -0.231339169840E+04    0.84587E-04   -0.20520E-04  3118   0.719E-03    0.384E-02
RMM:   5    -0.231339168489E+04    0.13504E-04   -0.54789E-05  3164   0.488E-03    0.228E-02
RMM:   6    -0.231339168115E+04    0.37397E-05   -0.28909E-05  2964   0.421E-03
 294 F= -.23338830E+04 E0= -.23338830E+04  d E =-.128678E-03  mag=     1.0000
       N       E                     dE             d eps       ncg     rms          rms(c)
DAV:   1    -0.231339168543E+04   -0.54040E-06   -0.47754E-03  4336   0.478E-02    0.171E-02
RMM:   2    -0.231339173198E+04   -0.46548E-04   -0.48424E-04  4586   0.120E-02    0.150E-02
RMM:   3    -0.231339173351E+04   -0.15289E-05   -0.41949E-05  2830   0.452E-03
 295 F= -.23338830E+04 E0= -.23338830E+04  d E =-.333413E-04  mag=     1.0000
       N       E                     dE             d eps       ncg     rms          rms(c)
DAV:   1    -0.231339147405E+04    0.25793E-03   -0.43310E-02  4392   0.144E-01    0.470E-02
RMM:   2    -0.231339189775E+04   -0.42369E-03   -0.42690E-03  5506   0.355E-02    0.476E-02
RMM:   3    -0.231339189574E+04    0.20010E-05   -0.31526E-04  3150   0.944E-03    0.361E-02
RMM:   4    -0.231339188348E+04    0.12268E-04   -0.39060E-05  2820   0.366E-03    0.186E-02
RMM:   5    -0.231339188080E+04    0.26749E-05   -0.10815E-05  2640   0.234E-03
 296 F= -.23338831E+04 E0= -.23338831E+04  d E =-.123576E-03  mag=     1.0000
       N       E                     dE             d eps       ncg     rms          rms(c)
DAV:   1    -0.231339054353E+04    0.13399E-02   -0.17228E-01  4408   0.287E-01    0.925E-02
RMM:   2    -0.231339220377E+04   -0.16602E-02   -0.16776E-02  6079   0.704E-02    0.928E-02
RMM:   3    -0.231339221189E+04   -0.81196E-05   -0.13429E-03  3715   0.189E-02    0.723E-02
RMM:   4    -0.231339215886E+04    0.53029E-04   -0.14888E-04  3006   0.605E-03    0.328E-02
RMM:   5    -0.231339215090E+04    0.79610E-05   -0.33772E-05  2960   0.365E-03
 297 F= -.23338833E+04 E0= -.23338833E+04  d E =-.279362E-03  mag=     1.0000
       N       E                     dE             d eps       ncg     rms          rms(c)
DAV:   1    -0.231338616776E+04    0.59911E-02   -0.68935E-01  4440   0.574E-01    0.186E-01
RMM:   2    -0.231339285677E+04   -0.66890E-02   -0.67549E-02  6158   0.141E-01    0.188E-01
RMM:   3    -0.231339286166E+04   -0.48962E-05   -0.52011E-03  4670   0.366E-02    0.147E-01
RMM:   4    -0.231339263968E+04    0.22199E-03   -0.58757E-04  3463   0.105E-02    0.658E-02
RMM:   5    -0.231339260666E+04    0.33018E-04   -0.13953E-04  3564   0.672E-03    0.442E-02
RMM:   6    -0.231339258865E+04    0.18004E-04   -0.99867E-05  3351   0.630E-03    0.129E-02
RMM:   7    -0.231339258583E+04    0.28190E-05   -0.80161E-06  2804   0.359E-03
 298 F= -.23338835E+04 E0= -.23338835E+04  d E =-.484816E-03  mag=     1.0000
       N       E                     dE             d eps       ncg     rms          rms(c)
DAV:   1    -0.231336718148E+04    0.25407E-01   -0.27721E+00  4408   0.115E+00    0.373E-01
RMM:   2    -0.231339440590E+04   -0.27224E-01   -0.27362E-01  6225   0.288E-01    0.390E-01
RMM:   3    -0.231339421230E+04    0.19360E-03   -0.20719E-02  5372   0.728E-02    0.290E-01
RMM:   4    -0.231339335607E+04    0.85623E-03   -0.24126E-03  4285   0.202E-02    0.134E-01
RMM:   5    -0.231339320080E+04    0.15527E-03   -0.58257E-04  4412   0.125E-02    0.878E-02
RMM:   6    -0.231339313273E+04    0.68078E-04   -0.41262E-04  4121   0.118E-02    0.286E-02
RMM:   7    -0.231339311799E+04    0.14734E-04   -0.34011E-05  2939   0.544E-03    0.140E-02
RMM:   8    -0.231339311488E+04    0.31095E-05   -0.15316E-05  2809   0.280E-03
 299 F= -.23338835E+04 E0= -.23338835E+04  d E =-.551537E-03  mag=     1.0000
       N       E                     dE             d eps       ncg     rms          rms(c)
DAV:   1    -0.231339271630E+04    0.40169E-03   -0.64584E-02  4416   0.174E-01    0.570E-02
RMM:   2    -0.231339335574E+04   -0.63944E-03   -0.63982E-03  5533   0.425E-02    0.614E-02
RMM:   3    -0.231339334996E+04    0.57812E-05   -0.49156E-04  3276   0.115E-02    0.439E-02
RMM:   4    -0.231339333137E+04    0.18590E-04   -0.56931E-05  2867   0.426E-03    0.205E-02
RMM:   5    -0.231339332863E+04    0.27423E-05   -0.11724E-05  2678   0.234E-03
 300 F= -.23338837E+04 E0= -.23338837E+04  d E =-.137074E-03  mag=     1.0000
       N       E                     dE             d eps       ncg     rms          rms(c)
DAV:   1    -0.231338850343E+04    0.48279E-02   -0.57700E-01  4408   0.520E-01    0.168E-01
RMM:   2    -0.231339418048E+04   -0.56770E-02   -0.57015E-02  6248   0.128E-01    0.179E-01
RMM:   3    -0.231339415561E+04    0.24874E-04   -0.44398E-03  4459   0.329E-02    0.131E-01
RMM:   4    -0.231339398406E+04    0.17155E-03   -0.50140E-04  3394   0.961E-03    0.608E-02
RMM:   5    -0.231339395634E+04    0.27717E-04   -0.10879E-04  3429   0.588E-03    0.417E-02
RMM:   6    -0.231339394054E+04    0.15797E-04   -0.91408E-05  3300   0.584E-03    0.118E-02
RMM:   7    -0.231339393817E+04    0.23674E-05   -0.71698E-06  2766   0.333E-03
 301 F= -.23338840E+04 E0= -.23338840E+04  d E =-.515954E-03  mag=     1.0000
