       N       E                     dE             d eps       ncg     rms          rms(c)
DAV:   1     0.131490664293E+05    0.13149E+05   -0.84527E+05  4544   0.144E+03
DAV:   2    -0.100881580453E+04   -0.14158E+05   -0.13531E+05  4920   0.331E+02
DAV:   3    -0.248344622190E+04   -0.14746E+04   -0.14560E+04  5544   0.115E+02
DAV:   4    -0.252900926746E+04   -0.45563E+02   -0.45304E+02  6744   0.291E+01
DAV:   5    -0.252990760796E+04   -0.89834E+00   -0.89622E+00  6256   0.349E+00    0.170E+02
RMM:   6    -0.149351205999E+04    0.10364E+04   -0.19715E+03  4478   0.383E+01    0.730E+01
RMM:   7    -0.168363744472E+04   -0.19013E+03   -0.30278E+02  5251   0.146E+01    0.570E+01
RMM:   8    -0.171639166310E+04   -0.32754E+02   -0.82591E+01  5200   0.832E+00    0.480E+01
RMM:   9    -0.176381796621E+04   -0.47426E+02   -0.56385E+01  5039   0.694E+00    0.376E+01
RMM:  10    -0.189932071465E+04   -0.13550E+03   -0.66545E+01  5041   0.788E+00    0.262E+01
RMM:  11    -0.198150049513E+04   -0.82180E+02   -0.30029E+01  4897   0.522E+00    0.254E+01
RMM:  12    -0.203564974361E+04   -0.54149E+02   -0.19859E+01  4982   0.364E+00    0.179E+01
RMM:  13    -0.210361943155E+04   -0.67970E+02   -0.27549E+01  5186   0.409E+00    0.158E+01
RMM:  14    -0.218697691544E+04   -0.83357E+02   -0.49642E+01  4822   0.530E+00    0.114E+01
RMM:  15    -0.226675872273E+04   -0.79782E+02   -0.63471E+01  4722   0.569E+00    0.762E+00
RMM:  16    -0.230372065209E+04   -0.36962E+02   -0.31381E+01  4683   0.417E+00    0.460E+00
RMM:  17    -0.231943170839E+04   -0.15711E+02   -0.15959E+01  4777   0.284E+00    0.302E+00
RMM:  18    -0.232274106848E+04   -0.33094E+01   -0.32904E+00  5239   0.143E+00    0.228E+00
RMM:  19    -0.232339967887E+04   -0.65861E+00   -0.54947E-01  5426   0.509E-01    0.341E+00
RMM:  20    -0.232376432731E+04   -0.36465E+00   -0.24588E-01  4699   0.349E-01    0.116E+00
RMM:  21    -0.232429878200E+04   -0.53445E+00   -0.20153E-01  4476   0.364E-01    0.140E+00
RMM:  22    -0.232441832970E+04   -0.11955E+00   -0.76852E-02  5059   0.236E-01    0.169E+00
RMM:  23    -0.232445530388E+04   -0.36974E-01   -0.39343E-02  4786   0.130E-01    0.241E+00
RMM:  24    -0.232445299878E+04    0.23051E-02   -0.42466E-03  5123   0.521E-02    0.246E+00
RMM:  25    -0.232445794827E+04   -0.49495E-02   -0.50513E-04  4609   0.128E-02    0.241E+00
RMM:  26    -0.232461894571E+04   -0.16100E+00   -0.65996E-02  4560   0.134E-01    0.264E+00
RMM:  27    -0.232468411691E+04   -0.65171E-01   -0.37306E-02  4972   0.107E-01    0.379E+00
RMM:  28    -0.232463815012E+04    0.45967E-01   -0.12464E-02  4591   0.577E-02    0.205E+00
RMM:  29    -0.232463882676E+04   -0.67663E-03   -0.99733E-03  4567   0.635E-02    0.182E+00
RMM:  30    -0.232462332352E+04    0.15503E-01   -0.34999E-02  4757   0.104E-01    0.201E+00
RMM:  31    -0.232454030010E+04    0.83023E-01   -0.12030E-01  4514   0.158E-01    0.304E+00
RMM:  32    -0.232445192500E+04    0.88375E-01   -0.69762E-02  4534   0.975E-02    0.322E+00
RMM:  33    -0.232434625051E+04    0.10567E+00   -0.46996E-02  4518   0.865E-02    0.351E+00
RMM:  34    -0.232432136399E+04    0.24887E-01   -0.12625E-02  3981   0.469E-02    0.356E+00
RMM:  35    -0.232431322552E+04    0.81385E-02   -0.11809E-03  3528   0.148E-02    0.357E+00
RMM:  36    -0.232431522047E+04   -0.19950E-02   -0.17249E-03  3397   0.141E-02    0.355E+00
RMM:  37    -0.232429528169E+04    0.19939E-01   -0.26706E-03  3430   0.168E-02    0.354E+00
RMM:  38    -0.232433927810E+04   -0.43996E-01   -0.73461E-03  4011   0.286E-02    0.353E+00
RMM:  39    -0.232444582751E+04   -0.10655E+00   -0.55694E-02  4733   0.797E-02    0.353E+00
RMM:  40    -0.232450070588E+04   -0.54878E-01   -0.40419E-02  4558   0.731E-02    0.366E+00
RMM:  41    -0.232449689343E+04    0.38124E-02   -0.15990E-03  3672   0.236E-02    0.366E+00
RMM:  42    -0.232450356630E+04   -0.66729E-02   -0.99410E-04  3396   0.101E-02    0.364E+00
RMM:  43    -0.232452046548E+04   -0.16899E-01   -0.40358E-03  4291   0.274E-02    0.354E+00
RMM:  44    -0.232451495876E+04    0.55067E-02   -0.34827E-03  4211   0.277E-02    0.344E+00
RMM:  45    -0.232448132663E+04    0.33632E-01   -0.10309E-02  4054   0.355E-02    0.346E+00
RMM:  46    -0.232447395272E+04    0.73739E-02   -0.10981E-03  3397   0.148E-02    0.345E+00
RMM:  47    -0.232447902333E+04   -0.50706E-02   -0.41130E-04  3126   0.777E-03    0.347E+00
RMM:  48    -0.232448017185E+04   -0.11485E-02   -0.16604E-04  2785   0.530E-03    0.348E+00
RMM:  49    -0.232447175165E+04    0.84202E-02   -0.40310E-03  3563   0.204E-02    0.340E+00
RMM:  50    -0.232446755741E+04    0.41942E-02   -0.40001E-02  4469   0.705E-02    0.308E+00
RMM:  51    -0.232424230476E+04    0.22525E+00   -0.22001E-01  4777   0.183E-01    0.252E+00
RMM:  52    -0.232412244699E+04    0.11986E+00   -0.39622E-02  4703   0.895E-02    0.250E+00
RMM:  53    -0.232427357082E+04   -0.15112E+00   -0.28485E-02  4393   0.582E-02    0.231E+00
RMM:  54    -0.232438668291E+04   -0.11311E+00   -0.33026E-02  4549   0.678E-02    0.194E+00
RMM:  55    -0.232459741623E+04   -0.21073E+00   -0.24888E-01  4714   0.161E-01    0.147E+00
RMM:  56    -0.232468836312E+04   -0.90947E-01   -0.20475E-01  4897   0.164E-01    0.109E+00
RMM:  57    -0.232468848161E+04   -0.11849E-03   -0.12451E-02  4744   0.653E-02    0.106E+00
RMM:  58    -0.232468921027E+04   -0.72866E-03   -0.36013E-03  4557   0.120E-02    0.108E+00
RMM:  59    -0.232468879466E+04    0.41561E-03   -0.12142E-04  3044   0.710E-03    0.107E+00
RMM:  60    -0.232469014426E+04   -0.13496E-02   -0.22171E-04  3245   0.617E-03    0.108E+00
RMM:  61    -0.232468754970E+04    0.25946E-02   -0.25244E-03  4401   0.214E-02    0.109E+00
RMM:  62    -0.232468568162E+04    0.18681E-02   -0.71914E-04  3833   0.154E-02    0.111E+00
RMM:  63    -0.232467788958E+04    0.77920E-02   -0.53100E-03  4630   0.333E-02    0.128E+00
RMM:  64    -0.232463697810E+04    0.40911E-01   -0.42885E-02  4517   0.854E-02    0.157E+00
RMM:  65    -0.232466075955E+04   -0.23781E-01   -0.13527E-02  3975   0.394E-02    0.150E+00
RMM:  66    -0.232467401026E+04   -0.13251E-01   -0.77399E-03  4269   0.396E-02    0.140E+00
RMM:  67    -0.232467673891E+04   -0.27286E-02   -0.44846E-04  3397   0.141E-02    0.132E+00
RMM:  68    -0.232467604994E+04    0.68896E-03   -0.62756E-05  2972   0.476E-03    0.133E+00
RMM:  69    -0.232467958281E+04   -0.35329E-02   -0.35705E-03  4502   0.276E-02    0.120E+00
RMM:  70    -0.232469148072E+04   -0.11898E-01   -0.73686E-03  4657   0.414E-02    0.116E+00
RMM:  71    -0.232471580294E+04   -0.24322E-01   -0.28438E-02  4792   0.727E-02    0.204E+00
RMM:  72    -0.232471219479E+04    0.36082E-02   -0.17894E-03  4141   0.316E-02    0.165E+00
RMM:  73    -0.232471143834E+04    0.75645E-03   -0.56103E-04  3920   0.100E-02    0.174E+00
RMM:  74    -0.232470312663E+04    0.83117E-02   -0.36133E-03  4427   0.257E-02    0.136E+00
RMM:  75    -0.232470353339E+04   -0.40676E-03   -0.12450E-03  4121   0.212E-02    0.149E+00
RMM:  76    -0.232470158144E+04    0.19520E-02   -0.44224E-03  4771   0.287E-02    0.143E+00
RMM:  77    -0.232470091806E+04    0.66337E-03   -0.45466E-04  4131   0.154E-02    0.144E+00
RMM:  78    -0.232469552185E+04    0.53962E-02   -0.25427E-03  4546   0.213E-02    0.135E+00
RMM:  79    -0.232468861532E+04    0.69065E-02   -0.34419E-03  4498   0.276E-02    0.142E+00
RMM:  80    -0.232468343060E+04    0.51847E-02   -0.22692E-03  4509   0.217E-02    0.155E+00
RMM:  81    -0.232468512020E+04   -0.16896E-02   -0.23405E-04  3522   0.845E-03    0.151E+00
RMM:  82    -0.232468508507E+04    0.35139E-04   -0.23589E-05  2941   0.372E-03    0.151E+00
RMM:  83    -0.232468506640E+04    0.18666E-04   -0.17182E-05  2828   0.281E-03    0.152E+00
RMM:  84    -0.232468716564E+04   -0.20992E-02   -0.48849E-04  3710   0.936E-03    0.145E+00
RMM:  85    -0.232469210787E+04   -0.49422E-02   -0.16229E-03  4269   0.181E-02    0.136E+00
RMM:  86    -0.232469631614E+04   -0.42083E-02   -0.29522E-03  4493   0.239E-02    0.138E+00
RMM:  87    -0.232469767996E+04   -0.13638E-02   -0.70021E-04  3838   0.144E-02    0.138E+00
RMM:  88    -0.232469858976E+04   -0.90980E-03   -0.32196E-04  3676   0.783E-03    0.140E+00
RMM:  89    -0.232469963617E+04   -0.10464E-02   -0.79997E-05  2962   0.621E-03    0.141E+00
RMM:  90    -0.232469739673E+04    0.22394E-02   -0.15508E-04  2964   0.587E-03    0.136E+00
RMM:  91    -0.232468652572E+04    0.10871E-01   -0.66239E-03  4509   0.339E-02    0.142E+00
RMM:  92    -0.232467246301E+04    0.14063E-01   -0.84018E-03  4616   0.439E-02    0.186E+00
RMM:  93    -0.232466977859E+04    0.26844E-02   -0.16551E-03  4319   0.191E-02    0.197E+00
RMM:  94    -0.232467026531E+04   -0.48672E-03   -0.14594E-04  3161   0.484E-03    0.195E+00
RMM:  95    -0.232467238080E+04   -0.21155E-02   -0.15063E-04  2982   0.649E-03    0.187E+00
RMM:  96    -0.232468149562E+04   -0.91148E-02   -0.27870E-03  4306   0.237E-02    0.156E+00
RMM:  97    -0.232468298501E+04   -0.14894E-02   -0.74005E-04  3929   0.146E-02    0.150E+00
RMM:  98    -0.232469414729E+04   -0.11162E-01   -0.61202E-03  4905   0.340E-02    0.130E+00
RMM:  99    -0.232470388135E+04   -0.97341E-02   -0.61306E-03  4669   0.354E-02    0.146E+00
RMM: 100    -0.232470542440E+04   -0.15431E-02   -0.12457E-03  3957   0.151E-02    0.144E+00
RMM: 101    -0.232468151678E+04    0.23908E-01   -0.33470E-02  4690   0.762E-02    0.154E+00
RMM: 102    -0.232468150519E+04    0.11586E-04   -0.18057E-03  4010   0.301E-02    0.154E+00
RMM: 103    -0.232468154057E+04   -0.35373E-04   -0.28692E-04  3442   0.557E-03    0.154E+00
RMM: 104    -0.232468238909E+04   -0.84853E-03   -0.36746E-05  2764   0.450E-03    0.151E+00
RMM: 105    -0.232468444951E+04   -0.20604E-02   -0.30382E-04  3419   0.819E-03    0.143E+00
RMM: 106    -0.232468759461E+04   -0.31451E-02   -0.74462E-04  4008   0.128E-02    0.133E+00
RMM: 107    -0.232468785251E+04   -0.25790E-03   -0.17225E-04  3125   0.701E-03    0.131E+00
RMM: 108    -0.232468746277E+04    0.38974E-03   -0.22665E-05  2863   0.349E-03    0.131E+00
RMM: 109    -0.232468725326E+04    0.20951E-03   -0.79079E-06  2727   0.271E-03    0.131E+00
RMM: 110    -0.232468600276E+04    0.12505E-02   -0.10432E-04  3433   0.585E-03    0.131E+00
RMM: 111    -0.232468494623E+04    0.10565E-02   -0.20949E-04  3860   0.865E-03    0.130E+00
RMM: 112    -0.232468563831E+04   -0.69209E-03   -0.74028E-05  3068   0.636E-03    0.127E+00
RMM: 113    -0.232468706190E+04   -0.14236E-02   -0.22094E-04  3801   0.793E-03    0.122E+00
RMM: 114    -0.232469227140E+04   -0.52095E-02   -0.17581E-03  4476   0.191E-02    0.112E+00
RMM: 115    -0.232469572165E+04   -0.34502E-02   -0.11208E-03  3962   0.164E-02    0.110E+00
RMM: 116    -0.232470461207E+04   -0.88904E-02   -0.54431E-03  4887   0.319E-02    0.123E+00
RMM: 117    -0.232470486958E+04   -0.25750E-03   -0.52510E-04  3477   0.144E-02    0.118E+00
RMM: 118    -0.232470393443E+04    0.93514E-03   -0.75187E-05  2923   0.442E-03    0.117E+00
RMM: 119    -0.232470244608E+04    0.14884E-02   -0.20286E-04  3244   0.651E-03    0.115E+00
RMM: 120    -0.232470204434E+04    0.40173E-03   -0.41656E-05  2848   0.387E-03    0.115E+00
RMM: 121    -0.232470166028E+04    0.38407E-03   -0.12483E-05  2626   0.223E-03    0.114E+00
RMM: 122    -0.232470176208E+04   -0.10181E-03   -0.88620E-07  2195   0.112E-03    0.114E+00
RMM: 123    -0.232469971110E+04    0.20510E-02   -0.23087E-04  3197   0.648E-03    0.110E+00
RMM: 124    -0.232469699923E+04    0.27119E-02   -0.55968E-04  3870   0.102E-02    0.109E+00
RMM: 125    -0.232470091912E+04   -0.39199E-02   -0.60265E-04  3944   0.112E-02    0.117E+00
RMM: 126    -0.232469923507E+04    0.16841E-02   -0.11882E-04  3032   0.540E-03    0.111E+00
RMM: 127    -0.232469882653E+04    0.40854E-03   -0.34789E-05  2814   0.341E-03    0.113E+00
RMM: 128    -0.232469744642E+04    0.13801E-02   -0.15369E-04  3162   0.589E-03    0.112E+00
RMM: 129    -0.232468959899E+04    0.78474E-02   -0.36228E-03  4638   0.257E-02    0.117E+00
RMM: 130    -0.232469261580E+04   -0.30168E-02   -0.29133E-04  3549   0.110E-02    0.115E+00
RMM: 131    -0.232469813574E+04   -0.55199E-02   -0.18940E-03  4334   0.191E-02    0.114E+00
RMM: 132    -0.232470779026E+04   -0.96545E-02   -0.46298E-03  4469   0.303E-02    0.141E+00
RMM: 133    -0.232470496738E+04    0.28229E-02   -0.26650E-04  3190   0.107E-02    0.122E+00
RMM: 134    -0.232470790056E+04   -0.29332E-02   -0.38969E-04  3358   0.801E-03    0.138E+00
RMM: 135    -0.232470461354E+04    0.32870E-02   -0.39211E-04  3354   0.891E-03    0.121E+00
RMM: 136    -0.232469328805E+04    0.11325E-01   -0.72307E-03  4633   0.359E-02    0.111E+00
RMM: 137    -0.232468399487E+04    0.92932E-02   -0.63844E-03  4684   0.385E-02    0.134E+00
RMM: 138    -0.232467429715E+04    0.96977E-02   -0.57359E-03  5024   0.333E-02    0.166E+00
RMM: 139    -0.232467118132E+04    0.31158E-02   -0.11411E-03  4134   0.156E-02    0.177E+00
RMM: 140    -0.232467337324E+04   -0.21919E-02   -0.11232E-04  2992   0.559E-03    0.170E+00
RMM: 141    -0.232467100801E+04    0.23652E-02   -0.40605E-04  3936   0.952E-03    0.181E+00
RMM: 142    -0.232467045343E+04    0.55458E-03   -0.50608E-05  2906   0.523E-03    0.183E+00
RMM: 143    -0.232466937029E+04    0.10831E-02   -0.67184E-05  2935   0.411E-03    0.187E+00
RMM: 144    -0.232467066822E+04   -0.12979E-02   -0.53765E-05  2785   0.420E-03    0.182E+00
RMM: 145    -0.232467026875E+04    0.39947E-03   -0.70456E-06  2550   0.205E-03    0.182E+00
RMM: 146    -0.232468140706E+04   -0.11138E-01   -0.22701E-03  4278   0.217E-02    0.157E+00
RMM: 147    -0.232468805939E+04   -0.66523E-02   -0.23068E-03  4087   0.232E-02    0.139E+00
RMM: 148    -0.232469014719E+04   -0.20878E-02   -0.78401E-04  3752   0.124E-02    0.134E+00
RMM: 149    -0.232469500002E+04   -0.48528E-02   -0.14376E-03  4382   0.169E-02    0.131E+00
RMM: 150    -0.232469931228E+04   -0.43123E-02   -0.13291E-03  4044   0.170E-02    0.135E+00
RMM: 151    -0.232470055439E+04   -0.12421E-02   -0.38105E-04  3287   0.894E-03    0.135E+00
RMM: 152    -0.232470261375E+04   -0.20594E-02   -0.28523E-04  3488   0.798E-03    0.140E+00
RMM: 153    -0.232470002865E+04    0.25851E-02   -0.24831E-04  3147   0.785E-03    0.132E+00
RMM: 154    -0.232469512805E+04    0.49006E-02   -0.13271E-03  4079   0.159E-02    0.128E+00
RMM: 155    -0.232468422901E+04    0.10899E-01   -0.62292E-03  4620   0.352E-02    0.147E+00
RMM: 156    -0.232467864426E+04    0.55848E-02   -0.22699E-03  4219   0.231E-02    0.164E+00
RMM: 157    -0.232467740014E+04    0.12441E-02   -0.47266E-04  3546   0.879E-03    0.168E+00
RMM: 158    -0.232467861986E+04   -0.12197E-02   -0.46813E-05  2850   0.476E-03    0.164E+00
RMM: 159    -0.232468069305E+04   -0.20732E-02   -0.14214E-04  2953   0.576E-03    0.158E+00
RMM: 160    -0.232468574639E+04   -0.50533E-02   -0.10315E-03  3941   0.142E-02    0.144E+00
RMM: 161    -0.232468710597E+04   -0.13596E-02   -0.20621E-04  3023   0.756E-03    0.141E+00
RMM: 162    -0.232468967431E+04   -0.25683E-02   -0.41443E-04  3597   0.875E-03    0.136E+00
RMM: 163    -0.232469325240E+04   -0.35781E-02   -0.74056E-04  3765   0.124E-02    0.132E+00
RMM: 164    -0.232469572115E+04   -0.24688E-02   -0.49740E-04  3463   0.106E-02    0.131E+00
RMM: 165    -0.232469870215E+04   -0.29810E-02   -0.64264E-04  3857   0.115E-02    0.134E+00
RMM: 166    -0.232470485910E+04   -0.61569E-02   -0.20213E-03  4403   0.197E-02    0.150E+00
RMM: 167    -0.232470426609E+04    0.59301E-03   -0.14092E-04  2973   0.846E-03    0.142E+00
RMM: 168    -0.232470502182E+04   -0.75574E-03   -0.78644E-05  2919   0.371E-03    0.147E+00
RMM: 169    -0.232470490677E+04    0.11506E-03   -0.56871E-06  2740   0.250E-03    0.145E+00
RMM: 170    -0.232470488148E+04    0.25282E-04   -0.12275E-06  2116   0.102E-03    0.145E+00
RMM: 171    -0.232471895943E+04   -0.14078E-01   -0.58044E-03  4626   0.312E-02    0.206E+00
RMM: 172    -0.232472667930E+04   -0.77199E-02   -0.28608E-03  4179   0.255E-02    0.224E+00
RMM: 173    -0.232472582005E+04    0.85925E-03   -0.31683E-04  3180   0.783E-03    0.214E+00
RMM: 174    -0.232472467675E+04    0.11433E-02   -0.32541E-05  2828   0.417E-03    0.212E+00
RMM: 175    -0.232472076526E+04    0.39115E-02   -0.32987E-04  3296   0.762E-03    0.195E+00
RMM: 176    -0.232472908603E+04   -0.83208E-02   -0.12309E-03  3999   0.143E-02    0.234E+00
RMM: 177    -0.232473203706E+04   -0.29510E-02   -0.40073E-04  3220   0.980E-03    0.234E+00
RMM: 178    -0.232473300050E+04   -0.96344E-03   -0.10163E-04  2943   0.496E-03    0.236E+00
RMM: 179    -0.232473373904E+04   -0.73854E-03   -0.29517E-05  2790   0.349E-03    0.238E+00
RMM: 180    -0.232473377117E+04   -0.32134E-04   -0.46421E-06  2614   0.226E-03    0.238E+00
RMM: 181    -0.232471917724E+04    0.14594E-01   -0.42472E-03  4372   0.255E-02    0.175E+00
RMM: 182    -0.232471454360E+04    0.46336E-02   -0.11519E-03  3670   0.171E-02    0.173E+00
RMM: 183    -0.232471397535E+04    0.56825E-03   -0.21795E-04  3064   0.557E-03    0.172E+00
RMM: 184    -0.232471605176E+04   -0.20764E-02   -0.13129E-04  2894   0.588E-03    0.181E+00
RMM: 185    -0.232471667869E+04   -0.62692E-03   -0.40008E-05  2746   0.355E-03    0.180E+00
RMM: 186    -0.232470643190E+04    0.10247E-01   -0.31761E-03  4300   0.225E-02    0.132E+00
RMM: 187    -0.232470097192E+04    0.54600E-02   -0.19579E-03  4042   0.210E-02    0.127E+00
RMM: 188    -0.232470388691E+04   -0.29150E-02   -0.20627E-04  3113   0.758E-03    0.139E+00
RMM: 189    -0.232470611224E+04   -0.22253E-02   -0.22942E-04  3156   0.725E-03    0.144E+00
RMM: 190    -0.232470610264E+04    0.96010E-05   -0.16290E-05  2669   0.326E-03
   1 F= -.23461441E+04 E0= -.23461331E+04  d E =-.234614E+04  mag=     7.0705
       N       E                     dE             d eps       ncg     rms          rms(c)
DAV:   1    -0.232471164042E+04   -0.55282E-02   -0.49292E+01  4576   0.510E+00    0.342E+00
RMM:   2    -0.232541236215E+04   -0.70072E+00   -0.66013E+00  6337   0.112E+00    0.411E+00
RMM:   3    -0.232533424011E+04    0.78122E-01   -0.76623E-01  5800   0.545E-01    0.446E+00
RMM:   4    -0.232529719147E+04    0.37049E-01   -0.95649E-02  5752   0.111E-01    0.372E+00
RMM:   5    -0.232529867837E+04   -0.14869E-02   -0.12597E-02  4921   0.513E-02    0.357E+00
RMM:   6    -0.232524976049E+04    0.48918E-01   -0.61487E-02  4695   0.115E-01    0.221E+00
RMM:   7    -0.232522261753E+04    0.27143E-01   -0.71074E-02  5329   0.129E-01    0.142E+00
RMM:   8    -0.232522641237E+04   -0.37948E-02   -0.34584E-02  5959   0.951E-02    0.116E+00
RMM:   9    -0.232523622172E+04   -0.98094E-02   -0.15418E-02  4903   0.642E-02    0.539E-01
RMM:  10    -0.232524450815E+04   -0.82864E-02   -0.96000E-03  4833   0.513E-02    0.286E-01
RMM:  11    -0.232527163043E+04   -0.27122E-01   -0.49813E-03  4539   0.399E-02    0.215E-01
RMM:  12    -0.232529231814E+04   -0.20688E-01   -0.42604E-03  4501   0.383E-02    0.138E-01
RMM:  13    -0.232530272031E+04   -0.10402E-01   -0.22913E-03  4555   0.329E-02    0.985E-02
RMM:  14    -0.232530843563E+04   -0.57153E-02   -0.14751E-03  4301   0.239E-02    0.498E-02
RMM:  15    -0.232531125696E+04   -0.28213E-02   -0.69321E-04  4268   0.192E-02    0.260E-02
RMM:  16    -0.232531203823E+04   -0.78128E-03   -0.17426E-04  4187   0.103E-02    0.159E-02
RMM:  17    -0.232531251282E+04   -0.47458E-03   -0.64649E-05  3660   0.599E-03    0.855E-03
RMM:  18    -0.232531273778E+04   -0.22496E-03   -0.31459E-05  3250   0.498E-03    0.521E-03
RMM:  19    -0.232531278895E+04   -0.51173E-04   -0.11212E-05  2897   0.364E-03    0.311E-03
RMM:  20    -0.232531280301E+04   -0.14063E-04   -0.59545E-06  2785   0.291E-03    0.170E-03
RMM:  21    -0.232531280576E+04   -0.27495E-05   -0.30194E-06  2538   0.225E-03
   2 F= -.23467528E+04 E0= -.23467528E+04  d E =-.608689E+00  mag=     5.0001
       N       E                     dE             d eps       ncg     rms          rms(c)
DAV:   1    -0.232531957088E+04   -0.67679E-02   -0.51055E-01  5488   0.501E-01    0.231E-01
RMM:   2    -0.232532477209E+04   -0.52012E-02   -0.55745E-02  6422   0.111E-01    0.248E-01
RMM:   3    -0.232532477028E+04    0.18053E-05   -0.62908E-03  5199   0.451E-02    0.194E-01
RMM:   4    -0.232532448922E+04    0.28107E-03   -0.85988E-04  3671   0.121E-02    0.111E-01
RMM:   5    -0.232532442938E+04    0.59838E-04   -0.18767E-04  3035   0.712E-03    0.880E-02
RMM:   6    -0.232532434200E+04    0.87380E-04   -0.14557E-04  3646   0.672E-03    0.417E-02
RMM:   7    -0.232532435971E+04   -0.17706E-04   -0.11654E-04  3115   0.688E-03    0.596E-02
RMM:   8    -0.232532431612E+04    0.43590E-04   -0.45811E-05  2942   0.524E-03    0.123E-02
RMM:   9    -0.232532431394E+04    0.21758E-05   -0.12253E-05  2853   0.317E-03
   3 F= -.23467646E+04 E0= -.23467645E+04  d E =-.620478E+00  mag=     4.9994
       N       E                     dE             d eps       ncg     rms          rms(c)
DAV:   1    -0.232531105044E+04    0.13266E-01   -0.20323E+00  4928   0.100E+00    0.472E-01
RMM:   2    -0.232533235438E+04   -0.21304E-01   -0.22356E-01  6448   0.221E-01    0.542E-01
RMM:   3    -0.232533186360E+04    0.49078E-03   -0.25786E-02  6026   0.930E-02    0.405E-01
RMM:   4    -0.232533069599E+04    0.11676E-02   -0.36417E-03  5049   0.240E-02    0.239E-01
RMM:   5    -0.232533037217E+04    0.32382E-03   -0.77295E-04  3647   0.126E-02    0.170E-01
RMM:   6    -0.232533004993E+04    0.32224E-03   -0.55405E-04  4684   0.122E-02    0.869E-02
RMM:   7    -0.232533011747E+04   -0.67542E-04   -0.47967E-04  4246   0.124E-02    0.122E-01
RMM:   8    -0.232532993147E+04    0.18600E-03   -0.19087E-04  3534   0.811E-03    0.231E-02
RMM:   9    -0.232532992223E+04    0.92432E-05   -0.37553E-05  3039   0.505E-03
   4 F= -.23467708E+04 E0= -.23467707E+04  d E =-.626683E+00  mag=     4.9991
       N       E                     dE             d eps       ncg     rms          rms(c)
DAV:   1    -0.232513933516E+04    0.19060E+00   -0.22644E+01  4544   0.412E+00    0.194E+00
RMM:   2    -0.232576742981E+04   -0.62809E+00   -0.58047E+00  6556   0.119E+00    0.293E+00
RMM:   3    -0.232568275585E+04    0.84674E-01   -0.57908E-01  6121   0.418E-01    0.125E+00
RMM:   4    -0.232568853313E+04   -0.57773E-02   -0.84015E-02  6280   0.104E-01    0.139E+00
RMM:   5    -0.232567310124E+04    0.15432E-01   -0.16833E-02  6067   0.566E-02    0.518E-01
RMM:   6    -0.232567348280E+04   -0.38157E-03   -0.84771E-03  5859   0.420E-02    0.565E-01
RMM:   7    -0.232567020046E+04    0.32823E-02   -0.45218E-03  5927   0.347E-02    0.202E-01
RMM:   8    -0.232566989975E+04    0.30071E-03   -0.15932E-03  5141   0.217E-02    0.776E-02
RMM:   9    -0.232566988802E+04    0.11730E-04   -0.18059E-04  4217   0.138E-02    0.511E-02
RMM:  10    -0.232566986761E+04    0.20409E-04   -0.71051E-05  3367   0.625E-03    0.176E-02
RMM:  11    -0.232566986344E+04    0.41723E-05   -0.24455E-05  2984   0.483E-03
   5 F= -.23471134E+04 E0= -.23471119E+04  d E =-.342602E+00  mag=     4.9725
       N       E                     dE             d eps       ncg     rms          rms(c)
DAV:   1    -0.232500895081E+04    0.66092E+00   -0.34783E+01  4536   0.513E+00    0.340E+00
RMM:   2    -0.232636270963E+04   -0.13538E+01   -0.10376E+01  6509   0.160E+00    0.642E+00
RMM:   3    -0.232588661621E+04    0.47609E+00   -0.11743E+00  5756   0.652E-01    0.323E+00
RMM:   4    -0.232587806870E+04    0.85475E-02   -0.14690E-01  5909   0.133E-01    0.287E+00
RMM:   5    -0.232588377937E+04   -0.57107E-02   -0.16750E-02  5249   0.586E-02    0.286E+00
RMM:   6    -0.232587113162E+04    0.12648E-01   -0.67540E-02  4798   0.118E-01    0.217E+00
RMM:   7    -0.232578027570E+04    0.90856E-01   -0.94125E-02  5169   0.147E-01    0.122E+00
RMM:   8    -0.232581478348E+04   -0.34508E-01   -0.20586E-02  5146   0.831E-02    0.746E-01
RMM:   9    -0.232583811942E+04   -0.23336E-01   -0.15023E-02  4508   0.679E-02    0.408E-01
RMM:  10    -0.232587676306E+04   -0.38644E-01   -0.12074E-02  4539   0.649E-02    0.264E-01
RMM:  11    -0.232590913806E+04   -0.32375E-01   -0.67977E-03  4578   0.495E-02    0.254E-01
RMM:  12    -0.232592372642E+04   -0.14588E-01   -0.33110E-03  4837   0.371E-02    0.124E-01
RMM:  13    -0.232593763478E+04   -0.13908E-01   -0.28943E-03  4449   0.313E-02    0.712E-02
RMM:  14    -0.232594404862E+04   -0.64138E-02   -0.15803E-03  4340   0.276E-02    0.431E-02
RMM:  15    -0.232594635828E+04   -0.23097E-02   -0.62599E-04  4558   0.169E-02    0.249E-02
RMM:  16    -0.232594712488E+04   -0.76660E-03   -0.15560E-04  4114   0.867E-03    0.137E-02
RMM:  17    -0.232594741539E+04   -0.29051E-03   -0.50146E-05  3501   0.557E-03    0.574E-03
RMM:  18    -0.232594747656E+04   -0.61174E-04   -0.13016E-05  2935   0.409E-03    0.291E-03
RMM:  19    -0.232594749043E+04   -0.13869E-04   -0.63028E-06  2822   0.294E-03    0.151E-03
RMM:  20    -0.232594749342E+04   -0.29829E-05   -0.29170E-06  2725   0.231E-03
   6 F= -.23473950E+04 E0= -.23473950E+04  d E =-.624205E+00  mag=     3.0007
       N       E                     dE             d eps       ncg     rms          rms(c)
DAV:   1    -0.232564527737E+04    0.30221E+00   -0.30431E+01  4600   0.484E+00    0.204E+00
RMM:   2    -0.232632444641E+04   -0.67917E+00   -0.66337E+00  6451   0.136E+00    0.260E+00
RMM:   3    -0.232627450218E+04    0.49944E-01   -0.74637E-01  6145   0.496E-01    0.148E+00
RMM:   4    -0.232626493651E+04    0.95657E-02   -0.87107E-02  6181   0.117E-01    0.120E+00
RMM:   5    -0.232625361413E+04    0.11322E-01   -0.17254E-02  5955   0.603E-02    0.698E-01
RMM:   6    -0.232625108473E+04    0.25294E-02   -0.11681E-02  5625   0.545E-02    0.614E-01
RMM:   7    -0.232624760299E+04    0.34817E-02   -0.10390E-02  5940   0.561E-02    0.314E-01
RMM:   8    -0.232624657024E+04    0.10327E-02   -0.17106E-03  5821   0.236E-02    0.107E-01
RMM:   9    -0.232624637094E+04    0.19930E-03   -0.25981E-04  4125   0.133E-02    0.471E-02
RMM:  10    -0.232624629050E+04    0.80442E-04   -0.22407E-04  4284   0.102E-02    0.164E-02
RMM:  11    -0.232624628053E+04    0.99659E-05   -0.40808E-05  3445   0.673E-03
   7 F= -.23476946E+04 E0= -.23476946E+04  d E =-.299538E+00  mag=     3.0001
       N       E                     dE             d eps       ncg     rms          rms(c)
DAV:   1    -0.232598687823E+04    0.25941E+00   -0.16883E+01  4624   0.362E+00    0.148E+00
RMM:   2    -0.232632877489E+04   -0.34190E+00   -0.35226E+00  6401   0.983E-01    0.150E+00
RMM:   3    -0.232633446285E+04   -0.56880E-02   -0.40554E-01  6186   0.368E-01    0.126E+00
RMM:   4    -0.232632107477E+04    0.13388E-01   -0.42842E-02  6210   0.864E-02    0.696E-01
RMM:   5    -0.232631855578E+04    0.25190E-02   -0.79919E-03  5761   0.422E-02    0.549E-01
RMM:   6    -0.232631569258E+04    0.28632E-02   -0.61896E-03  5471   0.420E-02    0.334E-01
RMM:   7    -0.232631534661E+04    0.34596E-03   -0.52356E-03  5669   0.402E-02    0.298E-01
RMM:   8    -0.232631429454E+04    0.10521E-02   -0.10478E-03  5445   0.184E-02    0.691E-02
RMM:   9    -0.232631419551E+04    0.99022E-04   -0.15209E-04  3748   0.106E-02    0.395E-02
RMM:  10    -0.232631415715E+04    0.38363E-04   -0.13398E-04  3940   0.834E-03    0.135E-02
RMM:  11    -0.232631415869E+04   -0.15398E-05   -0.30361E-05  3103   0.576E-03
   8 F= -.23477632E+04 E0= -.23477632E+04  d E =-.368183E+00  mag=     3.0000
       N       E                     dE             d eps       ncg     rms          rms(c)
DAV:   1    -0.232597007540E+04    0.34408E+00   -0.25528E+01  4512   0.392E+00    0.176E+00
RMM:   2    -0.232653431598E+04   -0.56424E+00   -0.55085E+00  6535   0.116E+00    0.255E+00
RMM:   3    -0.232648678771E+04    0.47528E-01   -0.61034E-01  6303   0.430E-01    0.133E+00
RMM:   4    -0.232647712024E+04    0.96675E-02   -0.65639E-02  6316   0.996E-02    0.896E-01
RMM:   5    -0.232647122344E+04    0.58968E-02   -0.12640E-02  5809   0.490E-02    0.613E-01
RMM:   6    -0.232646860833E+04    0.26151E-02   -0.72482E-03  5760   0.417E-02    0.469E-01
RMM:   7    -0.232646726545E+04    0.13429E-02   -0.80002E-03  5922   0.462E-02    0.331E-01
RMM:   8    -0.232646601015E+04    0.12553E-02   -0.17398E-03  5659   0.215E-02    0.853E-02
RMM:   9    -0.232646590179E+04    0.10836E-03   -0.20610E-04  3741   0.109E-02    0.449E-02
RMM:  10    -0.232646586486E+04    0.36933E-04   -0.17911E-04  3912   0.878E-03    0.157E-02
RMM:  11    -0.232646586308E+04    0.17826E-05   -0.29965E-05  3078   0.549E-03
   9 F= -.23479150E+04 E0= -.23479150E+04  d E =-.151735E+00  mag=     3.0000
       N       E                     dE             d eps       ncg     rms          rms(c)
DAV:   1    -0.232637068888E+04    0.95176E-01   -0.59777E+00  4688   0.190E+00    0.828E-01
RMM:   2    -0.232648997358E+04   -0.11928E+00   -0.12271E+00  6535   0.540E-01    0.100E+00
RMM:   3    -0.232649093322E+04   -0.95963E-03   -0.14147E-01  6330   0.200E-01    0.744E-01
RMM:   4    -0.232648611509E+04    0.48181E-02   -0.13422E-02  5919   0.472E-02    0.341E-01
RMM:   5    -0.232648572322E+04    0.39187E-03   -0.24660E-03  5202   0.233E-02    0.311E-01
RMM:   6    -0.232648459858E+04    0.11246E-02   -0.16702E-03  5349   0.217E-02    0.145E-01
RMM:   7    -0.232648473826E+04   -0.13968E-03   -0.15299E-03  5237   0.225E-02    0.177E-01
RMM:   8    -0.232648435110E+04    0.38716E-03   -0.38207E-04  4157   0.107E-02    0.306E-02
RMM:   9    -0.232648432678E+04    0.24325E-04   -0.51819E-05  3026   0.588E-03    0.213E-02
RMM:  10    -0.232648431572E+04    0.11056E-04   -0.48599E-05  3113   0.507E-03    0.768E-03
RMM:  11    -0.232648431556E+04    0.15816E-06   -0.10075E-05  2929   0.406E-03
  10 F= -.23479334E+04 E0= -.23479334E+04  d E =-.170227E+00  mag=     3.0000
       N       E                     dE             d eps       ncg     rms          rms(c)
DAV:   1    -0.232628421265E+04    0.20010E+00   -0.12765E+01  4512   0.283E+00    0.123E+00
RMM:   2    -0.232658985252E+04   -0.30564E+00   -0.30469E+00  6680   0.795E-01    0.163E+00
RMM:   3    -0.232658925909E+04    0.59343E-03   -0.35707E-01  6470   0.310E-01    0.104E+00
RMM:   4    -0.232658028336E+04    0.89757E-02   -0.33884E-02  6094   0.705E-02    0.542E-01
RMM:   5    -0.232657848468E+04    0.17987E-02   -0.53478E-03  5307   0.303E-02    0.402E-01
RMM:   6    -0.232657730791E+04    0.11768E-02   -0.39585E-03  5681   0.302E-02    0.323E-01
RMM:   7    -0.232657655154E+04    0.75636E-03   -0.32899E-03  5558   0.273E-02    0.210E-01
RMM:   8    -0.232657608108E+04    0.47046E-03   -0.69086E-04  4815   0.138E-02    0.525E-02
RMM:   9    -0.232657602087E+04    0.60207E-04   -0.11741E-04  3095   0.781E-03    0.328E-02
RMM:  10    -0.232657600363E+04    0.17242E-04   -0.61126E-05  3002   0.552E-03    0.961E-03
RMM:  11    -0.232657600307E+04    0.55993E-06   -0.18165E-05  2971   0.414E-03
  11 F= -.23480268E+04 E0= -.23480268E+04  d E =-.933422E-01  mag=     3.0000
       N       E                     dE             d eps       ncg     rms          rms(c)
DAV:   1    -0.232648024817E+04    0.95755E-01   -0.48655E+00  4712   0.173E+00    0.751E-01
RMM:   2    -0.232659337829E+04   -0.11313E+00   -0.11410E+00  6676   0.483E-01    0.945E-01
RMM:   3    -0.232659627119E+04   -0.28929E-02   -0.13628E-01  6437   0.192E-01    0.665E-01
RMM:   4    -0.232659228515E+04    0.39860E-02   -0.12370E-02  5882   0.433E-02    0.305E-01
RMM:   5    -0.232659189347E+04    0.39168E-03   -0.19867E-03  4579   0.186E-02    0.257E-01
RMM:   6    -0.232659130659E+04    0.58688E-03   -0.15060E-03  5315   0.191E-02    0.182E-01
RMM:   7    -0.232659114953E+04    0.15706E-03   -0.11727E-03  4958   0.169E-02    0.141E-01
RMM:   8    -0.232659092645E+04    0.22309E-03   -0.26786E-04  3665   0.916E-03    0.302E-02
RMM:   9    -0.232659090458E+04    0.21864E-04   -0.41261E-05  2986   0.557E-03    0.208E-02
RMM:  10    -0.232659089749E+04    0.70880E-05   -0.27227E-05  2931   0.379E-03
  12 F= -.23480427E+04 E0= -.23480427E+04  d E =-.109282E+00  mag=     3.0000
       N       E                     dE             d eps       ncg     rms          rms(c)
DAV:   1    -0.232637444837E+04    0.21646E+00   -0.12306E+01  4512   0.274E+00    0.118E+00
RMM:   2    -0.232665420560E+04   -0.27976E+00   -0.28991E+00  6627   0.752E-01    0.120E+00
RMM:   3    -0.232668417039E+04   -0.29965E-01   -0.36718E-01  6394   0.312E-01    0.125E+00
RMM:   4    -0.232666753366E+04    0.16637E-01   -0.30107E-02  6130   0.700E-02    0.396E-01
RMM:   5    -0.232666726574E+04    0.26792E-03   -0.53301E-03  5579   0.288E-02    0.406E-01
RMM:   6    -0.232666569297E+04    0.15728E-02   -0.32016E-03  5411   0.261E-02    0.223E-01
RMM:   7    -0.232666556314E+04    0.12983E-03   -0.22145E-03  5655   0.225E-02    0.193E-01
RMM:   8    -0.232666518742E+04    0.37573E-03   -0.61690E-04  3602   0.135E-02    0.617E-02
RMM:   9    -0.232666512258E+04    0.64839E-04   -0.12883E-04  3147   0.699E-03    0.351E-02
RMM:  10    -0.232666510499E+04    0.17583E-04   -0.45452E-05  2931   0.541E-03    0.119E-02
RMM:  11    -0.232666510287E+04    0.21239E-05   -0.17283E-05  2956   0.365E-03
  13 F= -.23481182E+04 E0= -.23481182E+04  d E =-.754271E-01  mag=     3.0000
       N       E                     dE             d eps       ncg     rms          rms(c)
DAV:   1    -0.232610676663E+04    0.55834E+00   -0.24981E+01  4512   0.389E+00    0.169E+00
RMM:   2    -0.232668753509E+04   -0.58077E+00   -0.60139E+00  6635   0.108E+00    0.176E+00
RMM:   3    -0.232674243998E+04   -0.54905E-01   -0.71836E-01  6429   0.432E-01    0.179E+00
RMM:   4    -0.232670750313E+04    0.34937E-01   -0.60743E-02  6253   0.992E-02    0.580E-01
RMM:   5    -0.232670704729E+04    0.45584E-03   -0.10969E-02  5830   0.399E-02    0.601E-01
RMM:   6    -0.232670343597E+04    0.36113E-02   -0.68605E-03  5735   0.373E-02    0.318E-01
RMM:   7    -0.232670336169E+04    0.74276E-04   -0.47552E-03  5875   0.319E-02    0.299E-01
RMM:   8    -0.232670244716E+04    0.91453E-03   -0.14450E-03  5021   0.190E-02    0.888E-02
RMM:   9    -0.232670230839E+04    0.13877E-03   -0.32183E-04  3668   0.926E-03    0.491E-02
RMM:  10    -0.232670227591E+04    0.32482E-04   -0.90267E-05  2973   0.720E-03    0.161E-02
RMM:  11    -0.232670227178E+04    0.41331E-05   -0.28863E-05  2983   0.436E-03
  14 F= -.23481570E+04 E0= -.23481570E+04  d E =-.114314E+00  mag=     3.0000
       N       E                     dE             d eps       ncg     rms          rms(c)
DAV:   1    -0.232662791976E+04    0.74356E-01   -0.56001E+00  4544   0.181E+00    0.760E-01
RMM:   2    -0.232674668809E+04   -0.11877E+00   -0.12265E+00  6621   0.477E-01    0.773E-01
RMM:   3    -0.232675875582E+04   -0.12068E-01   -0.14309E-01  6267   0.191E-01    0.807E-01
RMM:   4    -0.232675183295E+04    0.69229E-02   -0.12919E-02  5838   0.446E-02    0.249E-01
RMM:   5    -0.232675179531E+04    0.37638E-04   -0.21715E-03  5173   0.186E-02    0.272E-01
RMM:   6    -0.232675107353E+04    0.72178E-03   -0.11985E-03  4915   0.168E-02    0.129E-01
RMM:   7    -0.232675096688E+04    0.10665E-03   -0.66077E-04  4949   0.134E-02    0.750E-02
RMM:   8    -0.232675092199E+04    0.44890E-04   -0.18951E-04  3017   0.936E-03    0.509E-02
RMM:   9    -0.232675088726E+04    0.34733E-04   -0.38516E-05  2937   0.475E-03    0.195E-02
RMM:  10    -0.232675088278E+04    0.44782E-05   -0.14845E-05  2926   0.348E-03
  15 F= -.23482060E+04 E0= -.23482060E+04  d E =-.489840E-01  mag=     3.0000
       N       E                     dE             d eps       ncg     rms          rms(c)
DAV:   1    -0.232584317749E+04    0.90771E+00   -0.42358E+01  4512   0.498E+00    0.212E+00
RMM:   2    -0.232677509214E+04   -0.93191E+00   -0.96415E+00  6583   0.136E+00    0.216E+00
RMM:   3    -0.232686915940E+04   -0.94067E-01   -0.11420E+00  6298   0.542E-01    0.224E+00
RMM:   4    -0.232681340935E+04    0.55750E-01   -0.99023E-02  6287   0.124E-01    0.727E-01
RMM:   5    -0.232681207308E+04    0.13363E-02   -0.16186E-02  5946   0.480E-02    0.728E-01
RMM:   6    -0.232680709498E+04    0.49781E-02   -0.90485E-03  5884   0.434E-02    0.386E-01
RMM:   7    -0.232680555106E+04    0.15439E-02   -0.56311E-03  5262   0.365E-02    0.152E-01
RMM:   8    -0.232680564049E+04   -0.89422E-04   -0.13247E-03  4710   0.252E-02    0.178E-01
RMM:   9    -0.232680526250E+04    0.37798E-03   -0.55882E-04  4403   0.117E-02    0.713E-02
RMM:  10    -0.232680519825E+04    0.64252E-04   -0.13053E-04  3122   0.760E-03    0.259E-02
RMM:  11    -0.232680519498E+04    0.32669E-05   -0.52532E-05  3124   0.552E-03
  16 F= -.23482613E+04 E0= -.23482613E+04  d E =-.104271E+00  mag=     3.0000
       N       E                     dE             d eps       ncg     rms          rms(c)
DAV:   1    -0.232676563063E+04    0.39568E-01   -0.31837E+00  4576   0.142E+00    0.563E-01
RMM:   2    -0.232683169637E+04   -0.66066E-01   -0.70179E-01  6555   0.373E-01    0.397E-01
RMM:   3    -0.232684016074E+04   -0.84644E-02   -0.79069E-02  6127   0.148E-01    0.554E-01
RMM:   4    -0.232683706408E+04    0.30967E-02   -0.71957E-03  5396   0.333E-02    0.195E-01
RMM:   5    -0.232683692833E+04    0.13575E-03   -0.10656E-03  4663   0.146E-02    0.178E-01
RMM:   6    -0.232683670974E+04    0.21859E-03   -0.63735E-04  4195   0.130E-02    0.117E-01
RMM:   7    -0.232683656786E+04    0.14188E-03   -0.32538E-04  4582   0.109E-02    0.274E-02
RMM:   8    -0.232683656353E+04    0.43214E-05   -0.34184E-05  3020   0.684E-03
  17 F= -.23482926E+04 E0= -.23482926E+04  d E =-.313053E-01  mag=     3.0000
       N       E                     dE             d eps       ncg     rms          rms(c)
DAV:   1    -0.232671582246E+04    0.12075E+00   -0.61166E+00  4512   0.198E+00    0.784E-01
RMM:   2    -0.232684364057E+04   -0.12782E+00   -0.13569E+00  6533   0.524E-01    0.566E-01
RMM:   3    -0.232685947140E+04   -0.15831E-01   -0.15012E-01  6170   0.203E-01    0.769E-01
RMM:   4    -0.232685334098E+04    0.61304E-02   -0.13823E-02  5856   0.465E-02    0.274E-01
RMM:   5    -0.232685311591E+04    0.22508E-03   -0.20869E-03  5132   0.199E-02    0.252E-01
RMM:   6    -0.232685261192E+04    0.50398E-03   -0.12562E-03  5053   0.175E-02    0.157E-01
RMM:   7    -0.232685239566E+04    0.21627E-03   -0.67097E-04  5010   0.144E-02    0.783E-02
RMM:   8    -0.232685236549E+04    0.30167E-04   -0.22838E-04  3115   0.103E-02    0.583E-02
RMM:   9    -0.232685231828E+04    0.47206E-04   -0.49668E-05  2995   0.555E-03    0.233E-02
RMM:  10    -0.232685230916E+04    0.91198E-05   -0.20205E-05  2916   0.408E-03
  18 F= -.23483083E+04 E0= -.23483083E+04  d E =-.469895E-01  mag=     3.0000
       N       E                     dE             d eps       ncg     rms          rms(c)
DAV:   1    -0.232682956275E+04    0.22756E-01   -0.20821E+00  4544   0.128E+00    0.475E-01
RMM:   2    -0.232686968211E+04   -0.40119E-01   -0.42790E-01  6309   0.310E-01    0.334E-01
RMM:   3    -0.232687552533E+04   -0.58432E-02   -0.54448E-02  6022   0.132E-01    0.475E-01
RMM:   4    -0.232687317852E+04    0.23468E-02   -0.46176E-03  5345   0.287E-02    0.158E-01
RMM:   5    -0.232687307517E+04    0.10335E-03   -0.81913E-04  4468   0.144E-02    0.143E-01
RMM:   6    -0.232687296047E+04    0.11470E-03   -0.50984E-04  4395   0.124E-02    0.103E-01
RMM:   7    -0.232687285507E+04    0.10541E-03   -0.21511E-04  4135   0.956E-03    0.357E-02
RMM:   8    -0.232687284970E+04    0.53656E-05   -0.56296E-05  2930   0.668E-03
  19 F= -.23483288E+04 E0= -.23483288E+04  d E =-.204559E-01  mag=     3.0000
       N       E                     dE             d eps       ncg     rms          rms(c)
DAV:   1    -0.232682968057E+04    0.43174E-01   -0.24276E+00  4528   0.137E+00    0.516E-01
RMM:   2    -0.232687669072E+04   -0.47010E-01   -0.50035E-01  6320   0.335E-01    0.380E-01
RMM:   3    -0.232688351852E+04   -0.68278E-02   -0.63466E-02  6044   0.141E-01    0.531E-01
RMM:   4    -0.232688053366E+04    0.29849E-02   -0.53955E-03  5458   0.313E-02    0.167E-01
RMM:   5    -0.232688044448E+04    0.89182E-04   -0.10133E-03  4732   0.158E-02    0.160E-01
RMM:   6    -0.232688027651E+04    0.16796E-03   -0.60492E-04  4725   0.132E-02    0.106E-01
RMM:   7    -0.232688017736E+04    0.99151E-04   -0.25275E-04  4284   0.998E-03    0.483E-02
RMM:   8    -0.232688015530E+04    0.22063E-04   -0.72834E-05  2953   0.712E-03    0.299E-02
RMM:   9    -0.232688014166E+04    0.13639E-04   -0.16104E-05  2914   0.355E-03    0.141E-02
RMM:  10    -0.232688013935E+04    0.23122E-05   -0.93216E-06  2905   0.300E-03
  20 F= -.23483360E+04 E0= -.23483360E+04  d E =-.276632E-01  mag=     3.0000
       N       E                     dE             d eps       ncg     rms          rms(c)
DAV:   1    -0.232685968211E+04    0.20460E-01   -0.18957E+00  4544   0.127E+00    0.452E-01
RMM:   2    -0.232689497172E+04   -0.35290E-01   -0.35064E-01  6151   0.300E-01    0.544E-01
RMM:   3    -0.232689625523E+04   -0.12835E-02   -0.38742E-02  6026   0.120E-01    0.432E-01
RMM:   4    -0.232689423856E+04    0.20167E-02   -0.35868E-03  5343   0.278E-02    0.147E-01
RMM:   5    -0.232689426248E+04   -0.23920E-04   -0.75179E-04  4302   0.146E-02    0.169E-01
RMM:   6    -0.232689395584E+04    0.30664E-03   -0.54342E-04  4866   0.139E-02    0.719E-02
RMM:   7    -0.232689397722E+04   -0.21379E-04   -0.28928E-04  3509   0.108E-02    0.764E-02
RMM:   8    -0.232689389391E+04    0.83303E-04   -0.79195E-05  2966   0.637E-03    0.147E-02
RMM:   9    -0.232689388846E+04    0.54580E-05   -0.14332E-05  2946   0.404E-03
  21 F= -.23483499E+04 E0= -.23483499E+04  d E =-.138870E-01  mag=     3.0000
       N       E                     dE             d eps       ncg     rms          rms(c)
DAV:   1    -0.232687801478E+04    0.15879E-01   -0.10384E+00  4632   0.935E-01    0.334E-01
RMM:   2    -0.232689723347E+04   -0.19219E-01   -0.19089E-01  6141   0.221E-01    0.404E-01
RMM:   3    -0.232689801070E+04   -0.77723E-03   -0.21904E-02  5958   0.900E-02    0.320E-01
RMM:   4    -0.232689692078E+04    0.10899E-02   -0.20257E-03  4881   0.208E-02    0.110E-01
RMM:   5    -0.232689692004E+04    0.73828E-06   -0.39807E-04  3359   0.111E-02    0.123E-01
RMM:   6    -0.232689675741E+04    0.16264E-03   -0.29946E-04  4368   0.111E-02    0.565E-02
RMM:   7    -0.232689676652E+04   -0.91084E-05   -0.17068E-04  3233   0.884E-03    0.590E-02
RMM:   8    -0.232689671663E+04    0.49888E-04   -0.48027E-05  2934   0.569E-03    0.114E-02
RMM:   9    -0.232689671341E+04    0.32169E-05   -0.97937E-06  2923   0.353E-03
  22 F= -.23483528E+04 E0= -.23483528E+04  d E =-.168229E-01  mag=     3.0000
       N       E                     dE             d eps       ncg     rms          rms(c)
DAV:   1    -0.232688642470E+04    0.10292E-01   -0.10228E+00  4544   0.101E+00    0.362E-01
RMM:   2    -0.232690585856E+04   -0.19434E-01   -0.17860E-01  6121   0.225E-01    0.539E-01
RMM:   3    -0.232690468067E+04    0.11779E-02   -0.20654E-02  5927   0.929E-02    0.282E-01
RMM:   4    -0.232690380804E+04    0.87263E-03   -0.19550E-03  4866   0.217E-02    0.112E-01
RMM:   5    -0.232690384098E+04   -0.32938E-04   -0.45207E-04  3908   0.135E-02    0.137E-01
RMM:   6    -0.232690362570E+04    0.21528E-03   -0.34955E-04  4513   0.118E-02    0.560E-02
RMM:   7    -0.232690362606E+04   -0.36908E-06   -0.13457E-04  3069   0.960E-03    0.511E-02
RMM:   8    -0.232690358734E+04    0.38725E-04   -0.37989E-05  2918   0.478E-03    0.983E-03
RMM:   9    -0.232690358401E+04    0.33280E-05   -0.82804E-06  2915   0.337E-03
  23 F= -.23483595E+04 E0= -.23483595E+04  d E =-.666641E-02  mag=     3.0000
       N       E                     dE             d eps       ncg     rms          rms(c)
DAV:   1    -0.232690214474E+04    0.14426E-02   -0.11691E-01  4816   0.341E-01    0.122E-01
RMM:   2    -0.232690431729E+04   -0.21725E-02   -0.20083E-02  6133   0.759E-02    0.177E-01
RMM:   3    -0.232690420471E+04    0.11257E-03   -0.23175E-03  4069   0.312E-02    0.963E-02
RMM:   4    -0.232690410114E+04    0.10358E-03   -0.21968E-04  3056   0.844E-03    0.374E-02
RMM:   5    -0.232690410599E+04   -0.48561E-05   -0.54239E-05  2939   0.522E-03
  24 F= -.23483599E+04 E0= -.23483599E+04  d E =-.712059E-02  mag=     3.0000
       N       E                     dE             d eps       ncg     rms          rms(c)
DAV:   1    -0.232688563880E+04    0.18462E-01   -0.12276E+00  4544   0.105E+00    0.345E-01
RMM:   2    -0.232691086786E+04   -0.25229E-01   -0.24953E-01  6453   0.238E-01    0.452E-01
RMM:   3    -0.232691184396E+04   -0.97610E-03   -0.29362E-02  5995   0.961E-02    0.315E-01
RMM:   4    -0.232691076499E+04    0.10790E-02   -0.25139E-03  4684   0.213E-02    0.106E-01
RMM:   5    -0.232691064060E+04    0.12438E-03   -0.40519E-04  4082   0.112E-02    0.736E-02
RMM:   6    -0.232691064817E+04   -0.75624E-05   -0.25738E-04  3209   0.965E-03    0.731E-02
RMM:   7    -0.232691058738E+04    0.60790E-04   -0.85554E-05  3029   0.733E-03    0.151E-02
RMM:   8    -0.232691058835E+04   -0.97776E-06   -0.16374E-05  2948   0.466E-03
  25 F= -.23483662E+04 E0= -.23483662E+04  d E =-.632985E-02  mag=     3.0000
       N       E                     dE             d eps       ncg     rms          rms(c)
DAV:   1    -0.232686913312E+04    0.41454E-01   -0.21239E+00  4512   0.138E+00    0.463E-01
RMM:   2    -0.232691436621E+04   -0.45233E-01   -0.43842E-01  6420   0.314E-01    0.670E-01
RMM:   3    -0.232691453542E+04   -0.16921E-03   -0.50481E-02  6065   0.124E-01    0.391E-01
RMM:   4    -0.232691288486E+04    0.16506E-02   -0.43825E-03  5273   0.275E-02    0.135E-01
RMM:   5    -0.232691262158E+04    0.26328E-03   -0.60414E-04  4497   0.139E-02    0.774E-02
RMM:   6    -0.232691268979E+04   -0.68211E-04   -0.33923E-04  4177   0.121E-02    0.922E-02
RMM:   7    -0.232691258659E+04    0.10320E-03   -0.10791E-04  3052   0.745E-03    0.272E-02
RMM:   8    -0.232691258781E+04   -0.12214E-05   -0.30384E-05  2950   0.451E-03
  26 F= -.23483680E+04 E0= -.23483680E+04  d E =-.813109E-02  mag=     3.0000
       N       E                     dE             d eps       ncg     rms          rms(c)
DAV:   1    -0.232689177081E+04    0.20816E-01   -0.12838E+00  4512   0.110E+00    0.354E-01
RMM:   2    -0.232691608366E+04   -0.24313E-01   -0.24770E-01  6397   0.251E-01    0.362E-01
RMM:   3    -0.232691833987E+04   -0.22562E-02   -0.28050E-02  5972   0.980E-02    0.369E-01
RMM:   4    -0.232691683110E+04    0.15088E-02   -0.26194E-03  4951   0.230E-02    0.111E-01
RMM:   5    -0.232691683868E+04   -0.75776E-05   -0.42334E-04  3478   0.110E-02    0.125E-01
RMM:   6    -0.232691667916E+04    0.15952E-03   -0.27556E-04  3886   0.101E-02    0.559E-02
RMM:   7    -0.232691666650E+04    0.12660E-04   -0.13998E-04  3719   0.858E-03    0.345E-02
RMM:   8    -0.232691665470E+04    0.11796E-04   -0.34631E-05  2936   0.578E-03    0.163E-02
RMM:   9    -0.232691665111E+04    0.35913E-05   -0.66807E-06  2884   0.272E-03
  27 F= -.23483720E+04 E0= -.23483720E+04  d E =-.396309E-02  mag=     3.0000
       N       E                     dE             d eps       ncg     rms          rms(c)
DAV:   1    -0.232685480356E+04    0.61851E-01   -0.32461E+00  4512   0.175E+00    0.562E-01
RMM:   2    -0.232691624268E+04   -0.61439E-01   -0.62617E-01  6369   0.402E-01    0.569E-01
RMM:   3    -0.232692201196E+04   -0.57693E-02   -0.71800E-02  6042   0.159E-01    0.581E-01
RMM:   4    -0.232691826854E+04    0.37434E-02   -0.65729E-03  5793   0.365E-02    0.183E-01
RMM:   5    -0.232691824970E+04    0.18843E-04   -0.10848E-03  4655   0.161E-02    0.195E-01
RMM:   6    -0.232691785498E+04    0.39472E-03   -0.69499E-04  5027   0.141E-02    0.914E-02
RMM:   7    -0.232691783551E+04    0.19478E-04   -0.38174E-04  4434   0.124E-02    0.720E-02
RMM:   8    -0.232691777193E+04    0.63578E-04   -0.10825E-04  3035   0.728E-03    0.245E-02
RMM:   9    -0.232691776262E+04    0.93084E-05   -0.18024E-05  2975   0.412E-03
  28 F= -.23483730E+04 E0= -.23483730E+04  d E =-.491175E-02  mag=     3.0000
       N       E                     dE             d eps       ncg     rms          rms(c)
DAV:   1    -0.232690204084E+04    0.15731E-01   -0.10673E+00  4512   0.961E-01    0.308E-01
RMM:   2    -0.232692190336E+04   -0.19863E-01   -0.20277E-01  6494   0.224E-01    0.315E-01
RMM:   3    -0.232692348309E+04   -0.15797E-02   -0.21597E-02  5973   0.830E-02    0.310E-01
RMM:   4    -0.232692243281E+04    0.10503E-02   -0.19794E-03  4319   0.197E-02    0.107E-01
RMM:   5    -0.232692242362E+04    0.91885E-05   -0.32241E-04  3126   0.957E-03    0.106E-01
RMM:   6    -0.232692229721E+04    0.12640E-03   -0.21963E-04  3718   0.925E-03    0.473E-02
RMM:   7    -0.232692230286E+04   -0.56507E-05   -0.12851E-04  3281   0.801E-03    0.429E-02
RMM:   8    -0.232692227933E+04    0.23536E-04   -0.35489E-05  2933   0.545E-03    0.112E-02
RMM:   9    -0.232692227744E+04    0.18853E-05   -0.64441E-06  2878   0.271E-03
  29 F= -.23483772E+04 E0= -.23483772E+04  d E =-.426002E-02  mag=     3.0000
       N       E                     dE             d eps       ncg     rms          rms(c)
DAV:   1    -0.232683906760E+04    0.83212E-01   -0.45940E+00  4512   0.199E+00    0.639E-01
RMM:   2    -0.232692455318E+04   -0.85486E-01   -0.87307E-01  6484   0.468E-01    0.652E-01
RMM:   3    -0.232693150277E+04   -0.69496E-02   -0.94586E-02  6169   0.175E-01    0.646E-01
RMM:   4    -0.232692695572E+04    0.45471E-02   -0.86031E-03  5903   0.409E-02    0.230E-01
RMM:   5    -0.232692684428E+04    0.11144E-03   -0.13980E-03  4525   0.172E-02    0.215E-01
RMM:   6    -0.232692635042E+04    0.49385E-03   -0.92715E-04  5007   0.165E-02    0.108E-01
RMM:   7    -0.232692639410E+04   -0.43673E-04   -0.65585E-04  4508   0.151E-02    0.108E-01
RMM:   8    -0.232692623702E+04    0.15708E-03   -0.17820E-04  3306   0.810E-03    0.231E-02
RMM:   9    -0.232692622731E+04    0.97133E-05   -0.30388E-05  2986   0.494E-03
  30 F= -.23483806E+04 E0= -.23483806E+04  d E =-.767405E-02  mag=     3.0000
       N       E                     dE             d eps       ncg     rms          rms(c)
DAV:   1    -0.232691588006E+04    0.10357E-01   -0.95750E-01  4544   0.876E-01    0.288E-01
RMM:   2    -0.232693240074E+04   -0.16521E-01   -0.16515E-01  6325   0.202E-01    0.348E-01
RMM:   3    -0.232693289329E+04   -0.49255E-03   -0.16650E-02  5959   0.760E-02    0.273E-01
RMM:   4    -0.232693207820E+04    0.81509E-03   -0.15220E-03  4426   0.181E-02    0.997E-02
RMM:   5    -0.232693209554E+04   -0.17339E-04   -0.30390E-04  3173   0.994E-03    0.114E-01
RMM:   6    -0.232693193828E+04    0.15726E-03   -0.26324E-04  4019   0.102E-02    0.340E-02
RMM:   7    -0.232693193289E+04    0.53865E-05   -0.69693E-05  3139   0.732E-03
  31 F= -.23483860E+04 E0= -.23483860E+04  d E =-.540028E-02  mag=     3.0000
       N       E                     dE             d eps       ncg     rms          rms(c)
DAV:   1    -0.232689031689E+04    0.41621E-01   -0.26915E+00  4512   0.147E+00    0.483E-01
RMM:   2    -0.232693652929E+04   -0.46212E-01   -0.46391E-01  6329   0.337E-01    0.574E-01
RMM:   3    -0.232693845349E+04   -0.19242E-02   -0.49708E-02  6078   0.131E-01    0.465E-01
RMM:   4    -0.232693605858E+04    0.23949E-02   -0.43488E-03  5485   0.305E-02    0.167E-01
RMM:   5    -0.232693611224E+04   -0.53660E-04   -0.86724E-04  4248   0.155E-02    0.193E-01
RMM:   6    -0.232693565944E+04    0.45280E-03   -0.75276E-04  4757   0.151E-02    0.594E-02
RMM:   7    -0.232693563234E+04    0.27104E-04   -0.19824E-04  3844   0.111E-02    0.205E-02
RMM:   8    -0.232693562553E+04    0.68051E-05   -0.25410E-05  3009   0.502E-03
  32 F= -.23483892E+04 E0= -.23483892E+04  d E =-.858265E-02  mag=     3.0000
       N       E                     dE             d eps       ncg     rms          rms(c)
DAV:   1    -0.232692296595E+04    0.12666E-01   -0.12127E+00  4528   0.978E-01    0.317E-01
RMM:   2    -0.232694174135E+04   -0.18775E-01   -0.18194E-01  6275   0.214E-01    0.424E-01
RMM:   3    -0.232694176631E+04   -0.24962E-04   -0.19299E-02  5879   0.817E-02    0.277E-01
RMM:   4    -0.232694097434E+04    0.79197E-03   -0.18225E-03  4517   0.191E-02    0.109E-01
RMM:   5    -0.232694094184E+04    0.32499E-04   -0.31405E-04  3120   0.995E-03    0.103E-01
RMM:   6    -0.232694083739E+04    0.10445E-03   -0.28519E-04  4099   0.103E-02    0.659E-02
RMM:   7    -0.232694082312E+04    0.14269E-04   -0.14387E-04  3120   0.842E-03    0.505E-02
RMM:   8    -0.232694079555E+04    0.27566E-04   -0.37982E-05  2979   0.519E-03    0.103E-02
RMM:   9    -0.232694079338E+04    0.21728E-05   -0.71330E-06  2901   0.343E-03
  33 F= -.23483940E+04 E0= -.23483940E+04  d E =-.476411E-02  mag=     3.0000
       N       E                     dE             d eps       ncg     rms          rms(c)
DAV:   1    -0.232689064300E+04    0.50153E-01   -0.36647E+00  4512   0.170E+00    0.547E-01
RMM:   2    -0.232694714023E+04   -0.56497E-01   -0.54986E-01  6219   0.372E-01    0.721E-01
RMM:   3    -0.232694765161E+04   -0.51138E-03   -0.59113E-02  5994   0.145E-01    0.484E-01
RMM:   4    -0.232694510265E+04    0.25490E-02   -0.53984E-03  5439   0.330E-02    0.174E-01
RMM:   5    -0.232694513716E+04   -0.34512E-04   -0.94881E-04  4383   0.165E-02    0.196E-01
RMM:   6    -0.232694469548E+04    0.44168E-03   -0.83578E-04  4886   0.159E-02    0.937E-02
RMM:   7    -0.232694471644E+04   -0.20961E-04   -0.42226E-04  4094   0.129E-02    0.926E-02
RMM:   8    -0.232694461364E+04    0.10280E-03   -0.11817E-04  3105   0.707E-03    0.193E-02
RMM:   9    -0.232694460462E+04    0.90199E-05   -0.21196E-05  2958   0.471E-03
  34 F= -.23483971E+04 E0= -.23483971E+04  d E =-.787362E-02  mag=     3.0000
       N       E                     dE             d eps       ncg     rms          rms(c)
DAV:   1    -0.232692295514E+04    0.21658E-01   -0.18686E+00  4512   0.119E+00    0.381E-01
RMM:   2    -0.232695143807E+04   -0.28483E-01   -0.27990E-01  6223   0.258E-01    0.476E-01
RMM:   3    -0.232695216092E+04   -0.72285E-03   -0.29689E-02  5885   0.101E-01    0.337E-01
RMM:   4    -0.232695098341E+04    0.11775E-02   -0.29008E-03  4965   0.237E-02    0.137E-01
RMM:   5    -0.232695094176E+04    0.41642E-04   -0.49566E-04  3351   0.120E-02    0.132E-01
RMM:   6    -0.232695076744E+04    0.17432E-03   -0.44305E-04  4359   0.124E-02    0.783E-02
RMM:   7    -0.232695076229E+04    0.51534E-05   -0.23883E-04  3465   0.990E-03    0.683E-02
RMM:   8    -0.232695071197E+04    0.50321E-04   -0.65221E-05  3019   0.615E-03    0.145E-02
RMM:   9    -0.232695070952E+04    0.24513E-05   -0.13205E-05  2938   0.405E-03
  35 F= -.23484026E+04 E0= -.23484026E+04  d E =-.553717E-02  mag=     3.0000
       N       E                     dE             d eps       ncg     rms          rms(c)
DAV:   1    -0.232691601523E+04    0.34697E-01   -0.24675E+00  4512   0.137E+00    0.439E-01
RMM:   2    -0.232695394758E+04   -0.37932E-01   -0.37288E-01  6220   0.298E-01    0.550E-01
RMM:   3    -0.232695484740E+04   -0.89982E-03   -0.39382E-02  5925   0.117E-01    0.386E-01
RMM:   4    -0.232695330185E+04    0.15455E-02   -0.38401E-03  5245   0.273E-02    0.157E-01
RMM:   5    -0.232695324588E+04    0.55974E-04   -0.66037E-04  3716   0.137E-02    0.152E-01
RMM:   6    -0.232695300824E+04    0.23764E-03   -0.58577E-04  4589   0.138E-02    0.904E-02
RMM:   7    -0.232695300003E+04    0.82130E-05   -0.31654E-04  3748   0.112E-02    0.789E-02
RMM:   8    -0.232695293265E+04    0.67377E-04   -0.86921E-05  3063   0.663E-03    0.170E-02
RMM:   9    -0.232695292984E+04    0.28038E-05   -0.17527E-05  2958   0.454E-03
  36 F= -.23484042E+04 E0= -.23484042E+04  d E =-.710449E-02  mag=     3.0000
       N       E                     dE             d eps       ncg     rms          rms(c)
DAV:   1    -0.232691599112E+04    0.36942E-01   -0.27138E+00  4512   0.143E+00    0.456E-01
RMM:   2    -0.232695834599E+04   -0.42355E-01   -0.42803E-01  6271   0.312E-01    0.489E-01
RMM:   3    -0.232696093481E+04   -0.25888E-02   -0.45116E-02  6014   0.121E-01    0.412E-01
RMM:   4    -0.232695909304E+04    0.18418E-02   -0.41995E-03  5242   0.284E-02    0.173E-01
RMM:   5    -0.232695909434E+04   -0.12992E-05   -0.76679E-04  3742   0.132E-02    0.184E-01
RMM:   6    -0.232695872673E+04    0.36761E-03   -0.59014E-04  4438   0.134E-02    0.695E-02
RMM:   7    -0.232695872921E+04   -0.24744E-05   -0.28006E-04  3826   0.104E-02    0.475E-02
RMM:   8    -0.232695871419E+04    0.15022E-04   -0.71733E-05  2991   0.655E-03    0.282E-02
RMM:   9    -0.232695870473E+04    0.94604E-05   -0.14925E-05  2932   0.344E-03
  37 F= -.23484092E+04 E0= -.23484092E+04  d E =-.502215E-02  mag=     3.0000
       N       E                     dE             d eps       ncg     rms          rms(c)
DAV:   1    -0.232692339028E+04    0.35324E-01   -0.24020E+00  4512   0.135E+00    0.428E-01
RMM:   2    -0.232696071075E+04   -0.37320E-01   -0.37717E-01  6244   0.293E-01    0.459E-01
RMM:   3    -0.232696296872E+04   -0.22580E-02   -0.39606E-02  6005   0.115E-01    0.385E-01
RMM:   4    -0.232696136724E+04    0.16015E-02   -0.36986E-03  5107   0.267E-02    0.164E-01
RMM:   5    -0.232696136651E+04    0.73152E-06   -0.67248E-04  3570   0.125E-02    0.173E-01
RMM:   6    -0.232696103912E+04    0.32739E-03   -0.52813E-04  4307   0.129E-02    0.644E-02
RMM:   7    -0.232696104169E+04   -0.25721E-05   -0.24738E-04  3760   0.992E-03    0.440E-02
RMM:   8    -0.232696102862E+04    0.13066E-04   -0.61727E-05  2971   0.634E-03    0.264E-02
RMM:   9    -0.232696101989E+04    0.87271E-05   -0.13602E-05  2927   0.329E-03
  38 F= -.23484108E+04 E0= -.23484108E+04  d E =-.663194E-02  mag=     3.0000
       N       E                     dE             d eps       ncg     rms          rms(c)
DAV:   1    -0.232694804983E+04    0.12979E-01   -0.13615E+00  4512   0.111E+00    0.361E-01
RMM:   2    -0.232696725888E+04   -0.19209E-01   -0.19165E-01  6076   0.239E-01    0.385E-01
RMM:   3    -0.232696783188E+04   -0.57300E-03   -0.19139E-02  5947   0.923E-02    0.293E-01
RMM:   4    -0.232696686972E+04    0.96216E-03   -0.19635E-03  5222   0.230E-02    0.142E-01
RMM:   5    -0.232696682153E+04    0.48187E-04   -0.52302E-04  3416   0.127E-02    0.133E-01
RMM:   6    -0.232696669198E+04    0.12955E-03   -0.44420E-04  4657   0.132E-02    0.870E-02
RMM:   7    -0.232696663447E+04    0.57518E-04   -0.21695E-04  3420   0.104E-02    0.514E-02
RMM:   8    -0.232696659804E+04    0.36430E-04   -0.37776E-05  2957   0.538E-03    0.117E-02
RMM:   9    -0.232696659489E+04    0.31511E-05   -0.96363E-06  2926   0.367E-03
  39 F= -.23484158E+04 E0= -.23484158E+04  d E =-.496253E-02  mag=     3.0000
       N       E                     dE             d eps       ncg     rms          rms(c)
DAV:   1    -0.232696188003E+04    0.47180E-02   -0.42192E-01  4544   0.619E-01    0.201E-01
RMM:   2    -0.232696784714E+04   -0.59671E-02   -0.59522E-02  6081   0.133E-01    0.216E-01
RMM:   3    -0.232696800442E+04   -0.15728E-03   -0.58060E-03  5726   0.509E-02    0.163E-01
RMM:   4    -0.232696770748E+04    0.29695E-03   -0.60151E-04  3822   0.129E-02    0.785E-02
RMM:   5    -0.232696769296E+04    0.14515E-04   -0.16242E-04  3000   0.775E-03    0.746E-02
RMM:   6    -0.232696765338E+04    0.39581E-04   -0.14128E-04  3773   0.789E-03    0.506E-02
RMM:   7    -0.232696763191E+04    0.21471E-04   -0.70255E-05  2985   0.686E-03    0.278E-02
RMM:   8    -0.232696762125E+04    0.10656E-04   -0.13201E-05  2911   0.361E-03    0.664E-03
RMM:   9    -0.232696762032E+04    0.93482E-06   -0.39753E-06  2873   0.265E-03
  40 F= -.23484165E+04 E0= -.23484165E+04  d E =-.564507E-02  mag=     3.0000
       N       E                     dE             d eps       ncg     rms          rms(c)
DAV:   1    -0.232696333997E+04    0.42813E-02   -0.60954E-01  4544   0.716E-01    0.232E-01
RMM:   2    -0.232697239690E+04   -0.90569E-02   -0.88391E-02  6379   0.156E-01    0.288E-01
RMM:   3    -0.232697234765E+04    0.49247E-04   -0.84494E-03  5850   0.557E-02    0.179E-01
RMM:   4    -0.232697204059E+04    0.30707E-03   -0.93137E-04  3602   0.142E-02    0.104E-01
RMM:   5    -0.232697197741E+04    0.63179E-04   -0.20624E-04  3038   0.789E-03    0.788E-02
RMM:   6    -0.232697195984E+04    0.17567E-04   -0.18169E-04  3646   0.819E-03    0.683E-02
RMM:   7    -0.232697191276E+04    0.47087E-04   -0.11076E-04  3059   0.745E-03    0.279E-02
RMM:   8    -0.232697190339E+04    0.93676E-05   -0.15469E-05  2970   0.385E-03
  41 F= -.23484203E+04 E0= -.23484203E+04  d E =-.381186E-02  mag=     3.0000
       N       E                     dE             d eps       ncg     rms          rms(c)
DAV:   1    -0.232690035964E+04    0.71553E-01   -0.54852E+00  4512   0.214E+00    0.699E-01
RMM:   2    -0.232698240742E+04   -0.82048E-01   -0.80014E-01  6273   0.470E-01    0.873E-01
RMM:   3    -0.232698170539E+04    0.70203E-03   -0.76988E-02  6128   0.166E-01    0.538E-01
RMM:   4    -0.232697893700E+04    0.27684E-02   -0.84668E-03  5786   0.418E-02    0.315E-01
RMM:   5    -0.232697832816E+04    0.60884E-03   -0.18586E-03  4837   0.195E-02    0.237E-01
RMM:   6    -0.232697814296E+04    0.18520E-03   -0.16045E-03  5183   0.213E-02    0.203E-01
RMM:   7    -0.232697772806E+04    0.41489E-03   -0.97733E-04  4684   0.181E-02    0.849E-02
RMM:   8    -0.232697763735E+04    0.90715E-04   -0.12074E-04  3395   0.713E-03    0.224E-02
RMM:   9    -0.232697762666E+04    0.10694E-04   -0.24933E-05  2944   0.520E-03    0.118E-02
RMM:  10    -0.232697762450E+04    0.21546E-05   -0.12504E-05  2929   0.298E-03
  42 F= -.23484246E+04 E0= -.23484246E+04  d E =-.811159E-02  mag=     3.0000
       N       E                     dE             d eps       ncg     rms          rms(c)
DAV:   1    -0.232696642678E+04    0.11200E-01   -0.13615E+00  4512   0.102E+00    0.339E-01
RMM:   2    -0.232698410923E+04   -0.17682E-01   -0.16727E-01  6217   0.222E-01    0.465E-01
RMM:   3    -0.232698324555E+04    0.86368E-03   -0.14842E-02  5979   0.768E-02    0.268E-01
RMM:   4    -0.232698256767E+04    0.67787E-03   -0.17512E-03  4874   0.210E-02    0.154E-01
RMM:   5    -0.232698244041E+04    0.12727E-03   -0.47370E-04  3404   0.122E-02    0.123E-01
RMM:   6    -0.232698235764E+04    0.82762E-04   -0.44783E-04  4538   0.132E-02    0.841E-02
RMM:   7    -0.232698229039E+04    0.67259E-04   -0.19794E-04  3178   0.106E-02    0.416E-02
RMM:   8    -0.232698226677E+04    0.23618E-04   -0.29627E-05  2970   0.447E-03    0.107E-02
RMM:   9    -0.232698226399E+04    0.27755E-05   -0.73609E-06  2921   0.304E-03
  43 F= -.23484284E+04 E0= -.23484284E+04  d E =-.383965E-02  mag=     3.0000
       N       E                     dE             d eps       ncg     rms          rms(c)
DAV:   1    -0.232697966958E+04    0.25972E-02   -0.29762E-01  4592   0.477E-01    0.159E-01
RMM:   2    -0.232698354571E+04   -0.38761E-02   -0.36709E-02  6247   0.104E-01    0.217E-01
RMM:   3    -0.232698334947E+04    0.19624E-03   -0.31874E-03  5140   0.367E-02    0.126E-01
RMM:   4    -0.232698319851E+04    0.15096E-03   -0.37537E-04  3209   0.104E-02    0.719E-02
RMM:   5    -0.232698317252E+04    0.25991E-04   -0.10445E-04  2959   0.653E-03    0.580E-02
RMM:   6    -0.232698315181E+04    0.20715E-04   -0.10265E-04  3364   0.701E-03    0.386E-02
RMM:   7    -0.232698313801E+04    0.13800E-04   -0.45100E-05  2953   0.592E-03    0.199E-02
RMM:   8    -0.232698313242E+04    0.55865E-05   -0.77568E-06  2885   0.273E-03
  44 F= -.23484289E+04 E0= -.23484289E+04  d E =-.433398E-02  mag=     3.0000
       N       E                     dE             d eps       ncg     rms          rms(c)
DAV:   1    -0.232698340168E+04   -0.26367E-03   -0.49965E-01  4544   0.615E-01    0.204E-01
RMM:   2    -0.232698702149E+04   -0.36198E-02   -0.33748E-02  6026   0.116E-01    0.247E-01
RMM:   3    -0.232698679009E+04    0.23139E-03   -0.27774E-03  5119   0.394E-02    0.187E-01
RMM:   4    -0.232698638098E+04    0.40912E-03   -0.36327E-04  4246   0.126E-02    0.625E-02
RMM:   5    -0.232698642592E+04   -0.44938E-04   -0.17352E-04  3124   0.934E-03    0.900E-02
RMM:   6    -0.232698633580E+04    0.90113E-04   -0.13638E-04  3881   0.838E-03    0.193E-02
RMM:   7    -0.232698633880E+04   -0.29922E-05   -0.29730E-05  2970   0.643E-03
  45 F= -.23484317E+04 E0= -.23484317E+04  d E =-.280419E-02  mag=     3.0000
       N       E                     dE             d eps       ncg     rms          rms(c)
DAV:   1    -0.232698460906E+04    0.17267E-02   -0.50799E-01  4544   0.622E-01    0.206E-01
RMM:   2    -0.232698825907E+04   -0.36500E-02   -0.34239E-02  6027   0.117E-01    0.243E-01
RMM:   3    -0.232698808569E+04    0.17337E-03   -0.28973E-03  5135   0.421E-02    0.192E-01
RMM:   4    -0.232698765390E+04    0.43179E-03   -0.37308E-04  4269   0.128E-02    0.628E-02
RMM:   5    -0.232698770311E+04   -0.49208E-04   -0.17989E-04  3140   0.953E-03    0.924E-02
RMM:   6    -0.232698760724E+04    0.95867E-04   -0.13969E-04  3905   0.849E-03    0.188E-02
RMM:   7    -0.232698760972E+04   -0.24758E-05   -0.28812E-05  2977   0.635E-03
  46 F= -.23484326E+04 E0= -.23484326E+04  d E =-.366906E-02  mag=     3.0000
       N       E                     dE             d eps       ncg     rms          rms(c)
DAV:   1    -0.232698793547E+04   -0.32822E-03   -0.44843E-01  4544   0.545E-01    0.157E-01
RMM:   2    -0.232699058623E+04   -0.26508E-02   -0.26072E-02  5977   0.986E-02    0.167E-01
RMM:   3    -0.232699057320E+04    0.13038E-04   -0.19274E-03  4546   0.343E-02    0.155E-01
RMM:   4    -0.232699031201E+04    0.26119E-03   -0.25198E-04  3276   0.103E-02    0.579E-02
RMM:   5    -0.232699031876E+04   -0.67513E-05   -0.10696E-04  3029   0.724E-03    0.609E-02
RMM:   6    -0.232699028966E+04    0.29099E-04   -0.10855E-04  3416   0.723E-03    0.392E-02
RMM:   7    -0.232699027651E+04    0.13149E-04   -0.32971E-05  2941   0.569E-03    0.146E-02
RMM:   8    -0.232699027474E+04    0.17701E-05   -0.49546E-06  2842   0.218E-03
  47 F= -.23484348E+04 E0= -.23484348E+04  d E =-.226251E-02  mag=     3.0000
       N       E                     dE             d eps       ncg     rms          rms(c)
DAV:   1    -0.232697957624E+04    0.10700E-01   -0.26786E+00  4512   0.133E+00    0.383E-01
RMM:   2    -0.232699555537E+04   -0.15979E-01   -0.15565E-01  5966   0.242E-01    0.424E-01
RMM:   3    -0.232699523198E+04    0.32339E-03   -0.11573E-02  5655   0.798E-02    0.367E-01
RMM:   4    -0.232699374912E+04    0.14829E-02   -0.15076E-03  5011   0.233E-02    0.143E-01
RMM:   5    -0.232699374831E+04    0.80504E-06   -0.63182E-04  4000   0.157E-02    0.143E-01
RMM:   6    -0.232699358290E+04    0.16541E-03   -0.64174E-04  4501   0.152E-02    0.955E-02
RMM:   7    -0.232699350050E+04    0.82401E-04   -0.17788E-04  3144   0.115E-02    0.360E-02
RMM:   8    -0.232699348860E+04    0.11902E-04   -0.24341E-05  3001   0.375E-03    0.108E-02
RMM:   9    -0.232699348737E+04    0.12280E-05   -0.68399E-06  2918   0.272E-03
  48 F= -.23484371E+04 E0= -.23484371E+04  d E =-.449503E-02  mag=     3.0000
       N       E                     dE             d eps       ncg     rms          rms(c)
DAV:   1    -0.232699317625E+04    0.31235E-03   -0.64578E-01  4544   0.653E-01    0.187E-01
RMM:   2    -0.232699672674E+04   -0.35505E-02   -0.36295E-02  5989   0.119E-01    0.154E-01
RMM:   3    -0.232699689208E+04   -0.16534E-03   -0.27968E-03  5062   0.414E-02    0.184E-01
RMM:   4    -0.232699651004E+04    0.38204E-03   -0.35732E-04  3449   0.117E-02    0.724E-02
RMM:   5    -0.232699650936E+04    0.67143E-06   -0.14305E-04  3061   0.802E-03    0.687E-02
RMM:   6    -0.232699647376E+04    0.35606E-04   -0.15199E-04  3719   0.810E-03    0.473E-02
RMM:   7    -0.232699645707E+04    0.16684E-04   -0.51924E-05  2963   0.661E-03    0.239E-02
RMM:   8    -0.232699645139E+04    0.56799E-05   -0.88026E-06  2901   0.266E-03
  49 F= -.23484396E+04 E0= -.23484396E+04  d E =-.248212E-02  mag=     3.0000
       N       E                     dE             d eps       ncg     rms          rms(c)
DAV:   1    -0.232698502290E+04    0.11434E-01   -0.28388E+00  4512   0.137E+00    0.391E-01
RMM:   2    -0.232700065561E+04   -0.15633E-01   -0.15962E-01  5989   0.249E-01    0.324E-01
RMM:   3    -0.232700141219E+04   -0.75658E-03   -0.11943E-02  5722   0.822E-02    0.392E-01
RMM:   4    -0.232699966680E+04    0.17454E-02   -0.15737E-03  5411   0.237E-02    0.150E-01
RMM:   5    -0.232699967058E+04   -0.37884E-05   -0.63126E-04  3898   0.147E-02    0.146E-01
RMM:   6    -0.232699949673E+04    0.17385E-03   -0.64867E-04  4590   0.151E-02    0.980E-02
RMM:   7    -0.232699942070E+04    0.76035E-04   -0.21304E-04  3195   0.116E-02    0.481E-02
RMM:   8    -0.232699939651E+04    0.24181E-04   -0.33743E-05  3031   0.448E-03    0.116E-02
RMM:   9    -0.232699939370E+04    0.28143E-05   -0.94974E-06  2933   0.299E-03
  50 F= -.23484415E+04 E0= -.23484415E+04  d E =-.441358E-02  mag=     3.0000
       N       E                     dE             d eps       ncg     rms          rms(c)
DAV:   1    -0.232699690358E+04    0.24929E-02   -0.10470E+00  4512   0.838E-01    0.242E-01
RMM:   2    -0.232700326575E+04   -0.63622E-02   -0.64489E-02  6043   0.155E-01    0.209E-01
RMM:   3    -0.232700360310E+04   -0.33736E-03   -0.51747E-03  5620   0.537E-02    0.238E-01
RMM:   4    -0.232700292447E+04    0.67864E-03   -0.59615E-04  4403   0.149E-02    0.824E-02
RMM:   5    -0.232700302800E+04   -0.10354E-03   -0.29760E-04  3234   0.105E-02    0.123E-01
RMM:   6    -0.232700286480E+04    0.16320E-03   -0.24374E-04  4075   0.102E-02    0.343E-02
RMM:   7    -0.232700286307E+04    0.17360E-05   -0.57353E-05  2980   0.707E-03
  51 F= -.23484443E+04 E0= -.23484443E+04  d E =-.277712E-02  mag=     3.0000
       N       E                     dE             d eps       ncg     rms          rms(c)
DAV:   1    -0.232699365797E+04    0.92068E-02   -0.19786E+00  4512   0.115E+00    0.334E-01
RMM:   2    -0.232700568498E+04   -0.12027E-01   -0.12234E-01  6043   0.213E-01    0.282E-01
RMM:   3    -0.232700637661E+04   -0.69163E-03   -0.94403E-03  5782   0.742E-02    0.335E-01
RMM:   4    -0.232700503816E+04    0.13385E-02   -0.11359E-03  5192   0.205E-02    0.112E-01
RMM:   5    -0.232700524504E+04   -0.20688E-03   -0.56892E-04  3815   0.139E-02    0.172E-01
RMM:   6    -0.232700492322E+04    0.32182E-03   -0.44600E-04  4464   0.129E-02    0.447E-02
RMM:   7    -0.232700492164E+04    0.15796E-05   -0.99501E-05  3028   0.901E-03
  52 F= -.23484454E+04 E0= -.23484454E+04  d E =-.388106E-02  mag=     3.0000
       N       E                     dE             d eps       ncg     rms          rms(c)
DAV:   1    -0.232700154772E+04    0.33755E-02   -0.10799E+00  4512   0.866E-01    0.251E-01
RMM:   2    -0.232700917360E+04   -0.76259E-02   -0.73310E-02  6075   0.161E-01    0.291E-01
RMM:   3    -0.232700905797E+04    0.11564E-03   -0.58059E-03  5725   0.540E-02    0.229E-01
RMM:   4    -0.232700847737E+04    0.58060E-03   -0.64487E-04  4244   0.148E-02    0.937E-02
RMM:   5    -0.232700851711E+04   -0.39741E-04   -0.25893E-04  3087   0.990E-03    0.111E-01
RMM:   6    -0.232700840319E+04    0.11392E-03   -0.25523E-04  4070   0.105E-02    0.299E-02
RMM:   7    -0.232700840606E+04   -0.28661E-05   -0.55532E-05  2988   0.747E-03
  53 F= -.23484480E+04 E0= -.23484480E+04  d E =-.263716E-02  mag=     3.0000
       N       E                     dE             d eps       ncg     rms          rms(c)
DAV:   1    -0.232699268940E+04    0.15714E-01   -0.29825E+00  4512   0.144E+00    0.416E-01
RMM:   2    -0.232701377676E+04   -0.21087E-01   -0.20245E-01  6073   0.266E-01    0.487E-01
RMM:   3    -0.232701332344E+04    0.45332E-03   -0.15292E-02  5885   0.881E-02    0.376E-01
RMM:   4    -0.232701173288E+04    0.15906E-02   -0.17630E-03  4967   0.242E-02    0.159E-01
RMM:   5    -0.232701180773E+04   -0.74849E-04   -0.70413E-04  3787   0.158E-02    0.180E-01
RMM:   6    -0.232701150483E+04    0.30290E-03   -0.70612E-04  4536   0.164E-02    0.556E-02
RMM:   7    -0.232701150012E+04    0.47122E-05   -0.16596E-04  3101   0.116E-02    0.460E-02
RMM:   8    -0.232701147018E+04    0.29938E-04   -0.28970E-05  2932   0.373E-03    0.116E-02
RMM:   9    -0.232701146683E+04    0.33536E-05   -0.90468E-06  2894   0.251E-03
  54 F= -.23484497E+04 E0= -.23484497E+04  d E =-.428614E-02  mag=     3.0000
       N       E                     dE             d eps       ncg     rms          rms(c)
DAV:   1    -0.232700568894E+04    0.57812E-02   -0.11801E+00  4512   0.932E-01    0.294E-01
RMM:   2    -0.232701734422E+04   -0.11655E-01   -0.10426E-01  6096   0.185E-01    0.445E-01
RMM:   3    -0.232701599322E+04    0.13510E-02   -0.89044E-03  5768   0.631E-02    0.221E-01
RMM:   4    -0.232701548100E+04    0.51222E-03   -0.10027E-03  4428   0.169E-02    0.110E-01
RMM:   5    -0.232701547471E+04    0.62880E-05   -0.33052E-04  3332   0.108E-02    0.117E-01
RMM:   6    -0.232701537223E+04    0.10248E-03   -0.33144E-04  4245   0.118E-02    0.564E-02
RMM:   7    -0.232701534840E+04    0.23825E-04   -0.10211E-04  3020   0.896E-03    0.318E-02
RMM:   8    -0.232701533556E+04    0.12843E-04   -0.15534E-05  2939   0.309E-03    0.827E-03
RMM:   9    -0.232701533468E+04    0.88465E-06   -0.38182E-06  2862   0.206E-03
  55 F= -.23484528E+04 E0= -.23484528E+04  d E =-.311982E-02  mag=     3.0000
       N       E                     dE             d eps       ncg     rms          rms(c)
DAV:   1    -0.232701273304E+04    0.26025E-02   -0.47160E-01  4528   0.590E-01    0.185E-01
RMM:   2    -0.232701737011E+04   -0.46371E-02   -0.41606E-02  6092   0.117E-01    0.279E-01
RMM:   3    -0.232701684681E+04    0.52330E-03   -0.35425E-03  5251   0.405E-02    0.140E-01
RMM:   4    -0.232701664072E+04    0.20609E-03   -0.39759E-04  3366   0.110E-02    0.698E-02
RMM:   5    -0.232701663891E+04    0.18099E-05   -0.13322E-04  3029   0.737E-03    0.738E-02
RMM:   6    -0.232701659806E+04    0.40843E-04   -0.13589E-04  3619   0.808E-03    0.360E-02
RMM:   7    -0.232701658842E+04    0.96446E-05   -0.42335E-05  2952   0.607E-03
  56 F= -.23484536E+04 E0= -.23484536E+04  d E =-.390142E-02  mag=     3.0000
       N       E                     dE             d eps       ncg     rms          rms(c)
DAV:   1    -0.232700097575E+04    0.15622E-01   -0.18809E+00  4512   0.118E+00    0.372E-01
RMM:   2    -0.232701967070E+04   -0.18695E-01   -0.16782E-01  6113   0.235E-01    0.560E-01
RMM:   3    -0.232701745007E+04    0.22206E-02   -0.13435E-02  5866   0.796E-02    0.282E-01
RMM:   4    -0.232701662183E+04    0.82824E-03   -0.15915E-03  4770   0.215E-02    0.139E-01
RMM:   5    -0.232701661225E+04    0.95799E-05   -0.53407E-04  3839   0.135E-02    0.146E-01
RMM:   6    -0.232701645165E+04    0.16059E-03   -0.50939E-04  4513   0.142E-02    0.717E-02
RMM:   7    -0.232701641112E+04    0.40534E-04   -0.15948E-04  3082   0.108E-02    0.393E-02
RMM:   8    -0.232701639170E+04    0.19424E-04   -0.24444E-05  2953   0.366E-03    0.103E-02
RMM:   9    -0.232701639066E+04    0.10348E-05   -0.58983E-06  2916   0.244E-03
  57 F= -.23484524E+04 E0= -.23484524E+04  d E =-.276104E-02  mag=     3.0000
       N       E                     dE             d eps       ncg     rms          rms(c)
DAV:   1    -0.232700741409E+04    0.89776E-02   -0.11601E+00  4512   0.927E-01    0.290E-01
RMM:   2    -0.232701876482E+04   -0.11351E-01   -0.10223E-01  6110   0.182E-01    0.430E-01
RMM:   3    -0.232701753256E+04    0.12323E-02   -0.86020E-03  5771   0.603E-02    0.224E-01
RMM:   4    -0.232701700561E+04    0.52696E-03   -0.98221E-04  4417   0.166E-02    0.110E-01
RMM:   5    -0.232701698994E+04    0.15671E-04   -0.32206E-04  3324   0.106E-02    0.113E-01
RMM:   6    -0.232701689886E+04    0.91078E-04   -0.32304E-04  4242   0.117E-02    0.596E-02
RMM:   7    -0.232701686765E+04    0.31204E-04   -0.10490E-04  3029   0.885E-03    0.302E-02
RMM:   8    -0.232701685543E+04    0.12223E-04   -0.14975E-05  2943   0.311E-03    0.806E-03
RMM:   9    -0.232701685434E+04    0.10911E-05   -0.38481E-06  2873   0.208E-03
  58 F= -.23484536E+04 E0= -.23484536E+04  d E =-.396475E-02  mag=     3.0000
       N       E                     dE             d eps       ncg     rms          rms(c)
DAV:   1    -0.232700602007E+04    0.10835E-01   -0.15649E+00  4512   0.110E+00    0.354E-01
RMM:   2    -0.232702320605E+04   -0.17186E-01   -0.15395E-01  6099   0.222E-01    0.535E-01
RMM:   3    -0.232702124221E+04    0.19638E-02   -0.12911E-02  5851   0.755E-02    0.265E-01
RMM:   4    -0.232702053856E+04    0.70365E-03   -0.15174E-03  4812   0.203E-02    0.134E-01
RMM:   5    -0.232702049292E+04    0.45649E-04   -0.45589E-04  3651   0.125E-02    0.131E-01
RMM:   6    -0.232702037150E+04    0.12142E-03   -0.43777E-04  4470   0.133E-02    0.735E-02
RMM:   7    -0.232702032241E+04    0.49082E-04   -0.14937E-04  3060   0.102E-02    0.373E-02
RMM:   8    -0.232702030386E+04    0.18551E-04   -0.22777E-05  2957   0.372E-03    0.933E-03
RMM:   9    -0.232702030190E+04    0.19622E-05   -0.53171E-06  2900   0.255E-03
  59 F= -.23484564E+04 E0= -.23484564E+04  d E =-.276704E-02  mag=     3.0000
       N       E                     dE             d eps       ncg     rms          rms(c)
DAV:   1    -0.232701904811E+04    0.12557E-02   -0.18585E-01  4560   0.380E-01    0.122E-01
RMM:   2    -0.232702109347E+04   -0.20454E-02   -0.18372E-02  6163   0.771E-02    0.183E-01
RMM:   3    -0.232702086494E+04    0.22853E-03   -0.15225E-03  4168   0.269E-02    0.916E-02
RMM:   4    -0.232702078114E+04    0.83798E-04   -0.18193E-04  3064   0.805E-03    0.470E-02
RMM:   5    -0.232702077494E+04    0.62020E-05   -0.56764E-05  2944   0.513E-03
  60 F= -.23484566E+04 E0= -.23484566E+04  d E =-.300654E-02  mag=     3.0000
       N       E                     dE             d eps       ncg     rms          rms(c)
DAV:   1    -0.232701274736E+04    0.80338E-02   -0.95597E-01  4512   0.908E-01    0.285E-01
RMM:   2    -0.232702470448E+04   -0.11957E-01   -0.11474E-01  6228   0.190E-01    0.349E-01
RMM:   3    -0.232702464398E+04    0.60499E-04   -0.11341E-02  5920   0.699E-02    0.239E-01
RMM:   4    -0.232702399837E+04    0.64561E-03   -0.11256E-03  4780   0.177E-02    0.106E-01
RMM:   5    -0.232702402557E+04   -0.27200E-04   -0.31632E-04  3135   0.107E-02    0.120E-01
RMM:   6    -0.232702386443E+04    0.16114E-03   -0.29376E-04  4318   0.114E-02    0.261E-02
RMM:   7    -0.232702386735E+04   -0.29179E-05   -0.50778E-05  3012   0.778E-03
  61 F= -.23484592E+04 E0= -.23484592E+04  d E =-.253749E-02  mag=     3.0000
       N       E                     dE             d eps       ncg     rms          rms(c)
DAV:   1    -0.232701938485E+04    0.44796E-02   -0.45325E-01  4528   0.624E-01    0.199E-01
RMM:   2    -0.232702512131E+04   -0.57365E-02   -0.55069E-02  6145   0.131E-01    0.246E-01
RMM:   3    -0.232702506190E+04    0.59408E-04   -0.51883E-03  5547   0.483E-02    0.173E-01
RMM:   4    -0.232702473451E+04    0.32740E-03   -0.53882E-04  3701   0.125E-02    0.774E-02
RMM:   5    -0.232702472610E+04    0.84042E-05   -0.14546E-04  2985   0.763E-03    0.754E-02
RMM:   6    -0.232702466864E+04    0.57460E-04   -0.13984E-04  3800   0.818E-03    0.291E-02
RMM:   7    -0.232702467118E+04   -0.25417E-05   -0.50510E-05  2962   0.641E-03
  62 F= -.23484596E+04 E0= -.23484596E+04  d E =-.296055E-02  mag=     3.0000
       N       E                     dE             d eps       ncg     rms          rms(c)
DAV:   1    -0.232701805447E+04    0.66142E-02   -0.69279E-01  4528   0.764E-01    0.244E-01
RMM:   2    -0.232702775620E+04   -0.97017E-02   -0.93349E-02  6317   0.165E-01    0.306E-01
RMM:   3    -0.232702767348E+04    0.82715E-04   -0.88859E-03  5841   0.586E-02    0.202E-01
RMM:   4    -0.232702723308E+04    0.44040E-03   -0.89553E-04  4049   0.146E-02    0.966E-02
RMM:   5    -0.232702721674E+04    0.16332E-04   -0.20075E-04  3016   0.835E-03    0.887E-02
[...]
RMM:   2    -0.232708983577E+04   -0.38427E-02   -0.42343E-02  6234   0.926E-02    0.126E-01
RMM:   3    -0.232709006001E+04   -0.22423E-03   -0.40005E-03  4352   0.354E-02    0.140E-01
RMM:   4    -0.232708990475E+04    0.15526E-03   -0.48329E-04  3155   0.107E-02    0.763E-02
RMM:   5    -0.232708987433E+04    0.30421E-04   -0.16363E-04  3125   0.740E-03    0.520E-02
RMM:   6    -0.232708989810E+04   -0.23772E-04   -0.10247E-04  2953   0.649E-03    0.656E-02
RMM:   7    -0.232708985049E+04    0.47612E-04   -0.26411E-05  2898   0.367E-03    0.109E-02
RMM:   8    -0.232708985030E+04    0.19261E-06   -0.60698E-06  2774   0.235E-03
 269 F= -.23484992E+04 E0= -.23484992E+04  d E =-.438833E-03  mag=     3.0000
       N       E                     dE             d eps       ncg     rms          rms(c)
DAV:   1    -0.232708884370E+04    0.10068E-02   -0.12076E-01  4528   0.230E-01    0.109E-01
RMM:   2    -0.232709010715E+04   -0.12635E-02   -0.13875E-02  6208   0.529E-02    0.748E-02
RMM:   3    -0.232709018649E+04   -0.79337E-04   -0.13164E-03  3227   0.203E-02    0.857E-02
RMM:   4    -0.232709012166E+04    0.64833E-04   -0.16115E-04  2989   0.684E-03    0.421E-02
RMM:   5    -0.232709011521E+04    0.64466E-05   -0.55884E-05  3011   0.439E-03
 270 F= -.23484993E+04 E0= -.23484993E+04  d E =-.516741E-03  mag=     3.0000
       N       E                     dE             d eps       ncg     rms          rms(c)
DAV:   1    -0.232708906971E+04    0.10519E-02   -0.13693E-01  4512   0.276E-01    0.128E-01
RMM:   2    -0.232709084452E+04   -0.17748E-02   -0.16663E-02  6303   0.633E-02    0.173E-01
RMM:   3    -0.232709071989E+04    0.12463E-03   -0.18667E-03  3716   0.252E-02    0.119E-01
RMM:   4    -0.232709059162E+04    0.12827E-03   -0.22226E-04  3075   0.839E-03    0.551E-02
RMM:   5    -0.232709060005E+04   -0.84355E-05   -0.88012E-05  2954   0.531E-03
 271 F= -.23484996E+04 E0= -.23484996E+04  d E =-.300379E-03  mag=     3.0000
       N       E                     dE             d eps       ncg     rms          rms(c)
DAV:   1    -0.232708997335E+04    0.61827E-03   -0.66780E-02  4560   0.193E-01    0.882E-02
RMM:   2    -0.232709072529E+04   -0.75195E-03   -0.81212E-03  6336   0.445E-02    0.690E-02
RMM:   3    -0.232709079483E+04   -0.69539E-04   -0.87994E-04  3169   0.178E-02    0.839E-02
RMM:   4    -0.232709072309E+04    0.71740E-04   -0.10509E-04  2975   0.638E-03    0.303E-02
RMM:   5    -0.232709071626E+04    0.68295E-05   -0.36077E-05  3009   0.382E-03
 272 F= -.23484996E+04 E0= -.23484996E+04  d E =-.286675E-03  mag=     3.0000
       N       E                     dE             d eps       ncg     rms          rms(c)
DAV:   1    -0.232708945486E+04    0.12682E-02   -0.13816E-01  4512   0.274E-01    0.122E-01
RMM:   2    -0.232709133257E+04   -0.18777E-02   -0.18139E-02  6409   0.631E-02    0.160E-01
RMM:   3    -0.232709128297E+04    0.49602E-04   -0.19964E-03  3547   0.253E-02    0.118E-01
RMM:   4    -0.232709114915E+04    0.13381E-03   -0.22224E-04  3052   0.816E-03    0.479E-02
RMM:   5    -0.232709116319E+04   -0.14039E-04   -0.79963E-05  2966   0.493E-03    0.607E-02
RMM:   6    -0.232709112840E+04    0.34790E-04   -0.53325E-05  2978   0.488E-03    0.166E-02
RMM:   7    -0.232709113292E+04   -0.45227E-05   -0.20984E-05  2924   0.362E-03
 273 F= -.23484998E+04 E0= -.23484998E+04  d E =-.216306E-03  mag=     3.0000
       N       E                     dE             d eps       ncg     rms          rms(c)
DAV:   1    -0.232708964640E+04    0.14820E-02   -0.14122E-01  4512   0.276E-01    0.119E-01
RMM:   2    -0.232709136109E+04   -0.17147E-02   -0.18470E-02  6363   0.633E-02    0.883E-02
RMM:   3    -0.232709150191E+04   -0.14082E-03   -0.18363E-03  3530   0.245E-02    0.107E-01
RMM:   4    -0.232709139224E+04    0.10966E-03   -0.21655E-04  3019   0.804E-03    0.460E-02
RMM:   5    -0.232709140897E+04   -0.16725E-04   -0.74241E-05  2987   0.474E-03    0.614E-02
RMM:   6    -0.232709137669E+04    0.32283E-04   -0.51209E-05  2926   0.452E-03    0.224E-02
RMM:   7    -0.232709137702E+04   -0.33296E-06   -0.16775E-05  2896   0.305E-03
 274 F= -.23484999E+04 E0= -.23484999E+04  d E =-.257879E-03  mag=     3.0000
       N       E                     dE             d eps       ncg     rms          rms(c)
DAV:   1    -0.232708939576E+04    0.19809E-02   -0.20288E-01  4512   0.355E-01    0.146E-01
RMM:   2    -0.232709182840E+04   -0.24326E-02   -0.26681E-02  6189   0.793E-02    0.892E-02
RMM:   3    -0.232709201989E+04   -0.19148E-03   -0.26311E-03  3957   0.318E-02    0.108E-01
RMM:   4    -0.232709192973E+04    0.90158E-04   -0.30078E-04  3026   0.916E-03    0.608E-02
RMM:   5    -0.232709192363E+04    0.60990E-05   -0.94924E-05  3010   0.593E-03
 275 F= -.23485002E+04 E0= -.23485002E+04  d E =-.317041E-03  mag=     3.0000
       N       E                     dE             d eps       ncg     rms          rms(c)
DAV:   1    -0.232709161338E+04    0.31635E-03   -0.30446E-02  4608   0.138E-01    0.682E-02
RMM:   2    -0.232709209689E+04   -0.48350E-03   -0.41525E-03  6114   0.325E-02    0.109E-01
RMM:   3    -0.232709201084E+04    0.86043E-04   -0.50660E-04  3045   0.135E-02    0.478E-02
RMM:   4    -0.232709199776E+04    0.13087E-04   -0.60243E-05  2993   0.481E-03    0.333E-02
RMM:   5    -0.232709199641E+04    0.13453E-05   -0.25462E-05  2856   0.286E-03
 276 F= -.23485002E+04 E0= -.23485002E+04  d E =-.300031E-03  mag=     3.0000
       N       E                     dE             d eps       ncg     rms          rms(c)
DAV:   1    -0.232709053894E+04    0.14588E-02   -0.14816E-01  4512   0.304E-01    0.125E-01
RMM:   2    -0.232709234552E+04   -0.18066E-02   -0.20019E-02  6117   0.680E-02    0.702E-02
RMM:   3    -0.232709244362E+04   -0.98097E-04   -0.20505E-03  3561   0.280E-02    0.534E-02
RMM:   4    -0.232709246639E+04   -0.22772E-04   -0.23319E-04  3033   0.777E-03    0.614E-02
RMM:   5    -0.232709243322E+04    0.33172E-04   -0.75133E-05  2982   0.543E-03    0.346E-02
RMM:   6    -0.232709243247E+04    0.74864E-06   -0.36375E-05  2917   0.450E-03
 277 F= -.23485004E+04 E0= -.23485004E+04  d E =-.251811E-03  mag=     3.0000
       N       E                     dE             d eps       ncg     rms          rms(c)
DAV:   1    -0.232709221499E+04    0.21823E-03   -0.21973E-02  4576   0.117E-01    0.498E-02
RMM:   2    -0.232709250252E+04   -0.28753E-03   -0.30423E-03  6016   0.265E-02    0.476E-02
RMM:   3    -0.232709252911E+04   -0.26594E-04   -0.36466E-04  2968   0.119E-02    0.541E-02
RMM:   4    -0.232709250136E+04    0.27750E-04   -0.35377E-05  2931   0.388E-03    0.174E-02
RMM:   5    -0.232709250579E+04   -0.44323E-05   -0.14368E-05  2833   0.219E-03
 278 F= -.23485004E+04 E0= -.23485004E+04  d E =-.253922E-03  mag=     3.0000
       N       E                     dE             d eps       ncg     rms          rms(c)
DAV:   1    -0.232709159746E+04    0.90390E-03   -0.99579E-02  4512   0.269E-01    0.105E-01
RMM:   2    -0.232709279967E+04   -0.12022E-02   -0.13264E-02  6106   0.593E-02    0.576E-02
RMM:   3    -0.232709286774E+04   -0.68061E-04   -0.13676E-03  3564   0.248E-02    0.446E-02
RMM:   4    -0.232709288336E+04   -0.15627E-04   -0.14663E-04  2999   0.677E-03    0.571E-02
RMM:   5    -0.232709285770E+04    0.25661E-04   -0.55292E-05  2940   0.489E-03    0.312E-02
RMM:   6    -0.232709285428E+04    0.34187E-05   -0.29502E-05  2910   0.403E-03
 279 F= -.23485006E+04 E0= -.23485006E+04  d E =-.188394E-03  mag=     3.0000
       N       E                     dE             d eps       ncg     rms          rms(c)
DAV:   1    -0.232709279971E+04    0.57994E-04   -0.68671E-03  4792   0.711E-02    0.287E-02
RMM:   2    -0.232709288900E+04   -0.89288E-04   -0.95169E-04  5179   0.166E-02    0.245E-02
RMM:   3    -0.232709289933E+04   -0.10335E-04   -0.11392E-04  2919   0.784E-03    0.306E-02
RMM:   4    -0.232709288983E+04    0.94980E-05   -0.11818E-05  2920   0.261E-03
 280 F= -.23485006E+04 E0= -.23485006E+04  d E =-.181432E-03  mag=     3.0000
       N       E                     dE             d eps       ncg     rms          rms(c)
DAV:   1    -0.232709196741E+04    0.93192E-03   -0.10275E-01  4512   0.278E-01    0.105E-01
RMM:   2    -0.232709330968E+04   -0.13423E-02   -0.13893E-02  6170   0.608E-02    0.979E-02
RMM:   3    -0.232709341034E+04   -0.10066E-03   -0.14469E-03  3563   0.243E-02    0.106E-01
RMM:   4    -0.232709328728E+04    0.12306E-03   -0.16241E-04  3014   0.780E-03    0.391E-02
RMM:   5    -0.232709330371E+04   -0.16432E-04   -0.63994E-05  2964   0.504E-03    0.541E-02
RMM:   6    -0.232709327267E+04    0.31035E-04   -0.41646E-05  2951   0.475E-03    0.138E-02
RMM:   7    -0.232709327264E+04    0.29991E-07   -0.10068E-05  2933   0.329E-03
 281 F= -.23485008E+04 E0= -.23485008E+04  d E =-.172122E-03  mag=     3.0000
       N       E                     dE             d eps       ncg     rms          rms(c)
DAV:   1    -0.232709327862E+04   -0.59491E-05   -0.92587E-04  5072   0.265E-02    0.115E-02
RMM:   2    -0.232709329135E+04   -0.12733E-04   -0.13397E-04  3184   0.660E-03    0.111E-02
RMM:   3    -0.232709329202E+04   -0.66917E-06   -0.16853E-05  2608   0.424E-03
 282 F= -.23485008E+04 E0= -.23485008E+04  d E =-.171273E-03  mag=     3.0000
       N       E                     dE             d eps       ncg     rms          rms(c)
DAV:   1    -0.232709274358E+04    0.54778E-03   -0.69992E-02  4528   0.236E-01    0.892E-02
RMM:   2    -0.232709367451E+04   -0.93093E-03   -0.93513E-03  6078   0.525E-02    0.933E-02
RMM:   3    -0.232709369921E+04   -0.24697E-04   -0.94129E-04  3429   0.205E-02    0.829E-02
RMM:   4    -0.232709362234E+04    0.76867E-04   -0.10841E-04  3001   0.675E-03    0.337E-02
RMM:   5    -0.232709363084E+04   -0.85012E-05   -0.43319E-05  2931   0.434E-03
 283 F= -.23485009E+04 E0= -.23485009E+04  d E =-.157895E-03  mag=     3.0000
       N       E                     dE             d eps       ncg     rms          rms(c)
DAV:   1    -0.232709361714E+04    0.51985E-05   -0.27257E-04  5344   0.158E-02    0.129E-02
RMM:   2    -0.232709362965E+04   -0.12511E-04   -0.46635E-05  2972   0.403E-03    0.301E-02
RMM:   3    -0.232709361976E+04    0.98898E-05   -0.99483E-06  2526   0.274E-03
 284 F= -.23485009E+04 E0= -.23485009E+04  d E =-.135931E-03  mag=     3.0000
       N       E                     dE             d eps       ncg     rms          rms(c)
DAV:   1    -0.232709322836E+04    0.40130E-03   -0.56044E-02  4528   0.211E-01    0.832E-02
RMM:   2    -0.232709407763E+04   -0.84927E-03   -0.74921E-03  6080   0.469E-02    0.130E-01
RMM:   3    -0.232709394220E+04    0.13543E-03   -0.68371E-04  3283   0.173E-02    0.624E-02
RMM:   4    -0.232709390476E+04    0.37443E-04   -0.88124E-05  3039   0.583E-03    0.341E-02
RMM:   5    -0.232709390401E+04    0.75040E-06   -0.29487E-05  2879   0.366E-03
 285 F= -.23485010E+04 E0= -.23485010E+04  d E =-.130519E-03  mag=     3.0000
       N       E                     dE             d eps       ncg     rms          rms(c)
DAV:   1    -0.232709389746E+04    0.72993E-05   -0.17488E-03  5168   0.378E-02    0.183E-02
RMM:   2    -0.232709392426E+04   -0.26795E-04   -0.23390E-04  3545   0.903E-03    0.260E-02
RMM:   3    -0.232709392012E+04    0.41391E-05   -0.32733E-05  2794   0.520E-03
 286 F= -.23485010E+04 E0= -.23485010E+04  d E =-.118509E-03  mag=     3.0000
       N       E                     dE             d eps       ncg     rms          rms(c)
DAV:   1    -0.232709351123E+04    0.41302E-03   -0.55186E-02  4528   0.217E-01    0.834E-02
RMM:   2    -0.232709431964E+04   -0.80841E-03   -0.73604E-03  6110   0.479E-02    0.119E-01
RMM:   3    -0.232709423159E+04    0.88054E-04   -0.65200E-04  3349   0.177E-02    0.685E-02
RMM:   4    -0.232709418188E+04    0.49709E-04   -0.85396E-05  3018   0.600E-03    0.329E-02
RMM:   5    -0.232709418192E+04   -0.39377E-07   -0.31020E-05  2906   0.380E-03
 287 F= -.23485011E+04 E0= -.23485011E+04  d E =-.114443E-03  mag=     3.0000
       N       E                     dE             d eps       ncg     rms          rms(c)
DAV:   1    -0.232709417578E+04    0.61035E-05   -0.11626E-03  5288   0.322E-02    0.169E-02
RMM:   2    -0.232709420037E+04   -0.24589E-04   -0.16935E-04  3389   0.780E-03    0.291E-02
RMM:   3    -0.232709419072E+04    0.96416E-05   -0.25888E-05  2670   0.476E-03
 288 F= -.23485011E+04 E0= -.23485011E+04  d E =-.100930E-03  mag=     3.0000
       N       E                     dE             d eps       ncg     rms          rms(c)
DAV:   1    -0.232709382682E+04    0.37355E-03   -0.46555E-02  4528   0.198E-01    0.757E-02
RMM:   2    -0.232709454759E+04   -0.72077E-03   -0.67737E-03  6134   0.447E-02    0.100E-01
RMM:   3    -0.232709451043E+04    0.37155E-04   -0.64325E-04  3205   0.169E-02    0.650E-02
RMM:   4    -0.232709446534E+04    0.45096E-04   -0.76539E-05  3007   0.559E-03    0.288E-02
RMM:   5    -0.232709446687E+04   -0.15301E-05   -0.26508E-05  2901   0.349E-03
 289 F= -.23485012E+04 E0= -.23485012E+04  d E =-.105903E-03  mag=     3.0000
       N       E                     dE             d eps       ncg     rms          rms(c)
DAV:   1    -0.232709446659E+04   -0.12519E-05   -0.14617E-03  5120   0.356E-02    0.187E-02
RMM:   2    -0.232709449943E+04   -0.32846E-04   -0.22831E-04  3529   0.880E-03    0.362E-02
RMM:   3    -0.232709448707E+04    0.12363E-04   -0.34063E-05  2793   0.518E-03    0.101E-02
RMM:   4    -0.232709448746E+04   -0.38944E-06   -0.54518E-06  2583   0.165E-03
 290 F= -.23485012E+04 E0= -.23485012E+04  d E =-.953700E-04  mag=     3.0000
       N       E                     dE             d eps       ncg     rms          rms(c)
DAV:   1    -0.232709403461E+04    0.45246E-03   -0.49749E-02  4512   0.206E-01    0.768E-02
RMM:   2    -0.232709480919E+04   -0.77458E-03   -0.77830E-03  6166   0.467E-02    0.787E-02
RMM:   3    -0.232709485110E+04   -0.41905E-04   -0.77153E-04  3177   0.180E-02    0.741E-02
RMM:   4    -0.232709478657E+04    0.64530E-04   -0.84614E-05  2983   0.589E-03    0.268E-02
RMM:   5    -0.232709479138E+04   -0.48179E-05   -0.27997E-05  2915   0.353E-03
 291 F= -.23485013E+04 E0= -.23485013E+04  d E =-.132813E-03  mag=     3.0000
       N       E                     dE             d eps       ncg     rms          rms(c)
DAV:   1    -0.232709473137E+04    0.55196E-04   -0.77055E-03  4544   0.813E-02    0.321E-02
RMM:   2    -0.232709485424E+04   -0.12287E-03   -0.12179E-03  5603   0.195E-02    0.353E-02
RMM:   3    -0.232709485745E+04   -0.32139E-05   -0.13642E-04  2925   0.810E-03    0.269E-02
RMM:   4    -0.232709484935E+04    0.81037E-05   -0.14029E-05  2947   0.281E-03
 292 F= -.23485013E+04 E0= -.23485013E+04  d E =-.122562E-03  mag=     3.0000
       N       E                     dE             d eps       ncg     rms          rms(c)
DAV:   1    -0.232709445020E+04    0.40726E-03   -0.42047E-02  4512   0.186E-01    0.727E-02
RMM:   2    -0.232709522015E+04   -0.76995E-03   -0.69518E-03  6248   0.432E-02    0.113E-01
RMM:   3    -0.232709514870E+04    0.71446E-04   -0.70383E-04  3101   0.162E-02    0.559E-02
RMM:   4    -0.232709511533E+04    0.33374E-04   -0.76437E-05  3024   0.525E-03    0.240E-02
RMM:   5    -0.232709511855E+04   -0.32218E-05   -0.20571E-05  2900   0.307E-03
 293 F= -.23485014E+04 E0= -.23485014E+04  d E =-.115519E-03  mag=     3.0000
       N       E                     dE             d eps       ncg     rms          rms(c)
DAV:   1    -0.232709502895E+04    0.86379E-04   -0.10296E-02  4544   0.922E-02    0.366E-02
RMM:   2    -0.232709520471E+04   -0.17576E-03   -0.16847E-03  5774   0.222E-02    0.461E-02
RMM:   3    -0.232709520117E+04    0.35419E-05   -0.17569E-04  2942   0.869E-03    0.283E-02
RMM:   4    -0.232709519309E+04    0.80800E-05   -0.18976E-05  2971   0.300E-03
 294 F= -.23485014E+04 E0= -.23485014E+04  d E =-.113401E-03  mag=     3.0000
       N       E                     dE             d eps       ncg     rms          rms(c)
DAV:   1    -0.232709470820E+04    0.49297E-03   -0.52429E-02  4512   0.209E-01    0.854E-02
RMM:   2    -0.232709568533E+04   -0.97712E-03   -0.84869E-03  6209   0.486E-02    0.140E-01
RMM:   3    -0.232709554537E+04    0.13996E-03   -0.83078E-04  3260   0.182E-02    0.624E-02
RMM:   4    -0.232709550515E+04    0.40220E-04   -0.97618E-05  3054   0.590E-03    0.302E-02
RMM:   5    -0.232709550606E+04   -0.91232E-06   -0.29805E-05  2916   0.374E-03
 295 F= -.23485016E+04 E0= -.23485016E+04  d E =-.130497E-03  mag=     3.0000
       N       E                     dE             d eps       ncg     rms          rms(c)
DAV:   1    -0.232709547710E+04    0.28048E-04   -0.48993E-03  4808   0.645E-02    0.300E-02
RMM:   2    -0.232709557898E+04   -0.10188E-03   -0.80633E-04  4921   0.159E-02    0.538E-02
RMM:   3    -0.232709555356E+04    0.25413E-04   -0.97333E-05  2932   0.731E-03    0.165E-02
RMM:   4    -0.232709555217E+04    0.13945E-05   -0.11976E-05  2952   0.244E-03
 296 F= -.23485016E+04 E0= -.23485016E+04  d E =-.119751E-03  mag=     3.0000
       N       E                     dE             d eps       ncg     rms          rms(c)
DAV:   1    -0.232709517020E+04    0.38336E-03   -0.44209E-02  4512   0.188E-01    0.777E-02
RMM:   2    -0.232709601393E+04   -0.84372E-03   -0.73167E-03  6214   0.445E-02    0.128E-01
RMM:   3    -0.232709588287E+04    0.13105E-03   -0.67786E-04  3166   0.164E-02    0.542E-02
RMM:   4    -0.232709585537E+04    0.27506E-04   -0.83167E-05  3038   0.536E-03    0.313E-02
RMM:   5    -0.232709585270E+04    0.26722E-05   -0.22957E-05  2888   0.321E-03
 297 F= -.23485017E+04 E0= -.23485017E+04  d E =-.116945E-03  mag=     3.0000
       N       E                     dE             d eps       ncg     rms          rms(c)
DAV:   1    -0.232709580491E+04    0.50461E-04   -0.77359E-03  4544   0.789E-02    0.334E-02
RMM:   2    -0.232709594274E+04   -0.13783E-03   -0.12710E-03  5462   0.193E-02    0.464E-02
RMM:   3    -0.232709593130E+04    0.11447E-04   -0.13303E-04  2936   0.785E-03    0.230E-02
RMM:   4    -0.232709592679E+04    0.45015E-05   -0.15173E-05  2960   0.267E-03
 298 F= -.23485017E+04 E0= -.23485017E+04  d E =-.113129E-03  mag=     3.0000
       N       E                     dE             d eps       ncg     rms          rms(c)
DAV:   1    -0.232709552046E+04    0.41084E-03   -0.43793E-02  4512   0.188E-01    0.785E-02
RMM:   2    -0.232709638241E+04   -0.86195E-03   -0.73235E-03  6222   0.445E-02    0.135E-01
RMM:   3    -0.232709622727E+04    0.15513E-03   -0.68534E-04  3158   0.163E-02    0.532E-02
RMM:   4    -0.232709620249E+04    0.24786E-04   -0.84873E-05  3038   0.536E-03    0.324E-02
RMM:   5    -0.232709619863E+04    0.38603E-05   -0.23889E-05  2888   0.328E-03
 299 F= -.23485018E+04 E0= -.23485018E+04  d E =-.112043E-03  mag=     3.0000
       N       E                     dE             d eps       ncg     rms          rms(c)
DAV:   1    -0.232709618034E+04    0.22146E-04   -0.39161E-03  4888   0.563E-02    0.257E-02
RMM:   2    -0.232709625564E+04   -0.75294E-04   -0.65440E-04  4462   0.140E-02    0.405E-02
RMM:   3    -0.232709624343E+04    0.12211E-04   -0.76234E-05  2925   0.670E-03    0.155E-02
RMM:   4    -0.232709624229E+04    0.11307E-05   -0.94442E-06  2914   0.215E-03
 300 F= -.23485018E+04 E0= -.23485018E+04  d E =-.106966E-03  mag=     3.0000
       N       E                     dE             d eps       ncg     rms          rms(c)
DAV:   1    -0.232709602060E+04    0.22282E-03   -0.27606E-02  4560   0.156E-01    0.626E-02
RMM:   2    -0.232709650507E+04   -0.48447E-03   -0.43530E-03  6128   0.360E-02    0.898E-02
RMM:   3    -0.232709645591E+04    0.49162E-04   -0.44199E-04  3075   0.143E-02    0.469E-02
RMM:   4    -0.232709643322E+04    0.22689E-04   -0.50406E-05  2997   0.453E-03    0.252E-02
RMM:   5    -0.232709643197E+04    0.12484E-05   -0.16119E-05  2872   0.275E-03
 301 F= -.23485019E+04 E0= -.23485019E+04  d E =-.104751E-03  mag=     3.0000
