       N       E                     dE             d eps       ncg     rms          rms(c)
DAV:   1     0.131695968524E+05    0.13170E+05   -0.84544E+05  4544   0.144E+03
DAV:   2    -0.100485295133E+04   -0.14174E+05   -0.13551E+05  4952   0.331E+02
DAV:   3    -0.248021270236E+04   -0.14754E+04   -0.14566E+04  5528   0.115E+02
DAV:   4    -0.252625352165E+04   -0.46041E+02   -0.45778E+02  6752   0.292E+01
DAV:   5    -0.252715377056E+04   -0.90025E+00   -0.89811E+00  6304   0.349E+00    0.170E+02
RMM:   6    -0.149279272357E+04    0.10344E+04   -0.19555E+03  4476   0.382E+01    0.725E+01
RMM:   7    -0.166907040485E+04   -0.17628E+03   -0.29281E+02  5172   0.143E+01    0.518E+01
RMM:   8    -0.171851941386E+04   -0.49449E+02   -0.75843E+01  5346   0.841E+00    0.440E+01
RMM:   9    -0.178807633562E+04   -0.69557E+02   -0.58751E+01  5114   0.733E+00    0.398E+01
RMM:  10    -0.188063938706E+04   -0.92563E+02   -0.55924E+01  5292   0.714E+00    0.324E+01
RMM:  11    -0.196455808603E+04   -0.83919E+02   -0.37486E+01  5364   0.548E+00    0.270E+01
RMM:  12    -0.202706772235E+04   -0.62510E+02   -0.23314E+01  5190   0.403E+00    0.204E+01
RMM:  13    -0.210475731875E+04   -0.77690E+02   -0.33368E+01  4882   0.437E+00    0.162E+01
RMM:  14    -0.217824279061E+04   -0.73485E+02   -0.38406E+01  4940   0.491E+00    0.115E+01
RMM:  15    -0.227209511402E+04   -0.93852E+02   -0.87153E+01  4653   0.641E+00    0.135E+01
RMM:  16    -0.230354042022E+04   -0.31445E+02   -0.28080E+01  4752   0.420E+00    0.855E+00
RMM:  17    -0.231508824302E+04   -0.11548E+02   -0.12103E+01  4727   0.235E+00    0.538E+00
RMM:  18    -0.231879247185E+04   -0.37042E+01   -0.30671E+00  5056   0.136E+00    0.325E+00
RMM:  19    -0.232093134625E+04   -0.21389E+01   -0.10935E+00  4818   0.765E-01    0.252E+00
RMM:  20    -0.232174645766E+04   -0.81511E+00   -0.26286E-01  5182   0.420E-01    0.283E+00
RMM:  21    -0.232174223777E+04    0.42199E-02   -0.27745E-02  5904   0.122E-01    0.285E+00
RMM:  22    -0.232182068462E+04   -0.78447E-01   -0.17373E-02  4800   0.100E-01    0.271E+00
RMM:  23    -0.232207536119E+04   -0.25468E+00   -0.49335E-02  4534   0.147E-01    0.242E+00
RMM:  24    -0.232212351356E+04   -0.48152E-01   -0.20972E-02  4936   0.111E-01    0.215E+00
RMM:  25    -0.232233160087E+04   -0.20809E+00   -0.77037E-02  4525   0.169E-01    0.131E+00
RMM:  26    -0.232243816597E+04   -0.10657E+00   -0.48246E-02  4645   0.145E-01    0.933E-01
RMM:  27    -0.232247265666E+04   -0.34491E-01   -0.18926E-02  5084   0.965E-02    0.818E-01
RMM:  28    -0.232249876383E+04   -0.26107E-01   -0.86355E-03  4803   0.593E-02    0.696E-01
RMM:  29    -0.232253058301E+04   -0.31819E-01   -0.13133E-02  4653   0.663E-02    0.452E-01
RMM:  30    -0.232256005423E+04   -0.29471E-01   -0.15305E-02  4753   0.814E-02    0.197E-01
RMM:  31    -0.232258001162E+04   -0.19957E-01   -0.11593E-02  4951   0.758E-02    0.124E-01
RMM:  32    -0.232258738684E+04   -0.73752E-02   -0.23987E-03  4869   0.372E-02    0.870E-02
RMM:  33    -0.232259147448E+04   -0.40876E-02   -0.10676E-03  4558   0.206E-02    0.835E-02
RMM:  34    -0.232259490346E+04   -0.34290E-02   -0.79749E-04  4212   0.201E-02    0.769E-02
RMM:  35    -0.232259752219E+04   -0.26187E-02   -0.10154E-03  4251   0.186E-02    0.803E-02
RMM:  36    -0.232259844389E+04   -0.92170E-03   -0.56221E-04  4156   0.169E-02    0.795E-02
RMM:  37    -0.232259880621E+04   -0.36232E-03   -0.41432E-04  4041   0.107E-02    0.745E-02
RMM:  38    -0.232259881596E+04   -0.97534E-05   -0.36695E-05  2943   0.570E-03
   1 F= -.23440411E+04 E0= -.23440359E+04  d E =-.234404E+04  mag=     2.9927
       N       E                     dE             d eps       ncg     rms          rms(c)
DAV:   1    -0.232187027516E+04    0.72853E+00   -0.30408E+02  4832   0.937E+00    0.413E+00
RMM:   2    -0.232330381918E+04   -0.14335E+01   -0.16312E+01  5531   0.218E+00    0.277E+00
RMM:   3    -0.232335598341E+04   -0.52164E-01   -0.13973E+00  5358   0.103E+00    0.447E+00
RMM:   4    -0.232322063515E+04    0.13535E+00   -0.24639E-01  6335   0.230E-01    0.209E+00
RMM:   5    -0.232324223945E+04   -0.21604E-01   -0.13734E-01  6276   0.169E-01    0.266E+00
RMM:   6    -0.232316381947E+04    0.78420E-01   -0.68699E-02  5405   0.132E-01    0.556E-01
RMM:   7    -0.232316268604E+04    0.11334E-02   -0.15438E-02  5105   0.827E-02    0.468E-01
RMM:   8    -0.232316182076E+04    0.86528E-03   -0.63542E-03  5599   0.386E-02    0.307E-01
RMM:   9    -0.232316152718E+04    0.29358E-03   -0.19449E-03  4666   0.280E-02    0.916E-02
RMM:  10    -0.232316235416E+04   -0.82698E-03   -0.63890E-04  4246   0.167E-02    0.470E-02
RMM:  11    -0.232316314026E+04   -0.78610E-03   -0.29260E-04  4028   0.114E-02    0.366E-02
RMM:  12    -0.232316382766E+04   -0.68739E-03   -0.18646E-04  3812   0.999E-03    0.344E-02
RMM:  13    -0.232316435606E+04   -0.52841E-03   -0.13927E-04  3707   0.785E-03    0.281E-02
RMM:  14    -0.232316483160E+04   -0.47553E-03   -0.15939E-04  3712   0.796E-03    0.171E-02
RMM:  15    -0.232316499479E+04   -0.16320E-03   -0.75694E-05  3456   0.639E-03    0.623E-03
RMM:  16    -0.232316502084E+04   -0.26046E-04   -0.17755E-05  2952   0.415E-03    0.411E-03
RMM:  17    -0.232316502950E+04   -0.86581E-05   -0.48620E-06  2786   0.266E-03
   2 F= -.23446087E+04 E0= -.23446075E+04  d E =-.567636E+00  mag=     2.9999
       N       E                     dE             d eps       ncg     rms          rms(c)
DAV:   1    -0.232344681769E+04   -0.28180E+00   -0.68353E+01  4608   0.515E+00    0.168E+00
RMM:   2    -0.232365054797E+04   -0.20373E+00   -0.22812E+00  5772   0.944E-01    0.162E+00
RMM:   3    -0.232366227301E+04   -0.11725E-01   -0.17317E-01  5697   0.396E-01    0.233E+00
RMM:   4    -0.232362400221E+04    0.38271E-01   -0.37560E-02  6124   0.108E-01    0.889E-01
RMM:   5    -0.232362630741E+04   -0.23052E-02   -0.28634E-02  6017   0.875E-02    0.107E+00
RMM:   6    -0.232361299727E+04    0.13310E-01   -0.18520E-02  5811   0.736E-02    0.260E-01
RMM:   7    -0.232361245875E+04    0.53852E-03   -0.27534E-03  4863   0.350E-02    0.152E-01
RMM:   8    -0.232361253650E+04   -0.77749E-04   -0.85639E-04  4688   0.159E-02    0.186E-01
RMM:   9    -0.232361219458E+04    0.34192E-03   -0.40018E-04  4397   0.118E-02    0.816E-02
RMM:  10    -0.232361215159E+04    0.42995E-04   -0.30499E-04  4174   0.107E-02    0.390E-02
RMM:  11    -0.232361215224E+04   -0.65862E-06   -0.66812E-05  3449   0.706E-03
   3 F= -.23450548E+04 E0= -.23450526E+04  d E =-.101374E+01  mag=     3.0000
       N       E                     dE             d eps       ncg     rms          rms(c)
DAV:   1    -0.232400595001E+04   -0.39380E+00   -0.23449E+01  4624   0.409E+00    0.131E+00
RMM:   2    -0.232416347748E+04   -0.15753E+00   -0.16419E+00  6340   0.760E-01    0.142E+00
RMM:   3    -0.232417795982E+04   -0.14482E-01   -0.19972E-01  6432   0.272E-01    0.180E+00
RMM:   4    -0.232416030331E+04    0.17657E-01   -0.26091E-02  6148   0.748E-02    0.880E-01
RMM:   5    -0.232415459996E+04    0.57033E-02   -0.10405E-02  5921   0.465E-02    0.596E-01
RMM:   6    -0.232415302055E+04    0.15794E-02   -0.90432E-03  5070   0.473E-02    0.332E-01
RMM:   7    -0.232415218999E+04    0.83056E-03   -0.32534E-03  4857   0.336E-02    0.177E-01
RMM:   8    -0.232415180117E+04    0.38882E-03   -0.36394E-04  4114   0.107E-02    0.612E-02
RMM:   9    -0.232415179199E+04    0.91794E-05   -0.13606E-04  3223   0.638E-03    0.297E-02
RMM:  10    -0.232415179319E+04   -0.11919E-05   -0.24298E-05  2972   0.449E-03
   4 F= -.23455947E+04 E0= -.23455944E+04  d E =-.539872E+00  mag=     3.0000
       N       E                     dE             d eps       ncg     rms          rms(c)
DAV:   1    -0.232420314918E+04   -0.51357E-01   -0.44961E+01  4528   0.551E+00    0.165E+00
RMM:   2    -0.232449331094E+04   -0.29016E+00   -0.31485E+00  6295   0.104E+00    0.164E+00
RMM:   3    -0.232451742673E+04   -0.24116E-01   -0.36871E-01  6413   0.364E-01    0.198E+00
RMM:   4    -0.232449486343E+04    0.22563E-01   -0.44786E-02  6297   0.101E-01    0.117E+00
RMM:   5    -0.232448579955E+04    0.90639E-02   -0.17352E-02  5983   0.568E-02    0.729E-01
RMM:   6    -0.232448166375E+04    0.41358E-02   -0.13206E-02  5040   0.594E-02    0.291E-01
RMM:   7    -0.232448163907E+04    0.24675E-04   -0.40219E-03  4885   0.407E-02    0.240E-01
RMM:   8    -0.232448089066E+04    0.74841E-03   -0.80582E-04  4632   0.150E-02    0.751E-02
RMM:   9    -0.232448083349E+04    0.57173E-04   -0.22483E-04  3579   0.745E-03    0.425E-02
RMM:  10    -0.232448082940E+04    0.40915E-05   -0.70137E-05  3265   0.628E-03
   5 F= -.23459243E+04 E0= -.23459243E+04  d E =-.869551E+00  mag=     3.0000
       N       E                     dE             d eps       ncg     rms          rms(c)
DAV:   1    -0.232469941529E+04   -0.21858E+00   -0.13211E+01  4600   0.296E+00    0.853E-01
RMM:   2    -0.232477758159E+04   -0.78166E-01   -0.84906E-01  6319   0.573E-01    0.792E-01
RMM:   3    -0.232478576942E+04   -0.81878E-02   -0.98521E-02  6369   0.198E-01    0.106E+00
RMM:   4    -0.232477914181E+04    0.66276E-02   -0.11713E-02  6052   0.540E-02    0.569E-01
RMM:   5    -0.232477862901E+04    0.51280E-03   -0.62313E-03  5691   0.346E-02    0.521E-01
RMM:   6    -0.232477600810E+04    0.26209E-02   -0.38273E-03  5032   0.335E-02    0.760E-02
RMM:   7    -0.232477602571E+04   -0.17614E-04   -0.43244E-04  3915   0.166E-02    0.403E-02
RMM:   8    -0.232477604194E+04   -0.16223E-04   -0.10628E-04  3209   0.617E-03    0.438E-02
RMM:   9    -0.232477602628E+04    0.15656E-04   -0.45267E-05  2940   0.472E-03    0.195E-02
RMM:  10    -0.232477602963E+04   -0.33519E-05   -0.20313E-05  2931   0.322E-03
   6 F= -.23462203E+04 E0= -.23462203E+04  d E =-.295987E+00  mag=     3.0000
       N       E                     dE             d eps       ncg     rms          rms(c)
DAV:   1    -0.232479491178E+04   -0.18886E-01   -0.39653E+00  4768   0.159E+00    0.458E-01
RMM:   2    -0.232481909675E+04   -0.24185E-01   -0.25891E-01  6307   0.326E-01    0.446E-01
RMM:   3    -0.232482109580E+04   -0.19990E-02   -0.28426E-02  6306   0.113E-01    0.571E-01
RMM:   4    -0.232481918809E+04    0.19077E-02   -0.35140E-03  5568   0.301E-02    0.301E-01
RMM:   5    -0.232481899582E+04    0.19226E-03   -0.17592E-03  5020   0.192E-02    0.270E-01
RMM:   6    -0.232481827396E+04    0.72187E-03   -0.11250E-03  4628   0.194E-02    0.404E-02
RMM:   7    -0.232481828085E+04   -0.68949E-05   -0.12699E-04  3298   0.108E-02    0.202E-02
RMM:   8    -0.232481828339E+04   -0.25371E-05   -0.24455E-05  2999   0.377E-03
   7 F= -.23462631E+04 E0= -.23462631E+04  d E =-.338721E+00  mag=     3.0000
       N       E                     dE             d eps       ncg     rms          rms(c)
DAV:   1    -0.232491199605E+04   -0.93715E-01   -0.43714E+00  4600   0.186E+00    0.540E-01
RMM:   2    -0.232495237006E+04   -0.40374E-01   -0.43730E-01  6602   0.374E-01    0.361E-01
RMM:   3    -0.232495521808E+04   -0.28480E-02   -0.40415E-02  6157   0.121E-01    0.398E-01
RMM:   4    -0.232495418081E+04    0.10373E-02   -0.44423E-03  5901   0.307E-02    0.259E-01
RMM:   5    -0.232495481624E+04   -0.63543E-03   -0.17463E-03  5121   0.190E-02    0.374E-01
RMM:   6    -0.232495364606E+04    0.11702E-02   -0.15987E-03  5496   0.205E-02    0.897E-02
RMM:   7    -0.232495365555E+04   -0.94891E-05   -0.37028E-04  3725   0.115E-02    0.792E-02
RMM:   8    -0.232495356786E+04    0.87688E-04   -0.98045E-05  3049   0.653E-03    0.244E-02
RMM:   9    -0.232495356070E+04    0.71564E-05   -0.31299E-05  3073   0.386E-03
   8 F= -.23463988E+04 E0= -.23463988E+04  d E =-.135733E+00  mag=     3.0000
       N       E                     dE             d eps       ncg     rms          rms(c)
DAV:   1    -0.232473622447E+04    0.21734E+00   -0.39271E+01  4512   0.548E+00    0.159E+00
RMM:   2    -0.232510033746E+04   -0.36411E+00   -0.39101E+00  6534   0.107E+00    0.117E+00
RMM:   3    -0.232513041423E+04   -0.30077E-01   -0.41562E-01  6221   0.389E-01    0.138E+00
RMM:   4    -0.232511931899E+04    0.11095E-01   -0.43095E-02  6517   0.935E-02    0.953E-01
RMM:   5    -0.232511821057E+04    0.11084E-02   -0.13660E-02  5881   0.490E-02    0.829E-01
RMM:   6    -0.232511145568E+04    0.67549E-02   -0.13886E-02  5812   0.588E-02    0.240E-01
RMM:   7    -0.232511118480E+04    0.27088E-03   -0.26850E-03  5494   0.317E-02    0.891E-02
RMM:   8    -0.232511117963E+04    0.51789E-05   -0.45256E-04  4185   0.132E-02    0.105E-01
RMM:   9    -0.232511103825E+04    0.14137E-03   -0.21525E-04  3236   0.857E-03    0.386E-02
RMM:  10    -0.232511103017E+04    0.80859E-05   -0.15940E-04  3720   0.680E-03    0.162E-02
RMM:  11    -0.232511103478E+04   -0.46181E-05   -0.15108E-05  2961   0.446E-03
   9 F= -.23465580E+04 E0= -.23465580E+04  d E =-.294974E+00  mag=     3.0000
       N       E                     dE             d eps       ncg     rms          rms(c)
DAV:   1    -0.232512712146E+04   -0.16091E-01   -0.83909E+00  4608   0.237E+00    0.813E-01
RMM:   2    -0.232523162120E+04   -0.10450E+00   -0.11047E+00  6593   0.533E-01    0.864E-01
RMM:   3    -0.232524296440E+04   -0.11343E-01   -0.12629E-01  6356   0.192E-01    0.112E+00
RMM:   4    -0.232523472792E+04    0.82365E-02   -0.13711E-02  6090   0.501E-02    0.467E-01
RMM:   5    -0.232523330649E+04    0.14214E-02   -0.36562E-03  5532   0.258E-02    0.307E-01
RMM:   6    -0.232523222441E+04    0.10821E-02   -0.32893E-03  5379   0.283E-02    0.117E-01
RMM:   7    -0.232523234754E+04   -0.12313E-03   -0.94692E-04  4701   0.188E-02    0.122E-01
RMM:   8    -0.232523215150E+04    0.19604E-03   -0.27859E-04  3313   0.857E-03    0.374E-02
RMM:   9    -0.232523212759E+04    0.23909E-04   -0.51069E-05  3094   0.500E-03    0.151E-02
RMM:  10    -0.232523212649E+04    0.11032E-05   -0.22662E-05  2998   0.357E-03
  10 F= -.23466808E+04 E0= -.23466808E+04  d E =-.122713E+00  mag=     3.0000
       N       E                     dE             d eps       ncg     rms          rms(c)
DAV:   1    -0.232515784099E+04    0.74287E-01   -0.94406E+00  4576   0.250E+00    0.871E-01
RMM:   2    -0.232527494329E+04   -0.11710E+00   -0.12381E+00  6563   0.564E-01    0.928E-01
RMM:   3    -0.232528864435E+04   -0.13701E-01   -0.14729E-01  6344   0.208E-01    0.120E+00
RMM:   4    -0.232527914538E+04    0.94990E-02   -0.15793E-02  6123   0.535E-02    0.501E-01
RMM:   5    -0.232527748395E+04    0.16614E-02   -0.41442E-03  5612   0.276E-02    0.326E-01
RMM:   6    -0.232527627094E+04    0.12130E-02   -0.37326E-03  5468   0.300E-02    0.125E-01
RMM:   7    -0.232527640153E+04   -0.13060E-03   -0.10637E-03  4865   0.196E-02    0.127E-01
RMM:   8    -0.232527619001E+04    0.21153E-03   -0.31538E-04  3412   0.905E-03    0.424E-02
RMM:   9    -0.232527615837E+04    0.31635E-04   -0.60271E-05  3121   0.529E-03    0.163E-02
RMM:  10    -0.232527615585E+04    0.25207E-05   -0.28102E-05  3009   0.393E-03
  11 F= -.23467265E+04 E0= -.23467265E+04  d E =-.168492E+00  mag=     3.0000
       N       E                     dE             d eps       ncg     rms          rms(c)
DAV:   1    -0.232528838988E+04   -0.12232E-01   -0.31227E+00  4560   0.146E+00    0.519E-01
RMM:   2    -0.232534182960E+04   -0.53440E-01   -0.50160E-01  6550   0.342E-01    0.987E-01
RMM:   3    -0.232533961885E+04    0.22107E-02   -0.58516E-02  6337   0.133E-01    0.553E-01
RMM:   4    -0.232533778218E+04    0.18367E-02   -0.62595E-03  5574   0.324E-02    0.284E-01
RMM:   5    -0.232533705398E+04    0.72820E-03   -0.12779E-03  4672   0.167E-02    0.172E-01
RMM:   6    -0.232533668067E+04    0.37331E-03   -0.10262E-03  4658   0.166E-02    0.756E-02
RMM:   7    -0.232533668717E+04   -0.64962E-05   -0.22894E-04  3708   0.134E-02    0.522E-02
RMM:   8    -0.232533666393E+04    0.23243E-04   -0.85766E-05  3094   0.596E-03    0.257E-02
RMM:   9    -0.232533665345E+04    0.10475E-04   -0.15132E-05  2918   0.408E-03    0.990E-03
RMM:  10    -0.232533665231E+04    0.11408E-05   -0.10992E-05  2929   0.250E-03
  12 F= -.23467882E+04 E0= -.23467882E+04  d E =-.616743E-01  mag=     3.0000
       N       E                     dE             d eps       ncg     rms          rms(c)
DAV:   1    -0.232497819314E+04    0.35846E+00   -0.28083E+01  4512   0.438E+00    0.161E+00
RMM:   2    -0.232547629070E+04   -0.49810E+00   -0.46114E+00  6555   0.106E+00    0.300E+00
RMM:   3    -0.232544242390E+04    0.33867E-01   -0.57387E-01  6418   0.440E-01    0.159E+00
RMM:   4    -0.232542797087E+04    0.14453E-01   -0.60380E-02  6207   0.102E-01    0.910E-01
RMM:   5    -0.232542036139E+04    0.76095E-02   -0.11814E-02  6074   0.487E-02    0.522E-01
RMM:   6    -0.232541727167E+04    0.30897E-02   -0.87231E-03  5276   0.462E-02    0.280E-01
RMM:   7    -0.232541772905E+04   -0.45739E-03   -0.42675E-03  5304   0.394E-02    0.298E-01
RMM:   8    -0.232541670631E+04    0.10227E-02   -0.14224E-03  5432   0.198E-02    0.584E-02
RMM:   9    -0.232541664637E+04    0.59936E-04   -0.18590E-04  3291   0.924E-03    0.309E-02
RMM:  10    -0.232541663119E+04    0.15177E-04   -0.73111E-05  3119   0.609E-03    0.182E-02
RMM:  11    -0.232541663575E+04   -0.45521E-05   -0.18015E-05  2968   0.465E-03
  13 F= -.23468718E+04 E0= -.23468718E+04  d E =-.145303E+00  mag=     3.0000
       N       E                     dE             d eps       ncg     rms          rms(c)
DAV:   1    -0.232536759548E+04    0.49036E-01   -0.57449E+00  4512   0.234E+00    0.838E-01
RMM:   2    -0.232546052217E+04   -0.92927E-01   -0.94839E-01  6177   0.517E-01    0.972E-01
RMM:   3    -0.232546903014E+04   -0.85080E-02   -0.11134E-01  6079   0.224E-01    0.110E+00
RMM:   4    -0.232546013632E+04    0.88938E-02   -0.12503E-02  6002   0.561E-02    0.448E-01
RMM:   5    -0.232545852136E+04    0.16150E-02   -0.36900E-03  5638   0.317E-02    0.286E-01
RMM:   6    -0.232545743444E+04    0.10869E-02   -0.27201E-03  5005   0.311E-02    0.124E-01
RMM:   7    -0.232545750575E+04   -0.71317E-04   -0.10649E-03  4794   0.249E-02    0.142E-01
RMM:   8    -0.232545725378E+04    0.25198E-03   -0.33259E-04  4620   0.106E-02    0.326E-02
RMM:   9    -0.232545722220E+04    0.31571E-04   -0.58207E-05  3060   0.658E-03    0.167E-02
RMM:  10    -0.232545721086E+04    0.11345E-04   -0.31687E-05  3019   0.456E-03    0.743E-03
RMM:  11    -0.232545720789E+04    0.29659E-05   -0.82992E-06  2892   0.399E-03
  14 F= -.23469144E+04 E0= -.23469144E+04  d E =-.425581E-01  mag=     3.0000
       N       E                     dE             d eps       ncg     rms          rms(c)
DAV:   1    -0.232545215046E+04    0.50604E-02   -0.42737E-01  4728   0.639E-01    0.227E-01
RMM:   2    -0.232545895023E+04   -0.67998E-02   -0.70042E-02  6215   0.141E-01    0.255E-01
RMM:   3    -0.232545967142E+04   -0.72119E-03   -0.80358E-03  5931   0.606E-02    0.306E-01
RMM:   4    -0.232545896106E+04    0.71036E-03   -0.91886E-04  4633   0.155E-02    0.116E-01
RMM:   5    -0.232545885641E+04    0.10464E-03   -0.27410E-04  3268   0.991E-03    0.793E-02
RMM:   6    -0.232545876908E+04    0.87340E-04   -0.22441E-04  4243   0.103E-02    0.333E-02
RMM:   7    -0.232545877340E+04   -0.43234E-05   -0.75576E-05  3003   0.857E-03
  15 F= -.23469165E+04 E0= -.23469165E+04  d E =-.446733E-01  mag=     3.0000
       N       E                     dE             d eps       ncg     rms          rms(c)
DAV:   1    -0.232537322326E+04    0.85546E-01   -0.76868E+00  4512   0.261E+00    0.802E-01
RMM:   2    -0.232549065033E+04   -0.11743E+00   -0.12134E+00  6339   0.555E-01    0.814E-01
RMM:   3    -0.232550257377E+04   -0.11923E-01   -0.13468E-01  6217   0.227E-01    0.102E+00
RMM:   4    -0.232549517856E+04    0.73952E-02   -0.14278E-02  6333   0.534E-02    0.456E-01
RMM:   5    -0.232549365981E+04    0.15188E-02   -0.32406E-03  5502   0.250E-02    0.288E-01
RMM:   6    -0.232549265580E+04    0.10040E-02   -0.28552E-03  5247   0.286E-02    0.153E-01
RMM:   7    -0.232549269086E+04   -0.35058E-04   -0.14174E-03  5090   0.229E-02    0.152E-01
RMM:   8    -0.232549244061E+04    0.25025E-03   -0.41366E-04  4673   0.114E-02    0.412E-02
RMM:   9    -0.232549241088E+04    0.29729E-04   -0.59908E-05  3058   0.641E-03    0.217E-02
RMM:  10    -0.232549240464E+04    0.62424E-05   -0.34313E-05  2950   0.434E-03
  16 F= -.23469528E+04 E0= -.23469528E+04  d E =-.363230E-01  mag=     3.0000
       N       E                     dE             d eps       ncg     rms          rms(c)
DAV:   1    -0.232545247291E+04    0.39938E-01   -0.28888E+00  4528   0.159E+00    0.489E-01
RMM:   2    -0.232549633907E+04   -0.43866E-01   -0.45320E-01  6325   0.337E-01    0.493E-01
RMM:   3    -0.232550082693E+04   -0.44879E-02   -0.49287E-02  6197   0.136E-01    0.626E-01
RMM:   4    -0.232549797343E+04    0.28535E-02   -0.53628E-03  5918   0.325E-02    0.270E-01
RMM:   5    -0.232549744394E+04    0.52949E-03   -0.12191E-03  4740   0.162E-02    0.177E-01
RMM:   6    -0.232549705919E+04    0.38475E-03   -0.10799E-03  4916   0.182E-02    0.952E-02
RMM:   7    -0.232549706777E+04   -0.85801E-05   -0.52616E-04  4316   0.150E-02    0.924E-02
RMM:   8    -0.232549697373E+04    0.94039E-04   -0.14481E-04  3624   0.742E-03    0.242E-02
RMM:   9    -0.232549696375E+04    0.99733E-05   -0.23104E-05  2983   0.483E-03
  17 F= -.23469591E+04 E0= -.23469591E+04  d E =-.425625E-01  mag=     3.0000
       N       E                     dE             d eps       ncg     rms          rms(c)
DAV:   1    -0.232537749442E+04    0.11948E+00   -0.92368E+00  4512   0.285E+00    0.865E-01
RMM:   2    -0.232552449092E+04   -0.14700E+00   -0.15282E+00  6439   0.613E-01    0.847E-01
RMM:   3    -0.232554162029E+04   -0.17129E-01   -0.17048E-01  6299   0.244E-01    0.114E+00
RMM:   4    -0.232553213815E+04    0.94821E-02   -0.17554E-02  6250   0.582E-02    0.446E-01
RMM:   5    -0.232553090546E+04    0.12327E-02   -0.35424E-03  5577   0.258E-02    0.313E-01
RMM:   6    -0.232552977627E+04    0.11292E-02   -0.27424E-03  5465   0.284E-02    0.153E-01
RMM:   7    -0.232552985686E+04   -0.80589E-04   -0.14983E-03  5265   0.219E-02    0.161E-01
RMM:   8    -0.232552959394E+04    0.26292E-03   -0.46578E-04  4496   0.120E-02    0.447E-02
RMM:   9    -0.232552956174E+04    0.32197E-04   -0.60964E-05  3055   0.603E-03    0.274E-02
RMM:  10    -0.232552955414E+04    0.75990E-05   -0.39582E-05  2951   0.465E-03
  18 F= -.23469941E+04 E0= -.23469941E+04  d E =-.349914E-01  mag=     3.0000
       N       E                     dE             d eps       ncg     rms          rms(c)
DAV:   1    -0.232545528214E+04    0.74280E-01   -0.48793E+00  4512   0.208E+00    0.627E-01
RMM:   2    -0.232553266176E+04   -0.77380E-01   -0.80532E-01  6455   0.443E-01    0.606E-01
RMM:   3    -0.232554185315E+04   -0.91914E-02   -0.88576E-02  6290   0.175E-01    0.835E-01
RMM:   4    -0.232553671216E+04    0.51410E-02   -0.92608E-03  6039   0.422E-02    0.312E-01
RMM:   5    -0.232553613979E+04    0.57237E-03   -0.18453E-03  5153   0.192E-02    0.228E-01
RMM:   6    -0.232553552867E+04    0.61112E-03   -0.14657E-03  5238   0.212E-02    0.110E-01
RMM:   7    -0.232553558370E+04   -0.55033E-04   -0.78440E-04  4758   0.165E-02    0.119E-01
RMM:   8    -0.232553543529E+04    0.14841E-03   -0.23957E-04  3709   0.908E-03    0.302E-02
RMM:   9    -0.232553541993E+04    0.15360E-04   -0.33236E-05  2986   0.525E-03    0.193E-02
RMM:  10    -0.232553541662E+04    0.33040E-05   -0.22858E-05  2935   0.363E-03
  19 F= -.23470017E+04 E0= -.23470017E+04  d E =-.426370E-01  mag=     3.0000
       N       E                     dE             d eps       ncg     rms          rms(c)
DAV:   1    -0.232545875386E+04    0.76666E-01   -0.71683E+00  4512   0.248E+00    0.738E-01
RMM:   2    -0.232556052727E+04   -0.10177E+00   -0.10509E+00  6436   0.519E-01    0.749E-01
RMM:   3    -0.232557267120E+04   -0.12144E-01   -0.12062E-01  6277   0.210E-01    0.997E-01
RMM:   4    -0.232556522958E+04    0.74416E-02   -0.12285E-02  6157   0.492E-02    0.358E-01
RMM:   5    -0.232556456285E+04    0.66673E-03   -0.26712E-03  5375   0.219E-02    0.277E-01
RMM:   6    -0.232556361455E+04    0.94830E-03   -0.20830E-03  5320   0.245E-02    0.113E-01
RMM:   7    -0.232556367782E+04   -0.63275E-04   -0.90072E-04  4822   0.179E-02    0.118E-01
RMM:   8    -0.232556353397E+04    0.14385E-03   -0.27047E-04  3502   0.923E-03    0.328E-02
RMM:   9    -0.232556351385E+04    0.20129E-04   -0.37012E-05  3001   0.512E-03    0.203E-02
RMM:  10    -0.232556350907E+04    0.47796E-05   -0.23239E-05  2950   0.349E-03
  20 F= -.23470312E+04 E0= -.23470312E+04  d E =-.294663E-01  mag=     3.0000
       N       E                     dE             d eps       ncg     rms          rms(c)
DAV:   1    -0.232542437986E+04    0.13913E+00   -0.10386E+01  4512   0.298E+00    0.889E-01
RMM:   2    -0.232557149718E+04   -0.14712E+00   -0.15217E+00  6421   0.625E-01    0.885E-01
RMM:   3    -0.232558955622E+04   -0.18059E-01   -0.17593E-01  6277   0.252E-01    0.119E+00
RMM:   4    -0.232557890986E+04    0.10646E-01   -0.17668E-02  6280   0.589E-02    0.432E-01
RMM:   5    -0.232557795928E+04    0.95058E-03   -0.39563E-03  5615   0.264E-02    0.333E-01
RMM:   6    -0.232557658721E+04    0.13721E-02   -0.30141E-03  5470   0.292E-02    0.137E-01
RMM:   7    -0.232557661815E+04   -0.30947E-04   -0.12583E-03  5064   0.205E-02    0.127E-01
RMM:   8    -0.232557646576E+04    0.15239E-03   -0.36462E-04  3708   0.108E-02    0.435E-02
RMM:   9    -0.232557643070E+04    0.35055E-04   -0.50307E-05  3022   0.560E-03    0.251E-02
RMM:  10    -0.232557642277E+04    0.79298E-05   -0.33832E-05  2957   0.415E-03
  21 F= -.23470458E+04 E0= -.23470458E+04  d E =-.440696E-01  mag=     3.0000
       N       E                     dE             d eps       ncg     rms          rms(c)
DAV:   1    -0.232548726104E+04    0.89170E-01   -0.75579E+00  4544   0.262E+00    0.800E-01
RMM:   2    -0.232560352353E+04   -0.11626E+00   -0.11927E+00  6423   0.572E-01    0.858E-01
RMM:   3    -0.232561715475E+04   -0.13631E-01   -0.14126E-01  6262   0.232E-01    0.107E+00
RMM:   4    -0.232560850061E+04    0.86541E-02   -0.13970E-02  6189   0.555E-02    0.389E-01
RMM:   5    -0.232560774259E+04    0.75802E-03   -0.32691E-03  5554   0.258E-02    0.303E-01
RMM:   6    -0.232560655727E+04    0.11853E-02   -0.24568E-03  5247   0.273E-02    0.107E-01
RMM:   7    -0.232560649340E+04    0.63877E-04   -0.78022E-04  4879   0.187E-02    0.453E-02
RMM:   8    -0.232560648106E+04    0.12341E-04   -0.94360E-05  3275   0.790E-03    0.346E-02
RMM:   9    -0.232560646781E+04    0.13248E-04   -0.44333E-05  2974   0.553E-03    0.253E-02
RMM:  10    -0.232560645822E+04    0.95875E-05   -0.27433E-05  2960   0.387E-03
  22 F= -.23470772E+04 E0= -.23470772E+04  d E =-.313807E-01  mag=     3.0000
       N       E                     dE             d eps       ncg     rms          rms(c)
DAV:   1    -0.232547738312E+04    0.12908E+00   -0.89525E+00  4544   0.287E+00    0.868E-01
RMM:   2    -0.232561481609E+04   -0.13743E+00   -0.14118E+00  6430   0.620E-01    0.915E-01
RMM:   3    -0.232563115248E+04   -0.16336E-01   -0.16728E-01  6260   0.249E-01    0.115E+00
RMM:   4    -0.232562102119E+04    0.10131E-01   -0.16476E-02  6166   0.599E-02    0.423E-01
RMM:   5    -0.232562014461E+04    0.87659E-03   -0.38962E-03  5631   0.282E-02    0.330E-01
RMM:   6    -0.232561874453E+04    0.14001E-02   -0.28945E-03  5312   0.294E-02    0.120E-01
RMM:   7    -0.232561864937E+04    0.95158E-04   -0.95019E-04  5001   0.200E-02    0.468E-02
RMM:   8    -0.232561862173E+04    0.27643E-04   -0.86367E-05  3438   0.814E-03    0.246E-02
RMM:   9    -0.232561861820E+04    0.35305E-05   -0.45326E-05  3033   0.550E-03
  23 F= -.23470908E+04 E0= -.23470908E+04  d E =-.450170E-01  mag=     3.0000
       N       E                     dE             d eps       ncg     rms          rms(c)
DAV:   1    -0.232551838247E+04    0.10024E+00   -0.82921E+00  4544   0.261E+00    0.796E-01
RMM:   2    -0.232564357297E+04   -0.12519E+00   -0.12729E+00  6579   0.573E-01    0.904E-01
RMM:   3    -0.232565635435E+04   -0.12781E-01   -0.15134E-01  6332   0.228E-01    0.103E+00
RMM:   4    -0.232564857474E+04    0.77796E-02   -0.14765E-02  6165   0.533E-02    0.398E-01
RMM:   5    -0.232564774829E+04    0.82645E-03   -0.31378E-03  5470   0.239E-02    0.305E-01
RMM:   6    -0.232564660565E+04    0.11426E-02   -0.25556E-03  5234   0.264E-02    0.110E-01
RMM:   7    -0.232564658438E+04    0.21269E-04   -0.76367E-04  4727   0.180E-02    0.652E-02
RMM:   8    -0.232564656857E+04    0.15817E-04   -0.16471E-04  3226   0.823E-03    0.460E-02
RMM:   9    -0.232564653371E+04    0.34858E-04   -0.41194E-05  2974   0.519E-03    0.201E-02
RMM:  10    -0.232564652711E+04    0.65950E-05   -0.29709E-05  2978   0.369E-03
  24 F= -.23471198E+04 E0= -.23471198E+04  d E =-.290244E-01  mag=     3.0000
       N       E                     dE             d eps       ncg     rms          rms(c)
DAV:   1    -0.232526906965E+04    0.37746E+00   -0.25789E+01  4544   0.460E+00    0.141E+00
RMM:   2    -0.232565806653E+04   -0.38900E+00   -0.39820E+00  6573   0.102E+00    0.150E+00
RMM:   3    -0.232570175745E+04   -0.43691E-01   -0.48934E-01  6363   0.416E-01    0.183E+00
RMM:   4    -0.232567646535E+04    0.25292E-01   -0.45952E-02  6415   0.948E-02    0.702E-01
RMM:   5    -0.232567394187E+04    0.25235E-02   -0.97593E-03  5950   0.413E-02    0.542E-01
RMM:   6    -0.232567051989E+04    0.34220E-02   -0.77128E-03  5545   0.445E-02    0.233E-01
RMM:   7    -0.232567040352E+04    0.11637E-03   -0.34906E-03  5481   0.324E-02    0.173E-01
RMM:   8    -0.232567018436E+04    0.21916E-03   -0.82649E-04  4396   0.166E-02    0.838E-02
RMM:   9    -0.232567006149E+04    0.12287E-03   -0.16051E-04  3417   0.748E-03    0.395E-02
RMM:  10    -0.232567003538E+04    0.26109E-04   -0.93665E-05  3052   0.625E-03    0.134E-02
RMM:  11    -0.232567003442E+04    0.96016E-06   -0.22395E-05  2979   0.440E-03
  25 F= -.23471453E+04 E0= -.23471453E+04  d E =-.545085E-01  mag=     3.0000
       N       E                     dE             d eps       ncg     rms          rms(c)
DAV:   1    -0.232551650119E+04    0.15353E+00   -0.12204E+01  4512   0.321E+00    0.101E+00
RMM:   2    -0.232569499690E+04   -0.17850E+00   -0.18336E+00  6448   0.703E-01    0.102E+00
RMM:   3    -0.232571670871E+04   -0.21712E-01   -0.21868E-01  6252   0.292E-01    0.133E+00
RMM:   4    -0.232570307622E+04    0.13632E-01   -0.21319E-02  6330   0.684E-02    0.459E-01
RMM:   5    -0.232570243686E+04    0.63936E-03   -0.51398E-03  5834   0.323E-02    0.400E-01
RMM:   6    -0.232570052800E+04    0.19089E-02   -0.39884E-03  5419   0.343E-02    0.146E-01
RMM:   7    -0.232570054108E+04   -0.13080E-04   -0.13394E-03  5233   0.233E-02    0.130E-01
RMM:   8    -0.232570038096E+04    0.16012E-03   -0.38772E-04  3834   0.111E-02    0.472E-02
RMM:   9    -0.232570033773E+04    0.43237E-04   -0.66510E-05  3090   0.606E-03    0.236E-02
RMM:  10    -0.232570032912E+04    0.86078E-05   -0.34008E-05  2980   0.458E-03
  26 F= -.23471769E+04 E0= -.23471769E+04  d E =-.316147E-01  mag=     3.0000
       N       E                     dE             d eps       ncg     rms          rms(c)
DAV:   1    -0.232563894298E+04    0.61395E-01   -0.44225E+00  4544   0.194E+00    0.605E-01
RMM:   2    -0.232570361234E+04   -0.64669E-01   -0.66224E-01  6454   0.418E-01    0.632E-01
RMM:   3    -0.232571103023E+04   -0.74179E-02   -0.77132E-02  6238   0.170E-01    0.787E-01
RMM:   4    -0.232570617002E+04    0.48602E-02   -0.76771E-03  6034   0.410E-02    0.272E-01
RMM:   5    -0.232570597331E+04    0.19670E-03   -0.18664E-03  5253   0.203E-02    0.242E-01
RMM:   6    -0.232570524327E+04    0.73005E-03   -0.14655E-03  5111   0.213E-02    0.756E-02
RMM:   7    -0.232570523576E+04    0.75072E-05   -0.34718E-04  4311   0.141E-02    0.539E-02
RMM:   8    -0.232570521696E+04    0.18797E-04   -0.10079E-04  3059   0.655E-03    0.317E-02
RMM:   9    -0.232570519993E+04    0.17027E-04   -0.21465E-05  2959   0.428E-03    0.138E-02
RMM:  10    -0.232570519758E+04    0.23574E-05   -0.14507E-05  2952   0.303E-03
  27 F= -.23471826E+04 E0= -.23471826E+04  d E =-.372890E-01  mag=     3.0000
       N       E                     dE             d eps       ncg     rms          rms(c)
DAV:   1    -0.232556743101E+04    0.13777E+00   -0.13011E+01  4512   0.325E+00    0.972E-01
RMM:   2    -0.232572333147E+04   -0.15590E+00   -0.16207E+00  6490   0.661E-01    0.871E-01
RMM:   3    -0.232574495687E+04   -0.21625E-01   -0.18541E-01  6271   0.261E-01    0.132E+00
RMM:   4    -0.232573085798E+04    0.14099E-01   -0.18315E-02  6333   0.641E-02    0.402E-01
RMM:   5    -0.232573082343E+04    0.34552E-04   -0.50341E-03  5757   0.309E-02    0.391E-01
RMM:   6    -0.232572908017E+04    0.17433E-02   -0.38082E-03  5785   0.322E-02    0.156E-01
RMM:   7    -0.232572911369E+04   -0.33519E-04   -0.13121E-03  5107   0.201E-02    0.148E-01
RMM:   8    -0.232572887984E+04    0.23385E-03   -0.41968E-04  3611   0.108E-02    0.417E-02
RMM:   9    -0.232572884444E+04    0.35396E-04   -0.75295E-05  3060   0.580E-03    0.208E-02
RMM:  10    -0.232572884042E+04    0.40240E-05   -0.22138E-05  2967   0.409E-03
  28 F= -.23472076E+04 E0= -.23472076E+04  d E =-.249814E-01  mag=     3.0000
       N       E                     dE             d eps       ncg     rms          rms(c)
DAV:   1    -0.232549943313E+04    0.22941E+00   -0.19425E+01  4512   0.395E+00    0.119E+00
RMM:   2    -0.232573272810E+04   -0.23329E+00   -0.24275E+00  6489   0.808E-01    0.106E+00
RMM:   3    -0.232576504007E+04   -0.32312E-01   -0.28092E-01  6272   0.321E-01    0.160E+00
RMM:   4    -0.232574415733E+04    0.20883E-01   -0.27442E-02  6415   0.783E-02    0.497E-01
RMM:   5    -0.232574394025E+04    0.21708E-03   -0.74623E-03  5849   0.372E-02    0.473E-01
RMM:   6    -0.232574145411E+04    0.24861E-02   -0.56515E-03  5840   0.388E-02    0.202E-01
RMM:   7    -0.232574148344E+04   -0.29324E-04   -0.21482E-03  5421   0.248E-02    0.189E-01
RMM:   8    -0.232574110034E+04    0.38310E-03   -0.66829E-04  4125   0.135E-02    0.530E-02
RMM:   9    -0.232574104244E+04    0.57894E-04   -0.12367E-04  3160   0.667E-03    0.264E-02
RMM:  10    -0.232574103536E+04    0.70860E-05   -0.35596E-05  2983   0.495E-03
  29 F= -.23472214E+04 E0= -.23472214E+04  d E =-.388515E-01  mag=     3.0000
       N       E                     dE             d eps       ncg     rms          rms(c)
DAV:   1    -0.232562244765E+04    0.11859E+00   -0.13536E+01  4544   0.322E+00    0.991E-01
RMM:   2    -0.232576149445E+04   -0.13905E+00   -0.14719E+00  6351   0.645E-01    0.697E-01
RMM:   3    -0.232578384209E+04   -0.22348E-01   -0.16384E-01  6168   0.259E-01    0.131E+00
RMM:   4    -0.232576953606E+04    0.14306E-01   -0.16504E-02  6411   0.632E-02    0.359E-01
RMM:   5    -0.232576937671E+04    0.15934E-03   -0.53035E-03  5375   0.349E-02    0.329E-01
RMM:   6    -0.232576848355E+04    0.89317E-03   -0.33951E-03  5796   0.305E-02    0.193E-01
RMM:   7    -0.232576814944E+04    0.33410E-03   -0.89876E-04  5296   0.170E-02    0.105E-01
RMM:   8    -0.232576805228E+04    0.97168E-04   -0.26048E-04  3132   0.994E-03    0.541E-02
RMM:   9    -0.232576801027E+04    0.42005E-04   -0.73644E-05  3010   0.567E-03    0.198E-02
RMM:  10    -0.232576800841E+04    0.18591E-05   -0.23624E-05  2978   0.404E-03
  30 F= -.23472498E+04 E0= -.23472498E+04  d E =-.283316E-01  mag=     3.0000
       N       E                     dE             d eps       ncg     rms          rms(c)
DAV:   1    -0.232569340888E+04    0.74601E-01   -0.76422E+00  4544   0.243E+00    0.740E-01
RMM:   2    -0.232577102627E+04   -0.77617E-01   -0.82171E-01  6358   0.485E-01    0.523E-01
RMM:   3    -0.232578356959E+04   -0.12543E-01   -0.90994E-02  6136   0.195E-01    0.976E-01
RMM:   4    -0.232577548881E+04    0.80808E-02   -0.92281E-03  6233   0.478E-02    0.262E-01
RMM:   5    -0.232577545084E+04    0.37969E-04   -0.30069E-03  5234   0.270E-02    0.247E-01
RMM:   6    -0.232577491351E+04    0.53733E-03   -0.18548E-03  5439   0.230E-02    0.137E-01
RMM:   7    -0.232577474961E+04    0.16391E-03   -0.46097E-04  4766   0.125E-02    0.760E-02
RMM:   8    -0.232577469546E+04    0.54144E-04   -0.13504E-04  2984   0.791E-03    0.374E-02
RMM:   9    -0.232577467533E+04    0.20133E-04   -0.36918E-05  2980   0.422E-03    0.143E-02
RMM:  10    -0.232577467457E+04    0.75581E-06   -0.11702E-05  2952   0.320E-03
  31 F= -.23472575E+04 E0= -.23472575E+04  d E =-.360362E-01  mag=     3.0000
       N       E                     dE             d eps       ncg     rms          rms(c)
DAV:   1    -0.232568855336E+04    0.86122E-01   -0.96779E+00  4512   0.267E+00    0.821E-01
RMM:   2    -0.232578542568E+04   -0.96872E-01   -0.10274E+00  6341   0.537E-01    0.499E-01
RMM:   3    -0.232580021880E+04   -0.14793E-01   -0.11860E-01  6052   0.225E-01    0.942E-01
RMM:   4    -0.232579303009E+04    0.71887E-02   -0.11582E-02  6340   0.507E-02    0.303E-01
RMM:   5    -0.232579247664E+04    0.55345E-03   -0.29395E-03  5488   0.296E-02    0.197E-01
RMM:   6    -0.232579265453E+04   -0.17790E-03   -0.18356E-03  5588   0.219E-02    0.212E-01
RMM:   7    -0.232579210434E+04    0.55019E-03   -0.56689E-04  4858   0.137E-02    0.403E-02
RMM:   8    -0.232579209770E+04    0.66423E-05   -0.11416E-04  3028   0.714E-03    0.395E-02
RMM:   9    -0.232579208179E+04    0.15909E-04   -0.49285E-05  2967   0.452E-03    0.208E-02
RMM:  10    -0.232579207853E+04    0.32625E-05   -0.13108E-05  2942   0.307E-03
  32 F= -.23472762E+04 E0= -.23472762E+04  d E =-.187417E-01  mag=     3.0000
       N       E                     dE             d eps       ncg     rms          rms(c)
DAV:   1    -0.232573914566E+04    0.52936E-01   -0.52940E+00  4544   0.197E+00    0.608E-01
RMM:   2    -0.232579208351E+04   -0.52938E-01   -0.56161E-01  6336   0.396E-01    0.365E-01
RMM:   3    -0.232580010906E+04   -0.80256E-02   -0.64300E-02  6010   0.165E-01    0.684E-01
RMM:   4    -0.232579628859E+04    0.38205E-02   -0.62733E-03  5997   0.373E-02    0.222E-01
RMM:   5    -0.232579610554E+04    0.18305E-03   -0.16467E-03  5304   0.226E-02    0.170E-01
RMM:   6    -0.232579601127E+04    0.94271E-04   -0.96596E-04  5251   0.166E-02    0.135E-01
RMM:   7    -0.232579579365E+04    0.21762E-03   -0.24985E-04  3933   0.992E-03    0.259E-02
RMM:   8    -0.232579578841E+04    0.52441E-05   -0.48558E-05  2991   0.606E-03
  33 F= -.23472809E+04 E0= -.23472809E+04  d E =-.234515E-01  mag=     3.0000
       N       E                     dE             d eps       ncg     rms          rms(c)
DAV:   1    -0.232568654221E+04    0.10925E+00   -0.12591E+01  4512   0.295E+00    0.901E-01
RMM:   2    -0.232580748269E+04   -0.12094E+00   -0.12652E+00  6367   0.579E-01    0.618E-01
RMM:   3    -0.232582650843E+04   -0.19026E-01   -0.14215E-01  6078   0.235E-01    0.116E+00
RMM:   4    -0.232581518255E+04    0.11326E-01   -0.13814E-02  6315   0.561E-02    0.307E-01
RMM:   5    -0.232581449126E+04    0.69130E-03   -0.35653E-03  5261   0.312E-02    0.169E-01
RMM:   6    -0.232581502270E+04   -0.53144E-03   -0.19951E-03  5634   0.238E-02    0.235E-01
RMM:   7    -0.232581431308E+04    0.70961E-03   -0.65746E-04  4671   0.142E-02    0.453E-02
RMM:   8    -0.232581428566E+04    0.27427E-04   -0.11122E-04  3022   0.600E-03    0.229E-02
RMM:   9    -0.232581428844E+04   -0.27842E-05   -0.29839E-05  2949   0.414E-03
  34 F= -.23473006E+04 E0= -.23473006E+04  d E =-.196331E-01  mag=     3.0000
       N       E                     dE             d eps       ncg     rms          rms(c)
DAV:   1    -0.232559673279E+04    0.21755E+00   -0.21938E+01  4512   0.386E+00    0.121E+00
RMM:   2    -0.232581102357E+04   -0.21429E+00   -0.22421E+00  6351   0.767E-01    0.823E-01
RMM:   3    -0.232584456957E+04   -0.33546E-01   -0.25279E-01  6106   0.312E-01    0.154E+00
RMM:   4    -0.232582472693E+04    0.19843E-01   -0.24239E-02  6394   0.741E-02    0.416E-01
RMM:   5    -0.232582348633E+04    0.12406E-02   -0.62544E-03  5538   0.408E-02    0.242E-01
RMM:   6    -0.232582442616E+04   -0.93983E-03   -0.39822E-03  5988   0.319E-02    0.321E-01
RMM:   7    -0.232582306990E+04    0.13563E-02   -0.13007E-03  5297   0.194E-02    0.689E-02
RMM:   8    -0.232582308017E+04   -0.10275E-04   -0.33949E-04  3106   0.871E-03    0.849E-02
RMM:   9    -0.232582299877E+04    0.81404E-04   -0.12072E-04  2980   0.659E-03    0.254E-02
RMM:  10    -0.232582299488E+04    0.38900E-05   -0.33795E-05  2986   0.379E-03
  35 F= -.23473108E+04 E0= -.23473108E+04  d E =-.298307E-01  mag=     3.0000
       N       E                     dE             d eps       ncg     rms          rms(c)
DAV:   1    -0.232574954179E+04    0.73457E-01   -0.91609E+00  4512   0.248E+00    0.784E-01
RMM:   2    -0.232583650939E+04   -0.86968E-01   -0.89471E-01  6365   0.487E-01    0.638E-01
RMM:   3    -0.232585049020E+04   -0.13981E-01   -0.98594E-02  6128   0.193E-01    0.109E+00
RMM:   4    -0.232584018002E+04    0.10310E-01   -0.98850E-03  6118   0.489E-02    0.233E-01
RMM:   5    -0.232583971638E+04    0.46363E-03   -0.24807E-03  4954   0.258E-02    0.125E-01
RMM:   6    -0.232583992666E+04   -0.21027E-03   -0.10744E-03  5278   0.199E-02    0.150E-01
RMM:   7    -0.232583964302E+04    0.28364E-03   -0.32808E-04  3728   0.107E-02    0.413E-02
RMM:   8    -0.232583963106E+04    0.11963E-04   -0.67643E-05  2989   0.525E-03    0.345E-02
RMM:   9    -0.232583962027E+04    0.10783E-04   -0.26665E-05  2927   0.356E-03    0.170E-02
RMM:  10    -0.232583961774E+04    0.25336E-05   -0.94329E-06  2926   0.241E-03
  36 F= -.23473282E+04 E0= -.23473282E+04  d E =-.174106E-01  mag=     3.0000
       N       E                     dE             d eps       ncg     rms          rms(c)
DAV:   1    -0.232566770373E+04    0.17192E+00   -0.18431E+01  4512   0.353E+00    0.112E+00
RMM:   2    -0.232584504930E+04   -0.17735E+00   -0.18207E+00  6373   0.697E-01    0.936E-01
RMM:   3    -0.232587200489E+04   -0.26956E-01   -0.19842E-01  6156   0.274E-01    0.153E+00
RMM:   4    -0.232585143363E+04    0.20571E-01   -0.19852E-02  6270   0.697E-02    0.337E-01
RMM:   5    -0.232585050719E+04    0.92644E-03   -0.52631E-03  5122   0.371E-02    0.188E-01
RMM:   6    -0.232585106897E+04   -0.56179E-03   -0.24681E-03  5717   0.289E-02    0.247E-01
RMM:   7    -0.232585030997E+04    0.75901E-03   -0.79111E-04  4876   0.157E-02    0.591E-02
RMM:   8    -0.232585026125E+04    0.48719E-04   -0.12013E-04  3070   0.593E-03    0.264E-02
RMM:   9    -0.232585026086E+04    0.38954E-06   -0.33788E-05  2955   0.448E-03
  37 F= -.23473399E+04 E0= -.23473399E+04  d E =-.291646E-01  mag=     3.0000
       N       E                     dE             d eps       ncg     rms          rms(c)
DAV:   1    -0.232583872872E+04    0.11533E-01   -0.12166E+00  4656   0.908E-01    0.284E-01
RMM:   2    -0.232585013844E+04   -0.11410E-01   -0.11747E-01  6374   0.178E-01    0.225E-01
RMM:   3    -0.232585201535E+04   -0.18769E-02   -0.12464E-02  5756   0.684E-02    0.395E-01
RMM:   4    -0.232585062676E+04    0.13886E-02   -0.13209E-03  4068   0.182E-02    0.834E-02
RMM:   5    -0.232585063004E+04   -0.32729E-05   -0.36378E-04  3847   0.108E-02    0.841E-02
RMM:   6    -0.232585058487E+04    0.45162E-04   -0.21275E-04  3165   0.909E-03    0.508E-02
RMM:   7    -0.232585056365E+04    0.21224E-04   -0.48777E-05  3005   0.616E-03    0.222E-02
RMM:   8    -0.232585055933E+04    0.43156E-05   -0.16866E-05  2914   0.422E-03
  38 F= -.23473405E+04 E0= -.23473405E+04  d E =-.297458E-01  mag=     3.0000
       N       E                     dE             d eps       ncg     rms          rms(c)
DAV:   1    -0.232571710468E+04    0.13346E+00   -0.16517E+01  4512   0.328E+00    0.103E+00
RMM:   2    -0.232586704926E+04   -0.14994E+00   -0.15053E+00  6351   0.644E-01    0.101E+00
RMM:   3    -0.232588439442E+04   -0.17345E-01   -0.16134E-01  6140   0.252E-01    0.136E+00
RMM:   4    -0.232586798585E+04    0.16409E-01   -0.16030E-02  6080   0.650E-02    0.311E-01
RMM:   5    -0.232586837525E+04   -0.38940E-03   -0.51208E-03  5558   0.354E-02    0.359E-01
RMM:   6    -0.232586726907E+04    0.11062E-02   -0.30889E-03  5797   0.282E-02    0.168E-01
RMM:   7    -0.232586709617E+04    0.17290E-03   -0.69155E-04  4815   0.152E-02    0.958E-02
RMM:   8    -0.232586700653E+04    0.89636E-04   -0.24661E-04  3157   0.906E-03    0.508E-02
RMM:   9    -0.232586697364E+04    0.32896E-04   -0.47121E-05  2974   0.482E-03    0.192E-02
RMM:  10    -0.232586697176E+04    0.18748E-05   -0.19916E-05  2957   0.352E-03
  39 F= -.23473578E+04 E0= -.23473578E+04  d E =-.172961E-01  mag=     3.0000
       N       E                     dE             d eps       ncg     rms          rms(c)
DAV:   1    -0.232581245888E+04    0.54515E-01   -0.62794E+00  4512   0.202E+00    0.640E-01
RMM:   2    -0.232586911806E+04   -0.56659E-01   -0.57330E-01  6351   0.397E-01    0.581E-01
RMM:   3    -0.232587670044E+04   -0.75824E-02   -0.60069E-02  6097   0.154E-01    0.864E-01
RMM:   4    -0.232587000321E+04    0.66972E-02   -0.61818E-03  5830   0.403E-02    0.190E-01
RMM:   5    -0.232587014477E+04   -0.14156E-03   -0.19412E-03  5219   0.225E-02    0.219E-01
RMM:   6    -0.232586973268E+04    0.41209E-03   -0.12023E-03  5218   0.182E-02    0.103E-01
RMM:   7    -0.232586965867E+04    0.74012E-04   -0.24659E-04  3757   0.972E-03    0.548E-02
RMM:   8    -0.232586962943E+04    0.29240E-04   -0.84396E-05  2961   0.660E-03    0.298E-02
RMM:   9    -0.232586961841E+04    0.11025E-04   -0.16558E-05  2949   0.329E-03    0.118E-02
RMM:  10    -0.232586961792E+04    0.48679E-06   -0.79995E-06  2929   0.254E-03
  40 F= -.23473610E+04 E0= -.23473610E+04  d E =-.204900E-01  mag=     3.0000
       N       E                     dE             d eps       ncg     rms          rms(c)
DAV:   1    -0.232581830697E+04    0.51311E-01   -0.78992E+00  4512   0.228E+00    0.727E-01
RMM:   2    -0.232588066746E+04   -0.62360E-01   -0.63571E-01  6293   0.439E-01    0.594E-01
RMM:   3    -0.232589029735E+04   -0.96299E-02   -0.65934E-02  6047   0.167E-01    0.963E-01
RMM:   4    -0.232588183549E+04    0.84619E-02   -0.72750E-03  5996   0.453E-02    0.257E-01
RMM:   5    -0.232588207302E+04   -0.23754E-03   -0.25007E-03  5632   0.244E-02    0.291E-01
RMM:   6    -0.232588119362E+04    0.87940E-03   -0.16278E-03  5278   0.228E-02    0.847E-02
RMM:   7    -0.232588124777E+04   -0.54151E-04   -0.45570E-04  4004   0.142E-02    0.875E-02
RMM:   8    -0.232588115081E+04    0.96960E-04   -0.15298E-04  3101   0.693E-03    0.249E-02
RMM:   9    -0.232588114298E+04    0.78287E-05   -0.23810E-05  2974   0.411E-03
  41 F= -.23473731E+04 E0= -.23473731E+04  d E =-.120748E-01  mag=     3.0000
       N       E                     dE             d eps       ncg     rms          rms(c)
DAV:   1    -0.232585983926E+04    0.21312E-01   -0.29303E+00  4544   0.139E+00    0.443E-01
RMM:   2    -0.232588291342E+04   -0.23074E-01   -0.23556E-01  6273   0.268E-01    0.353E-01
RMM:   3    -0.232588655150E+04   -0.36381E-02   -0.24163E-02  5954   0.101E-01    0.585E-01
RMM:   4    -0.232588339528E+04    0.31562E-02   -0.27049E-03  5473   0.277E-02    0.155E-01
RMM:   5    -0.232588349856E+04   -0.10328E-03   -0.92868E-04  4782   0.156E-02    0.180E-01
RMM:   6    -0.232588315836E+04    0.34020E-03   -0.61588E-04  4852   0.147E-02    0.494E-02
RMM:   7    -0.232588317827E+04   -0.19908E-04   -0.16083E-04  3159   0.962E-03    0.508E-02
RMM:   8    -0.232588314526E+04    0.33010E-04   -0.54298E-05  2963   0.512E-03    0.148E-02
RMM:   9    -0.232588314262E+04    0.26372E-05   -0.93751E-06  2937   0.294E-03
  42 F= -.23473754E+04 E0= -.23473754E+04  d E =-.144148E-01  mag=     3.0000
       N       E                     dE             d eps       ncg     rms          rms(c)
DAV:   1    -0.232585193204E+04    0.31213E-01   -0.68798E+00  4512   0.211E+00    0.642E-01
RMM:   2    -0.232589354295E+04   -0.41611E-01   -0.43520E-01  6181   0.384E-01    0.384E-01
RMM:   3    -0.232589824375E+04   -0.47008E-02   -0.41065E-02  5980   0.142E-01    0.571E-01
RMM:   4    -0.232589480063E+04    0.34431E-02   -0.46702E-03  5907   0.367E-02    0.252E-01
RMM:   5    -0.232589523647E+04   -0.43585E-03   -0.19408E-03  5339   0.217E-02    0.328E-01
RMM:   6    -0.232589422432E+04    0.10122E-02   -0.14069E-03  5299   0.217E-02    0.701E-02
RMM:   7    -0.232589424268E+04   -0.18354E-04   -0.29010E-04  3663   0.125E-02    0.650E-02
RMM:   8    -0.232589418872E+04    0.53956E-04   -0.94084E-05  3018   0.588E-03    0.218E-02
RMM:   9    -0.232589418135E+04    0.73705E-05   -0.17341E-05  2958   0.371E-03
  43 F= -.23473869E+04 E0= -.23473869E+04  d E =-.114482E-01  mag=     3.0000
       N       E                     dE             d eps       ncg     rms          rms(c)
DAV:   1    -0.232587039940E+04    0.23789E-01   -0.43037E+00  4528   0.166E+00    0.505E-01
RMM:   2    -0.232589615500E+04   -0.25756E-01   -0.26930E-01  6182   0.303E-01    0.305E-01
RMM:   3    -0.232589906001E+04   -0.29050E-02   -0.25670E-02  5962   0.112E-01    0.449E-01
RMM:   4    -0.232589691117E+04    0.21488E-02   -0.29240E-03  5582   0.291E-02    0.197E-01
RMM:   5    -0.232589720761E+04   -0.29644E-03   -0.12244E-03  4932   0.178E-02    0.263E-01
RMM:   6    -0.232589655288E+04    0.65473E-03   -0.89122E-04  5028   0.175E-02    0.542E-02
RMM:   7    -0.232589656359E+04   -0.10703E-04   -0.17903E-04  3315   0.106E-02    0.506E-02
RMM:   8    -0.232589653065E+04    0.32934E-04   -0.59810E-05  2950   0.513E-03    0.171E-02
RMM:   9    -0.232589652617E+04    0.44783E-05   -0.11252E-05  2938   0.325E-03
  44 F= -.23473895E+04 E0= -.23473895E+04  d E =-.141214E-01  mag=     3.0000
       N       E                     dE             d eps       ncg     rms          rms(c)
DAV:   1    -0.232588402843E+04    0.12502E-01   -0.39949E+00  4528   0.160E+00    0.473E-01
RMM:   2    -0.232590526504E+04   -0.21237E-01   -0.22372E-01  6161   0.281E-01    0.277E-01
RMM:   3    -0.232590760381E+04   -0.23388E-02   -0.20892E-02  5916   0.106E-01    0.408E-01
RMM:   4    -0.232590597029E+04    0.16335E-02   -0.24608E-03  5905   0.274E-02    0.180E-01
RMM:   5    -0.232590640743E+04   -0.43714E-03   -0.10508E-03  4469   0.164E-02    0.259E-01
RMM:   6    -0.232590570882E+04    0.69860E-03   -0.78323E-04  4922   0.162E-02    0.452E-02
RMM:   7    -0.232590570194E+04    0.68805E-05   -0.90835E-05  3087   0.810E-03
  45 F= -.23473987E+04 E0= -.23473987E+04  d E =-.918723E-02  mag=     3.0000
       N       E                     dE             d eps       ncg     rms          rms(c)
DAV:   1    -0.232575157158E+04    0.15414E+00   -0.30015E+01  4512   0.439E+00    0.129E+00
RMM:   2    -0.232591208831E+04   -0.16052E+00   -0.16965E+00  6123   0.771E-01    0.749E-01
RMM:   3    -0.232592798730E+04   -0.15899E-01   -0.15749E-01  5957   0.296E-01    0.104E+00
RMM:   4    -0.232591665088E+04    0.11336E-01   -0.18057E-02  6523   0.747E-02    0.452E-01
RMM:   5    -0.232592017650E+04   -0.35256E-02   -0.82092E-03  5331   0.458E-02    0.728E-01
RMM:   6    -0.232591532322E+04    0.48533E-02   -0.56327E-03  5817   0.394E-02    0.192E-01
RMM:   7    -0.232591501982E+04    0.30340E-03   -0.78491E-04  4948   0.174E-02    0.605E-02
RMM:   8    -0.232591502220E+04   -0.23786E-05   -0.24417E-04  3048   0.912E-03    0.647E-02
RMM:   9    -0.232591496784E+04    0.54357E-04   -0.95642E-05  3045   0.600E-03    0.205E-02
RMM:  10    -0.232591496641E+04    0.14324E-05   -0.22009E-05  2983   0.383E-03
  46 F= -.23474080E+04 E0= -.23474080E+04  d E =-.184976E-01  mag=     3.0000
       N       E                     dE             d eps       ncg     rms          rms(c)
DAV:   1    -0.232589484599E+04    0.20122E-01   -0.76141E+00  4512   0.218E+00    0.625E-01
RMM:   2    -0.232592595877E+04   -0.31113E-01   -0.33050E-01  5978   0.366E-01    0.385E-01
RMM:   3    -0.232593066926E+04   -0.47105E-02   -0.31625E-02  5709   0.145E-01    0.679E-01
RMM:   4    -0.232592645731E+04    0.42120E-02   -0.42724E-03  6191   0.378E-02    0.236E-01
RMM:   5    -0.232592727229E+04   -0.81498E-03   -0.22846E-03  5267   0.252E-02    0.319E-01
RMM:   6    -0.232592608042E+04    0.11919E-02   -0.14553E-03  5565   0.214E-02    0.753E-02
RMM:   7    -0.232592606743E+04    0.12988E-04   -0.24351E-04  3225   0.101E-02    0.583E-02
RMM:   8    -0.232592602779E+04    0.39637E-04   -0.77897E-05  2952   0.567E-03    0.214E-02
RMM:   9    -0.232592602248E+04    0.53169E-05   -0.19380E-05  2956   0.324E-03
  47 F= -.23474189E+04 E0= -.23474189E+04  d E =-.108699E-01  mag=     3.0000
       N       E                     dE             d eps       ncg     rms          rms(c)
DAV:   1    -0.232590589658E+04    0.20131E-01   -0.58365E+00  4512   0.190E+00    0.553E-01
RMM:   2    -0.232593008309E+04   -0.24187E-01   -0.25669E-01  5990   0.321E-01    0.341E-01
RMM:   3    -0.232593379679E+04   -0.37137E-02   -0.24266E-02  5706   0.125E-01    0.610E-01
RMM:   4    -0.232593038544E+04    0.34113E-02   -0.33155E-03  6090   0.334E-02    0.205E-01
RMM:   5    -0.232593103051E+04   -0.64507E-03   -0.17754E-03  5170   0.222E-02    0.282E-01
RMM:   6    -0.232593009694E+04    0.93357E-03   -0.11258E-03  5407   0.190E-02    0.653E-02
RMM:   7    -0.232593008979E+04    0.71519E-05   -0.19005E-04  3125   0.924E-03    0.518E-02
RMM:   8    -0.232593005816E+04    0.31623E-04   -0.60065E-05  2946   0.512E-03    0.185E-02
RMM:   9    -0.232593005393E+04    0.42327E-05   -0.14882E-05  2949   0.293E-03
  48 F= -.23474228E+04 E0= -.23474228E+04  d E =-.147418E-01  mag=     3.0000
       N       E                     dE             d eps       ncg     rms          rms(c)
DAV:   1    -0.232593037732E+04   -0.31916E-03   -0.27888E+00  4512   0.130E+00    0.398E-01
RMM:   2    -0.232593938580E+04   -0.90085E-02   -0.98468E-02  5834   0.209E-01    0.223E-01
RMM:   3    -0.232593977141E+04   -0.38561E-03   -0.70247E-03  5128   0.818E-02    0.289E-01
RMM:   4    -0.232593917686E+04    0.59455E-03   -0.12916E-03  5528   0.222E-02    0.188E-01
RMM:   5    -0.232593931893E+04   -0.14207E-03   -0.10317E-03  4923   0.186E-02    0.208E-01
RMM:   6    -0.232593889678E+04    0.42215E-03   -0.55392E-04  5085   0.143E-02    0.516E-02
RMM:   7    -0.232593888747E+04    0.93078E-05   -0.11638E-04  3012   0.786E-03    0.450E-02
RMM:   8    -0.232593885819E+04    0.29281E-04   -0.33877E-05  2942   0.431E-03    0.107E-02
RMM:   9    -0.232593885685E+04    0.13426E-05   -0.95830E-06  2943   0.271E-03
  49 F= -.23474315E+04 E0= -.23474315E+04  d E =-.873287E-02  mag=     3.0000
       N       E                     dE             d eps       ncg     rms          rms(c)
DAV:   1    -0.232593607273E+04    0.27855E-02   -0.16627E+00  4544   0.100E+00    0.311E-01
RMM:   2    -0.232594163035E+04   -0.55576E-02   -0.60609E-02  5809   0.160E-01    0.172E-01
RMM:   3    -0.232594186347E+04   -0.23312E-03   -0.41560E-03  5072   0.631E-02    0.224E-01
RMM:   4    -0.232594149299E+04    0.37049E-03   -0.76780E-04  5066   0.171E-02    0.144E-01
RMM:   5    -0.232594157660E+04   -0.83611E-04   -0.61197E-04  4521   0.148E-02    0.160E-01
RMM:   6    -0.232594132317E+04    0.25342E-03   -0.34162E-04  4689   0.115E-02    0.398E-02
RMM:   7    -0.232594131740E+04    0.57694E-05   -0.71537E-05  2972   0.681E-03
  50 F= -.23474339E+04 E0= -.23474339E+04  d E =-.111422E-01  mag=     3.0000
       N       E                     dE             d eps       ncg     rms          rms(c)
DAV:   1    -0.232593923649E+04    0.20867E-02   -0.30591E+00  4512   0.137E+00    0.419E-01
RMM:   2    -0.232595086075E+04   -0.11624E-01   -0.12779E-01  5897   0.220E-01    0.237E-01
RMM:   3    -0.232595136003E+04   -0.49929E-03   -0.92010E-03  5235   0.879E-02    0.277E-01
RMM:   4    -0.232595066086E+04    0.69917E-03   -0.13823E-03  5642   0.227E-02    0.149E-01
RMM:   5    -0.232595069794E+04   -0.37080E-04   -0.98283E-04  4943   0.188E-02    0.134E-01
RMM:   6    -0.232595049521E+04    0.20273E-03   -0.41922E-04  3817   0.129E-02    0.438E-02
RMM:   7    -0.232595048843E+04    0.67864E-05   -0.55417E-05  2972   0.556E-03
  51 F= -.23474429E+04 E0= -.23474429E+04  d E =-.894087E-02  mag=     3.0000
       N       E                     dE             d eps       ncg     rms          rms(c)
DAV:   1    -0.232591925356E+04    0.31242E-01   -0.10274E+01  4512   0.251E+00    0.775E-01
RMM:   2    -0.232595877481E+04   -0.39521E-01   -0.43652E-01  5918   0.407E-01    0.435E-01
RMM:   3    -0.232596041543E+04   -0.16406E-02   -0.30663E-02  5312   0.159E-01    0.517E-01
RMM:   4    -0.232595817438E+04    0.22410E-02   -0.46402E-03  6245   0.409E-02    0.294E-01
RMM:   5    -0.232595953413E+04   -0.13597E-02   -0.36402E-03  5428   0.316E-02    0.444E-01
RMM:   6    -0.232595767068E+04    0.18634E-02   -0.20229E-03  5460   0.246E-02    0.139E-01
RMM:   7    -0.232595754494E+04    0.12574E-03   -0.51774E-04  3534   0.115E-02    0.857E-02
RMM:   8    -0.232595744103E+04    0.10391E-03   -0.11743E-04  3019   0.683E-03    0.209E-02
RMM:   9    -0.232595743525E+04    0.57753E-05   -0.44584E-05  3009   0.434E-03
  52 F= -.23474494E+04 E0= -.23474494E+04  d E =-.154786E-01  mag=     3.0000
       N       E                     dE             d eps       ncg     rms          rms(c)
DAV:   1    -0.232595715130E+04    0.28973E-03   -0.19189E+00  4528   0.107E+00    0.328E-01
RMM:   2    -0.232596505604E+04   -0.79047E-02   -0.85118E-02  5963   0.175E-01    0.194E-01
RMM:   3    -0.232596560098E+04   -0.54494E-03   -0.57070E-03  5243   0.648E-02    0.282E-01
RMM:   4    -0.232596487634E+04    0.72464E-03   -0.90301E-04  4853   0.176E-02    0.141E-01
RMM:   5    -0.232596513193E+04   -0.25559E-03   -0.70659E-04  4490   0.145E-02    0.196E-01
RMM:   6    -0.232596473810E+04    0.39383E-03   -0.44153E-04  4916   0.126E-02    0.340E-02
RMM:   7    -0.232596473955E+04   -0.14541E-05   -0.71705E-05  2962   0.658E-03
  53 F= -.23474564E+04 E0= -.23474564E+04  d E =-.696420E-02  mag=     3.0000
       N       E                     dE             d eps       ncg     rms          rms(c)
DAV:   1    -0.232590517368E+04    0.59564E-01   -0.17222E+01  4512   0.322E+00    0.995E-01
RMM:   2    -0.232597698883E+04   -0.71815E-01   -0.77959E-01  5884   0.529E-01    0.578E-01
RMM:   3    -0.232598141923E+04   -0.44304E-02   -0.53589E-02  5300   0.204E-01    0.802E-01
RMM:   4    -0.232597586583E+04    0.55534E-02   -0.82948E-03  6308   0.521E-02    0.430E-01
RMM:   5    -0.232597812683E+04   -0.22610E-02   -0.67030E-03  5641   0.407E-02    0.598E-01
RMM:   6    -0.232597446198E+04    0.36648E-02   -0.39368E-03  6070   0.345E-02    0.101E-01
RMM:   7    -0.232597441023E+04    0.51753E-04   -0.51935E-04  3761   0.131E-02    0.764E-02
RMM:   8    -0.232597434896E+04    0.61273E-04   -0.19866E-04  3071   0.732E-03    0.429E-02
RMM:   9    -0.232597432453E+04    0.24433E-04   -0.61820E-05  3073   0.536E-03    0.145E-02
RMM:  10    -0.232597432365E+04    0.87522E-06   -0.11831E-05  2923   0.398E-03
  54 F= -.23474649E+04 E0= -.23474649E+04  d E =-.155391E-01  mag=     3.0000
       N       E                     dE             d eps       ncg     rms          rms(c)
DAV:   1    -0.232596829110E+04    0.60334E-02   -0.35930E+00  4512   0.148E+00    0.459E-01
RMM:   2    -0.232598487884E+04   -0.16588E-01   -0.17270E-01  5882   0.243E-01    0.368E-01
RMM:   3    -0.232598750916E+04   -0.26303E-02   -0.15654E-02  5452   0.988E-02    0.589E-01
RMM:   4    -0.232598417557E+04    0.33336E-02   -0.21864E-03  5644   0.275E-02    0.148E-01
RMM:   5    -0.232598409159E+04    0.83974E-04   -0.12123E-03  4739   0.209E-02    0.762E-02
RMM:   6    -0.232598410922E+04   -0.17627E-04   -0.35520E-04  3615   0.137E-02    0.695E-02
RMM:   7    -0.232598404602E+04    0.63198E-04   -0.79694E-05  2998   0.588E-03    0.192E-02
RMM:   8    -0.232598404590E+04    0.12251E-06   -0.22143E-05  2966   0.373E-03
  55 F= -.23474739E+04 E0= -.23474739E+04  d E =-.900137E-02  mag=     3.0000
       N       E                     dE             d eps       ncg     rms          rms(c)
DAV:   1    -0.232594684925E+04    0.37197E-01   -0.10735E+01  4512   0.256E+00    0.787E-01
RMM:   2    -0.232599587603E+04   -0.49027E-01   -0.51196E-01  5859   0.423E-01    0.631E-01
RMM:   3    -0.232600362123E+04   -0.77452E-02   -0.46075E-02  5481   0.168E-01    0.101E+00
RMM:   4    -0.232599377848E+04    0.98428E-02   -0.64805E-03  5968   0.471E-02    0.256E-01
RMM:   5    -0.232599372802E+04    0.50461E-04   -0.38817E-03  4940   0.357E-02    0.181E-01
RMM:   6    -0.232599356472E+04    0.16330E-03   -0.13152E-03  4849   0.234E-02    0.118E-01
RMM:   7    -0.232599339918E+04    0.16554E-03   -0.23645E-04  3437   0.874E-03    0.400E-02
RMM:   8    -0.232599340322E+04   -0.40434E-05   -0.80136E-05  2985   0.617E-03
  56 F= -.23474821E+04 E0= -.23474821E+04  d E =-.171215E-01  mag=     3.0000
       N       E                     dE             d eps       ncg     rms          rms(c)
DAV:   1    -0.232598364860E+04    0.97506E-02   -0.52167E+00  4512   0.184E+00    0.588E-01
RMM:   2    -0.232601091875E+04   -0.27270E-01   -0.27313E-01  5854   0.311E-01    0.568E-01
RMM:   3    -0.232601411017E+04   -0.31914E-02   -0.28022E-02  5430   0.135E-01    0.717E-01
RMM:   4    -0.232600922557E+04    0.48846E-02   -0.34671E-03  5556   0.358E-02    0.197E-01
RMM:   5    -0.232600982106E+04   -0.59549E-03   -0.20092E-03  5350   0.250E-02    0.280E-01
RMM:   6    -0.232600899657E+04    0.82449E-03   -0.13037E-03  5396   0.203E-02    0.793E-02
RMM:   7    -0.232600900570E+04   -0.91372E-05   -0.30299E-04  3280   0.116E-02    0.746E-02
RMM:   8    -0.232600893216E+04    0.73542E-04   -0.84077E-05  2953   0.568E-03    0.198E-02
RMM:   9    -0.232600892787E+04    0.42918E-05   -0.18841E-05  2953   0.297E-03
  57 F= -.23474964E+04 E0= -.23474964E+04  d E =-.143934E-01  mag=     3.0000
       N       E                     dE             d eps       ncg     rms          rms(c)
DAV:   1    -0.232598400136E+04    0.24931E-01   -0.69317E+00  4512   0.212E+00    0.679E-01
RMM:   2    -0.232602040539E+04   -0.36404E-01   -0.36512E-01  5863   0.357E-01    0.653E-01
RMM:   3    -0.232602467853E+04   -0.42731E-02   -0.37285E-02  5486   0.153E-01    0.828E-01
RMM:   4    -0.232601811596E+04    0.65626E-02   -0.46268E-03  5646   0.412E-02    0.230E-01
RMM:   5    -0.232601887835E+04   -0.76239E-03   -0.26618E-03  5436   0.286E-02    0.324E-01
RMM:   6    -0.232601776516E+04    0.11132E-02   -0.17672E-03  5464   0.234E-02    0.946E-02
RMM:   7    -0.232601776186E+04    0.32975E-05   -0.40843E-04  3519   0.135E-02    0.842E-02
RMM:   8    -0.232601766698E+04    0.94882E-04   -0.10010E-04  2980   0.609E-03    0.229E-02
RMM:   9    -0.232601766064E+04    0.63412E-05   -0.25195E-05  2966   0.333E-03
  58 F= -.23475039E+04 E0= -.23475039E+04  d E =-.218308E-01  mag=     3.0000
       N       E                     dE             d eps       ncg     rms          rms(c)
DAV:   1    -0.232599525166E+04    0.22415E-01   -0.60116E+00  4512   0.197E+00    0.637E-01
RMM:   2    -0.232603224850E+04   -0.36997E-01   -0.38358E-01  5931   0.343E-01    0.545E-01
RMM:   3    -0.232603807001E+04   -0.58215E-02   -0.39320E-02  5631   0.145E-01    0.806E-01
RMM:   4    -0.232603190400E+04    0.61660E-02   -0.47005E-03  5838   0.386E-02    0.214E-01
RMM:   5    -0.232603256857E+04   -0.66456E-03   -0.25653E-03  5400   0.264E-02    0.298E-01
RMM:   6    -0.232603164289E+04    0.92568E-03   -0.16306E-03  5501   0.212E-02    0.903E-02
RMM:   7    -0.232603164133E+04    0.15656E-05   -0.33872E-04  3339   0.110E-02    0.791E-02
RMM:   8    -0.232603155845E+04    0.82874E-04   -0.10335E-04  2966   0.624E-03    0.242E-02
RMM:   9    -0.232603155117E+04    0.72812E-05   -0.23351E-05  2965   0.327E-03
  59 F= -.23475166E+04 E0= -.23475166E+04  d E =-.127356E-01  mag=     3.0000
       N       E                     dE             d eps       ncg     rms          rms(c)
DAV:   1    -0.232600903065E+04    0.22528E-01   -0.46475E+00  4512   0.173E+00    0.561E-01
RMM:   2    -0.232603758794E+04   -0.28557E-01   -0.29512E-01  5944   0.302E-01    0.490E-01
RMM:   3    -0.232604199620E+04   -0.44083E-02   -0.31421E-02  5627   0.127E-01    0.704E-01
RMM:   4    -0.232603729391E+04    0.47023E-02   -0.36223E-03  5718   0.340E-02    0.189E-01
RMM:   5    -0.232603778948E+04   -0.49557E-03   -0.19968E-03  5249   0.235E-02    0.260E-01
RMM:   6    -0.232603708807E+04    0.70141E-03   -0.12692E-03  5377   0.188E-02    0.807E-02
RMM:   7    -0.232603708479E+04    0.32803E-05   -0.27080E-04  3217   0.102E-02    0.715E-02
RMM:   8    -0.232603701617E+04    0.68622E-04   -0.83917E-05  2961   0.577E-03    0.208E-02
RMM:   9    -0.232603701028E+04    0.58954E-05   -0.19259E-05  2955   0.303E-03
  60 F= -.23475211E+04 E0= -.23475211E+04  d E =-.171889E-01  mag=     3.0000
       N       E                     dE             d eps       ncg     rms          rms(c)
DAV:   1    -0.232600099673E+04    0.36019E-01   -0.76592E+00  4512   0.213E+00    0.703E-01
RMM:   2    -0.232604911815E+04   -0.48121E-01   -0.51848E-01  6052   0.378E-01    0.436E-01
RMM:   3    -0.232605601655E+04   -0.68984E-02   -0.52452E-02  5721   0.160E-01    0.740E-01
RMM:   4    -0.232605127041E+04    0.47461E-02   -0.60641E-03  6053   0.387E-02    0.262E-01
RMM:   5    -0.232605082607E+04    0.44434E-03   -0.27991E-03  4886   0.294E-02    0.103E-01
RMM:   6    -0.232605097038E+04   -0.14431E-03   -0.72299E-04  4377   0.188E-02    0.123E-01
RMM:   7    -0.232605079497E+04    0.17542E-03   -0.23665E-04  3274   0.805E-03    0.411E-02
RMM:   8    -0.232605078489E+04    0.10077E-04   -0.71254E-05  2993   0.557E-03    0.331E-02
RMM:   9    -0.232605077243E+04    0.12461E-04   -0.30969E-05  2944   0.353E-03    0.139E-02
RMM:  10    -0.232605077116E+04    0.12652E-05   -0.77385E-06  2925   0.256E-03
  61 F= -.23475334E+04 E0= -.23475334E+04  d E =-.123285E-01  mag=     3.0000
       N       E                     dE             d eps       ncg     rms          rms(c)
DAV:   1    -0.232601730114E+04    0.33471E-01   -0.62608E+00  4512   0.194E+00    0.624E-01
RMM:   2    -0.232605559048E+04   -0.38289E-01   -0.41228E-01  6043   0.345E-01    0.395E-01
RMM:   3    -0.232606125790E+04   -0.56674E-02   -0.42843E-02  5714   0.146E-01    0.674E-01
RMM:   4    -0.232605729990E+04    0.39580E-02   -0.49672E-03  5949   0.354E-02    0.234E-01
RMM:   5    -0.232605697509E+04    0.32480E-03   -0.22468E-03  4838   0.266E-02    0.980E-02
RMM:   6    -0.232605712020E+04   -0.14510E-03   -0.64556E-04  4152   0.173E-02    0.125E-01
RMM:   7    -0.232605693081E+04    0.18939E-03   -0.20420E-04  3186   0.762E-03    0.347E-02
RMM:   8    -0.232605692546E+04    0.53510E-05   -0.59903E-05  2989   0.521E-03
  62 F= -.23475383E+04 E0= -.23475383E+04  d E =-.172051E-01  mag=     3.0000
       N       E                     dE             d eps       ncg     rms          rms(c)
DAV:   1    -0.232601259798E+04    0.44333E-01   -0.94013E+00  4512   0.239E+00    0.793E-01
RMM:   2    -0.232607006069E+04   -0.57463E-01   -0.62639E-01  6069   0.429E-01    0.435E-01
RMM:   3    -0.232607360584E+04   -0.35451E-02   -0.58898E-02  5658   0.178E-01    0.446E-01
RMM:   4    -0.232607365630E+04   -0.50464E-04   -0.70709E-03  6121   0.412E-02    0.453E-01
RMM:   5    -0.232607275767E+04    0.89863E-03   -0.38429E-03  5551   0.321E-02    0.307E-01
RMM:   6    -0.232607206861E+04    0.68906E-03   -0.21099E-03  5537   0.237E-02    0.138E-01
RMM:   7    -0.232607192461E+04    0.14400E-03   -0.39216E-04  3672   0.114E-02    0.813E-02
RMM:   8    -0.232607184316E+04    0.81446E-04   -0.12889E-04  2968   0.724E-03    0.354E-02
RMM:   9    -0.232607182565E+04    0.17511E-04   -0.54046E-05  3020   0.455E-03    0.114E-02
RMM:  10    -0.232607182584E+04   -0.19101E-06   -0.90756E-06  2932   0.364E-03
  63 F= -.23475515E+04 E0= -.23475515E+04  d E =-.132075E-01  mag=     3.0000
       N       E                     dE             d eps       ncg     rms          rms(c)
DAV:   1    -0.232606082752E+04    0.10998E-01   -0.22435E+00  4512   0.117E+00    0.381E-01
RMM:   2    -0.232607423186E+04   -0.13404E-01   -0.14603E-01  6085   0.210E-01    0.215E-01
RMM:   3    -0.232607525695E+04   -0.10251E-02   -0.14082E-02  5542   0.882E-02    0.260E-01
RMM:   4    -0.232607495646E+04    0.30049E-03   -0.16770E-03  5053   0.206E-02    0.199E-01
RMM:   5    -0.232607486318E+04    0.93276E-04   -0.93298E-04  4834   0.169E-02    0.148E-01
RMM:   6    -0.232607466453E+04    0.19865E-03   -0.50374E-04  4192   0.127E-02    0.520E-02
RMM:   7    -0.232607464544E+04    0.19091E-04   -0.71042E-05  2997   0.656E-03    0.333E-02
RMM:   8    -0.232607463441E+04    0.11037E-04   -0.27069E-05  2935   0.409E-03    0.187E-02
RMM:   9    -0.232607462982E+04    0.45820E-05   -0.10642E-05  2953   0.262E-03
  64 F= -.23475535E+04 E0= -.23475535E+04  d E =-.151966E-01  mag=     3.0000
       N       E                     dE             d eps       ncg     rms          rms(c)
DAV:   1    -0.232603227573E+04    0.42359E-01   -0.80738E+00  4512   0.217E+00    0.713E-01
RMM:   2    -0.232608639395E+04   -0.54118E-01   -0.58494E-01  6236   0.397E-01    0.430E-01
RMM:   3    -0.232609122531E+04   -0.48314E-02   -0.57823E-02  5856   0.158E-01    0.570E-01
RMM:   4    -0.232608912429E+04    0.21010E-02   -0.64577E-03  6022   0.378E-02    0.357E-01
RMM:   5    -0.232608899330E+04    0.13099E-03   -0.31667E-03  5411   0.262E-02    0.300E-01
RMM:   6    -0.232608826669E+04    0.72661E-03   -0.23303E-03  5571   0.236E-02    0.108E-01
RMM:   7    -0.232608818985E+04    0.76846E-04   -0.32356E-04  3449   0.113E-02    0.721E-02
RMM:   8    -0.232608813627E+04    0.53581E-04   -0.12072E-04  2969   0.670E-03    0.400E-02
RMM:   9    -0.232608811360E+04    0.22664E-04   -0.45972E-05  3016   0.430E-03    0.106E-02
RMM:  10    -0.232608811350E+04    0.99404E-07   -0.82416E-06  2945   0.293E-03
  65 F= -.23475656E+04 E0= -.23475656E+04  d E =-.121288E-01  mag=     3.0000
       N       E                     dE             d eps       ncg     rms          rms(c)
DAV:   1    -0.232602948333E+04    0.58630E-01   -0.95147E+00  4512   0.236E+00    0.781E-01
RMM:   2    -0.232609382002E+04   -0.64337E-01   -0.69602E-01  6236   0.431E-01    0.467E-01
RMM:   3    -0.232609937400E+04   -0.55540E-02   -0.68413E-02  5874   0.171E-01    0.605E-01
RMM:   4    -0.232609713486E+04    0.22391E-02   -0.76348E-03  6074   0.409E-02    0.396E-01
RMM:   5    -0.232609687884E+04    0.25602E-03   -0.37009E-03  5508   0.283E-02    0.325E-01
RMM:   6    -0.232609605990E+04    0.81895E-03   -0.27782E-03  5641   0.255E-02    0.124E-01
RMM:   7    -0.232609595400E+04    0.10590E-03   -0.40728E-04  3662   0.123E-02    0.797E-02
RMM:   8    -0.232609588828E+04    0.65715E-04   -0.14584E-04  2979   0.712E-03    0.449E-02
RMM:   9    -0.232609585983E+04    0.28451E-04   -0.56743E-05  3032   0.466E-03    0.117E-02
RMM:  10    -0.232609585974E+04    0.91008E-07   -0.10218E-05  2954   0.315E-03
  66 F= -.23475719E+04 E0= -.23475719E+04  d E =-.184305E-01  mag=     3.0000
       N       E                     dE             d eps       ncg     rms          rms(c)
DAV:   1    -0.232604444204E+04    0.51418E-01   -0.77801E+00  4512   0.214E+00    0.747E-01
RMM:   2    -0.232610872512E+04   -0.64283E-01   -0.68486E-01  6217   0.423E-01    0.533E-01
RMM:   3    -0.232611881841E+04   -0.10093E-01   -0.73452E-02  6032   0.173E-01    0.919E-01
RMM:   4    -0.232611120421E+04    0.76142E-02   -0.78651E-03  6075   0.441E-02    0.270E-01
RMM:   5    -0.232611155116E+04   -0.34695E-03   -0.34919E-03  5605   0.293E-02    0.285E-01
RMM:   6    -0.232611084661E+04    0.70455E-03   -0.21754E-03  5471   0.231E-02    0.138E-01
RMM:   7    -0.232611069908E+04    0.14753E-03   -0.46295E-04  4095   0.119E-02    0.917E-02
RMM:   8    -0.232611060906E+04    0.90020E-04   -0.15915E-04  2981   0.765E-03    0.387E-02
RMM:   9    -0.232611058870E+04    0.20360E-04   -0.45366E-05  3001   0.443E-03    0.117E-02
RMM:  10    -0.232611058750E+04    0.11975E-05   -0.10347E-05  2946   0.329E-03
  67 F= -.23475852E+04 E0= -.23475852E+04  d E =-.133370E-01  mag=     3.0000
       N       E                     dE             d eps       ncg     rms          rms(c)
DAV:   1    -0.232609328669E+04    0.17302E-01   -0.24363E+00  4512   0.120E+00    0.418E-01
RMM:   2    -0.232611332410E+04   -0.20037E-01   -0.21331E-01  6262   0.236E-01    0.301E-01
RMM:   3    -0.232611648075E+04   -0.31566E-02   -0.22961E-02  5938   0.968E-02    0.516E-01
RMM:   4    -0.232611409033E+04    0.23904E-02   -0.24826E-03  5232   0.250E-02    0.151E-01
RMM:   5    -0.232611422649E+04   -0.13615E-03   -0.11051E-03  4831   0.172E-02    0.162E-01
RMM:   6    -0.232611397669E+04    0.24980E-03   -0.67377E-04  4447   0.138E-02    0.698E-02
RMM:   7    -0.232611394854E+04    0.28152E-04   -0.14019E-04  3083   0.774E-03    0.533E-02
RMM:   8    -0.232611391697E+04    0.31564E-04   -0.49440E-05  2934   0.538E-03    0.193E-02
RMM:   9    -0.232611391171E+04    0.52614E-05   -0.12673E-05  2948   0.275E-03
  68 F= -.23475878E+04 E0= -.23475878E+04  d E =-.158925E-01  mag=     3.0000
       N       E                     dE             d eps       ncg     rms          rms(c)
DAV:   1    -0.232603575602E+04    0.78161E-01   -0.91151E+00  4512   0.238E+00    0.842E-01
RMM:   2    -0.232612503296E+04   -0.89277E-01   -0.94253E-01  6307   0.485E-01    0.658E-01
RMM:   3    -0.232613861734E+04   -0.13584E-01   -0.10531E-01  6103   0.197E-01    0.105E+00
RMM:   4    -0.232612870456E+04    0.99128E-02   -0.10542E-02  6160   0.502E-02    0.304E-01
RMM:   5    -0.232612947140E+04   -0.76683E-03   -0.40241E-03  5563   0.290E-02    0.375E-01
RMM:   6    -0.232612802753E+04    0.14439E-02   -0.27240E-03  5689   0.256E-02    0.124E-01
RMM:   7    -0.232612790569E+04    0.12184E-03   -0.46188E-04  4452   0.135E-02    0.569E-02
RMM:   8    -0.232612791057E+04   -0.48788E-05   -0.18121E-04  3037   0.808E-03    0.578E-02
RMM:   9    -0.232612786588E+04    0.44692E-04   -0.55017E-05  2945   0.488E-03    0.134E-02
RMM:  10    -0.232612786389E+04    0.19860E-05   -0.15403E-05  2949   0.294E-03
  69 F= -.23475998E+04 E0= -.23475998E+04  d E =-.120386E-01  mag=     3.0000
       N       E                     dE             d eps       ncg     rms          rms(c)
DAV:   1    -0.232610227238E+04    0.25594E-01   -0.28744E+00  4512   0.133E+00    0.475E-01
RMM:   2    -0.232613040469E+04   -0.28132E-01   -0.29682E-01  6309   0.272E-01    0.370E-01
RMM:   3    -0.232613472985E+04   -0.43252E-02   -0.33394E-02  6052   0.112E-01    0.591E-01
RMM:   4    -0.232613160625E+04    0.31236E-02   -0.33533E-03  5438   0.284E-02    0.169E-01
RMM:   5    -0.232613189194E+04   -0.28568E-03   -0.13059E-03  4769   0.174E-02    0.214E-01
RMM:   6    -0.232613139587E+04    0.49606E-03   -0.84843E-04  5036   0.150E-02    0.638E-02
RMM:   7    -0.232613136268E+04    0.33190E-04   -0.13132E-04  3160   0.828E-03    0.255E-02
RMM:   8    -0.232613136529E+04   -0.26075E-05   -0.43218E-05  2957   0.520E-03
  70 F= -.23476023E+04 E0= -.23476023E+04  d E =-.144792E-01  mag=     3.0000
       N       E                     dE             d eps       ncg     rms          rms(c)
DAV:   1    -0.232607703477E+04    0.54328E-01   -0.67043E+00  4512   0.198E+00    0.701E-01
RMM:   2    -0.232614231188E+04   -0.65277E-01   -0.68972E-01  6420   0.405E-01    0.506E-01
RMM:   3    -0.232615042151E+04   -0.81096E-02   -0.77400E-02  6139   0.163E-01    0.733E-01
RMM:   4    -0.232614605828E+04    0.43632E-02   -0.74773E-03  5992   0.401E-02    0.303E-01
RMM:   5    -0.232614629508E+04   -0.23681E-03   -0.26561E-03  5163   0.228E-02    0.319E-01
RMM:   6    -0.232614538000E+04    0.91509E-03   -0.21308E-03  5413   0.228E-02    0.121E-01
RMM:   7    -0.232614534142E+04    0.38580E-04   -0.56061E-04  4111   0.135E-02    0.958E-02
RMM:   8    -0.232614522779E+04    0.11363E-03   -0.18949E-04  3057   0.777E-03    0.355E-02
RMM:   9    -0.232614520897E+04    0.18818E-04   -0.39150E-05  2986   0.440E-03    0.116E-02
RMM:  10    -0.232614520753E+04    0.14437E-05   -0.10870E-05  2940   0.284E-03
  71 F= -.23476145E+04 E0= -.23476145E+04  d E =-.122223E-01  mag=     3.0000
       N       E                     dE             d eps       ncg     rms          rms(c)
DAV:   1    -0.232600848502E+04    0.13672E+00   -0.14498E+01  4512   0.293E+00    0.103E+00
RMM:   2    -0.232615011730E+04   -0.14163E+00   -0.14970E+00  6406   0.599E-01    0.743E-01
RMM:   3    -0.232616759240E+04   -0.17475E-01   -0.17172E-01  6151   0.244E-01    0.106E+00
RMM:   4    -0.232615842820E+04    0.91642E-02   -0.16269E-02  6339   0.591E-02    0.452E-01
RMM:   5    -0.232615871177E+04   -0.28357E-03   -0.56721E-03  5570   0.323E-02    0.461E-01
RMM:   6    -0.232615689966E+04    0.18121E-02   -0.46941E-03  5788   0.331E-02    0.194E-01
RMM:   7    -0.232615674128E+04    0.15837E-03   -0.13011E-03  5103   0.194E-02    0.142E-01
RMM:   8    -0.232615649852E+04    0.24277E-03   -0.43996E-04  3382   0.107E-02    0.593E-02
RMM:   9    -0.232615644579E+04    0.52728E-04   -0.96850E-05  3016   0.608E-03    0.182E-02
RMM:  10    -0.232615644173E+04    0.40599E-05   -0.26833E-05  2977   0.411E-03
  72 F= -.23476234E+04 E0= -.23476234E+04  d E =-.211314E-01  mag=     3.0000
       N       E                     dE             d eps       ncg     rms          rms(c)
DAV:   1    -0.232608156925E+04    0.74877E-01   -0.10151E+01  4512   0.248E+00    0.847E-01
RMM:   2    -0.232616892635E+04   -0.87357E-01   -0.92913E-01  6156   0.486E-01    0.520E-01
RMM:   3    -0.232617639778E+04   -0.74714E-02   -0.10566E-01  5988   0.207E-01    0.560E-01
RMM:   4    -0.232617389326E+04    0.25045E-02   -0.96467E-03  6201   0.461E-02    0.371E-01
RMM:   5    -0.232617437938E+04   -0.48612E-03   -0.38636E-03  5228   0.267E-02    0.454E-01
RMM:   6    -0.232617298107E+04    0.13983E-02   -0.30626E-03  5735   0.269E-02    0.180E-01
RMM:   7    -0.232617283784E+04    0.14323E-03   -0.84398E-04  4884   0.154E-02    0.125E-01
RMM:   8    -0.232617262893E+04    0.20891E-03   -0.28693E-04  3106   0.890E-03    0.391E-02
RMM:   9    -0.232617260213E+04    0.26800E-04   -0.64399E-05  2994   0.516E-03    0.153E-02
RMM:  10    -0.232617259962E+04    0.25121E-05   -0.17316E-05  2960   0.351E-03
  73 F= -.23476379E+04 E0= -.23476379E+04  d E =-.145262E-01  mag=     3.0000
       N       E                     dE             d eps       ncg     rms          rms(c)
DAV:   1    -0.232613073169E+04    0.41870E-01   -0.52401E+00  4512   0.178E+00    0.614E-01
RMM:   2    -0.232617628518E+04   -0.45553E-01   -0.48463E-01  6146   0.349E-01    0.373E-01
RMM:   3    -0.232617999662E+04   -0.37114E-02   -0.53734E-02  5969   0.149E-01    0.393E-01
RMM:   4    -0.232617878712E+04    0.12095E-02   -0.49553E-03  5829   0.331E-02    0.260E-01
RMM:   5    -0.232617913749E+04   -0.35037E-03   -0.20356E-03  4818   0.203E-02    0.338E-01
RMM:   6    -0.232617834889E+04    0.78860E-03   -0.15687E-03  5281   0.196E-02    0.131E-01
RMM:   7    -0.232617827385E+04    0.75037E-04   -0.43467E-04  3959   0.116E-02    0.917E-02
RMM:   8    -0.232617816074E+04    0.11311E-03   -0.14107E-04  2995   0.714E-03    0.259E-02
RMM:   9    -0.232617814893E+04    0.11812E-04   -0.31453E-05  2979   0.392E-03    0.107E-02
RMM:  10    -0.232617814769E+04    0.12415E-05   -0.87527E-06  2943   0.276E-03
  74 F= -.23476423E+04 E0= -.23476423E+04  d E =-.189367E-01  mag=     3.0000
       N       E                     dE             d eps       ncg     rms          rms(c)
DAV:   1    -0.232610375585E+04    0.74393E-01   -0.99009E+00  4512   0.238E+00    0.817E-01
RMM:   2    -0.232618891018E+04   -0.85154E-01   -0.90026E-01  6144   0.463E-01    0.560E-01
[...]
 274 F= -.23478875E+04 E0= -.23478875E+04  d E =-.506290E-03  mag=     3.0000
       N       E                     dE             d eps       ncg     rms          rms(c)
DAV:   1    -0.232646630463E+04    0.14296E-02   -0.15713E-01  4528   0.308E-01    0.120E-01
RMM:   2    -0.232646782921E+04   -0.15246E-02   -0.16399E-02  6369   0.673E-02    0.788E-02
RMM:   3    -0.232646805321E+04   -0.22399E-03   -0.17899E-03  3716   0.249E-02    0.124E-01
RMM:   4    -0.232646789732E+04    0.15589E-03   -0.18564E-04  2967   0.789E-03    0.430E-02
RMM:   5    -0.232646791581E+04   -0.18488E-04   -0.87677E-05  3012   0.519E-03    0.588E-02
RMM:   6    -0.232646788475E+04    0.31055E-04   -0.49133E-05  2965   0.485E-03    0.200E-02
RMM:   7    -0.232646788375E+04    0.99782E-06   -0.16218E-05  2906   0.352E-03
 275 F= -.23478876E+04 E0= -.23478876E+04  d E =-.607505E-03  mag=     3.0000
       N       E                     dE             d eps       ncg     rms          rms(c)
DAV:   1    -0.232646529835E+04    0.25864E-02   -0.35372E-01  4528   0.477E-01    0.183E-01
RMM:   2    -0.232646852625E+04   -0.32279E-02   -0.34660E-02  6192   0.101E-01    0.123E-01
RMM:   3    -0.232646904222E+04   -0.51597E-03   -0.37840E-03  4944   0.384E-02    0.203E-01
RMM:   4    -0.232646862814E+04    0.41408E-03   -0.41504E-04  3099   0.109E-02    0.635E-02
RMM:   5    -0.232646864079E+04   -0.12652E-04   -0.17527E-04  3136   0.778E-03    0.670E-02
RMM:   6    -0.232646859015E+04    0.50638E-04   -0.12158E-04  3215   0.767E-03    0.220E-02
RMM:   7    -0.232646858993E+04    0.22522E-06   -0.24906E-05  2940   0.504E-03
 276 F= -.23478882E+04 E0= -.23478882E+04  d E =-.605809E-03  mag=     3.0000
       N       E                     dE             d eps       ncg     rms          rms(c)
DAV:   1    -0.232646800425E+04    0.58590E-03   -0.71486E-02  4544   0.215E-01    0.839E-02
RMM:   2    -0.232646866244E+04   -0.65818E-03   -0.70947E-03  6294   0.457E-02    0.561E-02
RMM:   3    -0.232646876413E+04   -0.10169E-03   -0.80120E-04  3238   0.182E-02    0.902E-02
RMM:   4    -0.232646868381E+04    0.80310E-04   -0.86089E-05  2957   0.604E-03    0.289E-02
RMM:   5    -0.232646869146E+04   -0.76433E-05   -0.39729E-05  2933   0.375E-03
 277 F= -.23478883E+04 E0= -.23478883E+04  d E =-.662947E-03  mag=     3.0000
       N       E                     dE             d eps       ncg     rms          rms(c)
DAV:   1    -0.232646621925E+04    0.24646E-02   -0.34359E-01  4528   0.481E-01    0.184E-01
RMM:   2    -0.232646939968E+04   -0.31804E-02   -0.34029E-02  6124   0.101E-01    0.128E-01
RMM:   3    -0.232646980257E+04   -0.40289E-03   -0.37731E-03  5171   0.397E-02    0.177E-01
RMM:   4    -0.232646946499E+04    0.33758E-03   -0.40125E-04  3340   0.109E-02    0.592E-02
RMM:   5    -0.232646952087E+04   -0.55881E-04   -0.19467E-04  3131   0.814E-03    0.909E-02
RMM:   6    -0.232646944689E+04    0.73981E-04   -0.10680E-04  3075   0.719E-03    0.383E-02
RMM:   7    -0.232646943797E+04    0.89215E-05   -0.41875E-05  2934   0.531E-03
 278 F= -.23478889E+04 E0= -.23478889E+04  d E =-.624249E-03  mag=     3.0000
       N       E                     dE             d eps       ncg     rms          rms(c)
DAV:   1    -0.232646866571E+04    0.78118E-03   -0.90537E-02  4528   0.247E-01    0.951E-02
RMM:   2    -0.232646950850E+04   -0.84279E-03   -0.91348E-03  6240   0.529E-02    0.592E-02
RMM:   3    -0.232646962025E+04   -0.11175E-03   -0.97203E-04  3477   0.206E-02    0.889E-02
RMM:   4    -0.232646954256E+04    0.77690E-04   -0.10904E-04  2964   0.661E-03    0.363E-02
RMM:   5    -0.232646954684E+04   -0.42726E-05   -0.45885E-05  2945   0.409E-03
 279 F= -.23478890E+04 E0= -.23478890E+04  d E =-.671212E-03  mag=     3.0000
       N       E                     dE             d eps       ncg     rms          rms(c)
DAV:   1    -0.232646756770E+04    0.19749E-02   -0.26172E-01  4528   0.396E-01    0.156E-01
RMM:   2    -0.232647017608E+04   -0.26084E-02   -0.27420E-02  6225   0.851E-02    0.128E-01
RMM:   3    -0.232647042092E+04   -0.24484E-03   -0.29268E-03  4502   0.330E-02    0.150E-01
RMM:   4    -0.232647017477E+04    0.24614E-03   -0.29685E-04  3171   0.972E-03    0.507E-02
RMM:   5    -0.232647024632E+04   -0.71549E-04   -0.15161E-04  3060   0.681E-03    0.944E-02
RMM:   6    -0.232647015963E+04    0.86687E-04   -0.10097E-04  3054   0.653E-03    0.316E-02
RMM:   7    -0.232647015358E+04    0.60554E-05   -0.31264E-05  2921   0.440E-03
 280 F= -.23478895E+04 E0= -.23478895E+04  d E =-.517463E-03  mag=     3.0000
       N       E                     dE             d eps       ncg     rms          rms(c)
DAV:   1    -0.232646737589E+04    0.27837E-02   -0.30231E-01  4528   0.425E-01    0.164E-01
RMM:   2    -0.232647029800E+04   -0.29221E-02   -0.31473E-02  6267   0.920E-02    0.107E-01
RMM:   3    -0.232647063624E+04   -0.33824E-03   -0.33975E-03  4553   0.350E-02    0.145E-01
RMM:   4    -0.232647042884E+04    0.20741E-03   -0.34512E-04  3120   0.977E-03    0.632E-02
RMM:   5    -0.232647045320E+04   -0.24364E-04   -0.14828E-04  3049   0.672E-03    0.759E-02
RMM:   6    -0.232647040798E+04    0.45223E-04   -0.10485E-04  3088   0.636E-03    0.407E-02
RMM:   7    -0.232647039758E+04    0.10394E-04   -0.42095E-05  2929   0.483E-03    0.256E-02
RMM:   8    -0.232647038854E+04    0.90460E-05   -0.98427E-06  2831   0.294E-03
 281 F= -.23478896E+04 E0= -.23478896E+04  d E =-.658802E-03  mag=     3.0000
       N       E                     dE             d eps       ncg     rms          rms(c)
DAV:   1    -0.232646808586E+04    0.23117E-02   -0.29907E-01  4528   0.427E-01    0.166E-01
RMM:   2    -0.232647103595E+04   -0.29501E-02   -0.31969E-02  6132   0.922E-02    0.983E-02
RMM:   3    -0.232647133763E+04   -0.30168E-03   -0.34133E-03  4573   0.348E-02    0.124E-01
RMM:   4    -0.232647118945E+04    0.14819E-03   -0.34430E-04  3154   0.946E-03    0.604E-02
RMM:   5    -0.232647119742E+04   -0.79742E-05   -0.14686E-04  3082   0.705E-03    0.653E-02
RMM:   6    -0.232647116595E+04    0.31468E-04   -0.88277E-05  3005   0.638E-03    0.370E-02
RMM:   7    -0.232647116056E+04    0.53922E-05   -0.31263E-05  2922   0.439E-03
 282 F= -.23478903E+04 E0= -.23478903E+04  d E =-.679593E-03  mag=     3.0000
       N       E                     dE             d eps       ncg     rms          rms(c)
DAV:   1    -0.232646822241E+04    0.29435E-02   -0.30905E-01  4528   0.434E-01    0.170E-01
RMM:   2    -0.232647127761E+04   -0.30552E-02   -0.33306E-02  6276   0.952E-02    0.968E-02
RMM:   3    -0.232647157372E+04   -0.29611E-03   -0.35386E-03  4571   0.361E-02    0.116E-01
RMM:   4    -0.232647145302E+04    0.12070E-03   -0.35885E-04  3143   0.963E-03    0.620E-02
RMM:   5    -0.232647144373E+04    0.92949E-05   -0.13860E-04  3101   0.711E-03    0.539E-02
RMM:   6    -0.232647142126E+04    0.22464E-04   -0.91949E-05  2996   0.680E-03    0.321E-02
RMM:   7    -0.232647141862E+04    0.26456E-05   -0.26386E-05  2920   0.428E-03
 283 F= -.23478905E+04 E0= -.23478905E+04  d E =-.845773E-03  mag=     3.0000
       N       E                     dE             d eps       ncg     rms          rms(c)
DAV:   1    -0.232646845752E+04    0.29637E-02   -0.33201E-01  4528   0.443E-01    0.175E-01
RMM:   2    -0.232647199841E+04   -0.35409E-02   -0.38716E-02  6307   0.995E-02    0.941E-02
RMM:   3    -0.232647229084E+04   -0.29243E-03   -0.41767E-03  4613   0.383E-02    0.939E-02
RMM:   4    -0.232647228759E+04    0.32577E-05   -0.39353E-04  3043   0.940E-03    0.916E-02
RMM:   5    -0.232647224083E+04    0.46753E-04   -0.16097E-04  3076   0.717E-03    0.566E-02
RMM:   6    -0.232647221742E+04    0.23409E-04   -0.96580E-05  3067   0.654E-03    0.304E-02
RMM:   7    -0.232647220752E+04    0.99085E-05   -0.21352E-05  2922   0.422E-03
 284 F= -.23478911E+04 E0= -.23478911E+04  d E =-.647390E-03  mag=     3.0000
       N       E                     dE             d eps       ncg     rms          rms(c)
DAV:   1    -0.232647027100E+04    0.19464E-02   -0.19139E-01  4528   0.337E-01    0.134E-01
RMM:   2    -0.232647232728E+04   -0.20563E-02   -0.22407E-02  6340   0.759E-02    0.772E-02
RMM:   3    -0.232647254400E+04   -0.21672E-03   -0.24762E-03  3931   0.297E-02    0.983E-02
RMM:   4    -0.232647246011E+04    0.83898E-04   -0.24140E-04  3069   0.824E-03    0.468E-02
RMM:   5    -0.232647245348E+04    0.66292E-05   -0.85246E-05  3084   0.575E-03
 285 F= -.23478913E+04 E0= -.23478913E+04  d E =-.787620E-03  mag=     3.0000
       N       E                     dE             d eps       ncg     rms          rms(c)
DAV:   1    -0.232646935023E+04    0.31099E-02   -0.36386E-01  4528   0.480E-01    0.194E-01
RMM:   2    -0.232647349981E+04   -0.41496E-02   -0.42097E-02  6287   0.107E-01    0.204E-01
RMM:   3    -0.232647385401E+04   -0.35421E-03   -0.50037E-03  5172   0.422E-02    0.219E-01
RMM:   4    -0.232647335992E+04    0.49409E-03   -0.47159E-04  3294   0.117E-02    0.634E-02
RMM:   5    -0.232647338601E+04   -0.26086E-04   -0.21593E-04  3158   0.850E-03    0.769E-02
RMM:   6    -0.232647331792E+04    0.68091E-04   -0.14252E-04  3434   0.819E-03    0.213E-02
RMM:   7    -0.232647332037E+04   -0.24583E-05   -0.27336E-05  2949   0.537E-03
 286 F= -.23478919E+04 E0= -.23478919E+04  d E =-.686342E-03  mag=     3.0000
       N       E                     dE             d eps       ncg     rms          rms(c)
DAV:   1    -0.232647282608E+04    0.49184E-03   -0.53577E-02  4592   0.183E-01    0.733E-02
RMM:   2    -0.232647339957E+04   -0.57349E-03   -0.62817E-03  6229   0.418E-02    0.442E-02
RMM:   3    -0.232647347124E+04   -0.71669E-04   -0.69550E-04  3184   0.165E-02    0.649E-02
RMM:   4    -0.232647342957E+04    0.41671E-04   -0.67689E-05  2941   0.502E-03    0.266E-02
RMM:   5    -0.232647343391E+04   -0.43397E-05   -0.31531E-05  2928   0.322E-03
 287 F= -.23478920E+04 E0= -.23478920E+04  d E =-.731307E-03  mag=     3.0000
       N       E                     dE             d eps       ncg     rms          rms(c)
DAV:   1    -0.232647075849E+04    0.26711E-02   -0.32625E-01  4528   0.464E-01    0.181E-01
RMM:   2    -0.232647417573E+04   -0.34172E-02   -0.36063E-02  6153   0.102E-01    0.144E-01
RMM:   3    -0.232647467726E+04   -0.50153E-03   -0.40374E-03  4961   0.392E-02    0.209E-01
RMM:   4    -0.232647421489E+04    0.46237E-03   -0.42013E-04  3189   0.112E-02    0.585E-02
RMM:   5    -0.232647424305E+04   -0.28158E-04   -0.19662E-04  3209   0.830E-03    0.764E-02
RMM:   6    -0.232647418581E+04    0.57239E-04   -0.10524E-04  3032   0.737E-03    0.285E-02
RMM:   7    -0.232647418626E+04   -0.44546E-06   -0.33071E-05  2931   0.521E-03
 288 F= -.23478926E+04 E0= -.23478926E+04  d E =-.593113E-03  mag=     3.0000
       N       E                     dE             d eps       ncg     rms          rms(c)
DAV:   1    -0.232647389016E+04    0.29565E-03   -0.33434E-02  4640   0.149E-01    0.591E-02
RMM:   2    -0.232647424547E+04   -0.35531E-03   -0.38140E-03  6138   0.341E-02    0.422E-02
RMM:   3    -0.232647430186E+04   -0.56386E-04   -0.41182E-04  3065   0.129E-02    0.675E-02
RMM:   4    -0.232647425504E+04    0.46814E-04   -0.45171E-05  2929   0.441E-03    0.195E-02
RMM:   5    -0.232647425672E+04   -0.16773E-05   -0.18383E-05  2915   0.265E-03
 289 F= -.23478926E+04 E0= -.23478926E+04  d E =-.612926E-03  mag=     3.0000
       N       E                     dE             d eps       ncg     rms          rms(c)
DAV:   1    -0.232647228918E+04    0.19659E-02   -0.26609E-01  4528   0.436E-01    0.167E-01
RMM:   2    -0.232647498496E+04   -0.26958E-02   -0.28132E-02  6082   0.933E-02    0.143E-01
RMM:   3    -0.232647534906E+04   -0.36410E-03   -0.31862E-03  4798   0.357E-02    0.194E-01
RMM:   4    -0.232647495721E+04    0.39185E-03   -0.34479E-04  3196   0.106E-02    0.549E-02
RMM:   5    -0.232647497239E+04   -0.15189E-04   -0.15553E-04  3123   0.776E-03    0.628E-02
RMM:   6    -0.232647492277E+04    0.49622E-04   -0.10156E-04  3265   0.749E-03    0.180E-02
RMM:   7    -0.232647492523E+04   -0.24544E-05   -0.22903E-05  2936   0.511E-03
 290 F= -.23478931E+04 E0= -.23478931E+04  d E =-.539063E-03  mag=     3.0000
       N       E                     dE             d eps       ncg     rms          rms(c)
DAV:   1    -0.232647481594E+04    0.10684E-03   -0.13991E-02  4912   0.100E-01    0.400E-02
RMM:   2    -0.232647496085E+04   -0.14492E-03   -0.15453E-03  5769   0.225E-02    0.316E-02
RMM:   3    -0.232647498185E+04   -0.20995E-04   -0.17338E-04  2943   0.937E-03    0.452E-02
RMM:   4    -0.232647496123E+04    0.20614E-04   -0.19771E-05  2913   0.321E-03    0.136E-02
RMM:   5    -0.232647496254E+04   -0.13064E-05   -0.88511E-06  2770   0.190E-03
 291 F= -.23478931E+04 E0= -.23478931E+04  d E =-.546828E-03  mag=     3.0000
       N       E                     dE             d eps       ncg     rms          rms(c)
DAV:   1    -0.232647317846E+04    0.17828E-02   -0.24683E-01  4528   0.429E-01    0.160E-01
RMM:   2    -0.232647557427E+04   -0.23958E-02   -0.25386E-02  6046   0.903E-02    0.120E-01
RMM:   3    -0.232647588285E+04   -0.30858E-03   -0.28271E-03  4816   0.346E-02    0.167E-01
RMM:   4    -0.232647559428E+04    0.28857E-03   -0.30622E-04  3150   0.100E-02    0.578E-02
RMM:   5    -0.232647562161E+04   -0.27335E-04   -0.14088E-04  3044   0.721E-03    0.727E-02
RMM:   6    -0.232647556907E+04    0.52539E-04   -0.90618E-05  3187   0.683E-03    0.330E-02
RMM:   7    -0.232647556132E+04    0.77508E-05   -0.35392E-05  2921   0.542E-03
 292 F= -.23478937E+04 E0= -.23478937E+04  d E =-.517330E-03  mag=     3.0000
       N       E                     dE             d eps       ncg     rms          rms(c)
DAV:   1    -0.232647535980E+04    0.20927E-03   -0.23323E-02  4608   0.132E-01    0.507E-02
RMM:   2    -0.232647559107E+04   -0.23127E-03   -0.25004E-03  6042   0.292E-02    0.342E-02
RMM:   3    -0.232647562432E+04   -0.33250E-04   -0.26812E-04  2992   0.116E-02    0.522E-02
RMM:   4    -0.232647559691E+04    0.27417E-04   -0.31317E-05  2922   0.391E-03    0.191E-02
RMM:   5    -0.232647559744E+04   -0.53515E-06   -0.12785E-05  2865   0.229E-03
 293 F= -.23478937E+04 E0= -.23478937E+04  d E =-.528612E-03  mag=     3.0000
       N       E                     dE             d eps       ncg     rms          rms(c)
DAV:   1    -0.232647398535E+04    0.16116E-02   -0.22153E-01  4528   0.401E-01    0.150E-01
RMM:   2    -0.232647615708E+04   -0.21717E-02   -0.23253E-02  6075   0.847E-02    0.104E-01
RMM:   3    -0.232647641056E+04   -0.25348E-03   -0.26169E-03  4608   0.334E-02    0.138E-01
RMM:   4    -0.232647619676E+04    0.21380E-03   -0.26931E-04  3134   0.951E-03    0.486E-02
RMM:   5    -0.232647621685E+04   -0.20091E-04   -0.12727E-04  3045   0.687E-03    0.640E-02
RMM:   6    -0.232647618256E+04    0.34296E-04   -0.75239E-05  3057   0.633E-03    0.345E-02
RMM:   7    -0.232647617517E+04    0.73819E-05   -0.28886E-05  2917   0.463E-03
 294 F= -.23478942E+04 E0= -.23478942E+04  d E =-.515774E-03  mag=     3.0000
       N       E                     dE             d eps       ncg     rms          rms(c)
DAV:   1    -0.232647555949E+04    0.62307E-03   -0.68494E-02  4544   0.222E-01    0.843E-02
RMM:   2    -0.232647624128E+04   -0.68178E-03   -0.74100E-03  6241   0.485E-02    0.515E-02
RMM:   3    -0.232647631171E+04   -0.70431E-04   -0.78529E-04  3313   0.188E-02    0.705E-02
RMM:   4    -0.232647626103E+04    0.50678E-04   -0.84699E-05  2970   0.604E-03    0.332E-02
RMM:   5    -0.232647626256E+04   -0.15309E-05   -0.35762E-05  2923   0.369E-03
 295 F= -.23478942E+04 E0= -.23478942E+04  d E =-.569240E-03  mag=     3.0000
       N       E                     dE             d eps       ncg     rms          rms(c)
DAV:   1    -0.232647440703E+04    0.18540E-02   -0.22818E-01  4528   0.394E-01    0.151E-01
RMM:   2    -0.232647684521E+04   -0.24382E-02   -0.26183E-02  6133   0.870E-02    0.103E-01
RMM:   3    -0.232647711115E+04   -0.26594E-03   -0.27784E-03  4581   0.344E-02    0.137E-01
RMM:   4    -0.232647690718E+04    0.20397E-03   -0.28831E-04  3132   0.966E-03    0.486E-02
RMM:   5    -0.232647694166E+04   -0.34473E-04   -0.13329E-04  3129   0.693E-03    0.728E-02
RMM:   6    -0.232647689208E+04    0.49572E-04   -0.87171E-05  2967   0.673E-03    0.351E-02
RMM:   7    -0.232647688547E+04    0.66148E-05   -0.29134E-05  2926   0.423E-03
 296 F= -.23478948E+04 E0= -.23478948E+04  d E =-.538573E-03  mag=     3.0000
       N       E                     dE             d eps       ncg     rms          rms(c)
DAV:   1    -0.232647654012E+04    0.35197E-03   -0.37806E-02  4592   0.161E-01    0.622E-02
RMM:   2    -0.232647694935E+04   -0.40923E-03   -0.44482E-03  6165   0.366E-02    0.390E-02
RMM:   3    -0.232647699671E+04   -0.47365E-04   -0.47917E-04  3039   0.143E-02    0.580E-02
RMM:   4    -0.232647696512E+04    0.31587E-04   -0.49967E-05  2934   0.455E-03    0.252E-02
RMM:   5    -0.232647696513E+04   -0.55879E-08   -0.19866E-05  2919   0.276E-03
 297 F= -.23478948E+04 E0= -.23478948E+04  d E =-.584310E-03  mag=     3.0000
       N       E                     dE             d eps       ncg     rms          rms(c)
DAV:   1    -0.232647557504E+04    0.13901E-02   -0.18953E-01  4528   0.382E-01    0.148E-01
RMM:   2    -0.232647757779E+04   -0.20028E-02   -0.21597E-02  6094   0.831E-02    0.969E-02
RMM:   3    -0.232647787788E+04   -0.30009E-03   -0.24373E-03  4506   0.330E-02    0.152E-01
RMM:   4    -0.232647763944E+04    0.23844E-03   -0.26298E-04  3077   0.953E-03    0.521E-02
RMM:   5    -0.232647765514E+04   -0.15700E-04   -0.12513E-04  3028   0.707E-03    0.592E-02
RMM:   6    -0.232647761456E+04    0.40583E-04   -0.69106E-05  3074   0.646E-03    0.238E-02
RMM:   7    -0.232647761373E+04    0.83064E-06   -0.25577E-05  2911   0.484E-03
 298 F= -.23478954E+04 E0= -.23478954E+04  d E =-.528010E-03  mag=     3.0000
       N       E                     dE             d eps       ncg     rms          rms(c)
DAV:   1    -0.232647750966E+04    0.10490E-03   -0.12591E-02  4928   0.988E-02    0.393E-02
RMM:   2    -0.232647764618E+04   -0.13652E-03   -0.15014E-03  5773   0.229E-02    0.221E-02
RMM:   3    -0.232647766470E+04   -0.18522E-04   -0.15772E-04  2940   0.941E-03    0.348E-02
RMM:   4    -0.232647765334E+04    0.11359E-04   -0.17777E-05  2914   0.291E-03    0.146E-02
RMM:   5    -0.232647765233E+04    0.10181E-05   -0.63683E-06  2832   0.185E-03
 299 F= -.23478954E+04 E0= -.23478954E+04  d E =-.535505E-03  mag=     3.0000
       N       E                     dE             d eps       ncg     rms          rms(c)
DAV:   1    -0.232647631577E+04    0.13376E-02   -0.16935E-01  4560   0.355E-01    0.136E-01
RMM:   2    -0.232647824619E+04   -0.19304E-02   -0.20006E-02  6059   0.782E-02    0.121E-01
RMM:   3    -0.232647848195E+04   -0.23576E-03   -0.22652E-03  4255   0.305E-02    0.154E-01
RMM:   4    -0.232647822774E+04    0.25421E-03   -0.23214E-04  3045   0.917E-03    0.443E-02
RMM:   5    -0.232647823582E+04   -0.80846E-05   -0.10071E-04  2994   0.643E-03    0.511E-02
RMM:   6    -0.232647820537E+04    0.30447E-04   -0.63920E-05  3053   0.614E-03    0.162E-02
RMM:   7    -0.232647820705E+04   -0.16763E-05   -0.16038E-05  2930   0.445E-03
 300 F= -.23478958E+04 E0= -.23478958E+04  d E =-.425743E-03  mag=     3.0000
       N       E                     dE             d eps       ncg     rms          rms(c)
DAV:   1    -0.232647812759E+04    0.77788E-04   -0.10182E-02  4800   0.874E-02    0.344E-02
RMM:   2    -0.232647824492E+04   -0.11734E-03   -0.12492E-03  5575   0.205E-02    0.270E-02
RMM:   3    -0.232647826322E+04   -0.18295E-04   -0.14444E-04  2943   0.856E-03    0.390E-02
RMM:   4    -0.232647824672E+04    0.16504E-04   -0.15329E-05  2912   0.293E-03    0.113E-02
RMM:   5    -0.232647824766E+04   -0.94739E-06   -0.65641E-06  2748   0.175E-03
 301 F= -.23478958E+04 E0= -.23478958E+04  d E =-.434761E-03  mag=     3.0000
