       N       E                     dE             d eps       ncg     rms          rms(c)
DAV:   1     0.129468958045E+05    0.12947E+05   -0.83823E+05  4504   0.144E+03
DAV:   2    -0.105184040960E+04   -0.13999E+05   -0.13392E+05  5136   0.330E+02
DAV:   3    -0.247584522471E+04   -0.14240E+04   -0.14092E+04  5424   0.112E+02
DAV:   4    -0.252036065951E+04   -0.44515E+02   -0.44283E+02  6768   0.295E+01
DAV:   5    -0.252114641157E+04   -0.78575E+00   -0.78449E+00  6096   0.339E+00    0.171E+02
RMM:   6    -0.149014744964E+04    0.10310E+04   -0.19474E+03  4452   0.384E+01    0.722E+01
RMM:   7    -0.166368291644E+04   -0.17354E+03   -0.28953E+02  4996   0.143E+01    0.492E+01
RMM:   8    -0.171648887595E+04   -0.52806E+02   -0.52001E+01  5285   0.734E+00    0.415E+01
RMM:   9    -0.179291897151E+04   -0.76430E+02   -0.61368E+01  5143   0.722E+00    0.341E+01
RMM:  10    -0.192657642878E+04   -0.13366E+03   -0.59302E+01  5258   0.733E+00    0.242E+01
RMM:  11    -0.201712557233E+04   -0.90549E+02   -0.34769E+01  5046   0.493E+00    0.160E+01
RMM:  12    -0.209650002821E+04   -0.79374E+02   -0.34389E+01  4964   0.453E+00    0.158E+01
RMM:  13    -0.216985035567E+04   -0.73350E+02   -0.38752E+01  4950   0.483E+00    0.111E+01
RMM:  14    -0.226606089185E+04   -0.96211E+02   -0.82506E+01  4481   0.631E+00    0.930E+00
RMM:  15    -0.228968734133E+04   -0.23626E+02   -0.19884E+01  4453   0.393E+00    0.602E+00
RMM:  16    -0.230495115817E+04   -0.15264E+02   -0.14118E+01  4438   0.251E+00    0.360E+00
RMM:  17    -0.230965655375E+04   -0.47054E+01   -0.34800E+00  4510   0.186E+00    0.201E+00
RMM:  18    -0.231189504749E+04   -0.22385E+01   -0.17519E+00  4980   0.772E-01    0.177E+00
RMM:  19    -0.231232127215E+04   -0.42622E+00   -0.41799E-01  4868   0.582E-01    0.157E+00
RMM:  20    -0.231242642174E+04   -0.10515E+00   -0.11780E-01  5142   0.212E-01    0.120E+00
RMM:  21    -0.231246807369E+04   -0.41652E-01   -0.34060E-02  4733   0.139E-01    0.650E-01
RMM:  22    -0.231253695140E+04   -0.68878E-01   -0.36225E-02  4512   0.137E-01    0.348E-01
RMM:  23    -0.231256192217E+04   -0.24971E-01   -0.75511E-03  4621   0.765E-02    0.325E-01
RMM:  24    -0.231258123669E+04   -0.19315E-01   -0.53536E-03  4518   0.515E-02    0.298E-01
RMM:  25    -0.231259745347E+04   -0.16217E-01   -0.42913E-03  4514   0.502E-02    0.195E-01
RMM:  26    -0.231260176607E+04   -0.43126E-02   -0.11192E-03  4693   0.285E-02    0.132E-01
RMM:  27    -0.231261348693E+04   -0.11721E-01   -0.23010E-03  4441   0.321E-02    0.760E-02
RMM:  28    -0.231262227576E+04   -0.87888E-02   -0.21284E-03  4430   0.312E-02    0.436E-02
RMM:  29    -0.231262657324E+04   -0.42975E-02   -0.10797E-03  4242   0.238E-02    0.393E-02
RMM:  30    -0.231262831351E+04   -0.17403E-02   -0.52808E-04  4211   0.170E-02    0.203E-02
RMM:  31    -0.231262878134E+04   -0.46783E-03   -0.13491E-04  3987   0.100E-02    0.127E-02
RMM:  32    -0.231262902819E+04   -0.24686E-03   -0.54127E-05  3496   0.581E-03    0.654E-03
RMM:  33    -0.231262911921E+04   -0.91015E-04   -0.17233E-05  2998   0.462E-03    0.480E-03
RMM:  34    -0.231262916215E+04   -0.42942E-04   -0.91910E-06  2869   0.305E-03    0.207E-03
RMM:  35    -0.231262918364E+04   -0.21486E-04   -0.56151E-06  2690   0.261E-03    0.134E-03
RMM:  36    -0.231262918793E+04   -0.42970E-05   -0.26914E-06  2433   0.205E-03
   1 F= -.23334839E+04 E0= -.23334747E+04  d E =-.233348E+04  mag=     6.0000
       N       E                     dE             d eps       ncg     rms          rms(c)
DAV:   1    -0.231242790257E+04    0.20128E+00   -0.41775E+01  4848   0.516E+00    0.226E+00
RMM:   2    -0.231291615713E+04   -0.48825E+00   -0.49747E+00  6279   0.124E+00    0.339E+00
RMM:   3    -0.231290339062E+04    0.12767E-01   -0.48747E-01  5972   0.376E-01    0.250E+00
RMM:   4    -0.231285144992E+04    0.51941E-01   -0.68444E-02  6204   0.126E-01    0.872E-01
RMM:   5    -0.231284629855E+04    0.51514E-02   -0.14711E-02  5754   0.573E-02    0.734E-01
RMM:   6    -0.231284021935E+04    0.60792E-02   -0.91848E-03  5549   0.465E-02    0.399E-01
RMM:   7    -0.231283974459E+04    0.47476E-03   -0.39536E-03  5110   0.352E-02    0.403E-01
RMM:   8    -0.231283949682E+04    0.24777E-03   -0.65595E-04  3969   0.143E-02    0.316E-01
RMM:   9    -0.231283895874E+04    0.53808E-03   -0.16428E-03  4733   0.207E-02    0.188E-01
RMM:  10    -0.231283910179E+04   -0.14305E-03   -0.12807E-03  4549   0.174E-02    0.112E-01
RMM:  11    -0.231283904633E+04    0.55458E-04   -0.22520E-04  3351   0.995E-03    0.335E-02
RMM:  12    -0.231283905682E+04   -0.10489E-04   -0.38227E-05  2997   0.475E-03    0.426E-02
RMM:  13    -0.231283905779E+04   -0.96954E-06   -0.17307E-05  2904   0.380E-03
   2 F= -.23336954E+04 E0= -.23336862E+04  d E =-.211542E+00  mag=     6.0000
       N       E                     dE             d eps       ncg     rms          rms(c)
DAV:   1    -0.231283871313E+04    0.34369E-03   -0.12336E-01  5000   0.272E-01    0.142E-01
RMM:   2    -0.231284043214E+04   -0.17190E-02   -0.14863E-02  6200   0.625E-02    0.285E-01
RMM:   3    -0.231284002813E+04    0.40401E-03   -0.16528E-03  4129   0.259E-02    0.137E-01
RMM:   4    -0.231283989181E+04    0.13632E-03   -0.26298E-04  3343   0.854E-03    0.574E-02
RMM:   5    -0.231283988214E+04    0.96690E-05   -0.49542E-05  2882   0.450E-03
   3 F= -.23336961E+04 E0= -.23336872E+04  d E =-.212276E+00  mag=     6.0000
       N       E                     dE             d eps       ncg     rms          rms(c)
DAV:   1    -0.231281092684E+04    0.28965E-01   -0.24080E+01  4608   0.414E+00    0.132E+00
RMM:   2    -0.231301966126E+04   -0.20873E+00   -0.22118E+00  6040   0.815E-01    0.102E+00
RMM:   3    -0.231303963107E+04   -0.19970E-01   -0.20458E-01  5624   0.312E-01    0.160E+00
RMM:   4    -0.231302216459E+04    0.17466E-01   -0.19230E-02  5978   0.725E-02    0.511E-01
RMM:   5    -0.231302242801E+04   -0.26342E-03   -0.62580E-03  5447   0.389E-02    0.579E-01
RMM:   6    -0.231301986492E+04    0.25631E-02   -0.50350E-03  5266   0.369E-02    0.427E-01
RMM:   7    -0.231302007217E+04   -0.20726E-03   -0.10712E-03  4426   0.216E-02    0.402E-01
RMM:   8    -0.231301967741E+04    0.39476E-03   -0.34648E-04  3616   0.101E-02    0.265E-01
RMM:   9    -0.231301931994E+04    0.35746E-03   -0.68941E-04  4383   0.135E-02    0.804E-02
RMM:  10    -0.231301935718E+04   -0.37238E-04   -0.17340E-04  3557   0.965E-03    0.829E-02
RMM:  11    -0.231301935196E+04    0.52255E-05   -0.30864E-05  2946   0.512E-03
   4 F= -.23338776E+04 E0= -.23338668E+04  d E =-.181469E+00  mag=     6.0000
       N       E                     dE             d eps       ncg     rms          rms(c)
DAV:   1    -0.231272270148E+04    0.29666E+00   -0.42194E+01  4528   0.548E+00    0.179E+00
RMM:   2    -0.231310254571E+04   -0.37984E+00   -0.39990E+00  6083   0.109E+00    0.145E+00
RMM:   3    -0.231313783738E+04   -0.35292E-01   -0.36285E-01  5698   0.397E-01    0.240E+00
RMM:   4    -0.231310528354E+04    0.32554E-01   -0.33187E-02  5906   0.912E-02    0.118E+00
RMM:   5    -0.231309998387E+04    0.52997E-02   -0.12122E-02  5582   0.546E-02    0.845E-01
RMM:   6    -0.231309794813E+04    0.20357E-02   -0.15543E-02  5593   0.625E-02    0.107E+00
RMM:   7    -0.231309803310E+04   -0.84966E-04   -0.43815E-03  4845   0.400E-02    0.847E-01
RMM:   8    -0.231309782735E+04    0.20575E-03   -0.18371E-03  4458   0.197E-02    0.647E-01
RMM:   9    -0.231309663631E+04    0.11910E-02   -0.31409E-03  4677   0.267E-02    0.210E-01
RMM:  10    -0.231309649579E+04    0.14053E-03   -0.91228E-04  4619   0.187E-02    0.125E-01
RMM:  11    -0.231309648808E+04    0.77089E-05   -0.17765E-04  3495   0.929E-03    0.487E-02
RMM:  12    -0.231309648947E+04   -0.13939E-05   -0.16585E-05  2910   0.393E-03
   5 F= -.23339574E+04 E0= -.23339446E+04  d E =-.261287E+00  mag=     6.0000
       N       E                     dE             d eps       ncg     rms          rms(c)
DAV:   1    -0.231310314414E+04   -0.66561E-02   -0.22083E+01  4544   0.371E+00    0.101E+00
RMM:   2    -0.231321539654E+04   -0.11225E+00   -0.12151E+00  5758   0.661E-01    0.593E-01
RMM:   3    -0.231321805477E+04   -0.26582E-02   -0.96140E-02  5176   0.277E-01    0.530E-01
RMM:   4    -0.231321696671E+04    0.10881E-02   -0.10552E-02  5826   0.558E-02    0.411E-01
RMM:   5    -0.231321502958E+04    0.19371E-02   -0.43380E-03  5556   0.415E-02    0.239E-01
RMM:   6    -0.231321517138E+04   -0.14180E-03   -0.69865E-04  4651   0.177E-02    0.241E-01
RMM:   7    -0.231321513169E+04    0.39695E-04   -0.13435E-04  3276   0.736E-03    0.229E-01
RMM:   8    -0.231321511427E+04    0.17421E-04   -0.11337E-04  3041   0.602E-03    0.176E-01
RMM:   9    -0.231321483809E+04    0.27617E-03   -0.90690E-04  4852   0.176E-02    0.858E-02
RMM:  10    -0.231321485488E+04   -0.16789E-04   -0.18745E-04  3612   0.101E-02    0.362E-02
RMM:  11    -0.231321484232E+04    0.12559E-04   -0.52111E-05  3002   0.571E-03    0.216E-02
RMM:  12    -0.231321483871E+04    0.36139E-05   -0.21133E-05  2952   0.385E-03
   6 F= -.23340768E+04 E0= -.23340636E+04  d E =-.119373E+00  mag=     6.0000
       N       E                     dE             d eps       ncg     rms          rms(c)
DAV:   1    -0.231301896752E+04    0.19587E+00   -0.51049E+01  4480   0.558E+00    0.152E+00
RMM:   2    -0.231328389913E+04   -0.26493E+00   -0.28317E+00  5791   0.961E-01    0.115E+00
RMM:   3    -0.231329931849E+04   -0.15419E-01   -0.22169E-01  5118   0.405E-01    0.167E+00
RMM:   4    -0.231328633400E+04    0.12984E-01   -0.28380E-02  6183   0.932E-02    0.976E-01
RMM:   5    -0.231328344819E+04    0.28858E-02   -0.95390E-03  5448   0.509E-02    0.677E-01
RMM:   6    -0.231327883829E+04    0.46099E-02   -0.10593E-02  5523   0.584E-02    0.406E-01
RMM:   7    -0.231327932607E+04   -0.48778E-03   -0.18070E-03  5173   0.282E-02    0.548E-01
RMM:   8    -0.231327922371E+04    0.10236E-03   -0.14671E-04  3366   0.966E-03    0.516E-01
RMM:   9    -0.231327810317E+04    0.11205E-02   -0.10059E-03  4338   0.160E-02    0.985E-02
RMM:  10    -0.231327812564E+04   -0.22469E-04   -0.37646E-04  4455   0.133E-02    0.453E-02
RMM:  11    -0.231327812658E+04   -0.93662E-06   -0.66097E-05  3106   0.834E-03
   7 F= -.23341417E+04 E0= -.23341280E+04  d E =-.184280E+00  mag=     6.0000
       N       E                     dE             d eps       ncg     rms          rms(c)
DAV:   1    -0.231329829278E+04   -0.20167E-01   -0.29814E+01  4544   0.400E+00    0.123E+00
RMM:   2    -0.231339617806E+04   -0.97885E-01   -0.10313E+00  5762   0.635E-01    0.116E+00
RMM:   3    -0.231340517042E+04   -0.89924E-02   -0.87432E-02  5446   0.230E-01    0.180E+00
RMM:   4    -0.231338997020E+04    0.15200E-01   -0.16645E-02  5923   0.764E-02    0.849E-01
RMM:   5    -0.231338769071E+04    0.22795E-02   -0.57113E-03  5419   0.433E-02    0.500E-01
RMM:   6    -0.231338569553E+04    0.19952E-02   -0.47727E-03  5145   0.410E-02    0.500E-01
RMM:   7    -0.231338618204E+04   -0.48651E-03   -0.75972E-04  4188   0.221E-02    0.534E-01
RMM:   8    -0.231338569457E+04    0.48747E-03   -0.29588E-04  3506   0.936E-03    0.384E-01
RMM:   9    -0.231338503831E+04    0.65626E-03   -0.12169E-03  4597   0.192E-02    0.740E-02
RMM:  10    -0.231338506693E+04   -0.28622E-04   -0.18294E-04  4061   0.118E-02    0.589E-02
RMM:  11    -0.231338506262E+04    0.43115E-05   -0.35245E-05  3029   0.488E-03
   8 F= -.23342506E+04 E0= -.23342366E+04  d E =-.108901E+00  mag=     6.0000
       N       E                     dE             d eps       ncg     rms          rms(c)
DAV:   1    -0.231331087750E+04    0.74189E-01   -0.39616E+01  4480   0.464E+00    0.146E+00
RMM:   2    -0.231344719449E+04   -0.13632E+00   -0.14235E+00  5782   0.750E-01    0.150E+00
RMM:   3    -0.231345561108E+04   -0.84166E-02   -0.11611E-01  5453   0.265E-01    0.218E+00
RMM:   4    -0.231343642322E+04    0.19188E-01   -0.24591E-02  5963   0.912E-02    0.121E+00
RMM:   5    -0.231343095704E+04    0.54662E-02   -0.78074E-03  5523   0.509E-02    0.600E-01
RMM:   6    -0.231342783065E+04    0.31264E-02   -0.68547E-03  5119   0.493E-02    0.577E-01
RMM:   7    -0.231342848099E+04   -0.65034E-03   -0.12188E-03  4456   0.277E-02    0.627E-01
RMM:   8    -0.231342774913E+04    0.73186E-03   -0.51305E-04  3919   0.122E-02    0.424E-01
RMM:   9    -0.231342690234E+04    0.84679E-03   -0.14443E-03  4768   0.212E-02    0.897E-02
RMM:  10    -0.231342694309E+04   -0.40751E-04   -0.26757E-04  4516   0.135E-02    0.728E-02
RMM:  11    -0.231342693028E+04    0.12809E-04   -0.49586E-05  3136   0.588E-03    0.585E-02
RMM:  12    -0.231342691375E+04    0.16535E-04   -0.53677E-05  2984   0.544E-03    0.480E-02
RMM:  13    -0.231342691700E+04   -0.32486E-05   -0.28134E-05  2937   0.444E-03
   9 F= -.23342946E+04 E0= -.23342805E+04  d E =-.152945E+00  mag=     6.0000
       N       E                     dE             d eps       ncg     rms          rms(c)
DAV:   1    -0.231341849287E+04    0.84209E-02   -0.27289E+01  4480   0.364E+00    0.147E+00
RMM:   2    -0.231355695760E+04   -0.13846E+00   -0.11887E+00  5914   0.627E-01    0.260E+00
RMM:   3    -0.231355850993E+04   -0.15523E-02   -0.14150E-01  5701   0.229E-01    0.228E+00
RMM:   4    -0.231352534692E+04    0.33163E-01   -0.14915E-02  5384   0.704E-02    0.916E-01
RMM:   5    -0.231352164620E+04    0.37007E-02   -0.69422E-03  5367   0.453E-02    0.441E-01
RMM:   6    -0.231352317904E+04   -0.15328E-02   -0.61557E-03  5583   0.408E-02    0.718E-01
RMM:   7    -0.231352173216E+04    0.14469E-02   -0.16791E-03  4767   0.220E-02    0.523E-01
RMM:   8    -0.231352166985E+04    0.62310E-04   -0.10287E-03  4043   0.133E-02    0.345E-01
RMM:   9    -0.231352145161E+04    0.21824E-03   -0.10933E-03  4197   0.162E-02    0.125E-01
RMM:  10    -0.231352140930E+04    0.42301E-04   -0.36755E-04  4079   0.113E-02    0.672E-02
RMM:  11    -0.231352140147E+04    0.78357E-05   -0.42057E-05  2958   0.624E-03
  10 F= -.23343917E+04 E0= -.23343783E+04  d E =-.970262E-01  mag=     6.0000
       N       E                     dE             d eps       ncg     rms          rms(c)
DAV:   1    -0.231237790074E+04    0.11435E+01   -0.23735E+02  4480   0.109E+01    0.380E+00
RMM:   2    -0.231367360357E+04   -0.12957E+01   -0.13603E+01  5991   0.206E+00    0.344E+00
RMM:   3    -0.231375528079E+04   -0.81677E-01   -0.11524E+00  5736   0.627E-01    0.391E+00
RMM:   4    -0.231359962052E+04    0.15566E+00   -0.14593E-01  6085   0.214E-01    0.133E+00
RMM:   5    -0.231360329413E+04   -0.36736E-02   -0.47717E-02  5659   0.106E-01    0.157E+00
RMM:   6    -0.231357964264E+04    0.23651E-01   -0.28297E-02  5767   0.920E-02    0.543E-01
RMM:   7    -0.231357712362E+04    0.25190E-02   -0.16357E-02  5089   0.708E-02    0.218E-01
RMM:   8    -0.231357720636E+04   -0.82735E-04   -0.16282E-03  4870   0.396E-02    0.198E-01
RMM:   9    -0.231357734453E+04   -0.13817E-03   -0.88807E-04  4833   0.152E-02    0.910E-02
RMM:  10    -0.231357746814E+04   -0.12361E-03   -0.23502E-04  4167   0.113E-02    0.333E-02
RMM:  11    -0.231357765548E+04   -0.18734E-03   -0.74079E-05  3366   0.654E-03    0.227E-02
RMM:  12    -0.231357775162E+04   -0.96147E-04   -0.34737E-05  3034   0.528E-03    0.384E-02
RMM:  13    -0.231357778334E+04   -0.31721E-04   -0.17936E-05  2928   0.390E-03    0.192E-02
RMM:  14    -0.231357782600E+04   -0.42653E-04   -0.21100E-05  2943   0.371E-03    0.131E-02
RMM:  15    -0.231357783793E+04   -0.11935E-04   -0.77857E-06  2860   0.340E-03    0.101E-02
RMM:  16    -0.231357784360E+04   -0.56639E-05   -0.48877E-06  2743   0.222E-03
  11 F= -.23344551E+04 E0= -.23344500E+04  d E =-.160508E+00  mag=     6.0000
       N       E                     dE             d eps       ncg     rms          rms(c)
DAV:   1    -0.231348120190E+04    0.96636E-01   -0.31465E+01  4480   0.412E+00    0.125E+00
RMM:   2    -0.231362907102E+04   -0.14787E+00   -0.13416E+00  5806   0.671E-01    0.212E+00
RMM:   3    -0.231362449707E+04    0.45740E-02   -0.13783E-01  5393   0.274E-01    0.219E+00
RMM:   4    -0.231360555582E+04    0.18941E-01   -0.14591E-02  5400   0.690E-02    0.656E-01
RMM:   5    -0.231360420553E+04    0.13503E-02   -0.81232E-03  5514   0.463E-02    0.559E-01
RMM:   6    -0.231360211262E+04    0.20929E-02   -0.35106E-03  5150   0.337E-02    0.524E-01
RMM:   7    -0.231360195353E+04    0.15909E-03   -0.15019E-03  4392   0.229E-02    0.395E-01
RMM:   8    -0.231360121915E+04    0.73438E-03   -0.12333E-03  4674   0.198E-02    0.827E-02
RMM:   9    -0.231360119110E+04    0.28053E-04   -0.43074E-04  4281   0.145E-02    0.580E-02
RMM:  10    -0.231360118719E+04    0.39127E-05   -0.93084E-05  3262   0.738E-03
  12 F= -.23344761E+04 E0= -.23344676E+04  d E =-.181448E+00  mag=     6.0000
       N       E                     dE             d eps       ncg     rms          rms(c)
DAV:   1    -0.231362895014E+04   -0.27759E-01   -0.16366E+01  4496   0.325E+00    0.125E+00
RMM:   2    -0.231369639363E+04   -0.67443E-01   -0.66615E-01  5805   0.559E-01    0.137E+00
RMM:   3    -0.231370290921E+04   -0.65156E-02   -0.75724E-02  5569   0.206E-01    0.148E+00
RMM:   4    -0.231368318521E+04    0.19724E-01   -0.11795E-02  5592   0.685E-02    0.468E-01
RMM:   5    -0.231368280334E+04    0.38187E-03   -0.42770E-03  5432   0.402E-02    0.472E-01
RMM:   6    -0.231368074098E+04    0.20624E-02   -0.35173E-03  5353   0.346E-02    0.176E-01
RMM:   7    -0.231368069939E+04    0.41590E-04   -0.87424E-04  4959   0.233E-02    0.137E-01
RMM:   8    -0.231368072690E+04   -0.27511E-04   -0.20547E-04  3825   0.939E-03    0.891E-02
RMM:   9    -0.231368074046E+04   -0.13554E-04   -0.99604E-05  3238   0.682E-03    0.382E-02
RMM:  10    -0.231368074547E+04   -0.50075E-05   -0.33907E-05  3005   0.485E-03
  13 F= -.23345563E+04 E0= -.23345521E+04  d E =-.802015E-01  mag=     6.0000
       N       E                     dE             d eps       ncg     rms          rms(c)
DAV:   1    -0.231367874684E+04    0.19936E-02   -0.34159E+00  4608   0.148E+00    0.516E-01
RMM:   2    -0.231369112560E+04   -0.12379E-01   -0.13554E-01  5813   0.254E-01    0.406E-01
RMM:   3    -0.231369232246E+04   -0.11969E-02   -0.13461E-02  5624   0.877E-02    0.554E-01
RMM:   4    -0.231368960773E+04    0.27147E-02   -0.20619E-03  5444   0.284E-02    0.156E-01
RMM:   5    -0.231368977965E+04   -0.17192E-03   -0.91733E-04  4914   0.186E-02    0.223E-01
RMM:   6    -0.231368928063E+04    0.49901E-03   -0.67624E-04  5148   0.160E-02    0.830E-02
RMM:   7    -0.231368925187E+04    0.28761E-04   -0.12778E-04  3661   0.960E-03    0.478E-02
RMM:   8    -0.231368924007E+04    0.11803E-04   -0.39784E-05  3041   0.496E-03    0.188E-02
RMM:   9    -0.231368924257E+04   -0.24996E-05   -0.13063E-05  2892   0.376E-03
  14 F= -.23345651E+04 E0= -.23345625E+04  d E =-.889787E-01  mag=     6.0000
       N       E                     dE             d eps       ncg     rms          rms(c)
DAV:   1    -0.231365626618E+04    0.32974E-01   -0.20406E+01  4480   0.355E+00    0.103E+00
RMM:   2    -0.231376740527E+04   -0.11114E+00   -0.11598E+00  5793   0.642E-01    0.698E-01
RMM:   3    -0.231377423495E+04   -0.68297E-02   -0.11116E-01  5437   0.245E-01    0.762E-01
RMM:   4    -0.231376921820E+04    0.50168E-02   -0.10660E-02  5851   0.547E-02    0.366E-01
RMM:   5    -0.231376815707E+04    0.10611E-02   -0.44866E-03  5269   0.391E-02    0.294E-01
RMM:   6    -0.231376810075E+04    0.56314E-04   -0.25835E-03  5323   0.318E-02    0.290E-01
RMM:   7    -0.231376739136E+04    0.70939E-03   -0.66178E-04  4740   0.157E-02    0.807E-02
RMM:   8    -0.231376734328E+04    0.48079E-04   -0.20205E-04  3334   0.882E-03    0.386E-02
RMM:   9    -0.231376736119E+04   -0.17913E-04   -0.76757E-05  3490   0.677E-03    0.297E-02
RMM:  10    -0.231376736445E+04   -0.32535E-05   -0.21259E-05  2922   0.522E-03
  15 F= -.23346431E+04 E0= -.23346429E+04  d E =-.780483E-01  mag=     6.0000
       N       E                     dE             d eps       ncg     rms          rms(c)
DAV:   1    -0.231352820819E+04    0.23915E+00   -0.52255E+01  4480   0.572E+00    0.167E+00
RMM:   2    -0.231382772756E+04   -0.29952E+00   -0.31306E+00  5896   0.107E+00    0.131E+00
RMM:   3    -0.231383759109E+04   -0.98635E-02   -0.28634E-01  5608   0.355E-01    0.123E+00
RMM:   4    -0.231382415658E+04    0.13435E-01   -0.28012E-02  5937   0.887E-02    0.522E-01
RMM:   5    -0.231382193983E+04    0.22168E-02   -0.97420E-03  5408   0.583E-02    0.469E-01
RMM:   6    -0.231382103014E+04    0.90969E-03   -0.69797E-03  5519   0.508E-02    0.400E-01
RMM:   7    -0.231381943866E+04    0.15915E-02   -0.19832E-03  5474   0.286E-02    0.926E-02
RMM:   8    -0.231381934852E+04    0.90140E-04   -0.34261E-04  4171   0.140E-02    0.422E-02
RMM:   9    -0.231381935463E+04   -0.61127E-05   -0.10710E-04  3605   0.796E-03    0.307E-02
RMM:  10    -0.231381935199E+04    0.26461E-05   -0.22233E-05  2907   0.514E-03
  16 F= -.23346948E+04 E0= -.23346948E+04  d E =-.129755E+00  mag=     6.0000
       N       E                     dE             d eps       ncg     rms          rms(c)
DAV:   1    -0.231374032642E+04    0.79028E-01   -0.24901E+01  4496   0.404E+00    0.124E+00
RMM:   2    -0.231387410969E+04   -0.13378E+00   -0.14402E+00  5823   0.742E-01    0.791E-01
RMM:   3    -0.231388166616E+04   -0.75565E-02   -0.14131E-01  5542   0.271E-01    0.865E-01
RMM:   4    -0.231387538462E+04    0.62815E-02   -0.13949E-02  5885   0.655E-02    0.362E-01
RMM:   5    -0.231387409188E+04    0.12927E-02   -0.51970E-03  5435   0.462E-02    0.312E-01
RMM:   6    -0.231387395612E+04    0.13576E-03   -0.37004E-03  5392   0.362E-02    0.302E-01
RMM:   7    -0.231387303350E+04    0.92262E-03   -0.10784E-03  5286   0.217E-02    0.554E-02
RMM:   8    -0.231387299171E+04    0.41784E-04   -0.15137E-04  3373   0.103E-02    0.261E-02
RMM:   9    -0.231387299324E+04   -0.15245E-05   -0.65939E-05  3245   0.590E-03
  17 F= -.23347485E+04 E0= -.23347485E+04  d E =-.536916E-01  mag=     6.0000
       N       E                     dE             d eps       ncg     rms          rms(c)
DAV:   1    -0.231387037245E+04    0.26193E-02   -0.74335E-01  5016   0.698E-01    0.212E-01
RMM:   2    -0.231387420958E+04   -0.38371E-02   -0.41379E-02  5899   0.127E-01    0.129E-01
RMM:   3    -0.231387444224E+04   -0.23265E-03   -0.38942E-03  5238   0.479E-02    0.148E-01
RMM:   4    -0.231387425455E+04    0.18769E-03   -0.39049E-04  3719   0.115E-02    0.598E-02
RMM:   5    -0.231387421831E+04    0.36237E-04   -0.16588E-04  4000   0.916E-03    0.517E-02
RMM:   6    -0.231387421135E+04    0.69656E-05   -0.88083E-05  3074   0.755E-03
  18 F= -.23347497E+04 E0= -.23347497E+04  d E =-.549050E-01  mag=     6.0000
       N       E                     dE             d eps       ncg     rms          rms(c)
DAV:   1    -0.231383231230E+04    0.41906E-01   -0.14489E+01  4480   0.301E+00    0.895E-01
RMM:   2    -0.231391705246E+04   -0.84740E-01   -0.90266E-01  5921   0.565E-01    0.561E-01
RMM:   3    -0.231392220357E+04   -0.51511E-02   -0.75815E-02  5674   0.184E-01    0.587E-01
RMM:   4    -0.231391921305E+04    0.29905E-02   -0.80769E-03  5880   0.478E-02    0.303E-01
RMM:   5    -0.231391831611E+04    0.89694E-03   -0.27769E-03  5215   0.325E-02    0.220E-01
RMM:   6    -0.231391817946E+04    0.13665E-03   -0.19028E-03  5475   0.254E-02    0.203E-01
RMM:   7    -0.231391781254E+04    0.36692E-03   -0.53532E-04  5012   0.156E-02    0.478E-02
RMM:   8    -0.231391779055E+04    0.21989E-04   -0.90543E-05  3230   0.745E-03    0.213E-02
RMM:   9    -0.231391778775E+04    0.27983E-05   -0.26230E-05  2916   0.489E-03
  19 F= -.23347933E+04 E0= -.23347933E+04  d E =-.435321E-01  mag=     6.0000
       N       E                     dE             d eps       ncg     rms          rms(c)
DAV:   1    -0.231389812591E+04    0.19665E-01   -0.43188E+00  4576   0.164E+00    0.483E-01
RMM:   2    -0.231392293889E+04   -0.24813E-01   -0.26397E-01  5912   0.302E-01    0.302E-01
RMM:   3    -0.231392427645E+04   -0.13376E-02   -0.21337E-02  5578   0.103E-01    0.309E-01
RMM:   4    -0.231392347373E+04    0.80272E-03   -0.23104E-03  5433   0.259E-02    0.164E-01
RMM:   5    -0.231392324031E+04    0.23341E-03   -0.84067E-04  4790   0.183E-02    0.132E-01
RMM:   6    -0.231392314179E+04    0.98527E-04   -0.53829E-04  4789   0.144E-02    0.979E-02
RMM:   7    -0.231392305602E+04    0.85769E-04   -0.13883E-04  3873   0.903E-03    0.245E-02
RMM:   8    -0.231392305155E+04    0.44686E-05   -0.23965E-05  2930   0.528E-03
  20 F= -.23347985E+04 E0= -.23347985E+04  d E =-.487441E-01  mag=     6.0000
       N       E                     dE             d eps       ncg     rms          rms(c)
DAV:   1    -0.231389022226E+04    0.32834E-01   -0.11978E+01  4480   0.259E+00    0.796E-01
RMM:   2    -0.231396039883E+04   -0.70177E-01   -0.74434E-01  5912   0.488E-01    0.455E-01
RMM:   3    -0.231396370718E+04   -0.33083E-02   -0.63048E-02  5643   0.164E-01    0.377E-01
RMM:   4    -0.231396301434E+04    0.69284E-03   -0.61770E-03  5620   0.380E-02    0.270E-01
RMM:   5    -0.231396232012E+04    0.69422E-03   -0.17086E-03  4952   0.244E-02    0.165E-01
RMM:   6    -0.231396237866E+04   -0.58540E-04   -0.13386E-03  5193   0.209E-02    0.193E-01
RMM:   7    -0.231396203236E+04    0.34631E-03   -0.44538E-04  4563   0.140E-02    0.533E-02
RMM:   8    -0.231396200518E+04    0.27176E-04   -0.66101E-05  3003   0.579E-03    0.200E-02
RMM:   9    -0.231396199989E+04    0.52929E-05   -0.23700E-05  2963   0.430E-03
  21 F= -.23348369E+04 E0= -.23348369E+04  d E =-.384004E-01  mag=     6.0000
       N       E                     dE             d eps       ncg     rms          rms(c)
DAV:   1    -0.231387829135E+04    0.83714E-01   -0.16553E+01  4464   0.304E+00    0.956E-01
RMM:   2    -0.231397664356E+04   -0.98352E-01   -0.10498E+00  5933   0.578E-01    0.535E-01
RMM:   3    -0.231398083604E+04   -0.41925E-02   -0.89052E-02  5701   0.185E-01    0.413E-01
RMM:   4    -0.231398016854E+04    0.66750E-03   -0.84523E-03  5675   0.441E-02    0.319E-01
RMM:   5    -0.231397921469E+04    0.95385E-03   -0.24694E-03  5055   0.291E-02    0.192E-01
RMM:   6    -0.231397920349E+04    0.11201E-04   -0.18141E-03  5228   0.245E-02    0.207E-01
RMM:   7    -0.231397881026E+04    0.39323E-03   -0.54065E-04  4623   0.159E-02    0.696E-02
RMM:   8    -0.231397876255E+04    0.47710E-04   -0.92273E-05  3113   0.634E-03    0.239E-02
RMM:   9    -0.231397875408E+04    0.84656E-05   -0.36157E-05  3004   0.481E-03
  22 F= -.23348529E+04 E0= -.23348529E+04  d E =-.544401E-01  mag=     6.0000
       N       E                     dE             d eps       ncg     rms          rms(c)
DAV:   1    -0.231394621854E+04    0.32544E-01   -0.13170E+01  4480   0.271E+00    0.783E-01
RMM:   2    -0.231401900668E+04   -0.72788E-01   -0.75634E-01  5912   0.502E-01    0.559E-01
RMM:   3    -0.231402151289E+04   -0.25062E-02   -0.59653E-02  5672   0.159E-01    0.551E-01
RMM:   4    -0.231401881246E+04    0.27004E-02   -0.64215E-03  5646   0.417E-02    0.241E-01
RMM:   5    -0.231401839952E+04    0.41295E-03   -0.23044E-03  5131   0.285E-02    0.219E-01
RMM:   6    -0.231401816761E+04    0.23191E-03   -0.13894E-03  5217   0.222E-02    0.155E-01
RMM:   7    -0.231401796765E+04    0.19996E-03   -0.33070E-04  4416   0.122E-02    0.373E-02
RMM:   8    -0.231401795185E+04    0.15798E-04   -0.59513E-05  2979   0.679E-03    0.176E-02
RMM:   9    -0.231401794999E+04    0.18665E-05   -0.20005E-05  2941   0.378E-03
  23 F= -.23348908E+04 E0= -.23348908E+04  d E =-.379178E-01  mag=     6.0000
       N       E                     dE             d eps       ncg     rms          rms(c)
DAV:   1    -0.231391428681E+04    0.10367E+00   -0.22664E+01  4480   0.356E+00    0.104E+00
RMM:   2    -0.231404102725E+04   -0.12674E+00   -0.13233E+00  5935   0.667E-01    0.721E-01
RMM:   3    -0.231404551789E+04   -0.44906E-02   -0.10638E-01  5722   0.211E-01    0.704E-01
RMM:   4    -0.231404119544E+04    0.43225E-02   -0.11323E-02  5736   0.548E-02    0.322E-01
RMM:   5    -0.231404051237E+04    0.68307E-03   -0.39866E-03  5249   0.372E-02    0.300E-01
RMM:   6    -0.231403995744E+04    0.55493E-03   -0.25028E-03  5568   0.297E-02    0.195E-01
RMM:   7    -0.231403964210E+04    0.31533E-03   -0.59139E-04  4882   0.158E-02    0.520E-02
RMM:   8    -0.231403960936E+04    0.32747E-04   -0.10525E-04  3131   0.821E-03    0.240E-02
RMM:   9    -0.231403960426E+04    0.51029E-05   -0.40415E-05  3035   0.490E-03
  24 F= -.23349108E+04 E0= -.23349108E+04  d E =-.578631E-01  mag=     6.0000
       N       E                     dE             d eps       ncg     rms          rms(c)
DAV:   1    -0.231401206227E+04    0.27547E-01   -0.16954E+01  4480   0.296E+00    0.913E-01
RMM:   2    -0.231409416524E+04   -0.82103E-01   -0.87640E-01  5984   0.546E-01    0.601E-01
RMM:   3    -0.231409739597E+04   -0.32307E-02   -0.70444E-02  5690   0.183E-01    0.651E-01
RMM:   4    -0.231409388018E+04    0.35158E-02   -0.76534E-03  5946   0.472E-02    0.293E-01
RMM:   5    -0.231409337062E+04    0.50955E-03   -0.30209E-03  5375   0.314E-02    0.274E-01
RMM:   6    -0.231409285288E+04    0.51774E-03   -0.20250E-03  5318   0.262E-02    0.154E-01
RMM:   7    -0.231409264425E+04    0.20863E-03   -0.52180E-04  4628   0.141E-02    0.420E-02
RMM:   8    -0.231409262788E+04    0.16368E-04   -0.67091E-05  3007   0.720E-03    0.199E-02
RMM:   9    -0.231409262711E+04    0.76869E-06   -0.28336E-05  2963   0.412E-03
  25 F= -.23349619E+04 E0= -.23349619E+04  d E =-.511678E-01  mag=     6.0000
       N       E                     dE             d eps       ncg     rms          rms(c)
DAV:   1    -0.231402163533E+04    0.70993E-01   -0.19526E+01  4480   0.319E+00    0.989E-01
RMM:   2    -0.231411686382E+04   -0.95228E-01   -0.10175E+00  6010   0.589E-01    0.666E-01
RMM:   3    -0.231412063590E+04   -0.37721E-02   -0.81621E-02  5742   0.194E-01    0.722E-01
RMM:   4    -0.231411624082E+04    0.43951E-02   -0.89952E-03  5974   0.514E-02    0.318E-01
RMM:   5    -0.231411557657E+04    0.66424E-03   -0.35173E-03  5388   0.333E-02    0.289E-01
RMM:   6    -0.231411505133E+04    0.52524E-03   -0.24382E-03  5369   0.286E-02    0.178E-01
RMM:   7    -0.231411476005E+04    0.29129E-03   -0.67768E-04  4820   0.155E-02    0.453E-02
RMM:   8    -0.231411473700E+04    0.23047E-04   -0.86187E-05  3019   0.795E-03    0.219E-02
RMM:   9    -0.231411473570E+04    0.12994E-05   -0.39005E-05  3029   0.455E-03
  26 F= -.23349820E+04 E0= -.23349820E+04  d E =-.712338E-01  mag=     6.0000
       N       E                     dE             d eps       ncg     rms          rms(c)
DAV:   1    -0.231407407788E+04    0.40659E-01   -0.14824E+01  4496   0.285E+00    0.853E-01
RMM:   2    -0.231414867588E+04   -0.74598E-01   -0.80189E-01  6055   0.536E-01    0.538E-01
RMM:   3    -0.231415050054E+04   -0.18247E-02   -0.63480E-02  5792   0.167E-01    0.556E-01
RMM:   4    -0.231414808674E+04    0.24138E-02   -0.68789E-03  5912   0.424E-02    0.294E-01
RMM:   5    -0.231414744409E+04    0.64266E-03   -0.26869E-03  5310   0.299E-02    0.252E-01
RMM:   6    -0.231414702334E+04    0.42075E-03   -0.17603E-03  5208   0.245E-02    0.154E-01
RMM:   7    -0.231414682672E+04    0.19662E-03   -0.45100E-04  4530   0.129E-02    0.348E-02
RMM:   8    -0.231414681500E+04    0.11718E-04   -0.58058E-05  2979   0.722E-03    0.189E-02
RMM:   9    -0.231414681518E+04   -0.17660E-06   -0.27732E-05  2970   0.377E-03
  27 F= -.23350122E+04 E0= -.23350122E+04  d E =-.302128E-01  mag=     6.0000
       N       E                     dE             d eps       ncg     rms          rms(c)
DAV:   1    -0.231413877013E+04    0.80449E-02   -0.24793E+00  4608   0.116E+00    0.346E-01
RMM:   2    -0.231415089883E+04   -0.12129E-01   -0.13109E-01  6032   0.217E-01    0.205E-01
RMM:   3    -0.231415120458E+04   -0.30574E-03   -0.10557E-02  5658   0.699E-02    0.208E-01
RMM:   4    -0.231415090372E+04    0.30085E-03   -0.10946E-03  4619   0.170E-02    0.122E-01
RMM:   5    -0.231415077691E+04    0.12682E-03   -0.45999E-04  4430   0.132E-02    0.951E-02
RMM:   6    -0.231415072952E+04    0.47391E-04   -0.27990E-04  3693   0.111E-02    0.662E-02
RMM:   7    -0.231415069074E+04    0.38777E-04   -0.68502E-05  3146   0.665E-03    0.131E-02
RMM:   8    -0.231415068975E+04    0.99122E-06   -0.10819E-05  2901   0.403E-03
  28 F= -.23350153E+04 E0= -.23350153E+04  d E =-.333228E-01  mag=     6.0000
       N       E                     dE             d eps       ncg     rms          rms(c)
DAV:   1    -0.231413142774E+04    0.19263E-01   -0.74726E+00  4480   0.215E+00    0.622E-01
RMM:   2    -0.231416919042E+04   -0.37763E-01   -0.40397E-01  5928   0.393E-01    0.421E-01
RMM:   3    -0.231417047840E+04   -0.12880E-02   -0.34602E-02  5630   0.132E-01    0.412E-01
RMM:   4    -0.231416899549E+04    0.14829E-02   -0.35018E-03  5706   0.330E-02    0.190E-01
RMM:   5    -0.231416886505E+04    0.13044E-03   -0.15159E-03  5066   0.239E-02    0.204E-01
RMM:   6    -0.231416853598E+04    0.32907E-03   -0.95628E-04  4973   0.180E-02    0.104E-01
RMM:   7    -0.231416843859E+04    0.97398E-04   -0.15932E-04  3802   0.940E-03    0.250E-02
RMM:   8    -0.231416843079E+04    0.77990E-05   -0.26997E-05  2948   0.555E-03
  29 F= -.23350316E+04 E0= -.23350316E+04  d E =-.162919E-01  mag=     6.0000
       N       E                     dE             d eps       ncg     rms          rms(c)
DAV:   1    -0.231416373785E+04    0.47007E-02   -0.14104E+00  4608   0.939E-01    0.269E-01
RMM:   2    -0.231417077818E+04   -0.70403E-02   -0.75458E-02  5938   0.171E-01    0.174E-01
RMM:   3    -0.231417104852E+04   -0.27034E-03   -0.65311E-03  5324   0.582E-02    0.176E-01
RMM:   4    -0.231417078012E+04    0.26840E-03   -0.65118E-04  4619   0.144E-02    0.823E-02
RMM:   5    -0.231417074868E+04    0.31440E-04   -0.29035E-04  4129   0.113E-02    0.841E-02
RMM:   6    -0.231417069919E+04    0.49486E-04   -0.18087E-04  3395   0.886E-03    0.476E-02
RMM:   7    -0.231417067702E+04    0.22174E-04   -0.31100E-05  2957   0.570E-03    0.105E-02
RMM:   8    -0.231417067590E+04    0.11167E-05   -0.73894E-06  2878   0.349E-03
  30 F= -.23350332E+04 E0= -.23350332E+04  d E =-.179030E-01  mag=     6.0000
       N       E                     dE             d eps       ncg     rms          rms(c)
DAV:   1    -0.231415246501E+04    0.18212E-01   -0.37623E+00  4496   0.180E+00    0.499E-01
RMM:   2    -0.231418175193E+04   -0.29287E-01   -0.30693E-01  5907   0.350E-01    0.372E-01
RMM:   3    -0.231418331375E+04   -0.15618E-02   -0.28990E-02  5585   0.121E-01    0.353E-01
RMM:   4    -0.231418207113E+04    0.12426E-02   -0.27656E-03  5411   0.289E-02    0.139E-01
RMM:   5    -0.231418198522E+04    0.85906E-04   -0.81979E-04  4980   0.184E-02    0.154E-01
RMM:   6    -0.231418177523E+04    0.20999E-03   -0.53888E-04  4968   0.149E-02    0.789E-02
RMM:   7    -0.231418172040E+04    0.54836E-04   -0.12223E-04  3898   0.937E-03    0.193E-02
RMM:   8    -0.231418171303E+04    0.73615E-05   -0.21683E-05  2914   0.531E-03
  31 F= -.23350432E+04 E0= -.23350432E+04  d E =-.100008E-01  mag=     6.0000
       N       E                     dE             d eps       ncg     rms          rms(c)
DAV:   1    -0.231416366117E+04    0.18059E-01   -0.27071E+00  4512   0.153E+00    0.425E-01
RMM:   2    -0.231418474247E+04   -0.21081E-01   -0.22123E-01  5914   0.298E-01    0.313E-01
RMM:   3    -0.231418592266E+04   -0.11802E-02   -0.21192E-02  5548   0.106E-01    0.299E-01
RMM:   4    -0.231418502075E+04    0.90191E-03   -0.20000E-03  5294   0.247E-02    0.118E-01
RMM:   5    -0.231418494010E+04    0.80658E-04   -0.60806E-04  4825   0.160E-02    0.125E-01
RMM:   6    -0.231418481089E+04    0.12920E-03   -0.39046E-04  4678   0.129E-02    0.726E-02
RMM:   7    -0.231418476148E+04    0.49413E-04   -0.92355E-05  3651   0.821E-03    0.170E-02
RMM:   8    -0.231418475597E+04    0.55092E-05   -0.17291E-05  2909   0.509E-03
  32 F= -.23350454E+04 E0= -.23350454E+04  d E =-.121638E-01  mag=     6.0000
       N       E                     dE             d eps       ncg     rms          rms(c)
DAV:   1    -0.231416801253E+04    0.16749E-01   -0.26660E+00  4480   0.161E+00    0.426E-01
RMM:   2    -0.231419247103E+04   -0.24459E-01   -0.25761E-01  5895   0.319E-01    0.295E-01
RMM:   3    -0.231419446662E+04   -0.19956E-02   -0.27442E-02  5620   0.117E-01    0.282E-01
RMM:   4    -0.231419370547E+04    0.76115E-03   -0.23754E-03  5315   0.253E-02    0.123E-01
RMM:   5    -0.231419356557E+04    0.13990E-03   -0.50409E-04  4588   0.155E-02    0.973E-02
RMM:   6    -0.231419355757E+04    0.79949E-05   -0.37305E-04  4582   0.131E-02    0.991E-02
RMM:   7    -0.231419346471E+04    0.92867E-04   -0.12402E-04  3926   0.914E-03    0.200E-02
RMM:   8    -0.231419345962E+04    0.50905E-05   -0.19843E-05  2922   0.515E-03
  33 F= -.23350531E+04 E0= -.23350531E+04  d E =-.773122E-02  mag=     6.0000
       N       E                     dE             d eps       ncg     rms          rms(c)
DAV:   1    -0.231416571675E+04    0.27748E-01   -0.32983E+00  4464   0.179E+00    0.475E-01
RMM:   2    -0.231419604534E+04   -0.30329E-01   -0.31990E-01  5891   0.356E-01    0.326E-01
RMM:   3    -0.231419852070E+04   -0.24754E-02   -0.34123E-02  5638   0.130E-01    0.312E-01
RMM:   4    -0.231419758892E+04    0.93178E-03   -0.29243E-03  5460   0.281E-02    0.137E-01
RMM:   5    -0.231419738721E+04    0.20171E-03   -0.63150E-04  4709   0.173E-02    0.979E-02
RMM:   6    -0.231419742473E+04   -0.37529E-04   -0.46664E-04  4743   0.147E-02    0.121E-01
RMM:   7    -0.231419728059E+04    0.14414E-03   -0.16225E-04  4206   0.100E-02    0.230E-02
RMM:   8    -0.231419727252E+04    0.80770E-05   -0.26176E-05  2946   0.511E-03
  34 F= -.23350559E+04 E0= -.23350559E+04  d E =-.104625E-01  mag=     6.0000
       N       E                     dE             d eps       ncg     rms          rms(c)
DAV:   1    -0.231418166091E+04    0.15620E-01   -0.21911E+00  4496   0.152E+00    0.395E-01
RMM:   2    -0.231420446288E+04   -0.22802E-01   -0.24195E-01  5948   0.305E-01    0.240E-01
RMM:   3    -0.231420656828E+04   -0.21054E-02   -0.26027E-02  5598   0.113E-01    0.227E-01
RMM:   4    -0.231420614258E+04    0.42570E-03   -0.22348E-03  5273   0.234E-02    0.118E-01
RMM:   5    -0.231420600078E+04    0.14180E-03   -0.36992E-04  4182   0.134E-02    0.738E-02
RMM:   6    -0.231420604423E+04   -0.43454E-04   -0.31254E-04  4463   0.123E-02    0.105E-01
RMM:   7    -0.231420593921E+04    0.10502E-03   -0.11657E-04  3809   0.875E-03    0.219E-02
RMM:   8    -0.231420593353E+04    0.56864E-05   -0.19110E-05  2933   0.450E-03
  35 F= -.23350635E+04 E0= -.23350635E+04  d E =-.763056E-02  mag=     6.0000
       N       E                     dE             d eps       ncg     rms          rms(c)
DAV:   1    -0.231413289337E+04    0.73046E-01   -0.72087E+00  4480   0.276E+00    0.719E-01
RMM:   2    -0.231420823463E+04   -0.75341E-01   -0.80054E-01  5926   0.553E-01    0.435E-01
RMM:   3    -0.231421515194E+04   -0.69173E-02   -0.85781E-02  5679   0.202E-01    0.419E-01
RMM:   4    -0.231421371918E+04    0.14328E-02   -0.72784E-03  5858   0.423E-02    0.216E-01
RMM:   5    -0.231421325594E+04    0.46324E-03   -0.12764E-03  4741   0.236E-02    0.139E-01
RMM:   6    -0.231421339471E+04   -0.13877E-03   -0.10941E-03  5232   0.215E-02    0.195E-01
RMM:   7    -0.231421303232E+04    0.36239E-03   -0.40637E-04  5050   0.148E-02    0.427E-02
RMM:   8    -0.231421300895E+04    0.23371E-04   -0.62331E-05  3082   0.589E-03    0.182E-02
RMM:   9    -0.231421300445E+04    0.44928E-05   -0.23137E-05  2900   0.453E-03
  36 F= -.23350687E+04 E0= -.23350687E+04  d E =-.128198E-01  mag=     6.0000
       N       E                     dE             d eps       ncg     rms          rms(c)
DAV:   1    -0.231420268579E+04    0.10323E-01   -0.13947E+00  4544   0.122E+00    0.323E-01
RMM:   2    -0.231421864899E+04   -0.15963E-01   -0.16857E-01  5937   0.244E-01    0.195E-01
RMM:   3    -0.231422028778E+04   -0.16388E-02   -0.17992E-02  5620   0.913E-02    0.201E-01
RMM:   4    -0.231421995588E+04    0.33190E-03   -0.15902E-03  4652   0.190E-02    0.992E-02
RMM:   5    -0.231421987891E+04    0.76967E-04   -0.21776E-04  3834   0.101E-02    0.758E-02
RMM:   6    -0.231421985112E+04    0.27785E-04   -0.18284E-04  3786   0.950E-03    0.611E-02
RMM:   7    -0.231421981839E+04    0.32732E-04   -0.74963E-05  3617   0.742E-03    0.167E-02
RMM:   8    -0.231421981623E+04    0.21616E-05   -0.10542E-05  2894   0.476E-03
  37 F= -.23350747E+04 E0= -.23350747E+04  d E =-.602501E-02  mag=     6.0000
       N       E                     dE             d eps       ncg     rms          rms(c)
DAV:   1    -0.231407711170E+04    0.14271E+00   -0.12539E+01  4480   0.365E+00    0.967E-01
RMM:   2    -0.231422065630E+04   -0.14354E+00   -0.15197E+00  6003   0.740E-01    0.574E-01
RMM:   3    -0.231423548207E+04   -0.14826E-01   -0.16706E-01  5800   0.259E-01    0.585E-01
RMM:   4    -0.231423281810E+04    0.26640E-02   -0.14376E-02  5964   0.562E-02    0.308E-01
RMM:   5    -0.231423201306E+04    0.80504E-03   -0.20341E-03  5093   0.272E-02    0.220E-01
RMM:   6    -0.231423184489E+04    0.16817E-03   -0.18160E-03  5382   0.261E-02    0.204E-01
RMM:   7    -0.231423147184E+04    0.37304E-03   -0.74703E-04  5153   0.186E-02    0.625E-02
RMM:   8    -0.231423143005E+04    0.41795E-04   -0.11019E-04  3350   0.941E-03    0.259E-02
RMM:   9    -0.231423142574E+04    0.43064E-05   -0.48840E-05  2957   0.601E-03
  38 F= -.23350839E+04 E0= -.23350839E+04  d E =-.152451E-01  mag=     6.0000
       N       E                     dE             d eps       ncg     rms          rms(c)
DAV:   1    -0.231421174291E+04    0.19687E-01   -0.22893E+00  4480   0.152E+00    0.423E-01
RMM:   2    -0.231423936617E+04   -0.27623E-01   -0.29301E-01  5981   0.310E-01    0.263E-01
RMM:   3    -0.231424189788E+04   -0.25317E-02   -0.30788E-02  5782   0.111E-01    0.244E-01
RMM:   4    -0.231424148518E+04    0.41270E-03   -0.27198E-03  5227   0.241E-02    0.129E-01
RMM:   5    -0.231424136542E+04    0.11977E-03   -0.41754E-04  4289   0.129E-02    0.102E-01
RMM:   6    -0.231424131548E+04    0.49940E-04   -0.31648E-04  4362   0.116E-02    0.856E-02
RMM:   7    -0.231424124988E+04    0.65598E-04   -0.12734E-04  4149   0.886E-03    0.232E-02
RMM:   8    -0.231424124669E+04    0.31899E-05   -0.19999E-05  2941   0.524E-03
  39 F= -.23350927E+04 E0= -.23350927E+04  d E =-.881475E-02  mag=     6.0000
       N       E                     dE             d eps       ncg     rms          rms(c)
DAV:   1    -0.231407624431E+04    0.16501E+00   -0.13485E+01  4480   0.369E+00    0.103E+00
RMM:   2    -0.231424118678E+04   -0.16494E+00   -0.17511E+00  5998   0.769E-01    0.646E-01
RMM:   3    -0.231425591663E+04   -0.14730E-01   -0.18738E-01  5860   0.262E-01    0.577E-01
RMM:   4    -0.231425379895E+04    0.21177E-02   -0.15769E-02  5931   0.580E-02    0.319E-01
RMM:   5    -0.231425304627E+04    0.75269E-03   -0.24817E-03  5049   0.296E-02    0.244E-01
RMM:   6    -0.231425277861E+04    0.26765E-03   -0.19511E-03  5405   0.270E-02    0.219E-01
RMM:   7    -0.231425234208E+04    0.43653E-03   -0.81527E-04  5318   0.196E-02    0.701E-02
RMM:   8    -0.231425229985E+04    0.42229E-04   -0.15702E-04  3641   0.994E-03    0.320E-02
RMM:   9    -0.231425229354E+04    0.63097E-05   -0.41826E-05  2932   0.611E-03
  40 F= -.23351013E+04 E0= -.23351013E+04  d E =-.173781E-01  mag=     6.0000
       N       E                     dE             d eps       ncg     rms          rms(c)
DAV:   1    -0.231423089923E+04    0.21401E-01   -0.20709E+00  4544   0.142E+00    0.399E-01
RMM:   2    -0.231425741001E+04   -0.26511E-01   -0.28229E-01  6021   0.294E-01    0.235E-01
RMM:   3    -0.231426003752E+04   -0.26275E-02   -0.31428E-02  5762   0.109E-01    0.198E-01
RMM:   4    -0.231425986027E+04    0.17725E-03   -0.25547E-03  4907   0.217E-02    0.119E-01
RMM:   5    -0.231425974249E+04    0.11777E-03   -0.32074E-04  3782   0.116E-02    0.826E-02
RMM:   6    -0.231425974010E+04    0.23980E-05   -0.27015E-04  4204   0.111E-02    0.900E-02
RMM:   7    -0.231425966511E+04    0.74990E-04   -0.11610E-04  3901   0.831E-03    0.253E-02
RMM:   8    -0.231425966080E+04    0.43067E-05   -0.19650E-05  2939   0.478E-03
  41 F= -.23351077E+04 E0= -.23351077E+04  d E =-.637175E-02  mag=     6.0000
       N       E                     dE             d eps       ncg     rms          rms(c)
DAV:   1    -0.231401171123E+04    0.24795E+00   -0.18603E+01  4464   0.427E+00    0.120E+00
RMM:   2    -0.231425471751E+04   -0.24301E+00   -0.25865E+00  6062   0.898E-01    0.757E-01
RMM:   3    -0.231427756061E+04   -0.22843E-01   -0.29196E-01  5863   0.313E-01    0.618E-01
RMM:   4    -0.231427576186E+04    0.17987E-02   -0.22672E-02  5944   0.643E-02    0.355E-01
RMM:   5    -0.231427459466E+04    0.11672E-02   -0.28902E-03  4924   0.333E-02    0.228E-01
RMM:   6    -0.231427465528E+04   -0.60621E-04   -0.27636E-03  5268   0.320E-02    0.268E-01
RMM:   7    -0.231427399089E+04    0.66439E-03   -0.95313E-04  5152   0.209E-02    0.102E-01
RMM:   8    -0.231427389985E+04    0.91044E-04   -0.26315E-04  4148   0.953E-03    0.412E-02
RMM:   9    -0.231427388171E+04    0.18137E-04   -0.64759E-05  2943   0.751E-03    0.159E-02
RMM:  10    -0.231427388418E+04   -0.24704E-05   -0.18159E-05  2931   0.332E-03
  42 F= -.23351189E+04 E0= -.23351189E+04  d E =-.175630E-01  mag=     6.0000
       N       E                     dE             d eps       ncg     rms          rms(c)
DAV:   1    -0.231423110942E+04    0.42772E-01   -0.32850E+00  4496   0.179E+00    0.498E-01
RMM:   2    -0.231427277645E+04   -0.41667E-01   -0.44439E-01  6046   0.367E-01    0.293E-01
RMM:   3    -0.231427690797E+04   -0.41315E-02   -0.49555E-02  5773   0.133E-01    0.249E-01
RMM:   4    -0.231427663645E+04    0.27152E-03   -0.41198E-03  5351   0.270E-02    0.153E-01
RMM:   5    -0.231427644699E+04    0.18945E-03   -0.48956E-04  4113   0.138E-02    0.109E-01
RMM:   6    -0.231427640750E+04    0.39494E-04   -0.43637E-04  4608   0.135E-02    0.106E-01
RMM:   7    -0.231427630371E+04    0.10379E-03   -0.18624E-04  4385   0.987E-03    0.333E-02
RMM:   8    -0.231427629386E+04    0.98529E-05   -0.29610E-05  2979   0.538E-03
  43 F= -.23351200E+04 E0= -.23351200E+04  d E =-.186827E-01  mag=     6.0000
       N       E                     dE             d eps       ncg     rms          rms(c)
DAV:   1    -0.231420126322E+04    0.75040E-01   -0.52853E+00  4480   0.223E+00    0.689E-01
RMM:   2    -0.231428169508E+04   -0.80432E-01   -0.86416E-01  6045   0.488E-01    0.395E-01
RMM:   3    -0.231428924281E+04   -0.75477E-02   -0.93212E-02  5849   0.173E-01    0.304E-01
RMM:   4    -0.231428909156E+04    0.15125E-03   -0.77206E-03  5736   0.354E-02    0.215E-01
RMM:   5    -0.231428871828E+04    0.37328E-03   -0.95775E-04  4943   0.196E-02    0.148E-01
RMM:   6    -0.231428866413E+04    0.54150E-04   -0.87232E-04  4886   0.167E-02    0.145E-01
RMM:   7    -0.231428847178E+04    0.19235E-03   -0.33213E-04  4605   0.122E-02    0.508E-02
RMM:   8    -0.231428844416E+04    0.27624E-04   -0.51672E-05  3009   0.604E-03    0.174E-02
RMM:   9    -0.231428844053E+04    0.36233E-05   -0.19644E-05  2889   0.438E-03
  44 F= -.23351307E+04 E0= -.23351307E+04  d E =-.106979E-01  mag=     6.0000
       N       E                     dE             d eps       ncg     rms          rms(c)
DAV:   1    -0.231418188269E+04    0.10656E+00   -0.67564E+00  4480   0.253E+00    0.780E-01
RMM:   2    -0.231428567222E+04   -0.10379E+00   -0.11152E+00  6049   0.552E-01    0.456E-01
RMM:   3    -0.231429484810E+04   -0.91759E-02   -0.11486E-01  5867   0.191E-01    0.364E-01
RMM:   4    -0.231429451027E+04    0.33783E-03   -0.97683E-03  5833   0.404E-02    0.247E-01
RMM:   5    -0.231429401880E+04    0.49147E-03   -0.12335E-03  5087   0.221E-02    0.173E-01
RMM:   6    -0.231429392532E+04    0.93482E-04   -0.11081E-03  5002   0.186E-02    0.163E-01
RMM:   7    -0.231429367674E+04    0.24858E-03   -0.45427E-04  4921   0.137E-02    0.549E-02
RMM:   8    -0.231429364359E+04    0.33149E-04   -0.63657E-05  3085   0.679E-03    0.196E-02
RMM:   9    -0.231429363886E+04    0.47347E-05   -0.24767E-05  2897   0.474E-03
  45 F= -.23351342E+04 E0= -.23351342E+04  d E =-.142315E-01  mag=     6.0000
       N       E                     dE             d eps       ncg     rms          rms(c)
DAV:   1    -0.231421672570E+04    0.76918E-01   -0.45105E+00  4496   0.201E+00    0.659E-01
RMM:   2    -0.231429656326E+04   -0.79838E-01   -0.85436E-01  6103   0.458E-01    0.422E-01
RMM:   3    -0.231430411160E+04   -0.75483E-02   -0.91792E-02  5888   0.164E-01    0.331E-01
RMM:   4    -0.231430374376E+04    0.36783E-03   -0.77974E-03  5673   0.337E-02    0.197E-01
RMM:   5    -0.231430339895E+04    0.34481E-03   -0.82007E-04  4425   0.174E-02    0.124E-01
RMM:   6    -0.231430344707E+04   -0.48115E-04   -0.78599E-04  4984   0.165E-02    0.155E-01
RMM:   7    -0.231430322183E+04    0.22524E-03   -0.29541E-04  4240   0.117E-02    0.507E-02
RMM:   8    -0.231430319762E+04    0.24210E-04   -0.62719E-05  3098   0.562E-03    0.186E-02
RMM:   9    -0.231430319377E+04    0.38485E-05   -0.14674E-05  2878   0.427E-03
  46 F= -.23351423E+04 E0= -.23351423E+04  d E =-.811244E-02  mag=     6.0000
       N       E                     dE             d eps       ncg     rms          rms(c)
DAV:   1    -0.231423091144E+04    0.72286E-01   -0.39650E+00  4512   0.189E+00    0.618E-01
RMM:   2    -0.231430089283E+04   -0.69981E-01   -0.74973E-01  6110   0.429E-01    0.394E-01
RMM:   3    -0.231430780407E+04   -0.69112E-02   -0.82959E-02  5887   0.156E-01    0.310E-01
RMM:   4    -0.231430749364E+04    0.31043E-03   -0.69858E-03  5600   0.317E-02    0.187E-01
RMM:   5    -0.231430719471E+04    0.29893E-03   -0.71625E-04  4258   0.162E-02    0.121E-01
RMM:   6    -0.231430722323E+04   -0.28526E-04   -0.67996E-04  4895   0.156E-02    0.147E-01
RMM:   7    -0.231430702077E+04    0.20247E-03   -0.28096E-04  4316   0.113E-02    0.477E-02
RMM:   8    -0.231430699846E+04    0.22304E-04   -0.55710E-05  3052   0.566E-03    0.173E-02
RMM:   9    -0.231430699475E+04    0.37141E-05   -0.13531E-05  2879   0.417E-03
  47 F= -.23351448E+04 E0= -.23351448E+04  d E =-.105429E-01  mag=     6.0000
       N       E                     dE             d eps       ncg     rms          rms(c)
DAV:   1    -0.231420633914E+04    0.10066E+00   -0.49662E+00  4480   0.209E+00    0.739E-01
RMM:   2    -0.231431102743E+04   -0.10469E+00   -0.11066E+00  6103   0.507E-01    0.585E-01
RMM:   3    -0.231432065836E+04   -0.96309E-02   -0.12322E-01  5909   0.185E-01    0.475E-01
RMM:   4    -0.231431926492E+04    0.13934E-02   -0.10552E-02  5678   0.391E-02    0.227E-01
RMM:   5    -0.231431893837E+04    0.32655E-03   -0.10130E-03  4770   0.174E-02    0.190E-01
RMM:   6    -0.231431861329E+04    0.32507E-03   -0.80970E-04  4992   0.163E-02    0.116E-01
RMM:   7    -0.231431849214E+04    0.12115E-03   -0.44280E-04  4890   0.132E-02    0.486E-02
RMM:   8    -0.231431847170E+04    0.20440E-04   -0.69001E-05  3087   0.801E-03    0.228E-02
RMM:   9    -0.231431846703E+04    0.46744E-05   -0.21609E-05  2884   0.467E-03
  48 F= -.23351548E+04 E0= -.23351548E+04  d E =-.100193E-01  mag=     6.0000
       N       E                     dE             d eps       ncg     rms          rms(c)
DAV:   1    -0.231423977467E+04    0.78697E-01   -0.36508E+00  4520   0.179E+00    0.632E-01
RMM:   2    -0.231431618897E+04   -0.76414E-01   -0.80870E-01  6134   0.434E-01    0.495E-01
RMM:   3    -0.231432382894E+04   -0.76400E-02   -0.94388E-02  5892   0.167E-01    0.409E-01
RMM:   4    -0.231432277128E+04    0.10577E-02   -0.79561E-03  5563   0.339E-02    0.192E-01
RMM:   5    -0.231432252737E+04    0.24390E-03   -0.73198E-04  4501   0.150E-02    0.158E-01
RMM:   6    -0.231432231299E+04    0.21438E-03   -0.59121E-04  4844   0.142E-02    0.103E-01
RMM:   7    -0.231432221703E+04    0.95959E-04   -0.32343E-04  4727   0.115E-02    0.420E-02
RMM:   8    -0.231432220174E+04    0.15294E-04   -0.50259E-05  3001   0.704E-03    0.193E-02
RMM:   9    -0.231432219834E+04    0.34002E-05   -0.16501E-05  2877   0.425E-03
  49 F= -.23351573E+04 E0= -.23351573E+04  d E =-.124903E-01  mag=     6.0000
       N       E                     dE             d eps       ncg     rms          rms(c)
DAV:   1    -0.231419265233E+04    0.12955E+00   -0.58551E+00  4504   0.214E+00    0.821E-01
RMM:   2    -0.231432308409E+04   -0.13043E+00   -0.13800E+00  6244   0.541E-01    0.655E-01
RMM:   3    -0.231433492237E+04   -0.11838E-01   -0.15732E-01  5997   0.200E-01    0.479E-01
RMM:   4    -0.231433373650E+04    0.11859E-02   -0.13087E-02  5704   0.409E-02    0.251E-01
RMM:   5    -0.231433329135E+04    0.44514E-03   -0.11495E-03  4544   0.184E-02    0.191E-01
RMM:   6    -0.231433306578E+04    0.22557E-03   -0.10061E-03  5069   0.173E-02    0.156E-01
RMM:   7    -0.231433285222E+04    0.21356E-03   -0.56827E-04  5051   0.142E-02    0.602E-02
RMM:   8    -0.231433282302E+04    0.29199E-04   -0.97711E-05  3114   0.780E-03    0.297E-02
RMM:   9    -0.231433281483E+04    0.81929E-05   -0.29754E-05  2895   0.520E-03
  50 F= -.23351664E+04 E0= -.23351664E+04  d E =-.917326E-02  mag=     6.0000
       N       E                     dE             d eps       ncg     rms          rms(c)
DAV:   1    -0.231429007541E+04    0.42748E-01   -0.18511E+00  4528   0.121E+00    0.462E-01
RMM:   2    -0.231433143821E+04   -0.41363E-01   -0.43897E-01  6248   0.303E-01    0.346E-01
RMM:   3    -0.231433586859E+04   -0.44304E-02   -0.52795E-02  5878   0.118E-01    0.277E-01
RMM:   4    -0.231433542927E+04    0.43932E-03   -0.42045E-03  4936   0.232E-02    0.139E-01
RMM:   5    -0.231433527332E+04    0.15595E-03   -0.32836E-04  3376   0.106E-02    0.980E-02
RMM:   6    -0.231433524637E+04    0.26950E-04   -0.33978E-04  4213   0.109E-02    0.979E-02
RMM:   7    -0.231433515894E+04    0.87430E-04   -0.18294E-04  4052   0.907E-03    0.338E-02
RMM:   8    -0.231433514933E+04    0.96087E-05   -0.30121E-05  2952   0.535E-03
  51 F= -.23351679E+04 E0= -.23351679E+04  d E =-.106827E-01  mag=     6.0000
       N       E                     dE             d eps       ncg     rms          rms(c)
DAV:   1    -0.231424766254E+04    0.87496E-01   -0.38199E+00  4480   0.178E+00    0.705E-01
RMM:   2    -0.231433606295E+04   -0.88400E-01   -0.93365E-01  6148   0.451E-01    0.555E-01
RMM:   3    -0.231434530510E+04   -0.92421E-02   -0.11631E-01  5931   0.175E-01    0.435E-01
RMM:   4    -0.231434402718E+04    0.12779E-02   -0.90262E-03  5707   0.356E-02    0.207E-01
RMM:   5    -0.231434364369E+04    0.38349E-03   -0.86273E-04  4446   0.171E-02    0.144E-01
RMM:   6    -0.231434360483E+04    0.38860E-04   -0.83524E-04  5122   0.164E-02    0.158E-01
RMM:   7    -0.231434337015E+04    0.23468E-03   -0.41356E-04  4810   0.131E-02    0.524E-02
RMM:   8    -0.231434334251E+04    0.27640E-04   -0.71654E-05  3037   0.661E-03    0.236E-02
RMM:   9    -0.231434333517E+04    0.73450E-05   -0.21543E-05  2882   0.492E-03
  52 F= -.23351751E+04 E0= -.23351751E+04  d E =-.715472E-02  mag=     6.0000
       N       E                     dE             d eps       ncg     rms          rms(c)
DAV:   1    -0.231433855991E+04    0.47826E-02   -0.21376E-01  4720   0.419E-01    0.166E-01
RMM:   2    -0.231434343568E+04   -0.48758E-02   -0.51641E-02  6189   0.106E-01    0.123E-01
RMM:   3    -0.231434397674E+04   -0.54107E-03   -0.62400E-03  4891   0.428E-02    0.107E-01
RMM:   4    -0.231434388803E+04    0.88717E-04   -0.50239E-04  3229   0.927E-03    0.466E-02
RMM:   5    -0.231434386417E+04    0.23854E-04   -0.44805E-05  2912   0.524E-03    0.284E-02
RMM:   6    -0.231434386344E+04    0.73249E-06   -0.50126E-05  3124   0.516E-03
  53 F= -.23351754E+04 E0= -.23351754E+04  d E =-.743653E-02  mag=     6.0000
       N       E                     dE             d eps       ncg     rms          rms(c)
DAV:   1    -0.231429036699E+04    0.53497E-01   -0.27229E+00  4496   0.149E+00    0.551E-01
RMM:   2    -0.231434580436E+04   -0.55437E-01   -0.58713E-01  6108   0.358E-01    0.393E-01
RMM:   3    -0.231435155735E+04   -0.57530E-02   -0.69150E-02  5818   0.141E-01    0.317E-01
RMM:   4    -0.231435096635E+04    0.59100E-03   -0.58101E-03  5457   0.282E-02    0.173E-01
RMM:   5    -0.231435068152E+04    0.28483E-03   -0.54222E-04  3943   0.139E-02    0.108E-01
RMM:   6    -0.231435065050E+04    0.31027E-04   -0.59939E-04  4944   0.142E-02    0.119E-01
RMM:   7    -0.231435052812E+04    0.12238E-03   -0.22348E-04  3919   0.106E-02    0.491E-02
RMM:   8    -0.231435050624E+04    0.21877E-04   -0.55721E-05  2991   0.561E-03    0.199E-02
RMM:   9    -0.231435050178E+04    0.44677E-05   -0.13553E-05  2877   0.420E-03
  54 F= -.23351813E+04 E0= -.23351813E+04  d E =-.597279E-02  mag=     6.0000
       N       E                     dE             d eps       ncg     rms          rms(c)
DAV:   1    -0.231431361565E+04    0.36891E-01   -0.17548E+00  4464   0.119E+00    0.443E-01
RMM:   2    -0.231434934472E+04   -0.35729E-01   -0.37790E-01  6137   0.288E-01    0.323E-01
RMM:   3    -0.231435301027E+04   -0.36656E-02   -0.44260E-02  5837   0.113E-01    0.262E-01
RMM:   4    -0.231435257548E+04    0.43480E-03   -0.37620E-03  5124   0.228E-02    0.136E-01
RMM:   5    -0.231435238842E+04    0.18705E-03   -0.33710E-04  3584   0.114E-02    0.831E-02
RMM:   6    -0.231435236449E+04    0.23933E-04   -0.40128E-04  4701   0.119E-02    0.895E-02
RMM:   7    -0.231435229444E+04    0.70048E-04   -0.13220E-04  3270   0.902E-03    0.388E-02
RMM:   8    -0.231435228042E+04    0.14020E-04   -0.34588E-05  2959   0.465E-03    0.158E-02
RMM:   9    -0.231435227736E+04    0.30645E-05   -0.89876E-06  2870   0.348E-03
  55 F= -.23351826E+04 E0= -.23351826E+04  d E =-.720861E-02  mag=     6.0000
       N       E                     dE             d eps       ncg     rms          rms(c)
DAV:   1    -0.231432829665E+04    0.23984E-01   -0.13914E+00  4496   0.108E+00    0.374E-01
RMM:   2    -0.231435543360E+04   -0.27137E-01   -0.28479E-01  6215   0.252E-01    0.285E-01
RMM:   3    -0.231435799373E+04   -0.25601E-02   -0.30804E-02  5811   0.909E-02    0.240E-01
RMM:   4    -0.231435758732E+04    0.40641E-03   -0.27850E-03  4536   0.195E-02    0.114E-01
RMM:   5    -0.231435746620E+04    0.12112E-03   -0.23360E-04  3204   0.934E-03    0.760E-02
RMM:   6    -0.231435744966E+04    0.16542E-04   -0.24781E-04  4124   0.971E-03    0.795E-02
RMM:   7    -0.231435739556E+04    0.54107E-04   -0.11788E-04  3574   0.786E-03    0.296E-02
RMM:   8    -0.231435738897E+04    0.65817E-05   -0.22420E-05  2924   0.487E-03
  56 F= -.23351871E+04 E0= -.23351871E+04  d E =-.456563E-02  mag=     6.0000
       N       E                     dE             d eps       ncg     rms          rms(c)
DAV:   1    -0.231409912477E+04    0.25827E+00   -0.12495E+01  4464   0.323E+00    0.114E+00
RMM:   2    -0.231434918164E+04   -0.25006E+00   -0.26125E+00  6211   0.770E-01    0.971E-01
RMM:   3    -0.231436971133E+04   -0.20530E-01   -0.29617E-01  5957   0.276E-01    0.710E-01
RMM:   4    -0.231436660267E+04    0.31087E-02   -0.25064E-02  5876   0.578E-02    0.348E-01
RMM:   5    -0.231436551725E+04    0.10854E-02   -0.23917E-03  4951   0.258E-02    0.241E-01
RMM:   6    -0.231436528605E+04    0.23121E-03   -0.21989E-03  5523   0.252E-02    0.241E-01
RMM:   7    -0.231436478578E+04    0.50027E-03   -0.10207E-03  5368   0.194E-02    0.947E-02
RMM:   8    -0.231436471750E+04    0.68277E-04   -0.24429E-04  3956   0.100E-02    0.450E-02
RMM:   9    -0.231436469719E+04    0.20313E-04   -0.54123E-05  2905   0.665E-03    0.139E-02
RMM:  10    -0.231436469554E+04    0.16496E-05   -0.15186E-05  2910   0.351E-03
  57 F= -.23351928E+04 E0= -.23351928E+04  d E =-.102306E-01  mag=     6.0000
       N       E                     dE             d eps       ncg     rms          rms(c)
DAV:   1    -0.231431548592E+04    0.49211E-01   -0.27898E+00  4464   0.155E+00    0.531E-01
RMM:   2    -0.231436848495E+04   -0.52999E-01   -0.55669E-01  6174   0.363E-01    0.382E-01
RMM:   3    -0.231437359753E+04   -0.51126E-02   -0.59977E-02  5863   0.128E-01    0.331E-01
RMM:   4    -0.231437282861E+04    0.76891E-03   -0.54274E-03  5411   0.278E-02    0.163E-01
RMM:   5    -0.231437255909E+04    0.26953E-03   -0.51511E-04  3945   0.132E-02    0.997E-02
RMM:   6    -0.231437249739E+04    0.61699E-04   -0.54344E-04  4909   0.139E-02    0.891E-02
RMM:   7    -0.231437244338E+04    0.54006E-04   -0.15777E-04  3539   0.982E-03    0.476E-02
RMM:   8    -0.231437242464E+04    0.18741E-04   -0.38261E-05  2955   0.511E-03    0.169E-02
RMM:   9    -0.231437242264E+04    0.20021E-05   -0.99277E-06  2873   0.366E-03
  58 F= -.23351996E+04 E0= -.23351996E+04  d E =-.682187E-02  mag=     6.0000
       N       E                     dE             d eps       ncg     rms          rms(c)
DAV:   1    -0.231429184705E+04    0.80578E-01   -0.41335E+00  4464   0.189E+00    0.648E-01
RMM:   2    -0.231437054325E+04   -0.78696E-01   -0.82702E-01  6164   0.443E-01    0.467E-01
RMM:   3    -0.231437814581E+04   -0.76026E-02   -0.90417E-02  5905   0.158E-01    0.399E-01
RMM:   4    -0.231437705451E+04    0.10913E-02   -0.80459E-03  5671   0.338E-02    0.199E-01
RMM:   5    -0.231437664870E+04    0.40581E-03   -0.76446E-04  4246   0.158E-02    0.121E-01
RMM:   6    -0.231437652209E+04    0.12661E-03   -0.83512E-04  5045   0.167E-02    0.901E-02
RMM:   7    -0.231437648019E+04    0.41908E-04   -0.20627E-04  3823   0.112E-02    0.625E-02
RMM:   8    -0.231437644638E+04    0.33808E-04   -0.58597E-05  2991   0.557E-03    0.218E-02
RMM:   9    -0.231437644242E+04    0.39549E-05   -0.15008E-05  2883   0.407E-03
  59 F= -.23352025E+04 E0= -.23352025E+04  d E =-.973843E-02  mag=     6.0000
       N       E                     dE             d eps       ncg     rms          rms(c)
DAV:   1    -0.231434776847E+04    0.28678E-01   -0.21211E+00  4464   0.136E+00    0.435E-01
RMM:   2    -0.231437971064E+04   -0.31942E-01   -0.34099E-01  6076   0.298E-01    0.232E-01
RMM:   3    -0.231438239640E+04   -0.26858E-02   -0.34302E-02  5775   0.104E-01    0.156E-01
RMM:   4    -0.231438243821E+04   -0.41817E-04   -0.31063E-03  5180   0.213E-02    0.142E-01
RMM:   5    -0.231438223332E+04    0.20490E-03   -0.35583E-04  4111   0.120E-02    0.832E-02
RMM:   6    -0.231438215282E+04    0.80500E-04   -0.38939E-04  4563   0.124E-02    0.368E-02
RMM:   7    -0.231438215790E+04   -0.50860E-05   -0.63315E-05  3023   0.817E-03
  60 F= -.23352077E+04 E0= -.23352077E+04  d E =-.513201E-02  mag=     6.0000
       N       E                     dE             d eps       ncg     rms          rms(c)
DAV:   1    -0.231434390144E+04    0.38251E-01   -0.24850E+00  4464   0.147E+00    0.473E-01
RMM:   2    -0.231438152785E+04   -0.37626E-01   -0.40216E-01  6075   0.323E-01    0.255E-01
RMM:   3    -0.231438458167E+04   -0.30538E-02   -0.39263E-02  5784   0.112E-01    0.176E-01
RMM:   4    -0.231438460331E+04   -0.21647E-04   -0.36231E-03  5325   0.234E-02    0.158E-01
RMM:   5    -0.231438434863E+04    0.25468E-03   -0.46447E-04  4159   0.133E-02    0.871E-02
RMM:   6    -0.231438425752E+04    0.91119E-04   -0.45031E-04  4552   0.130E-02    0.416E-02
RMM:   7    -0.231438425895E+04   -0.14330E-05   -0.10054E-04  3046   0.104E-02    0.445E-02
RMM:   8    -0.231438424181E+04    0.17140E-04   -0.23948E-05  2899   0.382E-03    0.102E-02
RMM:   9    -0.231438424073E+04    0.10791E-05   -0.81113E-06  2889   0.257E-03
  61 F= -.23352091E+04 E0= -.23352091E+04  d E =-.657663E-02  mag=     6.0000
       N       E                     dE             d eps       ncg     rms          rms(c)
DAV:   1    -0.231435822003E+04    0.26022E-01   -0.20389E+00  4464   0.134E+00    0.396E-01
RMM:   2    -0.231438648821E+04   -0.28268E-01   -0.29938E-01  6074   0.279E-01    0.230E-01
RMM:   3    -0.231438897618E+04   -0.24880E-02   -0.30026E-02  5734   0.969E-02    0.177E-01
RMM:   4    -0.231438889041E+04    0.85769E-04   -0.27604E-03  4864   0.201E-02    0.137E-01
RMM:   5    -0.231438868986E+04    0.20055E-03   -0.35681E-04  3767   0.118E-02    0.751E-02
RMM:   6    -0.231438862610E+04    0.63768E-04   -0.37463E-04  4458   0.119E-02    0.447E-02
RMM:   7    -0.231438861728E+04    0.88130E-05   -0.65169E-05  3015   0.896E-03
  62 F= -.23352132E+04 E0= -.23352132E+04  d E =-.403518E-02  mag=     6.0000
       N       E                     dE             d eps       ncg     rms          rms(c)
DAV:   1    -0.231434142941E+04    0.47197E-01   -0.32780E+00  4464   0.170E+00    0.506E-01
RMM:   2    -0.231438698187E+04   -0.45552E-01   -0.48315E-01  6087   0.354E-01    0.298E-01
RMM:   3    -0.231439111476E+04   -0.41329E-02   -0.50011E-02  5774   0.125E-01    0.231E-01
RMM:   4    -0.231439095746E+04    0.15730E-03   -0.44905E-03  5383   0.257E-02    0.174E-01
RMM:   5    -0.231439064449E+04    0.31297E-03   -0.58367E-04  4183   0.144E-02    0.990E-02
RMM:   6    -0.231439053708E+04    0.10742E-03   -0.61907E-04  4657   0.146E-02    0.619E-02
RMM:   7    -0.231439051918E+04    0.17898E-04   -0.11714E-04  3191   0.106E-02    0.468E-02
RMM:   8    -0.231439049887E+04    0.20309E-04   -0.36500E-05  2955   0.466E-03    0.143E-02
RMM:   9    -0.231439049672E+04    0.21425E-05   -0.11699E-05  2886   0.323E-03
  63 F= -.23352146E+04 E0= -.23352146E+04  d E =-.547789E-02  mag=     6.0000
       N       E                     dE             d eps       ncg     rms          rms(c)
DAV:   1    -0.231437995266E+04    0.10546E-01   -0.12575E+00  4512   0.106E+00    0.314E-01
RMM:   2    -0.231439345593E+04   -0.13503E-01   -0.14233E-01  5897   0.207E-01    0.213E-01
RMM:   3    -0.231439459359E+04   -0.11377E-02   -0.13992E-02  5579   0.757E-02    0.199E-01
RMM:   4    -0.231439430251E+04    0.29107E-03   -0.14905E-03  4723   0.174E-02    0.978E-02
RMM:   5    -0.231439418551E+04    0.11701E-03   -0.26292E-04  4047   0.112E-02    0.532E-02
RMM:   6    -0.231439417019E+04    0.15315E-04   -0.18049E-04  4287   0.986E-03    0.479E-02
RMM:   7    -0.231439415225E+04    0.17941E-04   -0.46778E-05  2974   0.709E-03    0.241E-02
RMM:   8    -0.231439414747E+04    0.47778E-05   -0.12729E-05  2901   0.346E-03
  64 F= -.23352182E+04 E0= -.23352182E+04  d E =-.364351E-02  mag=     6.0000
       N       E                     dE             d eps       ncg     rms          rms(c)
DAV:   1    -0.231438661368E+04    0.75386E-02   -0.73315E-01  4560   0.812E-01    0.240E-01
RMM:   2    -0.231439448910E+04   -0.78754E-02   -0.83056E-02  5852   0.157E-01    0.162E-01
RMM:   3    -0.231439515415E+04   -0.66505E-03   -0.81545E-03  5399   0.586E-02    0.152E-01
RMM:   4    -0.231439498090E+04    0.17325E-03   -0.86699E-04  3991   0.134E-02    0.743E-02
RMM:   5    -0.231439491269E+04    0.68205E-04   -0.15338E-04  3572   0.911E-03    0.410E-02
RMM:   6    -0.231439490650E+04    0.61900E-05   -0.11159E-04  3932   0.821E-03    0.402E-02
RMM:   7    -0.231439489279E+04    0.13712E-04   -0.29900E-05  2912   0.593E-03    0.173E-02
RMM:   8    -0.231439489041E+04    0.23806E-05   -0.82431E-06  2876   0.304E-03
  65 F= -.23352190E+04 E0= -.23352190E+04  d E =-.437932E-02  mag=     6.0000
       N       E                     dE             d eps       ncg     rms          rms(c)
DAV:   1    -0.231438511632E+04    0.97765E-02   -0.11928E+00  4464   0.104E+00    0.315E-01
RMM:   2    -0.231439681167E+04   -0.11695E-01   -0.12434E-01  5823   0.198E-01    0.194E-01
RMM:   3    -0.231439778911E+04   -0.97744E-03   -0.12659E-02  5487   0.748E-02    0.175E-01
RMM:   4    -0.231439758376E+04    0.20534E-03   -0.12317E-03  4762   0.167E-02    0.100E-01
RMM:   5    -0.231439747395E+04    0.10981E-03   -0.27145E-04  4131   0.118E-02    0.563E-02
RMM:   6    -0.231439746902E+04    0.49238E-05   -0.17346E-04  4240   0.980E-03    0.620E-02
RMM:   7    -0.231439743191E+04    0.37116E-04   -0.56173E-05  3063   0.711E-03    0.207E-02
RMM:   8    -0.231439742737E+04    0.45334E-05   -0.12798E-05  2916   0.366E-03
  66 F= -.23352216E+04 E0= -.23352216E+04  d E =-.262109E-02  mag=     6.0000
       N       E                     dE             d eps       ncg     rms          rms(c)
DAV:   1    -0.231439659646E+04    0.83545E-03   -0.88825E-02  4784   0.285E-01    0.863E-02
RMM:   2    -0.231439746826E+04   -0.87180E-03   -0.92853E-03  5927   0.549E-02    0.537E-02
RMM:   3    -0.231439754204E+04   -0.73777E-04   -0.94018E-04  3831   0.222E-02    0.487E-02
RMM:   4    -0.231439752609E+04    0.15943E-04   -0.92738E-05  2955   0.574E-03    0.271E-02
RMM:   5    -0.231439751783E+04    0.82675E-05   -0.22053E-05  2870   0.407E-03
  67 F= -.23352217E+04 E0= -.23352217E+04  d E =-.273420E-02  mag=     6.0000
       N       E                     dE             d eps       ncg     rms          rms(c)
DAV:   1    -0.231439326364E+04    0.42625E-02   -0.62229E-01  4496   0.763E-01    0.209E-01
RMM:   2    -0.231439932115E+04   -0.60575E-02   -0.63786E-02  5966   0.146E-01    0.140E-01
RMM:   3    -0.231439976538E+04   -0.44423E-03   -0.63757E-03  5469   0.550E-02    0.118E-01
RMM:   4    -0.231439967143E+04    0.93957E-04   -0.62890E-04  3811   0.121E-02    0.674E-02
RMM:   5    -0.231439962401E+04    0.47415E-04   -0.12245E-04  3554   0.886E-03    0.459E-02
RMM:   6    -0.231439962539E+04   -0.13734E-05   -0.96197E-05  3124   0.767E-03
  68 F= -.23352239E+04 E0= -.23352239E+04  d E =-.222795E-02  mag=     6.0000
       N       E                     dE             d eps       ncg     rms          rms(c)
DAV:   1    -0.231438753316E+04    0.12091E-01   -0.12387E+00  4480   0.108E+00    0.296E-01
RMM:   2    -0.231439956922E+04   -0.12036E-01   -0.12745E-01  5931   0.206E-01    0.177E-01
RMM:   3    -0.231440045354E+04   -0.88433E-03   -0.12773E-02  5589   0.740E-02    0.135E-01
RMM:   4    -0.231440038582E+04    0.67729E-04   -0.12298E-03  4665   0.160E-02    0.101E-01
RMM:   5    -0.231440027945E+04    0.10636E-03   -0.24808E-04  4074   0.117E-02    0.533E-02
RMM:   6    -0.231440025891E+04    0.20542E-04   -0.16231E-04  4181   0.928E-03    0.324E-02
RMM:   7    -0.231440025451E+04    0.43992E-05   -0.32021E-05  2928   0.667E-03
  69 F= -.23352247E+04 E0= -.23352247E+04  d E =-.302566E-02  mag=     6.0000
       N       E                     dE             d eps       ncg     rms          rms(c)
DAV:   1    -0.231439871526E+04    0.15436E-02   -0.26663E-01  4592   0.489E-01    0.132E-01
RMM:   2    -0.231440120041E+04   -0.24851E-02   -0.26194E-02  5888   0.916E-02    0.882E-02
RMM:   3    -0.231440138442E+04   -0.18401E-03   -0.26100E-03  4713   0.342E-02    0.730E-02
RMM:   4    -0.231440134889E+04    0.35529E-04   -0.25544E-04  3092   0.796E-03    0.433E-02
RMM:   5    -0.231440133381E+04    0.15085E-04   -0.45552E-05  2979   0.553E-03    0.337E-02
RMM:   6    -0.231440133047E+04    0.33401E-05   -0.39829E-05  2913   0.508E-03
  70 F= -.23352260E+04 E0= -.23352260E+04  d E =-.122042E-02  mag=     6.0000
       N       E                     dE             d eps       ncg     rms          rms(c)
DAV:   1    -0.231437894636E+04    0.22387E-01   -0.23955E+00  4480   0.147E+00    0.392E-01
RMM:   2    -0.231440117872E+04   -0.22232E-01   -0.23465E-01  5821   0.274E-01    0.250E-01
RMM:   3    -0.231440281827E+04   -0.16396E-02   -0.23541E-02  5541   0.979E-02    0.200E-01
RMM:   4    -0.231440259980E+04    0.21847E-03   -0.23049E-03  5278   0.212E-02    0.134E-01
RMM:   5    -0.231440244637E+04    0.15343E-03   -0.39926E-04  4440   0.130E-02    0.101E-01
RMM:   6    -0.231440240962E+04    0.36744E-04   -0.37583E-04  4415   0.121E-02    0.849E-02
RMM:   7    -0.231440234590E+04    0.63720E-04   -0.11394E-04  3642   0.849E-03    0.195E-02
RMM:   8    -0.231440234274E+04    0.31615E-05   -0.17411E-05  2925   0.515E-03
  71 F= -.23352274E+04 E0= -.23352274E+04  d E =-.266194E-02  mag=     6.0000
       N       E                     dE             d eps       ncg     rms          rms(c)
DAV:   1    -0.231440111742E+04    0.12285E-02   -0.24250E-01  4592   0.459E-01    0.135E-01
RMM:   2    -0.231440352606E+04   -0.24086E-02   -0.25435E-02  6044   0.933E-02    0.968E-02
RMM:   3    -0.231440365246E+04   -0.12640E-03   -0.23859E-03  4838   0.337E-02    0.761E-02
RMM:   4    -0.231440360751E+04    0.44945E-04   -0.23885E-04  3123   0.830E-03    0.436E-02
RMM:   5    -0.231440358396E+04    0.23549E-04   -0.66311E-05  3132   0.703E-03    0.213E-02
RMM:   6    -0.231440358708E+04   -0.31158E-05   -0.33648E-05  2989   0.579E-03
  72 F= -.23352289E+04 E0= -.23352289E+04  d E =-.150107E-02  mag=     6.0000
       N       E                     dE             d eps       ncg     rms          rms(c)
DAV:   1    -0.231439851983E+04    0.50641E-02   -0.53275E-01  4496   0.680E-01    0.201E-01
RMM:   2    -0.231440377075E+04   -0.52509E-02   -0.55779E-02  5878   0.137E-01    0.134E-01
RMM:   3    -0.231440406993E+04   -0.29918E-03   -0.52729E-03  5421   0.495E-02    0.108E-01
RMM:   4    -0.231440398678E+04    0.83146E-04   -0.53201E-04  3653   0.114E-02    0.679E-02
RMM:   5    -0.231440395010E+04    0.36683E-04   -0.13736E-04  3506   0.892E-03    0.561E-02
RMM:   6    -0.231440393476E+04    0.15343E-04   -0.10268E-04  3178   0.795E-03    0.401E-02
RMM:   7    -0.231440392131E+04    0.13445E-04   -0.25916E-05  2936   0.581E-03    0.960E-03
RMM:   8    -0.231440392052E+04    0.79445E-06   -0.63219E-06  2875   0.341E-03
  73 F= -.23352296E+04 E0= -.23352296E+04  d E =-.221166E-02  mag=     6.0000
       N       E                     dE             d eps       ncg     rms          rms(c)
DAV:   1    -0.231440282221E+04    0.10991E-02   -0.18013E-01  4576   0.406E-01    0.126E-01
RMM:   2    -0.231440474609E+04   -0.19239E-02   -0.19754E-02  5951   0.837E-02    0.110E-01
RMM:   3    -0.231440478993E+04   -0.43844E-04   -0.17639E-03  4641   0.303E-02    0.822E-02
RMM:   4    -0.231440471943E+04    0.70504E-04   -0.18441E-04  3089   0.773E-03    0.338E-02
RMM:   5    -0.231440471096E+04    0.84693E-05   -0.48586E-05  2978   0.568E-03
  74 F= -.23352306E+04 E0= -.23352306E+04  d E =-.969436E-03  mag=     6.0000
       N       E                     dE             d eps       ncg     rms          rms(c)
DAV:   1    -0.231439987052E+04    0.48489E-02   -0.47227E-01  4496   0.658E-01    0.204E-01
RMM:   2    -0.231440485129E+04   -0.49808E-02   -0.51505E-02  6054   0.137E-01    0.174E-01
RMM:   3    -0.231440500625E+04   -0.15496E-03   -0.50011E-03  5566   0.508E-02    0.129E-01
RMM:   4    -0.231440483602E+04    0.17023E-03   -0.48669E-04  3846   0.118E-02    0.559E-02
RMM:   5    -0.231440480777E+04    0.28259E-04   -0.13652E-04  3871   0.878E-03    0.534E-02
RMM:   6    -0.231440478814E+04    0.19622E-04   -0.83274E-05  3011   0.745E-03    0.328E-02
RMM:   7    -0.231440477742E+04    0.10723E-04   -0.20286E-05  2913   0.517E-03    0.712E-03
RMM:   8    -0.231440477637E+04    0.10522E-05   -0.53361E-06  2852   0.361E-03
  75 F= -.23352309E+04 E0= -.23352309E+04  d E =-.132129E-02  mag=     6.0000
       N       E                     dE             d eps       ncg     rms          rms(c)
DAV:   1    -0.231440417399E+04    0.60343E-03   -0.10421E-01  4608   0.298E-01    0.888E-02
RMM:   2    -0.231440532657E+04   -0.11526E-02   -0.11478E-02  6116   0.615E-02    0.913E-02
RMM:   3    -0.231440532852E+04   -0.19483E-05   -0.10171E-03  3671   0.197E-02    0.553E-02
RMM:   4    -0.231440529775E+04    0.30770E-04   -0.10845E-04  3003   0.594E-03    0.254E-02
RMM:   5    -0.231440529467E+04    0.30808E-05   -0.20678E-05  2861   0.354E-03
  76 F= -.23352316E+04 E0= -.23352316E+04  d E =-.636443E-03  mag=     6.0000
       N       E                     dE             d eps       ncg     rms          rms(c)
DAV:   1    -0.231439610942E+04    0.91883E-02   -0.93458E-01  4480   0.892E-01    0.265E-01
RMM:   2    -0.231440635032E+04   -0.10241E-01   -0.10250E-01  6044   0.182E-01    0.268E-01
RMM:   3    -0.231440642263E+04   -0.72309E-04   -0.92623E-03  5667   0.593E-02    0.164E-01
RMM:   4    -0.231440615231E+04    0.27031E-03   -0.96752E-04  4241   0.143E-02    0.749E-02
RMM:   5    -0.231440611424E+04    0.38076E-04   -0.18919E-04  3840   0.923E-03    0.753E-02
RMM:   6    -0.231440607322E+04    0.41014E-04   -0.13703E-04  3483   0.847E-03    0.449E-02
RMM:   7    -0.231440605856E+04    0.14663E-04   -0.40778E-05  2982   0.628E-03    0.914E-03
RMM:   8    -0.231440605759E+04    0.96466E-06   -0.71215E-06  2860   0.396E-03
  77 F= -.23352327E+04 E0= -.23352327E+04  d E =-.174593E-02  mag=     6.0000
       N       E                     dE             d eps       ncg     rms          rms(c)
DAV:   1    -0.231436423789E+04    0.41821E-01   -0.37541E+00  4480   0.179E+00    0.534E-01
RMM:   2    -0.231440549656E+04   -0.41259E-01   -0.41211E-01  5983   0.365E-01    0.546E-01
RMM:   3    -0.231440574811E+04   -0.25156E-03   -0.37501E-02  5754   0.122E-01    0.338E-01
RMM:   4    -0.231440461871E+04    0.11294E-02   -0.39681E-03  5282   0.286E-02    0.155E-01
RMM:   5    -0.231440452358E+04    0.95129E-04   -0.66937E-04  4898   0.155E-02    0.168E-01
RMM:   6    -0.231440424212E+04    0.28146E-03   -0.63958E-04  4991   0.160E-02    0.664E-02
RMM:   7    -0.231440421490E+04    0.27217E-04   -0.17028E-04  3843   0.106E-02    0.173E-02
RMM:   8    -0.231440420992E+04    0.49828E-05   -0.17189E-05  2915   0.464E-03
  78 F= -.23352315E+04 E0= -.23352315E+04  d E =-.555508E-03  mag=     6.0000
       N       E                     dE             d eps       ncg     rms          rms(c)
DAV:   1    -0.231438501177E+04    0.19203E-01   -0.19802E+00  4480   0.130E+00    0.388E-01
RMM:   2    -0.231440701322E+04   -0.22001E-01   -0.21877E-01  6006   0.265E-01    0.414E-01
RMM:   3    -0.231440678866E+04    0.22456E-03   -0.17720E-02  5708   0.851E-02    0.249E-01
RMM:   4    -0.231440617805E+04    0.61061E-03   -0.19522E-03  5019   0.209E-02    0.106E-01
RMM:   5    -0.231440609640E+04    0.81653E-04   -0.37638E-04  4502   0.125E-02    0.106E-01
RMM:   6    -0.231440601389E+04    0.82511E-04   -0.27399E-04  4292   0.109E-02    0.635E-02
RMM:   7    -0.231440598662E+04    0.27266E-04   -0.75859E-05  3237   0.741E-03    0.137E-02
RMM:   8    -0.231440598447E+04    0.21570E-05   -0.12274E-05  2900   0.473E-03
  79 F= -.23352328E+04 E0= -.23352328E+04  d E =-.185732E-02  mag=     6.0000
       N       E                     dE             d eps       ncg     rms          rms(c)
DAV:   1    -0.231440589112E+04    0.95501E-04   -0.10091E-01  4528   0.307E-01    0.108E-01
RMM:   2    -0.231440681238E+04   -0.92126E-03   -0.96953E-03  5991   0.647E-02    0.697E-02
RMM:   3    -0.231440685503E+04   -0.42649E-04   -0.85455E-04  4401   0.240E-02    0.705E-02
RMM:   4    -0.231440679843E+04    0.56599E-04   -0.98890E-05  3032   0.712E-03    0.286E-02
RMM:   5    -0.231440679233E+04    0.61044E-05   -0.45052E-05  3009   0.568E-03
  80 F= -.23352337E+04 E0= -.23352337E+04  d E =-.903841E-03  mag=     6.0000
       N       E                     dE             d eps       ncg     rms          rms(c)
DAV:   1    -0.231440590343E+04    0.89500E-03   -0.11170E-01  4544   0.323E-01    0.115E-01
RMM:   2    -0.231440694819E+04   -0.10448E-02   -0.10983E-02  6157   0.703E-02    0.822E-02
RMM:   3    -0.231440698667E+04   -0.38481E-04   -0.10106E-03  4592   0.255E-02    0.769E-02
RMM:   4    -0.231440692211E+04    0.64562E-04   -0.11471E-04  3116   0.768E-03    0.300E-02
RMM:   5    -0.231440691040E+04    0.11712E-04   -0.46757E-05  3120   0.611E-03    0.207E-02
RMM:   6    -0.231440691147E+04   -0.10676E-05   -0.25071E-05  2893   0.549E-03
  81 F= -.23352339E+04 E0= -.23352339E+04  d E =-.112326E-02  mag=     6.0000
       N       E                     dE             d eps       ncg     rms          rms(c)
[...]
RMM:   6    -0.231443323633E+04    0.11665E-05   -0.48149E-05  3109   0.588E-03
 272 F= -.23352686E+04 E0= -.23352686E+04  d E =-.147534E-02  mag=     6.0000
       N       E                     dE             d eps       ncg     rms          rms(c)
DAV:   1    -0.231442830472E+04    0.49328E-02   -0.69666E-01  4480   0.657E-01    0.247E-01
RMM:   2    -0.231443445826E+04   -0.61535E-02   -0.64338E-02  6025   0.149E-01    0.147E-01
RMM:   3    -0.231443465383E+04   -0.19557E-03   -0.52055E-03  5735   0.487E-02    0.158E-01
RMM:   4    -0.231443443643E+04    0.21740E-03   -0.62090E-04  3815   0.129E-02    0.678E-02
RMM:   5    -0.231443438857E+04    0.47861E-04   -0.14742E-04  3927   0.924E-03    0.324E-02
RMM:   6    -0.231443439195E+04   -0.33796E-05   -0.82488E-05  3488   0.761E-03
 273 F= -.23352699E+04 E0= -.23352699E+04  d E =-.137479E-02  mag=     6.0000
       N       E                     dE             d eps       ncg     rms          rms(c)
DAV:   1    -0.231443341974E+04    0.96883E-03   -0.10552E-01  4752   0.256E-01    0.975E-02
RMM:   2    -0.231443435297E+04   -0.93323E-03   -0.98095E-03  6232   0.598E-02    0.523E-02
RMM:   3    -0.231443438551E+04   -0.32539E-04   -0.85962E-04  3733   0.198E-02    0.552E-02
RMM:   4    -0.231443436432E+04    0.21189E-04   -0.95106E-05  3034   0.627E-03    0.288E-02
RMM:   5    -0.231443435611E+04    0.82121E-05   -0.20985E-05  2936   0.383E-03
 274 F= -.23352700E+04 E0= -.23352700E+04  d E =-.142346E-02  mag=     6.0000
       N       E                     dE             d eps       ncg     rms          rms(c)
DAV:   1    -0.231443052274E+04    0.38416E-02   -0.48051E-01  4512   0.546E-01    0.203E-01
RMM:   2    -0.231443511273E+04   -0.45900E-02   -0.47034E-02  6059   0.125E-01    0.146E-01
RMM:   3    -0.231443525594E+04   -0.14321E-03   -0.36785E-03  5482   0.399E-02    0.146E-01
RMM:   4    -0.231443504508E+04    0.21086E-03   -0.45146E-04  3446   0.111E-02    0.527E-02
RMM:   5    -0.231443501793E+04    0.27150E-04   -0.10916E-04  3498   0.778E-03    0.260E-02
RMM:   6    -0.231443502341E+04   -0.54756E-05   -0.49245E-05  3068   0.654E-03
 275 F= -.23352709E+04 E0= -.23352709E+04  d E =-.867808E-03  mag=     6.0000
       N       E                     dE             d eps       ncg     rms          rms(c)
DAV:   1    -0.231443410018E+04    0.91775E-03   -0.91558E-02  4624   0.238E-01    0.895E-02
RMM:   2    -0.231443495831E+04   -0.85813E-03   -0.89526E-03  6210   0.560E-02    0.485E-02
RMM:   3    -0.231443499903E+04   -0.40712E-04   -0.78981E-04  3544   0.185E-02    0.523E-02
RMM:   4    -0.231443497946E+04    0.19571E-04   -0.86776E-05  2999   0.587E-03    0.262E-02
RMM:   5    -0.231443497332E+04    0.61312E-05   -0.17855E-05  2925   0.352E-03
 276 F= -.23352709E+04 E0= -.23352709E+04  d E =-.904726E-03  mag=     6.0000
       N       E                     dE             d eps       ncg     rms          rms(c)
DAV:   1    -0.231443040069E+04    0.45788E-02   -0.57596E-01  4480   0.617E-01    0.227E-01
RMM:   2    -0.231443584157E+04   -0.54409E-02   -0.55886E-02  6025   0.140E-01    0.158E-01
RMM:   3    -0.231443600094E+04   -0.15937E-03   -0.44663E-03  5648   0.443E-02    0.161E-01
RMM:   4    -0.231443574216E+04    0.25878E-03   -0.54466E-04  3737   0.123E-02    0.581E-02
RMM:   5    -0.231443570952E+04    0.32636E-04   -0.13751E-04  3821   0.872E-03    0.317E-02
RMM:   6    -0.231443571800E+04   -0.84799E-05   -0.68236E-05  3251   0.701E-03
 277 F= -.23352719E+04 E0= -.23352719E+04  d E =-.995734E-03  mag=     6.0000
       N       E                     dE             d eps       ncg     rms          rms(c)
DAV:   1    -0.231443504904E+04    0.66048E-03   -0.62995E-02  4752   0.204E-01    0.765E-02
RMM:   2    -0.231443563473E+04   -0.58569E-03   -0.61237E-03  6212   0.479E-02    0.402E-02
RMM:   3    -0.231443566138E+04   -0.26656E-04   -0.56110E-04  3355   0.163E-02    0.434E-02
RMM:   4    -0.231443564823E+04    0.13160E-04   -0.61345E-05  2994   0.521E-03    0.227E-02
RMM:   5    -0.231443564336E+04    0.48688E-05   -0.13054E-05  2914   0.303E-03
 278 F= -.23352719E+04 E0= -.23352719E+04  d E =-.100403E-02  mag=     6.0000
       N       E                     dE             d eps       ncg     rms          rms(c)
DAV:   1    -0.231443048978E+04    0.51584E-02   -0.64525E-01  4480   0.642E-01    0.235E-01
RMM:   2    -0.231443661682E+04   -0.61270E-02   -0.62616E-02  6034   0.146E-01    0.180E-01
RMM:   3    -0.231443668805E+04   -0.71229E-04   -0.48225E-03  5670   0.450E-02    0.169E-01
RMM:   4    -0.231443639998E+04    0.28807E-03   -0.59603E-04  3788   0.127E-02    0.606E-02
RMM:   5    -0.231443636241E+04    0.37572E-04   -0.14835E-04  3842   0.882E-03    0.337E-02
RMM:   6    -0.231443637116E+04   -0.87499E-05   -0.76950E-05  3293   0.729E-03
 279 F= -.23352729E+04 E0= -.23352729E+04  d E =-.978268E-03  mag=     6.0000
       N       E                     dE             d eps       ncg     rms          rms(c)
DAV:   1    -0.231443532011E+04    0.10423E-02   -0.97035E-02  4696   0.249E-01    0.926E-02
RMM:   2    -0.231443622640E+04   -0.90629E-03   -0.94367E-03  6223   0.581E-02    0.557E-02
RMM:   3    -0.231443625681E+04   -0.30409E-04   -0.80074E-04  3600   0.186E-02    0.596E-02
RMM:   4    -0.231443622615E+04    0.30660E-04   -0.91937E-05  3004   0.614E-03    0.265E-02
RMM:   5    -0.231443621968E+04    0.64755E-05   -0.20256E-05  2933   0.374E-03
 280 F= -.23352728E+04 E0= -.23352728E+04  d E =-.923948E-03  mag=     6.0000
       N       E                     dE             d eps       ncg     rms          rms(c)
DAV:   1    -0.231443269294E+04    0.35332E-02   -0.44684E-01  4480   0.522E-01    0.188E-01
RMM:   2    -0.231443701816E+04   -0.43252E-02   -0.43827E-02  6090   0.119E-01    0.148E-01
RMM:   3    -0.231443708811E+04   -0.69952E-04   -0.33882E-03  5275   0.367E-02    0.133E-01
RMM:   4    -0.231443691223E+04    0.17588E-03   -0.40642E-04  3236   0.103E-02    0.493E-02
RMM:   5    -0.231443689030E+04    0.21924E-04   -0.95866E-05  3237   0.712E-03    0.266E-02
RMM:   6    -0.231443689763E+04   -0.73269E-05   -0.49057E-05  3090   0.635E-03
 281 F= -.23352737E+04 E0= -.23352737E+04  d E =-.871532E-03  mag=     6.0000
       N       E                     dE             d eps       ncg     rms          rms(c)
DAV:   1    -0.231443138292E+04    0.55074E-02   -0.58217E-01  4480   0.596E-01    0.214E-01
RMM:   2    -0.231443692241E+04   -0.55395E-02   -0.56864E-02  6112   0.136E-01    0.145E-01
RMM:   3    -0.231443710916E+04   -0.18675E-03   -0.46825E-03  5639   0.420E-02    0.145E-01
RMM:   4    -0.231443691859E+04    0.19057E-03   -0.52887E-04  3353   0.113E-02    0.594E-02
RMM:   5    -0.231443689291E+04    0.25679E-04   -0.10558E-04  3296   0.751E-03    0.390E-02
RMM:   6    -0.231443689963E+04   -0.67195E-05   -0.82127E-05  3087   0.724E-03
 282 F= -.23352739E+04 E0= -.23352739E+04  d E =-.109406E-02  mag=     6.0000
       N       E                     dE             d eps       ncg     rms          rms(c)
DAV:   1    -0.231443269266E+04    0.42003E-02   -0.59810E-01  4480   0.619E-01    0.221E-01
RMM:   2    -0.231443806408E+04   -0.53714E-02   -0.55449E-02  6081   0.139E-01    0.139E-01
RMM:   3    -0.231443828553E+04   -0.22144E-03   -0.45255E-03  5705   0.449E-02    0.147E-01
RMM:   4    -0.231443808575E+04    0.19978E-03   -0.52617E-04  3535   0.118E-02    0.608E-02
RMM:   5    -0.231443805674E+04    0.29012E-04   -0.11937E-04  3534   0.817E-03    0.397E-02
RMM:   6    -0.231443806178E+04   -0.50439E-05   -0.83314E-05  3144   0.743E-03
 283 F= -.23352753E+04 E0= -.23352753E+04  d E =-.136894E-02  mag=     6.0000
       N       E                     dE             d eps       ncg     rms          rms(c)
DAV:   1    -0.231443479927E+04    0.32575E-02   -0.36623E-01  4512   0.485E-01    0.173E-01
RMM:   2    -0.231443809642E+04   -0.32972E-02   -0.34088E-02  6134   0.110E-01    0.106E-01
RMM:   3    -0.231443823494E+04   -0.13851E-03   -0.27884E-03  5348   0.351E-02    0.113E-01
RMM:   4    -0.231443812016E+04    0.11478E-03   -0.32351E-04  3204   0.943E-03    0.488E-02
RMM:   5    -0.231443809944E+04    0.20719E-04   -0.70326E-05  3114   0.655E-03    0.310E-02
RMM:   6    -0.231443810193E+04   -0.24908E-05   -0.53888E-05  2986   0.641E-03
 284 F= -.23352755E+04 E0= -.23352755E+04  d E =-.157095E-02  mag=     6.0000
       N       E                     dE             d eps       ncg     rms          rms(c)
DAV:   1    -0.231443513977E+04    0.29597E-02   -0.46055E-01  4480   0.556E-01    0.199E-01
RMM:   2    -0.231443898650E+04   -0.38467E-02   -0.39548E-02  6042   0.123E-01    0.129E-01
RMM:   3    -0.231443910693E+04   -0.12043E-03   -0.31484E-03  5625   0.403E-02    0.139E-01
RMM:   4    -0.231443891647E+04    0.19046E-03   -0.38993E-04  3480   0.110E-02    0.521E-02
RMM:   5    -0.231443889443E+04    0.22042E-04   -0.98908E-05  3471   0.792E-03    0.355E-02
RMM:   6    -0.231443889782E+04   -0.33944E-05   -0.67422E-05  3057   0.704E-03
 285 F= -.23352765E+04 E0= -.23352765E+04  d E =-.103596E-02  mag=     6.0000
       N       E                     dE             d eps       ncg     rms          rms(c)
DAV:   1    -0.231443765874E+04    0.12357E-02   -0.14302E-01  4624   0.310E-01    0.112E-01
RMM:   2    -0.231443885768E+04   -0.11989E-02   -0.12345E-02  6196   0.694E-02    0.692E-02
RMM:   3    -0.231443889884E+04   -0.41161E-04   -0.99759E-04  4059   0.220E-02    0.767E-02
RMM:   4    -0.231443884273E+04    0.56108E-04   -0.12173E-04  3031   0.710E-03    0.301E-02
RMM:   5    -0.231443883532E+04    0.74176E-05   -0.31548E-05  2963   0.472E-03
 286 F= -.23352766E+04 E0= -.23352766E+04  d E =-.110761E-02  mag=     6.0000
       N       E                     dE             d eps       ncg     rms          rms(c)
DAV:   1    -0.231443657426E+04    0.22685E-02   -0.38094E-01  4496   0.512E-01    0.189E-01
RMM:   2    -0.231443958476E+04   -0.30105E-02   -0.30378E-02  6038   0.110E-01    0.148E-01
RMM:   3    -0.231443959151E+04   -0.67541E-05   -0.23729E-03  5386   0.368E-02    0.140E-01
RMM:   4    -0.231443937491E+04    0.21661E-03   -0.31546E-04  3603   0.107E-02    0.436E-02
RMM:   5    -0.231443935570E+04    0.19203E-04   -0.10535E-04  3708   0.814E-03    0.283E-02
RMM:   6    -0.231443936009E+04   -0.43809E-05   -0.47055E-05  3065   0.630E-03
 287 F= -.23352774E+04 E0= -.23352774E+04  d E =-.807371E-03  mag=     6.0000
       N       E                     dE             d eps       ncg     rms          rms(c)
DAV:   1    -0.231443836230E+04    0.99340E-03   -0.10456E-01  4592   0.268E-01    0.990E-02
RMM:   2    -0.231443917904E+04   -0.81673E-03   -0.83954E-03  6170   0.589E-02    0.638E-02
RMM:   3    -0.231443920227E+04   -0.23232E-04   -0.67246E-04  3779   0.189E-02    0.725E-02
RMM:   4    -0.231443914706E+04    0.55207E-04   -0.88177E-05  2984   0.662E-03    0.248E-02
RMM:   5    -0.231443914153E+04    0.55307E-05   -0.27253E-05  2954   0.432E-03
 288 F= -.23352773E+04 E0= -.23352773E+04  d E =-.737201E-03  mag=     6.0000
       N       E                     dE             d eps       ncg     rms          rms(c)
DAV:   1    -0.231443907104E+04    0.76023E-04   -0.30006E-02  4688   0.144E-01    0.542E-02
RMM:   2    -0.231443931517E+04   -0.24413E-03   -0.24038E-03  6081   0.324E-02    0.525E-02
RMM:   3    -0.231443930602E+04    0.91481E-05   -0.22346E-04  3156   0.112E-02    0.384E-02
RMM:   4    -0.231443929198E+04    0.14036E-04   -0.24578E-05  2919   0.426E-03    0.114E-02
RMM:   5    -0.231443929113E+04    0.84932E-06   -0.69744E-06  2853   0.236E-03
 289 F= -.23352774E+04 E0= -.23352774E+04  d E =-.808230E-03  mag=     6.0000
       N       E                     dE             d eps       ncg     rms          rms(c)
DAV:   1    -0.231443732620E+04    0.19658E-02   -0.32848E-01  4480   0.477E-01    0.174E-01
RMM:   2    -0.231443990199E+04   -0.25758E-02   -0.26481E-02  6015   0.103E-01    0.112E-01
RMM:   3    -0.231443999716E+04   -0.95178E-04   -0.21371E-03  5322   0.332E-02    0.125E-01
RMM:   4    -0.231443983280E+04    0.16436E-03   -0.27197E-04  3364   0.967E-03    0.426E-02
RMM:   5    -0.231443981342E+04    0.19387E-04   -0.74922E-05  3335   0.724E-03    0.272E-02
RMM:   6    -0.231443981625E+04   -0.28336E-05   -0.45856E-05  2979   0.640E-03
 290 F= -.23352782E+04 E0= -.23352782E+04  d E =-.771054E-03  mag=     6.0000
       N       E                     dE             d eps       ncg     rms          rms(c)
DAV:   1    -0.231443931639E+04    0.49703E-03   -0.52309E-02  4608   0.191E-01    0.707E-02
RMM:   2    -0.231443972818E+04   -0.41179E-03   -0.42594E-03  6157   0.425E-02    0.410E-02
RMM:   3    -0.231443974937E+04   -0.21191E-04   -0.37876E-04  3265   0.142E-02    0.481E-02
RMM:   4    -0.231443972635E+04    0.23023E-04   -0.45543E-05  2942   0.500E-03    0.187E-02
RMM:   5    -0.231443972312E+04    0.32243E-05   -0.13327E-05  2908   0.313E-03
 291 F= -.23352782E+04 E0= -.23352782E+04  d E =-.776795E-03  mag=     6.0000
       N       E                     dE             d eps       ncg     rms          rms(c)
DAV:   1    -0.231443753817E+04    0.21882E-02   -0.33745E-01  4512   0.482E-01    0.177E-01
RMM:   2    -0.231444033272E+04   -0.27946E-02   -0.28538E-02  6010   0.103E-01    0.129E-01
RMM:   3    -0.231444042303E+04   -0.90307E-04   -0.23058E-03  5218   0.333E-02    0.130E-01
RMM:   4    -0.231444023431E+04    0.18872E-03   -0.29363E-04  3455   0.996E-03    0.423E-02
RMM:   5    -0.231444021369E+04    0.20621E-04   -0.94813E-05  3531   0.758E-03    0.260E-02
RMM:   6    -0.231444021750E+04   -0.38079E-05   -0.44120E-05  3041   0.623E-03
 292 F= -.23352789E+04 E0= -.23352789E+04  d E =-.707670E-03  mag=     6.0000
       N       E                     dE             d eps       ncg     rms          rms(c)
DAV:   1    -0.231443915625E+04    0.10574E-02   -0.10639E-01  4544   0.271E-01    0.100E-01
RMM:   2    -0.231444003337E+04   -0.87712E-03   -0.90724E-03  6132   0.597E-02    0.625E-02
RMM:   3    -0.231444007737E+04   -0.43998E-04   -0.77494E-04  3757   0.197E-02    0.712E-02
RMM:   4    -0.231444002379E+04    0.53581E-04   -0.95982E-05  2990   0.661E-03    0.258E-02
RMM:   5    -0.231444001718E+04    0.66120E-05   -0.28844E-05  2965   0.439E-03
 293 F= -.23352788E+04 E0= -.23352788E+04  d E =-.627499E-03  mag=     6.0000
       N       E                     dE             d eps       ncg     rms          rms(c)
DAV:   1    -0.231443989719E+04    0.12660E-03   -0.32739E-02  4640   0.151E-01    0.565E-02
RMM:   2    -0.231444017685E+04   -0.27966E-03   -0.27553E-03  6084   0.339E-02    0.532E-02
RMM:   3    -0.231444017686E+04   -0.10550E-07   -0.28275E-04  3174   0.121E-02    0.401E-02
RMM:   4    -0.231444016197E+04    0.14892E-04   -0.28069E-05  2926   0.437E-03    0.122E-02
RMM:   5    -0.231444016151E+04    0.46019E-06   -0.79697E-06  2857   0.242E-03
 294 F= -.23352789E+04 E0= -.23352789E+04  d E =-.705939E-03  mag=     6.0000
       N       E                     dE             d eps       ncg     rms          rms(c)
DAV:   1    -0.231443785587E+04    0.23061E-02   -0.31751E-01  4480   0.473E-01    0.173E-01
RMM:   2    -0.231444075286E+04   -0.28970E-02   -0.29491E-02  6028   0.103E-01    0.120E-01
RMM:   3    -0.231444085994E+04   -0.10708E-03   -0.24398E-03  5250   0.330E-02    0.122E-01
RMM:   4    -0.231444070141E+04    0.15852E-03   -0.29168E-04  3272   0.945E-03    0.422E-02
RMM:   5    -0.231444068559E+04    0.15825E-04   -0.70043E-05  3133   0.673E-03    0.316E-02
RMM:   6    -0.231444068567E+04   -0.84183E-07   -0.49355E-05  2994   0.635E-03
 295 F= -.23352796E+04 E0= -.23352796E+04  d E =-.756567E-03  mag=     6.0000
       N       E                     dE             d eps       ncg     rms          rms(c)
DAV:   1    -0.231443908537E+04    0.16002E-02   -0.16272E-01  4496   0.339E-01    0.125E-01
RMM:   2    -0.231444057472E+04   -0.14894E-02   -0.15225E-02  6078   0.750E-02    0.825E-02
RMM:   3    -0.231444064614E+04   -0.71423E-04   -0.13335E-03  4337   0.249E-02    0.881E-02
RMM:   4    -0.231444056485E+04    0.81290E-04   -0.15321E-04  3045   0.751E-03    0.316E-02
RMM:   5    -0.231444055814E+04    0.67126E-05   -0.40591E-05  2991   0.505E-03
 296 F= -.23352797E+04 E0= -.23352797E+04  d E =-.796227E-03  mag=     6.0000
       N       E                     dE             d eps       ncg     rms          rms(c)
DAV:   1    -0.231443842263E+04    0.21422E-02   -0.27028E-01  4480   0.413E-01    0.153E-01
RMM:   2    -0.231444112052E+04   -0.26979E-02   -0.26993E-02  6158   0.928E-02    0.130E-01
RMM:   3    -0.231444115419E+04   -0.33671E-04   -0.21478E-03  4805   0.297E-02    0.107E-01
RMM:   4    -0.231444103639E+04    0.11781E-03   -0.24941E-04  3150   0.868E-03    0.382E-02
RMM:   5    -0.231444102195E+04    0.14436E-04   -0.63742E-05  3077   0.613E-03    0.188E-02
RMM:   6    -0.231444102492E+04   -0.29668E-05   -0.27722E-05  2987   0.542E-03
 297 F= -.23352804E+04 E0= -.23352804E+04  d E =-.713214E-03  mag=     6.0000
       N       E                     dE             d eps       ncg     rms          rms(c)
DAV:   1    -0.231443644516E+04    0.45768E-02   -0.46461E-01  4464   0.540E-01    0.200E-01
RMM:   2    -0.231444102399E+04   -0.45788E-02   -0.46229E-02  6106   0.121E-01    0.154E-01
RMM:   3    -0.231444116464E+04   -0.14064E-03   -0.38299E-03  5564   0.385E-02    0.141E-01
RMM:   4    -0.231444096136E+04    0.20327E-03   -0.43998E-04  3367   0.106E-02    0.519E-02
RMM:   5    -0.231444094714E+04    0.14221E-04   -0.99037E-05  3260   0.720E-03    0.446E-02
RMM:   6    -0.231444094095E+04    0.61909E-05   -0.72771E-05  3065   0.691E-03
 298 F= -.23352806E+04 E0= -.23352806E+04  d E =-.952229E-03  mag=     6.0000
       N       E                     dE             d eps       ncg     rms          rms(c)
DAV:   1    -0.231443912552E+04    0.18216E-02   -0.25488E-01  4512   0.390E-01    0.145E-01
RMM:   2    -0.231444149421E+04   -0.23687E-02   -0.24208E-02  6174   0.885E-02    0.972E-02
RMM:   3    -0.231444161596E+04   -0.12175E-03   -0.21268E-03  4682   0.298E-02    0.978E-02
RMM:   4    -0.231444152077E+04    0.95196E-04   -0.23747E-04  3111   0.827E-03    0.387E-02
RMM:   5    -0.231444151316E+04    0.76040E-05   -0.53179E-05  3010   0.542E-03
 299 F= -.23352814E+04 E0= -.23352814E+04  d E =-.810431E-03  mag=     6.0000
       N       E                     dE             d eps       ncg     rms          rms(c)
DAV:   1    -0.231443355954E+04    0.79612E-02   -0.86780E-01  4480   0.719E-01    0.267E-01
RMM:   2    -0.231444171901E+04   -0.81595E-02   -0.82630E-02  6121   0.161E-01    0.204E-01
RMM:   3    -0.231444195018E+04   -0.23117E-03   -0.65633E-03  5747   0.525E-02    0.184E-01
RMM:   4    -0.231444160696E+04    0.34323E-03   -0.78406E-04  4075   0.140E-02    0.681E-02
RMM:   5    -0.231444156053E+04    0.46429E-04   -0.18851E-04  3809   0.963E-03    0.335E-02
RMM:   6    -0.231444157312E+04   -0.12592E-04   -0.84370E-05  3304   0.778E-03    0.424E-02
RMM:   7    -0.231444155753E+04    0.15591E-04   -0.27130E-05  2925   0.552E-03    0.101E-02
RMM:   8    -0.231444155592E+04    0.16041E-05   -0.59559E-06  2880   0.270E-03
 300 F= -.23352819E+04 E0= -.23352819E+04  d E =-.129284E-02  mag=     6.0000
       N       E                     dE             d eps       ncg     rms          rms(c)
DAV:   1    -0.231443827854E+04    0.32790E-02   -0.45217E-01  4480   0.514E-01    0.188E-01
RMM:   2    -0.231444229113E+04   -0.40126E-02   -0.40638E-02  6082   0.114E-01    0.140E-01
RMM:   3    -0.231444240814E+04   -0.11701E-03   -0.32062E-03  5310   0.352E-02    0.130E-01
RMM:   4    -0.231444223731E+04    0.17083E-03   -0.39008E-04  3328   0.998E-03    0.489E-02
RMM:   5    -0.231444221990E+04    0.17409E-04   -0.92980E-05  3186   0.699E-03    0.379E-02
RMM:   6    -0.231444222010E+04   -0.19737E-06   -0.63197E-05  3059   0.654E-03
 301 F= -.23352829E+04 E0= -.23352829E+04  d E =-.985939E-03  mag=     6.0000
