       N       E                     dE             d eps       ncg     rms          rms(c)
DAV:   1     0.131980738204E+05    0.13198E+05   -0.84469E+05  4520   0.145E+03
DAV:   2    -0.993449543090E+03   -0.14192E+05   -0.13555E+05  4944   0.332E+02
DAV:   3    -0.248132331050E+04   -0.14879E+04   -0.14692E+04  5544   0.116E+02
DAV:   4    -0.252746977461E+04   -0.46146E+02   -0.45895E+02  6680   0.293E+01
DAV:   5    -0.252837870302E+04   -0.90893E+00   -0.90688E+00  6192   0.354E+00    0.170E+02
RMM:   6    -0.149623810806E+04    0.10321E+04   -0.19425E+03  4473   0.382E+01    0.724E+01
RMM:   7    -0.166432444773E+04   -0.16809E+03   -0.29967E+02  5121   0.147E+01    0.525E+01
RMM:   8    -0.172032018574E+04   -0.55996E+02   -0.69467E+01  5387   0.805E+00    0.469E+01
RMM:   9    -0.178065620064E+04   -0.60336E+02   -0.61256E+01  4960   0.753E+00    0.334E+01
RMM:  10    -0.192391360320E+04   -0.14326E+03   -0.63534E+01  5134   0.779E+00    0.247E+01
RMM:  11    -0.199263001117E+04   -0.68716E+02   -0.26815E+01  5032   0.471E+00    0.214E+01
RMM:  12    -0.207163494181E+04   -0.79005E+02   -0.30801E+01  4863   0.441E+00    0.156E+01
RMM:  13    -0.216906154988E+04   -0.97427E+02   -0.55073E+01  4704   0.575E+00    0.122E+01
RMM:  14    -0.224454741018E+04   -0.75486E+02   -0.53751E+01  5015   0.557E+00    0.960E+00
RMM:  15    -0.229744978606E+04   -0.52902E+02   -0.46549E+01  4616   0.491E+00    0.623E+00
RMM:  16    -0.231142200672E+04   -0.13972E+02   -0.14622E+01  4791   0.311E+00    0.398E+00
RMM:  17    -0.231926280635E+04   -0.78408E+01   -0.79126E+00  4550   0.171E+00    0.235E+00
RMM:  18    -0.232079838398E+04   -0.15356E+01   -0.15300E+00  4865   0.112E+00    0.181E+00
RMM:  19    -0.232197896432E+04   -0.11806E+01   -0.85875E-01  4541   0.483E-01    0.997E-01
RMM:  20    -0.232257334384E+04   -0.59438E+00   -0.50455E-01  4817   0.440E-01    0.513E-01
RMM:  21    -0.232267077419E+04   -0.97430E-01   -0.11904E-01  5070   0.212E-01    0.286E-01
RMM:  22    -0.232271018388E+04   -0.39410E-01   -0.33705E-02  4881   0.102E-01    0.197E-01
RMM:  23    -0.232273581965E+04   -0.25636E-01   -0.11445E-02  4527   0.747E-02    0.101E-01
RMM:  24    -0.232274800078E+04   -0.12181E-01   -0.42204E-03  4781   0.489E-02    0.761E-02
RMM:  25    -0.232275569091E+04   -0.76901E-02   -0.22493E-03  4594   0.343E-02    0.513E-02
RMM:  26    -0.232276200550E+04   -0.63146E-02   -0.16680E-03  4492   0.305E-02    0.307E-02
RMM:  27    -0.232276488350E+04   -0.28780E-02   -0.93826E-04  4395   0.220E-02    0.201E-02
RMM:  28    -0.232276605263E+04   -0.11691E-02   -0.42027E-04  4217   0.148E-02    0.920E-03
RMM:  29    -0.232276636484E+04   -0.31221E-03   -0.10236E-04  3834   0.878E-03    0.549E-03
RMM:  30    -0.232276647980E+04   -0.11497E-03   -0.27444E-05  3165   0.481E-03    0.337E-03
RMM:  31    -0.232276655953E+04   -0.79727E-04   -0.16374E-05  2979   0.383E-03    0.162E-03
RMM:  32    -0.232276658437E+04   -0.24844E-04   -0.76214E-06  2850   0.302E-03    0.106E-03
RMM:  33    -0.232276659202E+04   -0.76488E-05   -0.37471E-06  2458   0.221E-03
   1 F= -.23441463E+04 E0= -.23441462E+04  d E =-.234415E+04  mag=     3.9983
