       N       E                     dE             d eps       ncg     rms          rms(c)
DAV:   1     0.130020611847E+05    0.13002E+05   -0.84451E+05  4536   0.144E+03
DAV:   2    -0.106786580605E+04   -0.14070E+05   -0.13462E+05  5152   0.331E+02
DAV:   3    -0.249233755508E+04   -0.14245E+04   -0.14095E+04  5432   0.112E+02
DAV:   4    -0.253706566304E+04   -0.44728E+02   -0.44486E+02  6848   0.294E+01
DAV:   5    -0.253780571616E+04   -0.74005E+00   -0.73890E+00  6080   0.332E+00    0.171E+02
RMM:   6    -0.149832935075E+04    0.10395E+04   -0.19594E+03  4470   0.385E+01    0.731E+01
RMM:   7    -0.167841135452E+04   -0.18008E+03   -0.30217E+02  5116   0.146E+01    0.552E+01
RMM:   8    -0.171732785264E+04   -0.38916E+02   -0.79978E+01  5246   0.838E+00    0.429E+01
RMM:   9    -0.179310404983E+04   -0.75776E+02   -0.58635E+01  5019   0.759E+00    0.328E+01
RMM:  10    -0.191162711431E+04   -0.11852E+03   -0.54400E+01  5344   0.703E+00    0.316E+01
RMM:  11    -0.198261431547E+04   -0.70987E+02   -0.28441E+01  5398   0.467E+00    0.200E+01
RMM:  12    -0.208007346053E+04   -0.97459E+02   -0.41000E+01  4730   0.491E+00    0.142E+01
RMM:  13    -0.220854512058E+04   -0.12847E+03   -0.93091E+01  4540   0.710E+00    0.115E+01
RMM:  14    -0.227884018581E+04   -0.70295E+02   -0.57773E+01  4756   0.554E+00    0.760E+00
RMM:  15    -0.231422833248E+04   -0.35388E+02   -0.31934E+01  4653   0.421E+00    0.455E+00
RMM:  16    -0.232505953847E+04   -0.10831E+02   -0.11168E+01  4733   0.257E+00    0.256E+00
RMM:  17    -0.232923548746E+04   -0.41759E+01   -0.33233E+00  4984   0.128E+00    0.167E+00
RMM:  18    -0.233040741040E+04   -0.11719E+01   -0.69577E-01  5044   0.700E-01    0.644E-01
RMM:  19    -0.233074194777E+04   -0.33454E+00   -0.15309E-01  4991   0.286E-01    0.474E-01
RMM:  20    -0.233081174603E+04   -0.69798E-01   -0.40004E-02  4641   0.193E-01    0.220E-01
RMM:  21    -0.233084334710E+04   -0.31601E-01   -0.15501E-02  4559   0.111E-01    0.136E-01
RMM:  22    -0.233086085449E+04   -0.17507E-01   -0.71385E-03  4592   0.764E-02    0.854E-02
RMM:  23    -0.233087541611E+04   -0.14562E-01   -0.54397E-03  4468   0.595E-02    0.560E-02
RMM:  24    -0.233088314115E+04   -0.77250E-02   -0.29420E-03  4575   0.460E-02    0.381E-02
RMM:  25    -0.233088635218E+04   -0.32110E-02   -0.12977E-03  4684   0.290E-02    0.228E-02
RMM:  26    -0.233088779084E+04   -0.14387E-02   -0.56681E-04  4073   0.208E-02    0.182E-02
RMM:  27    -0.233088818697E+04   -0.39613E-03   -0.17270E-04  3860   0.125E-02    0.126E-02
RMM:  28    -0.233088839318E+04   -0.20621E-03   -0.66518E-05  3633   0.746E-03    0.611E-03
RMM:  29    -0.233088847927E+04   -0.86090E-04   -0.25112E-05  3187   0.543E-03    0.365E-03
RMM:  30    -0.233088854514E+04   -0.65868E-04   -0.18123E-05  3052   0.405E-03    0.178E-03
RMM:  31    -0.233088857286E+04   -0.27722E-04   -0.98832E-06  2895   0.331E-03    0.112E-03
RMM:  32    -0.233088857832E+04   -0.54516E-05   -0.42038E-06  2455   0.240E-03
   1 F= -.23519444E+04 E0= -.23519444E+04  d E =-.235194E+04  mag=     5.9999
       N       E                     dE             d eps       ncg     rms          rms(c)
DAV:   1    -0.233081963661E+04    0.68936E-01   -0.12348E+01  5080   0.255E+00    0.111E+00
RMM:   2    -0.233097737577E+04   -0.15774E+00   -0.16761E+00  6297   0.641E-01    0.896E-01
RMM:   3    -0.233098452023E+04   -0.71445E-02   -0.18533E-01  5981   0.235E-01    0.632E-01
RMM:   4    -0.233098181404E+04    0.27062E-02   -0.17496E-02  5698   0.526E-02    0.301E-01
RMM:   5    -0.233098043818E+04    0.13759E-02   -0.38284E-03  5505   0.339E-02    0.197E-01
RMM:   6    -0.233098039662E+04    0.41561E-04   -0.23043E-03  5369   0.248E-02    0.220E-01
RMM:   7    -0.233097997305E+04    0.42357E-03   -0.68938E-04  4829   0.155E-02    0.540E-02
RMM:   8    -0.233097994509E+04    0.27956E-04   -0.12784E-04  3283   0.774E-03    0.275E-02
RMM:   9    -0.233097993778E+04    0.73138E-05   -0.45348E-05  3049   0.550E-03
   2 F= -.23520333E+04 E0= -.23520333E+04  d E =-.889424E-01  mag=     6.0000
       N       E                     dE             d eps       ncg     rms          rms(c)
DAV:   1    -0.233097921057E+04    0.73452E-03   -0.14069E-01  5076   0.281E-01    0.116E-01
RMM:   2    -0.233098096791E+04   -0.17573E-02   -0.18558E-02  6225   0.670E-02    0.932E-02
RMM:   3    -0.233098107558E+04   -0.10767E-03   -0.22347E-03  3570   0.309E-02    0.654E-02
RMM:   4    -0.233098104974E+04    0.25844E-04   -0.20990E-04  3172   0.689E-03    0.324E-02
RMM:   5    -0.233098103651E+04    0.13229E-04   -0.43771E-05  3047   0.467E-03    0.205E-02
RMM:   6    -0.233098103953E+04   -0.30268E-05   -0.29270E-05  3021   0.423E-03
   3 F= -.23520341E+04 E0= -.23520341E+04  d E =-.897916E-01  mag=     6.0000
       N       E                     dE             d eps       ncg     rms          rms(c)
DAV:   1    -0.233097365800E+04    0.73785E-02   -0.71039E+00  4624   0.198E+00    0.634E-01
RMM:   2    -0.233102151432E+04   -0.47856E-01   -0.51425E-01  6196   0.398E-01    0.365E-01
RMM:   3    -0.233102455378E+04   -0.30395E-02   -0.50540E-02  5764   0.144E-01    0.299E-01
RMM:   4    -0.233102413377E+04    0.42001E-03   -0.53634E-03  5474   0.315E-02    0.187E-01
RMM:   5    -0.233102373281E+04    0.40096E-03   -0.13235E-03  5030   0.209E-02    0.144E-01
RMM:   6    -0.233102360358E+04    0.12923E-03   -0.91118E-04  5026   0.172E-02    0.107E-01
RMM:   7    -0.233102352659E+04    0.76984E-04   -0.21215E-04  3791   0.982E-03    0.438E-02
RMM:   8    -0.233102350618E+04    0.20413E-04   -0.42435E-05  3002   0.514E-03    0.176E-02
RMM:   9    -0.233102350278E+04    0.33974E-05   -0.18708E-05  2926   0.371E-03
   4 F= -.23520745E+04 E0= -.23520745E+04  d E =-.403804E-01  mag=     6.0000
       N       E                     dE             d eps       ncg     rms          rms(c)
DAV:   1    -0.233100089988E+04    0.22606E-01   -0.49440E+00  4624   0.164E+00    0.530E-01
RMM:   2    -0.233103423766E+04   -0.33338E-01   -0.35741E-01  6186   0.323E-01    0.315E-01
RMM:   3    -0.233103627095E+04   -0.20333E-02   -0.34811E-02  5721   0.119E-01    0.262E-01
RMM:   4    -0.233103588615E+04    0.38480E-03   -0.37023E-03  5232   0.265E-02    0.156E-01
RMM:   5    -0.233103562197E+04    0.26419E-03   -0.91079E-04  4703   0.173E-02    0.133E-01
RMM:   6    -0.233103549749E+04    0.12448E-03   -0.66892E-04  4733   0.150E-02    0.839E-02
RMM:   7    -0.233103544774E+04    0.49746E-04   -0.16221E-04  3654   0.885E-03    0.366E-02
RMM:   8    -0.233103543264E+04    0.15103E-04   -0.33269E-05  2981   0.515E-03    0.151E-02
RMM:   9    -0.233103542930E+04    0.33460E-05   -0.13995E-05  2913   0.337E-03
   5 F= -.23520847E+04 E0= -.23520847E+04  d E =-.505553E-01  mag=     6.0000
       N       E                     dE             d eps       ncg     rms          rms(c)
DAV:   1    -0.233103921686E+04   -0.37842E-02   -0.51898E+00  4592   0.153E+00    0.501E-01
RMM:   2    -0.233106249549E+04   -0.23279E-01   -0.25639E-01  6181   0.276E-01    0.285E-01
RMM:   3    -0.233106283210E+04   -0.33661E-03   -0.19337E-02  5538   0.900E-02    0.169E-01
RMM:   4    -0.233106267179E+04    0.16031E-03   -0.26050E-03  4721   0.257E-02    0.105E-01
RMM:   5    -0.233106280279E+04   -0.13101E-03   -0.71671E-04  4260   0.166E-02    0.158E-01
RMM:   6    -0.233106256359E+04    0.23921E-03   -0.24923E-04  3710   0.952E-03    0.253E-02
RMM:   7    -0.233106256270E+04    0.88505E-06   -0.51806E-05  3013   0.571E-03
   6 F= -.23521110E+04 E0= -.23521110E+04  d E =-.263410E-01  mag=     6.0000
       N       E                     dE             d eps       ncg     rms          rms(c)
DAV:   1    -0.233105374609E+04    0.88175E-02   -0.34893E+00  4592   0.123E+00    0.408E-01
RMM:   2    -0.233106891169E+04   -0.15166E-01   -0.16745E-01  6134   0.223E-01    0.239E-01
RMM:   3    -0.233106915532E+04   -0.24363E-03   -0.13009E-02  5472   0.741E-02    0.149E-01
RMM:   4    -0.233106913664E+04    0.18679E-04   -0.18322E-03  4689   0.212E-02    0.148E-01
RMM:   5    -0.233106900490E+04    0.13174E-03   -0.56380E-04  4099   0.144E-02    0.869E-02
RMM:   6    -0.233106893917E+04    0.65733E-04   -0.15957E-04  3704   0.852E-03    0.271E-02
RMM:   7    -0.233106893731E+04    0.18562E-05   -0.36751E-05  2981   0.593E-03
   7 F= -.23521168E+04 E0= -.23521168E+04  d E =-.320687E-01  mag=     6.0000
       N       E                     dE             d eps       ncg     rms          rms(c)
DAV:   1    -0.233106576033E+04    0.31788E-02   -0.37393E+00  4560   0.124E+00    0.450E-01
RMM:   2    -0.233108733707E+04   -0.21577E-01   -0.23039E-01  6156   0.228E-01    0.261E-01
RMM:   3    -0.233108825060E+04   -0.91354E-03   -0.18660E-02  5543   0.810E-02    0.221E-01
RMM:   4    -0.233108804987E+04    0.20074E-03   -0.21641E-03  4167   0.193E-02    0.134E-01
RMM:   5    -0.233108791605E+04    0.13382E-03   -0.51496E-04  3728   0.133E-02    0.848E-02
RMM:   6    -0.233108790071E+04    0.15336E-04   -0.26945E-04  3793   0.103E-02    0.643E-02
RMM:   7    -0.233108787603E+04    0.24686E-04   -0.90653E-05  3112   0.697E-03    0.390E-02
RMM:   8    -0.233108786260E+04    0.13426E-04   -0.21712E-05  2938   0.409E-03    0.963E-03
RMM:   9    -0.233108786271E+04   -0.11126E-06   -0.79326E-06  2876   0.282E-03
   8 F= -.23521362E+04 E0= -.23521362E+04  d E =-.194049E-01  mag=     6.0000
       N       E                     dE             d eps       ncg     rms          rms(c)
DAV:   1    -0.233097581380E+04    0.11205E+00   -0.20357E+01  4528   0.291E+00    0.108E+00
RMM:   2    -0.233109910358E+04   -0.12329E+00   -0.13110E+00  6188   0.545E-01    0.705E-01
RMM:   3    -0.233110289074E+04   -0.37872E-02   -0.96291E-02  5822   0.189E-01    0.634E-01
RMM:   4    -0.233110050988E+04    0.23809E-02   -0.11905E-02  5779   0.471E-02    0.299E-01
RMM:   5    -0.233109970417E+04    0.80571E-03   -0.28202E-03  4979   0.289E-02    0.166E-01
RMM:   6    -0.233109967193E+04    0.32235E-04   -0.12189E-03  4894   0.206E-02    0.128E-01
RMM:   7    -0.233109959462E+04    0.77318E-04   -0.42934E-04  3790   0.121E-02    0.897E-02
RMM:   8    -0.233109952032E+04    0.74300E-04   -0.10040E-04  3190   0.661E-03    0.222E-02
RMM:   9    -0.233109951471E+04    0.56067E-05   -0.31689E-05  2971   0.449E-03
   9 F= -.23521489E+04 E0= -.23521489E+04  d E =-.321608E-01  mag=     6.0000
       N       E                     dE             d eps       ncg     rms          rms(c)
DAV:   1    -0.233109556608E+04    0.39542E-02   -0.93236E-01  4688   0.631E-01    0.217E-01
RMM:   2    -0.233110065758E+04   -0.50915E-02   -0.54318E-02  6257   0.113E-01    0.119E-01
RMM:   3    -0.233110088327E+04   -0.22569E-03   -0.43534E-03  4376   0.387E-02    0.104E-01
RMM:   4    -0.233110083980E+04    0.43468E-04   -0.51847E-04  3215   0.101E-02    0.655E-02
RMM:   5    -0.233110081124E+04    0.28568E-04   -0.12645E-04  3109   0.717E-03    0.354E-02
RMM:   6    -0.233110081618E+04   -0.49392E-05   -0.51060E-05  3042   0.564E-03
  10 F= -.23521500E+04 E0= -.23521500E+04  d E =-.332287E-01  mag=     6.0000
       N       E                     dE             d eps       ncg     rms          rms(c)
DAV:   1    -0.233110186554E+04   -0.10543E-02   -0.89014E-01  4576   0.814E-01    0.323E-01
RMM:   2    -0.233110950458E+04   -0.76390E-02   -0.81881E-02  5926   0.158E-01    0.240E-01
RMM:   3    -0.233110960159E+04   -0.97009E-04   -0.67282E-03  5484   0.604E-02    0.212E-01
RMM:   4    -0.233110916220E+04    0.43939E-03   -0.89786E-04  4883   0.169E-02    0.723E-02
RMM:   5    -0.233110904701E+04    0.11519E-03   -0.33834E-04  4853   0.138E-02    0.405E-02
RMM:   6    -0.233110903518E+04    0.11830E-04   -0.10787E-04  4152   0.856E-03    0.434E-02
RMM:   7    -0.233110901051E+04    0.24672E-04   -0.34556E-05  3021   0.542E-03    0.167E-02
RMM:   8    -0.233110900079E+04    0.97170E-05   -0.11394E-05  2906   0.360E-03
  11 F= -.23521583E+04 E0= -.23521583E+04  d E =-.828058E-02  mag=     6.0000
       N       E                     dE             d eps       ncg     rms          rms(c)
DAV:   1    -0.233110685455E+04    0.21560E-02   -0.47447E-01  4624   0.595E-01    0.235E-01
RMM:   2    -0.233111086133E+04   -0.40068E-02   -0.43503E-02  5897   0.116E-01    0.162E-01
RMM:   3    -0.233111094941E+04   -0.88087E-04   -0.35925E-03  5270   0.440E-02    0.151E-01
RMM:   4    -0.233111072914E+04    0.22027E-03   -0.47980E-04  4351   0.125E-02    0.550E-02
RMM:   5    -0.233111066531E+04    0.63833E-04   -0.18095E-04  4293   0.104E-02    0.351E-02
RMM:   6    -0.233111065455E+04    0.10752E-04   -0.67980E-05  3354   0.761E-03    0.330E-02
RMM:   7    -0.233111063898E+04    0.15579E-04   -0.24505E-05  2969   0.528E-03    0.128E-02
RMM:   8    -0.233111063322E+04    0.57568E-05   -0.94547E-06  2888   0.369E-03
  12 F= -.23521600E+04 E0= -.23521600E+04  d E =-.998459E-02  mag=     6.0000
       N       E                     dE             d eps       ncg     rms          rms(c)
DAV:   1    -0.233111212046E+04   -0.14815E-02   -0.41245E-01  4592   0.541E-01    0.213E-01
RMM:   2    -0.233111635375E+04   -0.42333E-02   -0.44044E-02  5959   0.107E-01    0.196E-01
RMM:   3    -0.233111627280E+04    0.80948E-04   -0.31694E-03  5137   0.401E-02    0.140E-01
RMM:   4    -0.233111610597E+04    0.16682E-03   -0.44414E-04  3503   0.106E-02    0.535E-02
RMM:   5    -0.233111606587E+04    0.40105E-04   -0.11878E-04  3502   0.792E-03    0.262E-02
RMM:   6    -0.233111606866E+04   -0.27953E-05   -0.49492E-05  3053   0.662E-03
  13 F= -.23521652E+04 E0= -.23521652E+04  d E =-.525680E-02  mag=     6.0000
       N       E                     dE             d eps       ncg     rms          rms(c)
DAV:   1    -0.233111021539E+04    0.58505E-02   -0.91271E-01  4560   0.804E-01    0.319E-01
RMM:   2    -0.233111961491E+04   -0.93995E-02   -0.98191E-02  5909   0.161E-01    0.288E-01
RMM:   3    -0.233111944228E+04    0.17262E-03   -0.70356E-03  5481   0.582E-02    0.207E-01
RMM:   4    -0.233111908220E+04    0.36008E-03   -0.98585E-04  4412   0.153E-02    0.809E-02
RMM:   5    -0.233111899624E+04    0.85964E-04   -0.24847E-04  4185   0.109E-02    0.442E-02
RMM:   6    -0.233111900784E+04   -0.11604E-04   -0.13654E-04  3381   0.882E-03    0.477E-02
RMM:   7    -0.233111898581E+04    0.22030E-04   -0.35814E-05  2987   0.609E-03    0.139E-02
RMM:   8    -0.233111898414E+04    0.16784E-05   -0.72167E-06  2898   0.321E-03
  14 F= -.23521679E+04 E0= -.23521679E+04  d E =-.791640E-02  mag=     6.0000
       N       E                     dE             d eps       ncg     rms          rms(c)
DAV:   1    -0.233112103075E+04   -0.20449E-02   -0.26496E-01  4608   0.455E-01    0.169E-01
RMM:   2    -0.233112323259E+04   -0.22018E-02   -0.22109E-02  5966   0.872E-02    0.148E-01
RMM:   3    -0.233112322151E+04    0.11080E-04   -0.16863E-03  4584   0.315E-02    0.111E-01
RMM:   4    -0.233112310096E+04    0.12055E-03   -0.24026E-04  3414   0.909E-03    0.402E-02
RMM:   5    -0.233112308223E+04    0.18730E-04   -0.68350E-05  3319   0.705E-03    0.228E-02
RMM:   6    -0.233112308479E+04   -0.25593E-05   -0.34804E-05  2982   0.585E-03
  15 F= -.23521719E+04 E0= -.23521719E+04  d E =-.400412E-02  mag=     6.0000
       N       E                     dE             d eps       ncg     rms          rms(c)
DAV:   1    -0.233111833699E+04    0.47452E-02   -0.10128E+00  4544   0.890E-01    0.330E-01
RMM:   2    -0.233112674746E+04   -0.84105E-02   -0.84496E-02  5903   0.170E-01    0.289E-01
RMM:   3    -0.233112670063E+04    0.46823E-04   -0.65448E-03  5456   0.594E-02    0.217E-01
RMM:   4    -0.233112625080E+04    0.44983E-03   -0.94019E-04  4798   0.165E-02    0.792E-02
RMM:   5    -0.233112619066E+04    0.60145E-04   -0.25472E-04  4269   0.122E-02    0.568E-02
RMM:   6    -0.233112618706E+04    0.36004E-05   -0.14364E-04  3531   0.889E-03    0.472E-02
RMM:   7    -0.233112616473E+04    0.22328E-04   -0.37144E-05  2983   0.601E-03    0.106E-02
RMM:   8    -0.233112616334E+04    0.13934E-05   -0.75768E-06  2902   0.337E-03
  16 F= -.23521748E+04 E0= -.23521748E+04  d E =-.689888E-02  mag=     6.0000
       N       E                     dE             d eps       ncg     rms          rms(c)
DAV:   1    -0.233112868183E+04   -0.25171E-02   -0.18200E-01  4656   0.378E-01    0.141E-01
RMM:   2    -0.233113090092E+04   -0.22191E-02   -0.22704E-02  6121   0.770E-02    0.107E-01
RMM:   3    -0.233113099609E+04   -0.95166E-04   -0.16484E-03  4185   0.272E-02    0.901E-02
RMM:   4    -0.233113093192E+04    0.64165E-04   -0.22421E-04  3142   0.788E-03    0.377E-02
RMM:   5    -0.233113091951E+04    0.12412E-04   -0.45971E-05  3023   0.567E-03    0.192E-02
RMM:   6    -0.233113092241E+04   -0.29020E-05   -0.29616E-05  2970   0.507E-03
  17 F= -.23521793E+04 E0= -.23521793E+04  d E =-.445153E-02  mag=     6.0000
       N       E                     dE             d eps       ncg     rms          rms(c)
DAV:   1    -0.233112032832E+04    0.10591E-01   -0.16313E+00  4528   0.113E+00    0.423E-01
RMM:   2    -0.233114012115E+04   -0.19793E-01   -0.20378E-01  5974   0.226E-01    0.299E-01
RMM:   3    -0.233114119550E+04   -0.10744E-02   -0.15097E-02  5522   0.867E-02    0.278E-01
RMM:   4    -0.233114057279E+04    0.62272E-03   -0.20959E-03  5171   0.214E-02    0.116E-01
RMM:   5    -0.233114047001E+04    0.10278E-03   -0.40678E-04  4456   0.139E-02    0.650E-02
RMM:   6    -0.233114049409E+04   -0.24086E-04   -0.27981E-04  4251   0.116E-02    0.730E-02
RMM:   7    -0.233114043716E+04    0.56934E-04   -0.73930E-05  3163   0.718E-03    0.156E-02
RMM:   8    -0.233114043158E+04    0.55751E-05   -0.13042E-05  2933   0.386E-03
  18 F= -.23521879E+04 E0= -.23521879E+04  d E =-.130614E-01  mag=     6.0000
       N       E                     dE             d eps       ncg     rms          rms(c)
DAV:   1    -0.233105696908E+04    0.83468E-01   -0.65035E+00  4504   0.224E+00    0.842E-01
RMM:   2    -0.233113555419E+04   -0.78585E-01   -0.81193E-01  6065   0.449E-01    0.572E-01
RMM:   3    -0.233114066101E+04   -0.51068E-02   -0.62450E-02  5747   0.164E-01    0.570E-01
RMM:   4    -0.233113785840E+04    0.28026E-02   -0.83440E-03  5686   0.420E-02    0.239E-01
RMM:   5    -0.233113746875E+04    0.38965E-03   -0.16319E-03  5087   0.259E-02    0.141E-01
RMM:   6    -0.233113756765E+04   -0.98902E-04   -0.12024E-03  5240   0.217E-02    0.152E-01
RMM:   7    -0.233113732297E+04    0.24468E-03   -0.32694E-04  4517   0.123E-02    0.349E-02
RMM:   8    -0.233113729848E+04    0.24498E-04   -0.49594E-05  3039   0.549E-03    0.170E-02
RMM:   9    -0.233113728648E+04    0.11993E-04   -0.29296E-05  3016   0.469E-03    0.108E-02
RMM:  10    -0.233113728472E+04    0.17657E-05   -0.12791E-05  2916   0.415E-03
  19 F= -.23521830E+04 E0= -.23521830E+04  d E =-.821918E-02  mag=     6.0000
       N       E                     dE             d eps       ncg     rms          rms(c)
DAV:   1    -0.233110735045E+04    0.29936E-01   -0.28572E+00  4516   0.148E+00    0.563E-01
RMM:   2    -0.233114187048E+04   -0.34520E-01   -0.35130E-01  6035   0.300E-01    0.444E-01
RMM:   3    -0.233114367087E+04   -0.18004E-02   -0.32370E-02  5672   0.117E-01    0.338E-01
RMM:   4    -0.233114289580E+04    0.77507E-03   -0.37429E-03  5201   0.276E-02    0.146E-01
RMM:   5    -0.233114272982E+04    0.16598E-03   -0.69621E-04  4830   0.184E-02    0.737E-02
RMM:   6    -0.233114277874E+04   -0.48911E-04   -0.39883E-04  4811   0.136E-02    0.882E-02
RMM:   7    -0.233114270998E+04    0.68758E-04   -0.10511E-04  3231   0.800E-03    0.310E-02
RMM:   8    -0.233114269702E+04    0.12957E-04   -0.23547E-05  2969   0.415E-03    0.128E-02
RMM:   9    -0.233114268940E+04    0.76227E-05   -0.17013E-05  2932   0.357E-03
  20 F= -.23521895E+04 E0= -.23521895E+04  d E =-.147326E-01  mag=     6.0000
       N       E                     dE             d eps       ncg     rms          rms(c)
DAV:   1    -0.233114404814E+04   -0.13511E-02   -0.70850E-01  4544   0.718E-01    0.266E-01
RMM:   2    -0.233115035924E+04   -0.63111E-02   -0.66688E-02  6027   0.140E-01    0.163E-01
RMM:   3    -0.233115071138E+04   -0.35214E-03   -0.48138E-03  5415   0.500E-02    0.160E-01
RMM:   4    -0.233115052402E+04    0.18736E-03   -0.69859E-04  3938   0.130E-02    0.769E-02
RMM:   5    -0.233115048158E+04    0.42436E-04   -0.14968E-04  3787   0.965E-03    0.314E-02
RMM:   6    -0.233115048726E+04   -0.56778E-05   -0.67722E-05  3166   0.738E-03
  21 F= -.23521969E+04 E0= -.23521969E+04  d E =-.738557E-02  mag=     6.0000
       N       E                     dE             d eps       ncg     rms          rms(c)
DAV:   1    -0.233113509308E+04    0.15388E-01   -0.23284E+00  4504   0.131E+00    0.482E-01
RMM:   2    -0.233115578879E+04   -0.20696E-01   -0.21852E-01  5916   0.254E-01    0.287E-01
RMM:   3    -0.233115695819E+04   -0.11694E-02   -0.15788E-02  5540   0.926E-02    0.284E-01
RMM:   4    -0.233115638374E+04    0.57445E-03   -0.23330E-03  5318   0.233E-02    0.144E-01
RMM:   5    -0.233115624416E+04    0.13958E-03   -0.50236E-04  4594   0.158E-02    0.582E-02
RMM:   6    -0.233115626191E+04   -0.17753E-04   -0.22393E-04  4229   0.117E-02    0.557E-02
RMM:   7    -0.233115623470E+04    0.27215E-04   -0.63784E-05  3046   0.646E-03    0.237E-02
RMM:   8    -0.233115622756E+04    0.71367E-05   -0.12402E-05  2927   0.357E-03
  22 F= -.23522019E+04 E0= -.23522019E+04  d E =-.123986E-01  mag=     6.0000
       N       E                     dE             d eps       ncg     rms          rms(c)
DAV:   1    -0.233115793085E+04   -0.16962E-02   -0.64495E-01  4568   0.676E-01    0.233E-01
RMM:   2    -0.233116267839E+04   -0.47475E-02   -0.47849E-02  5867   0.123E-01    0.203E-01
RMM:   3    -0.233116273357E+04   -0.55174E-04   -0.38389E-03  5051   0.466E-02    0.154E-01
RMM:   4    -0.233116254534E+04    0.18822E-03   -0.52732E-04  4057   0.123E-02    0.736E-02
RMM:   5    -0.233116252240E+04    0.22942E-04   -0.20970E-04  3862   0.102E-02    0.482E-02
RMM:   6    -0.233116251935E+04    0.30557E-05   -0.88179E-05  3060   0.726E-03
  23 F= -.23522084E+04 E0= -.23522084E+04  d E =-.649506E-02  mag=     6.0000
       N       E                     dE             d eps       ncg     rms          rms(c)
DAV:   1    -0.233115653739E+04    0.59850E-02   -0.12025E+00  4516   0.923E-01    0.319E-01
RMM:   2    -0.233116543028E+04   -0.88929E-02   -0.90199E-02  5850   0.168E-01    0.265E-01
RMM:   3    -0.233116560684E+04   -0.17657E-03   -0.68655E-03  5407   0.603E-02    0.213E-01
RMM:   4    -0.233116524610E+04    0.36075E-03   -0.96066E-04  4731   0.164E-02    0.103E-01
RMM:   5    -0.233116518992E+04    0.56172E-04   -0.38173E-04  4406   0.134E-02    0.585E-02
RMM:   6    -0.233116519543E+04   -0.55034E-05   -0.15016E-04  3241   0.901E-03    0.501E-02
RMM:   7    -0.233116517136E+04    0.24065E-04   -0.41091E-05  2971   0.553E-03    0.149E-02
RMM:   8    -0.233116516834E+04    0.30255E-05   -0.10040E-05  2917   0.309E-03
  24 F= -.23522114E+04 E0= -.23522114E+04  d E =-.942988E-02  mag=     6.0000
       N       E                     dE             d eps       ncg     rms          rms(c)
DAV:   1    -0.233116322315E+04    0.19482E-02   -0.97933E-01  4528   0.877E-01    0.307E-01
RMM:   2    -0.233117113912E+04   -0.79160E-02   -0.81224E-02  5766   0.158E-01    0.247E-01
RMM:   3    -0.233117147590E+04   -0.33678E-03   -0.83001E-03  5090   0.695E-02    0.186E-01
RMM:   4    -0.233117121669E+04    0.25921E-03   -0.89657E-04  4607   0.158E-02    0.874E-02
RMM:   5    -0.233117117671E+04    0.39979E-04   -0.33496E-04  4460   0.126E-02    0.539E-02
RMM:   6    -0.233117118206E+04   -0.53427E-05   -0.11871E-04  3202   0.830E-03    0.423E-02
RMM:   7    -0.233117116645E+04    0.15605E-04   -0.29167E-05  2934   0.556E-03    0.177E-02
RMM:   8    -0.233117116290E+04    0.35546E-05   -0.91188E-06  2923   0.287E-03
  25 F= -.23522177E+04 E0= -.23522177E+04  d E =-.637940E-02  mag=     6.0000
       N       E                     dE             d eps       ncg     rms          rms(c)
DAV:   1    -0.233116779252E+04    0.33739E-02   -0.54948E-01  4608   0.655E-01    0.230E-01
RMM:   2    -0.233117223373E+04   -0.44412E-02   -0.45725E-02  5787   0.119E-01    0.181E-01
RMM:   3    -0.233117243654E+04   -0.20281E-03   -0.46627E-03  4849   0.499E-02    0.139E-01
RMM:   4    -0.233117229185E+04    0.14469E-03   -0.50520E-04  3998   0.120E-02    0.659E-02
RMM:   5    -0.233117226766E+04    0.24194E-04   -0.19046E-04  3945   0.964E-03    0.405E-02
RMM:   6    -0.233117227040E+04   -0.27409E-05   -0.70816E-05  3044   0.693E-03
  26 F= -.23522191E+04 E0= -.23522191E+04  d E =-.777133E-02  mag=     6.0000
       N       E                     dE             d eps       ncg     rms          rms(c)
DAV:   1    -0.233117371614E+04   -0.14485E-02   -0.39584E-01  4576   0.566E-01    0.198E-01
RMM:   2    -0.233117607554E+04   -0.23594E-02   -0.25598E-02  5925   0.103E-01    0.112E-01
RMM:   3    -0.233117619619E+04   -0.12066E-03   -0.26805E-03  5103   0.452E-02    0.110E-01
RMM:   4    -0.233117608019E+04    0.11600E-03   -0.32430E-04  3878   0.112E-02    0.538E-02
RMM:   5    -0.233117604172E+04    0.38467E-04   -0.14415E-04  4126   0.971E-03    0.207E-02
RMM:   6    -0.233117604199E+04   -0.26981E-06   -0.30399E-05  2954   0.680E-03
  27 F= -.23522229E+04 E0= -.23522229E+04  d E =-.377052E-02  mag=     6.0000
       N       E                     dE             d eps       ncg     rms          rms(c)
DAV:   1    -0.233117437283E+04    0.16689E-02   -0.51999E-01  4544   0.649E-01    0.227E-01
RMM:   2    -0.233117747296E+04   -0.31001E-02   -0.33542E-02  5731   0.117E-01    0.132E-01
RMM:   3    -0.233117763956E+04   -0.16660E-03   -0.36676E-03  5027   0.552E-02    0.136E-01
RMM:   4    -0.233117747352E+04    0.16604E-03   -0.44505E-04  4342   0.127E-02    0.666E-02
RMM:   5    -0.233117744213E+04    0.31397E-04   -0.17120E-04  4048   0.986E-03    0.621E-02
RMM:   6    -0.233117740913E+04    0.32997E-04   -0.10380E-04  3332   0.801E-03    0.256E-02
RMM:   7    -0.233117740023E+04    0.88947E-05   -0.18701E-05  2943   0.559E-03
  28 F= -.23522243E+04 E0= -.23522243E+04  d E =-.512482E-02  mag=     6.0000
       N       E                     dE             d eps       ncg     rms          rms(c)
DAV:   1    -0.233117555096E+04    0.18582E-02   -0.57913E-01  4528   0.651E-01    0.216E-01
RMM:   2    -0.233118056602E+04   -0.50151E-02   -0.53834E-02  6034   0.124E-01    0.139E-01
RMM:   3    -0.233118082373E+04   -0.25771E-03   -0.50718E-03  5055   0.533E-02    0.108E-01
RMM:   4    -0.233118074955E+04    0.74179E-04   -0.58478E-04  3706   0.115E-02    0.726E-02
RMM:   5    -0.233118069707E+04    0.52474E-04   -0.16164E-04  3493   0.866E-03    0.455E-02
RMM:   6    -0.233118069499E+04    0.20866E-05   -0.91981E-05  3060   0.728E-03
  29 F= -.23522275E+04 E0= -.23522275E+04  d E =-.320600E-02  mag=     6.0000
       N       E                     dE             d eps       ncg     rms          rms(c)
DAV:   1    -0.233117780889E+04    0.28882E-02   -0.35078E-01  4624   0.506E-01    0.170E-01
RMM:   2    -0.233118083060E+04   -0.30217E-02   -0.32791E-02  6188   0.979E-02    0.102E-01
RMM:   3    -0.233118100285E+04   -0.17225E-03   -0.32380E-03  4694   0.376E-02    0.753E-02
RMM:   4    -0.233118099036E+04    0.12491E-04   -0.35818E-04  3293   0.902E-03    0.648E-02
RMM:   5    -0.233118095328E+04    0.37078E-04   -0.88974E-05  3137   0.640E-03    0.403E-02
RMM:   6    -0.233118094552E+04    0.77599E-05   -0.63397E-05  2992   0.611E-03
  30 F= -.23522277E+04 E0= -.23522277E+04  d E =-.339115E-02  mag=     6.0000
       N       E                     dE             d eps       ncg     rms          rms(c)
DAV:   1    -0.233118071191E+04    0.24137E-03   -0.41924E-02  4720   0.175E-01    0.596E-02
RMM:   2    -0.233118108723E+04   -0.37533E-03   -0.38377E-03  6166   0.353E-02    0.587E-02
RMM:   3    -0.233118108993E+04   -0.26988E-05   -0.39275E-04  3095   0.130E-02    0.348E-02
RMM:   4    -0.233118108004E+04    0.98863E-05   -0.41423E-05  2988   0.419E-03
  31 F= -.23522278E+04 E0= -.23522278E+04  d E =-.354764E-02  mag=     6.0000
       N       E                     dE             d eps       ncg     rms          rms(c)
DAV:   1    -0.233117787207E+04    0.32179E-02   -0.53327E-01  4516   0.684E-01    0.231E-01
RMM:   2    -0.233118328346E+04   -0.54114E-02   -0.56882E-02  5883   0.134E-01    0.156E-01
RMM:   3    -0.233118357825E+04   -0.29479E-03   -0.54924E-03  5253   0.557E-02    0.133E-01
RMM:   4    -0.233118340642E+04    0.17182E-03   -0.62277E-04  4308   0.127E-02    0.590E-02
RMM:   5    -0.233118334254E+04    0.63886E-04   -0.16110E-04  4032   0.982E-03    0.254E-02
RMM:   6    -0.233118333350E+04    0.90397E-05   -0.58466E-05  3433   0.713E-03
  32 F= -.23522298E+04 E0= -.23522298E+04  d E =-.203292E-02  mag=     6.0000
       N       E                     dE             d eps       ncg     rms          rms(c)
DAV:   1    -0.233118322752E+04    0.11501E-03   -0.13752E-02  5264   0.110E-01    0.386E-02
RMM:   2    -0.233118336980E+04   -0.14228E-03   -0.15207E-03  5981   0.243E-02    0.276E-02
RMM:   3    -0.233118337895E+04   -0.91494E-05   -0.16843E-04  2954   0.925E-03    0.236E-02
RMM:   4    -0.233118337327E+04    0.56734E-05   -0.18848E-05  2926   0.309E-03
  33 F= -.23522298E+04 E0= -.23522298E+04  d E =-.203661E-02  mag=     6.0000
       N       E                     dE             d eps       ncg     rms          rms(c)
DAV:   1    -0.233118196281E+04    0.14161E-02   -0.19964E-01  4512   0.440E-01    0.151E-01
RMM:   2    -0.233118453671E+04   -0.25739E-02   -0.26848E-02  6027   0.896E-02    0.103E-01
RMM:   3    -0.233118472195E+04   -0.18524E-03   -0.28023E-03  4736   0.343E-02    0.852E-02
RMM:   4    -0.233118465815E+04    0.63793E-04   -0.28290E-04  3149   0.863E-03    0.385E-02
RMM:   5    -0.233118464025E+04    0.17900E-04   -0.50879E-05  3054   0.621E-03    0.181E-02
RMM:   6    -0.233118464073E+04   -0.47334E-06   -0.27550E-05  2986   0.560E-03
  34 F= -.23522312E+04 E0= -.23522312E+04  d E =-.139173E-02  mag=     6.0000
       N       E                     dE             d eps       ncg     rms          rms(c)
DAV:   1    -0.233118162719E+04    0.30131E-02   -0.24367E-01  4496   0.486E-01    0.169E-01
RMM:   2    -0.233118478795E+04   -0.31608E-02   -0.32982E-02  6000   0.999E-02    0.118E-01
RMM:   3    -0.233118501366E+04   -0.22571E-03   -0.34476E-03  5141   0.380E-02    0.995E-02
RMM:   4    -0.233118493100E+04    0.82654E-04   -0.35230E-04  3202   0.921E-03    0.434E-02
RMM:   5    -0.233118491727E+04    0.13734E-04   -0.62362E-05  3055   0.633E-03    0.375E-02
RMM:   6    -0.233118490657E+04    0.10695E-04   -0.45970E-05  2988   0.608E-03    0.239E-02
RMM:   7    -0.233118489945E+04    0.71206E-05   -0.16411E-05  2914   0.485E-03
  35 F= -.23522316E+04 E0= -.23522316E+04  d E =-.178619E-02  mag=     6.0000
       N       E                     dE             d eps       ncg     rms          rms(c)
DAV:   1    -0.233118276005E+04    0.21465E-02   -0.21822E-01  4544   0.440E-01    0.153E-01
RMM:   2    -0.233118566591E+04   -0.29059E-02   -0.30401E-02  6228   0.924E-02    0.110E-01
RMM:   3    -0.233118589031E+04   -0.22440E-03   -0.33363E-03  4667   0.348E-02    0.893E-02
RMM:   4    -0.233118583248E+04    0.57831E-04   -0.32439E-04  3098   0.849E-03    0.404E-02
RMM:   5    -0.233118581905E+04    0.13436E-04   -0.54113E-05  3002   0.563E-03    0.287E-02
RMM:   6    -0.233118581950E+04   -0.45597E-06   -0.40158E-05  2969   0.522E-03
  36 F= -.23522328E+04 E0= -.23522328E+04  d E =-.115581E-02  mag=     6.0000
       N       E                     dE             d eps       ncg     rms          rms(c)
DAV:   1    -0.233118301656E+04    0.28025E-02   -0.20339E-01  4512   0.425E-01    0.148E-01
RMM:   2    -0.233118571815E+04   -0.27016E-02   -0.28433E-02  6208   0.887E-02    0.968E-02
RMM:   3    -0.233118594388E+04   -0.22573E-03   -0.31394E-03  4502   0.338E-02    0.801E-02
RMM:   4    -0.233118590276E+04    0.41124E-04   -0.30403E-04  3084   0.812E-03    0.414E-02
RMM:   5    -0.233118589155E+04    0.11204E-04   -0.48829E-05  2993   0.520E-03    0.326E-02
RMM:   6    -0.233118588677E+04    0.47812E-05   -0.38309E-05  2948   0.495E-03
  37 F= -.23522331E+04 E0= -.23522331E+04  d E =-.145109E-02  mag=     6.0000
       N       E                     dE             d eps       ncg     rms          rms(c)
DAV:   1    -0.233118296804E+04    0.29235E-02   -0.36694E-01  4512   0.524E-01    0.177E-01
RMM:   2    -0.233118662044E+04   -0.36524E-02   -0.38637E-02  6012   0.106E-01    0.107E-01
RMM:   3    -0.233118693743E+04   -0.31700E-03   -0.43410E-03  4976   0.449E-02    0.986E-02
RMM:   4    -0.233118687547E+04    0.61962E-04   -0.41598E-04  3193   0.957E-03    0.521E-02
RMM:   5    -0.233118685512E+04    0.20351E-04   -0.94461E-05  3121   0.714E-03    0.384E-02
RMM:   6    -0.233118684824E+04    0.68809E-05   -0.59253E-05  3003   0.652E-03
  38 F= -.23522341E+04 E0= -.23522341E+04  d E =-.106118E-02  mag=     6.0000
       N       E                     dE             d eps       ncg     rms          rms(c)
DAV:   1    -0.233118648103E+04    0.37409E-03   -0.32446E-02  4768   0.156E-01    0.543E-02
RMM:   2    -0.233118680921E+04   -0.32818E-03   -0.35263E-03  6190   0.340E-02    0.278E-02
RMM:   3    -0.233118683802E+04   -0.28810E-04   -0.39771E-04  3038   0.125E-02    0.235E-02
RMM:   4    -0.233118683720E+04    0.81724E-06   -0.39803E-05  2949   0.354E-03
  39 F= -.23522342E+04 E0= -.23522342E+04  d E =-.107958E-02  mag=     6.0000
       N       E                     dE             d eps       ncg     rms          rms(c)
DAV:   1    -0.233118503906E+04    0.17990E-02   -0.36075E-01  4500   0.522E-01    0.169E-01
RMM:   2    -0.233118795448E+04   -0.29154E-02   -0.30831E-02  6037   0.101E-01    0.104E-01
RMM:   3    -0.233118814317E+04   -0.18869E-03   -0.27996E-03  4944   0.362E-02    0.100E-01
RMM:   4    -0.233118808021E+04    0.62957E-04   -0.30724E-04  3121   0.912E-03    0.486E-02
RMM:   5    -0.233118806865E+04    0.11562E-04   -0.76628E-05  3159   0.706E-03    0.262E-02
RMM:   6    -0.233118807399E+04   -0.53397E-05   -0.41798E-05  2961   0.617E-03
  40 F= -.23522355E+04 E0= -.23522355E+04  d E =-.135125E-02  mag=     6.0000
       N       E                     dE             d eps       ncg     rms          rms(c)
DAV:   1    -0.233117522899E+04    0.12840E-01   -0.15819E+00  4488   0.109E+00    0.354E-01
RMM:   2    -0.233118797514E+04   -0.12746E-01   -0.13566E-01  5932   0.211E-01    0.201E-01
RMM:   3    -0.233118878633E+04   -0.81119E-03   -0.12058E-02  5561   0.717E-02    0.185E-01
RMM:   4    -0.233118861061E+04    0.17573E-03   -0.13428E-03  4628   0.173E-02    0.102E-01
RMM:   5    -0.233118855544E+04    0.55163E-04   -0.28990E-04  4236   0.124E-02    0.597E-02
RMM:   6    -0.233118856774E+04   -0.12297E-04   -0.17265E-04  3660   0.967E-03    0.572E-02
RMM:   7    -0.233118854000E+04    0.27741E-04   -0.48596E-05  2992   0.655E-03    0.199E-02
RMM:   8    -0.233118853617E+04    0.38330E-05   -0.99672E-06  2915   0.342E-03
  41 F= -.23522362E+04 E0= -.23522362E+04  d E =-.204589E-02  mag=     6.0000
       N       E                     dE             d eps       ncg     rms          rms(c)
DAV:   1    -0.233118839328E+04    0.14672E-03   -0.91217E-02  4640   0.252E-01    0.815E-02
RMM:   2    -0.233118914309E+04   -0.74981E-03   -0.78840E-03  6218   0.497E-02    0.550E-02
RMM:   3    -0.233118919032E+04   -0.47233E-04   -0.71678E-04  3315   0.169E-02    0.489E-02
RMM:   4    -0.233118917632E+04    0.14008E-04   -0.78568E-05  2967   0.513E-03    0.226E-02
RMM:   5    -0.233118917373E+04    0.25835E-05   -0.15648E-05  2939   0.313E-03
  42 F= -.23522369E+04 E0= -.23522369E+04  d E =-.671933E-03  mag=     6.0000
       N       E                     dE             d eps       ncg     rms          rms(c)
DAV:   1    -0.233118365438E+04    0.55219E-02   -0.81802E-01  4500   0.754E-01    0.241E-01
RMM:   2    -0.233119028181E+04   -0.66274E-02   -0.70074E-02  6143   0.147E-01    0.149E-01
RMM:   3    -0.233119073594E+04   -0.45414E-03   -0.64781E-03  5439   0.496E-02    0.133E-01
RMM:   4    -0.233119064175E+04    0.94189E-04   -0.66811E-04  3319   0.119E-02    0.697E-02
RMM:   5    -0.233119061979E+04    0.21961E-04   -0.13321E-04  3255   0.833E-03    0.335E-02
RMM:   6    -0.233119062891E+04   -0.91217E-05   -0.60012E-05  3125   0.677E-03
  43 F= -.23522384E+04 E0= -.23522384E+04  d E =-.222750E-02  mag=     6.0000
       N       E                     dE             d eps       ncg     rms          rms(c)
DAV:   1    -0.233116340638E+04    0.27213E-01   -0.32762E+00  4488   0.151E+00    0.483E-01
RMM:   2    -0.233119004090E+04   -0.26635E-01   -0.28188E-01  6124   0.293E-01    0.294E-01
RMM:   3    -0.233119188526E+04   -0.18444E-02   -0.25584E-02  5843   0.942E-02    0.273E-01
RMM:   4    -0.233119147865E+04    0.40661E-03   -0.27365E-03  4982   0.229E-02    0.140E-01
RMM:   5    -0.233119139925E+04    0.79397E-04   -0.51588E-04  4508   0.141E-02    0.884E-02
RMM:   6    -0.233119143372E+04   -0.34465E-04   -0.34373E-04  3970   0.121E-02    0.832E-02
RMM:   7    -0.233119137627E+04    0.57451E-04   -0.85683E-05  3138   0.733E-03    0.235E-02
RMM:   8    -0.233119137183E+04    0.44388E-05   -0.13614E-05  2943   0.406E-03
  44 F= -.23522394E+04 E0= -.23522394E+04  d E =-.315864E-02  mag=     6.0000
       N       E                     dE             d eps       ncg     rms          rms(c)
DAV:   1    -0.233118950883E+04    0.18674E-02   -0.43282E-01  4516   0.519E-01    0.180E-01
RMM:   2    -0.233119309875E+04   -0.35899E-02   -0.37473E-02  6116   0.105E-01    0.131E-01
RMM:   3    -0.233119324839E+04   -0.14964E-03   -0.28842E-03  4901   0.348E-02    0.120E-01
RMM:   4    -0.233119313423E+04    0.11416E-03   -0.34674E-04  3192   0.954E-03    0.474E-02
RMM:   5    -0.233119311433E+04    0.19902E-04   -0.97725E-05  3293   0.748E-03    0.245E-02
RMM:   6    -0.233119311949E+04   -0.51550E-05   -0.42051E-05  2973   0.621E-03
  45 F= -.23522411E+04 E0= -.23522411E+04  d E =-.173759E-02  mag=     6.0000
       N       E                     dE             d eps       ncg     rms          rms(c)
DAV:   1    -0.233118930563E+04    0.38087E-02   -0.51688E-01  4500   0.568E-01    0.197E-01
RMM:   2    -0.233119359872E+04   -0.42931E-02   -0.45041E-02  6090   0.115E-01    0.134E-01
RMM:   3    -0.233119380509E+04   -0.20637E-03   -0.34746E-03  5242   0.378E-02    0.130E-01
RMM:   4    -0.233119367349E+04    0.13160E-03   -0.41025E-04  3251   0.101E-02    0.533E-02
RMM:   5    -0.233119365360E+04    0.19889E-04   -0.11464E-04  3294   0.765E-03    0.373E-02
RMM:   6    -0.233119365345E+04    0.15863E-06   -0.64899E-05  2994   0.682E-03
  46 F= -.23522416E+04 E0= -.23522416E+04  d E =-.225903E-02  mag=     6.0000
       N       E                     dE             d eps       ncg     rms          rms(c)
DAV:   1    -0.233119239034E+04    0.12633E-02   -0.26532E-01  4544   0.423E-01    0.150E-01
RMM:   2    -0.233119474511E+04   -0.23548E-02   -0.24567E-02  6199   0.858E-02    0.108E-01
RMM:   3    -0.233119484570E+04   -0.10059E-03   -0.19273E-03  4546   0.287E-02    0.100E-01
RMM:   4    -0.233119476711E+04    0.78599E-04   -0.23871E-04  3088   0.834E-03    0.392E-02
RMM:   5    -0.233119475281E+04    0.14300E-04   -0.57833E-05  3054   0.611E-03    0.222E-02
RMM:   6    -0.233119475604E+04   -0.32327E-05   -0.33209E-05  2945   0.549E-03
  47 F= -.23522429E+04 E0= -.23522429E+04  d E =-.127518E-02  mag=     6.0000
       N       E                     dE             d eps       ncg     rms          rms(c)
DAV:   1    -0.233118918756E+04    0.55652E-02   -0.67903E-01  4504   0.676E-01    0.238E-01
RMM:   2    -0.233119519954E+04   -0.60120E-02   -0.62466E-02  6049   0.135E-01    0.176E-01
RMM:   3    -0.233119544598E+04   -0.24645E-03   -0.49617E-03  5411   0.484E-02    0.158E-01
RMM:   4    -0.233119524672E+04    0.19927E-03   -0.60746E-04  3623   0.123E-02    0.620E-02
RMM:   5    -0.233119520920E+04    0.37515E-04   -0.14387E-04  3630   0.913E-03    0.327E-02
RMM:   6    -0.233119521778E+04   -0.85797E-05   -0.76606E-05  3025   0.765E-03
  48 F= -.23522436E+04 E0= -.23522436E+04  d E =-.201175E-02  mag=     6.0000
       N       E                     dE             d eps       ncg     rms          rms(c)
DAV:   1    -0.233119258674E+04    0.26225E-02   -0.44760E-01  4516   0.560E-01    0.192E-01
RMM:   2    -0.233119649012E+04   -0.39034E-02   -0.40524E-02  6161   0.111E-01    0.147E-01
RMM:   3    -0.233119664721E+04   -0.15709E-03   -0.32899E-03  5331   0.382E-02    0.128E-01
RMM:   4    -0.233119651315E+04    0.13406E-03   -0.38774E-04  3268   0.999E-03    0.474E-02
RMM:   5    -0.233119649686E+04    0.16286E-04   -0.86741E-05  3153   0.708E-03    0.368E-02
RMM:   6    -0.233119649506E+04    0.18061E-05   -0.60737E-05  2979   0.668E-03
  49 F= -.23522452E+04 E0= -.23522452E+04  d E =-.159844E-02  mag=     6.0000
       N       E                     dE             d eps       ncg     rms          rms(c)
DAV:   1    -0.233118811242E+04    0.83844E-02   -0.99547E-01  4504   0.834E-01    0.285E-01
RMM:   2    -0.233119679256E+04   -0.86801E-02   -0.89900E-02  6106   0.164E-01    0.223E-01
RMM:   3    -0.233119710906E+04   -0.31649E-03   -0.72121E-03  5701   0.573E-02    0.189E-01
RMM:   4    -0.233119680867E+04    0.30038E-03   -0.85636E-04  4270   0.144E-02    0.701E-02
RMM:   5    -0.233119676873E+04    0.39937E-04   -0.19762E-04  3978   0.101E-02    0.522E-02
RMM:   6    -0.233119676582E+04    0.29129E-05   -0.12298E-04  3252   0.851E-03    0.439E-02
RMM:   7    -0.233119674742E+04    0.18404E-04   -0.29928E-05  2968   0.606E-03    0.840E-03
RMM:   8    -0.233119674647E+04    0.94443E-06   -0.70137E-06  2886   0.337E-03
  50 F= -.23522460E+04 E0= -.23522460E+04  d E =-.232681E-02  mag=     6.0000
       N       E                     dE             d eps       ncg     rms          rms(c)
DAV:   1    -0.233119374586E+04    0.30016E-02   -0.52045E-01  4516   0.571E-01    0.194E-01
RMM:   2    -0.233119798480E+04   -0.42389E-02   -0.43058E-02  6160   0.113E-01    0.179E-01
RMM:   3    -0.233119804077E+04   -0.55966E-04   -0.33129E-03  5142   0.356E-02    0.126E-01
RMM:   4    -0.233119791218E+04    0.12859E-03   -0.37963E-04  3279   0.989E-03    0.481E-02
RMM:   5    -0.233119789499E+04    0.17195E-04   -0.87759E-05  3201   0.731E-03    0.318E-02
RMM:   6    -0.233119790052E+04   -0.55365E-05   -0.55569E-05  2982   0.648E-03
  51 F= -.23522474E+04 E0= -.23522474E+04  d E =-.145737E-02  mag=     6.0000
       N       E                     dE             d eps       ncg     rms          rms(c)
DAV:   1    -0.233117623820E+04    0.21657E-01   -0.27381E+00  4504   0.131E+00    0.446E-01
RMM:   2    -0.233119845521E+04   -0.22217E-01   -0.22635E-01  6086   0.258E-01    0.401E-01
RMM:   3    -0.233119878180E+04   -0.32659E-03   -0.16865E-02  5837   0.809E-02    0.290E-01
RMM:   4    -0.233119812415E+04    0.65764E-03   -0.20859E-03  5081   0.216E-02    0.111E-01
RMM:   5    -0.233119807687E+04    0.47289E-04   -0.44355E-04  4464   0.140E-02    0.102E-01
RMM:   6    -0.233119802710E+04    0.49769E-04   -0.31648E-04  4242   0.115E-02    0.611E-02
RMM:   7    -0.233119799702E+04    0.30074E-04   -0.63138E-05  3101   0.727E-03    0.124E-02
RMM:   8    -0.233119799540E+04    0.16200E-05   -0.11452E-05  2926   0.397E-03
  52 F= -.23522482E+04 E0= -.23522482E+04  d E =-.224636E-02  mag=     6.0000
       N       E                     dE             d eps       ncg     rms          rms(c)
DAV:   1    -0.233119704458E+04    0.95244E-03   -0.15633E-01  4624   0.312E-01    0.106E-01
RMM:   2    -0.233119831234E+04   -0.12678E-02   -0.12902E-02  6160   0.618E-02    0.962E-02
RMM:   3    -0.233119833429E+04   -0.21955E-04   -0.10112E-03  3704   0.203E-02    0.693E-02
RMM:   4    -0.233119829521E+04    0.39076E-04   -0.11658E-04  3001   0.636E-03    0.262E-02
RMM:   5    -0.233119828914E+04    0.60729E-05   -0.28051E-05  2966   0.444E-03
  53 F= -.23522483E+04 E0= -.23522483E+04  d E =-.237450E-02  mag=     6.0000
       N       E                     dE             d eps       ncg     rms          rms(c)
DAV:   1    -0.233119357933E+04    0.47159E-02   -0.87784E-01  4504   0.697E-01    0.245E-01
RMM:   2    -0.233120030348E+04   -0.67242E-02   -0.67547E-02  6192   0.137E-01    0.244E-01
RMM:   3    -0.233120021521E+04    0.88269E-04   -0.45893E-03  5394   0.433E-02    0.157E-01
RMM:   4    -0.233120000503E+04    0.21017E-03   -0.56682E-04  3571   0.117E-02    0.626E-02
RMM:   5    -0.233119997546E+04    0.29572E-04   -0.13037E-04  3390   0.823E-03    0.400E-02
RMM:   6    -0.233119998473E+04   -0.92640E-05   -0.87905E-05  3022   0.744E-03
  54 F= -.23522503E+04 E0= -.23522503E+04  d E =-.195244E-02  mag=     6.0000
       N       E                     dE             d eps       ncg     rms          rms(c)
DAV:   1    -0.233117007670E+04    0.29899E-01   -0.40675E+00  4504   0.150E+00    0.530E-01
RMM:   2    -0.233120109917E+04   -0.31022E-01   -0.31338E-01  6129   0.295E-01    0.499E-01
RMM:   3    -0.233120119534E+04   -0.96172E-04   -0.22845E-02  5880   0.923E-02    0.340E-01
RMM:   4    -0.233120025428E+04    0.94106E-03   -0.29258E-03  5131   0.247E-02    0.138E-01
RMM:   5    -0.233120018247E+04    0.71808E-04   -0.62307E-04  4577   0.157E-02    0.123E-01
RMM:   6    -0.233120012131E+04    0.61157E-04   -0.44602E-04  4228   0.131E-02    0.751E-02
RMM:   7    -0.233120007904E+04    0.42271E-04   -0.99656E-05  3232   0.795E-03    0.147E-02
RMM:   8    -0.233120007805E+04    0.99001E-06   -0.14903E-05  2950   0.445E-03
  55 F= -.23522509E+04 E0= -.23522509E+04  d E =-.259922E-02  mag=     6.0000
       N       E                     dE             d eps       ncg     rms          rms(c)
DAV:   1    -0.233119757757E+04    0.25015E-02   -0.40850E-01  4516   0.478E-01    0.167E-01
RMM:   2    -0.233120067724E+04   -0.30997E-02   -0.31314E-02  6170   0.939E-02    0.161E-01
RMM:   3    -0.233120066692E+04    0.10319E-04   -0.22332E-03  4718   0.305E-02    0.107E-01
RMM:   4    -0.233120057514E+04    0.91780E-04   -0.27981E-04  3202   0.859E-03    0.431E-02
RMM:   5    -0.233120056047E+04    0.14676E-04   -0.63955E-05  3083   0.617E-03    0.240E-02
RMM:   6    -0.233120056568E+04   -0.52129E-05   -0.37484E-05  2954   0.538E-03
  56 F= -.23522512E+04 E0= -.23522512E+04  d E =-.291158E-02  mag=     6.0000
       N       E                     dE             d eps       ncg     rms          rms(c)
DAV:   1    -0.233119764974E+04    0.29107E-02   -0.59830E-01  4504   0.557E-01    0.194E-01
RMM:   2    -0.233120214577E+04   -0.44960E-02   -0.44789E-02  6305   0.111E-01    0.200E-01
RMM:   3    -0.233120211046E+04    0.35309E-04   -0.33687E-03  5033   0.348E-02    0.118E-01
RMM:   4    -0.233120199491E+04    0.11555E-03   -0.39804E-04  3236   0.951E-03    0.503E-02
RMM:   5    -0.233120197088E+04    0.24028E-04   -0.93382E-05  3154   0.716E-03    0.270E-02
RMM:   6    -0.233120197457E+04   -0.36852E-05   -0.47292E-05  2976   0.606E-03
  57 F= -.23522528E+04 E0= -.23522528E+04  d E =-.156213E-02  mag=     6.0000
       N       E                     dE             d eps       ncg     rms          rms(c)
DAV:   1    -0.233116378081E+04    0.38190E-01   -0.53645E+00  4504   0.167E+00    0.588E-01
RMM:   2    -0.233120436823E+04   -0.40587E-01   -0.40586E-01  6189   0.330E-01    0.587E-01
RMM:   3    -0.233120428019E+04    0.88042E-04   -0.29463E-02  5986   0.984E-02    0.370E-01
RMM:   4    -0.233120311328E+04    0.11669E-02   -0.36266E-03  5199   0.267E-02    0.151E-01
RMM:   5    -0.233120301102E+04    0.10226E-03   -0.82999E-04  4666   0.175E-02    0.129E-01
RMM:   6    -0.233120296684E+04    0.44181E-04   -0.53571E-04  4328   0.144E-02    0.892E-02
RMM:   7    -0.233120290405E+04    0.62789E-04   -0.13004E-04  3238   0.809E-03    0.174E-02
RMM:   8    -0.233120290120E+04    0.28498E-05   -0.17375E-05  2953   0.442E-03
  58 F= -.23522542E+04 E0= -.23522542E+04  d E =-.294858E-02  mag=     6.0000
       N       E                     dE             d eps       ncg     rms          rms(c)
DAV:   1    -0.233119573421E+04    0.71698E-02   -0.10926E+00  4504   0.736E-01    0.269E-01
RMM:   2    -0.233120427448E+04   -0.85403E-02   -0.85595E-02  6293   0.148E-01    0.269E-01
RMM:   3    -0.233120420284E+04    0.71634E-04   -0.56522E-03  5529   0.435E-02    0.171E-01
RMM:   4    -0.233120397915E+04    0.22370E-03   -0.75463E-04  3556   0.122E-02    0.681E-02
RMM:   5    -0.233120394587E+04    0.33274E-04   -0.13054E-04  3236   0.812E-03    0.365E-02
RMM:   6    -0.233120395269E+04   -0.68120E-05   -0.78470E-05  3025   0.731E-03
  59 F= -.23522557E+04 E0= -.23522557E+04  d E =-.153732E-02  mag=     6.0000
       N       E                     dE             d eps       ncg     rms          rms(c)
DAV:   1    -0.233113222666E+04    0.71719E-01   -0.94255E+00  4504   0.216E+00    0.792E-01
RMM:   2    -0.233120552234E+04   -0.73296E-01   -0.73551E-01  6192   0.431E-01    0.779E-01
RMM:   3    -0.233120573590E+04   -0.21356E-03   -0.55039E-02  5999   0.133E-01    0.506E-01
RMM:   4    -0.233120355906E+04    0.21768E-02   -0.66679E-03  5437   0.350E-02    0.201E-01
RMM:   5    -0.233120337449E+04    0.18456E-03   -0.12062E-03  4846   0.205E-02    0.158E-01
RMM:   6    -0.233120339322E+04   -0.18730E-04   -0.93683E-04  4822   0.175E-02    0.134E-01
RMM:   7    -0.233120324658E+04    0.14665E-03   -0.25261E-04  3640   0.102E-02    0.216E-02
RMM:   8    -0.233120324448E+04    0.20914E-05   -0.30825E-05  2989   0.507E-03
  60 F= -.23522564E+04 E0= -.23522564E+04  d E =-.225250E-02  mag=     6.0000
       N       E                     dE             d eps       ncg     rms          rms(c)
DAV:   1    -0.233119653824E+04    0.67083E-02   -0.10119E+00  4504   0.705E-01    0.258E-01
RMM:   2    -0.233120439928E+04   -0.78610E-02   -0.78734E-02  6198   0.142E-01    0.260E-01
RMM:   3    -0.233120433097E+04    0.68310E-04   -0.54006E-03  5501   0.431E-02    0.164E-01
RMM:   4    -0.233120411946E+04    0.21151E-03   -0.69613E-04  3484   0.118E-02    0.652E-02
RMM:   5    -0.233120409003E+04    0.29429E-04   -0.13234E-04  3195   0.800E-03    0.338E-02
RMM:   6    -0.233120409139E+04   -0.13543E-05   -0.61121E-05  3009   0.684E-03
  61 F= -.23522568E+04 E0= -.23522568E+04  d E =-.263365E-02  mag=     6.0000
       N       E                     dE             d eps       ncg     rms          rms(c)
DAV:   1    -0.233119918428E+04    0.49058E-02   -0.83406E-01  4504   0.653E-01    0.243E-01
RMM:   2    -0.233120591159E+04   -0.67273E-02   -0.67930E-02  6222   0.136E-01    0.237E-01
RMM:   3    -0.233120582449E+04    0.87098E-04   -0.44720E-03  5443   0.449E-02    0.158E-01
RMM:   4    -0.233120559922E+04    0.22527E-03   -0.57190E-04  3639   0.120E-02    0.611E-02
RMM:   5    -0.233120555739E+04    0.41830E-04   -0.13868E-04  3591   0.874E-03    0.313E-02
RMM:   6    -0.233120555761E+04   -0.22756E-06   -0.61229E-05  2994   0.755E-03
  62 F= -.23522589E+04 E0= -.23522589E+04  d E =-.207081E-02  mag=     6.0000
       N       E                     dE             d eps       ncg     rms          rms(c)
DAV:   1    -0.233118757470E+04    0.17983E-01   -0.22762E+00  4504   0.108E+00    0.409E-01
RMM:   2    -0.233120609154E+04   -0.18517E-01   -0.18787E-01  6152   0.223E-01    0.387E-01
RMM:   3    -0.233120596030E+04    0.13124E-03   -0.12326E-02  5848   0.688E-02    0.270E-01
RMM:   4    -0.233120531602E+04    0.64428E-03   -0.16063E-03  4920   0.192E-02    0.101E-01
RMM:   5    -0.233120521748E+04    0.98541E-04   -0.35407E-04  4226   0.130E-02    0.587E-02
RMM:   6    -0.233120524336E+04   -0.25878E-04   -0.21300E-04  3649   0.110E-02    0.647E-02
RMM:   7    -0.233120520324E+04    0.40115E-04   -0.55518E-05  3025   0.652E-03    0.124E-02
RMM:   8    -0.233120520154E+04    0.16975E-05   -0.95899E-06  2912   0.341E-03
  63 F= -.23522595E+04 E0= -.23522595E+04  d E =-.271285E-02  mag=     6.0000
       N       E                     dE             d eps       ncg     rms          rms(c)
DAV:   1    -0.233120443306E+04    0.77018E-03   -0.15311E-01  4608   0.280E-01    0.105E-01
RMM:   2    -0.233120565609E+04   -0.12230E-02   -0.12423E-02  6187   0.579E-02    0.985E-02
RMM:   3    -0.233120565223E+04    0.38607E-05   -0.87010E-04  3636   0.195E-02    0.683E-02
RMM:   4    -0.233120561389E+04    0.38339E-04   -0.11107E-04  3024   0.610E-03    0.264E-02
RMM:   5    -0.233120560845E+04    0.54384E-05   -0.27096E-05  2948   0.418E-03
  64 F= -.23522597E+04 E0= -.23522597E+04  d E =-.286116E-02  mag=     6.0000
       N       E                     dE             d eps       ncg     rms          rms(c)
DAV:   1    -0.233119973590E+04    0.58780E-02   -0.89181E-01  4504   0.691E-01    0.251E-01
RMM:   2    -0.233120723630E+04   -0.75004E-02   -0.75158E-02  6181   0.138E-01    0.263E-01
RMM:   3    -0.233120708185E+04    0.15446E-03   -0.51366E-03  5313   0.460E-02    0.156E-01
RMM:   4    -0.233120687227E+04    0.20957E-03   -0.60142E-04  3556   0.115E-02    0.626E-02
RMM:   5    -0.233120683350E+04    0.38773E-04   -0.15797E-04  3430   0.832E-03    0.464E-02
RMM:   6    -0.233120683268E+04    0.82258E-06   -0.99734E-05  3041   0.772E-03
  65 F= -.23522614E+04 E0= -.23522614E+04  d E =-.167707E-02  mag=     6.0000
       N       E                     dE             d eps       ncg     rms          rms(c)
DAV:   1    -0.233119483002E+04    0.12003E-01   -0.14597E+00  4504   0.883E-01    0.321E-01
RMM:   2    -0.233120702971E+04   -0.12200E-01   -0.12337E-01  6156   0.178E-01    0.315E-01
RMM:   3    -0.233120693675E+04    0.92965E-04   -0.85480E-03  5653   0.571E-02    0.207E-01
RMM:   4    -0.233120655640E+04    0.38035E-03   -0.99599E-04  4245   0.148E-02    0.812E-02
RMM:   5    -0.233120650125E+04    0.55149E-04   -0.26001E-04  3835   0.102E-02    0.609E-02
RMM:   6    -0.233120649720E+04    0.40531E-05   -0.16242E-04  3192   0.907E-03    0.524E-02
RMM:   7    -0.233120647323E+04    0.23965E-04   -0.43850E-05  2969   0.603E-03    0.107E-02
RMM:   8    -0.233120647175E+04    0.14767E-05   -0.86595E-06  2908   0.338E-03
  66 F= -.23522616E+04 E0= -.23522616E+04  d E =-.189535E-02  mag=     6.0000
       N       E                     dE             d eps       ncg     rms          rms(c)
DAV:   1    -0.233120564007E+04    0.83316E-03   -0.14875E-01  4576   0.282E-01    0.102E-01
RMM:   2    -0.233120688359E+04   -0.12435E-02   -0.12511E-02  6240   0.572E-02    0.104E-01
RMM:   3    -0.233120686262E+04    0.20970E-04   -0.86793E-04  3546   0.189E-02    0.640E-02
RMM:   4    -0.233120682759E+04    0.35030E-04   -0.10239E-04  3010   0.578E-03    0.260E-02
RMM:   5    -0.233120682307E+04    0.45139E-05   -0.29313E-05  2953   0.390E-03
  67 F= -.23522618E+04 E0= -.23522618E+04  d E =-.206215E-02  mag=     6.0000
       N       E                     dE             d eps       ncg     rms          rms(c)
DAV:   1    -0.233120029100E+04    0.65366E-02   -0.97256E-01  4504   0.766E-01    0.268E-01
RMM:   2    -0.233120840254E+04   -0.81115E-02   -0.81522E-02  6147   0.151E-01    0.278E-01
RMM:   3    -0.233120821947E+04    0.18306E-03   -0.56278E-03  5418   0.485E-02    0.167E-01
RMM:   4    -0.233120798646E+04    0.23302E-03   -0.69316E-04  3763   0.126E-02    0.689E-02
RMM:   5    -0.233120794191E+04    0.44551E-04   -0.16110E-04  3597   0.897E-03    0.454E-02
RMM:   6    -0.233120794939E+04   -0.74867E-05   -0.11006E-04  3057   0.808E-03    0.481E-02
RMM:   7    -0.233120792883E+04    0.20561E-04   -0.34887E-05  2968   0.554E-03    0.805E-03
RMM:   8    -0.233120792827E+04    0.55811E-06   -0.63539E-06  2889   0.308E-03
  68 F= -.23522633E+04 E0= -.23522633E+04  d E =-.155537E-02  mag=     6.0000
       N       E                     dE             d eps       ncg     rms          rms(c)
DAV:   1    -0.233120451466E+04    0.34142E-02   -0.42331E-01  4528   0.506E-01    0.176E-01
RMM:   2    -0.233120804862E+04   -0.35340E-02   -0.35709E-02  6152   0.100E-01    0.177E-01
RMM:   3    -0.233120798745E+04    0.61169E-04   -0.24090E-03  4542   0.306E-02    0.111E-01
RMM:   4    -0.233120788334E+04    0.10411E-03   -0.31062E-04  3200   0.899E-03    0.461E-02
RMM:   5    -0.233120786138E+04    0.21953E-04   -0.74858E-05  3104   0.658E-03    0.258E-02
RMM:   6    -0.233120786645E+04   -0.50682E-05   -0.44329E-05  2971   0.593E-03
  69 F= -.23522635E+04 E0= -.23522635E+04  d E =-.179050E-02  mag=     6.0000
       N       E                     dE             d eps       ncg     rms          rms(c)
DAV:   1    -0.233120286213E+04    0.49993E-02   -0.79639E-01  4504   0.743E-01    0.253E-01
RMM:   2    -0.233120929947E+04   -0.64373E-02   -0.65497E-02  6001   0.145E-01    0.238E-01
RMM:   3    -0.233120924822E+04    0.51249E-04   -0.45736E-03  5463   0.478E-02    0.161E-01
RMM:   4    -0.233120900752E+04    0.24070E-03   -0.55916E-04  4031   0.123E-02    0.624E-02
RMM:   5    -0.233120897599E+04    0.31522E-04   -0.16242E-04  3790   0.939E-03    0.411E-02
RMM:   6    -0.233120898054E+04   -0.45418E-05   -0.88326E-05  3020   0.779E-03
  70 F= -.23522648E+04 E0= -.23522648E+04  d E =-.130485E-02  mag=     6.0000
       N       E                     dE             d eps       ncg     rms          rms(c)
DAV:   1    -0.233120700827E+04    0.19677E-02   -0.25121E-01  4624   0.418E-01    0.144E-01
RMM:   2    -0.233120903428E+04   -0.20260E-02   -0.20709E-02  6238   0.830E-02    0.131E-01
RMM:   3    -0.233120903605E+04   -0.17721E-05   -0.15115E-03  4280   0.261E-02    0.921E-02
RMM:   4    -0.233120896152E+04    0.74527E-04   -0.18506E-04  3091   0.791E-03    0.362E-02
RMM:   5    -0.233120895334E+04    0.81818E-05   -0.52798E-05  2999   0.582E-03
  71 F= -.23522649E+04 E0= -.23522649E+04  d E =-.138572E-02  mag=     6.0000
       N       E                     dE             d eps       ncg     rms          rms(c)
DAV:   1    -0.233120369806E+04    0.52635E-02   -0.69445E-01  4504   0.707E-01    0.245E-01
RMM:   2    -0.233121018718E+04   -0.64891E-02   -0.65704E-02  6253   0.142E-01    0.245E-01
RMM:   3    -0.233121009006E+04    0.97117E-04   -0.45468E-03  5579   0.430E-02    0.151E-01
RMM:   4    -0.233120990006E+04    0.19000E-03   -0.57184E-04  3585   0.117E-02    0.622E-02
RMM:   5    -0.233120987000E+04    0.30055E-04   -0.12885E-04  3577   0.871E-03    0.285E-02
RMM:   6    -0.233120987520E+04   -0.51961E-05   -0.48615E-05  2970   0.702E-03
  72 F= -.23522660E+04 E0= -.23522660E+04  d E =-.111784E-02  mag=     6.0000
       N       E                     dE             d eps       ncg     rms          rms(c)
DAV:   1    -0.233120575263E+04    0.41174E-02   -0.46281E-01  4504   0.577E-01    0.202E-01
RMM:   2    -0.233121008005E+04   -0.43274E-02   -0.43972E-02  6234   0.116E-01    0.196E-01
RMM:   3    -0.233121003673E+04    0.43317E-04   -0.30376E-03  5216   0.353E-02    0.125E-01
RMM:   4    -0.233120990610E+04    0.13063E-03   -0.38785E-04  3287   0.986E-03    0.503E-02
RMM:   5    -0.233120988628E+04    0.19824E-04   -0.82437E-05  3189   0.724E-03    0.230E-02
RMM:   6    -0.233120988774E+04   -0.14596E-05   -0.30139E-05  2956   0.596E-03
  73 F= -.23522662E+04 E0= -.23522662E+04  d E =-.129188E-02  mag=     6.0000
       N       E                     dE             d eps       ncg     rms          rms(c)
DAV:   1    -0.233120196285E+04    0.79234E-02   -0.82480E-01  4504   0.810E-01    0.290E-01
RMM:   2    -0.233121099932E+04   -0.90365E-02   -0.91054E-02  6082   0.166E-01    0.289E-01
RMM:   3    -0.233121087244E+04    0.12688E-03   -0.63091E-03  5647   0.558E-02    0.179E-01
RMM:   4    -0.233121059855E+04    0.27388E-03   -0.84206E-04  4419   0.141E-02    0.687E-02
RMM:   5    -0.233121055527E+04    0.43281E-04   -0.16165E-04  3932   0.100E-02    0.354E-02
RMM:   6    -0.233121056334E+04   -0.80722E-05   -0.83842E-05  3260   0.804E-03
  74 F= -.23522673E+04 E0= -.23522673E+04  d E =-.112761E-02  mag=     6.0000
       N       E                     dE             d eps       ncg     rms          rms(c)
DAV:   1    -0.233120901744E+04    0.15378E-02   -0.13023E-01  4624   0.322E-01    0.118E-01
RMM:   2    -0.233121044341E+04   -0.14260E-02   -0.14465E-02  6357   0.687E-02    0.111E-01
RMM:   3    -0.233121044655E+04   -0.31392E-05   -0.11067E-03  3974   0.218E-02    0.741E-02
RMM:   4    -0.233121040341E+04    0.43144E-04   -0.13850E-04  3042   0.690E-03    0.286E-02
RMM:   5    -0.233121039839E+04    0.50187E-05   -0.28657E-05  2960   0.455E-03
  75 F= -.23522674E+04 E0= -.23522674E+04  d E =-.114270E-02  mag=     6.0000
       N       E                     dE             d eps       ncg     rms          rms(c)
DAV:   1    -0.233120261884E+04    0.77846E-02   -0.68528E-01  4504   0.728E-01    0.257E-01
RMM:   2    -0.233121137260E+04   -0.87538E-02   -0.87286E-02  6246   0.153E-01    0.275E-01
RMM:   3    -0.233121126025E+04    0.11235E-03   -0.61204E-03  5568   0.481E-02    0.153E-01
RMM:   4    -0.233121106808E+04    0.19217E-03   -0.76847E-04  3671   0.122E-02    0.625E-02
RMM:   5    -0.233121102954E+04    0.38543E-04   -0.11108E-04  3465   0.847E-03    0.358E-02
RMM:   6    -0.233121102586E+04    0.36766E-05   -0.74578E-05  3111   0.775E-03
  76 F= -.23522685E+04 E0= -.23522685E+04  d E =-.112964E-02  mag=     6.0000
       N       E                     dE             d eps       ncg     rms          rms(c)
DAV:   1    -0.233120234843E+04    0.86811E-02   -0.67871E-01  4504   0.724E-01    0.258E-01
RMM:   2    -0.233121103184E+04   -0.86834E-02   -0.86667E-02  6256   0.153E-01    0.274E-01
RMM:   3    -0.233121094325E+04    0.88597E-04   -0.62327E-03  5613   0.489E-02    0.154E-01
RMM:   4    -0.233121074687E+04    0.19637E-03   -0.74013E-04  3672   0.121E-02    0.614E-02
RMM:   5    -0.233121070990E+04    0.36978E-04   -0.10736E-04  3353   0.820E-03    0.355E-02
RMM:   6    -0.233121071165E+04   -0.17563E-05   -0.80377E-05  3122   0.776E-03
  77 F= -.23522687E+04 E0= -.23522687E+04  d E =-.131386E-02  mag=     6.0000
       N       E                     dE             d eps       ncg     rms          rms(c)
DAV:   1    -0.233120339485E+04    0.73150E-02   -0.57203E-01  4504   0.683E-01    0.251E-01
RMM:   2    -0.233121137912E+04   -0.79843E-02   -0.80026E-02  6294   0.147E-01    0.263E-01
RMM:   3    -0.233121135943E+04    0.19688E-04   -0.61488E-03  5627   0.495E-02    0.151E-01
RMM:   4    -0.233121118658E+04    0.17285E-03   -0.72187E-04  3570   0.120E-02    0.585E-02
RMM:   5    -0.233121115920E+04    0.27384E-04   -0.79900E-05  3131   0.735E-03    0.375E-02
RMM:   6    -0.233121116877E+04   -0.95692E-05   -0.81511E-05  3085   0.731E-03
  78 F= -.23522697E+04 E0= -.23522697E+04  d E =-.100815E-02  mag=     6.0000
       N       E                     dE             d eps       ncg     rms          rms(c)
DAV:   1    -0.233120102410E+04    0.10135E-01   -0.71767E-01  4504   0.764E-01    0.280E-01
RMM:   2    -0.233121104371E+04   -0.10020E-01   -0.10059E-01  6264   0.164E-01    0.288E-01
RMM:   3    -0.233121103486E+04    0.88465E-05   -0.75412E-03  5730   0.532E-02    0.170E-01
RMM:   4    -0.233121080988E+04    0.22498E-03   -0.89377E-04  3774   0.131E-02    0.658E-02
RMM:   5    -0.233121077561E+04    0.34273E-04   -0.10243E-04  3238   0.804E-03    0.422E-02
RMM:   6    -0.233121078693E+04   -0.11321E-04   -0.10202E-04  3184   0.799E-03    0.476E-02
RMM:   7    -0.233121076698E+04    0.19957E-04   -0.36331E-05  2956   0.600E-03    0.919E-03
RMM:   8    -0.233121076695E+04    0.23647E-07   -0.63696E-06  2891   0.307E-03
  79 F= -.23522699E+04 E0= -.23522699E+04  d E =-.122403E-02  mag=     6.0000
       N       E                     dE             d eps       ncg     rms          rms(c)
DAV:   1    -0.233120299204E+04    0.77749E-02   -0.65153E-01  4504   0.722E-01    0.264E-01
RMM:   2    -0.233121179579E+04   -0.88037E-02   -0.87454E-02  6187   0.154E-01    0.287E-01
RMM:   3    -0.233121165490E+04    0.14089E-03   -0.63319E-03  5671   0.487E-02    0.153E-01
RMM:   4    -0.233121147266E+04    0.18224E-03   -0.80832E-04  3760   0.123E-02    0.604E-02
RMM:   5    -0.233121143059E+04    0.42064E-04   -0.94396E-05  3327   0.807E-03    0.367E-02
RMM:   6    -0.233121142880E+04    0.17979E-05   -0.82482E-05  3261   0.790E-03
  80 F= -.23522710E+04 E0= -.23522710E+04  d E =-.106581E-02  mag=     6.0000
       N       E                     dE             d eps       ncg     rms          rms(c)
DAV:   1    -0.233120007808E+04    0.11353E-01   -0.85285E-01  4504   0.826E-01    0.304E-01
RMM:   2    -0.233121159920E+04   -0.11521E-01   -0.11471E-01  6176   0.176E-01    0.326E-01
RMM:   3    -0.233121142436E+04    0.17484E-03   -0.82038E-03  5793   0.553E-02    0.178E-01
RMM:   4    -0.233121118055E+04    0.24381E-03   -0.10704E-03  4206   0.140E-02    0.691E-02
RMM:   5    -0.233121113239E+04    0.48158E-04   -0.12652E-04  3576   0.890E-03    0.476E-02
RMM:   6    -0.233121114314E+04   -0.10754E-04   -0.12179E-04  3248   0.850E-03    0.517E-02
RMM:   7    -0.233121111732E+04    0.25826E-04   -0.39339E-05  2952   0.629E-03    0.896E-03
RMM:   8    -0.233121111680E+04    0.51773E-06   -0.71693E-06  2891   0.339E-03
  81 F= -.23522711E+04 E0= -.23522711E+04  d E =-.121612E-02  mag=     6.0000
       N       E                     dE             d eps       ncg     rms          rms(c)
DAV:   1    -0.233120189481E+04    0.92225E-02   -0.77411E-01  4504   0.781E-01    0.284E-01
RMM:   2    -0.233121210881E+04   -0.10214E-01   -0.10116E-01  6196   0.164E-01    0.310E-01
RMM:   3    -0.233121195780E+04    0.15101E-03   -0.76460E-03  5695   0.538E-02    0.160E-01
RMM:   4    -0.233121175501E+04    0.20279E-03   -0.92652E-04  3853   0.130E-02    0.666E-02
RMM:   5    -0.233121170618E+04    0.48825E-04   -0.11318E-04  3334   0.854E-03    0.374E-02
RMM:   6    -0.233121170189E+04    0.42895E-05   -0.89993E-05  3303   0.812E-03
  82 F= -.23522721E+04 E0= -.23522721E+04  d E =-.971155E-03  mag=     6.0000
       N       E                     dE             d eps       ncg     rms          rms(c)
DAV:   1    -0.233119381404E+04    0.17892E-01   -0.13834E+00  4504   0.104E+00    0.380E-01
RMM:   2    -0.233121202304E+04   -0.18209E-01   -0.18073E-01  6188   0.219E-01    0.410E-01
RMM:   3    -0.233121178248E+04    0.24056E-03   -0.13470E-02  5909   0.684E-02    0.217E-01
RMM:   4    -0.233121143054E+04    0.35195E-03   -0.17740E-03  4581   0.171E-02    0.881E-02
RMM:   5    -0.233121134773E+04    0.82810E-04   -0.19442E-04  3903   0.107E-02    0.520E-02
RMM:   6    -0.233121134139E+04    0.63410E-05   -0.16383E-04  3751   0.101E-02    0.213E-02
RMM:   7    -0.233121134143E+04   -0.43961E-07   -0.28241E-05  2945   0.584E-03
  83 F= -.23522722E+04 E0= -.23522722E+04  d E =-.112719E-02  mag=     6.0000
       N       E                     dE             d eps       ncg     rms          rms(c)
DAV:   1    -0.233119973167E+04    0.11610E-01   -0.10168E+00  4504   0.909E-01    0.325E-01
RMM:   2    -0.233121240221E+04   -0.12671E-01   -0.12695E-01  6175   0.188E-01    0.335E-01
RMM:   3    -0.233121231337E+04    0.88838E-04   -0.95377E-03  5779   0.608E-02    0.190E-01
RMM:   4    -0.233121204371E+04    0.26966E-03   -0.12766E-03  4314   0.152E-02    0.771E-02
RMM:   5    -0.233121198758E+04    0.56126E-04   -0.14698E-04  3635   0.974E-03    0.428E-02
RMM:   6    -0.233121199233E+04   -0.47419E-05   -0.11183E-04  3474   0.888E-03    0.324E-02
RMM:   7    -0.233121198515E+04    0.71786E-05   -0.28264E-05  2940   0.582E-03
  84 F= -.23522734E+04 E0= -.23522734E+04  d E =-.113122E-02  mag=     6.0000
       N       E                     dE             d eps       ncg     rms          rms(c)
DAV:   1    -0.233120865311E+04    0.33392E-02   -0.26255E-01  4576   0.462E-01    0.166E-01
RMM:   2    -0.233121194211E+04   -0.32890E-02   -0.32961E-02  6175   0.959E-02    0.172E-01
RMM:   3    -0.233121191626E+04    0.25846E-04   -0.24888E-03  4848   0.318E-02    0.975E-02
RMM:   4    -0.233121184247E+04    0.73799E-04   -0.30937E-04  3166   0.847E-03    0.395E-02
RMM:   5    -0.233121182688E+04    0.15581E-04   -0.41135E-05  2994   0.565E-03    0.207E-02
RMM:   6    -0.233121182664E+04    0.24443E-06   -0.27131E-05  2938   0.511E-03
  85 F= -.23522735E+04 E0= -.23522735E+04  d E =-.122072E-02  mag=     6.0000
       N       E                     dE             d eps       ncg     rms          rms(c)
DAV:   1    -0.233120689660E+04    0.49303E-02   -0.59567E-01  4504   0.715E-01    0.234E-01
RMM:   2    -0.233121286154E+04   -0.59649E-02   -0.60327E-02  6004   0.141E-01    0.227E-01
RMM:   3    -0.233121283130E+04    0.30234E-04   -0.44334E-03  5393   0.467E-02    0.143E-01
RMM:   4    -0.233121264930E+04    0.18201E-03   -0.56289E-04  3978   0.119E-02    0.552E-02
RMM:   5    -0.233121261262E+04    0.36682E-04   -0.10466E-04  3538   0.872E-03    0.284E-02
RMM:   6    -0.233121261510E+04   -0.24827E-05   -0.56477E-05  3050   0.737E-03
  86 F= -.23522746E+04 E0= -.23522746E+04  d E =-.109693E-02  mag=     6.0000
       N       E                     dE             d eps       ncg     rms          rms(c)
DAV:   1    -0.233121133358E+04    0.12790E-02   -0.12259E-01  4608   0.325E-01    0.108E-01
RMM:   2    -0.233121255946E+04   -0.12259E-02   -0.12506E-02  6314   0.661E-02    0.980E-02
RMM:   3    -0.233121256883E+04   -0.93709E-05   -0.92507E-04  3863   0.207E-02    0.677E-02
RMM:   4    -0.233121253149E+04    0.37340E-04   -0.11880E-04  3011   0.663E-03    0.261E-02
RMM:   5    -0.233121252533E+04    0.61660E-05   -0.25138E-05  2946   0.455E-03
  87 F= -.23522746E+04 E0= -.23522746E+04  d E =-.114738E-02  mag=     6.0000
       N       E                     dE             d eps       ncg     rms          rms(c)
DAV:   1    -0.233120784884E+04    0.46827E-02   -0.59978E-01  4504   0.753E-01    0.229E-01
RMM:   2    -0.233121327266E+04   -0.54238E-02   -0.55155E-02  6131   0.143E-01    0.213E-01
RMM:   3    -0.233121323907E+04    0.33596E-04   -0.39606E-03  5457   0.468E-02    0.145E-01
RMM:   4    -0.233121304155E+04    0.19752E-03   -0.49609E-04  4017   0.121E-02    0.542E-02
RMM:   5    -0.233121301025E+04    0.31296E-04   -0.11344E-04  3728   0.892E-03    0.274E-02
RMM:   6    -0.233121301536E+04   -0.51054E-05   -0.51909E-05  3070   0.717E-03
  88 F= -.23522756E+04 E0= -.23522756E+04  d E =-.981431E-03  mag=     6.0000
       N       E                     dE             d eps       ncg     rms          rms(c)
DAV:   1    -0.233120996863E+04    0.30416E-02   -0.31954E-01  4528   0.550E-01    0.169E-01
RMM:   2    -0.233121285083E+04   -0.28822E-02   -0.29479E-02  6209   0.105E-01    0.150E-01
RMM:   3    -0.233121286545E+04   -0.14625E-04   -0.21328E-03  5118   0.338E-02    0.109E-01
RMM:   4    -0.233121275866E+04    0.10680E-03   -0.26696E-04  3230   0.924E-03    0.403E-02
RMM:   5    -0.233121274637E+04    0.12287E-04   -0.57466E-05  3069   0.653E-03    0.287E-02
RMM:   6    -0.233121274735E+04   -0.98207E-06   -0.40473E-05  2942   0.607E-03
  89 F= -.23522757E+04 E0= -.23522757E+04  d E =-.107205E-02  mag=     6.0000
       N       E                     dE             d eps       ncg     rms          rms(c)
DAV:   1    -0.233120868125E+04    0.40651E-02   -0.56609E-01  4504   0.721E-01    0.204E-01
RMM:   2    -0.233121342782E+04   -0.47466E-02   -0.47983E-02  6052   0.133E-01    0.198E-01
RMM:   3    -0.233121338638E+04    0.41442E-04   -0.33007E-03  5282   0.460E-02    0.129E-01
RMM:   4    -0.233121323914E+04    0.14724E-03   -0.41181E-04  3615   0.111E-02    0.512E-02
RMM:   5    -0.233121322000E+04    0.19138E-04   -0.10081E-04  3351   0.813E-03    0.435E-02
RMM:   6    -0.233121321133E+04    0.86700E-05   -0.67980E-05  3041   0.729E-03
  90 F= -.23522765E+04 E0= -.23522765E+04  d E =-.841173E-03  mag=     6.0000
       N       E                     dE             d eps       ncg     rms          rms(c)
DAV:   1    -0.233120923058E+04    0.39894E-02   -0.46634E-01  4528   0.654E-01    0.186E-01
RMM:   2    -0.233121314941E+04   -0.39188E-02   -0.39614E-02  6123   0.122E-01    0.181E-01
RMM:   3    -0.233121310787E+04    0.41539E-04   -0.27134E-03  5274   0.393E-02    0.118E-01
RMM:   4    -0.233121298476E+04    0.12311E-03   -0.33798E-04  3395   0.101E-02    0.465E-02
RMM:   5    -0.233121296987E+04    0.14895E-04   -0.84773E-05  3239   0.740E-03    0.402E-02
RMM:   6    -0.233121296140E+04    0.84639E-05   -0.56584E-05  2996   0.680E-03
  91 F= -.23522766E+04 E0= -.23522766E+04  d E =-.933846E-03  mag=     6.0000
       N       E                     dE             d eps       ncg     rms          rms(c)
DAV:   1    -0.233120914136E+04    0.38285E-02   -0.64332E-01  4504   0.773E-01    0.221E-01
RMM:   2    -0.233121382686E+04   -0.46855E-02   -0.47299E-02  6038   0.140E-01    0.208E-01
RMM:   3    -0.233121376607E+04    0.60785E-04   -0.33911E-03  5343   0.484E-02    0.140E-01
RMM:   4    -0.233121358130E+04    0.18477E-03   -0.41869E-04  4082   0.121E-02    0.518E-02
RMM:   5    -0.233121356059E+04    0.20712E-04   -0.11998E-04  3673   0.923E-03    0.430E-02
RMM:   6    -0.233121355264E+04    0.79533E-05   -0.68067E-05  3038   0.737E-03
  92 F= -.23522775E+04 E0= -.23522775E+04  d E =-.895150E-03  mag=     6.0000
       N       E                     dE             d eps       ncg     rms          rms(c)
DAV:   1    -0.233121167410E+04    0.18865E-02   -0.25319E-01  4576   0.485E-01    0.139E-01
RMM:   2    -0.233121352701E+04   -0.18529E-02   -0.18748E-02  6192   0.889E-02    0.127E-01
RMM:   3    -0.233121350880E+04    0.18216E-04   -0.13578E-03  4552   0.287E-02    0.884E-02
RMM:   4    -0.233121343630E+04    0.72495E-04   -0.17145E-04  3152   0.831E-03    0.334E-02
RMM:   5    -0.233121342906E+04    0.72405E-05   -0.51135E-05  3044   0.615E-03
  93 F= -.23522776E+04 E0= -.23522776E+04  d E =-.962693E-03  mag=     6.0000
       N       E                     dE             d eps       ncg     rms          rms(c)
DAV:   1    -0.233121022374E+04    0.32126E-02   -0.62198E-01  4504   0.761E-01    0.215E-01
RMM:   2    -0.233121427326E+04   -0.40495E-02   -0.41310E-02  6063   0.136E-01    0.185E-01
RMM:   3    -0.233121424954E+04    0.23714E-04   -0.30209E-03  5388   0.464E-02    0.138E-01
RMM:   4    -0.233121407061E+04    0.17893E-03   -0.38827E-04  4151   0.120E-02    0.517E-02
RMM:   5    -0.233121403508E+04    0.35534E-04   -0.12016E-04  3955   0.964E-03    0.230E-02
RMM:   6    -0.233121403775E+04   -0.26741E-05   -0.41226E-05  3014   0.712E-03
  94 F= -.23522784E+04 E0= -.23522784E+04  d E =-.853385E-03  mag=     6.0000
       N       E                     dE             d eps       ncg     rms          rms(c)
DAV:   1    -0.233121356369E+04    0.47139E-03   -0.61519E-02  4656   0.239E-01    0.699E-02
RMM:   2    -0.233121397297E+04   -0.40927E-03   -0.42055E-03  6235   0.449E-02    0.568E-02
RMM:   3    -0.233121397516E+04   -0.21952E-05   -0.31229E-04  3433   0.142E-02    0.459E-02
RMM:   4    -0.233121395632E+04    0.18846E-04   -0.41469E-05  2961   0.498E-03    0.166E-02
RMM:   5    -0.233121395320E+04    0.31141E-05   -0.13033E-05  2922   0.350E-03
  95 F= -.23522784E+04 E0= -.23522784E+04  d E =-.846165E-03  mag=     6.0000
       N       E                     dE             d eps       ncg     rms          rms(c)
DAV:   1    -0.233121088377E+04    0.30725E-02   -0.59473E-01  4516   0.743E-01    0.205E-01
RMM:   2    -0.233121477809E+04   -0.38943E-02   -0.39026E-02  5944   0.130E-01    0.200E-01
RMM:   3    -0.233121468039E+04    0.97703E-04   -0.27974E-03  5215   0.440E-02    0.128E-01
RMM:   4    -0.233121452776E+04    0.15263E-03   -0.34905E-04  4132   0.113E-02    0.483E-02
RMM:   5    -0.233121449295E+04    0.34803E-04   -0.10718E-04  3877   0.924E-03    0.230E-02
RMM:   6    -0.233121449502E+04   -0.20695E-05   -0.40429E-05  3014   0.696E-03
  96 F= -.23522791E+04 E0= -.23522791E+04  d E =-.718648E-03  mag=     6.0000
       N       E                     dE             d eps       ncg     rms          rms(c)
DAV:   1    -0.233121418430E+04    0.30865E-03   -0.39628E-02  4664   0.192E-01    0.546E-02
RMM:   2    -0.233121444579E+04   -0.26149E-03   -0.26722E-03  6169   0.362E-02    0.461E-02
RMM:   3    -0.233121444733E+04   -0.15402E-05   -0.19777E-04  3175   0.114E-02    0.360E-02
RMM:   4    -0.233121443620E+04    0.11129E-04   -0.24940E-05  2938   0.420E-03    0.131E-02
RMM:   5    -0.233121443433E+04    0.18722E-05   -0.83289E-06  2902   0.278E-03
  97 F= -.23522791E+04 E0= -.23522791E+04  d E =-.704050E-03  mag=     6.0000
       N       E                     dE             d eps       ncg     rms          rms(c)
DAV:   1    -0.233121163383E+04    0.28024E-02   -0.54378E-01  4504   0.726E-01    0.195E-01
RMM:   2    -0.233121518604E+04   -0.35522E-02   -0.35694E-02  5865   0.126E-01    0.182E-01
RMM:   3    -0.233121512704E+04    0.59002E-04   -0.25565E-03  5109   0.426E-02    0.123E-01
RMM:   4    -0.233121497973E+04    0.14731E-03   -0.33509E-04  4086   0.110E-02    0.455E-02
RMM:   5    -0.233121494957E+04    0.30165E-04   -0.86296E-05  3649   0.864E-03    0.211E-02
RMM:   6    -0.233121494953E+04    0.35812E-07   -0.33386E-05  3018   0.668E-03
  98 F= -.23522799E+04 E0= -.23522799E+04  d E =-.807128E-03  mag=     6.0000
       N       E                     dE             d eps       ncg     rms          rms(c)
DAV:   1    -0.233121325518E+04    0.16944E-02   -0.24713E-01  4516   0.490E-01    0.133E-01
RMM:   2    -0.233121487936E+04   -0.16242E-02   -0.16374E-02  6048   0.865E-02    0.121E-01
RMM:   3    -0.233121486384E+04    0.15519E-04   -0.11435E-03  4612   0.290E-02    0.858E-02
RMM:   4    -0.233121479709E+04    0.66753E-04   -0.14985E-04  3167   0.806E-03    0.312E-02
RMM:   5    -0.233121478431E+04    0.12775E-04   -0.42566E-05  3124   0.623E-03    0.151E-02
RMM:   6    -0.233121478525E+04   -0.93812E-06   -0.19062E-05  2929   0.540E-03
  99 F= -.23522800E+04 E0= -.23522800E+04  d E =-.839865E-03  mag=     6.0000
       N       E                     dE             d eps       ncg     rms          rms(c)
DAV:   1    -0.233121147592E+04    0.33084E-02   -0.55869E-01  4504   0.741E-01    0.194E-01
RMM:   2    -0.233121533283E+04   -0.38569E-02   -0.38811E-02  5921   0.130E-01    0.180E-01
RMM:   3    -0.233121531385E+04    0.18984E-04   -0.28449E-03  5196   0.473E-02    0.121E-01
RMM:   4    -0.233121517862E+04    0.13523E-03   -0.35529E-04  3934   0.112E-02    0.468E-02
RMM:   5    -0.233121515168E+04    0.26940E-04   -0.85836E-05  3488   0.860E-03    0.303E-02
RMM:   6    -0.233121515404E+04   -0.23668E-05   -0.54886E-05  3046   0.716E-03
 100 F= -.23522807E+04 E0= -.23522807E+04  d E =-.711783E-03  mag=     6.0000
       N       E                     dE             d eps       ncg     rms          rms(c)
DAV:   1    -0.233121273744E+04    0.24142E-02   -0.32990E-01  4516   0.570E-01    0.150E-01
RMM:   2    -0.233121503196E+04   -0.22945E-02   -0.23190E-02  6056   0.101E-01    0.134E-01
RMM:   3    -0.233121503243E+04   -0.47764E-06   -0.16369E-03  4967   0.337E-02    0.966E-02
RMM:   4    -0.233121494593E+04    0.86502E-04   -0.20928E-04  3288   0.898E-03    0.366E-02
RMM:   5    -0.233121493141E+04    0.14524E-04   -0.53822E-05  3147   0.677E-03    0.256E-02
RMM:   6    -0.233121493142E+04   -0.16298E-07   -0.34997E-05  2957   0.609E-03
 101 F= -.23522807E+04 E0= -.23522807E+04  d E =-.753530E-03  mag=     6.0000
       N       E                     dE             d eps       ncg     rms          rms(c)
DAV:   1    -0.233121028339E+04    0.46480E-02   -0.70197E-01  4504   0.836E-01    0.221E-01
RMM:   2    -0.233121559595E+04   -0.53126E-02   -0.53551E-02  5950   0.149E-01    0.207E-01
RMM:   3    -0.233121559185E+04    0.40976E-05   -0.38283E-03  5335   0.532E-02    0.140E-01
RMM:   4    -0.233121541166E+04    0.18019E-03   -0.47691E-04  4257   0.126E-02    0.545E-02
RMM:   5    -0.233121537953E+04    0.32137E-04   -0.11430E-04  3697   0.951E-03    0.383E-02
[...]
RMM:   3    -0.233122050335E+04   -0.53399E-05   -0.22786E-04  3408   0.140E-02    0.515E-02
RMM:   4    -0.233122048121E+04    0.22142E-04   -0.40198E-05  2947   0.531E-03    0.218E-02
RMM:   5    -0.233122047796E+04    0.32464E-05   -0.20508E-05  2924   0.451E-03
 164 F= -.23522916E+04 E0= -.23522916E+04  d E =-.223246E-03  mag=     6.0000
       N       E                     dE             d eps       ncg     rms          rms(c)
DAV:   1    -0.233122041309E+04    0.68121E-04   -0.12034E-02  4760   0.107E-01    0.358E-02
RMM:   2    -0.233122047449E+04   -0.61400E-04   -0.61984E-04  5664   0.211E-02    0.317E-02
RMM:   3    -0.233122047157E+04    0.29114E-05   -0.62028E-05  2970   0.782E-03
 165 F= -.23522916E+04 E0= -.23522916E+04  d E =-.234999E-03  mag=     6.0000
       N       E                     dE             d eps       ncg     rms          rms(c)
DAV:   1    -0.233122041608E+04    0.58407E-04   -0.63309E-02  4516   0.241E-01    0.765E-02
RMM:   2    -0.233122069845E+04   -0.28237E-03   -0.30116E-03  5961   0.425E-02    0.507E-02
RMM:   3    -0.233122070501E+04   -0.65640E-05   -0.23050E-04  3426   0.138E-02    0.538E-02
RMM:   4    -0.233122067981E+04    0.25205E-04   -0.41050E-05  2960   0.540E-03    0.214E-02
RMM:   5    -0.233122067663E+04    0.31831E-05   -0.22770E-05  2932   0.468E-03
 166 F= -.23522919E+04 E0= -.23522919E+04  d E =-.244623E-03  mag=     6.0000
       N       E                     dE             d eps       ncg     rms          rms(c)
DAV:   1    -0.233122060532E+04    0.74487E-04   -0.14779E-02  4784   0.116E-01    0.377E-02
RMM:   2    -0.233122067607E+04   -0.70744E-04   -0.72581E-04  5741   0.227E-02    0.312E-02
RMM:   3    -0.233122067484E+04    0.12284E-05   -0.71441E-05  2972   0.838E-03
 167 F= -.23522919E+04 E0= -.23522919E+04  d E =-.262149E-03  mag=     6.0000
       N       E                     dE             d eps       ncg     rms          rms(c)
DAV:   1    -0.233122061347E+04    0.62596E-04   -0.68279E-02  4504   0.256E-01    0.835E-02
RMM:   2    -0.233122091099E+04   -0.29752E-03   -0.31861E-03  5946   0.449E-02    0.527E-02
RMM:   3    -0.233122091865E+04   -0.76626E-05   -0.23973E-04  3535   0.147E-02    0.585E-02
RMM:   4    -0.233122088832E+04    0.30332E-04   -0.45293E-05  2978   0.578E-03    0.221E-02
RMM:   5    -0.233122088557E+04    0.27568E-05   -0.24317E-05  2939   0.487E-03
 168 F= -.23522921E+04 E0= -.23522921E+04  d E =-.264973E-03  mag=     6.0000
       N       E                     dE             d eps       ncg     rms          rms(c)
DAV:   1    -0.233122080903E+04    0.79293E-04   -0.13840E-02  4784   0.115E-01    0.386E-02
RMM:   2    -0.233122087456E+04   -0.65532E-04   -0.66632E-04  5731   0.224E-02    0.310E-02
RMM:   3    -0.233122087308E+04    0.14789E-05   -0.68046E-05  2977   0.829E-03
 169 F= -.23522921E+04 E0= -.23522921E+04  d E =-.277143E-03  mag=     6.0000
       N       E                     dE             d eps       ncg     rms          rms(c)
DAV:   1    -0.233122075810E+04    0.11646E-03   -0.71969E-02  4504   0.263E-01    0.866E-02
RMM:   2    -0.233122107615E+04   -0.31805E-03   -0.34186E-03  5966   0.464E-02    0.566E-02
RMM:   3    -0.233122108173E+04   -0.55793E-05   -0.25571E-04  3590   0.151E-02    0.609E-02
RMM:   4    -0.233122104836E+04    0.33364E-04   -0.51396E-05  2995   0.598E-03    0.230E-02
RMM:   5    -0.233122104559E+04    0.27739E-05   -0.26095E-05  2952   0.494E-03
 170 F= -.23522924E+04 E0= -.23522924E+04  d E =-.242212E-03  mag=     6.0000
       N       E                     dE             d eps       ncg     rms          rms(c)
DAV:   1    -0.233122099668E+04    0.51682E-04   -0.64594E-03  5072   0.791E-02    0.281E-02
RMM:   2    -0.233122103032E+04   -0.33634E-04   -0.32635E-04  5183   0.161E-02    0.276E-02
RMM:   3    -0.233122102644E+04    0.38809E-05   -0.38010E-05  2926   0.644E-03
 171 F= -.23522924E+04 E0= -.23522924E+04  d E =-.244225E-03  mag=     6.0000
       N       E                     dE             d eps       ncg     rms          rms(c)
DAV:   1    -0.233122094404E+04    0.86273E-04   -0.78259E-02  4504   0.267E-01    0.883E-02
RMM:   2    -0.233122128385E+04   -0.33980E-03   -0.35926E-03  5937   0.469E-02    0.628E-02
RMM:   3    -0.233122128731E+04   -0.34605E-05   -0.27084E-04  3622   0.155E-02    0.650E-02
RMM:   4    -0.233122124534E+04    0.41972E-04   -0.52567E-05  3016   0.618E-03    0.227E-02
RMM:   5    -0.233122124443E+04    0.90439E-06   -0.31200E-05  2992   0.531E-03
 172 F= -.23522926E+04 E0= -.23522926E+04  d E =-.245386E-03  mag=     6.0000
       N       E                     dE             d eps       ncg     rms          rms(c)
DAV:   1    -0.233122122855E+04    0.16789E-04   -0.14090E-03  5416   0.368E-02    0.147E-02
RMM:   2    -0.233122123662E+04   -0.80678E-05   -0.75037E-05  3378   0.797E-03
 173 F= -.23522926E+04 E0= -.23522926E+04  d E =-.241338E-03  mag=     6.0000
       N       E                     dE             d eps       ncg     rms          rms(c)
DAV:   1    -0.233122122011E+04    0.84414E-05   -0.69795E-02  4516   0.255E-01    0.866E-02
RMM:   2    -0.233122150333E+04   -0.28322E-03   -0.30946E-03  6116   0.463E-02    0.506E-02
RMM:   3    -0.233122151301E+04   -0.96799E-05   -0.26109E-04  3832   0.175E-02    0.573E-02
RMM:   4    -0.233122148127E+04    0.31737E-04   -0.47143E-05  2993   0.600E-03    0.223E-02
RMM:   5    -0.233122147641E+04    0.48617E-05   -0.26297E-05  2965   0.517E-03
 174 F= -.23522929E+04 E0= -.23522929E+04  d E =-.234723E-03  mag=     6.0000
       N       E                     dE             d eps       ncg     rms          rms(c)
DAV:   1    -0.233122147305E+04    0.82209E-05   -0.53025E-04  5240   0.233E-02    0.136E-02
RMM:   2    -0.233122148060E+04   -0.75508E-05   -0.40894E-05  3021   0.564E-03
 175 F= -.23522929E+04 E0= -.23522929E+04  d E =-.238461E-03  mag=     6.0000
       N       E                     dE             d eps       ncg     rms          rms(c)
DAV:   1    -0.233122147680E+04   -0.37553E-05   -0.52566E-02  4504   0.221E-01    0.737E-02
RMM:   2    -0.233122171509E+04   -0.23829E-03   -0.25825E-03  6040   0.407E-02    0.469E-02
RMM:   3    -0.233122171947E+04   -0.43826E-05   -0.20008E-04  3663   0.158E-02    0.499E-02
RMM:   4    -0.233122169829E+04    0.21181E-04   -0.37422E-05  2956   0.543E-03    0.210E-02
RMM:   5    -0.233122169399E+04    0.43062E-05   -0.19585E-05  2931   0.461E-03
 176 F= -.23522931E+04 E0= -.23522931E+04  d E =-.209186E-03  mag=     6.0000
       N       E                     dE             d eps       ncg     rms          rms(c)
DAV:   1    -0.233122169003E+04    0.82645E-05   -0.78786E-04  5288   0.276E-02    0.117E-02
RMM:   2    -0.233122169544E+04   -0.54153E-05   -0.47174E-05  3120   0.640E-03
 177 F= -.23522931E+04 E0= -.23522931E+04  d E =-.210113E-03  mag=     6.0000
       N       E                     dE             d eps       ncg     rms          rms(c)
DAV:   1    -0.233122168627E+04    0.37541E-05   -0.51424E-02  4504   0.221E-01    0.769E-02
RMM:   2    -0.233122191708E+04   -0.23081E-03   -0.25119E-03  6112   0.405E-02    0.444E-02
RMM:   3    -0.233122192682E+04   -0.97364E-05   -0.21330E-04  3646   0.156E-02    0.514E-02
RMM:   4    -0.233122190289E+04    0.23929E-04   -0.36777E-05  2951   0.540E-03    0.193E-02
RMM:   5    -0.233122189917E+04    0.37167E-05   -0.20441E-05  2923   0.456E-03
 178 F= -.23522933E+04 E0= -.23522933E+04  d E =-.201842E-03  mag=     6.0000
       N       E                     dE             d eps       ncg     rms          rms(c)
DAV:   1    -0.233122189060E+04    0.12289E-04   -0.18988E-03  5384   0.429E-02    0.173E-02
RMM:   2    -0.233122190210E+04   -0.11500E-04   -0.10471E-04  3664   0.949E-03    0.192E-02
RMM:   3    -0.233122190002E+04    0.20748E-05   -0.15215E-05  2767   0.543E-03
 179 F= -.23522933E+04 E0= -.23522933E+04  d E =-.202322E-03  mag=     6.0000
       N       E                     dE             d eps       ncg     rms          rms(c)
DAV:   1    -0.233122183889E+04    0.63213E-04   -0.50561E-02  4516   0.215E-01    0.738E-02
RMM:   2    -0.233122206677E+04   -0.22789E-03   -0.24347E-03  5949   0.379E-02    0.485E-02
RMM:   3    -0.233122207495E+04   -0.81796E-05   -0.20255E-04  3398   0.142E-02    0.531E-02
RMM:   4    -0.233122204810E+04    0.26851E-04   -0.35195E-05  2950   0.530E-03    0.186E-02
RMM:   5    -0.233122204681E+04    0.12932E-05   -0.20418E-05  2932   0.434E-03
 180 F= -.23522935E+04 E0= -.23522935E+04  d E =-.183595E-03  mag=     6.0000
       N       E                     dE             d eps       ncg     rms          rms(c)
DAV:   1    -0.233122202927E+04    0.18828E-04   -0.17263E-03  5376   0.402E-02    0.160E-02
RMM:   2    -0.233122203929E+04   -0.10015E-04   -0.93774E-05  3507   0.878E-03    0.171E-02
RMM:   3    -0.233122203783E+04    0.14621E-05   -0.13386E-05  2744   0.498E-03
 181 F= -.23522935E+04 E0= -.23522935E+04  d E =-.181562E-03  mag=     6.0000
       N       E                     dE             d eps       ncg     rms          rms(c)
DAV:   1    -0.233122203420E+04    0.50863E-05   -0.32974E-02  4516   0.173E-01    0.598E-02
RMM:   2    -0.233122218697E+04   -0.15277E-03   -0.16050E-03  5951   0.310E-02    0.404E-02
RMM:   3    -0.233122219084E+04   -0.38710E-05   -0.12864E-04  3185   0.117E-02    0.426E-02
RMM:   4    -0.233122217401E+04    0.16833E-04   -0.24506E-05  2932   0.446E-03    0.153E-02
RMM:   5    -0.233122217334E+04    0.67003E-06   -0.12241E-05  2907   0.346E-03
 182 F= -.23522937E+04 E0= -.23522937E+04  d E =-.189916E-03  mag=     6.0000
       N       E                     dE             d eps       ncg     rms          rms(c)
DAV:   1    -0.233122209454E+04    0.79469E-04   -0.15355E-02  4608   0.118E-01    0.410E-02
RMM:   2    -0.233122216672E+04   -0.72180E-04   -0.75636E-04  5781   0.228E-02    0.274E-02
RMM:   3    -0.233122216956E+04   -0.28376E-05   -0.73870E-05  2980   0.871E-03
 183 F= -.23522937E+04 E0= -.23522937E+04  d E =-.223497E-03  mag=     6.0000
       N       E                     dE             d eps       ncg     rms          rms(c)
DAV:   1    -0.233122216781E+04   -0.10954E-05   -0.41690E-02  4504   0.194E-01    0.703E-02
RMM:   2    -0.233122236011E+04   -0.19230E-03   -0.20372E-03  5935   0.354E-02    0.445E-02
RMM:   3    -0.233122236899E+04   -0.88789E-05   -0.16768E-04  3241   0.119E-02    0.497E-02
RMM:   4    -0.233122234738E+04    0.21611E-04   -0.32420E-05  2946   0.501E-03    0.183E-02
RMM:   5    -0.233122234652E+04    0.85683E-06   -0.16831E-05  2917   0.400E-03
 184 F= -.23522939E+04 E0= -.23522939E+04  d E =-.207261E-03  mag=     6.0000
       N       E                     dE             d eps       ncg     rms          rms(c)
DAV:   1    -0.233122228176E+04    0.65621E-04   -0.15146E-02  4736   0.117E-01    0.422E-02
RMM:   2    -0.233122235478E+04   -0.73021E-04   -0.74876E-04  5745   0.228E-02    0.310E-02
RMM:   3    -0.233122235558E+04   -0.80210E-06   -0.75953E-05  2994   0.877E-03
 185 F= -.23522939E+04 E0= -.23522939E+04  d E =-.234680E-03  mag=     6.0000
       N       E                     dE             d eps       ncg     rms          rms(c)
DAV:   1    -0.233122240569E+04   -0.50915E-04   -0.35706E-02  4516   0.174E-01    0.618E-02
RMM:   2    -0.233122257380E+04   -0.16810E-03   -0.17401E-03  5930   0.319E-02    0.428E-02
RMM:   3    -0.233122257924E+04   -0.54488E-05   -0.14039E-04  3115   0.106E-02    0.448E-02
RMM:   4    -0.233122256107E+04    0.18170E-04   -0.25717E-05  2946   0.458E-03    0.165E-02
RMM:   5    -0.233122256091E+04    0.16583E-06   -0.15976E-05  2921   0.364E-03
 186 F= -.23522941E+04 E0= -.23522941E+04  d E =-.196399E-03  mag=     6.0000
       N       E                     dE             d eps       ncg     rms          rms(c)
DAV:   1    -0.233122247405E+04    0.87022E-04   -0.32639E-02  4576   0.166E-01    0.565E-02
RMM:   2    -0.233122262496E+04   -0.15091E-03   -0.15699E-03  5987   0.309E-02    0.378E-02
RMM:   3    -0.233122263038E+04   -0.54218E-05   -0.12895E-04  3179   0.113E-02    0.404E-02
RMM:   4    -0.233122261425E+04    0.16136E-04   -0.20796E-05  2931   0.430E-03    0.137E-02
RMM:   5    -0.233122261231E+04    0.19356E-05   -0.12481E-05  2909   0.330E-03
 187 F= -.23522942E+04 E0= -.23522942E+04  d E =-.239305E-03  mag=     6.0000
       N       E                     dE             d eps       ncg     rms          rms(c)
DAV:   1    -0.233122271211E+04   -0.97864E-04   -0.31977E-02  4560   0.163E-01    0.565E-02
RMM:   2    -0.233122284525E+04   -0.13314E-03   -0.14190E-03  5970   0.299E-02    0.338E-02
RMM:   3    -0.233122285087E+04   -0.56153E-05   -0.11335E-04  3184   0.112E-02    0.376E-02
RMM:   4    -0.233122283752E+04    0.13346E-04   -0.21184E-05  2935   0.427E-03    0.144E-02
RMM:   5    -0.233122283580E+04    0.17249E-05   -0.10067E-05  2891   0.316E-03
 188 F= -.23522944E+04 E0= -.23522944E+04  d E =-.238576E-03  mag=     6.0000
       N       E                     dE             d eps       ncg     rms          rms(c)
DAV:   1    -0.233122274552E+04    0.91998E-04   -0.40204E-02  4560   0.183E-01    0.634E-02
RMM:   2    -0.233122291493E+04   -0.16941E-03   -0.17968E-03  6010   0.333E-02    0.391E-02
RMM:   3    -0.233122292164E+04   -0.67082E-05   -0.14031E-04  3289   0.123E-02    0.435E-02
RMM:   4    -0.233122290349E+04    0.18152E-04   -0.25732E-05  2946   0.467E-03    0.164E-02
RMM:   5    -0.233122290142E+04    0.20703E-05   -0.13459E-05  2898   0.362E-03
 189 F= -.23522945E+04 E0= -.23522945E+04  d E =-.321227E-03  mag=     6.0000
       N       E                     dE             d eps       ncg     rms          rms(c)
DAV:   1    -0.233122299573E+04   -0.92244E-04   -0.37269E-02  4584   0.178E-01    0.634E-02
RMM:   2    -0.233122314412E+04   -0.14839E-03   -0.15972E-03  5997   0.330E-02    0.381E-02
RMM:   3    -0.233122314921E+04   -0.50910E-05   -0.13851E-04  3301   0.123E-02    0.413E-02
RMM:   4    -0.233122313351E+04    0.15702E-04   -0.27838E-05  2945   0.481E-03    0.169E-02
RMM:   5    -0.233122313128E+04    0.22233E-05   -0.12093E-05  2901   0.356E-03
 190 F= -.23522948E+04 E0= -.23522948E+04  d E =-.275304E-03  mag=     6.0000
       N       E                     dE             d eps       ncg     rms          rms(c)
DAV:   1    -0.233122305828E+04    0.75223E-04   -0.24431E-02  4696   0.144E-01    0.527E-02
RMM:   2    -0.233122316335E+04   -0.10507E-03   -0.10645E-03  5903   0.272E-02    0.438E-02
RMM:   3    -0.233122316008E+04    0.32720E-05   -0.98879E-05  3116   0.103E-02
 191 F= -.23522948E+04 E0= -.23522948E+04  d E =-.341050E-03  mag=     6.0000
       N       E                     dE             d eps       ncg     rms          rms(c)
DAV:   1    -0.233122320001E+04   -0.36660E-04   -0.41660E-02  4504   0.186E-01    0.711E-02
RMM:   2    -0.233122337975E+04   -0.17974E-03   -0.19328E-03  5911   0.348E-02    0.410E-02
RMM:   3    -0.233122338758E+04   -0.78344E-05   -0.15019E-04  3221   0.117E-02    0.442E-02
RMM:   4    -0.233122337218E+04    0.15404E-04   -0.31598E-05  2958   0.504E-03    0.207E-02
RMM:   5    -0.233122336971E+04    0.24718E-05   -0.18075E-05  2920   0.422E-03
 192 F= -.23522950E+04 E0= -.23522950E+04  d E =-.218476E-03  mag=     6.0000
       N       E                     dE             d eps       ncg     rms          rms(c)
DAV:   1    -0.233122333798E+04    0.34195E-04   -0.10841E-02  4832   0.951E-02    0.351E-02
RMM:   2    -0.233122338666E+04   -0.48680E-04   -0.51317E-04  5460   0.191E-02    0.223E-02
RMM:   3    -0.233122338941E+04   -0.27516E-05   -0.48799E-05  2949   0.752E-03
 193 F= -.23522951E+04 E0= -.23522951E+04  d E =-.242749E-03  mag=     6.0000
       N       E                     dE             d eps       ncg     rms          rms(c)
DAV:   1    -0.233122343187E+04   -0.45206E-04   -0.49428E-02  4504   0.207E-01    0.780E-02
RMM:   2    -0.233122364664E+04   -0.21477E-03   -0.23144E-03  5930   0.376E-02    0.498E-02
RMM:   3    -0.233122365556E+04   -0.89297E-05   -0.18291E-04  3327   0.129E-02    0.565E-02
RMM:   4    -0.233122362672E+04    0.28845E-04   -0.42001E-05  2969   0.547E-03    0.210E-02
RMM:   5    -0.233122362448E+04    0.22414E-05   -0.21470E-05  2941   0.450E-03
 194 F= -.23522953E+04 E0= -.23522953E+04  d E =-.237863E-03  mag=     6.0000
       N       E                     dE             d eps       ncg     rms          rms(c)
DAV:   1    -0.233122361061E+04    0.16112E-04   -0.40910E-03  5160   0.598E-02    0.241E-02
RMM:   2    -0.233122363164E+04   -0.21031E-04   -0.20479E-04  4461   0.128E-02    0.225E-02
RMM:   3    -0.233122362945E+04    0.21903E-05   -0.25079E-05  2918   0.610E-03
 195 F= -.23522953E+04 E0= -.23522953E+04  d E =-.243666E-03  mag=     6.0000
       N       E                     dE             d eps       ncg     rms          rms(c)
DAV:   1    -0.233122367664E+04   -0.44999E-04   -0.40957E-02  4516   0.189E-01    0.720E-02
RMM:   2    -0.233122385832E+04   -0.18168E-03   -0.19563E-03  5935   0.347E-02    0.464E-02
RMM:   3    -0.233122386372E+04   -0.54010E-05   -0.15737E-04  3285   0.122E-02    0.510E-02
RMM:   4    -0.233122383969E+04    0.24032E-04   -0.35615E-05  2975   0.518E-03    0.189E-02
RMM:   5    -0.233122383772E+04    0.19700E-05   -0.17814E-05  2930   0.414E-03
 196 F= -.23522955E+04 E0= -.23522955E+04  d E =-.224489E-03  mag=     6.0000
       N       E                     dE             d eps       ncg     rms          rms(c)
DAV:   1    -0.233122381956E+04    0.20130E-04   -0.41352E-03  5032   0.606E-02    0.246E-02
RMM:   2    -0.233122384063E+04   -0.21069E-04   -0.20888E-04  4501   0.129E-02    0.218E-02
RMM:   3    -0.233122383915E+04    0.14808E-05   -0.26280E-05  2917   0.614E-03
 197 F= -.23522955E+04 E0= -.23522955E+04  d E =-.231166E-03  mag=     6.0000
       N       E                     dE             d eps       ncg     rms          rms(c)
DAV:   1    -0.233122386572E+04   -0.25092E-04   -0.44019E-02  4516   0.199E-01    0.756E-02
RMM:   2    -0.233122406205E+04   -0.19633E-03   -0.20911E-03  5928   0.362E-02    0.496E-02
RMM:   3    -0.233122407020E+04   -0.81500E-05   -0.17107E-04  3313   0.126E-02    0.564E-02
RMM:   4    -0.233122403928E+04    0.30925E-04   -0.38203E-05  2969   0.543E-03    0.184E-02
RMM:   5    -0.233122403862E+04    0.66000E-06   -0.20359E-05  2935   0.439E-03
 198 F= -.23522958E+04 E0= -.23522958E+04  d E =-.215814E-03  mag=     6.0000
       N       E                     dE             d eps       ncg     rms          rms(c)
DAV:   1    -0.233122402307E+04    0.16215E-04   -0.25256E-03  5240   0.483E-02    0.193E-02
RMM:   2    -0.233122403531E+04   -0.12249E-04   -0.12588E-04  3882   0.105E-02    0.151E-02
RMM:   3    -0.233122403579E+04   -0.47608E-06   -0.18279E-05  2875   0.575E-03
 199 F= -.23522958E+04 E0= -.23522958E+04  d E =-.216975E-03  mag=     6.0000
       N       E                     dE             d eps       ncg     rms          rms(c)
DAV:   1    -0.233122405980E+04   -0.24486E-04   -0.42992E-02  4516   0.194E-01    0.735E-02
RMM:   2    -0.233122424460E+04   -0.18479E-03   -0.19868E-03  5946   0.352E-02    0.465E-02
RMM:   3    -0.233122425392E+04   -0.93282E-05   -0.16167E-04  3311   0.126E-02    0.541E-02
RMM:   4    -0.233122422598E+04    0.27942E-04   -0.35837E-05  2972   0.531E-03    0.185E-02
RMM:   5    -0.233122422497E+04    0.10064E-05   -0.18808E-05  2932   0.428E-03
 200 F= -.23522960E+04 E0= -.23522960E+04  d E =-.200210E-03  mag=     6.0000
       N       E                     dE             d eps       ncg     rms          rms(c)
DAV:   1    -0.233122421330E+04    0.12684E-04   -0.19588E-03  5272   0.420E-02    0.175E-02
RMM:   2    -0.233122422344E+04   -0.10148E-04   -0.97724E-05  3604   0.918E-03    0.166E-02
RMM:   3    -0.233122422263E+04    0.81187E-06   -0.14537E-05  2824   0.527E-03
 201 F= -.23522960E+04 E0= -.23522960E+04  d E =-.200281E-03  mag=     6.0000
