       N       E                     dE             d eps       ncg     rms          rms(c)
DAV:   1     0.121595596883E+05    0.12160E+05   -0.83534E+05  4640   0.141E+03
DAV:   2    -0.129347256934E+04   -0.13453E+05   -0.12947E+05  5200   0.319E+02
DAV:   3    -0.249406718804E+04   -0.12006E+04   -0.11913E+04  5440   0.101E+02
DAV:   4    -0.251932090486E+04   -0.25254E+02   -0.25129E+02  5760   0.175E+01
DAV:   5    -0.251995597337E+04   -0.63507E+00   -0.63400E+00  5760   0.247E+00    0.170E+02
RMM:   6    -0.147725588410E+04    0.10427E+04   -0.18916E+03  4498   0.376E+01    0.727E+01
RMM:   7    -0.164859328276E+04   -0.17134E+03   -0.26287E+02  4987   0.131E+01    0.518E+01
RMM:   8    -0.170607196285E+04   -0.57479E+02   -0.65650E+01  5129   0.811E+00    0.436E+01
RMM:   9    -0.177470100134E+04   -0.68629E+02   -0.62436E+01  4920   0.734E+00    0.339E+01
RMM:  10    -0.192834583402E+04   -0.15364E+03   -0.70610E+01  5101   0.788E+00    0.191E+01
RMM:  11    -0.204053051215E+04   -0.11218E+03   -0.52864E+01  4939   0.591E+00    0.183E+01
RMM:  12    -0.211259310117E+04   -0.72063E+02   -0.31810E+01  4865   0.424E+00    0.124E+01
RMM:  13    -0.223853872215E+04   -0.12595E+03   -0.10242E+02  4654   0.718E+00    0.187E+01
RMM:  14    -0.227413981489E+04   -0.35601E+02   -0.28673E+01  4554   0.405E+00    0.118E+01
RMM:  15    -0.230136530345E+04   -0.27225E+02   -0.24856E+01  4518   0.347E+00    0.495E+00
RMM:  16    -0.230681300615E+04   -0.54477E+01   -0.45514E+00  4545   0.220E+00    0.326E+00
RMM:  17    -0.230976557910E+04   -0.29526E+01   -0.25944E+00  4702   0.910E-01    0.140E+00
RMM:  18    -0.231080867127E+04   -0.10431E+01   -0.81007E-01  4614   0.803E-01    0.956E-01
RMM:  19    -0.231111948191E+04   -0.31081E+00   -0.34088E-01  4716   0.287E-01    0.632E-01
RMM:  20    -0.231133196191E+04   -0.21248E+00   -0.21285E-01  4543   0.262E-01    0.364E-01
RMM:  21    -0.231138718243E+04   -0.55221E-01   -0.73760E-02  4901   0.148E-01    0.250E-01
RMM:  22    -0.231140847990E+04   -0.21297E-01   -0.13987E-02  4827   0.845E-02    0.157E-01
RMM:  23    -0.231141998804E+04   -0.11508E-01   -0.44412E-03  4593   0.453E-02    0.824E-02
RMM:  24    -0.231143117953E+04   -0.11191E-01   -0.29758E-03  4500   0.419E-02    0.441E-02
RMM:  25    -0.231143547879E+04   -0.42993E-02   -0.11971E-03  4477   0.277E-02    0.369E-02
RMM:  26    -0.231143818912E+04   -0.27103E-02   -0.74645E-04  4196   0.193E-02    0.171E-02
RMM:  27    -0.231143917616E+04   -0.98704E-03   -0.26240E-04  4039   0.137E-02    0.143E-02
RMM:  28    -0.231143959419E+04   -0.41803E-03   -0.12175E-04  3773   0.768E-03    0.873E-03
RMM:  29    -0.231143973535E+04   -0.14115E-03   -0.35715E-05  3366   0.606E-03    0.691E-03
RMM:  30    -0.231143978008E+04   -0.44735E-04   -0.13298E-05  3028   0.331E-03    0.244E-03
RMM:  31    -0.231143980175E+04   -0.21669E-04   -0.56865E-06  2854   0.267E-03    0.294E-03
RMM:  32    -0.231143980687E+04   -0.51177E-05   -0.25704E-06  2518   0.194E-03
   1 F= -.23318735E+04 E0= -.23318735E+04  d E =-.381436E-09  mag=     5.0000
       N       E                     dE             d eps       ncg     rms          rms(c)
DAV:   1    -0.231138764022E+04    0.52162E-01   -0.19017E+00  4480   0.479E-01    0.340E-01
RMM:   2    -0.231138919264E+04   -0.15524E-02   -0.12529E-02  4176   0.389E-02    0.469E-01
RMM:   3    -0.231138863597E+04    0.55667E-03   -0.22056E-03  4973   0.166E-02    0.395E-01
RMM:   4    -0.231138785517E+04    0.78080E-03   -0.84731E-04  3857   0.118E-02    0.909E-02
RMM:   5    -0.231138782492E+04    0.30249E-04   -0.19236E-04  3177   0.727E-03    0.297E-02
RMM:   6    -0.231138782565E+04   -0.72592E-06   -0.37477E-05  2942   0.443E-03
   2 F= -.23318224E+04 E0= -.23318224E+04  d E =-.160998E-09  mag=     5.0000
       N       E                     dE             d eps       ncg     rms          rms(c)
DAV:   1    -0.231147238181E+04   -0.84557E-01   -0.75344E+00  4480   0.944E-01    0.696E-01
RMM:   2    -0.231147894991E+04   -0.65681E-02   -0.53255E-02  4589   0.811E-02    0.992E-01
RMM:   3    -0.231147620038E+04    0.27495E-02   -0.97209E-03  5656   0.364E-02    0.790E-01
RMM:   4    -0.231147297478E+04    0.32256E-02   -0.30586E-03  4572   0.227E-02    0.175E-01
RMM:   5    -0.231147292999E+04    0.44790E-04   -0.82299E-04  3985   0.139E-02    0.624E-02
RMM:   6    -0.231147293228E+04   -0.22922E-05   -0.14594E-04  3208   0.773E-03    0.293E-02
RMM:   7    -0.231147293669E+04   -0.44074E-05   -0.34637E-05  3002   0.427E-03
   3 F= -.23319061E+04 E0= -.23319061E+04  d E =-.106785E-08  mag=     5.0000
       N       E                     dE             d eps       ncg     rms          rms(c)
DAV:   1    -0.231136370529E+04    0.10923E+00   -0.41756E+00  4480   0.718E-01    0.589E-01
RMM:   2    -0.231136452167E+04   -0.81639E-03   -0.40151E-02  4290   0.663E-02    0.470E-01
RMM:   3    -0.231136644319E+04   -0.19215E-02   -0.61705E-03  5595   0.273E-02    0.860E-01
RMM:   4    -0.231136209632E+04    0.43469E-02   -0.32851E-03  4916   0.228E-02    0.193E-01
RMM:   5    -0.231136181033E+04    0.28599E-03   -0.71225E-04  3994   0.124E-02    0.478E-02
RMM:   6    -0.231136183135E+04   -0.21018E-04   -0.11098E-04  3092   0.728E-03    0.277E-02
RMM:   7    -0.231136183832E+04   -0.69737E-05   -0.41474E-05  3030   0.401E-03
   4 F= -.23317957E+04 E0= -.23317957E+04  d E =-.929372E-08  mag=     5.0000
       N       E                     dE             d eps       ncg     rms          rms(c)
DAV:   1    -0.231147352050E+04   -0.11169E+00   -0.82174E+00  4480   0.101E+00    0.823E-01
RMM:   2    -0.231147450545E+04   -0.98495E-03   -0.73055E-02  4307   0.941E-02    0.503E-01
RMM:   3    -0.231147692908E+04   -0.24236E-02   -0.91113E-03  5574   0.402E-02    0.104E+00
RMM:   4    -0.231147116600E+04    0.57631E-02   -0.51738E-03  5155   0.267E-02    0.268E-01
RMM:   5    -0.231147086848E+04    0.29753E-03   -0.11352E-03  3982   0.147E-02    0.103E-01
RMM:   6    -0.231147086513E+04    0.33449E-05   -0.19073E-04  3187   0.975E-03    0.605E-02
RMM:   7    -0.231147089563E+04   -0.30500E-04   -0.74972E-05  3048   0.527E-03    0.236E-02
RMM:   8    -0.231147091261E+04   -0.16983E-04   -0.19279E-05  2945   0.411E-03    0.216E-02
RMM:   9    -0.231147092367E+04   -0.11057E-04   -0.11505E-05  2876   0.265E-03    0.113E-02
RMM:  10    -0.231147093130E+04   -0.76268E-05   -0.64211E-06  2818   0.244E-03
   5 F= -.23319046E+04 E0= -.23319046E+04  d E =-.185819E-10  mag=     5.0000
       N       E                     dE             d eps       ncg     rms          rms(c)
DAV:   1    -0.231144056915E+04    0.30355E-01   -0.40359E+00  4640   0.770E-01    0.526E-01
RMM:   2    -0.231144158519E+04   -0.10160E-02   -0.29424E-02  4296   0.591E-02    0.380E-01
RMM:   3    -0.231144346794E+04   -0.18828E-02   -0.45576E-03  5305   0.247E-02    0.754E-01
RMM:   4    -0.231144047512E+04    0.29928E-02   -0.27942E-03  4575   0.200E-02    0.188E-01
RMM:   5    -0.231144030659E+04    0.16853E-03   -0.62218E-04  3886   0.114E-02    0.820E-02
RMM:   6    -0.231144030545E+04    0.11366E-05   -0.10583E-04  3012   0.661E-03    0.315E-02
RMM:   7    -0.231144031227E+04   -0.68174E-05   -0.30613E-05  2946   0.367E-03
   6 F= -.23318739E+04 E0= -.23318739E+04  d E =-.823373E-09  mag=     5.0000
       N       E                     dE             d eps       ncg     rms          rms(c)
DAV:   1    -0.231137380553E+04    0.66500E-01   -0.84969E+00  4480   0.110E+00    0.919E-01
RMM:   2    -0.231137271778E+04    0.10877E-02   -0.82672E-02  4461   0.108E-01    0.831E-01
RMM:   3    -0.231137635575E+04   -0.36380E-02   -0.14975E-02  5862   0.430E-02    0.133E+00
RMM:   4    -0.231136523915E+04    0.11117E-01   -0.93924E-03  4970   0.389E-02    0.182E-01
RMM:   5    -0.231136504137E+04    0.19778E-03   -0.17786E-03  4270   0.206E-02    0.982E-02
RMM:   6    -0.231136500381E+04    0.37558E-04   -0.25382E-04  3349   0.820E-03    0.378E-02
RMM:   7    -0.231136500527E+04   -0.14653E-05   -0.66554E-05  3055   0.534E-03
   7 F= -.23317989E+04 E0= -.23317989E+04  d E =-.173108E-09  mag=     5.0000
       N       E                     dE             d eps       ncg     rms          rms(c)
DAV:   1    -0.231145761458E+04   -0.92611E-01   -0.74705E+00  4480   0.101E+00    0.607E-01
RMM:   2    -0.231146052876E+04   -0.29142E-02   -0.75339E-02  4206   0.915E-02    0.435E-01
RMM:   3    -0.231146334826E+04   -0.28195E-02   -0.82781E-03  5649   0.320E-02    0.996E-01
RMM:   4    -0.231145760926E+04    0.57390E-02   -0.53725E-03  4681   0.278E-02    0.135E-01
RMM:   5    -0.231145744739E+04    0.16186E-03   -0.55561E-04  3556   0.121E-02    0.609E-02
RMM:   6    -0.231145743970E+04    0.76858E-05   -0.87474E-05  3053   0.526E-03
   8 F= -.23318915E+04 E0= -.23318915E+04  d E =-.651796E-09  mag=     5.0000
       N       E                     dE             d eps       ncg     rms          rms(c)
DAV:   1    -0.231141863731E+04    0.38810E-01   -0.20036E+01  4480   0.155E+00    0.742E-01
RMM:   2    -0.231142089390E+04   -0.22566E-02   -0.95860E-02  4166   0.107E-01    0.425E-01
RMM:   3    -0.231142247904E+04   -0.15851E-02   -0.98876E-03  5182   0.369E-02    0.890E-01
RMM:   4    -0.231141845259E+04    0.40265E-02   -0.43413E-03  4635   0.258E-02    0.232E-01
RMM:   5    -0.231141822998E+04    0.22261E-03   -0.56359E-04  3441   0.109E-02    0.571E-02
RMM:   6    -0.231141823253E+04   -0.25578E-05   -0.70310E-05  3015   0.631E-03
   9 F= -.23318516E+04 E0= -.23318516E+04  d E =-.232722E-09  mag=     5.0000
       N       E                     dE             d eps       ncg     rms          rms(c)
DAV:   1    -0.231147428506E+04   -0.56055E-01   -0.10316E+01  4480   0.113E+00    0.573E-01
RMM:   2    -0.231147737326E+04   -0.30882E-02   -0.78733E-02  4140   0.975E-02    0.305E-01
RMM:   3    -0.231147642485E+04    0.94840E-03   -0.44635E-03  4933   0.277E-02    0.427E-01
RMM:   4    -0.231147592249E+04    0.50236E-03   -0.23876E-03  4362   0.185E-02    0.322E-01
RMM:   5    -0.231147528063E+04    0.64186E-03   -0.68809E-04  3811   0.121E-02    0.405E-02
RMM:   6    -0.231147526953E+04    0.11102E-04   -0.10016E-04  3034   0.692E-03    0.213E-02
RMM:   7    -0.231147527199E+04   -0.24663E-05   -0.34759E-05  2988   0.351E-03
  10 F= -.23319097E+04 E0= -.23319097E+04  d E =-.200815E-09  mag=     5.0000
       N       E                     dE             d eps       ncg     rms          rms(c)
DAV:   1    -0.231137292963E+04    0.10234E+00   -0.20571E+01  4480   0.170E+00    0.908E-01
RMM:   2    -0.231137190396E+04    0.10257E-02   -0.13219E-01  4241   0.123E-01    0.467E-01
RMM:   3    -0.231136976417E+04    0.21398E-02   -0.11667E-02  5416   0.400E-02    0.659E-01
RMM:   4    -0.231136811289E+04    0.16513E-02   -0.42525E-03  4630   0.258E-02    0.362E-01
RMM:   5    -0.231136730422E+04    0.80867E-03   -0.98184E-04  3968   0.147E-02    0.735E-02
RMM:   6    -0.231136728307E+04    0.21156E-04   -0.16081E-04  3189   0.836E-03    0.394E-02
RMM:   7    -0.231136727910E+04    0.39648E-05   -0.53657E-05  3050   0.478E-03
  11 F= -.23318003E+04 E0= -.23318003E+04  d E =-.780079E-09  mag=     5.0000
       N       E                     dE             d eps       ncg     rms          rms(c)
DAV:   1    -0.231131646791E+04    0.50815E-01   -0.10370E+01  4480   0.109E+00    0.459E-01
RMM:   2    -0.231131833519E+04   -0.18673E-02   -0.45861E-02  4075   0.760E-02    0.250E-01
RMM:   3    -0.231131736077E+04    0.97443E-03   -0.33637E-03  4338   0.212E-02    0.119E-01
RMM:   4    -0.231131769986E+04   -0.33909E-03   -0.72375E-04  3366   0.142E-02    0.265E-01
RMM:   5    -0.231131733169E+04    0.36817E-03   -0.26100E-04  3038   0.774E-03    0.314E-02
RMM:   6    -0.231131733401E+04   -0.23164E-05   -0.37767E-05  2820   0.351E-03
  12 F= -.23317511E+04 E0= -.23317511E+04  d E =-.213513E-09  mag=     5.0000
       N       E                     dE             d eps       ncg     rms          rms(c)
DAV:   1    -0.231152119914E+04   -0.20387E+00   -0.20626E+01  4480   0.158E+00    0.914E-01
RMM:   2    -0.231152210413E+04   -0.90499E-03   -0.16283E-01  4208   0.141E-01    0.461E-01
RMM:   3    -0.231151769776E+04    0.44064E-02   -0.94471E-03  5186   0.443E-02    0.474E-01
RMM:   4    -0.231151851103E+04   -0.81327E-03   -0.57002E-03  4841   0.269E-02    0.611E-01
RMM:   5    -0.231151612540E+04    0.23856E-02   -0.20943E-03  4622   0.197E-02    0.982E-02
RMM:   6    -0.231151608955E+04    0.35841E-04   -0.27677E-04  3213   0.855E-03    0.474E-02
RMM:   7    -0.231151612579E+04   -0.36240E-04   -0.10105E-04  3116   0.544E-03    0.339E-02
RMM:   8    -0.231151616129E+04   -0.35500E-04   -0.20569E-05  2935   0.399E-03    0.101E-02
RMM:   9    -0.231151620129E+04   -0.39991E-04   -0.12296E-05  2859   0.270E-03    0.577E-03
RMM:  10    -0.231151622466E+04   -0.23370E-04   -0.57165E-06  2794   0.241E-03    0.286E-03
RMM:  11    -0.231151624134E+04   -0.16683E-04   -0.48294E-06  2697   0.193E-03    0.179E-03
RMM:  12    -0.231151624849E+04   -0.71526E-05   -0.28452E-06  2643   0.189E-03
  13 F= -.23319500E+04 E0= -.23319500E+04  d E =-.684591E-09  mag=     5.0000
       N       E                     dE             d eps       ncg     rms          rms(c)
DAV:   1    -0.231144833605E+04    0.67905E-01   -0.10204E+01  4720   0.115E+00    0.557E-01
RMM:   2    -0.231144918993E+04   -0.85388E-03   -0.54772E-02  4168   0.854E-02    0.353E-01
RMM:   3    -0.231145126603E+04   -0.20761E-02   -0.70455E-03  5326   0.304E-02    0.846E-01
RMM:   4    -0.231144712127E+04    0.41448E-02   -0.29051E-03  4850   0.208E-02    0.162E-01
RMM:   5    -0.231144695414E+04    0.16712E-03   -0.54671E-04  3537   0.106E-02    0.418E-02
RMM:   6    -0.231144695250E+04    0.16458E-05   -0.78852E-05  3012   0.642E-03
  14 F= -.23318818E+04 E0= -.23318818E+04  d E =-.178141E-09  mag=     5.0000
       N       E                     dE             d eps       ncg     rms          rms(c)
DAV:   1    -0.231142013814E+04    0.26816E-01   -0.20205E+01  4480   0.148E+00    0.700E-01
RMM:   2    -0.231142427963E+04   -0.41415E-02   -0.95232E-02  4290   0.986E-02    0.642E-01
RMM:   3    -0.231142591850E+04   -0.16389E-02   -0.11210E-02  5582   0.396E-02    0.960E-01
RMM:   4    -0.231142055776E+04    0.53607E-02   -0.44102E-03  4626   0.266E-02    0.194E-01
RMM:   5    -0.231142038991E+04    0.16785E-03   -0.12387E-03  4208   0.182E-02    0.834E-02
RMM:   6    -0.231142041327E+04   -0.23368E-04   -0.20426E-04  3366   0.793E-03    0.489E-02
RMM:   7    -0.231142040838E+04    0.48926E-05   -0.48273E-05  2987   0.536E-03
  15 F= -.23318531E+04 E0= -.23318531E+04  d E =-.817497E-09  mag=     5.0000
       N       E                     dE             d eps       ncg     rms          rms(c)
DAV:   1    -0.231143414459E+04   -0.13731E-01   -0.10333E+01  4480   0.999E-01    0.460E-01
RMM:   2    -0.231143716170E+04   -0.30171E-02   -0.49239E-02  4187   0.693E-02    0.417E-01
RMM:   3    -0.231143804671E+04   -0.88501E-03   -0.51093E-03  5254   0.261E-02    0.645E-01
RMM:   4    -0.231143564517E+04    0.24015E-02   -0.19986E-03  4216   0.178E-02    0.127E-01
RMM:   5    -0.231143558169E+04    0.63477E-04   -0.61240E-04  3641   0.121E-02    0.433E-02
RMM:   6    -0.231143559547E+04   -0.13777E-04   -0.76461E-05  3045   0.600E-03    0.364E-02
RMM:   7    -0.231143559030E+04    0.51671E-05   -0.19618E-05  2908   0.340E-03
  16 F= -.23318694E+04 E0= -.23318694E+04  d E =-.167650E-09  mag=     5.0000
       N       E                     dE             d eps       ncg     rms          rms(c)
DAV:   1    -0.231143917805E+04   -0.35826E-02   -0.20841E+01  4480   0.139E+00    0.512E-01
RMM:   2    -0.231144153932E+04   -0.23613E-02   -0.58591E-02  4210   0.781E-02    0.300E-01
RMM:   3    -0.231144231670E+04   -0.77738E-03   -0.51559E-03  4949   0.315E-02    0.636E-01
RMM:   4    -0.231144016966E+04    0.21470E-02   -0.20479E-03  4517   0.180E-02    0.182E-01
RMM:   5    -0.231144011341E+04    0.56256E-04   -0.54723E-04  3569   0.122E-02    0.470E-02
RMM:   6    -0.231144010871E+04    0.46968E-05   -0.50215E-05  2975   0.610E-03
  17 F= -.23318738E+04 E0= -.23318738E+04  d E =-.843483E-09  mag=     5.0000
       N       E                     dE             d eps       ncg     rms          rms(c)
DAV:   1    -0.231152221131E+04   -0.82098E-01   -0.10153E+01  4480   0.101E+00    0.613E-01
RMM:   2    -0.231152360942E+04   -0.13981E-02   -0.68641E-02  4548   0.864E-02    0.520E-01
RMM:   3    -0.231152552453E+04   -0.19151E-02   -0.77544E-03  5161   0.383E-02    0.924E-01
RMM:   4    -0.231152090745E+04    0.46171E-02   -0.33674E-03  4714   0.229E-02    0.150E-01
RMM:   5    -0.231152085581E+04    0.51636E-04   -0.13365E-03  3904   0.136E-02    0.519E-02
RMM:   6    -0.231152083299E+04    0.22818E-04   -0.12797E-04  3035   0.785E-03    0.257E-02
RMM:   7    -0.231152083372E+04   -0.72614E-06   -0.52043E-05  2978   0.348E-03
  18 F= -.23319553E+04 E0= -.23319553E+04  d E =-.276108E-09  mag=     5.0000
       N       E                     dE             d eps       ncg     rms          rms(c)
DAV:   1    -0.231132834361E+04    0.19249E+00   -0.20432E+01  4480   0.148E+00    0.110E+00
RMM:   2    -0.231132556196E+04    0.27816E-02   -0.17585E-01  4751   0.128E-01    0.107E+00
RMM:   3    -0.231133050042E+04   -0.49385E-02   -0.27499E-02  5651   0.629E-02    0.165E+00
RMM:   4    -0.231131514499E+04    0.15355E-01   -0.10187E-02  5224   0.385E-02    0.240E-01
RMM:   5    -0.231131488054E+04    0.26446E-03   -0.30125E-03  4175   0.197E-02    0.101E-01
RMM:   6    -0.231131486969E+04    0.10846E-04   -0.32130E-04  3270   0.111E-02    0.485E-02
RMM:   7    -0.231131488731E+04   -0.17618E-04   -0.10721E-04  3091   0.537E-03    0.215E-02
RMM:   8    -0.231131489715E+04   -0.98431E-05   -0.20552E-05  2941   0.406E-03
  19 F= -.23317479E+04 E0= -.23317479E+04  d E =-.553809E-09  mag=     5.0000
       N       E                     dE             d eps       ncg     rms          rms(c)
DAV:   1    -0.231143680572E+04   -0.12192E+00   -0.53516E+00  4480   0.720E-01    0.599E-01
RMM:   2    -0.231143759654E+04   -0.79082E-03   -0.55705E-02  4443   0.763E-02    0.472E-01
RMM:   3    -0.231143937586E+04   -0.17793E-02   -0.67382E-03  5211   0.329E-02    0.889E-01
RMM:   4    -0.231143505924E+04    0.43166E-02   -0.31069E-03  4618   0.216E-02    0.165E-01
RMM:   5    -0.231143492333E+04    0.13591E-03   -0.13228E-03  3959   0.136E-02    0.744E-02
RMM:   6    -0.231143489416E+04    0.29173E-04   -0.12204E-04  3018   0.760E-03    0.367E-02
RMM:   7    -0.231143489148E+04    0.26733E-05   -0.64620E-05  2960   0.357E-03
  20 F= -.23318684E+04 E0= -.23318684E+04  d E =-.684280E-10  mag=     5.0000
       N       E                     dE             d eps       ncg     rms          rms(c)
DAV:   1    -0.231144281913E+04   -0.79250E-02   -0.11839E+00  4560   0.269E-01    0.504E-01
RMM:   2    -0.231144050663E+04    0.23125E-02   -0.10513E-02  4427   0.306E-02    0.410E-01
RMM:   3    -0.231144302567E+04   -0.25190E-02   -0.56474E-03  4837   0.286E-02    0.818E-01
RMM:   4    -0.231143919550E+04    0.38302E-02   -0.28431E-03  4750   0.193E-02    0.115E-01
RMM:   5    -0.231143918867E+04    0.68270E-05   -0.40144E-04  3164   0.906E-03    0.943E-02
RMM:   6    -0.231143916097E+04    0.27698E-04   -0.14212E-04  3053   0.607E-03    0.245E-02
RMM:   7    -0.231143916429E+04   -0.33200E-05   -0.19105E-05  2883   0.336E-03
  21 F= -.23318732E+04 E0= -.23318732E+04  d E =-.226628E-08  mag=     5.0000
       N       E                     dE             d eps       ncg     rms          rms(c)
DAV:   1    -0.231143826290E+04    0.89808E-03   -0.59302E-01  4960   0.198E-01    0.410E-01
RMM:   2    -0.231143595140E+04    0.23115E-02   -0.82398E-03  4156   0.257E-02    0.213E-01
RMM:   3    -0.231143580455E+04    0.14685E-03   -0.23915E-03  4301   0.202E-02    0.277E-01
RMM:   4    -0.231143549809E+04    0.30647E-03   -0.73502E-04  3558   0.102E-02    0.172E-01
RMM:   5    -0.231143534786E+04    0.15022E-03   -0.16646E-04  3025   0.651E-03    0.546E-02
RMM:   6    -0.231143533499E+04    0.12877E-04   -0.79364E-05  2959   0.413E-03    0.149E-02
RMM:   7    -0.231143533593E+04   -0.94267E-06   -0.98545E-06  2693   0.266E-03
  22 F= -.23318682E+04 E0= -.23318682E+04  d E =-.206085E-09  mag=     5.0000
       N       E                     dE             d eps       ncg     rms          rms(c)
DAV:   1    -0.231143411358E+04    0.12214E-02   -0.11618E+00  4960   0.274E-01    0.483E-01
RMM:   2    -0.231143185345E+04    0.22601E-02   -0.13066E-02  4174   0.294E-02    0.343E-01
RMM:   3    -0.231143482811E+04   -0.29747E-02   -0.51894E-03  5248   0.241E-02    0.847E-01
RMM:   4    -0.231143084683E+04    0.39813E-02   -0.25041E-03  4427   0.186E-02    0.769E-02
RMM:   5    -0.231143079356E+04    0.53276E-04   -0.35808E-04  3160   0.763E-03    0.346E-02
RMM:   6    -0.231143080552E+04   -0.11963E-04   -0.57008E-05  2926   0.422E-03    0.374E-02
RMM:   7    -0.231143079933E+04    0.61856E-05   -0.16150E-05  2742   0.261E-03
  23 F= -.23318654E+04 E0= -.23318654E+04  d E =-.706080E-09  mag=     5.0000
       N       E                     dE             d eps       ncg     rms          rms(c)
DAV:   1    -0.231141685015E+04    0.13955E-01   -0.58776E-01  5040   0.188E-01    0.285E-01
RMM:   2    -0.231141623436E+04    0.61579E-03   -0.38648E-03  3838   0.175E-02    0.205E-01
RMM:   3    -0.231141728549E+04   -0.10511E-02   -0.17215E-03  4338   0.137E-02    0.494E-01
RMM:   4    -0.231141592989E+04    0.13556E-02   -0.81122E-04  3441   0.113E-02    0.436E-02
RMM:   5    -0.231141591890E+04    0.10991E-04   -0.10813E-04  2897   0.485E-03    0.167E-02
RMM:   6    -0.231141592107E+04   -0.21653E-05   -0.19454E-05  2659   0.265E-03
  24 F= -.23318494E+04 E0= -.23318494E+04  d E =-.494053E-09  mag=     5.0000
       N       E                     dE             d eps       ncg     rms          rms(c)
DAV:   1    -0.231145892779E+04   -0.43009E-01   -0.11964E+00  4560   0.254E-01    0.298E-01
RMM:   2    -0.231145880871E+04    0.11909E-03   -0.30763E-03  3606   0.154E-02    0.178E-01
RMM:   3    -0.231145928841E+04   -0.47971E-03   -0.11407E-03  3781   0.115E-02    0.326E-01
RMM:   4    -0.231145874754E+04    0.54087E-03   -0.54165E-04  3106   0.947E-03    0.102E-01
RMM:   5    -0.231145871943E+04    0.28107E-04   -0.92726E-05  2873   0.433E-03    0.241E-02
RMM:   6    -0.231145871588E+04    0.35546E-05   -0.12114E-05  2566   0.251E-03
  25 F= -.23318928E+04 E0= -.23318928E+04  d E =-.312008E-09  mag=     5.0000
