       N       E                     dE             d eps       ncg     rms          rms(c)
DAV:   1     0.132318839325E+05    0.13232E+05   -0.84739E+05  4536   0.145E+03
DAV:   2    -0.996420150424E+03   -0.14228E+05   -0.13596E+05  4928   0.332E+02
DAV:   3    -0.248274495242E+04   -0.14863E+04   -0.14674E+04  5536   0.116E+02
DAV:   4    -0.252853565051E+04   -0.45791E+02   -0.45509E+02  6696   0.289E+01
DAV:   5    -0.252950492660E+04   -0.96928E+00   -0.96630E+00  6256   0.354E+00    0.170E+02
RMM:   6    -0.149598622864E+04    0.10335E+04   -0.19523E+03  4479   0.382E+01    0.728E+01
RMM:   7    -0.168201802261E+04   -0.18603E+03   -0.29524E+02  5278   0.146E+01    0.571E+01
RMM:   8    -0.171521978210E+04   -0.33202E+02   -0.82349E+01  5348   0.864E+00    0.452E+01
RMM:   9    -0.177871244353E+04   -0.63493E+02   -0.56762E+01  4972   0.751E+00    0.364E+01
RMM:  10    -0.189184288768E+04   -0.11313E+03   -0.67880E+01  5386   0.813E+00    0.315E+01
RMM:  11    -0.197014314178E+04   -0.78300E+02   -0.35392E+01  5419   0.539E+00    0.276E+01
RMM:  12    -0.202366635273E+04   -0.53523E+02   -0.18730E+01  5301   0.359E+00    0.208E+01
RMM:  13    -0.211370702634E+04   -0.90041E+02   -0.43224E+01  5002   0.504E+00    0.169E+01
RMM:  14    -0.218949353545E+04   -0.75787E+02   -0.42811E+01  5105   0.511E+00    0.116E+01
RMM:  15    -0.227985471640E+04   -0.90361E+02   -0.85220E+01  4512   0.620E+00    0.798E+00
RMM:  16    -0.230526348234E+04   -0.25409E+02   -0.23929E+01  4583   0.406E+00    0.597E+00
RMM:  17    -0.231377978608E+04   -0.85163E+01   -0.96584E+00  4880   0.206E+00    0.336E+00
RMM:  18    -0.231780934444E+04   -0.40296E+01   -0.27087E+00  4738   0.133E+00    0.368E+00
RMM:  19    -0.231863569758E+04   -0.82635E+00   -0.45534E-01  5583   0.573E-01    0.361E+00
RMM:  20    -0.231945626081E+04   -0.82056E+00   -0.20941E-01  4730   0.292E-01    0.265E+00
RMM:  21    -0.232044087529E+04   -0.98461E+00   -0.27914E-01  4761   0.369E-01    0.155E+00
RMM:  22    -0.232054247274E+04   -0.10160E+00   -0.72511E-02  4906   0.243E-01    0.678E-01
RMM:  23    -0.232061973544E+04   -0.77263E-01   -0.38953E-02  4604   0.133E-01    0.428E-01
RMM:  24    -0.232068887841E+04   -0.69143E-01   -0.18453E-02  4499   0.118E-01    0.235E-01
RMM:  25    -0.232073136151E+04   -0.42483E-01   -0.10532E-02  4574   0.717E-02    0.166E-01
RMM:  26    -0.232075977454E+04   -0.28413E-01   -0.48754E-03  4539   0.610E-02    0.114E-01
RMM:  27    -0.232078302470E+04   -0.23250E-01   -0.47444E-03  4492   0.472E-02    0.720E-02
RMM:  28    -0.232079324976E+04   -0.10225E-01   -0.21178E-03  4570   0.398E-02    0.404E-02
RMM:  29    -0.232079905322E+04   -0.58035E-02   -0.15436E-03  4202   0.235E-02    0.225E-02
RMM:  30    -0.232080102359E+04   -0.19704E-02   -0.52824E-04  4027   0.228E-02    0.160E-02
RMM:  31    -0.232080153516E+04   -0.51158E-03   -0.19691E-04  3847   0.867E-03    0.762E-03
RMM:  32    -0.232080173053E+04   -0.19537E-03   -0.43243E-05  3451   0.789E-03    0.534E-03
RMM:  33    -0.232080181275E+04   -0.82220E-04   -0.20580E-05  3109   0.340E-03    0.277E-03
RMM:  34    -0.232080184119E+04   -0.28440E-04   -0.57149E-06  2824   0.282E-03    0.180E-03
RMM:  35    -0.232080185495E+04   -0.13758E-04   -0.44443E-06  2584   0.211E-03    0.122E-03
RMM:  36    -0.232080185825E+04   -0.33015E-05   -0.19936E-06  2491   0.186E-03
   1 F= -.23421698E+04 E0= -.23421698E+04  d E =-.234217E+04  mag=     2.0000
       N       E                     dE             d eps       ncg     rms          rms(c)
DAV:   1    -0.232048916009E+04    0.31269E+00   -0.24151E+02  4704   0.970E+00    0.429E+00
RMM:   2    -0.232179116680E+04   -0.13020E+01   -0.16093E+01  6632   0.253E+00    0.228E+00
RMM:   3    -0.232183283748E+04   -0.41671E-01   -0.12006E+00  6399   0.780E-01    0.278E+00
RMM:   4    -0.232178278086E+04    0.50057E-01   -0.21522E-01  6722   0.244E-01    0.174E+00
RMM:   5    -0.232176340041E+04    0.19380E-01   -0.98949E-02  6118   0.170E-01    0.157E+00
RMM:   6    -0.232174428311E+04    0.19117E-01   -0.38394E-02  6065   0.111E-01    0.890E-01
RMM:   7    -0.232173723883E+04    0.70443E-02   -0.12261E-02  5505   0.571E-02    0.435E-01
RMM:   8    -0.232173584362E+04    0.13952E-02   -0.62108E-03  5634   0.469E-02    0.264E-01
RMM:   9    -0.232173555536E+04    0.28827E-03   -0.11479E-03  5093   0.184E-02    0.855E-02
RMM:  10    -0.232173615726E+04   -0.60190E-03   -0.49912E-04  4318   0.143E-02    0.442E-02
RMM:  11    -0.232173678996E+04   -0.63271E-03   -0.30528E-04  4207   0.112E-02    0.243E-02
RMM:  12    -0.232173727311E+04   -0.48315E-03   -0.15861E-04  3902   0.957E-03    0.139E-02
RMM:  13    -0.232173768644E+04   -0.41333E-03   -0.11715E-04  3736   0.705E-03    0.851E-03
RMM:  14    -0.232173791871E+04   -0.23227E-03   -0.79487E-05  3539   0.651E-03    0.494E-03
RMM:  15    -0.232173796359E+04   -0.44878E-04   -0.19360E-05  2942   0.441E-03    0.276E-03
RMM:  16    -0.232173797960E+04   -0.16007E-04   -0.80663E-06  2865   0.318E-03    0.168E-03
RMM:  17    -0.232173798490E+04   -0.53084E-05   -0.34258E-06  2712   0.238E-03
   2 F= -.23431078E+04 E0= -.23431078E+04  d E =-.937965E+00  mag=     2.0000
       N       E                     dE             d eps       ncg     rms          rms(c)
DAV:   1    -0.232174780510E+04   -0.98255E-02   -0.11471E+01  4832   0.246E+00    0.776E-01
RMM:   2    -0.232180439370E+04   -0.56589E-01   -0.61760E-01  6579   0.514E-01    0.633E-01
RMM:   3    -0.232180730769E+04   -0.29140E-02   -0.50253E-02  6384   0.163E-01    0.832E-01
RMM:   4    -0.232179958868E+04    0.77190E-02   -0.84612E-03  6346   0.511E-02    0.291E-01
RMM:   5    -0.232180083219E+04   -0.12435E-02   -0.46470E-03  5472   0.338E-02    0.518E-01
RMM:   6    -0.232179819350E+04    0.26387E-02   -0.28784E-03  5464   0.292E-02    0.137E-01
RMM:   7    -0.232179804398E+04    0.14952E-03   -0.66126E-04  4414   0.142E-02    0.855E-02
RMM:   8    -0.232179794490E+04    0.99086E-04   -0.19610E-04  3233   0.829E-03    0.382E-02
RMM:   9    -0.232179791695E+04    0.27950E-04   -0.41451E-05  3153   0.478E-03    0.167E-02
RMM:  10    -0.232179791115E+04    0.57977E-05   -0.21632E-05  2996   0.407E-03
   3 F= -.23431671E+04 E0= -.23431671E+04  d E =-.997312E+00  mag=     2.0000
       N       E                     dE             d eps       ncg     rms          rms(c)
DAV:   1    -0.232188404661E+04   -0.86130E-01   -0.32980E+01  4576   0.456E+00    0.135E+00
RMM:   2    -0.232211794184E+04   -0.23390E+00   -0.24020E+00  6607   0.945E-01    0.161E+00
RMM:   3    -0.232211906124E+04   -0.11194E-02   -0.19289E-01  6532   0.277E-01    0.157E+00
RMM:   4    -0.232209424251E+04    0.24819E-01   -0.25264E-02  6394   0.876E-02    0.572E-01
RMM:   5    -0.232209293894E+04    0.13036E-02   -0.79272E-03  6032   0.402E-02    0.547E-01
RMM:   6    -0.232209083330E+04    0.21056E-02   -0.66129E-03  5561   0.420E-02    0.356E-01
RMM:   7    -0.232209001683E+04    0.81647E-03   -0.41737E-03  5303   0.402E-02    0.253E-01
RMM:   8    -0.232208919897E+04    0.81786E-03   -0.96362E-04  4974   0.185E-02    0.447E-02
RMM:   9    -0.232208915670E+04    0.42271E-04   -0.14190E-04  3317   0.106E-02    0.236E-02
RMM:  10    -0.232208915865E+04   -0.19497E-05   -0.77738E-05  3493   0.606E-03
   4 F= -.23434608E+04 E0= -.23434608E+04  d E =-.293640E+00  mag=     2.0000
       N       E                     dE             d eps       ncg     rms          rms(c)
DAV:   1    -0.232199233399E+04    0.96823E-01   -0.31393E+01  4576   0.441E+00    0.127E+00
RMM:   2    -0.232221408531E+04   -0.22175E+00   -0.22258E+00  6614   0.898E-01    0.162E+00
RMM:   3    -0.232221040020E+04    0.36851E-02   -0.18303E-01  6522   0.263E-01    0.142E+00
RMM:   4    -0.232219122006E+04    0.19180E-01   -0.24479E-02  6266   0.808E-02    0.590E-01
RMM:   5    -0.232218935497E+04    0.18651E-02   -0.70755E-03  5915   0.385E-02    0.511E-01
RMM:   6    -0.232218759602E+04    0.17589E-02   -0.62964E-03  5537   0.404E-02    0.354E-01
RMM:   7    -0.232218659136E+04    0.10047E-02   -0.38511E-03  5316   0.383E-02    0.227E-01
RMM:   8    -0.232218596790E+04    0.62345E-03   -0.93948E-04  4916   0.179E-02    0.464E-02
RMM:   9    -0.232218592756E+04    0.40342E-04   -0.13328E-04  3340   0.105E-02    0.248E-02
RMM:  10    -0.232218593553E+04   -0.79682E-05   -0.93380E-05  3691   0.631E-03
   5 F= -.23435602E+04 E0= -.23435602E+04  d E =-.393043E+00  mag=     2.0000
       N       E                     dE             d eps       ncg     rms          rms(c)
DAV:   1    -0.232218597976E+04   -0.52200E-04   -0.39874E+01  4576   0.481E+00    0.130E+00
RMM:   2    -0.232239585958E+04   -0.20988E+00   -0.21290E+00  6571   0.938E-01    0.152E+00
RMM:   3    -0.232239621607E+04   -0.35649E-03   -0.17588E-01  6434   0.283E-01    0.150E+00
RMM:   4    -0.232237539791E+04    0.20818E-01   -0.24715E-02  6234   0.845E-02    0.601E-01
RMM:   5    -0.232237345971E+04    0.19382E-02   -0.89272E-03  6038   0.470E-02    0.546E-01
RMM:   6    -0.232236900962E+04    0.44501E-02   -0.84369E-03  5624   0.531E-02    0.189E-01
RMM:   7    -0.232236865535E+04    0.35427E-03   -0.27251E-03  4682   0.329E-02    0.623E-02
RMM:   8    -0.232236871992E+04   -0.64570E-04   -0.29218E-04  4033   0.145E-02    0.728E-02
RMM:   9    -0.232236870936E+04    0.10560E-04   -0.10159E-04  3521   0.739E-03    0.402E-02
RMM:  10    -0.232236880957E+04   -0.10021E-03   -0.10845E-04  3595   0.689E-03    0.153E-02
RMM:  11    -0.232236885747E+04   -0.47899E-04   -0.19751E-05  2938   0.480E-03    0.921E-03
RMM:  12    -0.232236890220E+04   -0.44734E-04   -0.19903E-05  2968   0.366E-03    0.522E-03
RMM:  13    -0.232236892432E+04   -0.22114E-04   -0.87907E-06  2871   0.350E-03    0.315E-03
RMM:  14    -0.232236893644E+04   -0.12126E-04   -0.76850E-06  2808   0.266E-03    0.184E-03
RMM:  15    -0.232236893993E+04   -0.34864E-05   -0.30880E-06  2643   0.256E-03
   6 F= -.23437431E+04 E0= -.23437431E+04  d E =-.182921E+00  mag=     2.0000
       N       E                     dE             d eps       ncg     rms          rms(c)
DAV:   1    -0.232236386881E+04    0.50676E-02   -0.33649E+00  4672   0.142E+00    0.368E-01
RMM:   2    -0.232238093889E+04   -0.17070E-01   -0.17235E-01  6570   0.273E-01    0.438E-01
RMM:   3    -0.232238078482E+04    0.15407E-03   -0.13572E-02  6275   0.786E-02    0.410E-01
RMM:   4    -0.232237915314E+04    0.16317E-02   -0.19661E-03  5311   0.240E-02    0.165E-01
RMM:   5    -0.232237901028E+04    0.14286E-03   -0.73865E-04  4687   0.145E-02    0.154E-01
RMM:   6    -0.232237867689E+04    0.33339E-03   -0.72534E-04  5083   0.161E-02    0.524E-02
RMM:   7    -0.232237867749E+04   -0.60181E-06   -0.21894E-04  3680   0.108E-02    0.544E-02
RMM:   8    -0.232237864372E+04    0.33770E-04   -0.43347E-05  2993   0.542E-03    0.155E-02
RMM:   9    -0.232237864090E+04    0.28167E-05   -0.11830E-05  2867   0.305E-03
   7 F= -.23437528E+04 E0= -.23437528E+04  d E =-.192656E+00  mag=     2.0000
       N       E                     dE             d eps       ncg     rms          rms(c)
DAV:   1    -0.232232859759E+04    0.50046E-01   -0.32666E+01  4528   0.438E+00    0.116E+00
RMM:   2    -0.232250909618E+04   -0.18050E+00   -0.18195E+00  6561   0.815E-01    0.113E+00
RMM:   3    -0.232251235886E+04   -0.32627E-02   -0.14962E-01  6220   0.250E-01    0.113E+00
RMM:   4    -0.232249957928E+04    0.12780E-01   -0.17920E-02  6010   0.695E-02    0.529E-01
RMM:   5    -0.232249962067E+04   -0.41391E-04   -0.68325E-03  6072   0.403E-02    0.571E-01
RMM:   6    -0.232249699399E+04    0.26267E-02   -0.80206E-03  5502   0.488E-02    0.347E-01
RMM:   7    -0.232249577232E+04    0.12217E-02   -0.28601E-03  5309   0.328E-02    0.147E-01
RMM:   8    -0.232249549213E+04    0.28019E-03   -0.33665E-04  3624   0.107E-02    0.447E-02
RMM:   9    -0.232249545411E+04    0.38015E-04   -0.10253E-04  3360   0.701E-03    0.252E-02
RMM:  10    -0.232249545015E+04    0.39590E-05   -0.41133E-05  3117   0.529E-03
   8 F= -.23438718E+04 E0= -.23438718E+04  d E =-.118972E+00  mag=     2.0000
       N       E                     dE             d eps       ncg     rms          rms(c)
DAV:   1    -0.232248737640E+04    0.80777E-02   -0.29278E+00  4608   0.128E+00    0.351E-01
RMM:   2    -0.232250340721E+04   -0.16031E-01   -0.16325E-01  6565   0.242E-01    0.337E-01
RMM:   3    -0.232250378290E+04   -0.37569E-03   -0.12618E-02  5851   0.702E-02    0.352E-01
RMM:   4    -0.232250248418E+04    0.12987E-02   -0.15508E-03  4861   0.210E-02    0.150E-01
RMM:   5    -0.232250252558E+04   -0.41394E-04   -0.66246E-04  4344   0.138E-02    0.175E-01
RMM:   6    -0.232250227957E+04    0.24601E-03   -0.72997E-04  4782   0.157E-02    0.106E-01
RMM:   7    -0.232250215612E+04    0.12344E-03   -0.25022E-04  3387   0.109E-02    0.390E-02
RMM:   8    -0.232250213699E+04    0.19138E-04   -0.25893E-05  2932   0.453E-03    0.128E-02
RMM:   9    -0.232250213466E+04    0.23256E-05   -0.90948E-06  2867   0.274E-03
   9 F= -.23438792E+04 E0= -.23438792E+04  d E =-.126325E+00  mag=     2.0000
       N       E                     dE             d eps       ncg     rms          rms(c)
DAV:   1    -0.232244215100E+04    0.59986E-01   -0.24087E+01  4512   0.369E+00    0.109E+00
RMM:   2    -0.232262716505E+04   -0.18501E+00   -0.18045E+00  6543   0.765E-01    0.136E+00
RMM:   3    -0.232261842226E+04    0.87428E-02   -0.16089E-01  6384   0.248E-01    0.856E-01
RMM:   4    -0.232261000977E+04    0.84125E-02   -0.15532E-02  6106   0.628E-02    0.347E-01
RMM:   5    -0.232260952123E+04    0.48854E-03   -0.46471E-03  5534   0.369E-02    0.352E-01
RMM:   6    -0.232260913238E+04    0.38885E-03   -0.30743E-03  5597   0.294E-02    0.303E-01
RMM:   7    -0.232260869897E+04    0.43341E-03   -0.13123E-03  5421   0.197E-02    0.174E-01
RMM:   8    -0.232260831966E+04    0.37930E-03   -0.35713E-04  3539   0.108E-02    0.409E-02
RMM:   9    -0.232260829854E+04    0.21120E-04   -0.58588E-05  3069   0.505E-03    0.284E-02
RMM:  10    -0.232260828998E+04    0.85653E-05   -0.29169E-05  2972   0.419E-03
  10 F= -.23439871E+04 E0= -.23439871E+04  d E =-.107977E+00  mag=     2.0000
       N       E                     dE             d eps       ncg     rms          rms(c)
DAV:   1    -0.232219458692E+04    0.41371E+00   -0.68119E+01  4512   0.623E+00    0.190E+00
RMM:   2    -0.232275821019E+04   -0.56362E+00   -0.54693E+00  6547   0.132E+00    0.243E+00
RMM:   3    -0.232272234271E+04    0.35867E-01   -0.48512E-01  6329   0.425E-01    0.152E+00
RMM:   4    -0.232269682213E+04    0.25521E-01   -0.46392E-02  6336   0.108E-01    0.628E-01
RMM:   5    -0.232269908479E+04   -0.22627E-02   -0.12523E-02  5871   0.551E-02    0.882E-01
RMM:   6    -0.232269311621E+04    0.59686E-02   -0.89296E-03  6091   0.478E-02    0.420E-01
RMM:   7    -0.232269259471E+04    0.52150E-03   -0.49482E-03  6030   0.386E-02    0.275E-01
RMM:   8    -0.232269163609E+04    0.95862E-03   -0.14363E-03  5114   0.204E-02    0.854E-02
RMM:   9    -0.232269157866E+04    0.57427E-04   -0.20798E-04  3391   0.759E-03    0.627E-02
RMM:  10    -0.232269154570E+04    0.32962E-04   -0.10075E-04  3128   0.691E-03    0.189E-02
RMM:  11    -0.232269154961E+04   -0.39115E-05   -0.31524E-05  3034   0.470E-03
  11 F= -.23440736E+04 E0= -.23440736E+04  d E =-.194439E+00  mag=     2.0000
       N       E                     dE             d eps       ncg     rms          rms(c)
DAV:   1    -0.232256851662E+04    0.12303E+00   -0.30728E+01  4512   0.431E+00    0.136E+00
RMM:   2    -0.232278091936E+04   -0.21240E+00   -0.21720E+00  6349   0.882E-01    0.120E+00
RMM:   3    -0.232279115358E+04   -0.10234E-01   -0.18512E-01  6254   0.290E-01    0.131E+00
RMM:   4    -0.232277149072E+04    0.19663E-01   -0.20679E-02  6431   0.820E-02    0.399E-01
RMM:   5    -0.232277219444E+04   -0.70372E-03   -0.86796E-03  5827   0.519E-02    0.521E-01
RMM:   6    -0.232277009736E+04    0.20971E-02   -0.47034E-03  6156   0.377E-02    0.356E-01
RMM:   7    -0.232276941986E+04    0.67750E-03   -0.22228E-03  5691   0.240E-02    0.202E-01
RMM:   8    -0.232276887978E+04    0.54008E-03   -0.54150E-04  4640   0.143E-02    0.507E-02
RMM:   9    -0.232276883438E+04    0.45401E-04   -0.12353E-04  3435   0.689E-03    0.279E-02
RMM:  10    -0.232276881830E+04    0.16086E-04   -0.38348E-05  3051   0.612E-03    0.143E-02
RMM:  11    -0.232276881513E+04    0.31705E-05   -0.20983E-05  2991   0.494E-03
  12 F= -.23441541E+04 E0= -.23441541E+04  d E =-.805146E-01  mag=     2.0000
       N       E                     dE             d eps       ncg     rms          rms(c)
DAV:   1    -0.232274574547E+04    0.23073E-01   -0.45624E+00  4544   0.166E+00    0.516E-01
RMM:   2    -0.232277639481E+04   -0.30649E-01   -0.31011E-01  6351   0.338E-01    0.478E-01
RMM:   3    -0.232277742293E+04   -0.10281E-02   -0.26151E-02  6227   0.109E-01    0.475E-01
RMM:   4    -0.232277475834E+04    0.26646E-02   -0.29900E-03  5878   0.309E-02    0.153E-01
RMM:   5    -0.232277505151E+04   -0.29317E-03   -0.13172E-03  5356   0.205E-02    0.239E-01
RMM:   6    -0.232277452313E+04    0.52839E-03   -0.76587E-04  5529   0.158E-02    0.125E-01
RMM:   7    -0.232277442907E+04    0.94052E-04   -0.33311E-04  3738   0.106E-02    0.674E-02
RMM:   8    -0.232277436572E+04    0.63349E-04   -0.61824E-05  2997   0.650E-03    0.163E-02
RMM:   9    -0.232277436052E+04    0.52064E-05   -0.17293E-05  2947   0.376E-03
  13 F= -.23441609E+04 E0= -.23441609E+04  d E =-.873159E-01  mag=     2.0000
       N       E                     dE             d eps       ncg     rms          rms(c)
DAV:   1    -0.232276882463E+04    0.55411E-02   -0.61698E+00  4544   0.187E+00    0.540E-01
RMM:   2    -0.232281487983E+04   -0.46055E-01   -0.46806E-01  6520   0.389E-01    0.491E-01
RMM:   3    -0.232281766795E+04   -0.27881E-02   -0.43282E-02  6338   0.123E-01    0.504E-01
RMM:   4    -0.232281515713E+04    0.25108E-02   -0.45483E-03  5594   0.319E-02    0.194E-01
RMM:   5    -0.232281539366E+04   -0.23653E-03   -0.11331E-03  4797   0.167E-02    0.248E-01
RMM:   6    -0.232281490692E+04    0.48674E-03   -0.87622E-04  5107   0.164E-02    0.129E-01
RMM:   7    -0.232281484757E+04    0.59353E-04   -0.51792E-04  4168   0.123E-02    0.838E-02
RMM:   8    -0.232281475672E+04    0.90852E-04   -0.10709E-04  3088   0.725E-03    0.198E-02
RMM:   9    -0.232281475153E+04    0.51844E-05   -0.17966E-05  2948   0.382E-03
  14 F= -.23442035E+04 E0= -.23442035E+04  d E =-.426363E-01  mag=     2.0000
       N       E                     dE             d eps       ncg     rms          rms(c)
DAV:   1    -0.232246445927E+04    0.35030E+00   -0.55214E+01  4512   0.558E+00    0.166E+00
RMM:   2    -0.232289517670E+04   -0.43072E+00   -0.44023E+00  6545   0.118E+00    0.145E+00
RMM:   3    -0.232292755257E+04   -0.32376E-01   -0.42697E-01  6414   0.384E-01    0.163E+00
RMM:   4    -0.232290072803E+04    0.26825E-01   -0.41186E-02  6280   0.978E-02    0.559E-01
RMM:   5    -0.232290202884E+04   -0.13008E-02   -0.10633E-02  5928   0.500E-02    0.686E-01
RMM:   6    -0.232289883239E+04    0.31964E-02   -0.75297E-03  6171   0.439E-02    0.436E-01
RMM:   7    -0.232289826791E+04    0.56448E-03   -0.47843E-03  5641   0.341E-02    0.281E-01
RMM:   8    -0.232289726608E+04    0.10018E-02   -0.13574E-03  5251   0.209E-02    0.886E-02
RMM:   9    -0.232289715639E+04    0.10969E-03   -0.24571E-04  3295   0.907E-03    0.463E-02
RMM:  10    -0.232289714339E+04    0.12997E-04   -0.99560E-05  3067   0.671E-03    0.200E-02
RMM:  11    -0.232289714958E+04   -0.61909E-05   -0.27240E-05  2993   0.433E-03
  15 F= -.23442928E+04 E0= -.23442928E+04  d E =-.131838E+00  mag=     2.0000
       N       E                     dE             d eps       ncg     rms          rms(c)
DAV:   1    -0.232093571984E+04    0.19614E+01   -0.21665E+02  4512   0.110E+01    0.353E+00
RMM:   2    -0.232286263679E+04   -0.19269E+01   -0.19875E+01  6561   0.239E+00    0.291E+00
RMM:   3    -0.232303992751E+04   -0.17729E+00   -0.20043E+00  6332   0.853E-01    0.366E+00
RMM:   4    -0.232291068779E+04    0.12924E+00   -0.18099E-01  6470   0.210E-01    0.119E+00
RMM:   5    -0.232290032968E+04    0.10358E-01   -0.40362E-02  5442   0.100E-01    0.855E-01
RMM:   6    -0.232290937503E+04   -0.90454E-02   -0.33894E-02  6260   0.897E-02    0.125E+00
RMM:   7    -0.232289708710E+04    0.12288E-01   -0.18298E-02  6249   0.706E-02    0.566E-01
RMM:   8    -0.232289464618E+04    0.24409E-02   -0.65277E-03  5887   0.393E-02    0.337E-01
RMM:   9    -0.232289337702E+04    0.12692E-02   -0.15956E-03  4856   0.209E-02    0.119E-01
RMM:  10    -0.232289327271E+04    0.10431E-03   -0.57955E-04  3831   0.146E-02    0.520E-02
RMM:  11    -0.232289331782E+04   -0.45113E-04   -0.15888E-04  3383   0.731E-03    0.385E-02
RMM:  12    -0.232289333987E+04   -0.22043E-04   -0.30652E-05  2989   0.533E-03    0.177E-02
RMM:  13    -0.232289335686E+04   -0.16992E-04   -0.17465E-05  2958   0.380E-03    0.744E-03
RMM:  14    -0.232289336538E+04   -0.85153E-05   -0.57559E-06  2878   0.320E-03
  16 F= -.23443021E+04 E0= -.23443021E+04  d E =-.141205E+00  mag=     1.9999
       N       E                     dE             d eps       ncg     rms          rms(c)
DAV:   1    -0.232256818361E+04    0.32517E+00   -0.45981E+01  4512   0.501E+00    0.151E+00
RMM:   2    -0.232292725943E+04   -0.35908E+00   -0.36007E+00  6549   0.105E+00    0.151E+00
RMM:   3    -0.232294234361E+04   -0.15084E-01   -0.33977E-01  6394   0.339E-01    0.127E+00
RMM:   4    -0.232292633582E+04    0.16008E-01   -0.35905E-02  6248   0.878E-02    0.607E-01
RMM:   5    -0.232292632194E+04    0.13884E-04   -0.75823E-03  6036   0.391E-02    0.612E-01
RMM:   6    -0.232292424597E+04    0.20760E-02   -0.61922E-03  5799   0.402E-02    0.422E-01
RMM:   7    -0.232292308681E+04    0.11592E-02   -0.43021E-03  5850   0.333E-02    0.239E-01
RMM:   8    -0.232292248407E+04    0.60274E-03   -0.67039E-04  4538   0.156E-02    0.531E-02
RMM:   9    -0.232292248140E+04    0.26690E-05   -0.12130E-04  3212   0.748E-03    0.338E-02
RMM:  10    -0.232292248517E+04   -0.37714E-05   -0.35800E-05  2968   0.493E-03
  17 F= -.23443254E+04 E0= -.23443254E+04  d E =-.164478E+00  mag=     2.0000
       N       E                     dE             d eps       ncg     rms          rms(c)
DAV:   1    -0.232295114553E+04   -0.28664E-01   -0.66257E+00  4512   0.232E+00    0.834E-01
RMM:   2    -0.232297960897E+04   -0.28463E-01   -0.31876E-01  6065   0.430E-01    0.480E-01
RMM:   3    -0.232298647466E+04   -0.68657E-02   -0.30656E-02  5921   0.160E-01    0.997E-01
RMM:   4    -0.232297713085E+04    0.93438E-02   -0.58482E-03  6178   0.507E-02    0.234E-01
RMM:   5    -0.232297798004E+04   -0.84919E-03   -0.28699E-03  5813   0.333E-02    0.390E-01
RMM:   6    -0.232297606336E+04    0.19167E-02   -0.19758E-03  5741   0.290E-02    0.633E-02
RMM:   7    -0.232297597863E+04    0.84736E-04   -0.26375E-04  4401   0.140E-02    0.442E-02
RMM:   8    -0.232297595488E+04    0.23744E-04   -0.90451E-05  3233   0.669E-03    0.376E-02
RMM:   9    -0.232297591542E+04    0.39457E-04   -0.38138E-05  3166   0.547E-03    0.148E-02
RMM:  10    -0.232297590042E+04    0.15009E-04   -0.28936E-05  3168   0.539E-03    0.721E-03
RMM:  11    -0.232297589855E+04    0.18614E-05   -0.11706E-05  2882   0.457E-03
  18 F= -.23443801E+04 E0= -.23443801E+04  d E =-.546900E-01  mag=     2.0000
       N       E                     dE             d eps       ncg     rms          rms(c)
DAV:   1    -0.232297543227E+04    0.46815E-03   -0.18222E+00  4800   0.122E+00    0.438E-01
RMM:   2    -0.232298331281E+04   -0.78805E-02   -0.88049E-02  6070   0.227E-01    0.260E-01
RMM:   3    -0.232298527866E+04   -0.19658E-02   -0.83579E-03  5860   0.846E-02    0.538E-01
RMM:   4    -0.232298256496E+04    0.27137E-02   -0.16575E-03  5770   0.272E-02    0.123E-01
RMM:   5    -0.232298279194E+04   -0.22699E-03   -0.80047E-04  5340   0.185E-02    0.203E-01
RMM:   6    -0.232298226642E+04    0.52553E-03   -0.56351E-04  5415   0.161E-02    0.318E-02
RMM:   7    -0.232298224377E+04    0.22644E-04   -0.70353E-05  3221   0.846E-03    0.225E-02
RMM:   8    -0.232298223860E+04    0.51787E-05   -0.26978E-05  2950   0.408E-03
  19 F= -.23443871E+04 E0= -.23443871E+04  d E =-.616798E-01  mag=     2.0000
       N       E                     dE             d eps       ncg     rms          rms(c)
DAV:   1    -0.232299351802E+04   -0.11274E-01   -0.22515E+00  4576   0.127E+00    0.364E-01
RMM:   2    -0.232300580421E+04   -0.12286E-01   -0.12645E-01  6284   0.240E-01    0.349E-01
RMM:   3    -0.232300653455E+04   -0.73034E-03   -0.10070E-02  5968   0.785E-02    0.442E-01
RMM:   4    -0.232300483751E+04    0.16970E-02   -0.15541E-03  5563   0.247E-02    0.138E-01
RMM:   5    -0.232300498920E+04   -0.15169E-03   -0.78358E-04  5128   0.176E-02    0.191E-01
RMM:   6    -0.232300459831E+04    0.39089E-03   -0.57045E-04  5289   0.161E-02    0.841E-02
RMM:   7    -0.232300454902E+04    0.49289E-04   -0.23450E-04  3505   0.113E-02    0.554E-02
RMM:   8    -0.232300450884E+04    0.40183E-04   -0.53385E-05  3094   0.574E-03    0.146E-02
RMM:   9    -0.232300450662E+04    0.22177E-05   -0.13014E-05  2937   0.394E-03
  20 F= -.23444089E+04 E0= -.23444089E+04  d E =-.218262E-01  mag=     2.0000
       N       E                     dE             d eps       ncg     rms          rms(c)
DAV:   1    -0.232300114533E+04    0.33635E-02   -0.23133E+00  4544   0.129E+00    0.366E-01
RMM:   2    -0.232301357633E+04   -0.12431E-01   -0.12875E-01  6269   0.243E-01    0.337E-01
RMM:   3    -0.232301450328E+04   -0.92695E-03   -0.10896E-02  5970   0.805E-02    0.445E-01
RMM:   4    -0.232301278341E+04    0.17199E-02   -0.16127E-03  5595   0.249E-02    0.138E-01
RMM:   5    -0.232301293135E+04   -0.14794E-03   -0.79806E-04  5164   0.175E-02    0.190E-01
RMM:   6    -0.232301252971E+04    0.40164E-03   -0.57757E-04  5321   0.160E-02    0.817E-02
RMM:   7    -0.232301249008E+04    0.39634E-04   -0.24300E-04  3552   0.111E-02    0.589E-02
RMM:   8    -0.232301244435E+04    0.45724E-04   -0.58105E-05  3117   0.595E-03    0.144E-02
RMM:   9    -0.232301244248E+04    0.18690E-05   -0.13257E-05  2934   0.402E-03
  21 F= -.23444164E+04 E0= -.23444164E+04  d E =-.292943E-01  mag=     2.0000
       N       E                     dE             d eps       ncg     rms          rms(c)
DAV:   1    -0.232301169334E+04    0.75101E-03   -0.37825E+00  4528   0.169E+00    0.481E-01
RMM:   2    -0.232303216816E+04   -0.20475E-01   -0.21370E-01  6248   0.306E-01    0.374E-01
RMM:   3    -0.232303461281E+04   -0.24446E-02   -0.17977E-02  5980   0.104E-01    0.620E-01
RMM:   4    -0.232303126763E+04    0.33452E-02   -0.26300E-03  5746   0.300E-02    0.155E-01
RMM:   5    -0.232303130251E+04   -0.34874E-04   -0.10623E-03  5211   0.189E-02    0.186E-01
RMM:   6    -0.232303094513E+04    0.35737E-03   -0.75803E-04  5164   0.173E-02    0.101E-01
RMM:   7    -0.232303086623E+04    0.78909E-04   -0.28104E-04  3649   0.122E-02    0.628E-02
RMM:   8    -0.232303081820E+04    0.48023E-04   -0.59078E-05  3146   0.598E-03    0.158E-02
RMM:   9    -0.232303081557E+04    0.26275E-05   -0.12539E-05  2932   0.392E-03
  22 F= -.23444346E+04 E0= -.23444346E+04  d E =-.182411E-01  mag=     2.0000
       N       E                     dE             d eps       ncg     rms          rms(c)
DAV:   1    -0.232302698348E+04    0.38347E-02   -0.13889E+00  4576   0.102E+00    0.291E-01
RMM:   2    -0.232303450879E+04   -0.75253E-02   -0.78535E-02  6237   0.186E-01    0.230E-01
RMM:   3    -0.232303540290E+04   -0.89411E-03   -0.66251E-03  5790   0.635E-02    0.377E-01
RMM:   4    -0.232303416533E+04    0.12376E-02   -0.95636E-04  4975   0.183E-02    0.939E-02
RMM:   5    -0.232303417937E+04   -0.14048E-04   -0.39938E-04  4089   0.122E-02    0.113E-01
RMM:   6    -0.232303404471E+04    0.13467E-03   -0.29466E-04  4654   0.114E-02    0.608E-02
RMM:   7    -0.232303401652E+04    0.28184E-04   -0.10336E-04  3084   0.830E-03    0.387E-02
RMM:   8    -0.232303399834E+04    0.18184E-04   -0.24044E-05  2962   0.447E-03    0.963E-03
RMM:   9    -0.232303399740E+04    0.93988E-06   -0.62356E-06  2893   0.296E-03
  23 F= -.23444377E+04 E0= -.23444377E+04  d E =-.213453E-01  mag=     2.0000
       N       E                     dE             d eps       ncg     rms          rms(c)
DAV:   1    -0.232303308022E+04    0.91812E-03   -0.36144E+00  4528   0.156E+00    0.391E-01
RMM:   2    -0.232305195054E+04   -0.18870E-01   -0.19603E-01  6349   0.286E-01    0.328E-01
RMM:   3    -0.232305377433E+04   -0.18238E-02   -0.16506E-02  5994   0.922E-02    0.486E-01
RMM:   4    -0.232305177109E+04    0.20032E-02   -0.20661E-03  5579   0.259E-02    0.144E-01
RMM:   5    -0.232305183101E+04   -0.59918E-04   -0.75827E-04  4912   0.163E-02    0.169E-01
RMM:   6    -0.232305157038E+04    0.26063E-03   -0.63214E-04  4915   0.162E-02    0.942E-02
RMM:   7    -0.232305149427E+04    0.76109E-04   -0.24264E-04  3432   0.121E-02    0.522E-02
RMM:   8    -0.232305145965E+04    0.34620E-04   -0.38193E-05  2978   0.523E-03    0.140E-02
RMM:   9    -0.232305145698E+04    0.26716E-05   -0.11187E-05  2931   0.362E-03
  24 F= -.23444547E+04 E0= -.23444547E+04  d E =-.169565E-01  mag=     2.0000
       N       E                     dE             d eps       ncg     rms          rms(c)
DAV:   1    -0.232302429152E+04    0.27168E-01   -0.70912E+00  4512   0.219E+00    0.551E-01
RMM:   2    -0.232306168133E+04   -0.37390E-01   -0.38811E-01  6356   0.404E-01    0.469E-01
RMM:   3    -0.232306521624E+04   -0.35349E-02   -0.32758E-02  6077   0.130E-01    0.688E-01
RMM:   4    -0.232306123443E+04    0.39818E-02   -0.41427E-03  5967   0.366E-02    0.202E-01
RMM:   5    -0.232306132166E+04   -0.87232E-04   -0.14651E-03  5448   0.218E-02    0.233E-01
RMM:   6    -0.232306082242E+04    0.49925E-03   -0.12191E-03  5084   0.222E-02    0.132E-01
RMM:   7    -0.232306067240E+04    0.15002E-03   -0.47479E-04  4072   0.162E-02    0.740E-02
RMM:   8    -0.232306060103E+04    0.71370E-04   -0.78035E-05  3293   0.643E-03    0.200E-02
RMM:   9    -0.232306059486E+04    0.61660E-05   -0.19885E-05  2959   0.459E-03
  25 F= -.23444631E+04 E0= -.23444631E+04  d E =-.254049E-01  mag=     2.0000
       N       E                     dE             d eps       ncg     rms          rms(c)
DAV:   1    -0.232305897243E+04    0.16286E-02   -0.23531E+00  4528   0.132E+00    0.352E-01
RMM:   2    -0.232306929201E+04   -0.10320E-01   -0.11146E-01  6244   0.231E-01    0.165E-01
RMM:   3    -0.232306965760E+04   -0.36559E-03   -0.92790E-03  5518   0.797E-02    0.162E-01
RMM:   4    -0.232306958115E+04    0.76444E-04   -0.10328E-03  4866   0.199E-02    0.146E-01
RMM:   5    -0.232306950689E+04    0.74261E-04   -0.58750E-04  4779   0.167E-02    0.129E-01
RMM:   6    -0.232306935393E+04    0.15297E-03   -0.22908E-04  3960   0.112E-02    0.548E-02
RMM:   7    -0.232306934238E+04    0.11542E-04   -0.70377E-05  3040   0.631E-03    0.419E-02
RMM:   8    -0.232306932062E+04    0.21764E-04   -0.21467E-05  2915   0.470E-03    0.108E-02
RMM:   9    -0.232306931858E+04    0.20404E-05   -0.61707E-06  2901   0.233E-03
  26 F= -.23444722E+04 E0= -.23444722E+04  d E =-.911499E-02  mag=     2.0000
       N       E                     dE             d eps       ncg     rms          rms(c)
DAV:   1    -0.232305843808E+04    0.10883E-01   -0.31934E+00  4528   0.154E+00    0.410E-01
RMM:   2    -0.232307237890E+04   -0.13941E-01   -0.15068E-01  6223   0.268E-01    0.194E-01
RMM:   3    -0.232307298037E+04   -0.60147E-03   -0.13386E-02  5547   0.962E-02    0.196E-01
RMM:   4    -0.232307284547E+04    0.13490E-03   -0.14185E-03  5264   0.230E-02    0.169E-01
RMM:   5    -0.232307276534E+04    0.80136E-04   -0.79778E-04  5046   0.190E-02    0.155E-01
RMM:   6    -0.232307253452E+04    0.23082E-03   -0.32384E-04  4473   0.127E-02    0.621E-02
RMM:   7    -0.232307252154E+04    0.12978E-04   -0.97207E-05  3138   0.671E-03    0.502E-02
RMM:   8    -0.232307248946E+04    0.32085E-04   -0.30179E-05  2918   0.526E-03    0.127E-02
RMM:   9    -0.232307248590E+04    0.35518E-05   -0.85485E-06  2918   0.254E-03
  27 F= -.23444759E+04 E0= -.23444759E+04  d E =-.127388E-01  mag=     2.0000
       N       E                     dE             d eps       ncg     rms          rms(c)
DAV:   1    -0.232307114684E+04    0.13426E-02   -0.13488E+00  4544   0.966E-01    0.239E-01
RMM:   2    -0.232307889956E+04   -0.77527E-02   -0.81799E-02  6359   0.174E-01    0.132E-01
RMM:   3    -0.232307936081E+04   -0.46125E-03   -0.71335E-03  5706   0.587E-02    0.145E-01
RMM:   4    -0.232307924000E+04    0.12080E-03   -0.71877E-04  3703   0.140E-02    0.102E-01
RMM:   5    -0.232307923041E+04    0.95893E-05   -0.24280E-04  3265   0.941E-03    0.112E-01
RMM:   6    -0.232307911384E+04    0.11657E-03   -0.22770E-04  3923   0.101E-02    0.329E-02
RMM:   7    -0.232307912148E+04   -0.76366E-05   -0.51213E-05  3064   0.643E-03
  28 F= -.23444831E+04 E0= -.23444831E+04  d E =-.729541E-02  mag=     2.0000
       N       E                     dE             d eps       ncg     rms          rms(c)
DAV:   1    -0.232301693468E+04    0.62179E-01   -0.12120E+01  4512   0.289E+00    0.722E-01
RMM:   2    -0.232308691971E+04   -0.69985E-01   -0.74024E-01  6345   0.515E-01    0.397E-01
RMM:   3    -0.232309145932E+04   -0.45396E-02   -0.66464E-02  6079   0.178E-01    0.459E-01
RMM:   4    -0.232309019705E+04    0.12623E-02   -0.64613E-03  6214   0.406E-02    0.302E-01
RMM:   5    -0.232309002807E+04    0.16898E-03   -0.22290E-03  4962   0.236E-02    0.314E-01
RMM:   6    -0.232308913237E+04    0.89570E-03   -0.18210E-03  5583   0.252E-02    0.116E-01
RMM:   7    -0.232308913775E+04   -0.53764E-05   -0.52354E-04  4888   0.144E-02    0.106E-01
RMM:   8    -0.232308900322E+04    0.13453E-03   -0.12922E-04  3042   0.791E-03    0.302E-02
RMM:   9    -0.232308899031E+04    0.12913E-04   -0.28457E-05  2975   0.435E-03    0.128E-02
RMM:  10    -0.232308898881E+04    0.14997E-05   -0.12134E-05  2961   0.308E-03
  29 F= -.23444950E+04 E0= -.23444950E+04  d E =-.191442E-01  mag=     2.0000
       N       E                     dE             d eps       ncg     rms          rms(c)
DAV:   1    -0.232308366694E+04    0.53234E-02   -0.92609E-01  4608   0.794E-01    0.198E-01
RMM:   2    -0.232308894902E+04   -0.52821E-02   -0.55815E-02  6357   0.142E-01    0.110E-01
RMM:   3    -0.232308927464E+04   -0.32562E-03   -0.51277E-03  5356   0.478E-02    0.111E-01
RMM:   4    -0.232308920560E+04    0.69039E-04   -0.49999E-04  3441   0.117E-02    0.821E-02
RMM:   5    -0.232308920475E+04    0.84969E-06   -0.16059E-04  3148   0.802E-03    0.974E-02
RMM:   6    -0.232308912046E+04    0.84291E-04   -0.15592E-04  3509   0.854E-03    0.294E-02
RMM:   7    -0.232308912538E+04   -0.49198E-05   -0.36247E-05  3003   0.566E-03
  30 F= -.23444957E+04 E0= -.23444957E+04  d E =-.198263E-01  mag=     2.0000
       N       E                     dE             d eps       ncg     rms          rms(c)
DAV:   1    -0.232307617949E+04    0.12941E-01   -0.35447E+00  4528   0.150E+00    0.401E-01
RMM:   2    -0.232309695359E+04   -0.20774E-01   -0.22073E-01  6340   0.278E-01    0.226E-01
RMM:   3    -0.232309832496E+04   -0.13714E-02   -0.19428E-02  6043   0.965E-02    0.274E-01
RMM:   4    -0.232309779819E+04    0.52677E-03   -0.20348E-03  5098   0.230E-02    0.167E-01
RMM:   5    -0.232309776064E+04    0.37557E-04   -0.71364E-04  4392   0.145E-02    0.175E-01
RMM:   6    -0.232309748441E+04    0.27623E-03   -0.57836E-04  4791   0.148E-02    0.736E-02
RMM:   7    -0.232309749307E+04   -0.86598E-05   -0.18453E-04  3405   0.966E-03    0.692E-02
RMM:   8    -0.232309743199E+04    0.61076E-04   -0.49604E-05  2943   0.569E-03    0.162E-02
RMM:   9    -0.232309742872E+04    0.32714E-05   -0.10308E-05  2935   0.318E-03
  31 F= -.23445044E+04 E0= -.23445044E+04  d E =-.868885E-02  mag=     2.0000
       N       E                     dE             d eps       ncg     rms          rms(c)
DAV:   1    -0.232308314333E+04    0.14289E-01   -0.26388E+00  4512   0.130E+00    0.344E-01
RMM:   2    -0.232309864146E+04   -0.15498E-01   -0.16448E-01  6335   0.238E-01    0.195E-01
RMM:   3    -0.232309963546E+04   -0.99400E-03   -0.14225E-02  5965   0.814E-02    0.237E-01
RMM:   4    -0.232309924198E+04    0.39348E-03   -0.15122E-03  4610   0.197E-02    0.145E-01
RMM:   5    -0.232309920866E+04    0.33322E-04   -0.52516E-04  4013   0.127E-02    0.149E-01
RMM:   6    -0.232309899330E+04    0.21536E-03   -0.44623E-04  4619   0.134E-02    0.565E-02
RMM:   7    -0.232309900547E+04   -0.12174E-04   -0.12463E-04  3277   0.856E-03    0.577E-02
RMM:   8    -0.232309896335E+04    0.42119E-04   -0.37030E-05  2930   0.502E-03    0.142E-02
RMM:   9    -0.232309896086E+04    0.24955E-05   -0.75810E-06  2924   0.285E-03
  32 F= -.23445062E+04 E0= -.23445062E+04  d E =-.105591E-01  mag=     2.0000
       N       E                     dE             d eps       ncg     rms          rms(c)
DAV:   1    -0.232307799096E+04    0.20972E-01   -0.43188E+00  4512   0.163E+00    0.437E-01
RMM:   2    -0.232310506876E+04   -0.27078E-01   -0.28856E-01  6420   0.304E-01    0.237E-01
RMM:   3    -0.232310669483E+04   -0.16261E-02   -0.25676E-02  6036   0.104E-01    0.226E-01
RMM:   4    -0.232310660406E+04    0.90772E-04   -0.25481E-03  5319   0.244E-02    0.206E-01
RMM:   5    -0.232310644290E+04    0.16116E-03   -0.82146E-04  4687   0.154E-02    0.182E-01
RMM:   6    -0.232310615201E+04    0.29090E-03   -0.68160E-04  4709   0.154E-02    0.741E-02
RMM:   7    -0.232310612400E+04    0.28004E-04   -0.14765E-04  3574   0.880E-03    0.414E-02
RMM:   8    -0.232310611279E+04    0.11212E-04   -0.39524E-05  2950   0.552E-03    0.284E-02
RMM:   9    -0.232310610381E+04    0.89814E-05   -0.10472E-05  2921   0.305E-03
  33 F= -.23445138E+04 E0= -.23445138E+04  d E =-.751582E-02  mag=     2.0000
       N       E                     dE             d eps       ncg     rms          rms(c)
DAV:   1    -0.232309429805E+04    0.11815E-01   -0.20167E+00  4528   0.111E+00    0.299E-01
RMM:   2    -0.232310691554E+04   -0.12617E-01   -0.13450E-01  6403   0.208E-01    0.161E-01
RMM:   3    -0.232310763251E+04   -0.71698E-03   -0.11913E-02  5870   0.703E-02    0.142E-01
RMM:   4    -0.232310761718E+04    0.15338E-04   -0.11965E-03  4164   0.168E-02    0.136E-01
RMM:   5    -0.232310756009E+04    0.57082E-04   -0.36782E-04  3930   0.117E-02    0.134E-01
RMM:   6    -0.232310741307E+04    0.14702E-03   -0.32224E-04  3976   0.112E-02    0.512E-02
RMM:   7    -0.232310739898E+04    0.14089E-04   -0.63300E-05  3166   0.668E-03    0.254E-02
RMM:   8    -0.232310739616E+04    0.28170E-05   -0.17926E-05  2917   0.428E-03
  34 F= -.23445153E+04 E0= -.23445153E+04  d E =-.906118E-02  mag=     2.0000
       N       E                     dE             d eps       ncg     rms          rms(c)
DAV:   1    -0.232310318258E+04    0.42164E-02   -0.16505E+00  4528   0.107E+00    0.308E-01
RMM:   2    -0.232311379164E+04   -0.10609E-01   -0.11363E-01  6238   0.201E-01    0.174E-01
RMM:   3    -0.232311492467E+04   -0.11330E-02   -0.11271E-02  5952   0.761E-02    0.286E-01
RMM:   4    -0.232311431007E+04    0.61460E-03   -0.10998E-03  4492   0.180E-02    0.102E-01
RMM:   5    -0.232311425883E+04    0.51231E-04   -0.46546E-04  4522   0.141E-02    0.971E-02
RMM:   6    -0.232311419495E+04    0.63883E-04   -0.21653E-04  3599   0.109E-02    0.594E-02
RMM:   7    -0.232311415887E+04    0.36087E-04   -0.57504E-05  3025   0.657E-03    0.211E-02
RMM:   8    -0.232311415683E+04    0.20359E-05   -0.19392E-05  2918   0.495E-03
  35 F= -.23445220E+04 E0= -.23445220E+04  d E =-.670735E-02  mag=     2.0000
       N       E                     dE             d eps       ncg     rms          rms(c)
DAV:   1    -0.232310455918E+04    0.95997E-02   -0.17947E+00  4528   0.112E+00    0.322E-01
RMM:   2    -0.232311615246E+04   -0.11593E-01   -0.12390E-01  6227   0.211E-01    0.189E-01
RMM:   3    -0.232311747858E+04   -0.13261E-02   -0.12166E-02  5961   0.778E-02    0.328E-01
RMM:   4    -0.232311664766E+04    0.83092E-03   -0.12163E-03  4737   0.190E-02    0.102E-01
RMM:   5    -0.232311659898E+04    0.48685E-04   -0.51099E-04  4550   0.145E-02    0.101E-01
RMM:   6    -0.232311651932E+04    0.79657E-04   -0.25101E-04  3799   0.115E-02    0.595E-02
RMM:   7    -0.232311648423E+04    0.35092E-04   -0.62089E-05  3072   0.662E-03    0.251E-02
RMM:   8    -0.232311647916E+04    0.50729E-05   -0.21616E-05  2923   0.512E-03
  36 F= -.23445243E+04 E0= -.23445243E+04  d E =-.897595E-02  mag=     2.0000
       N       E                     dE             d eps       ncg     rms          rms(c)
DAV:   1    -0.232310896371E+04    0.75205E-02   -0.18593E+00  4528   0.111E+00    0.291E-01
RMM:   2    -0.232312211006E+04   -0.13146E-01   -0.13588E-01  6263   0.208E-01    0.261E-01
RMM:   3    -0.232312344105E+04   -0.13310E-02   -0.13535E-02  6081   0.753E-02    0.356E-01
RMM:   4    -0.232312239845E+04    0.10426E-02   -0.13982E-03  4716   0.189E-02    0.108E-01
RMM:   5    -0.232312245201E+04   -0.53565E-04   -0.42837E-04  4066   0.115E-02    0.145E-01
RMM:   6    -0.232312220355E+04    0.24846E-03   -0.37208E-04  4222   0.119E-02    0.406E-02
RMM:   7    -0.232312220144E+04    0.21119E-05   -0.10909E-04  3210   0.821E-03    0.281E-02
RMM:   8    -0.232312219528E+04    0.61572E-05   -0.26375E-05  2935   0.509E-03
  37 F= -.23445296E+04 E0= -.23445296E+04  d E =-.536434E-02  mag=     2.0000
       N       E                     dE             d eps       ncg     rms          rms(c)
DAV:   1    -0.232311114004E+04    0.11061E-01   -0.17629E+00  4528   0.108E+00    0.284E-01
RMM:   2    -0.232312366554E+04   -0.12525E-01   -0.12911E-01  6249   0.203E-01    0.264E-01
RMM:   3    -0.232312490078E+04   -0.12352E-02   -0.12999E-02  6067   0.730E-02    0.350E-01
RMM:   4    -0.232312389970E+04    0.10011E-02   -0.13278E-03  4632   0.186E-02    0.106E-01
RMM:   5    -0.232312395015E+04   -0.50446E-04   -0.41226E-04  3969   0.113E-02    0.141E-01
RMM:   6    -0.232312370966E+04    0.24048E-03   -0.35763E-04  4185   0.118E-02    0.384E-02
RMM:   7    -0.232312370640E+04    0.32579E-05   -0.97105E-05  3194   0.798E-03
  38 F= -.23445308E+04 E0= -.23445308E+04  d E =-.653058E-02  mag=     2.0000
       N       E                     dE             d eps       ncg     rms          rms(c)
DAV:   1    -0.232311732878E+04    0.63809E-02   -0.14563E+00  4544   0.103E+00    0.273E-01
RMM:   2    -0.232312808296E+04   -0.10754E-01   -0.10998E-01  6359   0.191E-01    0.256E-01
RMM:   3    -0.232312901162E+04   -0.92866E-03   -0.11029E-02  6061   0.702E-02    0.308E-01
RMM:   4    -0.232312819288E+04    0.81874E-03   -0.11760E-03  4443   0.177E-02    0.110E-01
RMM:   5    -0.232312816247E+04    0.30408E-04   -0.29796E-04  3322   0.100E-02    0.111E-01
RMM:   6    -0.232312800938E+04    0.15310E-03   -0.24700E-04  4101   0.106E-02    0.305E-02
RMM:   7    -0.232312801082E+04   -0.14401E-05   -0.82795E-05  3285   0.811E-03
  39 F= -.23445350E+04 E0= -.23445350E+04  d E =-.418524E-02  mag=     2.0000
       N       E                     dE             d eps       ncg     rms          rms(c)
DAV:   1    -0.232310371392E+04    0.24295E-01   -0.36352E+00  4528   0.162E+00    0.428E-01
RMM:   2    -0.232313051807E+04   -0.26804E-01   -0.27393E-01  6328   0.300E-01    0.400E-01
RMM:   3    -0.232313290045E+04   -0.23824E-02   -0.28007E-02  6186   0.112E-01    0.489E-01
RMM:   4    -0.232313086754E+04    0.20329E-02   -0.29619E-03  5655   0.275E-02    0.177E-01
RMM:   5    -0.232313076314E+04    0.10440E-03   -0.74180E-04  4264   0.143E-02    0.172E-01
RMM:   6    -0.232313039064E+04    0.37250E-03   -0.61207E-04  4430   0.152E-02    0.524E-02
RMM:   7    -0.232313040272E+04   -0.12077E-04   -0.24744E-04  3994   0.124E-02    0.523E-02
RMM:   8    -0.232313037036E+04    0.32359E-04   -0.63021E-05  3067   0.589E-03    0.159E-02
RMM:   9    -0.232313036728E+04    0.30787E-05   -0.95376E-06  2930   0.381E-03
  40 F= -.23445372E+04 E0= -.23445372E+04  d E =-.635488E-02  mag=     2.0000
       N       E                     dE             d eps       ncg     rms          rms(c)
DAV:   1    -0.232312373755E+04    0.66328E-02   -0.13347E+00  4544   0.101E+00    0.283E-01
RMM:   2    -0.232313564457E+04   -0.11907E-01   -0.12184E-01  6406   0.200E-01    0.256E-01
RMM:   3    -0.232313654408E+04   -0.89951E-03   -0.12376E-02  6032   0.732E-02    0.270E-01
RMM:   4    -0.232313581469E+04    0.72939E-03   -0.13008E-03  5123   0.186E-02    0.127E-01
RMM:   5    -0.232313575744E+04    0.57258E-04   -0.30136E-04  3266   0.986E-03    0.111E-01
RMM:   6    -0.232313560583E+04    0.15161E-03   -0.26382E-04  4218   0.112E-02    0.323E-02
RMM:   7    -0.232313561152E+04   -0.56921E-05   -0.10252E-04  3393   0.873E-03    0.342E-02
RMM:   8    -0.232313559763E+04    0.13889E-04   -0.27626E-05  2929   0.501E-03    0.106E-02
RMM:   9    -0.232313559582E+04    0.18108E-05   -0.54309E-06  2901   0.293E-03
  41 F= -.23445422E+04 E0= -.23445422E+04  d E =-.499984E-02  mag=     2.0000
       N       E                     dE             d eps       ncg     rms          rms(c)
DAV:   1    -0.232311899272E+04    0.16605E-01   -0.21499E+00  4528   0.129E+00    0.359E-01
RMM:   2    -0.232313814105E+04   -0.19148E-01   -0.19604E-01  6420   0.254E-01    0.324E-01
RMM:   3    -0.232313958096E+04   -0.14399E-02   -0.19938E-02  6138   0.924E-02    0.341E-01
RMM:   4    -0.232313841065E+04    0.11703E-02   -0.20893E-03  5619   0.236E-02    0.162E-01
RMM:   5    -0.232313831322E+04    0.97428E-04   -0.48725E-04  3628   0.120E-02    0.140E-01
RMM:   6    -0.232313806603E+04    0.24720E-03   -0.42632E-04  4456   0.136E-02    0.408E-02
RMM:   7    -0.232313807116E+04   -0.51329E-05   -0.16159E-04  3873   0.106E-02    0.422E-02
RMM:   8    -0.232313804947E+04    0.21692E-04   -0.41485E-05  2954   0.529E-03    0.138E-02
RMM:   9    -0.232313804584E+04    0.36211E-05   -0.77156E-06  2923   0.347E-03
  42 F= -.23445443E+04 E0= -.23445443E+04  d E =-.716276E-02  mag=     2.0000
       N       E                     dE             d eps       ncg     rms          rms(c)
DAV:   1    -0.232312726527E+04    0.10784E-01   -0.11550E+00  4544   0.947E-01    0.273E-01
RMM:   2    -0.232314124505E+04   -0.13980E-01   -0.14608E-01  6498   0.204E-01    0.222E-01
RMM:   3    -0.232314239854E+04   -0.11535E-02   -0.15699E-02  5973   0.752E-02    0.209E-01
RMM:   4    -0.232314188473E+04    0.51381E-03   -0.14721E-03  4040   0.174E-02    0.963E-02
RMM:   5    -0.232314187827E+04    0.64602E-05   -0.27399E-04  3535   0.976E-03    0.130E-01
RMM:   6    -0.232314174227E+04    0.13599E-03   -0.19483E-04  3141   0.893E-03    0.516E-02
RMM:   7    -0.232314172354E+04    0.18737E-04   -0.11620E-04  3627   0.790E-03    0.216E-02
RMM:   8    -0.232314172058E+04    0.29521E-05   -0.21011E-05  2923   0.548E-03
  43 F= -.23445476E+04 E0= -.23445476E+04  d E =-.325009E-02  mag=     2.0000
       N       E                     dE             d eps       ncg     rms          rms(c)
DAV:   1    -0.232313919073E+04    0.25328E-02   -0.23581E-01  4640   0.428E-01    0.126E-01
RMM:   2    -0.232314207677E+04   -0.28860E-02   -0.30124E-02  6457   0.929E-02    0.108E-01
RMM:   3    -0.232314230820E+04   -0.23143E-03   -0.32502E-03  4150   0.329E-02    0.102E-01
RMM:   4    -0.232314218902E+04    0.11918E-03   -0.30847E-04  3123   0.919E-03    0.444E-02
RMM:   5    -0.232314219919E+04   -0.10168E-04   -0.60407E-05  2991   0.500E-03    0.670E-02
RMM:   6    -0.232314215883E+04    0.40355E-04   -0.45798E-05  2935   0.480E-03    0.189E-02
RMM:   7    -0.232314215678E+04    0.20534E-05   -0.27191E-05  3021   0.411E-03
  44 F= -.23445478E+04 E0= -.23445478E+04  d E =-.349527E-02  mag=     2.0000
       N       E                     dE             d eps       ncg     rms          rms(c)
DAV:   1    -0.232312958515E+04    0.12574E-01   -0.10232E+00  4544   0.922E-01    0.279E-01
RMM:   2    -0.232314483656E+04   -0.15251E-01   -0.15849E-01  6511   0.205E-01    0.244E-01
RMM:   3    -0.232314620114E+04   -0.13646E-02   -0.16945E-02  5877   0.763E-02    0.270E-01
RMM:   4    -0.232314554448E+04    0.65665E-03   -0.16098E-03  3987   0.179E-02    0.113E-01
RMM:   5    -0.232314551483E+04    0.29660E-04   -0.27665E-04  3256   0.923E-03    0.117E-01
RMM:   6    -0.232314534805E+04    0.16677E-03   -0.25019E-04  4025   0.102E-02    0.375E-02
RMM:   7    -0.232314534985E+04   -0.18032E-05   -0.13064E-04  3422   0.798E-03    0.337E-02
RMM:   8    -0.232314533751E+04    0.12341E-04   -0.30607E-05  2933   0.559E-03    0.130E-02
RMM:   9    -0.232314533588E+04    0.16332E-05   -0.57462E-06  2878   0.285E-03
  45 F= -.23445509E+04 E0= -.23445509E+04  d E =-.304861E-02  mag=     2.0000
       N       E                     dE             d eps       ncg     rms          rms(c)
DAV:   1    -0.232310852605E+04    0.36811E-01   -0.24334E+00  4528   0.142E+00    0.429E-01
RMM:   2    -0.232314488555E+04   -0.36359E-01   -0.37700E-01  6495   0.315E-01    0.381E-01
RMM:   3    -0.232314804209E+04   -0.31565E-02   -0.40741E-02  6086   0.120E-01    0.406E-01
RMM:   4    -0.232314653828E+04    0.15038E-02   -0.38435E-03  5389   0.273E-02    0.175E-01
RMM:   5    -0.232314645707E+04    0.81205E-04   -0.64235E-04  4082   0.127E-02    0.179E-01
RMM:   6    -0.232314606802E+04    0.38905E-03   -0.55879E-04  4720   0.141E-02    0.617E-02
RMM:   7    -0.232314607338E+04   -0.53690E-05   -0.33041E-04  4265   0.116E-02    0.601E-02
RMM:   8    -0.232314603177E+04    0.41618E-04   -0.83701E-05  3077   0.705E-03    0.200E-02
RMM:   9    -0.232314602761E+04    0.41598E-05   -0.12098E-05  2924   0.399E-03
  46 F= -.23445514E+04 E0= -.23445514E+04  d E =-.355065E-02  mag=     2.0000
       N       E                     dE             d eps       ncg     rms          rms(c)
DAV:   1    -0.232314084209E+04    0.51897E-02   -0.36087E-01  4544   0.547E-01    0.163E-01
RMM:   2    -0.232314613414E+04   -0.52921E-02   -0.55421E-02  6446   0.121E-01    0.131E-01
RMM:   3    -0.232314668586E+04   -0.55172E-03   -0.61053E-03  4878   0.455E-02    0.161E-01
RMM:   4    -0.232314644170E+04    0.24415E-03   -0.55478E-04  3180   0.111E-02    0.615E-02
RMM:   5    -0.232314643914E+04    0.25646E-05   -0.94531E-05  3005   0.595E-03
  47 F= -.23445519E+04 E0= -.23445519E+04  d E =-.403364E-02  mag=     2.0000
       N       E                     dE             d eps       ncg     rms          rms(c)
DAV:   1    -0.232313696581E+04    0.94759E-02   -0.73230E-01  4544   0.805E-01    0.261E-01
RMM:   2    -0.232314843486E+04   -0.11469E-01   -0.12024E-01  6277   0.179E-01    0.217E-01
RMM:   3    -0.232314969068E+04   -0.12558E-02   -0.12857E-02  5850   0.701E-02    0.291E-01
RMM:   4    -0.232314895434E+04    0.73634E-03   -0.12789E-03  4350   0.170E-02    0.961E-02
RMM:   5    -0.232314890687E+04    0.47466E-04   -0.23860E-04  3262   0.900E-03    0.913E-02
RMM:   6    -0.232314879720E+04    0.10967E-03   -0.18236E-04  3926   0.948E-03    0.354E-02
RMM:   7    -0.232314880096E+04   -0.37564E-05   -0.10397E-04  3377   0.750E-03    0.403E-02
RMM:   8    -0.232314878020E+04    0.20762E-04   -0.38488E-05  2939   0.572E-03    0.100E-02
RMM:   9    -0.232314877844E+04    0.17552E-05   -0.66630E-06  2898   0.337E-03
  48 F= -.23445541E+04 E0= -.23445541E+04  d E =-.220002E-02  mag=     2.0000
       N       E                     dE             d eps       ncg     rms          rms(c)
DAV:   1    -0.232313928788E+04    0.94923E-02   -0.59851E-01  4528   0.729E-01    0.231E-01
RMM:   2    -0.232314864850E+04   -0.93606E-02   -0.97803E-02  6311   0.162E-01    0.190E-01
RMM:   3    -0.232314959651E+04   -0.94801E-03   -0.10450E-02  5690   0.653E-02    0.235E-01
RMM:   4    -0.232314909400E+04    0.50251E-03   -0.10209E-03  3859   0.152E-02    0.872E-02
RMM:   5    -0.232314907801E+04    0.15988E-04   -0.19101E-04  3179   0.857E-03    0.923E-02
RMM:   6    -0.232314897011E+04    0.10791E-03   -0.16965E-04  3914   0.914E-03    0.288E-02
RMM:   7    -0.232314897223E+04   -0.21262E-05   -0.77279E-05  3204   0.702E-03
  49 F= -.23445541E+04 E0= -.23445541E+04  d E =-.227075E-02  mag=     2.0000
       N       E                     dE             d eps       ncg     rms          rms(c)
DAV:   1    -0.232314742189E+04    0.15482E-02   -0.10523E-01  4608   0.306E-01    0.941E-02
RMM:   2    -0.232314906984E+04   -0.16480E-02   -0.16983E-02  6363   0.687E-02    0.863E-02
RMM:   3    -0.232314923438E+04   -0.16453E-03   -0.18467E-03  3714   0.267E-02    0.108E-01
RMM:   4    -0.232314913454E+04    0.99834E-04   -0.17615E-04  3013   0.783E-03    0.349E-02
RMM:   5    -0.232314913004E+04    0.45036E-05   -0.36117E-05  2961   0.397E-03
  50 F= -.23445543E+04 E0= -.23445543E+04  d E =-.247963E-02  mag=     2.0000
       N       E                     dE             d eps       ncg     rms          rms(c)
DAV:   1    -0.232313894596E+04    0.10189E-01   -0.71890E-01  4544   0.786E-01    0.236E-01
RMM:   2    -0.232315078512E+04   -0.11839E-01   -0.12452E-01  6485   0.175E-01    0.195E-01
RMM:   3    -0.232315199991E+04   -0.12148E-02   -0.13323E-02  5781   0.672E-02    0.239E-01
RMM:   4    -0.232315151544E+04    0.48447E-03   -0.12719E-03  3587   0.155E-02    0.918E-02
RMM:   5    -0.232315148494E+04    0.30508E-04   -0.18613E-04  3209   0.812E-03    0.912E-02
RMM:   6    -0.232315138029E+04    0.10464E-03   -0.14584E-04  3134   0.818E-03    0.362E-02
RMM:   7    -0.232315137675E+04    0.35459E-05   -0.11303E-04  3437   0.730E-03    0.339E-02
RMM:   8    -0.232315136434E+04    0.12411E-04   -0.30335E-05  2932   0.556E-03    0.118E-02
RMM:   9    -0.232315136253E+04    0.18047E-05   -0.49592E-06  2865   0.262E-03
  51 F= -.23445561E+04 E0= -.23445561E+04  d E =-.180368E-02  mag=     2.0000
       N       E                     dE             d eps       ncg     rms          rms(c)
DAV:   1    -0.232314883370E+04    0.25306E-02   -0.17003E-01  4544   0.383E-01    0.113E-01
RMM:   2    -0.232315165092E+04   -0.28172E-02   -0.29497E-02  6487   0.851E-02    0.986E-02
RMM:   3    -0.232315192117E+04   -0.27025E-03   -0.31290E-03  4063   0.330E-02    0.114E-01
RMM:   4    -0.232315181221E+04    0.10895E-03   -0.30236E-04  3057   0.882E-03    0.451E-02
RMM:   5    -0.232315180735E+04    0.48680E-05   -0.45622E-05  2990   0.440E-03
  52 F= -.23445564E+04 E0= -.23445564E+04  d E =-.204042E-02  mag=     2.0000
       N       E                     dE             d eps       ncg     rms          rms(c)
DAV:   1    -0.232314515350E+04    0.66587E-02   -0.48135E-01  4544   0.664E-01    0.192E-01
RMM:   2    -0.232315358646E+04   -0.84330E-02   -0.87616E-02  6454   0.147E-01    0.170E-01
RMM:   3    -0.232315437285E+04   -0.78639E-03   -0.97738E-03  5639   0.584E-02    0.168E-01
RMM:   4    -0.232315408455E+04    0.28830E-03   -0.87562E-04  3382   0.130E-02    0.742E-02
RMM:   5    -0.232315408888E+04   -0.43249E-05   -0.12873E-04  3097   0.722E-03    0.865E-02
RMM:   6    -0.232315400203E+04    0.86844E-04   -0.11610E-04  3243   0.720E-03    0.294E-02
RMM:   7    -0.232315399627E+04    0.57639E-05   -0.53222E-05  3071   0.618E-03
  53 F= -.23445583E+04 E0= -.23445583E+04  d E =-.193751E-02  mag=     2.0000
       N       E                     dE             d eps       ncg     rms          rms(c)
DAV:   1    -0.232307649007E+04    0.77512E-01   -0.43515E+00  4512   0.199E+00    0.595E-01
RMM:   2    -0.232315285266E+04   -0.76363E-01   -0.79946E-01  6481   0.442E-01    0.498E-01
RMM:   3    -0.232316016885E+04   -0.73162E-02   -0.88736E-02  6204   0.175E-01    0.506E-01
RMM:   4    -0.232315758107E+04    0.25878E-02   -0.80628E-03  6013   0.386E-02    0.234E-01
RMM:   5    -0.232315743941E+04    0.14166E-03   -0.10405E-03  4907   0.159E-02    0.227E-01
RMM:   6    -0.232315684603E+04    0.59338E-03   -0.81046E-04  4840   0.154E-02    0.985E-02
RMM:   7    -0.232315673116E+04    0.11487E-03   -0.65114E-04  4854   0.149E-02    0.408E-02
RMM:   8    -0.232315672458E+04    0.65810E-05   -0.91091E-05  3064   0.884E-03
  54 F= -.23445603E+04 E0= -.23445603E+04  d E =-.393015E-02  mag=     2.0000
       N       E                     dE             d eps       ncg     rms          rms(c)
DAV:   1    -0.232314908251E+04    0.76487E-02   -0.48249E-01  4544   0.657E-01    0.198E-01
RMM:   2    -0.232315799142E+04   -0.89089E-02   -0.92010E-02  6498   0.148E-01    0.193E-01
RMM:   3    -0.232315866798E+04   -0.67655E-03   -0.10108E-02  5664   0.565E-02    0.156E-01
RMM:   4    -0.232315837954E+04    0.28843E-03   -0.91779E-04  3363   0.129E-02    0.634E-02
RMM:   5    -0.232315836857E+04    0.10970E-04   -0.10129E-04  3034   0.655E-03    0.720E-02
RMM:   6    -0.232315832634E+04    0.42230E-04   -0.66814E-05  2952   0.548E-03    0.398E-02
RMM:   7    -0.232315831798E+04    0.83606E-05   -0.60212E-05  3076   0.591E-03
  55 F= -.23445617E+04 E0= -.23445617E+04  d E =-.135947E-02  mag=     2.0000
       N       E                     dE             d eps       ncg     rms          rms(c)
DAV:   1    -0.232307819680E+04    0.80130E-01   -0.43427E+00  4512   0.197E+00    0.582E-01
RMM:   2    -0.232315805547E+04   -0.79859E-01   -0.82385E-01  6515   0.440E-01    0.546E-01
RMM:   3    -0.232316433310E+04   -0.62776E-02   -0.91891E-02  6297   0.173E-01    0.439E-01
RMM:   4    -0.232316197209E+04    0.23610E-02   -0.82187E-03  5986   0.376E-02    0.191E-01
RMM:   5    -0.232316162356E+04    0.34852E-03   -0.80912E-04  4444   0.151E-02    0.158E-01
RMM:   6    -0.232316156628E+04    0.57279E-04   -0.58318E-04  4343   0.131E-02    0.172E-01
RMM:   7    -0.232316131179E+04    0.25450E-03   -0.49010E-04  4656   0.132E-02    0.331E-02
RMM:   8    -0.232316131005E+04    0.17365E-05   -0.66223E-05  3035   0.853E-03
  56 F= -.23445640E+04 E0= -.23445640E+04  d E =-.366605E-02  mag=     2.0000
       N       E                     dE             d eps       ncg     rms          rms(c)
DAV:   1    -0.232314786090E+04    0.13451E-01   -0.72289E-01  4544   0.803E-01    0.241E-01
RMM:   2    -0.232316119823E+04   -0.13337E-01   -0.13768E-01  6488   0.179E-01    0.233E-01
RMM:   3    -0.232316218781E+04   -0.98957E-03   -0.15078E-02  5891   0.687E-02    0.187E-01
RMM:   4    -0.232316177715E+04    0.41065E-03   -0.13865E-03  3686   0.155E-02    0.787E-02
RMM:   5    -0.232316176623E+04    0.10927E-04   -0.15200E-04  3094   0.755E-03    0.919E-02
RMM:   6    -0.232316169065E+04    0.75578E-04   -0.10286E-04  2996   0.662E-03    0.456E-02
RMM:   7    -0.232316167534E+04    0.15311E-04   -0.89059E-05  3304   0.698E-03    0.144E-02
RMM:   8    -0.232316167547E+04   -0.12730E-06   -0.12882E-05  2926   0.477E-03
  57 F= -.23445641E+04 E0= -.23445641E+04  d E =-.375868E-02  mag=     2.0000
       N       E                     dE             d eps       ncg     rms          rms(c)
DAV:   1    -0.232314582840E+04    0.15847E-01   -0.10035E+00  4528   0.938E-01    0.290E-01
RMM:   2    -0.232316431256E+04   -0.18484E-01   -0.18655E-01  6409   0.211E-01    0.311E-01
RMM:   3    -0.232316517461E+04   -0.86206E-03   -0.20364E-02  6094   0.828E-02    0.212E-01
RMM:   4    -0.232316460368E+04    0.57093E-03   -0.18775E-03  4439   0.184E-02    0.871E-02
RMM:   5    -0.232316453926E+04    0.64425E-04   -0.21133E-04  3429   0.925E-03    0.941E-02
RMM:   6    -0.232316448176E+04    0.57499E-04   -0.13472E-04  3124   0.796E-03    0.653E-02
RMM:   7    -0.232316445190E+04    0.29855E-04   -0.12124E-04  3531   0.783E-03    0.281E-02
RMM:   8    -0.232316444423E+04    0.76774E-05   -0.25800E-05  2929   0.561E-03
  58 F= -.23445664E+04 E0= -.23445664E+04  d E =-.233134E-02  mag=     2.0000
       N       E                     dE             d eps       ncg     rms          rms(c)
DAV:   1    -0.232314559086E+04    0.18861E-01   -0.10453E+00  4512   0.959E-01    0.296E-01
RMM:   2    -0.232316486621E+04   -0.19275E-01   -0.19452E-01  6404   0.216E-01    0.318E-01
RMM:   3    -0.232316577013E+04   -0.90392E-03   -0.21352E-02  6115   0.842E-02    0.216E-01
RMM:   4    -0.232316518205E+04    0.58807E-03   -0.19890E-03  4524   0.188E-02    0.903E-02
RMM:   5    -0.232316513897E+04    0.43080E-04   -0.22405E-04  3381   0.925E-03    0.110E-01
RMM:   6    -0.232316504038E+04    0.98599E-04   -0.14543E-04  3153   0.815E-03    0.579E-02
RMM:   7    -0.232316501728E+04    0.23093E-04   -0.13713E-04  3729   0.823E-03    0.289E-02
RMM:   8    -0.232316500925E+04    0.80303E-05   -0.27404E-05  2935   0.570E-03
  59 F= -.23445665E+04 E0= -.23445665E+04  d E =-.245293E-02  mag=     2.0000
       N       E                     dE             d eps       ncg     rms          rms(c)
DAV:   1    -0.232316191429E+04    0.31030E-02   -0.16986E-01  4608   0.387E-01    0.115E-01
RMM:   2    -0.232316494397E+04   -0.30297E-02   -0.30910E-02  6426   0.864E-02    0.109E-01
RMM:   3    -0.232316518059E+04   -0.23662E-03   -0.34852E-03  4357   0.353E-02    0.902E-02
RMM:   4    -0.232316507892E+04    0.10166E-03   -0.31712E-04  3136   0.892E-03    0.374E-02
RMM:   5    -0.232316507550E+04    0.34282E-05   -0.38810E-05  2964   0.450E-03
  60 F= -.23445668E+04 E0= -.23445668E+04  d E =-.269746E-02  mag=     2.0000
       N       E                     dE             d eps       ncg     rms          rms(c)
DAV:   1    -0.232315036801E+04    0.14711E-01   -0.87726E-01  4544   0.876E-01    0.288E-01
RMM:   2    -0.232316755161E+04   -0.17184E-01   -0.17215E-01  6439   0.202E-01    0.319E-01
RMM:   3    -0.232316823850E+04   -0.68689E-03   -0.19587E-02  6095   0.796E-02    0.211E-01
RMM:   4    -0.232316768048E+04    0.55802E-03   -0.17383E-03  4242   0.178E-02    0.913E-02
RMM:   5    -0.232316765856E+04    0.21923E-04   -0.17596E-04  3106   0.787E-03    0.105E-01
RMM:   6    -0.232316754239E+04    0.11617E-03   -0.14388E-04  3111   0.777E-03    0.426E-02
RMM:   7    -0.232316754003E+04    0.23653E-05   -0.13752E-04  3425   0.767E-03    0.418E-02
RMM:   8    -0.232316751911E+04    0.20923E-04   -0.40399E-05  2964   0.571E-03    0.102E-02
RMM:   9    -0.232316751833E+04    0.77731E-06   -0.62814E-06  2894   0.311E-03
  61 F= -.23445689E+04 E0= -.23445689E+04  d E =-.216380E-02  mag=     2.0000
       N       E                     dE             d eps       ncg     rms          rms(c)
DAV:   1    -0.232314925346E+04    0.18266E-01   -0.98487E-01  4512   0.928E-01    0.300E-01
RMM:   2    -0.232316853734E+04   -0.19284E-01   -0.19218E-01  6448   0.214E-01    0.341E-01
RMM:   3    -0.232316924483E+04   -0.70749E-03   -0.22212E-02  6072   0.871E-02    0.212E-01
RMM:   4    -0.232316867246E+04    0.57237E-03   -0.19345E-03  4442   0.184E-02    0.852E-02
RMM:   5    -0.232316856710E+04    0.10536E-03   -0.19923E-04  3375   0.909E-03    0.606E-02
RMM:   6    -0.232316855793E+04    0.91662E-05   -0.17353E-04  3224   0.877E-03    0.676E-02
RMM:   7    -0.232316853234E+04    0.25593E-04   -0.94295E-05  3076   0.753E-03    0.427E-02
RMM:   8    -0.232316851702E+04    0.15324E-04   -0.25431E-05  2927   0.530E-03    0.129E-02
RMM:   9    -0.232316851596E+04    0.10516E-05   -0.51704E-06  2889   0.274E-03
  62 F= -.23445696E+04 E0= -.23445696E+04  d E =-.287042E-02  mag=     2.0000
       N       E                     dE             d eps       ncg     rms          rms(c)
DAV:   1    -0.232315609438E+04    0.12423E-01   -0.79169E-01  4512   0.848E-01    0.270E-01
RMM:   2    -0.232317075963E+04   -0.14665E-01   -0.14882E-01  6376   0.192E-01    0.277E-01
RMM:   3    -0.232317180796E+04   -0.10483E-02   -0.17214E-02  5925   0.780E-02    0.239E-01
RMM:   4    -0.232317125988E+04    0.54808E-03   -0.15298E-03  4047   0.170E-02    0.108E-01
RMM:   5    -0.232317120457E+04    0.55304E-04   -0.20800E-04  3119   0.845E-03    0.873E-02
RMM:   6    -0.232317110061E+04    0.10397E-03   -0.14904E-04  3390   0.809E-03    0.367E-02
RMM:   7    -0.232317109817E+04    0.24388E-05   -0.11647E-04  3422   0.771E-03    0.278E-02
RMM:   8    -0.232317109111E+04    0.70603E-05   -0.23678E-05  2923   0.536E-03
  63 F= -.23445716E+04 E0= -.23445716E+04  d E =-.200477E-02  mag=     2.0000
       N       E                     dE             d eps       ncg     rms          rms(c)
DAV:   1    -0.232314234595E+04    0.28752E-01   -0.16058E+00  4512   0.121E+00    0.389E-01
RMM:   2    -0.232317235493E+04   -0.30009E-01   -0.30335E-01  6378   0.274E-01    0.415E-01
RMM:   3    -0.232317423364E+04   -0.18787E-02   -0.35137E-02  6100   0.108E-01    0.338E-01
RMM:   4    -0.232317314898E+04    0.10847E-02   -0.31378E-03  5342   0.240E-02    0.157E-01
RMM:   5    -0.232317302390E+04    0.12507E-03   -0.41385E-04  3404   0.108E-02    0.123E-01
RMM:   6    -0.232317281545E+04    0.20845E-03   -0.30265E-04  4163   0.109E-02    0.520E-02
RMM:   7    -0.232317280912E+04    0.63335E-05   -0.22985E-04  4041   0.100E-02    0.388E-02
RMM:   8    -0.232317279510E+04    0.14019E-04   -0.44230E-05  2957   0.622E-03    0.172E-02
RMM:   9    -0.232317279316E+04    0.19400E-05   -0.81873E-06  2905   0.326E-03
  64 F= -.23445725E+04 E0= -.23445725E+04  d E =-.290122E-02  mag=     2.0000
       N       E                     dE             d eps       ncg     rms          rms(c)
DAV:   1    -0.232315686984E+04    0.15925E-01   -0.99678E-01  4512   0.945E-01    0.294E-01
RMM:   2    -0.232317517603E+04   -0.18306E-01   -0.18446E-01  6515   0.215E-01    0.347E-01
RMM:   3    -0.232317651483E+04   -0.13388E-02   -0.21096E-02  6029   0.831E-02    0.309E-01
RMM:   4    -0.232317575288E+04    0.76195E-03   -0.19333E-03  4389   0.191E-02    0.106E-01
RMM:   5    -0.232317569174E+04    0.61138E-04   -0.25905E-04  3266   0.892E-03    0.950E-02
RMM:   6    -0.232317556866E+04    0.12308E-03   -0.17541E-04  3397   0.884E-03    0.388E-02
RMM:   7    -0.232317555775E+04    0.10907E-04   -0.12918E-04  3588   0.793E-03    0.140E-02
RMM:   8    -0.232317555739E+04    0.36240E-06   -0.10184E-05  2946   0.505E-03
  65 F= -.23445745E+04 E0= -.23445745E+04  d E =-.195069E-02  mag=     2.0000
       N       E                     dE             d eps       ncg     rms          rms(c)
DAV:   1    -0.232313933641E+04    0.36221E-01   -0.20371E+00  4512   0.135E+00    0.423E-01
RMM:   2    -0.232317703091E+04   -0.37695E-01   -0.37905E-01  6500   0.308E-01    0.508E-01
RMM:   3    -0.232317950915E+04   -0.24782E-02   -0.42919E-02  6205   0.116E-01    0.435E-01
RMM:   4    -0.232317797775E+04    0.15314E-02   -0.38760E-03  5546   0.270E-02    0.154E-01
RMM:   5    -0.232317784201E+04    0.13574E-03   -0.52942E-04  3760   0.115E-02    0.135E-01
RMM:   6    -0.232317759417E+04    0.24783E-03   -0.36639E-04  4201   0.117E-02    0.555E-02
RMM:   7    -0.232317757383E+04    0.20340E-04   -0.24798E-04  4049   0.102E-02    0.288E-02
RMM:   8    -0.232317757300E+04    0.83787E-06   -0.38529E-05  2975   0.632E-03
  66 F= -.23445753E+04 E0= -.23445753E+04  d E =-.280983E-02  mag=     2.0000
       N       E                     dE             d eps       ncg     rms          rms(c)
DAV:   1    -0.232316482491E+04    0.12749E-01   -0.81844E-01  4544   0.861E-01    0.264E-01
RMM:   2    -0.232317974974E+04   -0.14925E-01   -0.14972E-01  6517   0.197E-01    0.333E-01
RMM:   3    -0.232318062926E+04   -0.87952E-03   -0.16433E-02  5944   0.717E-02    0.273E-01
RMM:   4    -0.232318003244E+04    0.59682E-03   -0.15152E-03  3959   0.170E-02    0.898E-02
RMM:   5    -0.232317999930E+04    0.33142E-04   -0.20014E-04  3186   0.826E-03    0.867E-02
RMM:   6    -0.232317989765E+04    0.10165E-03   -0.13438E-04  3204   0.787E-03    0.344E-02
RMM:   7    -0.232317988965E+04    0.79959E-05   -0.94673E-05  3371   0.718E-03
  67 F= -.23445771E+04 E0= -.23445771E+04  d E =-.172343E-02  mag=     2.0000
       N       E                     dE             d eps       ncg     rms          rms(c)
DAV:   1    -0.232314803902E+04    0.31859E-01   -0.18174E+00  4512   0.128E+00    0.390E-01
RMM:   2    -0.232318095169E+04   -0.32913E-01   -0.33208E-01  6584   0.293E-01    0.467E-01
RMM:   3    -0.232318322538E+04   -0.22737E-02   -0.36971E-02  6220   0.108E-01    0.406E-01
RMM:   4    -0.232318185462E+04    0.13708E-02   -0.33753E-03  5357   0.252E-02    0.133E-01
RMM:   5    -0.232318178491E+04    0.69707E-04   -0.44164E-04  3554   0.106E-02    0.130E-01
RMM:   6    -0.232318156030E+04    0.22461E-03   -0.29984E-04  3880   0.108E-02    0.528E-02
RMM:   7    -0.232318153580E+04    0.24504E-04   -0.21670E-04  3981   0.964E-03    0.268E-02
RMM:   8    -0.232318153363E+04    0.21681E-05   -0.32415E-05  2948   0.623E-03
  68 F= -.23445778E+04 E0= -.23445778E+04  d E =-.249045E-02  mag=     2.0000
       N       E                     dE             d eps       ncg     rms          rms(c)
DAV:   1    -0.232316004199E+04    0.21494E-01   -0.13685E+00  4512   0.112E+00    0.341E-01
RMM:   2    -0.232318395215E+04   -0.23910E-01   -0.24248E-01  6521   0.255E-01    0.378E-01
RMM:   3    -0.232318579985E+04   -0.18477E-02   -0.26582E-02  6108   0.928E-02    0.353E-01
RMM:   4    -0.232318472745E+04    0.10724E-02   -0.24239E-03  4852   0.219E-02    0.117E-01
RMM:   5    -0.232318468232E+04    0.45131E-04   -0.33436E-04  3439   0.984E-03    0.112E-01
RMM:   6    -0.232318451662E+04    0.16570E-03   -0.23409E-04  3711   0.992E-03    0.444E-02
RMM:   7    -0.232318450300E+04    0.13618E-04   -0.14639E-04  3743   0.848E-03    0.242E-02
RMM:   8    -0.232318450133E+04    0.16648E-05   -0.25431E-05  2930   0.571E-03
  69 F= -.23445799E+04 E0= -.23445799E+04  d E =-.207263E-02  mag=     2.0000
       N       E                     dE             d eps       ncg     rms          rms(c)
DAV:   1    -0.232315377918E+04    0.30724E-01   -0.18189E+00  4512   0.129E+00    0.392E-01
RMM:   2    -0.232318550048E+04   -0.31721E-01   -0.32220E-01  6518   0.295E-01    0.428E-01
RMM:   3    -0.232318801104E+04   -0.25106E-02   -0.35347E-02  6187   0.106E-01    0.404E-01
RMM:   4    -0.232318659447E+04    0.14166E-02   -0.32123E-03  5264   0.252E-02    0.134E-01
RMM:   5    -0.232318653637E+04    0.58095E-04   -0.44822E-04  3690   0.110E-02    0.129E-01
RMM:   6    -0.232318631689E+04    0.21948E-03   -0.31298E-04  3979   0.110E-02    0.519E-02
RMM:   7    -0.232318629491E+04    0.21983E-04   -0.19201E-04  3944   0.942E-03    0.272E-02
RMM:   8    -0.232318629339E+04    0.15181E-05   -0.32663E-05  2953   0.613E-03
  70 F= -.23445807E+04 E0= -.23445807E+04  d E =-.283848E-02  mag=     2.0000
       N       E                     dE             d eps       ncg     rms          rms(c)
DAV:   1    -0.232316387577E+04    0.22419E-01   -0.14712E+00  4512   0.115E+00    0.351E-01
RMM:   2    -0.232318873491E+04   -0.24859E-01   -0.25374E-01  6513   0.265E-01    0.339E-01
RMM:   3    -0.232319071416E+04   -0.19792E-02   -0.27626E-02  6090   0.953E-02    0.319E-01
RMM:   4    -0.232318965269E+04    0.10615E-02   -0.24768E-03  4845   0.223E-02    0.125E-01
RMM:   5    -0.232318961264E+04    0.40058E-04   -0.34529E-04  3357   0.990E-03    0.115E-01
RMM:   6    -0.232318945482E+04    0.15782E-03   -0.24527E-04  3847   0.101E-02    0.555E-02
RMM:   7    -0.232318945627E+04   -0.14507E-05   -0.18482E-04  3790   0.905E-03    0.526E-02
RMM:   8    -0.232318942288E+04    0.33389E-04   -0.52644E-05  2963   0.619E-03    0.130E-02
RMM:   9    -0.232318942066E+04    0.22204E-05   -0.90100E-06  2933   0.343E-03
  71 F= -.23445830E+04 E0= -.23445830E+04  d E =-.235872E-02  mag=     2.0000
       N       E                     dE             d eps       ncg     rms          rms(c)
DAV:   1    -0.232315119593E+04    0.38227E-01   -0.23146E+00  4512   0.144E+00    0.438E-01
RMM:   2    -0.232319025566E+04   -0.39060E-01   -0.39905E-01  6508   0.333E-01    0.416E-01
RMM:   3    -0.232319345796E+04   -0.32023E-02   -0.43902E-02  6174   0.123E-01    0.394E-01
RMM:   4    -0.232319182356E+04    0.16344E-02   -0.39692E-03  5476   0.281E-02    0.155E-01
RMM:   5    -0.232319175257E+04    0.70985E-04   -0.50109E-04  3726   0.117E-02    0.142E-01
RMM:   6    -0.232319151098E+04    0.24160E-03   -0.38068E-04  4220   0.117E-02    0.723E-02
RMM:   7    -0.232319150145E+04    0.95275E-05   -0.30104E-04  4269   0.110E-02    0.645E-02
RMM:   8    -0.232319145120E+04    0.50252E-04   -0.81674E-05  3052   0.702E-03    0.177E-02
RMM:   9    -0.232319144643E+04    0.47649E-05   -0.13338E-05  2954   0.393E-03
  72 F= -.23445841E+04 E0= -.23445841E+04  d E =-.343070E-02  mag=     2.0000
       N       E                     dE             d eps       ncg     rms          rms(c)
DAV:   1    -0.232316105282E+04    0.30398E-01   -0.19326E+00  4512   0.129E+00    0.397E-01
RMM:   2    -0.232319369895E+04   -0.32646E-01   -0.33252E-01  6553   0.303E-01    0.375E-01
RMM:   3    -0.232319612668E+04   -0.24277E-02   -0.36334E-02  6243   0.109E-01    0.333E-01
RMM:   4    -0.232319481434E+04    0.13123E-02   -0.33030E-03  5177   0.253E-02    0.129E-01
RMM:   5    -0.232319475071E+04    0.63638E-04   -0.42080E-04  3405   0.105E-02    0.124E-01
RMM:   6    -0.232319461571E+04    0.13500E-03   -0.28560E-04  3790   0.103E-02    0.874E-02
RMM:   7    -0.232319459899E+04    0.16718E-04   -0.26165E-04  3795   0.100E-02    0.685E-02
RMM:   8    -0.232319454029E+04    0.58699E-04   -0.73819E-05  3097   0.680E-03    0.134E-02
RMM:   9    -0.232319453783E+04    0.24635E-05   -0.10754E-05  2936   0.407E-03
  73 F= -.23445865E+04 E0= -.23445865E+04  d E =-.243449E-02  mag=     2.0000
       N       E                     dE             d eps       ncg     rms          rms(c)
DAV:   1    -0.232316988127E+04    0.24659E-01   -0.14929E+00  4512   0.113E+00    0.349E-01
RMM:   2    -0.232319508100E+04   -0.25200E-01   -0.25667E-01  6534   0.266E-01    0.330E-01
RMM:   3    -0.232319696145E+04   -0.18805E-02   -0.28057E-02  6194   0.964E-02    0.294E-01
RMM:   4    -0.232319594217E+04    0.10193E-02   -0.25558E-03  4789   0.223E-02    0.113E-01
RMM:   5    -0.232319589238E+04    0.49794E-04   -0.32644E-04  3262   0.946E-03    0.110E-01
RMM:   6    -0.232319578652E+04    0.10586E-03   -0.22225E-04  3526   0.936E-03    0.770E-02
RMM:   7    -0.232319577268E+04    0.13837E-04   -0.20481E-04  3539   0.917E-03    0.600E-02
RMM:   8    -0.232319572720E+04    0.45481E-04   -0.58707E-05  3032   0.643E-03    0.116E-02
RMM:   9    -0.232319572541E+04    0.17909E-05   -0.89778E-06  2927   0.384E-03
  74 F= -.23445872E+04 E0= -.23445872E+04  d E =-.305154E-02  mag=     2.0000
       N       E                     dE             d eps       ncg     rms          rms(c)
DAV:   1    -0.232317005403E+04    0.25673E-01   -0.17143E+00  4512   0.121E+00    0.370E-01
RMM:   2    -0.232319765336E+04   -0.27599E-01   -0.28328E-01  6583   0.282E-01    0.314E-01
RMM:   3    -0.232320005602E+04   -0.24027E-02   -0.30454E-02  6182   0.100E-01    0.326E-01
RMM:   4    -0.232319886761E+04    0.11884E-02   -0.28573E-03  4856   0.235E-02    0.132E-01
RMM:   5    -0.232319879223E+04    0.75385E-04   -0.40437E-04  3350   0.100E-02    0.116E-01
RMM:   6    -0.232319867269E+04    0.11953E-03   -0.28902E-04  3846   0.104E-02    0.809E-02
RMM:   7    -0.232319864412E+04    0.28576E-04   -0.24012E-04  3689   0.966E-03    0.606E-02
RMM:   8    -0.232319859853E+04    0.45590E-04   -0.64296E-05  3061   0.650E-03    0.120E-02
RMM:   9    -0.232319859712E+04    0.14082E-05   -0.99312E-06  2934   0.394E-03
  75 F= -.23445892E+04 E0= -.23445892E+04  d E =-.207884E-02  mag=     2.0000
       N       E                     dE             d eps       ncg     rms          rms(c)
DAV:   1    -0.232318173524E+04    0.16863E-01   -0.10808E+00  4544   0.958E-01    0.294E-01
RMM:   2    -0.232319911779E+04   -0.17383E-01   -0.17836E-01  6569   0.224E-01    0.250E-01
RMM:   3    -0.232320062709E+04   -0.15093E-02   -0.19122E-02  6030   0.796E-02    0.260E-01
RMM:   4    -0.232319987492E+04    0.75217E-03   -0.17981E-03  4118   0.187E-02    0.104E-01
RMM:   5    -0.232319982840E+04    0.46517E-04   -0.25121E-04  3165   0.859E-03    0.920E-02
RMM:   6    -0.232319975222E+04    0.76182E-04   -0.18250E-04  3464   0.856E-03    0.639E-02
RMM:   7    -0.232319973465E+04    0.17569E-04   -0.15102E-04  3312   0.823E-03    0.479E-02
RMM:   8    -0.232319970643E+04    0.28222E-04   -0.41374E-05  2980   0.570E-03    0.946E-03
RMM:   9    -0.232319970572E+04    0.70946E-06   -0.69801E-06  2919   0.348E-03
  76 F= -.23445897E+04 E0= -.23445897E+04  d E =-.256467E-02  mag=     2.0000
       N       E                     dE             d eps       ncg     rms          rms(c)
DAV:   1    -0.232317392907E+04    0.25777E-01   -0.16762E+00  4512   0.121E+00    0.373E-01
RMM:   2    -0.232320176493E+04   -0.27836E-01   -0.28781E-01  6604   0.286E-01    0.300E-01
RMM:   3    -0.232320461334E+04   -0.28484E-02   -0.30860E-02  6161   0.101E-01    0.374E-01
RMM:   4    -0.232320327614E+04    0.13372E-02   -0.29297E-03  4898   0.239E-02    0.135E-01
RMM:   5    -0.232320319519E+04    0.80949E-04   -0.47271E-04  3479   0.106E-02    0.114E-01
RMM:   6    -0.232320306915E+04    0.12604E-03   -0.28074E-04  3835   0.105E-02    0.703E-02
RMM:   7    -0.232320306238E+04    0.67691E-05   -0.23788E-04  3765   0.962E-03    0.630E-02
RMM:   8    -0.232320301305E+04    0.49333E-04   -0.68703E-05  3074   0.661E-03    0.128E-02
RMM:   9    -0.232320301127E+04    0.17839E-05   -0.99744E-06  2927   0.398E-03
  77 F= -.23445923E+04 E0= -.23445923E+04  d E =-.256903E-02  mag=     2.0000
       N       E                     dE             d eps       ncg     rms          rms(c)
DAV:   1    -0.232311613052E+04    0.86883E-01   -0.51499E+00  4512   0.211E+00    0.656E-01
RMM:   2    -0.232320172884E+04   -0.85598E-01   -0.88622E-01  6600   0.504E-01    0.518E-01
RMM:   3    -0.232321069493E+04   -0.89661E-02   -0.97360E-02  6310   0.178E-01    0.644E-01
RMM:   4    -0.232320665475E+04    0.40402E-02   -0.90953E-03  6006   0.418E-02    0.244E-01
RMM:   5    -0.232320635970E+04    0.29505E-03   -0.14142E-03  4872   0.165E-02    0.197E-01
RMM:   6    -0.232320600521E+04    0.35449E-03   -0.86308E-04  4980   0.159E-02    0.127E-01
RMM:   7    -0.232320597356E+04    0.31647E-04   -0.73032E-04  4888   0.154E-02    0.114E-01
RMM:   8    -0.232320581189E+04    0.16167E-03   -0.22257E-04  4060   0.948E-03    0.251E-02
RMM:   9    -0.232320580363E+04    0.82672E-05   -0.29426E-05  2987   0.535E-03
  78 F= -.23445938E+04 E0= -.23445938E+04  d E =-.409031E-02  mag=     2.0000
       N       E                     dE             d eps       ncg     rms          rms(c)
DAV:   1    -0.232318171303E+04    0.24099E-01   -0.15265E+00  4544   0.112E+00    0.353E-01
RMM:   2    -0.232320770524E+04   -0.25992E-01   -0.26759E-01  6617   0.270E-01    0.309E-01
RMM:   3    -0.232321027531E+04   -0.25701E-02   -0.28293E-02  6148   0.936E-02    0.378E-01
RMM:   4    -0.232320896822E+04    0.13071E-02   -0.26194E-03  4574   0.227E-02    0.120E-01
RMM:   5    -0.232320891962E+04    0.48609E-04   -0.41807E-04  3411   0.100E-02    0.110E-01
RMM:   6    -0.232320879452E+04    0.12510E-03   -0.24807E-04  3585   0.983E-03    0.613E-02
RMM:   7    -0.232320879750E+04   -0.29798E-05   -0.19863E-04  3552   0.888E-03    0.592E-02
RMM:   8    -0.232320875547E+04    0.42030E-04   -0.62760E-05  3014   0.630E-03    0.124E-02
RMM:   9    -0.232320875398E+04    0.14913E-05   -0.90399E-06  2932   0.356E-03
  79 F= -.23445960E+04 E0= -.23445960E+04  d E =-.216243E-02  mag=     2.0000
       N       E                     dE             d eps       ncg     rms          rms(c)
DAV:   1    -0.232299892990E+04    0.20983E+00   -0.11993E+01  4512   0.315E+00    0.988E-01
RMM:   2    -0.232320347815E+04   -0.20455E+00   -0.21180E+00  6628   0.764E-01    0.799E-01
RMM:   3    -0.232322539846E+04   -0.21920E-01   -0.23214E-01  6364   0.266E-01    0.103E+00
RMM:   4    -0.232321526255E+04    0.10136E-01   -0.20617E-02  6401   0.635E-02    0.356E-01
RMM:   5    -0.232321466038E+04    0.60218E-03   -0.33900E-03  5618   0.236E-02    0.298E-01
[...]
RMM:   5    -0.232328997568E+04   -0.89273E-06   -0.11702E-05  2855   0.245E-03
 163 F= -.23446479E+04 E0= -.23446479E+04  d E =-.868670E-04  mag=     2.0000
       N       E                     dE             d eps       ncg     rms          rms(c)
DAV:   1    -0.232328997358E+04    0.12101E-05   -0.16772E-03  5056   0.431E-02    0.133E-02
RMM:   2    -0.232328999739E+04   -0.23807E-04   -0.23113E-04  4148   0.995E-03    0.153E-02
RMM:   3    -0.232328999794E+04   -0.55198E-06   -0.29430E-05  2833   0.517E-03
 164 F= -.23446479E+04 E0= -.23446479E+04  d E =-.873476E-04  mag=     2.0000
       N       E                     dE             d eps       ncg     rms          rms(c)
DAV:   1    -0.232328991832E+04    0.79064E-04   -0.15411E-02  4528   0.131E-01    0.395E-02
RMM:   2    -0.232329012341E+04   -0.20509E-03   -0.20397E-03  6235   0.287E-02    0.371E-02
RMM:   3    -0.232329013023E+04   -0.68185E-05   -0.19275E-04  2987   0.106E-02    0.322E-02
RMM:   4    -0.232329011698E+04    0.13250E-04   -0.23629E-05  2957   0.379E-03    0.142E-02
RMM:   5    -0.232329011786E+04   -0.88129E-06   -0.71663E-06  2851   0.213E-03
 165 F= -.23446480E+04 E0= -.23446480E+04  d E =-.773752E-04  mag=     2.0000
       N       E                     dE             d eps       ncg     rms          rms(c)
DAV:   1    -0.232329010607E+04    0.10908E-04   -0.27575E-03  4792   0.555E-02    0.177E-02
RMM:   2    -0.232329014437E+04   -0.38304E-04   -0.36290E-04  4802   0.126E-02    0.215E-02
RMM:   3    -0.232329014317E+04    0.12020E-05   -0.41421E-05  2913   0.573E-03
 166 F= -.23446480E+04 E0= -.23446480E+04  d E =-.844670E-04  mag=     2.0000
       N       E                     dE             d eps       ncg     rms          rms(c)
DAV:   1    -0.232329003758E+04    0.10679E-03   -0.18411E-02  4512   0.141E-01    0.425E-02
RMM:   2    -0.232329027420E+04   -0.23662E-03   -0.22636E-03  6227   0.301E-02    0.483E-02
RMM:   3    -0.232329027114E+04    0.30564E-05   -0.22251E-04  2989   0.113E-02    0.349E-02
RMM:   4    -0.232329025816E+04    0.12987E-04   -0.26954E-05  2966   0.392E-03    0.187E-02
RMM:   5    -0.232329025666E+04    0.15012E-05   -0.71486E-06  2820   0.208E-03
 167 F= -.23446481E+04 E0= -.23446481E+04  d E =-.635388E-04  mag=     2.0000
       N       E                     dE             d eps       ncg     rms          rms(c)
DAV:   1    -0.232329025343E+04    0.47267E-05   -0.16995E-03  4920   0.428E-02    0.129E-02
RMM:   2    -0.232329027347E+04   -0.20037E-04   -0.20549E-04  3986   0.957E-03    0.112E-02
RMM:   3    -0.232329027503E+04   -0.15618E-05   -0.23868E-05  2805   0.504E-03
 168 F= -.23446481E+04 E0= -.23446481E+04  d E =-.663452E-04  mag=     2.0000
       N       E                     dE             d eps       ncg     rms          rms(c)
DAV:   1    -0.232329018860E+04    0.84868E-04   -0.15858E-02  4512   0.130E-01    0.376E-02
RMM:   2    -0.232329038610E+04   -0.19750E-03   -0.19798E-03  6176   0.280E-02    0.340E-02
RMM:   3    -0.232329039387E+04   -0.77617E-05   -0.18757E-04  2975   0.105E-02    0.290E-02
RMM:   4    -0.232329038224E+04    0.11622E-04   -0.21718E-05  2955   0.359E-03    0.124E-02
RMM:   5    -0.232329038215E+04    0.89844E-07   -0.65560E-06  2840   0.210E-03
 169 F= -.23446482E+04 E0= -.23446482E+04  d E =-.616783E-04  mag=     2.0000
       N       E                     dE             d eps       ncg     rms          rms(c)
DAV:   1    -0.232329037006E+04    0.12181E-04   -0.31382E-03  4672   0.577E-02    0.187E-02
RMM:   2    -0.232329041640E+04   -0.46335E-04   -0.39257E-04  4902   0.129E-02    0.329E-02
RMM:   3    -0.232329040931E+04    0.70855E-05   -0.45923E-05  2913   0.572E-03
 170 F= -.23446482E+04 E0= -.23446482E+04  d E =-.684076E-04  mag=     2.0000
       N       E                     dE             d eps       ncg     rms          rms(c)
DAV:   1    -0.232329031665E+04    0.99750E-04   -0.15835E-02  4512   0.129E-01    0.392E-02
RMM:   2    -0.232329054854E+04   -0.23189E-03   -0.21105E-03  6175   0.281E-02    0.550E-02
RMM:   3    -0.232329052602E+04    0.22517E-04   -0.18785E-04  2979   0.100E-02    0.262E-02
RMM:   4    -0.232329051829E+04    0.77250E-05   -0.23055E-05  2978   0.353E-03
 171 F= -.23446482E+04 E0= -.23446482E+04  d E =-.625841E-04  mag=     2.0000
       N       E                     dE             d eps       ncg     rms          rms(c)
DAV:   1    -0.232329046630E+04    0.59719E-04   -0.76550E-03  4528   0.900E-02    0.294E-02
RMM:   2    -0.232329058156E+04   -0.11526E-03   -0.98270E-04  5893   0.194E-02    0.527E-02
RMM:   3    -0.232329056531E+04    0.16250E-04   -0.11291E-04  2939   0.770E-03    0.228E-02
RMM:   4    -0.232329056127E+04    0.40377E-05   -0.12103E-05  2946   0.268E-03
 172 F= -.23446482E+04 E0= -.23446482E+04  d E =-.731913E-04  mag=     2.0000
       N       E                     dE             d eps       ncg     rms          rms(c)
DAV:   1    -0.232329045624E+04    0.10907E-03   -0.18729E-02  4512   0.141E-01    0.395E-02
RMM:   2    -0.232329067986E+04   -0.22363E-03   -0.23295E-03  6295   0.301E-02    0.242E-02
RMM:   3    -0.232329070381E+04   -0.23952E-04   -0.25748E-04  2972   0.116E-02    0.371E-02
RMM:   4    -0.232329069155E+04    0.12263E-04   -0.25302E-05  2943   0.355E-03    0.124E-02
RMM:   5    -0.232329069043E+04    0.11243E-05   -0.76975E-06  2879   0.227E-03
 173 F= -.23446483E+04 E0= -.23446483E+04  d E =-.723902E-04  mag=     2.0000
       N       E                     dE             d eps       ncg     rms          rms(c)
DAV:   1    -0.232329065278E+04    0.38769E-04   -0.66220E-03  4592   0.841E-02    0.254E-02
RMM:   2    -0.232329074399E+04   -0.91207E-04   -0.84553E-04  5864   0.189E-02    0.360E-02
RMM:   3    -0.232329074130E+04    0.26913E-05   -0.97952E-05  2926   0.736E-03
 174 F= -.23446483E+04 E0= -.23446483E+04  d E =-.893936E-04  mag=     2.0000
       N       E                     dE             d eps       ncg     rms          rms(c)
DAV:   1    -0.232329060273E+04    0.14125E-03   -0.19823E-02  4512   0.145E-01    0.446E-02
RMM:   2    -0.232329088454E+04   -0.28181E-03   -0.26549E-03  6282   0.319E-02    0.536E-02
RMM:   3    -0.232329087599E+04    0.85515E-05   -0.26866E-04  2995   0.114E-02    0.323E-02
RMM:   4    -0.232329086346E+04    0.12528E-04   -0.30001E-05  2984   0.403E-03    0.171E-02
RMM:   5    -0.232329086364E+04   -0.17445E-06   -0.84810E-06  2806   0.229E-03
 175 F= -.23446484E+04 E0= -.23446484E+04  d E =-.660443E-04  mag=     2.0000
       N       E                     dE             d eps       ncg     rms          rms(c)
DAV:   1    -0.232329085842E+04    0.50429E-05   -0.20370E-03  4896   0.465E-02    0.183E-02
RMM:   2    -0.232329089566E+04   -0.37237E-04   -0.28109E-04  4283   0.108E-02    0.360E-02
RMM:   3    -0.232329088504E+04    0.10615E-04   -0.37724E-05  2896   0.548E-03    0.116E-02
RMM:   4    -0.232329088492E+04    0.12631E-06   -0.58298E-06  2687   0.177E-03
 176 F= -.23446484E+04 E0= -.23446484E+04  d E =-.689252E-04  mag=     2.0000
       N       E                     dE             d eps       ncg     rms          rms(c)
DAV:   1    -0.232329071227E+04    0.17277E-03   -0.19124E-02  4512   0.143E-01    0.427E-02
RMM:   2    -0.232329098357E+04   -0.27130E-03   -0.27682E-03  6316   0.318E-02    0.334E-02
RMM:   3    -0.232329100412E+04   -0.20551E-04   -0.27138E-04  2994   0.117E-02    0.348E-02
RMM:   4    -0.232329098851E+04    0.15612E-04   -0.29921E-05  2970   0.397E-03    0.142E-02
RMM:   5    -0.232329098884E+04   -0.33801E-06   -0.82438E-06  2842   0.244E-03
 177 F= -.23446485E+04 E0= -.23446485E+04  d E =-.702334E-04  mag=     2.0000
       N       E                     dE             d eps       ncg     rms          rms(c)
DAV:   1    -0.232329096751E+04    0.20994E-04   -0.25260E-03  4784   0.521E-02    0.175E-02
RMM:   2    -0.232329100902E+04   -0.41507E-04   -0.36974E-04  4744   0.124E-02    0.273E-02
RMM:   3    -0.232329100542E+04    0.36021E-05   -0.44738E-05  2911   0.574E-03
 178 F= -.23446485E+04 E0= -.23446485E+04  d E =-.744637E-04  mag=     2.0000
       N       E                     dE             d eps       ncg     rms          rms(c)
DAV:   1    -0.232329079723E+04    0.21179E-03   -0.20374E-02  4512   0.147E-01    0.470E-02
RMM:   2    -0.232329114258E+04   -0.34535E-03   -0.31604E-03  6333   0.333E-02    0.672E-02
RMM:   3    -0.232329111808E+04    0.24503E-04   -0.31676E-04  3012   0.123E-02    0.353E-02
RMM:   4    -0.232329110756E+04    0.10521E-04   -0.37274E-05  2977   0.421E-03    0.221E-02
RMM:   5    -0.232329110450E+04    0.30618E-05   -0.85910E-06  2826   0.218E-03
 179 F= -.23446485E+04 E0= -.23446485E+04  d E =-.677413E-04  mag=     2.0000
       N       E                     dE             d eps       ncg     rms          rms(c)
DAV:   1    -0.232329109403E+04    0.13532E-04   -0.12666E-03  4880   0.367E-02    0.119E-02
RMM:   2    -0.232329111350E+04   -0.19472E-04   -0.19497E-04  3776   0.883E-03    0.119E-02
RMM:   3    -0.232329111418E+04   -0.67757E-06   -0.23412E-05  2736   0.493E-03
 180 F= -.23446485E+04 E0= -.23446485E+04  d E =-.693816E-04  mag=     2.0000
       N       E                     dE             d eps       ncg     rms          rms(c)
DAV:   1    -0.232329095689E+04    0.15660E-03   -0.17227E-02  4512   0.135E-01    0.424E-02
RMM:   2    -0.232329122346E+04   -0.26657E-03   -0.26629E-03  6323   0.311E-02    0.392E-02
RMM:   3    -0.232329123654E+04   -0.13080E-04   -0.26320E-04  2991   0.117E-02    0.344E-02
RMM:   4    -0.232329122033E+04    0.16218E-04   -0.28561E-05  2966   0.402E-03    0.132E-02
RMM:   5    -0.232329122130E+04   -0.97841E-06   -0.85664E-06  2851   0.228E-03
 181 F= -.23446486E+04 E0= -.23446486E+04  d E =-.629451E-04  mag=     2.0000
       N       E                     dE             d eps       ncg     rms          rms(c)
DAV:   1    -0.232329121739E+04    0.29340E-05   -0.85639E-04  4896   0.301E-02    0.108E-02
RMM:   2    -0.232329123251E+04   -0.15123E-04   -0.13482E-04  3454   0.751E-03    0.164E-02
RMM:   3    -0.232329123107E+04    0.14395E-05   -0.18321E-05  2601   0.462E-03
 182 F= -.23446486E+04 E0= -.23446486E+04  d E =-.627004E-04  mag=     2.0000
       N       E                     dE             d eps       ncg     rms          rms(c)
DAV:   1    -0.232329104768E+04    0.18483E-03   -0.17822E-02  4512   0.136E-01    0.445E-02
RMM:   2    -0.232329136448E+04   -0.31680E-03   -0.29512E-03  6287   0.315E-02    0.610E-02
RMM:   3    -0.232329134671E+04    0.17768E-04   -0.29604E-04  2996   0.120E-02    0.330E-02
RMM:   4    -0.232329133618E+04    0.10527E-04   -0.33552E-05  2976   0.400E-03    0.195E-02
RMM:   5    -0.232329133392E+04    0.22666E-05   -0.71084E-06  2773   0.201E-03
 183 F= -.23446487E+04 E0= -.23446487E+04  d E =-.608090E-04  mag=     2.0000
       N       E                     dE             d eps       ncg     rms          rms(c)
DAV:   1    -0.232329132918E+04    0.70009E-05   -0.82662E-04  4992   0.293E-02    0.104E-02
RMM:   2    -0.232329134354E+04   -0.14353E-04   -0.13940E-04  3456   0.733E-03    0.126E-02
RMM:   3    -0.232329134296E+04    0.57786E-06   -0.17696E-05  2569   0.449E-03
 184 F= -.23446487E+04 E0= -.23446487E+04  d E =-.604860E-04  mag=     2.0000
       N       E                     dE             d eps       ncg     rms          rms(c)
DAV:   1    -0.232329117901E+04    0.16453E-03   -0.15598E-02  4512   0.125E-01    0.395E-02
RMM:   2    -0.232329144640E+04   -0.26740E-03   -0.26851E-03  6264   0.296E-02    0.368E-02
RMM:   3    -0.232329146021E+04   -0.13802E-04   -0.27021E-04  2980   0.113E-02    0.311E-02
RMM:   4    -0.232329144737E+04    0.12839E-04   -0.28782E-05  2967   0.375E-03    0.126E-02
RMM:   5    -0.232329144712E+04    0.24802E-06   -0.62553E-06  2791   0.200E-03
 185 F= -.23446487E+04 E0= -.23446487E+04  d E =-.512268E-04  mag=     2.0000
       N       E                     dE             d eps       ncg     rms          rms(c)
DAV:   1    -0.232329143349E+04    0.13874E-04   -0.20695E-03  4672   0.456E-02    0.158E-02
RMM:   2    -0.232329147378E+04   -0.40290E-04   -0.35790E-04  4400   0.113E-02    0.268E-02
RMM:   3    -0.232329146998E+04    0.38010E-05   -0.43544E-05  2865   0.561E-03
 186 F= -.23446487E+04 E0= -.23446487E+04  d E =-.546125E-04  mag=     2.0000
       N       E                     dE             d eps       ncg     rms          rms(c)
DAV:   1    -0.232329129387E+04    0.17991E-03   -0.17575E-02  4512   0.131E-01    0.443E-02
RMM:   2    -0.232329161809E+04   -0.32422E-03   -0.30432E-03  6265   0.312E-02    0.584E-02
RMM:   3    -0.232329160555E+04    0.12541E-04   -0.31408E-04  2987   0.122E-02    0.321E-02
RMM:   4    -0.232329159435E+04    0.11198E-04   -0.34114E-05  2988   0.396E-03    0.187E-02
RMM:   5    -0.232329159310E+04    0.12549E-05   -0.69589E-06  2793   0.196E-03
 187 F= -.23446488E+04 E0= -.23446488E+04  d E =-.522032E-04  mag=     2.0000
       N       E                     dE             d eps       ncg     rms          rms(c)
DAV:   1    -0.232329159532E+04   -0.97058E-06   -0.27257E-04  5128   0.165E-02    0.666E-03
RMM:   2    -0.232329160037E+04   -0.50421E-05   -0.50389E-05  2838   0.435E-03
 188 F= -.23446488E+04 E0= -.23446488E+04  d E =-.501716E-04  mag=     2.0000
       N       E                     dE             d eps       ncg     rms          rms(c)
DAV:   1    -0.232329148505E+04    0.11028E-03   -0.13389E-02  4512   0.113E-01    0.375E-02
RMM:   2    -0.232329171731E+04   -0.23226E-03   -0.23478E-03  6216   0.278E-02    0.338E-02
RMM:   3    -0.232329173339E+04   -0.16084E-04   -0.25404E-04  2974   0.109E-02    0.308E-02
RMM:   4    -0.232329172088E+04    0.12506E-04   -0.24832E-05  2961   0.358E-03    0.120E-02
RMM:   5    -0.232329172094E+04   -0.56112E-07   -0.68317E-06  2823   0.207E-03
 189 F= -.23446488E+04 E0= -.23446488E+04  d E =-.451729E-04  mag=     2.0000
       N       E                     dE             d eps       ncg     rms          rms(c)
DAV:   1    -0.232329172483E+04   -0.39486E-05   -0.13082E-04  5144   0.112E-02    0.798E-03
RMM:   2    -0.232329173319E+04   -0.83523E-05   -0.29599E-05  2701   0.316E-03
 190 F= -.23446488E+04 E0= -.23446488E+04  d E =-.499975E-04  mag=     2.0000
       N       E                     dE             d eps       ncg     rms          rms(c)
DAV:   1    -0.232329163135E+04    0.93483E-04   -0.11251E-02  4512   0.104E-01    0.349E-02
RMM:   2    -0.232329182858E+04   -0.19723E-03   -0.20219E-03  6148   0.261E-02    0.280E-02
RMM:   3    -0.232329184574E+04   -0.17155E-04   -0.20840E-04  2952   0.101E-02    0.304E-02
RMM:   4    -0.232329183505E+04    0.10684E-04   -0.22018E-05  2951   0.338E-03    0.119E-02
RMM:   5    -0.232329183532E+04   -0.27081E-06   -0.49983E-06  2740   0.172E-03
 191 F= -.23446488E+04 E0= -.23446488E+04  d E =-.389192E-04  mag=     2.0000
       N       E                     dE             d eps       ncg     rms          rms(c)
DAV:   1    -0.232329182500E+04    0.10049E-04   -0.24468E-03  4528   0.485E-02    0.168E-02
RMM:   2    -0.232329186898E+04   -0.43975E-04   -0.43220E-04  4548   0.120E-02    0.186E-02
RMM:   3    -0.232329187029E+04   -0.13079E-05   -0.49835E-05  2890   0.581E-03
 192 F= -.23446489E+04 E0= -.23446489E+04  d E =-.441334E-04  mag=     2.0000
       N       E                     dE             d eps       ncg     rms          rms(c)
DAV:   1    -0.232329176989E+04    0.99092E-04   -0.97116E-03  4512   0.936E-02    0.316E-02
RMM:   2    -0.232329195600E+04   -0.18611E-03   -0.18334E-03  6022   0.234E-02    0.355E-02
RMM:   3    -0.232329196299E+04   -0.69964E-05   -0.19524E-04  2936   0.926E-03    0.272E-02
RMM:   4    -0.232329195636E+04    0.66280E-05   -0.21351E-05  2945   0.302E-03
 193 F= -.23446489E+04 E0= -.23446489E+04  d E =-.387761E-04  mag=     2.0000
       N       E                     dE             d eps       ncg     rms          rms(c)
DAV:   1    -0.232329195080E+04    0.12197E-04   -0.15234E-03  4592   0.371E-02    0.155E-02
RMM:   2    -0.232329198456E+04   -0.33768E-04   -0.27792E-04  3932   0.924E-03    0.293E-02
RMM:   3    -0.232329197907E+04    0.54984E-05   -0.35827E-05  2780   0.525E-03
 194 F= -.23446489E+04 E0= -.23446489E+04  d E =-.426881E-04  mag=     2.0000
       N       E                     dE             d eps       ncg     rms          rms(c)
DAV:   1    -0.232329188711E+04    0.97452E-04   -0.10066E-02  4512   0.976E-02    0.331E-02
RMM:   2    -0.232329205826E+04   -0.17115E-03   -0.17365E-03  6126   0.238E-02    0.292E-02
RMM:   3    -0.232329207066E+04   -0.12396E-04   -0.18229E-04  2936   0.948E-03    0.285E-02
RMM:   4    -0.232329206097E+04    0.96870E-05   -0.19620E-05  2948   0.311E-03
 195 F= -.23446489E+04 E0= -.23446489E+04  d E =-.411978E-04  mag=     2.0000
       N       E                     dE             d eps       ncg     rms          rms(c)
DAV:   1    -0.232329206535E+04    0.53080E-05   -0.25936E-04  5096   0.156E-02    0.171E-02
RMM:   2    -0.232329210347E+04   -0.38120E-04   -0.81031E-05  3075   0.470E-03    0.606E-02
RMM:   3    -0.232329206729E+04    0.36179E-04   -0.23765E-05  2561   0.359E-03    0.613E-03
RMM:   4    -0.232329206713E+04    0.15864E-06   -0.36551E-06  1500   0.105E-03
 196 F= -.23446489E+04 E0= -.23446489E+04  d E =-.408355E-04  mag=     2.0000
       N       E                     dE             d eps       ncg     rms          rms(c)
DAV:   1    -0.232329203045E+04    0.36847E-04   -0.64542E-03  4528   0.778E-02    0.277E-02
RMM:   2    -0.232329214715E+04   -0.11671E-03   -0.11410E-03  5878   0.187E-02    0.306E-02
RMM:   3    -0.232329214929E+04   -0.21324E-05   -0.11950E-04  2935   0.759E-03    0.225E-02
RMM:   4    -0.232329214304E+04    0.62404E-05   -0.12055E-05  2840   0.255E-03
 197 F= -.23446490E+04 E0= -.23446490E+04  d E =-.280895E-04  mag=     2.0000
       N       E                     dE             d eps       ncg     rms          rms(c)
DAV:   1    -0.232329214934E+04   -0.56782E-07   -0.24217E-04  5008   0.151E-02    0.119E-02
RMM:   2    -0.232329216546E+04   -0.16118E-04   -0.56129E-05  2923   0.408E-03    0.370E-02
RMM:   3    -0.232329215256E+04    0.12898E-04   -0.11054E-05  2404   0.283E-03    0.520E-03
RMM:   4    -0.232329215239E+04    0.17002E-06   -0.14033E-06  1280   0.874E-04
 198 F= -.23446490E+04 E0= -.23446490E+04  d E =-.281881E-04  mag=     2.0000
       N       E                     dE             d eps       ncg     rms          rms(c)
DAV:   1    -0.232329212404E+04    0.28526E-04   -0.63567E-03  4528   0.790E-02    0.282E-02
RMM:   2    -0.232329223493E+04   -0.11089E-03   -0.10763E-03  5953   0.186E-02    0.312E-02
RMM:   3    -0.232329223580E+04   -0.87207E-06   -0.11715E-04  2939   0.767E-03    0.220E-02
RMM:   4    -0.232329222922E+04    0.65787E-05   -0.11283E-05  2853   0.255E-03
 199 F= -.23446490E+04 E0= -.23446490E+04  d E =-.308230E-04  mag=     2.0000
       N       E                     dE             d eps       ncg     rms          rms(c)
DAV:   1    -0.232329223596E+04   -0.16531E-06   -0.59132E-04  4832   0.241E-02    0.148E-02
RMM:   2    -0.232329226407E+04   -0.28110E-04   -0.11685E-04  3223   0.613E-03    0.453E-02
RMM:   3    -0.232329224472E+04    0.19357E-04   -0.18734E-05  2591   0.386E-03    0.605E-03
RMM:   4    -0.232329224417E+04    0.54651E-06   -0.21208E-06  1944   0.119E-03
 200 F= -.23446490E+04 E0= -.23446490E+04  d E =-.316366E-04  mag=     2.0000
       N       E                     dE             d eps       ncg     rms          rms(c)
DAV:   1    -0.232329220422E+04    0.40498E-04   -0.57992E-03  4480   0.715E-02    0.253E-02
RMM:   2    -0.232329231553E+04   -0.11132E-03   -0.10617E-03  5601   0.174E-02    0.322E-02
RMM:   3    -0.232329231257E+04    0.29675E-05   -0.11031E-04  2934   0.697E-03    0.177E-02
RMM:   4    -0.232329230845E+04    0.41138E-05   -0.10794E-05  2709   0.234E-03
 201 F= -.23446490E+04 E0= -.23446490E+04  d E =-.227186E-04  mag=     2.0000
