       N       E                     dE             d eps       ncg     rms          rms(c)
DAV:   1     0.132188873320E+05    0.13219E+05   -0.85271E+05  4560   0.145E+03
DAV:   2    -0.104562494903E+04   -0.14265E+05   -0.13656E+05  4960   0.331E+02
DAV:   3    -0.250048995596E+04   -0.14549E+04   -0.14385E+04  5480   0.114E+02
DAV:   4    -0.254296567633E+04   -0.42476E+02   -0.42221E+02  6680   0.272E+01
DAV:   5    -0.254385032345E+04   -0.88465E+00   -0.88234E+00  5780   0.324E+00    0.171E+02
RMM:   6    -0.150551272037E+04    0.10383E+04   -0.19697E+03  4519   0.384E+01    0.729E+01
RMM:   7    -0.168296731307E+04   -0.17745E+03   -0.28892E+02  5191   0.146E+01    0.548E+01
RMM:   8    -0.172780578139E+04   -0.44838E+02   -0.85767E+01  5367   0.849E+00    0.456E+01
RMM:   9    -0.178799002985E+04   -0.60184E+02   -0.57545E+01  5101   0.707E+00    0.418E+01
RMM:  10    -0.186055167632E+04   -0.72562E+02   -0.55393E+01  5194   0.732E+00    0.311E+01
RMM:  11    -0.197592131527E+04   -0.11537E+03   -0.48735E+01  5150   0.645E+00    0.256E+01
RMM:  12    -0.202378566222E+04   -0.47864E+02   -0.17147E+01  5157   0.371E+00    0.220E+01
RMM:  13    -0.210871333431E+04   -0.84928E+02   -0.35755E+01  4976   0.464E+00    0.170E+01
RMM:  14    -0.217641622755E+04   -0.67703E+02   -0.32483E+01  5175   0.452E+00    0.123E+01
RMM:  15    -0.225656415898E+04   -0.80148E+02   -0.64961E+01  4619   0.552E+00    0.887E+00
RMM:  16    -0.231532253103E+04   -0.58758E+02   -0.53095E+01  4668   0.523E+00    0.594E+00
RMM:  17    -0.232767152707E+04   -0.12349E+02   -0.13052E+01  4781   0.306E+00    0.382E+00
RMM:  18    -0.233336123242E+04   -0.56897E+01   -0.55356E+00  4704   0.148E+00    0.199E+00
RMM:  19    -0.233497498034E+04   -0.16137E+01   -0.91204E-01  4868   0.997E-01    0.111E+00
RMM:  20    -0.233569953806E+04   -0.72456E+00   -0.33156E-01  4967   0.384E-01    0.832E-01
RMM:  21    -0.233594331644E+04   -0.24378E+00   -0.79474E-02  4908   0.309E-01    0.384E-01
RMM:  22    -0.233601990592E+04   -0.76589E-01   -0.22295E-02  4781   0.124E-01    0.235E-01
RMM:  23    -0.233608572585E+04   -0.65820E-01   -0.11721E-02  4536   0.996E-02    0.149E-01
RMM:  24    -0.233612537595E+04   -0.39650E-01   -0.91786E-03  4516   0.717E-02    0.100E-01
RMM:  25    -0.233614762236E+04   -0.22246E-01   -0.63953E-03  4563   0.640E-02    0.616E-02
RMM:  26    -0.233615719534E+04   -0.95730E-02   -0.34062E-03  4708   0.453E-02    0.439E-02
RMM:  27    -0.233616145967E+04   -0.42643E-02   -0.14999E-03  4574   0.301E-02    0.203E-02
RMM:  28    -0.233616250324E+04   -0.10436E-02   -0.36774E-04  4227   0.168E-02    0.142E-02
RMM:  29    -0.233616300166E+04   -0.49842E-03   -0.12046E-04  3846   0.899E-03    0.830E-03
RMM:  30    -0.233616330333E+04   -0.30166E-03   -0.60978E-05  3629   0.712E-03    0.487E-03
RMM:  31    -0.233616340619E+04   -0.10286E-03   -0.22690E-05  3152   0.453E-03    0.262E-03
RMM:  32    -0.233616345427E+04   -0.48083E-04   -0.10422E-05  2923   0.344E-03    0.184E-03
RMM:  33    -0.233616347204E+04   -0.17766E-04   -0.59235E-06  2780   0.273E-03    0.111E-03
RMM:  34    -0.233616347654E+04   -0.45034E-05   -0.30301E-06  2447   0.209E-03
   1 F= -.23577513E+04 E0= -.23577505E+04  d E =-.161058E-02  mag=     5.9833
       N       E                     dE             d eps       ncg     rms          rms(c)
DAV:   1    -0.233614682874E+04    0.16643E-01   -0.18875E+00  4680   0.573E-01    0.297E-01
RMM:   2    -0.233614799983E+04   -0.11711E-02   -0.25438E-02  5069   0.708E-02    0.196E-01
RMM:   3    -0.233614767946E+04    0.32037E-03   -0.23866E-03  4719   0.274E-02    0.151E-01
RMM:   4    -0.233614766617E+04    0.13289E-04   -0.13060E-03  4733   0.170E-02    0.146E-01
RMM:   5    -0.233614736948E+04    0.29669E-03   -0.30358E-04  3557   0.108E-02    0.245E-02
RMM:   6    -0.233614737669E+04   -0.72135E-05   -0.77071E-05  3159   0.516E-03
   2 F= -.23577355E+04 E0= -.23577349E+04  d E =-.114560E-02  mag=     5.9861
       N       E                     dE             d eps       ncg     rms          rms(c)
DAV:   1    -0.233615335804E+04   -0.59886E-02   -0.74723E+00  4560   0.110E+00    0.587E-01
RMM:   2    -0.233615904620E+04   -0.56882E-02   -0.10810E-01  5297   0.151E-01    0.397E-01
RMM:   3    -0.233615766827E+04    0.13779E-02   -0.94183E-03  5019   0.603E-02    0.297E-01
RMM:   4    -0.233615784051E+04   -0.17224E-03   -0.53728E-03  5471   0.343E-02    0.304E-01
RMM:   5    -0.233615652402E+04    0.13165E-02   -0.13511E-03  4718   0.220E-02    0.509E-02
RMM:   6    -0.233615656047E+04   -0.36444E-04   -0.29668E-04  3607   0.828E-03    0.724E-02
RMM:   7    -0.233615651722E+04    0.43243E-04   -0.93774E-05  3130   0.612E-03    0.291E-02
RMM:   8    -0.233615651874E+04   -0.15181E-05   -0.21929E-05  3003   0.354E-03
   3 F= -.23577444E+04 E0= -.23577432E+04  d E =-.228591E-02  mag=     5.9787
       N       E                     dE             d eps       ncg     rms          rms(c)
DAV:   1    -0.233612995593E+04    0.26561E-01   -0.38491E+00  4500   0.856E-01    0.427E-01
RMM:   2    -0.233613252804E+04   -0.25721E-02   -0.47101E-02  5120   0.970E-02    0.288E-01
RMM:   3    -0.233613296018E+04   -0.43215E-03   -0.57386E-03  4959   0.477E-02    0.350E-01
RMM:   4    -0.233613136163E+04    0.15986E-02   -0.25692E-03  5105   0.247E-02    0.121E-01
RMM:   5    -0.233613119481E+04    0.16682E-03   -0.46702E-04  4018   0.128E-02    0.606E-02
RMM:   6    -0.233613118244E+04    0.12372E-04   -0.15501E-04  3245   0.740E-03    0.460E-02
RMM:   7    -0.233613115665E+04    0.25790E-04   -0.28649E-05  2980   0.436E-03    0.156E-02
RMM:   8    -0.233613115793E+04   -0.12855E-05   -0.15938E-05  2955   0.314E-03
   4 F= -.23577192E+04 E0= -.23577179E+04  d E =-.266308E-02  mag=     5.9713
       N       E                     dE             d eps       ncg     rms          rms(c)
DAV:   1    -0.233615774007E+04   -0.26583E-01   -0.76412E+00  4520   0.120E+00    0.657E-01
RMM:   2    -0.233616636785E+04   -0.86278E-02   -0.12542E-01  4707   0.151E-01    0.463E-01
RMM:   3    -0.233616545548E+04    0.91236E-03   -0.13298E-02  4913   0.773E-02    0.457E-01
RMM:   4    -0.233616376624E+04    0.16892E-02   -0.73772E-03  5337   0.390E-02    0.277E-01
RMM:   5    -0.233616261313E+04    0.11531E-02   -0.10825E-03  4610   0.207E-02    0.551E-02
RMM:   6    -0.233616267365E+04   -0.60517E-04   -0.33822E-04  3599   0.923E-03    0.896E-02
RMM:   7    -0.233616259288E+04    0.80760E-04   -0.89929E-05  3051   0.609E-03    0.235E-02
RMM:   8    -0.233616259570E+04   -0.28166E-05   -0.35379E-05  3043   0.375E-03
   5 F= -.23577502E+04 E0= -.23577497E+04  d E =-.975609E-03  mag=     5.9858
       N       E                     dE             d eps       ncg     rms          rms(c)
DAV:   1    -0.233615379016E+04    0.88027E-02   -0.36632E+00  4480   0.833E-01    0.366E-01
RMM:   2    -0.233615615643E+04   -0.23663E-02   -0.28948E-02  4442   0.768E-02    0.242E-01
RMM:   3    -0.233615679120E+04   -0.63477E-03   -0.39946E-03  4426   0.390E-02    0.298E-01
RMM:   4    -0.233615574284E+04    0.10484E-02   -0.14723E-03  4694   0.188E-02    0.952E-02
RMM:   5    -0.233615569040E+04    0.52433E-04   -0.20924E-04  3299   0.869E-03    0.348E-02
RMM:   6    -0.233615569589E+04   -0.54875E-05   -0.64246E-05  2999   0.509E-03
   6 F= -.23577436E+04 E0= -.23577429E+04  d E =-.142985E-02  mag=     5.9851
       N       E                     dE             d eps       ncg     rms          rms(c)
DAV:   1    -0.233613129215E+04    0.24398E-01   -0.76711E+00  4520   0.123E+00    0.682E-01
RMM:   2    -0.233613853747E+04   -0.72453E-02   -0.13070E-01  5098   0.157E-01    0.475E-01
RMM:   3    -0.233613635882E+04    0.21786E-02   -0.12438E-02  5034   0.696E-02    0.399E-01
RMM:   4    -0.233613570598E+04    0.65284E-03   -0.75143E-03  5656   0.407E-02    0.347E-01
RMM:   5    -0.233613390649E+04    0.17995E-02   -0.15700E-03  4825   0.241E-02    0.664E-02
RMM:   6    -0.233613390113E+04    0.53618E-05   -0.32892E-04  3563   0.920E-03    0.734E-02
RMM:   7    -0.233613383743E+04    0.63701E-04   -0.10532E-04  3234   0.626E-03    0.240E-02
RMM:   8    -0.233613383171E+04    0.57189E-05   -0.32565E-05  3029   0.383E-03
   7 F= -.23577216E+04 E0= -.23577206E+04  d E =-.186286E-02  mag=     5.9814
       N       E                     dE             d eps       ncg     rms          rms(c)
DAV:   1    -0.233612502436E+04    0.88131E-02   -0.61386E+00  4520   0.105E+00    0.516E-01
RMM:   2    -0.233613116792E+04   -0.61436E-02   -0.90000E-02  4889   0.124E-01    0.308E-01
RMM:   3    -0.233613026476E+04    0.90317E-03   -0.66862E-03  4496   0.566E-02    0.275E-01
RMM:   4    -0.233613008209E+04    0.18267E-03   -0.27279E-03  4916   0.247E-02    0.236E-01
RMM:   5    -0.233612950272E+04    0.57936E-03   -0.83631E-04  4356   0.155E-02    0.853E-02
RMM:   6    -0.233612948524E+04    0.17480E-04   -0.30353E-04  3364   0.101E-02    0.763E-02
RMM:   7    -0.233612942129E+04    0.63952E-04   -0.72439E-05  3104   0.558E-03    0.144E-02
RMM:   8    -0.233612942262E+04   -0.13253E-05   -0.14554E-05  2892   0.270E-03
   8 F= -.23577181E+04 E0= -.23577175E+04  d E =-.137365E-02  mag=     5.9847
       N       E                     dE             d eps       ncg     rms          rms(c)
DAV:   1    -0.233616084913E+04   -0.31428E-01   -0.20181E+01  4520   0.182E+00    0.759E-01
RMM:   2    -0.233617796056E+04   -0.17111E-01   -0.23517E-01  4732   0.199E-01    0.438E-01
RMM:   3    -0.233617937723E+04   -0.14167E-02   -0.26857E-02  5286   0.925E-02    0.573E-01
RMM:   4    -0.233617525583E+04    0.41214E-02   -0.71224E-03  5616   0.388E-02    0.184E-01
RMM:   5    -0.233617496758E+04    0.28825E-03   -0.12632E-03  4683   0.197E-02    0.143E-01
RMM:   6    -0.233617483277E+04    0.13481E-03   -0.58745E-04  3904   0.122E-02    0.821E-02
RMM:   7    -0.233617477296E+04    0.59812E-04   -0.95345E-05  3145   0.655E-03    0.259E-02
RMM:   8    -0.233617478344E+04   -0.10486E-04   -0.52951E-05  3079   0.463E-03    0.374E-02
RMM:   9    -0.233617476410E+04    0.19341E-04   -0.24828E-05  2953   0.401E-03    0.961E-03
RMM:  10    -0.233617476214E+04    0.19648E-05   -0.82558E-06  2931   0.266E-03
   9 F= -.23577617E+04 E0= -.23577607E+04  d E =-.186849E-02  mag=     5.9807
       N       E                     dE             d eps       ncg     rms          rms(c)
DAV:   1    -0.233614505100E+04    0.29713E-01   -0.10237E+01  4520   0.114E+00    0.422E-01
RMM:   2    -0.233615277386E+04   -0.77229E-02   -0.93098E-02  4222   0.122E-01    0.220E-01
RMM:   3    -0.233615292625E+04   -0.15240E-03   -0.87715E-03  4255   0.544E-02    0.209E-01
RMM:   4    -0.233615271379E+04    0.21246E-03   -0.22742E-03  4713   0.209E-02    0.144E-01
RMM:   5    -0.233615248968E+04    0.22411E-03   -0.48080E-04  3775   0.127E-02    0.538E-02
RMM:   6    -0.233615250108E+04   -0.11393E-04   -0.14474E-04  3120   0.712E-03    0.495E-02
RMM:   7    -0.233615248018E+04    0.20893E-04   -0.32999E-05  2896   0.430E-03    0.133E-02
RMM:   8    -0.233615248366E+04   -0.34783E-05   -0.12877E-05  2820   0.238E-03
  10 F= -.23577399E+04 E0= -.23577392E+04  d E =-.139619E-02  mag=     5.9842
       N       E                     dE             d eps       ncg     rms          rms(c)
DAV:   1    -0.233615455227E+04   -0.20721E-02   -0.20337E+01  4560   0.163E+00    0.551E-01
RMM:   2    -0.233616840852E+04   -0.13856E-01   -0.17055E-01  4327   0.168E-01    0.287E-01
RMM:   3    -0.233616783187E+04    0.57666E-03   -0.13908E-02  4130   0.772E-02    0.244E-01
RMM:   4    -0.233616788086E+04   -0.48990E-04   -0.39408E-03  4977   0.270E-02    0.232E-01
RMM:   5    -0.233616726379E+04    0.61707E-03   -0.11279E-03  4267   0.184E-02    0.680E-02
RMM:   6    -0.233616727970E+04   -0.15912E-04   -0.23900E-04  3292   0.918E-03    0.607E-02
RMM:   7    -0.233616724328E+04    0.36421E-04   -0.58799E-05  3046   0.542E-03    0.203E-02
RMM:   8    -0.233616724406E+04   -0.77879E-06   -0.19923E-05  2948   0.289E-03
  11 F= -.23577554E+04 E0= -.23577545E+04  d E =-.179018E-02  mag=     5.9818
       N       E                     dE             d eps       ncg     rms          rms(c)
DAV:   1    -0.233611858435E+04    0.48659E-01   -0.99303E+00  4480   0.121E+00    0.392E-01
RMM:   2    -0.233612606688E+04   -0.74825E-02   -0.94188E-02  4724   0.126E-01    0.238E-01
RMM:   3    -0.233612587069E+04    0.19619E-03   -0.84366E-03  4596   0.507E-02    0.286E-01
RMM:   4    -0.233612521782E+04    0.65287E-03   -0.22420E-03  4476   0.202E-02    0.133E-01
RMM:   5    -0.233612508464E+04    0.13318E-03   -0.66517E-04  3717   0.122E-02    0.405E-02
RMM:   6    -0.233612510189E+04   -0.17255E-04   -0.11586E-04  3087   0.743E-03    0.477E-02
RMM:   7    -0.233612507614E+04    0.25749E-04   -0.37218E-05  2895   0.399E-03    0.172E-02
RMM:   8    -0.233612507577E+04    0.37067E-06   -0.79156E-06  2737   0.227E-03
  12 F= -.23577135E+04 E0= -.23577123E+04  d E =-.239967E-02  mag=     5.9761
       N       E                     dE             d eps       ncg     rms          rms(c)
DAV:   1    -0.233617787646E+04   -0.52800E-01   -0.19926E+01  4500   0.176E+00    0.737E-01
RMM:   2    -0.233618812207E+04   -0.10246E-01   -0.19471E-01  4560   0.195E-01    0.442E-01
RMM:   3    -0.233618982853E+04   -0.17065E-02   -0.23472E-02  5189   0.863E-02    0.631E-01
RMM:   4    -0.233618559921E+04    0.42293E-02   -0.77138E-03  5478   0.385E-02    0.179E-01
RMM:   5    -0.233618547202E+04    0.12719E-03   -0.14742E-03  4470   0.179E-02    0.122E-01
RMM:   6    -0.233618540105E+04    0.70976E-04   -0.50698E-04  3426   0.121E-02    0.807E-02
RMM:   7    -0.233618532682E+04    0.74230E-04   -0.78200E-05  3129   0.589E-03    0.220E-02
RMM:   8    -0.233618532564E+04    0.11803E-05   -0.36306E-05  3085   0.385E-03
  13 F= -.23577726E+04 E0= -.23577720E+04  d E =-.112388E-02  mag=     5.9849
       N       E                     dE             d eps       ncg     rms          rms(c)
DAV:   1    -0.233615621407E+04    0.29113E-01   -0.10065E+01  4560   0.123E+00    0.473E-01
RMM:   2    -0.233616645976E+04   -0.10246E-01   -0.12423E-01  5008   0.142E-01    0.280E-01
RMM:   3    -0.233616636113E+04    0.98622E-04   -0.10210E-02  4982   0.579E-02    0.343E-01
RMM:   4    -0.233616534132E+04    0.10198E-02   -0.27976E-03  4794   0.233E-02    0.148E-01
RMM:   5    -0.233616523579E+04    0.10553E-03   -0.83286E-04  3834   0.134E-02    0.711E-02
RMM:   6    -0.233616522096E+04    0.14831E-04   -0.21552E-04  3177   0.928E-03    0.573E-02
RMM:   7    -0.233616518139E+04    0.39572E-04   -0.50258E-05  2935   0.462E-03    0.173E-02
RMM:   8    -0.233616518364E+04   -0.22528E-05   -0.15456E-05  2781   0.260E-03
  14 F= -.23577528E+04 E0= -.23577519E+04  d E =-.184728E-02  mag=     5.9820
       N       E                     dE             d eps       ncg     rms          rms(c)
DAV:   1    -0.233614611905E+04    0.19062E-01   -0.20505E+01  4480   0.169E+00    0.575E-01
RMM:   2    -0.233615746748E+04   -0.11348E-01   -0.15055E-01  4405   0.165E-01    0.324E-01
RMM:   3    -0.233615619389E+04    0.12736E-02   -0.10583E-02  4218   0.695E-02    0.194E-01
RMM:   4    -0.233615707542E+04   -0.88153E-03   -0.43176E-03  4949   0.295E-02    0.261E-01
RMM:   5    -0.233615620989E+04    0.86553E-03   -0.10401E-03  4177   0.198E-02    0.579E-02
RMM:   6    -0.233615622088E+04   -0.10990E-04   -0.18966E-04  3348   0.725E-03    0.589E-02
RMM:   7    -0.233615619241E+04    0.28473E-04   -0.65371E-05  2969   0.510E-03    0.249E-02
RMM:   8    -0.233615619077E+04    0.16412E-05   -0.15123E-05  2833   0.283E-03
  15 F= -.23577442E+04 E0= -.23577435E+04  d E =-.139200E-02  mag=     5.9845
       N       E                     dE             d eps       ncg     rms          rms(c)
DAV:   1    -0.233613899306E+04    0.17199E-01   -0.10258E+01  4480   0.124E+00    0.470E-01
RMM:   2    -0.233614737471E+04   -0.83816E-02   -0.10349E-01  4166   0.130E-01    0.257E-01
RMM:   3    -0.233614696524E+04    0.40947E-03   -0.84242E-03  3984   0.645E-02    0.175E-01
RMM:   4    -0.233614736618E+04   -0.40095E-03   -0.29301E-03  5119   0.241E-02    0.211E-01
RMM:   5    -0.233614673981E+04    0.62638E-03   -0.68539E-04  4062   0.158E-02    0.340E-02
RMM:   6    -0.233614674679E+04   -0.69863E-05   -0.10330E-04  3223   0.601E-03    0.300E-02
RMM:   7    -0.233614674402E+04    0.27677E-05   -0.32487E-05  2948   0.418E-03
  16 F= -.23577352E+04 E0= -.23577345E+04  d E =-.141392E-02  mag=     5.9851
       N       E                     dE             d eps       ncg     rms          rms(c)
DAV:   1    -0.233614351110E+04    0.32357E-02   -0.20073E+01  4480   0.186E+00    0.814E-01
RMM:   2    -0.233615435893E+04   -0.10848E-01   -0.20596E-01  4526   0.200E-01    0.451E-01
RMM:   3    -0.233615187728E+04    0.24816E-02   -0.20702E-02  4615   0.903E-02    0.295E-01
RMM:   4    -0.233615226639E+04   -0.38911E-03   -0.70899E-03  5355   0.390E-02    0.328E-01
RMM:   5    -0.233615100454E+04    0.12618E-02   -0.13457E-03  4625   0.225E-02    0.736E-02
RMM:   6    -0.233615103030E+04   -0.25755E-04   -0.26845E-04  3448   0.868E-03    0.814E-02
RMM:   7    -0.233615095426E+04    0.76042E-04   -0.10441E-04  3134   0.672E-03    0.297E-02
RMM:   8    -0.233615094658E+04    0.76793E-05   -0.33365E-05  3077   0.403E-03
  17 F= -.23577381E+04 E0= -.23577372E+04  d E =-.182426E-02  mag=     5.9820
       N       E                     dE             d eps       ncg     rms          rms(c)
DAV:   1    -0.233615104124E+04   -0.86985E-04   -0.98716E+00  4480   0.125E+00    0.458E-01
RMM:   2    -0.233615674889E+04   -0.57077E-02   -0.80220E-02  4535   0.116E-01    0.275E-01
RMM:   3    -0.233615652112E+04    0.22777E-03   -0.69335E-03  4379   0.549E-02    0.271E-01
RMM:   4    -0.233615592516E+04    0.59596E-03   -0.25510E-03  4734   0.237E-02    0.144E-01
RMM:   5    -0.233615567639E+04    0.24876E-03   -0.31971E-04  3363   0.113E-02    0.307E-02
RMM:   6    -0.233615569015E+04   -0.13758E-04   -0.67796E-05  3024   0.519E-03    0.345E-02
RMM:   7    -0.233615567942E+04    0.10732E-04   -0.24961E-05  2769   0.342E-03    0.154E-02
RMM:   8    -0.233615567982E+04   -0.39839E-06   -0.62246E-06  2685   0.205E-03
  18 F= -.23577434E+04 E0= -.23577426E+04  d E =-.148940E-02  mag=     5.9839
       N       E                     dE             d eps       ncg     rms          rms(c)
DAV:   1    -0.233613130056E+04    0.24379E-01   -0.19642E+01  4480   0.181E+00    0.851E-01
RMM:   2    -0.233614923551E+04   -0.17935E-01   -0.27590E-01  4426   0.209E-01    0.453E-01
RMM:   3    -0.233614480383E+04    0.44317E-02   -0.20210E-02  4137   0.103E-01    0.268E-01
RMM:   4    -0.233614598300E+04   -0.11792E-02   -0.83101E-03  5456   0.397E-02    0.381E-01
RMM:   5    -0.233614391395E+04    0.20690E-02   -0.19810E-03  4823   0.274E-02    0.674E-02
RMM:   6    -0.233614386351E+04    0.50445E-04   -0.32413E-04  3892   0.795E-03    0.441E-02
RMM:   7    -0.233614388914E+04   -0.25631E-04   -0.11407E-04  3192   0.661E-03    0.539E-02
RMM:   8    -0.233614386048E+04    0.28661E-04   -0.33428E-05  2959   0.451E-03    0.172E-02
RMM:   9    -0.233614386376E+04   -0.32825E-05   -0.15132E-05  2874   0.296E-03
  19 F= -.23577318E+04 E0= -.23577309E+04  d E =-.174188E-02  mag=     5.9822
       N       E                     dE             d eps       ncg     rms          rms(c)
DAV:   1    -0.233614603749E+04   -0.21770E-02   -0.10081E+01  4520   0.167E+00    0.479E-01
RMM:   2    -0.233615523451E+04   -0.91970E-02   -0.11637E-01  4562   0.199E-01    0.272E-01
RMM:   3    -0.233615441266E+04    0.82185E-03   -0.10362E-02  4593   0.775E-02    0.229E-01
RMM:   4    -0.233615427370E+04    0.13896E-03   -0.29341E-03  5108   0.269E-02    0.188E-01
RMM:   5    -0.233615380178E+04    0.47192E-03   -0.70418E-04  4317   0.166E-02    0.620E-02
RMM:   6    -0.233615380409E+04   -0.23121E-05   -0.17626E-04  3215   0.861E-03    0.595E-02
RMM:   7    -0.233615376893E+04    0.35163E-04   -0.50469E-05  3029   0.548E-03    0.179E-02
RMM:   8    -0.233615377092E+04   -0.19964E-05   -0.17030E-05  2947   0.310E-03
  20 F= -.23577414E+04 E0= -.23577408E+04  d E =-.122485E-02  mag=     5.9863
       N       E                     dE             d eps       ncg     rms          rms(c)
DAV:   1    -0.233615823996E+04   -0.44710E-02   -0.20416E+01  4480   0.221E+00    0.527E-01
RMM:   2    -0.233616994597E+04   -0.11706E-01   -0.14322E-01  4511   0.231E-01    0.302E-01
RMM:   3    -0.233617099985E+04   -0.10539E-02   -0.14926E-02  5209   0.756E-02    0.358E-01
RMM:   4    -0.233616941914E+04    0.15807E-02   -0.31977E-03  5594   0.296E-02    0.150E-01
RMM:   5    -0.233616931929E+04    0.99847E-04   -0.80013E-04  4071   0.173E-02    0.794E-02
RMM:   6    -0.233616933485E+04   -0.15561E-04   -0.29091E-04  3431   0.101E-02    0.725E-02
RMM:   7    -0.233616928595E+04    0.48900E-04   -0.56456E-05  3016   0.609E-03    0.173E-02
RMM:   8    -0.233616929254E+04   -0.65830E-05   -0.18663E-05  2963   0.337E-03
  21 F= -.23577572E+04 E0= -.23577561E+04  d E =-.213159E-02  mag=     5.9791
       N       E                     dE             d eps       ncg     rms          rms(c)
DAV:   1    -0.233616563903E+04    0.36469E-02   -0.10019E+01  4480   0.166E+00    0.419E-01
RMM:   2    -0.233617255552E+04   -0.69165E-02   -0.86940E-02  4559   0.203E-01    0.307E-01
RMM:   3    -0.233617292401E+04   -0.36849E-03   -0.10454E-02  5556   0.678E-02    0.368E-01
RMM:   4    -0.233617146432E+04    0.14597E-02   -0.26618E-03  5656   0.268E-02    0.112E-01
RMM:   5    -0.233617156970E+04   -0.10538E-03   -0.71532E-04  4266   0.168E-02    0.125E-01
RMM:   6    -0.233617137436E+04    0.19534E-03   -0.26610E-04  3598   0.920E-03    0.340E-02
RMM:   7    -0.233617136504E+04    0.93238E-05   -0.31624E-05  3010   0.477E-03
  22 F= -.23577590E+04 E0= -.23577582E+04  d E =-.162956E-02  mag=     5.9820
       N       E                     dE             d eps       ncg     rms          rms(c)
DAV:   1    -0.233612277788E+04    0.48596E-01   -0.19900E+01  4480   0.243E+00    0.650E-01
RMM:   2    -0.233614096049E+04   -0.18183E-01   -0.22169E-01  4622   0.275E-01    0.479E-01
RMM:   3    -0.233614165148E+04   -0.69099E-03   -0.25317E-02  5536   0.107E-01    0.592E-01
RMM:   4    -0.233613799352E+04    0.36580E-02   -0.63422E-03  5788   0.386E-02    0.153E-01
RMM:   5    -0.233613829739E+04   -0.30387E-03   -0.17832E-03  4900   0.243E-02    0.202E-01
RMM:   6    -0.233613775698E+04    0.54042E-03   -0.67515E-04  4560   0.135E-02    0.484E-02
RMM:   7    -0.233613774449E+04    0.12488E-04   -0.80908E-05  3107   0.581E-03    0.259E-02
RMM:   8    -0.233613774917E+04   -0.46815E-05   -0.33981E-05  2976   0.429E-03
  23 F= -.23577257E+04 E0= -.23577248E+04  d E =-.166335E-02  mag=     5.9824
       N       E                     dE             d eps       ncg     rms          rms(c)
DAV:   1    -0.233612347866E+04    0.14266E-01   -0.98712E+00  4480   0.167E+00    0.618E-01
RMM:   2    -0.233613455443E+04   -0.11076E-01   -0.17047E-01  4766   0.240E-01    0.439E-01
RMM:   3    -0.233613340800E+04    0.11464E-02   -0.17626E-02  5584   0.844E-02    0.463E-01
RMM:   4    -0.233613144394E+04    0.19641E-02   -0.35456E-03  5784   0.291E-02    0.188E-01
RMM:   5    -0.233613137426E+04    0.69684E-04   -0.27641E-03  4904   0.243E-02    0.156E-01
RMM:   6    -0.233613111143E+04    0.26283E-03   -0.77278E-04  4180   0.170E-02    0.703E-02
RMM:   7    -0.233613103177E+04    0.79660E-04   -0.84218E-05  3207   0.585E-03    0.208E-02
RMM:   8    -0.233613103097E+04    0.80229E-06   -0.27319E-05  3016   0.414E-03
  24 F= -.23577189E+04 E0= -.23577182E+04  d E =-.138796E-02  mag=     5.9848
       N       E                     dE             d eps       ncg     rms          rms(c)
DAV:   1    -0.233616038324E+04   -0.29351E-01   -0.20091E+01  4500   0.245E+00    0.106E+00
RMM:   2    -0.233616569573E+04   -0.53125E-02   -0.25744E-01  5201   0.275E-01    0.550E-01
RMM:   3    -0.233616419531E+04    0.15004E-02   -0.24051E-02  5720   0.965E-02    0.651E-01
RMM:   4    -0.233616061199E+04    0.35833E-02   -0.73165E-03  6000   0.402E-02    0.301E-01
RMM:   5    -0.233616007882E+04    0.53316E-03   -0.35215E-03  4789   0.277E-02    0.140E-01
RMM:   6    -0.233615999885E+04    0.79976E-04   -0.86152E-04  3984   0.187E-02    0.104E-01
RMM:   7    -0.233615984595E+04    0.15289E-03   -0.13918E-04  3189   0.748E-03    0.279E-02
RMM:   8    -0.233615984637E+04   -0.41781E-06   -0.46307E-05  3026   0.454E-03
  25 F= -.23577476E+04 E0= -.23577467E+04  d E =-.183291E-02  mag=     5.9814
       N       E                     dE             d eps       ncg     rms          rms(c)
DAV:   1    -0.233620409876E+04   -0.44253E-01   -0.52429E+00  4480   0.123E+00    0.600E-01
RMM:   2    -0.233620799258E+04   -0.38938E-02   -0.10157E-01  5290   0.168E-01    0.318E-01
RMM:   3    -0.233620629833E+04    0.16943E-02   -0.76476E-03  5478   0.542E-02    0.293E-01
RMM:   4    -0.233620569415E+04    0.60417E-03   -0.21696E-03  5506   0.226E-02    0.196E-01
RMM:   5    -0.233620533611E+04    0.35805E-03   -0.15390E-03  4682   0.182E-02    0.795E-02
RMM:   6    -0.233620532922E+04    0.68862E-05   -0.32268E-04  3471   0.127E-02    0.708E-02
RMM:   7    -0.233620525583E+04    0.73390E-04   -0.69771E-05  3012   0.544E-03    0.183E-02
RMM:   8    -0.233620525550E+04    0.32991E-06   -0.21655E-05  2932   0.337E-03
  26 F= -.23577919E+04 E0= -.23577912E+04  d E =-.143172E-02  mag=     5.9842
       N       E                     dE             d eps       ncg     rms          rms(c)
DAV:   1    -0.233612288464E+04    0.82371E-01   -0.10427E+00  4420   0.319E-01    0.438E-01
RMM:   2    -0.233612057405E+04    0.23106E-02   -0.14418E-02  4966   0.477E-02    0.253E-01
RMM:   3    -0.233612146289E+04   -0.88884E-03   -0.42713E-03  4938   0.347E-02    0.379E-01
RMM:   4    -0.233611977604E+04    0.16869E-02   -0.18303E-03  4825   0.193E-02    0.103E-01
RMM:   5    -0.233611970012E+04    0.75918E-04   -0.26549E-04  3423   0.824E-03    0.624E-02
RMM:   6    -0.233611967911E+04    0.21009E-04   -0.12398E-04  3066   0.663E-03    0.460E-02
RMM:   7    -0.233611965560E+04    0.23514E-04   -0.30871E-05  2902   0.396E-03    0.113E-02
RMM:   8    -0.233611965606E+04   -0.45798E-06   -0.81046E-06  2660   0.252E-03
  27 F= -.23577088E+04 E0= -.23577079E+04  d E =-.181330E-02  mag=     5.9814
       N       E                     dE             d eps       ncg     rms          rms(c)
DAV:   1    -0.233617736653E+04   -0.57711E-01   -0.51827E-01  4460   0.240E-01    0.278E-01
RMM:   2    -0.233617659914E+04    0.76740E-03   -0.67158E-03  4637   0.328E-02    0.159E-01
RMM:   3    -0.233617700156E+04   -0.40243E-03   -0.17367E-03  4744   0.215E-02    0.233E-01
RMM:   4    -0.233617629694E+04    0.70462E-03   -0.70016E-04  3962   0.133E-02    0.557E-02
RMM:   5    -0.233617629112E+04    0.58220E-05   -0.13654E-04  3173   0.661E-03    0.554E-02
RMM:   6    -0.233617626367E+04    0.27443E-04   -0.64856E-05  2809   0.474E-03    0.233E-02
RMM:   7    -0.233617625966E+04    0.40102E-05   -0.13558E-05  2715   0.265E-03
  28 F= -.23577633E+04 E0= -.23577624E+04  d E =-.181072E-02  mag=     5.9811
       N       E                     dE             d eps       ncg     rms          rms(c)
DAV:   1    -0.233614482403E+04    0.31440E-01   -0.10786E+00  4460   0.308E-01    0.279E-01
RMM:   2    -0.233614522593E+04   -0.40190E-03   -0.91097E-03  4456   0.402E-02    0.231E-01
RMM:   3    -0.233614523232E+04   -0.63918E-05   -0.21307E-03  4573   0.234E-02    0.223E-01
RMM:   4    -0.233614462771E+04    0.60461E-03   -0.73317E-04  3752   0.122E-02    0.460E-02
RMM:   5    -0.233614464415E+04   -0.16441E-04   -0.14587E-04  3049   0.782E-03    0.562E-02
RMM:   6    -0.233614460221E+04    0.41939E-04   -0.52198E-05  2749   0.446E-03    0.119E-02
RMM:   7    -0.233614460131E+04    0.90284E-06   -0.83025E-06  2559   0.206E-03
  29 F= -.23577333E+04 E0= -.23577326E+04  d E =-.142850E-02  mag=     5.9841
       N       E                     dE             d eps       ncg     rms          rms(c)
DAV:   1    -0.233617492626E+04   -0.30324E-01   -0.54430E-01  4420   0.235E-01    0.201E-01
RMM:   2    -0.233617527359E+04   -0.34733E-03   -0.42479E-03  4297   0.275E-02    0.187E-01
RMM:   3    -0.233617512310E+04    0.15049E-03   -0.10095E-03  3795   0.153E-02    0.146E-01
RMM:   4    -0.233617487393E+04    0.24917E-03   -0.31167E-04  3219   0.852E-03    0.404E-02
RMM:   5    -0.233617488980E+04   -0.15864E-04   -0.85865E-05  2889   0.590E-03    0.453E-02
RMM:   6    -0.233617486147E+04    0.28330E-04   -0.25657E-05  2645   0.354E-03    0.919E-03
RMM:   7    -0.233617486183E+04   -0.36214E-06   -0.55301E-06  2458   0.168E-03
  30 F= -.23577625E+04 E0= -.23577615E+04  d E =-.203988E-02  mag=     5.9800
       N       E                     dE             d eps       ncg     rms          rms(c)
DAV:   1    -0.233614827086E+04    0.26591E-01   -0.10984E+00  4400   0.310E-01    0.241E-01
RMM:   2    -0.233614867985E+04   -0.40899E-03   -0.58852E-03  4278   0.337E-02    0.179E-01
RMM:   3    -0.233614888644E+04   -0.20659E-03   -0.14358E-03  4160   0.181E-02    0.201E-01
RMM:   4    -0.233614842906E+04    0.45738E-03   -0.54580E-04  3589   0.112E-02    0.525E-02
RMM:   5    -0.233614843719E+04   -0.81295E-05   -0.11059E-04  3002   0.610E-03    0.364E-02
RMM:   6    -0.233614842101E+04    0.16174E-04   -0.26586E-05  2666   0.357E-03    0.120E-02
RMM:   7    -0.233614842022E+04    0.79583E-06   -0.58735E-06  2499   0.179E-03
  31 F= -.23577364E+04 E0= -.23577357E+04  d E =-.127578E-02  mag=     5.9847
       N       E                     dE             d eps       ncg     rms          rms(c)
DAV:   1    -0.233615509875E+04   -0.66777E-02   -0.54216E-01  4500   0.333E-01    0.193E-01
RMM:   2    -0.233615555206E+04   -0.45331E-03   -0.42350E-03  4360   0.383E-02    0.126E-01
RMM:   3    -0.233615586231E+04   -0.31025E-03   -0.88058E-04  3978   0.178E-02    0.181E-01
RMM:   4    -0.233615558465E+04    0.27766E-03   -0.37808E-04  3505   0.104E-02    0.465E-02
RMM:   5    -0.233615558714E+04   -0.24870E-05   -0.54368E-05  3054   0.536E-03
  32 F= -.23577434E+04 E0= -.23577426E+04  d E =-.177580E-02  mag=     5.9826
       N       E                     dE             d eps       ncg     rms          rms(c)
DAV:   1    -0.233616853895E+04   -0.12954E-01   -0.10632E+00  4480   0.477E-01    0.299E-01
RMM:   2    -0.233616982817E+04   -0.12892E-02   -0.85580E-03  4514   0.489E-02    0.208E-01
RMM:   3    -0.233617068067E+04   -0.85250E-03   -0.20461E-03  4611   0.290E-02    0.280E-01
RMM:   4    -0.233616997149E+04    0.70918E-03   -0.73265E-04  4428   0.155E-02    0.606E-02
RMM:   5    -0.233617001912E+04   -0.47633E-04   -0.18952E-04  3258   0.837E-03    0.723E-02
RMM:   6    -0.233616996766E+04    0.51463E-04   -0.55417E-05  2944   0.543E-03    0.112E-02
RMM:   7    -0.233616997031E+04   -0.26518E-05   -0.10297E-05  2856   0.265E-03
  33 F= -.23577577E+04 E0= -.23577570E+04  d E =-.143405E-02  mag=     5.9842
       N       E                     dE             d eps       ncg     rms          rms(c)
DAV:   1    -0.233617953476E+04   -0.95671E-02   -0.53428E-01  4540   0.338E-01    0.202E-01
RMM:   2    -0.233618022353E+04   -0.68877E-03   -0.49190E-03  4785   0.400E-02    0.130E-01
RMM:   3    -0.233618064528E+04   -0.42176E-03   -0.91801E-04  4353   0.200E-02    0.178E-01
RMM:   4    -0.233618031990E+04    0.32538E-03   -0.36647E-04  3639   0.114E-02    0.431E-02
RMM:   5    -0.233618033347E+04   -0.13574E-04   -0.83476E-05  3078   0.623E-03    0.458E-02
RMM:   6    -0.233618031294E+04    0.20537E-04   -0.25588E-05  2890   0.421E-03    0.787E-03
RMM:   7    -0.233618031283E+04    0.10653E-06   -0.40171E-06  2777   0.200E-03
  34 F= -.23577681E+04 E0= -.23577673E+04  d E =-.161477E-02  mag=     5.9836
       N       E                     dE             d eps       ncg     rms          rms(c)
DAV:   1    -0.233614071792E+04    0.39595E-01   -0.10576E+00  4500   0.481E-01    0.289E-01
RMM:   2    -0.233614195586E+04   -0.12379E-02   -0.96307E-03  5209   0.576E-02    0.177E-01
RMM:   3    -0.233614265853E+04   -0.70267E-03   -0.14872E-03  4786   0.273E-02    0.207E-01
RMM:   4    -0.233614215742E+04    0.50111E-03   -0.67726E-04  4291   0.146E-02    0.497E-02
RMM:   5    -0.233614215520E+04    0.22224E-05   -0.76799E-05  3168   0.635E-03
  35 F= -.23577299E+04 E0= -.23577291E+04  d E =-.160293E-02  mag=     5.9833
       N       E                     dE             d eps       ncg     rms          rms(c)
DAV:   1    -0.233617383900E+04   -0.31682E-01   -0.56919E-01  4920   0.385E-01    0.401E-01
RMM:   2    -0.233617296360E+04    0.87541E-03   -0.19768E-02  5827   0.699E-02    0.233E-01
RMM:   3    -0.233617264226E+04    0.32134E-03   -0.17888E-03  4989   0.309E-02    0.197E-01
RMM:   4    -0.233617256512E+04    0.77141E-04   -0.94247E-04  4678   0.151E-02    0.166E-01
RMM:   5    -0.233617234217E+04    0.22294E-03   -0.37124E-04  4310   0.120E-02    0.513E-02
RMM:   6    -0.233617232595E+04    0.16223E-04   -0.92211E-05  3025   0.739E-03    0.366E-02
RMM:   7    -0.233617230595E+04    0.20006E-04   -0.17006E-05  2853   0.345E-03    0.836E-03
RMM:   8    -0.233617230553E+04    0.41218E-06   -0.57945E-06  2767   0.222E-03
  36 F= -.23577601E+04 E0= -.23577592E+04  d E =-.166019E-02  mag=     5.9829
       N       E                     dE             d eps       ncg     rms          rms(c)
DAV:   1    -0.233612703515E+04    0.45271E-01   -0.11480E+00  5060   0.536E-01    0.700E-01
RMM:   2    -0.233612405995E+04    0.29752E-02   -0.67813E-02  6083   0.119E-01    0.422E-01
RMM:   3    -0.233612214356E+04    0.19164E-02   -0.58439E-03  5753   0.512E-02    0.326E-01
RMM:   4    -0.233612183536E+04    0.30820E-03   -0.23740E-03  5512   0.230E-02    0.264E-01
RMM:   5    -0.233612132250E+04    0.51286E-03   -0.10490E-03  4690   0.187E-02    0.919E-02
RMM:   6    -0.233612126580E+04    0.56696E-04   -0.28221E-04  3501   0.115E-02    0.649E-02
RMM:   7    -0.233612120240E+04    0.63398E-04   -0.56595E-05  3080   0.532E-03    0.125E-02
RMM:   8    -0.233612119957E+04    0.28317E-05   -0.15386E-05  2894   0.338E-03
  37 F= -.23577091E+04 E0= -.23577083E+04  d E =-.157674E-02  mag=     5.9835
