       N       E                     dE             d eps       ncg     rms          rms(c)
DAV:   1     0.129189266305E+05    0.12919E+05   -0.83756E+05  4512   0.144E+03
DAV:   2    -0.105917231261E+04   -0.13978E+05   -0.13367E+05  5120   0.330E+02
DAV:   3    -0.247891064678E+04   -0.14197E+04   -0.14048E+04  5416   0.112E+02
DAV:   4    -0.252407647042E+04   -0.45166E+02   -0.44922E+02  6752   0.297E+01
DAV:   5    -0.252491539151E+04   -0.83892E+00   -0.83748E+00  6080   0.345E+00    0.171E+02
RMM:   6    -0.149417338056E+04    0.10307E+04   -0.19441E+03  4445   0.384E+01    0.725E+01
RMM:   7    -0.166902370570E+04   -0.17485E+03   -0.29657E+02  5036   0.144E+01    0.566E+01
RMM:   8    -0.170838688546E+04   -0.39363E+02   -0.10137E+02  5231   0.839E+00    0.439E+01
RMM:   9    -0.176930826832E+04   -0.60921E+02   -0.52301E+01  5021   0.704E+00    0.298E+01
RMM:  10    -0.192878380506E+04   -0.15948E+03   -0.65587E+01  4993   0.755E+00    0.202E+01
RMM:  11    -0.203984386491E+04   -0.11106E+03   -0.51606E+01  4880   0.577E+00    0.186E+01
RMM:  12    -0.209895711548E+04   -0.59113E+02   -0.24261E+01  5141   0.409E+00    0.156E+01
RMM:  13    -0.219999328960E+04   -0.10104E+03   -0.61552E+01  4517   0.603E+00    0.936E+00
RMM:  14    -0.228405912855E+04   -0.84066E+02   -0.73315E+01  4648   0.615E+00    0.101E+01
RMM:  15    -0.229000246152E+04   -0.59433E+01   -0.72146E+00  4879   0.301E+00    0.662E+00
RMM:  16    -0.231515330861E+04   -0.25151E+02   -0.23136E+01  4430   0.295E+00    0.359E+00
RMM:  17    -0.231904980443E+04   -0.38965E+01   -0.34354E+00  4664   0.130E+00    0.184E+00
RMM:  18    -0.232108029106E+04   -0.20305E+01   -0.13067E+00  4836   0.688E-01    0.109E+00
RMM:  19    -0.232181252016E+04   -0.73223E+00   -0.77166E-01  4671   0.476E-01    0.623E-01
RMM:  20    -0.232211263427E+04   -0.30011E+00   -0.42858E-01  4584   0.323E-01    0.573E-01
RMM:  21    -0.232218135742E+04   -0.68723E-01   -0.91721E-02  4727   0.196E-01    0.231E-01
RMM:  22    -0.232220775986E+04   -0.26402E-01   -0.23343E-02  4728   0.868E-02    0.170E-01
RMM:  23    -0.232222464518E+04   -0.16885E-01   -0.65086E-03  4584   0.654E-02    0.789E-02
RMM:  24    -0.232223493011E+04   -0.10285E-01   -0.39917E-03  4463   0.423E-02    0.540E-02
RMM:  25    -0.232224011705E+04   -0.51869E-02   -0.15177E-03  4525   0.335E-02    0.323E-02
RMM:  26    -0.232224359883E+04   -0.34818E-02   -0.11248E-03  4220   0.224E-02    0.208E-02
RMM:  27    -0.232224469890E+04   -0.11001E-02   -0.33551E-04  4043   0.178E-02    0.132E-02
RMM:  28    -0.232224511761E+04   -0.41871E-03   -0.15481E-04  3743   0.825E-03    0.625E-03
RMM:  29    -0.232224526784E+04   -0.15023E-03   -0.37367E-05  3297   0.747E-03    0.420E-03
RMM:  30    -0.232224535286E+04   -0.85029E-04   -0.25098E-05  3128   0.370E-03    0.247E-03
RMM:  31    -0.232224537692E+04   -0.24060E-04   -0.58241E-06  2833   0.317E-03    0.161E-03
RMM:  32    -0.232224539009E+04   -0.13165E-04   -0.46639E-06  2487   0.199E-03    0.966E-04
RMM:  33    -0.232224539203E+04   -0.19395E-05   -0.16794E-06  2421   0.191E-03
   1 F= -.23431840E+04 E0= -.23431840E+04  d E =-.234318E+04  mag=     6.0000
       N       E                     dE             d eps       ncg     rms          rms(c)
DAV:   1    -0.232214754710E+04    0.97843E-01   -0.84955E+00  5136   0.247E+00    0.104E+00
RMM:   2    -0.232234267767E+04   -0.19513E+00   -0.19831E+00  6059   0.674E-01    0.106E+00
RMM:   3    -0.232234445328E+04   -0.17756E-02   -0.19056E-01  5858   0.233E-01    0.598E-01
RMM:   4    -0.232234196909E+04    0.24842E-02   -0.16627E-02  5371   0.508E-02    0.291E-01
RMM:   5    -0.232234139683E+04    0.57227E-03   -0.30111E-03  5504   0.283E-02    0.323E-01
RMM:   6    -0.232234024470E+04    0.11521E-02   -0.25060E-03  5405   0.267E-02    0.114E-01
RMM:   7    -0.232234010107E+04    0.14363E-03   -0.60464E-04  4724   0.159E-02    0.532E-02
RMM:   8    -0.232234004750E+04    0.53570E-04   -0.13418E-04  3824   0.880E-03    0.310E-02
RMM:   9    -0.232234002054E+04    0.26963E-04   -0.48668E-05  3097   0.653E-03    0.125E-02
RMM:  10    -0.232234001453E+04    0.60123E-05   -0.16324E-05  2926   0.400E-03
   2 F= -.23432780E+04 E0= -.23432780E+04  d E =-.939909E-01  mag=     6.0000
       N       E                     dE             d eps       ncg     rms          rms(c)
DAV:   1    -0.232222884141E+04    0.11118E+00   -0.59644E+00  4720   0.210E+00    0.858E-01
RMM:   2    -0.232236531870E+04   -0.13648E+00   -0.13918E+00  6061   0.562E-01    0.849E-01
RMM:   3    -0.232236745070E+04   -0.21320E-02   -0.12644E-01  5851   0.190E-01    0.530E-01
RMM:   4    -0.232236540505E+04    0.20457E-02   -0.11218E-02  5365   0.425E-02    0.242E-01
RMM:   5    -0.232236499073E+04    0.41432E-03   -0.21917E-03  5390   0.244E-02    0.275E-01
RMM:   6    -0.232236421059E+04    0.78014E-03   -0.16922E-03  5305   0.221E-02    0.104E-01
RMM:   7    -0.232236409004E+04    0.12055E-03   -0.42973E-04  4629   0.136E-02    0.455E-02
RMM:   8    -0.232236405003E+04    0.40009E-04   -0.94260E-05  3477   0.775E-03    0.257E-02
RMM:   9    -0.232236403053E+04    0.19496E-04   -0.34182E-05  2999   0.569E-03    0.980E-03
RMM:  10    -0.232236402626E+04    0.42748E-05   -0.13587E-05  2902   0.378E-03
   3 F= -.23433016E+04 E0= -.23433016E+04  d E =-.117559E+00  mag=     6.0000
       N       E                     dE             d eps       ncg     rms          rms(c)
DAV:   1    -0.232223029638E+04    0.13373E+00   -0.88114E+00  4624   0.279E+00    0.119E+00
RMM:   2    -0.232241772609E+04   -0.18743E+00   -0.18921E+00  6010   0.708E-01    0.110E+00
RMM:   3    -0.232242154600E+04   -0.38199E-02   -0.18932E-01  5740   0.262E-01    0.685E-01
RMM:   4    -0.232241814497E+04    0.34010E-02   -0.15910E-02  5456   0.561E-02    0.257E-01
RMM:   5    -0.232241774187E+04    0.40310E-03   -0.28380E-03  5292   0.336E-02    0.259E-01
RMM:   6    -0.232241721962E+04    0.52225E-03   -0.18588E-03  5493   0.248E-02    0.186E-01
RMM:   7    -0.232241687882E+04    0.34080E-03   -0.50114E-04  4875   0.177E-02    0.526E-02
RMM:   8    -0.232241683495E+04    0.43874E-04   -0.11599E-04  3867   0.818E-03    0.281E-02
RMM:   9    -0.232241681485E+04    0.20103E-04   -0.35986E-05  3002   0.631E-03    0.128E-02
RMM:  10    -0.232241680785E+04    0.69993E-05   -0.17066E-05  2905   0.402E-03
   4 F= -.23433540E+04 E0= -.23433540E+04  d E =-.524690E-01  mag=     6.0000
       N       E                     dE             d eps       ncg     rms          rms(c)
DAV:   1    -0.232240295444E+04    0.13860E-01   -0.81947E-01  4880   0.849E-01    0.358E-01
RMM:   2    -0.232241957996E+04   -0.16626E-01   -0.16935E-01  6011   0.211E-01    0.297E-01
RMM:   3    -0.232242046529E+04   -0.88534E-03   -0.18045E-02  5629   0.817E-02    0.219E-01
RMM:   4    -0.232242009541E+04    0.36988E-03   -0.15400E-03  4820   0.176E-02    0.836E-02
RMM:   5    -0.232242006345E+04    0.31965E-04   -0.27001E-04  3711   0.107E-02    0.841E-02
RMM:   6    -0.232241999147E+04    0.71981E-04   -0.19827E-04  4216   0.928E-03    0.513E-02
RMM:   7    -0.232241996302E+04    0.28444E-04   -0.55710E-05  3254   0.690E-03    0.184E-02
RMM:   8    -0.232241995740E+04    0.56250E-05   -0.15872E-05  2883   0.457E-03
   5 F= -.23433571E+04 E0= -.23433571E+04  d E =-.555121E-01  mag=     6.0000
       N       E                     dE             d eps       ncg     rms          rms(c)
DAV:   1    -0.232234548184E+04    0.74481E-01   -0.46231E+00  4544   0.182E+00    0.838E-01
RMM:   2    -0.232246224301E+04   -0.11676E+00   -0.11412E+00  6271   0.500E-01    0.105E+00
RMM:   3    -0.232246230534E+04   -0.62329E-04   -0.12232E-01  5921   0.177E-01    0.480E-01
RMM:   4    -0.232246109327E+04    0.12121E-02   -0.11000E-02  5479   0.397E-02    0.215E-01
RMM:   5    -0.232246085648E+04    0.23679E-03   -0.10521E-03  4803   0.174E-02    0.204E-01
RMM:   6    -0.232246046072E+04    0.39576E-03   -0.68926E-04  4622   0.152E-02    0.117E-01
RMM:   7    -0.232246032494E+04    0.13578E-03   -0.54734E-04  4622   0.144E-02    0.280E-02
RMM:   8    -0.232246032377E+04    0.11722E-05   -0.56845E-05  3003   0.637E-03
   6 F= -.23433974E+04 E0= -.23433974E+04  d E =-.403348E-01  mag=     6.0000
       N       E                     dE             d eps       ncg     rms          rms(c)
DAV:   1    -0.232213603657E+04    0.32429E+00   -0.13738E+01  4496   0.315E+00    0.145E+00
RMM:   2    -0.232248834678E+04   -0.35231E+00   -0.34676E+00  6256   0.878E-01    0.175E+00
RMM:   3    -0.232249139261E+04   -0.30458E-02   -0.38421E-01  5932   0.308E-01    0.833E-01
RMM:   4    -0.232248722536E+04    0.41673E-02   -0.32405E-02  5676   0.687E-02    0.360E-01
RMM:   5    -0.232248649175E+04    0.73361E-03   -0.33171E-03  5389   0.301E-02    0.344E-01
RMM:   6    -0.232248546046E+04    0.10313E-02   -0.21602E-03  5279   0.254E-02    0.211E-01
RMM:   7    -0.232248499466E+04    0.46580E-03   -0.15152E-03  5132   0.226E-02    0.470E-02
RMM:   8    -0.232248500072E+04   -0.60612E-05   -0.17083E-04  3614   0.102E-02    0.264E-02
RMM:   9    -0.232248500973E+04   -0.90055E-05   -0.31108E-05  2987   0.514E-03
   7 F= -.23434219E+04 E0= -.23434219E+04  d E =-.648541E-01  mag=     6.0000
       N       E                     dE             d eps       ncg     rms          rms(c)
DAV:   1    -0.232239106006E+04    0.93941E-01   -0.54317E+00  4544   0.208E+00    0.860E-01
RMM:   2    -0.232251516841E+04   -0.12411E+00   -0.12197E+00  6232   0.538E-01    0.101E+00
RMM:   3    -0.232251634125E+04   -0.11728E-02   -0.12063E-01  5922   0.186E-01    0.498E-01
RMM:   4    -0.232251486122E+04    0.14800E-02   -0.11166E-02  5432   0.408E-02    0.194E-01
RMM:   5    -0.232251443753E+04    0.42368E-03   -0.92521E-04  4887   0.181E-02    0.160E-01
RMM:   6    -0.232251435807E+04    0.79457E-04   -0.77934E-04  4744   0.158E-02    0.158E-01
RMM:   7    -0.232251409321E+04    0.26486E-03   -0.54428E-04  4918   0.145E-02    0.265E-02
RMM:   8    -0.232251409767E+04   -0.44607E-05   -0.61993E-05  2998   0.678E-03
   8 F= -.23434507E+04 E0= -.23434507E+04  d E =-.288011E-01  mag=     6.0000
       N       E                     dE             d eps       ncg     rms          rms(c)
DAV:   1    -0.232235058592E+04    0.16351E+00   -0.76706E+00  4512   0.248E+00    0.102E+00
RMM:   2    -0.232252636951E+04   -0.17578E+00   -0.17307E+00  6213   0.645E-01    0.118E+00
RMM:   3    -0.232252821905E+04   -0.18495E-02   -0.17193E-01  5925   0.221E-01    0.596E-01
RMM:   4    -0.232252600098E+04    0.22181E-02   -0.15374E-02  5522   0.484E-02    0.227E-01
RMM:   5    -0.232252530164E+04    0.69934E-03   -0.12888E-03  4968   0.214E-02    0.156E-01
RMM:   6    -0.232252520757E+04    0.94067E-04   -0.13563E-03  5133   0.226E-02    0.161E-01
RMM:   7    -0.232252495534E+04    0.25223E-03   -0.42817E-04  4535   0.142E-02    0.413E-02
RMM:   8    -0.232252495079E+04    0.45473E-05   -0.62593E-05  3021   0.508E-03
   9 F= -.23434612E+04 E0= -.23434612E+04  d E =-.392484E-01  mag=     6.0000
       N       E                     dE             d eps       ncg     rms          rms(c)
DAV:   1    -0.232249843667E+04    0.26519E-01   -0.27006E+00  4544   0.157E+00    0.591E-01
RMM:   2    -0.232253725302E+04   -0.38816E-01   -0.40178E-01  6047   0.352E-01    0.445E-01
RMM:   3    -0.232253983869E+04   -0.25857E-02   -0.43501E-02  5803   0.128E-01    0.395E-01
RMM:   4    -0.232253855505E+04    0.12836E-02   -0.38841E-03  5512   0.301E-02    0.129E-01
RMM:   5    -0.232253832455E+04    0.23050E-03   -0.67105E-04  4998   0.176E-02    0.918E-02
RMM:   6    -0.232253834612E+04   -0.21570E-04   -0.55929E-04  4832   0.142E-02    0.116E-01
RMM:   7    -0.232253820769E+04    0.13843E-03   -0.17745E-04  4099   0.105E-02    0.332E-02
RMM:   8    -0.232253819516E+04    0.12525E-04   -0.28274E-05  2927   0.498E-03    0.119E-02
RMM:   9    -0.232253819256E+04    0.26012E-05   -0.11478E-05  2878   0.359E-03
  10 F= -.23434741E+04 E0= -.23434741E+04  d E =-.129273E-01  mag=     6.0000
       N       E                     dE             d eps       ncg     rms          rms(c)
DAV:   1    -0.232253339310E+04    0.48021E-02   -0.41451E-01  4696   0.613E-01    0.232E-01
RMM:   2    -0.232253936212E+04   -0.59690E-02   -0.61337E-02  6060   0.137E-01    0.186E-01
RMM:   3    -0.232253969285E+04   -0.33073E-03   -0.65064E-03  5321   0.493E-02    0.153E-01
RMM:   4    -0.232253949932E+04    0.19353E-03   -0.59168E-04  3963   0.120E-02    0.494E-02
RMM:   5    -0.232253946029E+04    0.39035E-04   -0.98382E-05  3448   0.770E-03    0.334E-02
RMM:   6    -0.232253946531E+04   -0.50241E-05   -0.85605E-05  3300   0.712E-03
  11 F= -.23434752E+04 E0= -.23434752E+04  d E =-.140723E-01  mag=     6.0000
       N       E                     dE             d eps       ncg     rms          rms(c)
DAV:   1    -0.232253040505E+04    0.90552E-02   -0.15428E+00  4528   0.113E+00    0.357E-01
RMM:   2    -0.232254839507E+04   -0.17990E-01   -0.18949E-01  5992   0.234E-01    0.229E-01
RMM:   3    -0.232254978622E+04   -0.13911E-02   -0.20669E-02  5621   0.905E-02    0.229E-01
RMM:   4    -0.232254942858E+04    0.35764E-03   -0.16367E-03  4832   0.194E-02    0.999E-02
RMM:   5    -0.232254930637E+04    0.12220E-03   -0.35764E-04  4362   0.124E-02    0.748E-02
RMM:   6    -0.232254930030E+04    0.60729E-05   -0.28235E-04  3884   0.105E-02    0.730E-02
RMM:   7    -0.232254924739E+04    0.52911E-04   -0.87327E-05  3364   0.758E-03    0.246E-02
RMM:   8    -0.232254924136E+04    0.60346E-05   -0.17370E-05  2883   0.476E-03
  12 F= -.23434848E+04 E0= -.23434848E+04  d E =-.957231E-02  mag=     6.0000
       N       E                     dE             d eps       ncg     rms          rms(c)
DAV:   1    -0.232244629332E+04    0.10295E+00   -0.84261E+00  4480   0.265E+00    0.843E-01
RMM:   2    -0.232254656874E+04   -0.10028E+00   -0.10491E+00  5988   0.553E-01    0.622E-01
RMM:   3    -0.232255339076E+04   -0.68220E-02   -0.11515E-01  5790   0.206E-01    0.582E-01
RMM:   4    -0.232255090578E+04    0.24850E-02   -0.89769E-03  5780   0.457E-02    0.234E-01
RMM:   5    -0.232255013957E+04    0.76622E-03   -0.20660E-03  5295   0.285E-02    0.142E-01
RMM:   6    -0.232255005727E+04    0.82294E-04   -0.16049E-03  4984   0.231E-02    0.137E-01
RMM:   7    -0.232254991928E+04    0.13799E-03   -0.36854E-04  4250   0.151E-02    0.779E-02
RMM:   8    -0.232254985436E+04    0.64923E-04   -0.10013E-04  3200   0.637E-03    0.236E-02
RMM:   9    -0.232254984509E+04    0.92643E-05   -0.31210E-05  2920   0.477E-03
  13 F= -.23434849E+04 E0= -.23434849E+04  d E =-.969228E-02  mag=     6.0000
       N       E                     dE             d eps       ncg     rms          rms(c)
DAV:   1    -0.232252839250E+04    0.21462E-01   -0.20581E+00  4512   0.131E+00    0.409E-01
RMM:   2    -0.232255233730E+04   -0.23945E-01   -0.25126E-01  5964   0.270E-01    0.262E-01
RMM:   3    -0.232255411140E+04   -0.17741E-02   -0.25815E-02  5609   0.103E-01    0.258E-01
RMM:   4    -0.232255367004E+04    0.44136E-03   -0.21425E-03  5168   0.220E-02    0.111E-01
RMM:   5    -0.232255347766E+04    0.19238E-03   -0.45753E-04  4583   0.140E-02    0.565E-02
RMM:   6    -0.232255346802E+04    0.96318E-05   -0.20993E-04  4177   0.113E-02    0.482E-02
RMM:   7    -0.232255345732E+04    0.10708E-04   -0.54973E-05  3005   0.649E-03    0.335E-02
RMM:   8    -0.232255344686E+04    0.10461E-04   -0.12670E-05  2876   0.369E-03    0.781E-03
RMM:   9    -0.232255344583E+04    0.10287E-05   -0.56520E-06  2863   0.229E-03
  14 F= -.23434888E+04 E0= -.23434888E+04  d E =-.135333E-01  mag=     6.0000
       N       E                     dE             d eps       ncg     rms          rms(c)
DAV:   1    -0.232255003491E+04    0.34120E-02   -0.13576E+00  4512   0.106E+00    0.295E-01
RMM:   2    -0.232256090087E+04   -0.10866E-01   -0.11493E-01  5928   0.199E-01    0.169E-01
RMM:   3    -0.232256155953E+04   -0.65866E-03   -0.10530E-02  5522   0.701E-02    0.174E-01
RMM:   4    -0.232256134247E+04    0.21706E-03   -0.98925E-04  4120   0.159E-02    0.892E-02
RMM:   5    -0.232256124474E+04    0.97722E-04   -0.24454E-04  3967   0.110E-02    0.529E-02
RMM:   6    -0.232256124312E+04    0.16245E-05   -0.14942E-04  3715   0.920E-03    0.526E-02
RMM:   7    -0.232256121871E+04    0.24409E-04   -0.46673E-05  3032   0.635E-03    0.193E-02
RMM:   8    -0.232256121545E+04    0.32611E-05   -0.92565E-06  2852   0.359E-03
  15 F= -.23434965E+04 E0= -.23434965E+04  d E =-.767908E-02  mag=     6.0000
       N       E                     dE             d eps       ncg     rms          rms(c)
DAV:   1    -0.232250455993E+04    0.56659E-01   -0.77309E+00  4480   0.252E+00    0.708E-01
RMM:   2    -0.232256677629E+04   -0.62216E-01   -0.65762E-01  5894   0.475E-01    0.418E-01
RMM:   3    -0.232257078718E+04   -0.40109E-02   -0.62848E-02  5662   0.169E-01    0.430E-01
RMM:   4    -0.232256945401E+04    0.13332E-02   -0.57830E-03  5692   0.378E-02    0.215E-01
RMM:   5    -0.232256893235E+04    0.52167E-03   -0.13392E-03  4785   0.228E-02    0.135E-01
RMM:   6    -0.232256889014E+04    0.42211E-04   -0.94528E-04  5163   0.199E-02    0.131E-01
RMM:   7    -0.232256873707E+04    0.15307E-03   -0.29042E-04  4608   0.123E-02    0.528E-02
RMM:   8    -0.232256870954E+04    0.27527E-04   -0.53572E-05  3020   0.547E-03    0.160E-02
RMM:   9    -0.232256870469E+04    0.48510E-05   -0.12338E-05  2905   0.366E-03
  16 F= -.23435037E+04 E0= -.23435037E+04  d E =-.149364E-01  mag=     6.0000
       N       E                     dE             d eps       ncg     rms          rms(c)
DAV:   1    -0.232256802751E+04    0.68203E-03   -0.10945E+00  4528   0.924E-01    0.242E-01
RMM:   2    -0.232257543128E+04   -0.74038E-02   -0.76990E-02  5881   0.166E-01    0.190E-01
RMM:   3    -0.232257573110E+04   -0.29982E-03   -0.69455E-03  5338   0.584E-02    0.175E-01
RMM:   4    -0.232257545009E+04    0.28101E-03   -0.68039E-04  3975   0.141E-02    0.703E-02
RMM:   5    -0.232257538267E+04    0.67416E-04   -0.18547E-04  3825   0.959E-03    0.352E-02
RMM:   6    -0.232257538432E+04   -0.16424E-05   -0.82944E-05  3511   0.777E-03
  17 F= -.23435104E+04 E0= -.23435104E+04  d E =-.672235E-02  mag=     6.0000
       N       E                     dE             d eps       ncg     rms          rms(c)
DAV:   1    -0.232252076808E+04    0.54615E-01   -0.98219E+00  4480   0.277E+00    0.729E-01
RMM:   2    -0.232258757752E+04   -0.66809E-01   -0.69667E-01  5859   0.500E-01    0.561E-01
RMM:   3    -0.232259028943E+04   -0.27119E-02   -0.61503E-02  5580   0.173E-01    0.530E-01
RMM:   4    -0.232258776856E+04    0.25209E-02   -0.61747E-03  5594   0.421E-02    0.211E-01
RMM:   5    -0.232258719178E+04    0.57678E-03   -0.16574E-03  4824   0.257E-02    0.118E-01
RMM:   6    -0.232258723755E+04   -0.45775E-04   -0.86377E-04  5086   0.204E-02    0.135E-01
RMM:   7    -0.232258708857E+04    0.14899E-03   -0.22380E-04  4068   0.110E-02    0.374E-02
RMM:   8    -0.232258707504E+04    0.13527E-04   -0.40436E-05  2948   0.481E-03    0.160E-02
RMM:   9    -0.232258707137E+04    0.36650E-05   -0.10678E-05  2891   0.346E-03
  18 F= -.23435222E+04 E0= -.23435222E+04  d E =-.185150E-01  mag=     6.0000
       N       E                     dE             d eps       ncg     rms          rms(c)
DAV:   1    -0.232257668819E+04    0.10387E-01   -0.17374E+00  4560   0.117E+00    0.306E-01
RMM:   2    -0.232258846352E+04   -0.11775E-01   -0.12245E-01  5868   0.210E-01    0.241E-01
RMM:   3    -0.232258890323E+04   -0.43971E-03   -0.10884E-02  5484   0.722E-02    0.221E-01
RMM:   4    -0.232258845495E+04    0.44828E-03   -0.10821E-03  4501   0.177E-02    0.883E-02
RMM:   5    -0.232258835258E+04    0.10237E-03   -0.29295E-04  4135   0.116E-02    0.503E-02
RMM:   6    -0.232258836429E+04   -0.11715E-04   -0.16083E-04  3811   0.957E-03    0.613E-02
RMM:   7    -0.232258833339E+04    0.30904E-04   -0.43789E-05  2955   0.628E-03    0.137E-02
RMM:   8    -0.232258833191E+04    0.14755E-05   -0.88852E-06  2871   0.329E-03
  19 F= -.23435235E+04 E0= -.23435235E+04  d E =-.198096E-01  mag=     6.0000
       N       E                     dE             d eps       ncg     rms          rms(c)
DAV:   1    -0.232258089057E+04    0.74428E-02   -0.17015E+00  4496   0.122E+00    0.353E-01
RMM:   2    -0.232259562666E+04   -0.14736E-01   -0.15676E-01  5890   0.235E-01    0.233E-01
RMM:   3    -0.232259675762E+04   -0.11310E-02   -0.15373E-02  5546   0.857E-02    0.247E-01
RMM:   4    -0.232259622009E+04    0.53753E-03   -0.15149E-03  4879   0.201E-02    0.994E-02
RMM:   5    -0.232259611874E+04    0.10135E-03   -0.34135E-04  4433   0.129E-02    0.678E-02
RMM:   6    -0.232259611866E+04    0.79133E-07   -0.22105E-04  4040   0.104E-02    0.724E-02
RMM:   7    -0.232259607414E+04    0.44520E-04   -0.67864E-05  3243   0.742E-03    0.157E-02
RMM:   8    -0.232259607174E+04    0.23935E-05   -0.12006E-05  2897   0.405E-03
  20 F= -.23435315E+04 E0= -.23435315E+04  d E =-.793970E-02  mag=     6.0000
       N       E                     dE             d eps       ncg     rms          rms(c)
DAV:   1    -0.232253463270E+04    0.61441E-01   -0.71615E+00  4464   0.251E+00    0.725E-01
RMM:   2    -0.232259651857E+04   -0.61886E-01   -0.65975E-01  5908   0.480E-01    0.473E-01
RMM:   3    -0.232260172396E+04   -0.52054E-02   -0.67012E-02  5667   0.176E-01    0.519E-01
RMM:   4    -0.232259933394E+04    0.23900E-02   -0.64213E-03  5740   0.411E-02    0.204E-01
RMM:   5    -0.232259887348E+04    0.46046E-03   -0.14013E-03  5038   0.247E-02    0.130E-01
RMM:   6    -0.232259891340E+04   -0.39920E-04   -0.95574E-04  5264   0.200E-02    0.155E-01
RMM:   7    -0.232259870496E+04    0.20844E-03   -0.29361E-04  4692   0.127E-02    0.358E-02
RMM:   8    -0.232259868939E+04    0.15565E-04   -0.47122E-05  2942   0.511E-03    0.148E-02
RMM:   9    -0.232259868509E+04    0.42998E-05   -0.13949E-05  2905   0.366E-03
  21 F= -.23435345E+04 E0= -.23435345E+04  d E =-.109442E-01  mag=     6.0000
       N       E                     dE             d eps       ncg     rms          rms(c)
DAV:   1    -0.232259290903E+04    0.57804E-02   -0.77560E-01  4528   0.821E-01    0.239E-01
RMM:   2    -0.232259960584E+04   -0.66968E-02   -0.71023E-02  5941   0.158E-01    0.162E-01
RMM:   3    -0.232260009963E+04   -0.49379E-03   -0.69925E-03  5396   0.562E-02    0.164E-01
RMM:   4    -0.232259986106E+04    0.23857E-03   -0.68451E-04  3862   0.136E-02    0.672E-02
RMM:   5    -0.232259981850E+04    0.42558E-04   -0.15476E-04  3760   0.913E-03    0.484E-02
RMM:   6    -0.232259981431E+04    0.41950E-05   -0.96494E-05  3210   0.767E-03
  22 F= -.23435355E+04 E0= -.23435355E+04  d E =-.119476E-01  mag=     6.0000
       N       E                     dE             d eps       ncg     rms          rms(c)
DAV:   1    -0.232258290767E+04    0.16911E-01   -0.18717E+00  4512   0.126E+00    0.370E-01
RMM:   2    -0.232260556209E+04   -0.22654E-01   -0.24298E-01  6057   0.257E-01    0.216E-01
RMM:   3    -0.232260769243E+04   -0.21303E-02   -0.25408E-02  5691   0.978E-02    0.197E-01
RMM:   4    -0.232260753370E+04    0.15873E-03   -0.23099E-03  4477   0.199E-02    0.125E-01
RMM:   5    -0.232260737250E+04    0.16121E-03   -0.32164E-04  3973   0.120E-02    0.664E-02
RMM:   6    -0.232260733172E+04    0.40779E-04   -0.23825E-04  4304   0.109E-02    0.311E-02
RMM:   7    -0.232260732844E+04    0.32764E-05   -0.35284E-05  2918   0.711E-03
  23 F= -.23435433E+04 E0= -.23435433E+04  d E =-.779456E-02  mag=     6.0000
       N       E                     dE             d eps       ncg     rms          rms(c)
DAV:   1    -0.232251752070E+04    0.89811E-01   -0.73455E+00  4480   0.250E+00    0.741E-01
RMM:   2    -0.232260641415E+04   -0.88893E-01   -0.95841E-01  6019   0.510E-01    0.411E-01
RMM:   3    -0.232261504202E+04   -0.86279E-02   -0.10519E-01  5777   0.192E-01    0.350E-01
RMM:   4    -0.232261481065E+04    0.23137E-03   -0.91140E-03  5791   0.385E-02    0.263E-01
RMM:   5    -0.232261419603E+04    0.61462E-03   -0.12867E-03  4921   0.210E-02    0.146E-01
RMM:   6    -0.232261399068E+04    0.20535E-03   -0.10962E-03  4941   0.207E-02    0.570E-02
RMM:   7    -0.232261396654E+04    0.24147E-04   -0.14109E-04  3445   0.120E-02    0.484E-02
RMM:   8    -0.232261394896E+04    0.17580E-04   -0.52448E-05  2939   0.481E-03    0.272E-02
RMM:   9    -0.232261393951E+04    0.94436E-05   -0.20484E-05  2892   0.360E-03
  24 F= -.23435504E+04 E0= -.23435504E+04  d E =-.149362E-01  mag=     6.0000
       N       E                     dE             d eps       ncg     rms          rms(c)
DAV:   1    -0.232256208076E+04    0.51868E-01   -0.36140E+00  4464   0.171E+00    0.562E-01
RMM:   2    -0.232261976760E+04   -0.57687E-01   -0.61834E-01  6092   0.380E-01    0.325E-01
RMM:   3    -0.232262506140E+04   -0.52938E-02   -0.65498E-02  5750   0.146E-01    0.239E-01
RMM:   4    -0.232262508872E+04   -0.27318E-04   -0.55770E-03  5309   0.276E-02    0.188E-01
RMM:   5    -0.232262477351E+04    0.31521E-03   -0.73825E-04  4740   0.161E-02    0.111E-01
RMM:   6    -0.232262463793E+04    0.13559E-03   -0.44617E-04  4672   0.133E-02    0.319E-02
RMM:   7    -0.232262463983E+04   -0.19063E-05   -0.68146E-05  3039   0.894E-03
  25 F= -.23435614E+04 E0= -.23435614E+04  d E =-.109726E-01  mag=     6.0000
       N       E                     dE             d eps       ncg     rms          rms(c)
DAV:   1    -0.232243381324E+04    0.19082E+00   -0.11057E+01  4464   0.300E+00    0.100E+00
RMM:   2    -0.232261312578E+04   -0.17931E+00   -0.19163E+00  6132   0.676E-01    0.650E-01
RMM:   3    -0.232262915273E+04   -0.16027E-01   -0.20880E-01  5834   0.253E-01    0.487E-01
RMM:   4    -0.232262845034E+04    0.70239E-03   -0.17272E-02  5786   0.499E-02    0.329E-01
RMM:   5    -0.232262751292E+04    0.93742E-03   -0.24294E-03  5346   0.281E-02    0.209E-01
RMM:   6    -0.232262718283E+04    0.33009E-03   -0.15766E-03  4984   0.225E-02    0.152E-01
RMM:   7    -0.232262705558E+04    0.12725E-03   -0.53731E-04  4310   0.162E-02    0.896E-02
RMM:   8    -0.232262697805E+04    0.77526E-04   -0.13014E-04  3584   0.734E-03    0.298E-02
RMM:   9    -0.232262696805E+04    0.10002E-04   -0.24845E-05  2902   0.520E-03    0.132E-02
RMM:  10    -0.232262696498E+04    0.30727E-05   -0.12713E-05  2893   0.302E-03
  26 F= -.23435642E+04 E0= -.23435642E+04  d E =-.137500E-01  mag=     6.0000
       N       E                     dE             d eps       ncg     rms          rms(c)
DAV:   1    -0.232260409674E+04    0.22871E-01   -0.14172E+00  4512   0.108E+00    0.349E-01
RMM:   2    -0.232262641154E+04   -0.22315E-01   -0.23982E-01  6057   0.237E-01    0.186E-01
RMM:   3    -0.232262860026E+04   -0.21887E-02   -0.26495E-02  5609   0.970E-02    0.130E-01
RMM:   4    -0.232262869410E+04   -0.93834E-04   -0.22253E-03  4190   0.177E-02    0.125E-01
RMM:   5    -0.232262855727E+04    0.13682E-03   -0.25103E-04  3625   0.986E-03    0.674E-02
RMM:   6    -0.232262851064E+04    0.46632E-04   -0.21753E-04  4283   0.101E-02    0.270E-02
RMM:   7    -0.232262851463E+04   -0.39836E-05   -0.39321E-05  2912   0.677E-03
  27 F= -.23435655E+04 E0= -.23435655E+04  d E =-.151413E-01  mag=     6.0000
       N       E                     dE             d eps       ncg     rms          rms(c)
DAV:   1    -0.232256098014E+04    0.67530E-01   -0.41151E+00  4480   0.174E+00    0.609E-01
RMM:   2    -0.232263082810E+04   -0.69848E-01   -0.74983E-01  6163   0.398E-01    0.359E-01
RMM:   3    -0.232263753644E+04   -0.67083E-02   -0.80796E-02  5821   0.149E-01    0.272E-01
RMM:   4    -0.232263751373E+04    0.22710E-04   -0.68305E-03  5359   0.288E-02    0.204E-01
RMM:   5    -0.232263713723E+04    0.37650E-03   -0.79506E-04  4596   0.163E-02    0.123E-01
RMM:   6    -0.232263700031E+04    0.13692E-03   -0.60949E-04  4617   0.139E-02    0.833E-02
RMM:   7    -0.232263696662E+04    0.33691E-04   -0.18767E-04  3230   0.105E-02    0.536E-02
RMM:   8    -0.232263693693E+04    0.29692E-04   -0.41773E-05  2969   0.493E-03    0.156E-02
RMM:   9    -0.232263693356E+04    0.33659E-05   -0.11414E-05  2876   0.351E-03
  28 F= -.23435739E+04 E0= -.23435739E+04  d E =-.834662E-02  mag=     6.0000
       N       E                     dE             d eps       ncg     rms          rms(c)
DAV:   1    -0.232258535250E+04    0.51584E-01   -0.29574E+00  4464   0.147E+00    0.517E-01
RMM:   2    -0.232263533983E+04   -0.49987E-01   -0.53762E-01  6208   0.336E-01    0.293E-01
RMM:   3    -0.232264010139E+04   -0.47616E-02   -0.56876E-02  5823   0.125E-01    0.216E-01
RMM:   4    -0.232264016956E+04   -0.68172E-04   -0.48812E-03  5010   0.242E-02    0.173E-01
RMM:   5    -0.232263990619E+04    0.26337E-03   -0.58308E-04  4363   0.141E-02    0.104E-01
RMM:   6    -0.232263980434E+04    0.10185E-03   -0.42015E-04  4464   0.119E-02    0.646E-02
RMM:   7    -0.232263978756E+04    0.16782E-04   -0.12457E-04  3045   0.905E-03    0.444E-02
RMM:   8    -0.232263976736E+04    0.20203E-04   -0.27135E-05  2929   0.421E-03    0.124E-02
RMM:   9    -0.232263976520E+04    0.21620E-05   -0.76172E-06  2868   0.299E-03
  29 F= -.23435766E+04 E0= -.23435766E+04  d E =-.110993E-01  mag=     6.0000
       N       E                     dE             d eps       ncg     rms          rms(c)
DAV:   1    -0.232258989650E+04    0.49871E-01   -0.33373E+00  4496   0.148E+00    0.543E-01
RMM:   2    -0.232264439067E+04   -0.54494E-01   -0.59236E-01  6181   0.350E-01    0.277E-01
RMM:   3    -0.232264942328E+04   -0.50326E-02   -0.62394E-02  5780   0.132E-01    0.178E-01
RMM:   4    -0.232264956454E+04   -0.14126E-03   -0.52353E-03  5049   0.255E-02    0.157E-01
RMM:   5    -0.232264945183E+04    0.11271E-03   -0.63746E-04  4066   0.137E-02    0.139E-01
RMM:   6    -0.232264924143E+04    0.21040E-03   -0.46976E-04  4770   0.128E-02    0.353E-02
RMM:   7    -0.232264923705E+04    0.43745E-05   -0.61586E-05  2996   0.793E-03
  30 F= -.23435858E+04 E0= -.23435858E+04  d E =-.913065E-02  mag=     6.0000
       N       E                     dE             d eps       ncg     rms          rms(c)
DAV:   1    -0.232255960619E+04    0.89635E-01   -0.51892E+00  4480   0.184E+00    0.683E-01
RMM:   2    -0.232264433424E+04   -0.84728E-01   -0.92308E-01  6186   0.438E-01    0.360E-01
RMM:   3    -0.232265230315E+04   -0.79689E-02   -0.98369E-02  5833   0.165E-01    0.245E-01
RMM:   4    -0.232265260009E+04   -0.29693E-03   -0.82354E-03  5469   0.315E-02    0.232E-01
RMM:   5    -0.232265217632E+04    0.42377E-03   -0.98482E-04  4853   0.173E-02    0.147E-01
RMM:   6    -0.232265191594E+04    0.26038E-03   -0.81303E-04  4874   0.159E-02    0.488E-02
RMM:   7    -0.232265192469E+04   -0.87519E-05   -0.13305E-04  3200   0.104E-02    0.555E-02
RMM:   8    -0.232265189581E+04    0.28879E-04   -0.48867E-05  2949   0.508E-03    0.217E-02
RMM:   9    -0.232265189002E+04    0.57895E-05   -0.20204E-05  2903   0.379E-03
  31 F= -.23435880E+04 E0= -.23435880E+04  d E =-.113165E-01  mag=     6.0000
       N       E                     dE             d eps       ncg     rms          rms(c)
DAV:   1    -0.232264488406E+04    0.70118E-02   -0.41326E-01  4608   0.522E-01    0.191E-01
RMM:   2    -0.232265159491E+04   -0.67108E-02   -0.72631E-02  6186   0.122E-01    0.104E-01
RMM:   3    -0.232265222118E+04   -0.62627E-03   -0.75398E-03  4897   0.466E-02    0.754E-02
RMM:   4    -0.232265223558E+04   -0.14399E-04   -0.64683E-04  3113   0.943E-03    0.653E-02
RMM:   5    -0.232265219887E+04    0.36707E-04   -0.78261E-05  2966   0.598E-03    0.398E-02
RMM:   6    -0.232265218687E+04    0.12002E-04   -0.60534E-05  3053   0.554E-03    0.266E-02
RMM:   7    -0.232265218548E+04    0.13856E-05   -0.21818E-05  2911   0.467E-03
  32 F= -.23435884E+04 E0= -.23435884E+04  d E =-.117485E-01  mag=     6.0000
       N       E                     dE             d eps       ncg     rms          rms(c)
DAV:   1    -0.232260993485E+04    0.42252E-01   -0.29330E+00  4496   0.134E+00    0.508E-01
RMM:   2    -0.232265677329E+04   -0.46838E-01   -0.50532E-01  6256   0.315E-01    0.269E-01
RMM:   3    -0.232266152632E+04   -0.47530E-02   -0.53008E-02  5795   0.116E-01    0.252E-01
RMM:   4    -0.232266132607E+04    0.20025E-03   -0.47785E-03  4575   0.245E-02    0.155E-01
RMM:   5    -0.232266111243E+04    0.21364E-03   -0.44233E-04  3630   0.117E-02    0.973E-02
RMM:   6    -0.232266109492E+04    0.17509E-04   -0.42312E-04  4402   0.119E-02    0.990E-02
RMM:   7    -0.232266101507E+04    0.79858E-04   -0.15371E-04  3211   0.835E-03    0.391E-02
RMM:   8    -0.232266100186E+04    0.13203E-04   -0.27197E-05  2942   0.444E-03    0.110E-02
RMM:   9    -0.232266100070E+04    0.11645E-05   -0.78807E-06  2871   0.276E-03
  33 F= -.23435967E+04 E0= -.23435967E+04  d E =-.833964E-02  mag=     6.0000
       N       E                     dE             d eps       ncg     rms          rms(c)
DAV:   1    -0.232220284489E+04    0.45816E+00   -0.26313E+01  4480   0.403E+00    0.155E+00
RMM:   2    -0.232263457183E+04   -0.43173E+00   -0.46811E+00  6356   0.972E-01    0.781E-01
RMM:   3    -0.232267565377E+04   -0.41082E-01   -0.48892E-01  5922   0.338E-01    0.568E-01
RMM:   4    -0.232267655091E+04   -0.89714E-03   -0.41128E-02  5893   0.696E-02    0.437E-01
RMM:   5    -0.232267569697E+04    0.85394E-03   -0.43475E-03  5426   0.309E-02    0.400E-01
RMM:   6    -0.232267413196E+04    0.15650E-02   -0.38935E-03  5439   0.326E-02    0.136E-01
RMM:   7    -0.232267411452E+04    0.17441E-04   -0.73082E-04  4570   0.175E-02    0.106E-01
RMM:   8    -0.232267404973E+04    0.64783E-04   -0.24968E-04  3269   0.998E-03    0.728E-02
RMM:   9    -0.232267400074E+04    0.48996E-04   -0.97273E-05  3036   0.655E-03    0.210E-02
RMM:  10    -0.232267399966E+04    0.10778E-05   -0.25783E-05  2968   0.380E-03
  34 F= -.23436081E+04 E0= -.23436081E+04  d E =-.197378E-01  mag=     6.0000
       N       E                     dE             d eps       ncg     rms          rms(c)
DAV:   1    -0.232265623990E+04    0.17761E-01   -0.13144E+00  4544   0.904E-01    0.355E-01
RMM:   2    -0.232267960040E+04   -0.23360E-01   -0.25083E-01  6385   0.221E-01    0.200E-01
RMM:   3    -0.232268191524E+04   -0.23148E-02   -0.24952E-02  5636   0.781E-02    0.197E-01
RMM:   4    -0.232268171754E+04    0.19770E-03   -0.23225E-03  3731   0.172E-02    0.100E-01
RMM:   5    -0.232268162954E+04    0.87998E-04   -0.18273E-04  3141   0.818E-03    0.606E-02
RMM:   6    -0.232268162699E+04    0.25496E-05   -0.16947E-04  3774   0.817E-03    0.573E-02
RMM:   7    -0.232268160200E+04    0.24999E-04   -0.57064E-05  2933   0.604E-03    0.261E-02
RMM:   8    -0.232268159741E+04    0.45849E-05   -0.94258E-06  2855   0.268E-03
  35 F= -.23436153E+04 E0= -.23436153E+04  d E =-.717495E-02  mag=     6.0000
       N       E                     dE             d eps       ncg     rms          rms(c)
DAV:   1    -0.232246933052E+04    0.21227E+00   -0.11793E+01  4464   0.272E+00    0.107E+00
RMM:   2    -0.232267892163E+04   -0.20959E+00   -0.22603E+00  6404   0.672E-01    0.559E-01
RMM:   3    -0.232270208024E+04   -0.23159E-01   -0.25511E-01  5961   0.246E-01    0.524E-01
RMM:   4    -0.232270148730E+04    0.59294E-03   -0.21348E-02  5844   0.502E-02    0.318E-01
RMM:   5    -0.232270068655E+04    0.80075E-03   -0.18657E-03  4731   0.211E-02    0.209E-01
RMM:   6    -0.232270031653E+04    0.37002E-03   -0.15901E-03  5190   0.212E-02    0.108E-01
RMM:   7    -0.232270036880E+04   -0.52263E-04   -0.42746E-04  3971   0.138E-02    0.115E-01
RMM:   8    -0.232270023826E+04    0.13054E-03   -0.14370E-04  3103   0.728E-03    0.300E-02
RMM:   9    -0.232270023464E+04    0.36222E-05   -0.33509E-05  2934   0.453E-03
  36 F= -.23436326E+04 E0= -.23436326E+04  d E =-.244787E-01  mag=     6.0000
       N       E                     dE             d eps       ncg     rms          rms(c)
DAV:   1    -0.232176311774E+04    0.93712E+00   -0.46986E+01  4464   0.546E+00    0.217E+00
RMM:   2    -0.232263177528E+04   -0.86866E+00   -0.93564E+00  6463   0.139E+00    0.118E+00
RMM:   3    -0.232272303648E+04   -0.91261E-01   -0.10550E+00  5969   0.517E-01    0.106E+00
RMM:   4    -0.232272208738E+04    0.94910E-03   -0.86407E-02  6126   0.975E-02    0.724E-01
RMM:   5    -0.232271820746E+04    0.38799E-02   -0.85473E-03  5651   0.417E-02    0.451E-01
RMM:   6    -0.232271625590E+04    0.19516E-02   -0.63725E-03  5062   0.406E-02    0.178E-01
RMM:   7    -0.232271613883E+04    0.11707E-03   -0.12594E-03  4865   0.260E-02    0.898E-02
RMM:   8    -0.232271619996E+04   -0.61137E-04   -0.46161E-04  3888   0.133E-02    0.105E-01
RMM:   9    -0.232271610060E+04    0.99366E-04   -0.14225E-04  3029   0.790E-03    0.380E-02
RMM:  10    -0.232271608871E+04    0.11888E-04   -0.36820E-05  3005   0.438E-03    0.145E-02
RMM:  11    -0.232271609035E+04   -0.16419E-05   -0.12429E-05  2921   0.332E-03
  37 F= -.23436455E+04 E0= -.23436455E+04  d E =-.373833E-01  mag=     6.0000
       N       E                     dE             d eps       ncg     rms          rms(c)
DAV:   1    -0.232261477399E+04    0.10131E+00   -0.56244E+00  4480   0.192E+00    0.772E-01
RMM:   2    -0.232272225531E+04   -0.10748E+00   -0.11515E+00  6413   0.476E-01    0.435E-01
RMM:   3    -0.232273425794E+04   -0.12003E-01   -0.13039E-01  5940   0.191E-01    0.403E-01
RMM:   4    -0.232273357555E+04    0.68239E-03   -0.11183E-02  5462   0.369E-02    0.209E-01
RMM:   5    -0.232273323868E+04    0.33687E-03   -0.84030E-04  4291   0.150E-02    0.145E-01
RMM:   6    -0.232273328599E+04   -0.47303E-04   -0.86761E-04  4706   0.151E-02    0.167E-01
RMM:   7    -0.232273306457E+04    0.22142E-03   -0.36615E-04  3983   0.111E-02    0.551E-02
RMM:   8    -0.232273303427E+04    0.30303E-04   -0.62310E-05  3013   0.637E-03    0.160E-02
RMM:   9    -0.232273303357E+04    0.69785E-06   -0.13616E-05  2899   0.362E-03
  38 F= -.23436612E+04 E0= -.23436612E+04  d E =-.157328E-01  mag=     6.0000
       N       E                     dE             d eps       ncg     rms          rms(c)
DAV:   1    -0.232165126404E+04    0.10818E+01   -0.49813E+01  4464   0.574E+00    0.233E+00
RMM:   2    -0.232265781019E+04   -0.10065E+01   -0.10807E+01  6477   0.146E+00    0.131E+00
RMM:   3    -0.232277065063E+04   -0.11284E+00   -0.12576E+00  5996   0.572E-01    0.126E+00
RMM:   4    -0.232276518784E+04    0.54628E-02   -0.10030E-01  6195   0.107E-01    0.722E-01
RMM:   5    -0.232276137774E+04    0.38101E-02   -0.89633E-03  5575   0.426E-02    0.471E-01
RMM:   6    -0.232276025799E+04    0.11197E-02   -0.71455E-03  5277   0.412E-02    0.358E-01
RMM:   7    -0.232275979525E+04    0.46274E-03   -0.38348E-03  5573   0.328E-02    0.254E-01
RMM:   8    -0.232275912870E+04    0.66655E-03   -0.78222E-04  4641   0.166E-02    0.690E-02
RMM:   9    -0.232275908738E+04    0.41320E-04   -0.17973E-04  3208   0.921E-03    0.315E-02
RMM:  10    -0.232275907990E+04    0.74851E-05   -0.49382E-05  3003   0.517E-03
  39 F= -.23436834E+04 E0= -.23436834E+04  d E =-.378764E-01  mag=     6.0000
       N       E                     dE             d eps       ncg     rms          rms(c)
DAV:   1    -0.232272010580E+04    0.38982E-01   -0.34995E+00  4576   0.160E+00    0.665E-01
RMM:   2    -0.232278698485E+04   -0.66879E-01   -0.70643E-01  6214   0.393E-01    0.443E-01
RMM:   3    -0.232279273129E+04   -0.57464E-02   -0.73925E-02  5978   0.143E-01    0.341E-01
RMM:   4    -0.232279181013E+04    0.92116E-03   -0.67171E-03  5531   0.315E-02    0.162E-01
RMM:   5    -0.232279154453E+04    0.26560E-03   -0.60186E-04  4401   0.148E-02    0.950E-02
RMM:   6    -0.232279154611E+04   -0.15871E-05   -0.54705E-04  4769   0.143E-02    0.930E-02
RMM:   7    -0.232279148685E+04    0.59259E-04   -0.13661E-04  3087   0.876E-03    0.398E-02
RMM:   8    -0.232279147094E+04    0.15912E-04   -0.27546E-05  2926   0.423E-03    0.135E-02
RMM:   9    -0.232279146990E+04    0.10470E-05   -0.10983E-05  2874   0.282E-03
  40 F= -.23437144E+04 E0= -.23437144E+04  d E =-.310570E-01  mag=     6.0000
       N       E                     dE             d eps       ncg     rms          rms(c)
DAV:   1    -0.232218010582E+04    0.61137E+00   -0.31320E+01  4480   0.481E+00    0.198E+00
RMM:   2    -0.232278984593E+04   -0.60974E+00   -0.64783E+00  6235   0.120E+00    0.122E+00
RMM:   3    -0.232285281827E+04   -0.62972E-01   -0.74692E-01  6004   0.444E-01    0.104E+00
RMM:   4    -0.232284397409E+04    0.88442E-02   -0.60674E-02  6224   0.954E-02    0.512E-01
RMM:   5    -0.232284163313E+04    0.23410E-02   -0.64335E-03  5391   0.424E-02    0.351E-01
RMM:   6    -0.232284208135E+04   -0.44822E-03   -0.66147E-03  5423   0.391E-02    0.441E-01
RMM:   7    -0.232284070251E+04    0.13788E-02   -0.24591E-03  5389   0.278E-02    0.144E-01
RMM:   8    -0.232284046117E+04    0.24134E-03   -0.42787E-04  4063   0.125E-02    0.475E-02
RMM:   9    -0.232284043245E+04    0.28721E-04   -0.13195E-04  3161   0.821E-03    0.207E-02
RMM:  10    -0.232284043177E+04    0.68180E-06   -0.42506E-05  2997   0.479E-03
  41 F= -.23437590E+04 E0= -.23437590E+04  d E =-.756460E-01  mag=     6.0000
       N       E                     dE             d eps       ncg     rms          rms(c)
DAV:   1    -0.232276019979E+04    0.80233E-01   -0.74608E+00  4480   0.263E+00    0.107E+00
RMM:   2    -0.232287100542E+04   -0.11081E+00   -0.11637E+00  5976   0.607E-01    0.751E-01
RMM:   3    -0.232287694238E+04   -0.59370E-02   -0.12423E-01  5884   0.220E-01    0.541E-01
RMM:   4    -0.232287380334E+04    0.31390E-02   -0.11960E-02  5681   0.542E-02    0.247E-01
RMM:   5    -0.232287365352E+04    0.14982E-03   -0.25706E-03  5140   0.326E-02    0.290E-01
RMM:   6    -0.232287293281E+04    0.72070E-03   -0.15483E-03  5401   0.249E-02    0.139E-01
RMM:   7    -0.232287275776E+04    0.17505E-03   -0.36446E-04  4777   0.164E-02    0.371E-02
RMM:   8    -0.232287272147E+04    0.36294E-04   -0.74823E-05  3490   0.773E-03    0.201E-02
RMM:   9    -0.232287270209E+04    0.19374E-04   -0.33035E-05  3131   0.557E-03    0.856E-03
RMM:  10    -0.232287269566E+04    0.64298E-05   -0.15392E-05  2902   0.432E-03
  42 F= -.23437891E+04 E0= -.23437891E+04  d E =-.300968E-01  mag=     6.0000
       N       E                     dE             d eps       ncg     rms          rms(c)
DAV:   1    -0.232287221108E+04    0.49101E-03   -0.59567E-02  5280   0.236E-01    0.951E-02
RMM:   2    -0.232287308586E+04   -0.87478E-03   -0.92000E-03  6120   0.559E-02    0.682E-02
RMM:   3    -0.232287312541E+04   -0.39543E-04   -0.95196E-04  3737   0.209E-02    0.472E-02
RMM:   4    -0.232287310263E+04    0.22782E-04   -0.95109E-05  3016   0.617E-03    0.239E-02
RMM:   5    -0.232287310151E+04    0.11157E-05   -0.22888E-05  2902   0.398E-03
  43 F= -.23437893E+04 E0= -.23437893E+04  d E =-.302954E-01  mag=     6.0000
       N       E                     dE             d eps       ncg     rms          rms(c)
DAV:   1    -0.232285350020E+04    0.19602E-01   -0.31331E+00  4496   0.171E+00    0.613E-01
RMM:   2    -0.232289373627E+04   -0.40236E-01   -0.41070E-01  5960   0.368E-01    0.526E-01
RMM:   3    -0.232289399038E+04   -0.25411E-03   -0.40342E-02  5815   0.127E-01    0.293E-01
RMM:   4    -0.232289325804E+04    0.73234E-03   -0.40163E-03  5265   0.303E-02    0.139E-01
RMM:   5    -0.232289313417E+04    0.12387E-03   -0.64179E-04  4913   0.190E-02    0.125E-01
RMM:   6    -0.232289310018E+04    0.33989E-04   -0.48058E-04  4706   0.139E-02    0.117E-01
RMM:   7    -0.232289299875E+04    0.10143E-03   -0.13169E-04  3514   0.931E-03    0.165E-02
RMM:   8    -0.232289299502E+04    0.37290E-05   -0.20722E-05  2939   0.500E-03
  44 F= -.23438077E+04 E0= -.23438077E+04  d E =-.183405E-01  mag=     6.0000
       N       E                     dE             d eps       ncg     rms          rms(c)
DAV:   1    -0.232284434918E+04    0.48650E-01   -0.46445E+00  4480   0.208E+00    0.746E-01
RMM:   2    -0.232290421805E+04   -0.59869E-01   -0.61199E-01  5982   0.450E-01    0.630E-01
RMM:   3    -0.232290459199E+04   -0.37393E-03   -0.60092E-02  5827   0.155E-01    0.351E-01
RMM:   4    -0.232290359971E+04    0.99228E-03   -0.59891E-03  5327   0.367E-02    0.173E-01
RMM:   5    -0.232290356539E+04    0.34320E-04   -0.10751E-03  5139   0.227E-02    0.202E-01
RMM:   6    -0.232290325622E+04    0.30916E-03   -0.74607E-04  5066   0.170E-02    0.104E-01
RMM:   7    -0.232290318643E+04    0.69797E-04   -0.18186E-04  4067   0.115E-02    0.218E-02
RMM:   8    -0.232290317927E+04    0.71623E-05   -0.28056E-05  2945   0.553E-03
  45 F= -.23438158E+04 E0= -.23438158E+04  d E =-.264598E-01  mag=     6.0000
       N       E                     dE             d eps       ncg     rms          rms(c)
DAV:   1    -0.232289256663E+04    0.10620E-01   -0.24521E+00  4480   0.154E+00    0.500E-01
RMM:   2    -0.232292153022E+04   -0.28964E-01   -0.29893E-01  5978   0.318E-01    0.404E-01
RMM:   3    -0.232292232026E+04   -0.79004E-03   -0.27738E-02  5693   0.109E-01    0.256E-01
RMM:   4    -0.232292181593E+04    0.50433E-03   -0.28201E-03  5165   0.251E-02    0.130E-01
RMM:   5    -0.232292182551E+04   -0.95812E-05   -0.56400E-04  4603   0.151E-02    0.155E-01
RMM:   6    -0.232292160777E+04    0.21773E-03   -0.41419E-04  4725   0.133E-02    0.570E-02
RMM:   7    -0.232292159851E+04    0.92693E-05   -0.87669E-05  3319   0.903E-03
  46 F= -.23438328E+04 E0= -.23438328E+04  d E =-.170588E-01  mag=     6.0000
       N       E                     dE             d eps       ncg     rms          rms(c)
DAV:   1    -0.232267981644E+04    0.24179E+00   -0.22024E+01  4480   0.461E+00    0.148E+00
RMM:   2    -0.232293964353E+04   -0.25983E+00   -0.26792E+00  5982   0.930E-01    0.119E+00
RMM:   3    -0.232295048016E+04   -0.10837E-01   -0.27988E-01  5701   0.348E-01    0.790E-01
RMM:   4    -0.232294621837E+04    0.42618E-02   -0.26059E-02  5559   0.768E-02    0.407E-01
RMM:   5    -0.232294615197E+04    0.66396E-04   -0.53089E-03  5445   0.425E-02    0.453E-01
RMM:   6    -0.232294417868E+04    0.19733E-02   -0.36491E-03  5406   0.380E-02    0.155E-01
RMM:   7    -0.232294414426E+04    0.34416E-04   -0.81831E-04  4755   0.233E-02    0.723E-02
RMM:   8    -0.232294410132E+04    0.42938E-04   -0.14207E-04  3754   0.100E-02    0.292E-02
RMM:   9    -0.232294408780E+04    0.13522E-04   -0.44260E-05  2934   0.651E-03    0.117E-02
RMM:  10    -0.232294408620E+04    0.15961E-05   -0.15416E-05  2900   0.368E-03
  47 F= -.23438508E+04 E0= -.23438508E+04  d E =-.350482E-01  mag=     6.0000
       N       E                     dE             d eps       ncg     rms          rms(c)
DAV:   1    -0.232292691921E+04    0.17169E-01   -0.29157E+00  4512   0.167E+00    0.511E-01
RMM:   2    -0.232295866604E+04   -0.31747E-01   -0.32897E-01  5954   0.329E-01    0.400E-01
RMM:   3    -0.232295970893E+04   -0.10429E-02   -0.30910E-02  5630   0.118E-01    0.258E-01
RMM:   4    -0.232295919897E+04    0.50997E-03   -0.31058E-03  5280   0.262E-02    0.142E-01
RMM:   5    -0.232295918326E+04    0.15709E-04   -0.61400E-04  4531   0.154E-02    0.163E-01
RMM:   6    -0.232295893998E+04    0.24328E-03   -0.51020E-04  4916   0.145E-02    0.622E-02
RMM:   7    -0.232295892920E+04    0.10781E-04   -0.94989E-05  3362   0.920E-03    0.255E-02
RMM:   8    -0.232295892302E+04    0.61789E-05   -0.19173E-05  2902   0.454E-03
  48 F= -.23438638E+04 E0= -.23438638E+04  d E =-.129280E-01  mag=     6.0000
       N       E                     dE             d eps       ncg     rms          rms(c)
DAV:   1    -0.232286490529E+04    0.94024E-01   -0.95880E+00  4480   0.302E+00    0.921E-01
RMM:   2    -0.232296929863E+04   -0.10439E+00   -0.10803E+00  5932   0.591E-01    0.730E-01
RMM:   3    -0.232297304538E+04   -0.37468E-02   -0.10417E-01  5608   0.220E-01    0.487E-01
RMM:   4    -0.232297126852E+04    0.17769E-02   -0.10180E-02  5658   0.477E-02    0.263E-01
RMM:   5    -0.232297120619E+04    0.62323E-04   -0.20868E-03  5130   0.264E-02    0.296E-01
RMM:   6    -0.232297039532E+04    0.81088E-03   -0.16812E-03  5380   0.253E-02    0.111E-01
RMM:   7    -0.232297036704E+04    0.28276E-04   -0.32526E-04  4460   0.150E-02    0.516E-02
RMM:   8    -0.232297034213E+04    0.24906E-04   -0.61079E-05  3080   0.672E-03    0.195E-02
RMM:   9    -0.232297033548E+04    0.66540E-05   -0.23822E-05  2884   0.455E-03
  49 F= -.23438716E+04 E0= -.23438716E+04  d E =-.207690E-01  mag=     6.0000
       N       E                     dE             d eps       ncg     rms          rms(c)
DAV:   1    -0.232297326955E+04   -0.29274E-02   -0.11736E+00  4624   0.110E+00    0.351E-01
RMM:   2    -0.232298547825E+04   -0.12209E-01   -0.13102E-01  5883   0.216E-01    0.194E-01
RMM:   3    -0.232298628166E+04   -0.80342E-03   -0.13377E-02  5563   0.826E-02    0.135E-01
RMM:   4    -0.232298616090E+04    0.12076E-03   -0.13599E-03  4987   0.189E-02    0.979E-02
RMM:   5    -0.232298610875E+04    0.52156E-04   -0.37891E-04  4627   0.139E-02    0.998E-02
RMM:   6    -0.232298604444E+04    0.64313E-04   -0.18790E-04  3622   0.929E-03    0.466E-02
RMM:   7    -0.232298602437E+04    0.20061E-04   -0.42020E-05  2981   0.682E-03    0.141E-02
RMM:   8    -0.232298602112E+04    0.32557E-05   -0.11560E-05  2904   0.390E-03
  50 F= -.23438863E+04 E0= -.23438863E+04  d E =-.146844E-01  mag=     6.0000
       N       E                     dE             d eps       ncg     rms          rms(c)
DAV:   1    -0.232295181817E+04    0.34206E-01   -0.42887E+00  4480   0.211E+00    0.671E-01
RMM:   2    -0.232299657963E+04   -0.44761E-01   -0.48126E-01  5888   0.417E-01    0.377E-01
RMM:   3    -0.232299964310E+04   -0.30635E-02   -0.50607E-02  5625   0.158E-01    0.271E-01
RMM:   4    -0.232299919822E+04    0.44488E-03   -0.50363E-03  5496   0.357E-02    0.200E-01
RMM:   5    -0.232299902004E+04    0.17818E-03   -0.13474E-03  5258   0.246E-02    0.205E-01
RMM:   6    -0.232299872005E+04    0.29999E-03   -0.83253E-04  4836   0.176E-02    0.838E-02
RMM:   7    -0.232299864607E+04    0.73978E-04   -0.17114E-04  4212   0.116E-02    0.300E-02
RMM:   8    -0.232299862976E+04    0.16311E-04   -0.39612E-05  3080   0.533E-03    0.140E-02
RMM:   9    -0.232299862355E+04    0.62157E-05   -0.13260E-05  2882   0.410E-03
  51 F= -.23438970E+04 E0= -.23438970E+04  d E =-.253667E-01  mag=     6.0000
       N       E                     dE             d eps       ncg     rms          rms(c)
DAV:   1    -0.232297997932E+04    0.18650E-01   -0.24525E+00  4496   0.160E+00    0.509E-01
RMM:   2    -0.232301161872E+04   -0.31639E-01   -0.33928E-01  5948   0.330E-01    0.271E-01
RMM:   3    -0.232301422899E+04   -0.26103E-02   -0.36111E-02  5586   0.126E-01    0.206E-01
RMM:   4    -0.232301421497E+04    0.14018E-04   -0.35848E-03  5168   0.262E-02    0.174E-01
RMM:   5    -0.232301396932E+04    0.24565E-03   -0.75089E-04  5054   0.179E-02    0.119E-01
RMM:   6    -0.232301384520E+04    0.12413E-03   -0.46306E-04  4830   0.141E-02    0.516E-02
RMM:   7    -0.232301382453E+04    0.20672E-04   -0.93420E-05  3183   0.952E-03    0.338E-02
RMM:   8    -0.232301381049E+04    0.14036E-04   -0.26609E-05  2991   0.428E-03    0.117E-02
RMM:   9    -0.232301380699E+04    0.35026E-05   -0.80960E-06  2877   0.316E-03
  52 F= -.23439118E+04 E0= -.23439118E+04  d E =-.148082E-01  mag=     6.0000
       N       E                     dE             d eps       ncg     rms          rms(c)
DAV:   1    -0.232300286183E+04    0.10949E-01   -0.10347E+00  4544   0.104E+00    0.330E-01
RMM:   2    -0.232301612393E+04   -0.13262E-01   -0.14250E-01  5930   0.215E-01    0.170E-01
RMM:   3    -0.232301713717E+04   -0.10132E-02   -0.14377E-02  5537   0.782E-02    0.123E-01
RMM:   4    -0.232301714893E+04   -0.11759E-04   -0.14824E-03  4571   0.171E-02    0.113E-01
RMM:   5    -0.232301704656E+04    0.10237E-03   -0.31445E-04  4319   0.120E-02    0.777E-02
RMM:   6    -0.232301699151E+04    0.55056E-04   -0.18547E-04  4223   0.968E-03    0.296E-02
RMM:   7    -0.232301698482E+04    0.66897E-05   -0.36269E-05  2938   0.692E-03
  53 F= -.23439147E+04 E0= -.23439147E+04  d E =-.177403E-01  mag=     6.0000
       N       E                     dE             d eps       ncg     rms          rms(c)
DAV:   1    -0.232300870539E+04    0.82861E-02   -0.12823E+00  4496   0.115E+00    0.342E-01
RMM:   2    -0.232302565106E+04   -0.16946E-01   -0.18219E-01  5900   0.230E-01    0.181E-01
RMM:   3    -0.232302702866E+04   -0.13776E-02   -0.17969E-02  5470   0.851E-02    0.115E-01
RMM:   4    -0.232302708816E+04   -0.59501E-04   -0.19724E-03  4857   0.197E-02    0.129E-01
RMM:   5    -0.232302695988E+04    0.12828E-03   -0.32689E-04  4025   0.126E-02    0.707E-02
RMM:   6    -0.232302692243E+04    0.37453E-04   -0.17594E-04  4246   0.963E-03    0.369E-02
RMM:   7    -0.232302691382E+04    0.86099E-05   -0.45161E-05  2951   0.724E-03
  54 F= -.23439247E+04 E0= -.23439247E+04  d E =-.100186E-01  mag=     6.0000
       N       E                     dE             d eps       ncg     rms          rms(c)
DAV:   1    -0.232295415364E+04    0.72769E-01   -0.54371E+00  4480   0.237E+00    0.705E-01
RMM:   2    -0.232302622168E+04   -0.72068E-01   -0.77491E-01  5924   0.477E-01    0.383E-01
RMM:   3    -0.232303211287E+04   -0.58912E-02   -0.78683E-02  5575   0.173E-01    0.244E-01
RMM:   4    -0.232303223781E+04   -0.12494E-03   -0.82026E-03  4944   0.391E-02    0.227E-01
RMM:   5    -0.232303187900E+04    0.35881E-03   -0.14778E-03  5195   0.258E-02    0.185E-01
RMM:   6    -0.232303164895E+04    0.23006E-03   -0.81295E-04  4863   0.181E-02    0.962E-02
RMM:   7    -0.232303156643E+04    0.82514E-04   -0.28930E-04  4018   0.134E-02    0.497E-02
RMM:   8    -0.232303153790E+04    0.28534E-04   -0.47640E-05  3037   0.547E-03    0.155E-02
RMM:   9    -0.232303153468E+04    0.32156E-05   -0.16196E-05  2907   0.405E-03
  55 F= -.23439295E+04 E0= -.23439295E+04  d E =-.148038E-01  mag=     6.0000
       N       E                     dE             d eps       ncg     rms          rms(c)
DAV:   1    -0.232302650100E+04    0.50369E-02   -0.42014E-01  4592   0.659E-01    0.195E-01
RMM:   2    -0.232303205949E+04   -0.55585E-02   -0.59588E-02  5959   0.132E-01    0.109E-01
RMM:   3    -0.232303250276E+04   -0.44327E-03   -0.56398E-03  5333   0.486E-02    0.862E-02
RMM:   4    -0.232303250336E+04   -0.59766E-06   -0.61750E-04  3468   0.109E-02    0.715E-02
RMM:   5    -0.232303245122E+04    0.52136E-04   -0.12327E-04  3392   0.851E-03    0.357E-02
RMM:   6    -0.232303244457E+04    0.66526E-05   -0.62462E-05  3404   0.717E-03
  56 F= -.23439304E+04 E0= -.23439304E+04  d E =-.156703E-01  mag=     6.0000
       N       E                     dE             d eps       ncg     rms          rms(c)
DAV:   1    -0.232302678217E+04    0.56691E-02   -0.77082E-01  4512   0.854E-01    0.258E-01
RMM:   2    -0.232303876784E+04   -0.11986E-01   -0.12750E-01  6213   0.177E-01    0.155E-01
RMM:   3    -0.232303987903E+04   -0.11112E-02   -0.12428E-02  5642   0.650E-02    0.147E-01
RMM:   4    -0.232303980813E+04    0.70900E-04   -0.13123E-03  3577   0.138E-02    0.807E-02
RMM:   5    -0.232303973083E+04    0.77303E-04   -0.16035E-04  3348   0.835E-03    0.501E-02
RMM:   6    -0.232303972648E+04    0.43445E-05   -0.13536E-04  3698   0.822E-03    0.535E-02
RMM:   7    -0.232303970040E+04    0.26077E-04   -0.52225E-05  2979   0.638E-03    0.183E-02
RMM:   8    -0.232303969770E+04    0.27043E-05   -0.10844E-05  2888   0.350E-03
  57 F= -.23439376E+04 E0= -.23439376E+04  d E =-.720865E-02  mag=     6.0000
       N       E                     dE             d eps       ncg     rms          rms(c)
DAV:   1    -0.232293662096E+04    0.10308E+00   -0.69224E+00  4480   0.256E+00    0.776E-01
RMM:   2    -0.232304445161E+04   -0.10783E+00   -0.11541E+00  6097   0.530E-01    0.418E-01
RMM:   3    -0.232305435373E+04   -0.99021E-02   -0.11804E-01  5671   0.188E-01    0.276E-01
RMM:   4    -0.232305459158E+04   -0.23785E-03   -0.11831E-02  5496   0.394E-02    0.249E-01
RMM:   5    -0.232305413488E+04    0.45670E-03   -0.12622E-03  4919   0.196E-02    0.184E-01
RMM:   6    -0.232305392296E+04    0.21192E-03   -0.12637E-03  4884   0.203E-02    0.145E-01
RMM:   7    -0.232305375810E+04    0.16487E-03   -0.41771E-04  3971   0.145E-02    0.542E-02
RMM:   8    -0.232305372972E+04    0.28376E-04   -0.71883E-05  3144   0.588E-03    0.214E-02
RMM:   9    -0.232305372360E+04    0.61200E-05   -0.23468E-05  2892   0.422E-03
  58 F= -.23439515E+04 E0= -.23439515E+04  d E =-.210799E-01  mag=     6.0000
       N       E                     dE             d eps       ncg     rms          rms(c)
DAV:   1    -0.232256832837E+04    0.48540E+00   -0.27669E+01  4464   0.512E+00    0.157E+00
RMM:   2    -0.232301080042E+04   -0.44247E+00   -0.47280E+00  6167   0.108E+00    0.952E-01
RMM:   3    -0.232304890014E+04   -0.38100E-01   -0.49079E-01  5803   0.378E-01    0.639E-01
RMM:   4    -0.232304941399E+04   -0.51385E-03   -0.46331E-02  5582   0.769E-02    0.560E-01
RMM:   5    -0.232304687195E+04    0.25420E-02   -0.57721E-03  5476   0.410E-02    0.359E-01
RMM:   6    -0.232304538001E+04    0.14919E-02   -0.52501E-03  4741   0.403E-02    0.119E-01
RMM:   7    -0.232304544921E+04   -0.69200E-04   -0.11997E-03  4818   0.285E-02    0.135E-01
RMM:   8    -0.232304526394E+04    0.18527E-03   -0.30302E-04  4022   0.106E-02    0.465E-02
RMM:   9    -0.232304522993E+04    0.34008E-04   -0.10006E-04  3006   0.753E-03    0.168E-02
RMM:  10    -0.232304522817E+04    0.17586E-05   -0.26679E-05  2938   0.444E-03
  59 F= -.23439426E+04 E0= -.23439426E+04  d E =-.122145E-01  mag=     6.0000
       N       E                     dE             d eps       ncg     rms          rms(c)
DAV:   1    -0.232283681823E+04    0.20841E+00   -0.12909E+01  4464   0.350E+00    0.109E+00
RMM:   2    -0.232304656805E+04   -0.20975E+00   -0.21950E+00  6113   0.731E-01    0.971E-01
RMM:   3    -0.232305997611E+04   -0.13408E-01   -0.21386E-01  5888   0.258E-01    0.678E-01
RMM:   4    -0.232305814585E+04    0.18303E-02   -0.22008E-02  5634   0.556E-02    0.332E-01
RMM:   5    -0.232305701274E+04    0.11331E-02   -0.27053E-03  5091   0.301E-02    0.214E-01
RMM:   6    -0.232305675421E+04    0.25853E-03   -0.22628E-03  5257   0.278E-02    0.178E-01
RMM:   7    -0.232305649322E+04    0.26099E-03   -0.70606E-04  5043   0.194E-02    0.869E-02
RMM:   8    -0.232305643406E+04    0.59164E-04   -0.16382E-04  3473   0.777E-03    0.419E-02
RMM:   9    -0.232305641412E+04    0.19940E-04   -0.41967E-05  2886   0.601E-03    0.102E-02
RMM:  10    -0.232305641312E+04    0.99550E-06   -0.14452E-05  2910   0.300E-03
  60 F= -.23439540E+04 E0= -.23439540E+04  d E =-.236586E-01  mag=     6.0000
       N       E                     dE             d eps       ncg     rms          rms(c)
DAV:   1    -0.232301977532E+04    0.36639E-01   -0.25648E+00  4480   0.151E+00    0.494E-01
RMM:   2    -0.232306379400E+04   -0.44019E-01   -0.47143E-01  6133   0.331E-01    0.269E-01
RMM:   3    -0.232306791400E+04   -0.41200E-02   -0.47250E-02  5754   0.119E-01    0.199E-01
RMM:   4    -0.232306797510E+04   -0.61097E-04   -0.47070E-03  5199   0.247E-02    0.171E-01
RMM:   5    -0.232306772086E+04    0.25424E-03   -0.53837E-04  4240   0.136E-02    0.110E-01
RMM:   6    -0.232306766904E+04    0.51818E-04   -0.52043E-04  4651   0.140E-02    0.972E-02
RMM:   7    -0.232306758044E+04    0.88597E-04   -0.18758E-04  3710   0.991E-03    0.295E-02
RMM:   8    -0.232306757063E+04    0.98084E-05   -0.29348E-05  2952   0.507E-03
  61 F= -.23439653E+04 E0= -.23439653E+04  d E =-.112742E-01  mag=     6.0000
       N       E                     dE             d eps       ncg     rms          rms(c)
DAV:   1    -0.232286279437E+04    0.20479E+00   -0.11211E+01  4464   0.316E+00    0.104E+00
RMM:   2    -0.232305677865E+04   -0.19398E+00   -0.20815E+00  6185   0.700E-01    0.572E-01
RMM:   3    -0.232307528286E+04   -0.18504E-01   -0.21817E-01  5843   0.247E-01    0.378E-01
RMM:   4    -0.232307535126E+04   -0.68401E-04   -0.20387E-02  5648   0.518E-02    0.298E-01
RMM:   5    -0.232307462255E+04    0.72871E-03   -0.22875E-03  5359   0.277E-02    0.229E-01
RMM:   6    -0.232307416718E+04    0.45538E-03   -0.23479E-03  5112   0.279E-02    0.168E-01
RMM:   7    -0.232307401523E+04    0.15195E-03   -0.52864E-04  4109   0.170E-02    0.934E-02
RMM:   8    -0.232307394089E+04    0.74338E-04   -0.15569E-04  3794   0.775E-03    0.332E-02
RMM:   9    -0.232307392208E+04    0.18809E-04   -0.52300E-05  2917   0.575E-03    0.120E-02
RMM:  10    -0.232307392045E+04    0.16327E-05   -0.18423E-05  2927   0.371E-03
  62 F= -.23439719E+04 E0= -.23439719E+04  d E =-.178589E-01  mag=     6.0000
       N       E                     dE             d eps       ncg     rms          rms(c)
DAV:   1    -0.232302534823E+04    0.48574E-01   -0.28378E+00  4496   0.150E+00    0.516E-01
RMM:   2    -0.232307749286E+04   -0.52145E-01   -0.55662E-01  6331   0.341E-01    0.288E-01
RMM:   3    -0.232308255949E+04   -0.50666E-02   -0.56765E-02  5815   0.123E-01    0.196E-01
RMM:   4    -0.232308262052E+04   -0.61033E-04   -0.55021E-03  4853   0.245E-02    0.160E-01
RMM:   5    -0.232308242238E+04    0.19815E-03   -0.47744E-04  3671   0.120E-02    0.120E-01
RMM:   6    -0.232308236144E+04    0.60940E-04   -0.51497E-04  4402   0.127E-02    0.108E-01
RMM:   7    -0.232308227121E+04    0.90229E-04   -0.21422E-04  3602   0.963E-03    0.324E-02
RMM:   8    -0.232308226066E+04    0.10546E-04   -0.32550E-05  2998   0.540E-03    0.125E-02
RMM:   9    -0.232308225828E+04    0.23834E-05   -0.10937E-05  2876   0.353E-03
  63 F= -.23439807E+04 E0= -.23439807E+04  d E =-.881616E-02  mag=     6.0000
       N       E                     dE             d eps       ncg     rms          rms(c)
DAV:   1    -0.232257364054E+04    0.50862E+00   -0.25518E+01  4480   0.451E+00    0.156E+00
RMM:   2    -0.232305242222E+04   -0.47878E+00   -0.51077E+00  6367   0.105E+00    0.988E-01
RMM:   3    -0.232309839191E+04   -0.45970E-01   -0.54475E-01  5961   0.368E-01    0.717E-01
RMM:   4    -0.232309768699E+04    0.70492E-03   -0.49395E-02  5727   0.734E-02    0.519E-01
RMM:   5    -0.232309559069E+04    0.20963E-02   -0.49279E-03  5220   0.345E-02    0.359E-01
RMM:   6    -0.232309490356E+04    0.68713E-03   -0.45362E-03  5274   0.341E-02    0.297E-01
RMM:   7    -0.232309420657E+04    0.69699E-03   -0.25075E-03  5598   0.278E-02    0.127E-01
RMM:   8    -0.232309403720E+04    0.16938E-03   -0.37923E-04  4477   0.125E-02    0.589E-02
RMM:   9    -0.232309398557E+04    0.51621E-04   -0.13092E-04  3034   0.825E-03    0.203E-02
RMM:  10    -0.232309398047E+04    0.51047E-05   -0.46129E-05  2964   0.493E-03
  64 F= -.23439939E+04 E0= -.23439939E+04  d E =-.219820E-01  mag=     6.0000
       N       E                     dE             d eps       ncg     rms          rms(c)
DAV:   1    -0.232305793516E+04    0.36050E-01   -0.26959E+00  4528   0.150E+00    0.552E-01
RMM:   2    -0.232310540563E+04   -0.47470E-01   -0.50492E-01  6072   0.356E-01    0.337E-01
RMM:   3    -0.232310966283E+04   -0.42572E-02   -0.51823E-02  5801   0.131E-01    0.263E-01
RMM:   4    -0.232310938914E+04    0.27368E-03   -0.51818E-03  5265   0.286E-02    0.168E-01
RMM:   5    -0.232310919201E+04    0.19713E-03   -0.75854E-04  4852   0.176E-02    0.143E-01
RMM:   6    -0.232310908822E+04    0.10380E-03   -0.56275E-04  4676   0.142E-02    0.105E-01
RMM:   7    -0.232310899521E+04    0.93008E-04   -0.19264E-04  4195   0.107E-02    0.312E-02
RMM:   8    -0.232310898537E+04    0.98376E-05   -0.34525E-05  2985   0.586E-03
  65 F= -.23440098E+04 E0= -.23440098E+04  d E =-.159422E-01  mag=     6.0000
       N       E                     dE             d eps       ncg     rms          rms(c)
DAV:   1    -0.232305469898E+04    0.54296E-01   -0.30387E+00  4480   0.159E+00    0.588E-01
RMM:   2    -0.232310846782E+04   -0.53769E-01   -0.57224E-01  6072   0.379E-01    0.363E-01
RMM:   3    -0.232311321489E+04   -0.47471E-02   -0.57932E-02  5788   0.139E-01    0.290E-01
RMM:   4    -0.232311286194E+04    0.35295E-03   -0.58156E-03  5334   0.304E-02    0.181E-01
RMM:   5    -0.232311264785E+04    0.21408E-03   -0.86525E-04  4924   0.186E-02    0.157E-01
RMM:   6    -0.232311250178E+04    0.14608E-03   -0.65689E-04  4823   0.152E-02    0.105E-01
RMM:   7    -0.232311240227E+04    0.99506E-04   -0.21688E-04  4347   0.112E-02    0.338E-02
RMM:   8    -0.232311239009E+04    0.12181E-04   -0.39913E-05  3003   0.617E-03    0.128E-02
RMM:   9    -0.232311238680E+04    0.32918E-05   -0.12023E-05  2894   0.382E-03
  66 F= -.23440142E+04 E0= -.23440142E+04  d E =-.203370E-01  mag=     6.0000
       N       E                     dE             d eps       ncg     rms          rms(c)
DAV:   1    -0.232306857344E+04    0.43817E-01   -0.28021E+00  4480   0.146E+00    0.530E-01
RMM:   2    -0.232311733683E+04   -0.48763E-01   -0.51176E-01  6205   0.342E-01    0.363E-01
RMM:   3    -0.232312169116E+04   -0.43543E-02   -0.52790E-02  5837   0.124E-01    0.306E-01
RMM:   4    -0.232312120967E+04    0.48149E-03   -0.52063E-03  4954   0.265E-02    0.158E-01
RMM:   5    -0.232312106679E+04    0.14288E-03   -0.52511E-04  3923   0.125E-02    0.137E-01
RMM:   6    -0.232312089266E+04    0.17413E-03   -0.47611E-04  4456   0.125E-02    0.753E-02
RMM:   7    -0.232312084777E+04    0.44890E-04   -0.20943E-04  4098   0.983E-03    0.302E-02
RMM:   8    -0.232312084026E+04    0.75116E-05   -0.30837E-05  2931   0.602E-03
  67 F= -.23440236E+04 E0= -.23440236E+04  d E =-.939167E-02  mag=     6.0000
       N       E                     dE             d eps       ncg     rms          rms(c)
DAV:   1    -0.232299918253E+04    0.12167E+00   -0.66863E+00  4480   0.225E+00    0.820E-01
RMM:   2    -0.232311570521E+04   -0.11652E+00   -0.12255E+00  6204   0.533E-01    0.558E-01
RMM:   3    -0.232312679276E+04   -0.11088E-01   -0.13270E-01  5885   0.193E-01    0.490E-01
RMM:   4    -0.232312549335E+04    0.12994E-02   -0.12598E-02  5513   0.408E-02    0.250E-01
RMM:   5    -0.232312510657E+04    0.38678E-03   -0.12666E-03  4766   0.182E-02    0.208E-01
RMM:   6    -0.232312472369E+04    0.38288E-03   -0.11734E-03  4931   0.184E-02    0.124E-01
RMM:   7    -0.232312459086E+04    0.13284E-03   -0.55580E-04  4848   0.145E-02    0.460E-02
RMM:   8    -0.232312457067E+04    0.20187E-04   -0.77719E-05  3092   0.802E-03    0.186E-02
RMM:   9    -0.232312456590E+04    0.47640E-05   -0.22954E-05  2888   0.442E-03
  68 F= -.23440288E+04 E0= -.23440288E+04  d E =-.145721E-01  mag=     6.0000
       N       E                     dE             d eps       ncg     rms          rms(c)
DAV:   1    -0.232307733498E+04    0.47236E-01   -0.33094E+00  4464   0.164E+00    0.594E-01
RMM:   2    -0.232313193239E+04   -0.54597E-01   -0.57474E-01  6024   0.374E-01    0.351E-01
RMM:   3    -0.232313725214E+04   -0.53198E-02   -0.63255E-02  5776   0.141E-01    0.284E-01
RMM:   4    -0.232313680230E+04    0.44985E-03   -0.56143E-03  5325   0.297E-02    0.177E-01
RMM:   5    -0.232313662406E+04    0.17824E-03   -0.64091E-04  4414   0.156E-02    0.154E-01
RMM:   6    -0.232313644716E+04    0.17690E-03   -0.64756E-04  4636   0.150E-02    0.928E-02
RMM:   7    -0.232313636873E+04    0.78427E-04   -0.25132E-04  4468   0.114E-02    0.259E-02
RMM:   8    -0.232313635857E+04    0.10163E-04   -0.34364E-05  2961   0.611E-03    0.125E-02
RMM:   9    -0.232313635475E+04    0.38201E-05   -0.14362E-05  2887   0.387E-03
  69 F= -.23440413E+04 E0= -.23440413E+04  d E =-.125519E-01  mag=     6.0000
       N       E                     dE             d eps       ncg     rms          rms(c)
DAV:   1    -0.232309082551E+04    0.45533E-01   -0.27144E+00  4496   0.148E+00    0.538E-01
RMM:   2    -0.232313557076E+04   -0.44745E-01   -0.47094E-01  6029   0.336E-01    0.319E-01
RMM:   3    -0.232313988523E+04   -0.43145E-02   -0.51265E-02  5779   0.127E-01    0.258E-01
RMM:   4    -0.232313952053E+04    0.36470E-03   -0.45991E-03  5205   0.269E-02    0.161E-01
RMM:   5    -0.232313937219E+04    0.14834E-03   -0.52851E-04  4244   0.143E-02    0.140E-01
RMM:   6    -0.232313921929E+04    0.15290E-03   -0.53419E-04  4494   0.138E-02    0.827E-02
RMM:   7    -0.232313915420E+04    0.65090E-04   -0.20529E-04  4281   0.106E-02    0.232E-02
RMM:   8    -0.232313914537E+04    0.88266E-05   -0.29003E-05  2937   0.578E-03
  70 F= -.23440448E+04 E0= -.23440448E+04  d E =-.160371E-01  mag=     6.0000
       N       E                     dE             d eps       ncg     rms          rms(c)
DAV:   1    -0.232310006174E+04    0.39092E-01   -0.22786E+00  4464   0.136E+00    0.517E-01
RMM:   2    -0.232314227006E+04   -0.42208E-01   -0.44460E-01  6035   0.319E-01    0.289E-01
RMM:   3    -0.232314663550E+04   -0.43654E-02   -0.51536E-02  5802   0.123E-01    0.212E-01
RMM:   4    -0.232314652732E+04    0.10818E-03   -0.41506E-03  5117   0.244E-02    0.147E-01
RMM:   5    -0.232314637236E+04    0.15496E-03   -0.47170E-04  3752   0.127E-02    0.111E-01
RMM:   6    -0.232314630991E+04    0.62450E-04   -0.39600E-04  4191   0.120E-02    0.917E-02
RMM:   7    -0.232314623912E+04    0.70783E-04   -0.19406E-04  4033   0.948E-03    0.306E-02
RMM:   8    -0.232314622915E+04    0.99746E-05   -0.30326E-05  2964   0.576E-03
  71 F= -.23440526E+04 E0= -.23440526E+04  d E =-.779245E-02  mag=     6.0000
       N       E                     dE             d eps       ncg     rms          rms(c)
DAV:   1    -0.232303864217E+04    0.10760E+00   -0.52362E+00  4464   0.207E+00    0.788E-01
RMM:   2    -0.232313695484E+04   -0.98313E-01   -0.10351E+00  6053   0.487E-01    0.469E-01
RMM:   3    -0.232314739763E+04   -0.10443E-01   -0.12463E-01  5842   0.189E-01    0.366E-01
RMM:   4    -0.232314693251E+04    0.46512E-03   -0.97125E-03  5732   0.377E-02    0.234E-01
RMM:   5    -0.232314654484E+04    0.38767E-03   -0.11545E-03  4508   0.182E-02    0.172E-01
RMM:   6    -0.232314636671E+04    0.17813E-03   -0.95687E-04  4797   0.176E-02    0.136E-01
RMM:   7    -0.232314620575E+04    0.16096E-03   -0.50183E-04  4899   0.136E-02    0.536E-02
RMM:   8    -0.232314617601E+04    0.29738E-04   -0.82330E-05  3178   0.773E-03    0.208E-02
RMM:   9    -0.232314616886E+04    0.71459E-05   -0.24984E-05  2887   0.498E-03
  72 F= -.23440536E+04 E0= -.23440536E+04  d E =-.880496E-02  mag=     6.0000
       N       E                     dE             d eps       ncg     rms          rms(c)
DAV:   1    -0.232312985763E+04    0.16318E-01   -0.88818E-01  4528   0.853E-01    0.320E-01
RMM:   2    -0.232314623323E+04   -0.16376E-01   -0.17235E-01  6080   0.197E-01    0.165E-01
RMM:   3    -0.232314788155E+04   -0.16483E-02   -0.18954E-02  5649   0.748E-02    0.108E-01
RMM:   4    -0.232314788929E+04   -0.77375E-05   -0.15726E-03  3850   0.152E-02    0.871E-02
RMM:   5    -0.232314782892E+04    0.60364E-04   -0.16262E-04  3221   0.876E-03    0.665E-02
RMM:   6    -0.232314781098E+04    0.17938E-04   -0.13383E-04  3254   0.790E-03    0.526E-02
RMM:   7    -0.232314779080E+04    0.20181E-04   -0.56915E-05  3051   0.662E-03    0.169E-02
RMM:   8    -0.232314778858E+04    0.22196E-05   -0.97069E-06  2885   0.437E-03
  73 F= -.23440548E+04 E0= -.23440548E+04  d E =-.998390E-02  mag=     6.0000
       N       E                     dE             d eps       ncg     rms          rms(c)
DAV:   1    -0.232309477178E+04    0.53019E-01   -0.26295E+00  4464   0.139E+00    0.563E-01
RMM:   2    -0.232314925560E+04   -0.54484E-01   -0.57100E-01  6066   0.338E-01    0.340E-01
RMM:   3    -0.232315524979E+04   -0.59942E-02   -0.69870E-02  5826   0.139E-01    0.235E-01
RMM:   4    -0.232315518064E+04    0.69149E-04   -0.54961E-03  5191   0.260E-02    0.159E-01
RMM:   5    -0.232315500388E+04    0.17676E-03   -0.54692E-04  3673   0.132E-02    0.121E-01
RMM:   6    -0.232315493719E+04    0.66690E-04   -0.42787E-04  4175   0.120E-02    0.104E-01
RMM:   7    -0.232315485404E+04    0.83152E-04   -0.21136E-04  3924   0.961E-03    0.404E-02
RMM:   8    -0.232315483806E+04    0.15980E-04   -0.48544E-05  2989   0.628E-03    0.158E-02
RMM:   9    -0.232315483514E+04    0.29168E-05   -0.11712E-05  2877   0.407E-03
  74 F= -.23440628E+04 E0= -.23440628E+04  d E =-.794853E-02  mag=     6.0000
       N       E                     dE             d eps       ncg     rms          rms(c)
DAV:   1    -0.232310064990E+04    0.54188E-01   -0.24354E+00  4464   0.134E+00    0.542E-01
RMM:   2    -0.232315122029E+04   -0.50570E-01   -0.53044E-01  6072   0.325E-01    0.323E-01
RMM:   3    -0.232315679719E+04   -0.55769E-02   -0.64807E-02  5822   0.134E-01    0.220E-01
RMM:   4    -0.232315674959E+04    0.47600E-04   -0.51038E-03  5083   0.250E-02    0.150E-01
RMM:   5    -0.232315658865E+04    0.16094E-03   -0.50766E-04  3583   0.129E-02    0.114E-01
RMM:   6    -0.232315653918E+04    0.49473E-04   -0.39550E-04  4171   0.116E-02    0.105E-01
RMM:   7    -0.232315645779E+04    0.81388E-04   -0.19170E-04  3770   0.931E-03    0.378E-02
RMM:   8    -0.232315644379E+04    0.13995E-04   -0.45086E-05  2974   0.611E-03    0.152E-02
RMM:   9    -0.232315644122E+04    0.25701E-05   -0.11307E-05  2877   0.401E-03
  75 F= -.23440652E+04 E0= -.23440652E+04  d E =-.104229E-01  mag=     6.0000
       N       E                     dE             d eps       ncg     rms          rms(c)
DAV:   1    -0.232308237851E+04    0.74065E-01   -0.36364E+00  4464   0.165E+00    0.662E-01
RMM:   2    -0.232315645220E+04   -0.74074E-01   -0.77348E-01  6083   0.396E-01    0.397E-01
RMM:   3    -0.232316413453E+04   -0.76823E-02   -0.91009E-02  5862   0.157E-01    0.267E-01
RMM:   4    -0.232316392455E+04    0.20998E-03   -0.76134E-03  5439   0.303E-02    0.180E-01
RMM:   5    -0.232316372923E+04    0.19532E-03   -0.62776E-04  3882   0.139E-02    0.153E-01
RMM:   6    -0.232316357759E+04    0.15164E-03   -0.61041E-04  4381   0.135E-02    0.105E-01
RMM:   7    -0.232316349479E+04    0.82802E-04   -0.25852E-04  4304   0.106E-02    0.406E-02
RMM:   8    -0.232316348154E+04    0.13244E-04   -0.47966E-05  2989   0.671E-03    0.170E-02
RMM:   9    -0.232316347877E+04    0.27778E-05   -0.12061E-05  2872   0.413E-03
  76 F= -.23440731E+04 E0= -.23440731E+04  d E =-.786901E-02  mag=     6.0000
       N       E                     dE             d eps       ncg     rms          rms(c)
DAV:   1    -0.232312899144E+04    0.34490E-01   -0.15883E+00  4496   0.109E+00    0.437E-01
RMM:   2    -0.232316124116E+04   -0.32250E-01   -0.33681E-01  6089   0.260E-01    0.256E-01
RMM:   3    -0.232316453173E+04   -0.32906E-02   -0.38541E-02  5780   0.103E-01    0.175E-01
RMM:   4    -0.232316446457E+04    0.67165E-04   -0.33253E-03  4471   0.200E-02    0.123E-01
RMM:   5    -0.232316438009E+04    0.84474E-04   -0.27286E-04  3155   0.970E-03    0.104E-01
RMM:   6    -0.232316430010E+04    0.79996E-04   -0.25922E-04  3796   0.981E-03    0.615E-02
RMM:   7    -0.232316427043E+04    0.29669E-04   -0.11349E-04  3660   0.777E-03    0.220E-02
RMM:   8    -0.232316426640E+04    0.40258E-05   -0.19898E-05  2905   0.534E-03
  77 F= -.23440744E+04 E0= -.23440744E+04  d E =-.920656E-02  mag=     6.0000
       N       E                     dE             d eps       ncg     rms          rms(c)
DAV:   1    -0.232308754131E+04    0.76729E-01   -0.38579E+00  4464   0.166E+00    0.659E-01
RMM:   2    -0.232316450194E+04   -0.76961E-01   -0.79972E-01  6116   0.396E-01    0.410E-01
RMM:   3    -0.232317227268E+04   -0.77707E-02   -0.91942E-02  5884   0.151E-01    0.294E-01
RMM:   4    -0.232317193203E+04    0.34064E-03   -0.79934E-03  5347   0.305E-02    0.187E-01
RMM:   5    -0.232317175074E+04    0.18129E-03   -0.59641E-04  3620   0.126E-02    0.160E-01
RMM:   6    -0.232317155767E+04    0.19307E-03   -0.54254E-04  4166   0.131E-02    0.961E-02
RMM:   7    -0.232317148089E+04    0.76780E-04   -0.30958E-04  4375   0.110E-02    0.307E-02
RMM:   8    -0.232317147123E+04    0.96571E-05   -0.41605E-05  2952   0.714E-03
  78 F= -.23440821E+04 E0= -.23440821E+04  d E =-.766670E-02  mag=     6.0000
       N       E                     dE             d eps       ncg     rms          rms(c)
DAV:   1    -0.232296255247E+04    0.20893E+00   -0.95076E+00  4464   0.261E+00    0.104E+00
RMM:   2    -0.232315360352E+04   -0.19105E+00   -0.19879E+00  6166   0.628E-01    0.652E-01
RMM:   3    -0.232317357963E+04   -0.19976E-01   -0.23788E-01  5945   0.243E-01    0.463E-01
RMM:   4    -0.232317263243E+04    0.94720E-03   -0.19832E-02  5920   0.482E-02    0.286E-01
RMM:   5    -0.232317217317E+04    0.45926E-03   -0.15095E-03  4629   0.192E-02    0.245E-01
RMM:   6    -0.232317177764E+04    0.39553E-03   -0.14487E-03  4836   0.194E-02    0.170E-01
RMM:   7    -0.232317154412E+04    0.23352E-03   -0.77698E-04  5012   0.160E-02    0.578E-02
RMM:   8    -0.232317150881E+04    0.35311E-04   -0.11413E-04  3305   0.955E-03    0.266E-02
RMM:   9    -0.232317149983E+04    0.89794E-05   -0.32098E-05  2886   0.525E-03
  79 F= -.23440828E+04 E0= -.23440828E+04  d E =-.840165E-02  mag=     6.0000
       N       E                     dE             d eps       ncg     rms          rms(c)
DAV:   1    -0.232313543467E+04    0.36074E-01   -0.17407E+00  4480   0.111E+00    0.444E-01
RMM:   2    -0.232317031286E+04   -0.34878E-01   -0.36021E-01  6160   0.264E-01    0.303E-01
RMM:   3    -0.232317349636E+04   -0.31835E-02   -0.40469E-02  5741   0.102E-01    0.212E-01
RMM:   4    -0.232317341964E+04    0.76718E-04   -0.35541E-03  4320   0.207E-02    0.130E-01
RMM:   5    -0.232317332992E+04    0.89716E-04   -0.29109E-04  3242   0.959E-03    0.106E-01
RMM:   6    -0.232317322313E+04    0.10679E-03   -0.22496E-04  3606   0.953E-03    0.554E-02
RMM:   7    -0.232317320333E+04    0.19803E-04   -0.11945E-04  3584   0.779E-03    0.305E-02
RMM:   8    -0.232317319533E+04    0.79970E-05   -0.27293E-05  2914   0.586E-03
  80 F= -.23440842E+04 E0= -.23440842E+04  d E =-.979891E-02  mag=     6.0000
       N       E                     dE             d eps       ncg     rms          rms(c)
DAV:   1    -0.232307779446E+04    0.95409E-01   -0.48395E+00  4464   0.185E+00    0.738E-01
RMM:   2    -0.232317041370E+04   -0.92619E-01   -0.96436E-01  6112   0.439E-01    0.459E-01
RMM:   3    -0.232317987868E+04   -0.94650E-02   -0.11389E-01  5909   0.174E-01    0.322E-01
RMM:   4    -0.232317939334E+04    0.48534E-03   -0.94722E-03  5737   0.346E-02    0.191E-01
RMM:   5    -0.232317903803E+04    0.35531E-03   -0.81067E-04  4310   0.163E-02    0.123E-01
RMM:   6    -0.232317900441E+04    0.33620E-04   -0.85086E-04  5130   0.167E-02    0.140E-01
RMM:   7    -0.232317886444E+04    0.13996E-03   -0.23650E-04  3147   0.107E-02    0.425E-02
RMM:   8    -0.232317884628E+04    0.18160E-04   -0.56906E-05  3024   0.520E-03    0.203E-02
RMM:   9    -0.232317884091E+04    0.53738E-05   -0.17801E-05  2877   0.388E-03
  81 F= -.23440902E+04 E0= -.23440902E+04  d E =-.595538E-02  mag=     6.0000
       N       E                     dE             d eps       ncg     rms          rms(c)
DAV:   1    -0.232317729236E+04    0.15539E-02   -0.76346E-02  4832   0.232E-01    0.937E-02
RMM:   2    -0.232317875430E+04   -0.14619E-02   -0.15239E-02  6126   0.551E-02    0.554E-02
RMM:   3    -0.232317889087E+04   -0.13657E-03   -0.16511E-03  3233   0.214E-02    0.350E-02
RMM:   4    -0.232317888854E+04    0.23247E-05   -0.14786E-04  2962   0.553E-03    0.229E-02
RMM:   5    -0.232317888305E+04    0.54939E-05   -0.13146E-05  2883   0.294E-03
  82 F= -.23440903E+04 E0= -.23440903E+04  d E =-.603383E-02  mag=     6.0000
       N       E                     dE             d eps       ncg     rms          rms(c)
DAV:   1    -0.232316124429E+04    0.17644E-01   -0.13731E+00  4480   0.108E+00    0.387E-01
RMM:   2    -0.232318028758E+04   -0.19043E-01   -0.20030E-01  5971   0.231E-01    0.222E-01
RMM:   3    -0.232318194873E+04   -0.16611E-02   -0.21604E-02  5734   0.884E-02    0.175E-01
[...]
RMM:   3    -0.232320366604E+04   -0.40849E-05   -0.10527E-04  2888   0.727E-03    0.254E-02
RMM:   4    -0.232320366131E+04    0.47289E-05   -0.11284E-05  2897   0.235E-03
 164 F= -.23441122E+04 E0= -.23441122E+04  d E =-.735283E-04  mag=     6.0000
       N       E                     dE             d eps       ncg     rms          rms(c)
DAV:   1    -0.232320359476E+04    0.71283E-04   -0.14388E-02  4480   0.116E-01    0.431E-02
RMM:   2    -0.232320374863E+04   -0.15387E-03   -0.16418E-03  5823   0.234E-02    0.286E-02
RMM:   3    -0.232320376287E+04   -0.14244E-04   -0.20256E-04  2943   0.105E-02    0.299E-02
RMM:   4    -0.232320375576E+04    0.71110E-05   -0.20183E-05  2911   0.318E-03
 165 F= -.23441122E+04 E0= -.23441122E+04  d E =-.727466E-04  mag=     6.0000
       N       E                     dE             d eps       ncg     rms          rms(c)
DAV:   1    -0.232320366632E+04    0.96553E-04   -0.10592E-02  4496   0.993E-02    0.401E-02
RMM:   2    -0.232320379022E+04   -0.12390E-03   -0.12283E-03  5785   0.201E-02    0.461E-02
RMM:   3    -0.232320378811E+04    0.21104E-05   -0.14751E-04  2918   0.898E-03    0.285E-02
RMM:   4    -0.232320378233E+04    0.57815E-05   -0.17333E-05  2916   0.281E-03
 166 F= -.23441122E+04 E0= -.23441122E+04  d E =-.805089E-04  mag=     6.0000
       N       E                     dE             d eps       ncg     rms          rms(c)
DAV:   1    -0.232320370274E+04    0.85368E-04   -0.14679E-02  4480   0.111E-01    0.434E-02
RMM:   2    -0.232320387957E+04   -0.17683E-03   -0.18459E-03  5858   0.233E-02    0.353E-02
RMM:   3    -0.232320389419E+04   -0.14614E-04   -0.22978E-04  2940   0.103E-02    0.331E-02
RMM:   4    -0.232320388618E+04    0.80047E-05   -0.21707E-05  2918   0.312E-03
 167 F= -.23441123E+04 E0= -.23441123E+04  d E =-.681392E-04  mag=     6.0000
       N       E                     dE             d eps       ncg     rms          rms(c)
DAV:   1    -0.232320373890E+04    0.15529E-03   -0.16233E-02  4480   0.117E-01    0.466E-02
RMM:   2    -0.232320394063E+04   -0.20173E-03   -0.20460E-03  5872   0.242E-02    0.477E-02
RMM:   3    -0.232320394739E+04   -0.67574E-05   -0.24090E-04  2939   0.104E-02    0.350E-02
RMM:   4    -0.232320393925E+04    0.81441E-05   -0.25599E-05  2918   0.317E-03
 168 F= -.23441123E+04 E0= -.23441123E+04  d E =-.833987E-04  mag=     6.0000
       N       E                     dE             d eps       ncg     rms          rms(c)
DAV:   1    -0.232320389052E+04    0.56869E-04   -0.12527E-02  4496   0.100E-01    0.411E-02
RMM:   2    -0.232320404670E+04   -0.15618E-03   -0.16105E-03  5828   0.213E-02    0.374E-02
RMM:   3    -0.232320405660E+04   -0.99014E-05   -0.20376E-04  2921   0.970E-03    0.305E-02
RMM:   4    -0.232320404988E+04    0.67171E-05   -0.19050E-05  2916   0.294E-03
 169 F= -.23441124E+04 E0= -.23441124E+04  d E =-.756515E-04  mag=     6.0000
       N       E                     dE             d eps       ncg     rms          rms(c)
DAV:   1    -0.232320378354E+04    0.27306E-03   -0.27941E-02  4480   0.149E-01    0.603E-02
RMM:   2    -0.232320413470E+04   -0.35116E-03   -0.35793E-03  5937   0.314E-02    0.609E-02
RMM:   3    -0.232320414814E+04   -0.13438E-04   -0.41578E-04  2989   0.130E-02    0.456E-02
RMM:   4    -0.232320413460E+04    0.13537E-04   -0.44133E-05  2934   0.402E-03    0.200E-02
RMM:   5    -0.232320413353E+04    0.10689E-05   -0.14124E-05  2890   0.281E-03
 170 F= -.23441124E+04 E0= -.23441124E+04  d E =-.106941E-03  mag=     6.0000
       N       E                     dE             d eps       ncg     rms          rms(c)
DAV:   1    -0.232320405511E+04    0.79496E-04   -0.17937E-02  4480   0.126E-01    0.478E-02
RMM:   2    -0.232320425001E+04   -0.19490E-03   -0.20878E-03  5893   0.266E-02    0.270E-02
RMM:   3    -0.232320426789E+04   -0.17884E-04   -0.22423E-04  2932   0.110E-02    0.309E-02
RMM:   4    -0.232320426205E+04    0.58447E-05   -0.24078E-05  2916   0.319E-03
 171 F= -.23441125E+04 E0= -.23441125E+04  d E =-.913051E-04  mag=     6.0000
       N       E                     dE             d eps       ncg     rms          rms(c)
DAV:   1    -0.232320413009E+04    0.13780E-03   -0.16288E-02  4480   0.119E-01    0.471E-02
RMM:   2    -0.232320431385E+04   -0.18376E-03   -0.19214E-03  5865   0.245E-02    0.391E-02
RMM:   3    -0.232320432929E+04   -0.15439E-04   -0.23531E-04  2935   0.106E-02    0.392E-02
RMM:   4    -0.232320431750E+04    0.11790E-04   -0.24168E-05  2909   0.339E-03    0.132E-02
RMM:   5    -0.232320431599E+04    0.15041E-05   -0.79159E-06  2875   0.231E-03
 172 F= -.23441125E+04 E0= -.23441125E+04  d E =-.109599E-03  mag=     6.0000
       N       E                     dE             d eps       ncg     rms          rms(c)
DAV:   1    -0.232320415056E+04    0.16693E-03   -0.23785E-02  4496   0.143E-01    0.547E-02
RMM:   2    -0.232320441815E+04   -0.26758E-03   -0.28559E-03  5942   0.301E-02    0.335E-02
RMM:   3    -0.232320444523E+04   -0.27082E-04   -0.32881E-04  2978   0.129E-02    0.391E-02
RMM:   4    -0.232320443481E+04    0.10415E-04   -0.34022E-05  2921   0.385E-03    0.157E-02
RMM:   5    -0.232320443220E+04    0.26126E-05   -0.83733E-06  2873   0.245E-03
 173 F= -.23441126E+04 E0= -.23441126E+04  d E =-.871198E-04  mag=     6.0000
       N       E                     dE             d eps       ncg     rms          rms(c)
DAV:   1    -0.232320438856E+04    0.46254E-04   -0.48908E-03  4760   0.649E-02    0.256E-02
RMM:   2    -0.232320444456E+04   -0.55999E-04   -0.59584E-04  4849   0.144E-02    0.173E-02
RMM:   3    -0.232320445060E+04   -0.60456E-05   -0.78955E-05  2883   0.719E-03
 174 F= -.23441126E+04 E0= -.23441126E+04  d E =-.921320E-04  mag=     6.0000
       N       E                     dE             d eps       ncg     rms          rms(c)
DAV:   1    -0.232320433078E+04    0.11378E-03   -0.22035E-02  4496   0.138E-01    0.564E-02
RMM:   2    -0.232320457905E+04   -0.24826E-03   -0.25402E-03  5910   0.288E-02    0.508E-02
RMM:   3    -0.232320459409E+04   -0.15045E-04   -0.28571E-04  2964   0.114E-02    0.452E-02
RMM:   4    -0.232320457826E+04    0.15832E-04   -0.33046E-05  2921   0.387E-03    0.150E-02
RMM:   5    -0.232320457605E+04    0.22060E-05   -0.10466E-05  2894   0.276E-03
 175 F= -.23441127E+04 E0= -.23441127E+04  d E =-.886973E-04  mag=     6.0000
       N       E                     dE             d eps       ncg     rms          rms(c)
DAV:   1    -0.232320454461E+04    0.33654E-04   -0.42783E-03  4736   0.613E-02    0.255E-02
RMM:   2    -0.232320459339E+04   -0.48783E-04   -0.50311E-04  4727   0.137E-02    0.207E-02
RMM:   3    -0.232320459520E+04   -0.18146E-05   -0.56203E-05  2891   0.675E-03
 176 F= -.23441127E+04 E0= -.23441127E+04  d E =-.913981E-04  mag=     6.0000
       N       E                     dE             d eps       ncg     rms          rms(c)
DAV:   1    -0.232320444783E+04    0.14556E-03   -0.26649E-02  4496   0.152E-01    0.610E-02
RMM:   2    -0.232320471942E+04   -0.27159E-03   -0.29133E-03  5933   0.310E-02    0.366E-02
RMM:   3    -0.232320474140E+04   -0.21984E-04   -0.30754E-04  2967   0.124E-02    0.402E-02
RMM:   4    -0.232320473168E+04    0.97181E-05   -0.38241E-05  2924   0.400E-03
 177 F= -.23441128E+04 E0= -.23441128E+04  d E =-.802676E-04  mag=     6.0000
       N       E                     dE             d eps       ncg     rms          rms(c)
DAV:   1    -0.232320472255E+04    0.18846E-04   -0.18358E-03  5280   0.401E-02    0.215E-02
RMM:   2    -0.232320474722E+04   -0.24665E-04   -0.21769E-04  3508   0.898E-03    0.306E-02
RMM:   3    -0.232320474160E+04    0.56150E-05   -0.32234E-05  2821   0.545E-03
 178 F= -.23441128E+04 E0= -.23441128E+04  d E =-.749863E-04  mag=     6.0000
       N       E                     dE             d eps       ncg     rms          rms(c)
DAV:   1    -0.232320459675E+04    0.15047E-03   -0.28371E-02  4496   0.153E-01    0.594E-02
RMM:   2    -0.232320486625E+04   -0.26950E-03   -0.28593E-03  5917   0.311E-02    0.416E-02
RMM:   3    -0.232320488791E+04   -0.21657E-04   -0.30532E-04  3038   0.131E-02    0.459E-02
RMM:   4    -0.232320487310E+04    0.14805E-04   -0.37472E-05  2927   0.414E-03    0.178E-02
RMM:   5    -0.232320486953E+04    0.35731E-05   -0.12546E-05  2886   0.302E-03
 179 F= -.23441129E+04 E0= -.23441129E+04  d E =-.827727E-04  mag=     6.0000
       N       E                     dE             d eps       ncg     rms          rms(c)
DAV:   1    -0.232320486165E+04    0.11453E-04   -0.14877E-03  4904   0.354E-02    0.155E-02
RMM:   2    -0.232320487802E+04   -0.16368E-04   -0.16129E-04  3407   0.830E-03    0.170E-02
RMM:   3    -0.232320487728E+04    0.74029E-06   -0.20958E-05  2757   0.505E-03
 180 F= -.23441129E+04 E0= -.23441129E+04  d E =-.799082E-04  mag=     6.0000
       N       E                     dE             d eps       ncg     rms          rms(c)
DAV:   1    -0.232320474010E+04    0.13792E-03   -0.30742E-02  4496   0.161E-01    0.639E-02
RMM:   2    -0.232320500748E+04   -0.26738E-03   -0.27939E-03  5919   0.320E-02    0.537E-02
RMM:   3    -0.232320502469E+04   -0.17209E-04   -0.31799E-04  3066   0.136E-02    0.535E-02
RMM:   4    -0.232320500184E+04    0.22853E-04   -0.39869E-05  2939   0.446E-03    0.164E-02
RMM:   5    -0.232320499845E+04    0.33898E-05   -0.13280E-05  2912   0.319E-03
 181 F= -.23441130E+04 E0= -.23441130E+04  d E =-.766159E-04  mag=     6.0000
       N       E                     dE             d eps       ncg     rms          rms(c)
DAV:   1    -0.232320499683E+04    0.50094E-05   -0.50818E-04  5136   0.212E-02    0.952E-03
RMM:   2    -0.232320500216E+04   -0.53287E-05   -0.52317E-05  2917   0.509E-03
 182 F= -.23441129E+04 E0= -.23441129E+04  d E =-.743483E-04  mag=     6.0000
       N       E                     dE             d eps       ncg     rms          rms(c)
DAV:   1    -0.232320489860E+04    0.98229E-04   -0.28004E-02  4480   0.149E-01    0.578E-02
RMM:   2    -0.232320513289E+04   -0.23429E-03   -0.24785E-03  6029   0.310E-02    0.459E-02
RMM:   3    -0.232320515080E+04   -0.17911E-04   -0.28501E-04  3070   0.129E-02    0.486E-02
RMM:   4    -0.232320513276E+04    0.18043E-04   -0.34486E-05  2928   0.423E-03    0.167E-02
RMM:   5    -0.232320513024E+04    0.25194E-05   -0.12982E-05  2902   0.316E-03
 183 F= -.23441130E+04 E0= -.23441130E+04  d E =-.803120E-04  mag=     6.0000
       N       E                     dE             d eps       ncg     rms          rms(c)
DAV:   1    -0.232320512841E+04    0.43426E-05   -0.78750E-04  5128   0.257E-02    0.124E-02
RMM:   2    -0.232320513682E+04   -0.84046E-05   -0.78818E-05  3103   0.607E-03
 184 F= -.23441130E+04 E0= -.23441130E+04  d E =-.786286E-04  mag=     6.0000
       N       E                     dE             d eps       ncg     rms          rms(c)
DAV:   1    -0.232320506294E+04    0.65478E-04   -0.29528E-02  4480   0.156E-01    0.597E-02
RMM:   2    -0.232320527927E+04   -0.21634E-03   -0.23390E-03  6067   0.320E-02    0.406E-02
RMM:   3    -0.232320529861E+04   -0.19335E-04   -0.25818E-04  3088   0.125E-02    0.500E-02
RMM:   4    -0.232320527976E+04    0.18848E-04   -0.34318E-05  2922   0.434E-03    0.174E-02
RMM:   5    -0.232320527675E+04    0.30074E-05   -0.12825E-05  2904   0.316E-03
 185 F= -.23441131E+04 E0= -.23441131E+04  d E =-.805423E-04  mag=     6.0000
       N       E                     dE             d eps       ncg     rms          rms(c)
DAV:   1    -0.232320527422E+04    0.55424E-05   -0.19770E-03  4904   0.408E-02    0.170E-02
RMM:   2    -0.232320529058E+04   -0.16359E-04   -0.16449E-04  3584   0.918E-03    0.156E-02
RMM:   3    -0.232320528998E+04    0.59279E-06   -0.20904E-05  2823   0.516E-03
 186 F= -.23441131E+04 E0= -.23441131E+04  d E =-.780676E-04  mag=     6.0000
       N       E                     dE             d eps       ncg     rms          rms(c)
DAV:   1    -0.232320525846E+04    0.32114E-04   -0.28089E-02  4480   0.148E-01    0.570E-02
RMM:   2    -0.232320544493E+04   -0.18647E-03   -0.20657E-03  5891   0.286E-02    0.336E-02
RMM:   3    -0.232320545630E+04   -0.11362E-04   -0.20746E-04  2982   0.118E-02    0.380E-02
RMM:   4    -0.232320544754E+04    0.87562E-05   -0.29340E-05  2924   0.387E-03
 187 F= -.23441132E+04 E0= -.23441132E+04  d E =-.829844E-04  mag=     6.0000
       N       E                     dE             d eps       ncg     rms          rms(c)
DAV:   1    -0.232320544864E+04    0.76590E-05   -0.97163E-04  5160   0.279E-02    0.141E-02
RMM:   2    -0.232320545704E+04   -0.84067E-05   -0.81119E-05  3171   0.621E-03
 188 F= -.23441132E+04 E0= -.23441132E+04  d E =-.779678E-04  mag=     6.0000
       N       E                     dE             d eps       ncg     rms          rms(c)
DAV:   1    -0.232320543664E+04    0.11993E-04   -0.29137E-02  4480   0.150E-01    0.606E-02
RMM:   2    -0.232320563051E+04   -0.19387E-03   -0.20195E-03  5993   0.303E-02    0.561E-02
RMM:   3    -0.232320563473E+04   -0.42222E-05   -0.23600E-04  3089   0.123E-02    0.497E-02
RMM:   4    -0.232320561443E+04    0.20303E-04   -0.32179E-05  2954   0.438E-03    0.165E-02
RMM:   5    -0.232320561207E+04    0.23650E-05   -0.13950E-05  2914   0.342E-03
 189 F= -.23441133E+04 E0= -.23441133E+04  d E =-.756486E-04  mag=     6.0000
       N       E                     dE             d eps       ncg     rms          rms(c)
DAV:   1    -0.232320561720E+04   -0.27708E-05   -0.97379E-04  5016   0.279E-02    0.132E-02
RMM:   2    -0.232320562543E+04   -0.82257E-05   -0.74529E-05  3140   0.642E-03
 190 F= -.23441133E+04 E0= -.23441133E+04  d E =-.741139E-04  mag=     6.0000
       N       E                     dE             d eps       ncg     rms          rms(c)
DAV:   1    -0.232320558075E+04    0.36452E-04   -0.25481E-02  4464   0.135E-01    0.545E-02
RMM:   2    -0.232320574827E+04   -0.16752E-03   -0.17927E-03  5952   0.282E-02    0.440E-02
RMM:   3    -0.232320575936E+04   -0.11085E-04   -0.21018E-04  3013   0.110E-02    0.467E-02
RMM:   4    -0.232320574209E+04    0.17266E-04   -0.28235E-05  2920   0.406E-03    0.161E-02
RMM:   5    -0.232320574094E+04    0.11468E-05   -0.12754E-05  2895   0.306E-03
 191 F= -.23441133E+04 E0= -.23441133E+04  d E =-.723378E-04  mag=     6.0000
       N       E                     dE             d eps       ncg     rms          rms(c)
DAV:   1    -0.232320572980E+04    0.12286E-04   -0.34543E-03  4768   0.502E-02    0.204E-02
RMM:   2    -0.232320575233E+04   -0.22528E-04   -0.24527E-04  3941   0.109E-02    0.143E-02
RMM:   3    -0.232320575395E+04   -0.16152E-05   -0.31563E-05  2887   0.598E-03
 192 F= -.23441133E+04 E0= -.23441133E+04  d E =-.691814E-04  mag=     6.0000
       N       E                     dE             d eps       ncg     rms          rms(c)
DAV:   1    -0.232320571670E+04    0.35636E-04   -0.26214E-02  4464   0.136E-01    0.541E-02
RMM:   2    -0.232320589511E+04   -0.17842E-03   -0.19464E-03  5873   0.267E-02    0.357E-02
RMM:   3    -0.232320590763E+04   -0.12515E-04   -0.20444E-04  2953   0.108E-02    0.402E-02
RMM:   4    -0.232320589741E+04    0.10224E-04   -0.29089E-05  2926   0.364E-03    0.186E-02
RMM:   5    -0.232320589477E+04    0.26338E-05   -0.10515E-05  2888   0.272E-03
 193 F= -.23441134E+04 E0= -.23441134E+04  d E =-.980513E-04  mag=     6.0000
       N       E                     dE             d eps       ncg     rms          rms(c)
DAV:   1    -0.232320585158E+04    0.45821E-04   -0.10389E-02  4480   0.856E-02    0.343E-02
RMM:   2    -0.232320592553E+04   -0.73948E-04   -0.77918E-04  5458   0.178E-02    0.281E-02
RMM:   3    -0.232320592798E+04   -0.24490E-05   -0.82743E-05  2898   0.743E-03
 194 F= -.23441134E+04 E0= -.23441134E+04  d E =-.104112E-03  mag=     6.0000
       N       E                     dE             d eps       ncg     rms          rms(c)
DAV:   1    -0.232320586682E+04    0.58717E-04   -0.28513E-02  4464   0.141E-01    0.586E-02
RMM:   2    -0.232320607572E+04   -0.20891E-03   -0.22680E-03  5889   0.279E-02    0.397E-02
RMM:   3    -0.232320608955E+04   -0.13833E-04   -0.23525E-04  2935   0.105E-02    0.428E-02
RMM:   4    -0.232320607792E+04    0.11635E-04   -0.34369E-05  2922   0.379E-03    0.208E-02
RMM:   5    -0.232320607567E+04    0.22505E-05   -0.14330E-05  2870   0.296E-03
 195 F= -.23441135E+04 E0= -.23441135E+04  d E =-.938486E-04  mag=     6.0000
       N       E                     dE             d eps       ncg     rms          rms(c)
DAV:   1    -0.232320600044E+04    0.77479E-04   -0.15357E-02  4480   0.103E-01    0.417E-02
RMM:   2    -0.232320611578E+04   -0.11534E-03   -0.12173E-03  5740   0.214E-02    0.338E-02
RMM:   3    -0.232320612131E+04   -0.55295E-05   -0.12783E-04  2905   0.854E-03    0.325E-02
RMM:   4    -0.232320611305E+04    0.82605E-05   -0.16554E-05  2904   0.299E-03
 196 F= -.23441135E+04 E0= -.23441135E+04  d E =-.914420E-04  mag=     6.0000
       N       E                     dE             d eps       ncg     rms          rms(c)
DAV:   1    -0.232320605869E+04    0.62627E-04   -0.28430E-02  4480   0.137E-01    0.577E-02
RMM:   2    -0.232320629179E+04   -0.23311E-03   -0.23535E-03  5893   0.273E-02    0.608E-02
RMM:   3    -0.232320628961E+04    0.21791E-05   -0.26060E-04  2989   0.112E-02    0.428E-02
RMM:   4    -0.232320627533E+04    0.14287E-04   -0.31505E-05  2968   0.373E-03    0.169E-02
RMM:   5    -0.232320627438E+04    0.94798E-06   -0.12942E-05  2879   0.282E-03
 197 F= -.23441136E+04 E0= -.23441136E+04  d E =-.103922E-03  mag=     6.0000
       N       E                     dE             d eps       ncg     rms          rms(c)
DAV:   1    -0.232320613245E+04    0.14288E-03   -0.26268E-02  4480   0.131E-01    0.523E-02
RMM:   2    -0.232320633254E+04   -0.20010E-03   -0.21458E-03  5890   0.270E-02    0.363E-02
RMM:   3    -0.232320634957E+04   -0.17023E-04   -0.24952E-04  2951   0.113E-02    0.394E-02
RMM:   4    -0.232320633803E+04    0.11536E-04   -0.27544E-05  2922   0.365E-03    0.164E-02
RMM:   5    -0.232320633605E+04    0.19855E-05   -0.10184E-05  2871   0.252E-03
 198 F= -.23441136E+04 E0= -.23441136E+04  d E =-.110265E-03  mag=     6.0000
       N       E                     dE             d eps       ncg     rms          rms(c)
DAV:   1    -0.232320624385E+04    0.94185E-04   -0.27900E-02  4480   0.134E-01    0.541E-02
RMM:   2    -0.232320647041E+04   -0.22656E-03   -0.24247E-03  5914   0.277E-02    0.371E-02
RMM:   3    -0.232320648797E+04   -0.17559E-04   -0.27400E-04  2956   0.116E-02    0.382E-02
RMM:   4    -0.232320647695E+04    0.11018E-04   -0.30216E-05  2932   0.374E-03    0.169E-02
RMM:   5    -0.232320647557E+04    0.13785E-05   -0.11652E-05  2872   0.259E-03
 199 F= -.23441137E+04 E0= -.23441137E+04  d E =-.994372E-04  mag=     6.0000
       N       E                     dE             d eps       ncg     rms          rms(c)
DAV:   1    -0.232320633734E+04    0.13961E-03   -0.22196E-02  4480   0.119E-01    0.484E-02
RMM:   2    -0.232320651760E+04   -0.18026E-03   -0.19356E-03  5866   0.249E-02    0.326E-02
RMM:   3    -0.232320653198E+04   -0.14371E-04   -0.22084E-04  2939   0.105E-02    0.338E-02
RMM:   4    -0.232320652355E+04    0.84277E-05   -0.24324E-05  2924   0.337E-03
 200 F= -.23441137E+04 E0= -.23441137E+04  d E =-.111507E-03  mag=     6.0000
       N       E                     dE             d eps       ncg     rms          rms(c)
DAV:   1    -0.232320646754E+04    0.64430E-04   -0.26865E-02  4480   0.143E-01    0.606E-02
RMM:   2    -0.232320669365E+04   -0.22611E-03   -0.22603E-03  5904   0.283E-02    0.646E-02
RMM:   3    -0.232320668987E+04    0.37826E-05   -0.27053E-04  3004   0.120E-02    0.454E-02
RMM:   4    -0.232320667310E+04    0.16772E-04   -0.33287E-05  2961   0.393E-03    0.161E-02
RMM:   5    -0.232320667319E+04   -0.91066E-07   -0.13658E-05  2895   0.305E-03
 201 F= -.23441139E+04 E0= -.23441139E+04  d E =-.119620E-03  mag=     6.0000
