       N       E                     dE             d eps       ncg     rms          rms(c)
DAV:   1     0.121215949822E+05    0.12122E+05   -0.83110E+05  4640   0.140E+03
DAV:   2    -0.129076467081E+04   -0.13412E+05   -0.12905E+05  5040   0.318E+02
DAV:   3    -0.248826418645E+04   -0.11975E+04   -0.11879E+04  5520   0.101E+02
DAV:   4    -0.251321892841E+04   -0.24955E+02   -0.24830E+02  5600   0.175E+01
DAV:   5    -0.251389021394E+04   -0.67129E+00   -0.67013E+00  5920   0.251E+00    0.171E+02
RMM:   6    -0.147911183328E+04    0.10348E+04   -0.18820E+03  4492   0.377E+01    0.744E+01
RMM:   7    -0.164519511883E+04   -0.16608E+03   -0.29579E+02  5013   0.141E+01    0.557E+01
RMM:   8    -0.168256644266E+04   -0.37371E+02   -0.62785E+01  5265   0.734E+00    0.383E+01
RMM:   9    -0.179025826749E+04   -0.10769E+03   -0.54338E+01  5051   0.661E+00    0.351E+01
RMM:  10    -0.190286479253E+04   -0.11261E+03   -0.50871E+01  5371   0.672E+00    0.220E+01
RMM:  11    -0.202027098299E+04   -0.11741E+03   -0.52392E+01  5148   0.588E+00    0.194E+01
RMM:  12    -0.207754661359E+04   -0.57276E+02   -0.22044E+01  5159   0.364E+00    0.141E+01
RMM:  13    -0.221477874608E+04   -0.13723E+03   -0.11919E+02  4640   0.778E+00    0.106E+01
RMM:  14    -0.226567983824E+04   -0.50901E+02   -0.42148E+01  4674   0.463E+00    0.123E+01
RMM:  15    -0.228376762768E+04   -0.18088E+02   -0.14310E+01  4947   0.283E+00    0.774E+00
RMM:  16    -0.229376540740E+04   -0.99978E+01   -0.79666E+00  4757   0.184E+00    0.618E+00
RMM:  17    -0.229843627023E+04   -0.46709E+01   -0.31210E+00  4713   0.134E+00    0.399E+00
RMM:  18    -0.230098690053E+04   -0.25506E+01   -0.14469E+00  4896   0.786E-01    0.313E+00
RMM:  19    -0.230255120429E+04   -0.15643E+01   -0.72008E-01  4901   0.513E-01    0.190E+00
RMM:  20    -0.230309500814E+04   -0.54380E+00   -0.37151E-01  4864   0.360E-01    0.129E+00
RMM:  21    -0.230353330946E+04   -0.43830E+00   -0.37449E-01  4686   0.320E-01    0.422E-01
RMM:  22    -0.230359435941E+04   -0.61050E-01   -0.71229E-02  4673   0.190E-01    0.259E-01
RMM:  23    -0.230363266263E+04   -0.38303E-01   -0.23592E-02  4650   0.766E-02    0.188E-01
RMM:  24    -0.230365972520E+04   -0.27063E-01   -0.77544E-03  4630   0.715E-02    0.123E-01
RMM:  25    -0.230367121671E+04   -0.11492E-01   -0.32264E-03  4670   0.384E-02    0.834E-02
RMM:  26    -0.230368212542E+04   -0.10909E-01   -0.23060E-03  4507   0.354E-02    0.579E-02
RMM:  27    -0.230368873366E+04   -0.66082E-02   -0.15434E-03  4401   0.282E-02    0.347E-02
RMM:  28    -0.230369219495E+04   -0.34613E-02   -0.10093E-03  4272   0.229E-02    0.196E-02
RMM:  29    -0.230369325326E+04   -0.10583E-02   -0.36399E-04  4290   0.147E-02    0.123E-02
RMM:  30    -0.230369360644E+04   -0.35318E-03   -0.11122E-04  3865   0.761E-03    0.637E-03
RMM:  31    -0.230369372499E+04   -0.11854E-03   -0.30065E-05  3326   0.525E-03    0.329E-03
RMM:  32    -0.230369377173E+04   -0.46743E-04   -0.12397E-05  2978   0.356E-03    0.232E-03
RMM:  33    -0.230369379181E+04   -0.20085E-04   -0.65000E-06  2877   0.283E-03    0.143E-03
RMM:  34    -0.230369379737E+04   -0.55556E-05   -0.32053E-06  2530   0.213E-03
   1 F= -.23240685E+04 E0= -.23240685E+04  d E =-.433673E-12  mag=     3.0000
       N       E                     dE             d eps       ncg     rms          rms(c)
DAV:   1    -0.230369117758E+04    0.26142E-02   -0.21989E+00  4480   0.658E-01    0.494E-01
RMM:   2    -0.230369283970E+04   -0.16621E-02   -0.24852E-02  5031   0.718E-02    0.500E-01
RMM:   3    -0.230369001964E+04    0.28201E-02   -0.48306E-03  4926   0.287E-02    0.270E-01
RMM:   4    -0.230368974600E+04    0.27364E-03   -0.20372E-03  4499   0.206E-02    0.225E-01
RMM:   5    -0.230368932521E+04    0.42079E-03   -0.91749E-04  4749   0.137E-02    0.726E-02
RMM:   6    -0.230368929353E+04    0.31680E-04   -0.13092E-04  3289   0.509E-03    0.245E-02
RMM:   7    -0.230368930128E+04   -0.77466E-05   -0.31874E-05  2984   0.303E-03
   2 F= -.23240640E+04 E0= -.23240640E+04  d E =-.127189E-15  mag=     3.0000
       N       E                     dE             d eps       ncg     rms          rms(c)
DAV:   1    -0.230364201102E+04    0.47283E-01   -0.87415E+00  4480   0.130E+00    0.946E-01
RMM:   2    -0.230364608756E+04   -0.40765E-02   -0.87640E-02  5234   0.135E-01    0.869E-01
RMM:   3    -0.230363806042E+04    0.80271E-02   -0.15599E-02  5433   0.553E-02    0.509E-01
RMM:   4    -0.230363669464E+04    0.13658E-02   -0.75230E-03  5050   0.386E-02    0.378E-01
RMM:   5    -0.230363554665E+04    0.11480E-02   -0.28828E-03  5143   0.242E-02    0.125E-01
RMM:   6    -0.230363541092E+04    0.13572E-03   -0.40905E-04  3777   0.816E-03    0.417E-02
RMM:   7    -0.230363539006E+04    0.20866E-04   -0.10424E-04  3542   0.507E-03    0.203E-02
RMM:   8    -0.230363539700E+04   -0.69394E-05   -0.19829E-05  2905   0.318E-03
   3 F= -.23240101E+04 E0= -.23240101E+04  d E =-.127320E-12  mag=     3.0000
       N       E                     dE             d eps       ncg     rms          rms(c)
DAV:   1    -0.230369041994E+04   -0.55030E-01   -0.39403E+00  4480   0.797E-01    0.528E-01
RMM:   2    -0.230369077743E+04   -0.35749E-03   -0.22301E-02  5129   0.671E-02    0.452E-01
RMM:   3    -0.230368914925E+04    0.16282E-02   -0.51136E-03  5103   0.305E-02    0.322E-01
RMM:   4    -0.230368848144E+04    0.66781E-03   -0.23379E-03  4689   0.212E-02    0.197E-01
RMM:   5    -0.230368814873E+04    0.33271E-03   -0.65986E-04  4379   0.122E-02    0.650E-02
RMM:   6    -0.230368812521E+04    0.23524E-04   -0.11035E-04  3332   0.518E-03    0.268E-02
RMM:   7    -0.230368812202E+04    0.31832E-05   -0.20528E-05  2905   0.301E-03
   4 F= -.23240627E+04 E0= -.23240627E+04  d E =-.498444E-13  mag=     3.0000
       N       E                     dE             d eps       ncg     rms          rms(c)
DAV:   1    -0.230369728059E+04   -0.91554E-02   -0.74617E+00  4480   0.975E-01    0.618E-01
RMM:   2    -0.230369476386E+04    0.25167E-02   -0.20362E-02  4732   0.599E-02    0.328E-01
RMM:   3    -0.230369478611E+04   -0.22256E-04   -0.50625E-03  5225   0.312E-02    0.280E-01
RMM:   4    -0.230369415788E+04    0.62823E-03   -0.22591E-03  4661   0.224E-02    0.168E-01
RMM:   5    -0.230369392148E+04    0.23640E-03   -0.47631E-04  3690   0.107E-02    0.776E-02
RMM:   6    -0.230369388869E+04    0.32795E-04   -0.90915E-05  3200   0.584E-03    0.306E-02
RMM:   7    -0.230369389162E+04   -0.29301E-05   -0.30011E-05  3030   0.330E-03
   5 F= -.23240687E+04 E0= -.23240687E+04  d E =-.336061E-14  mag=     3.0000
       N       E                     dE             d eps       ncg     rms          rms(c)
DAV:   1    -0.230369309201E+04    0.79667E-03   -0.38063E+00  4480   0.739E-01    0.478E-01
RMM:   2    -0.230369255246E+04    0.53956E-03   -0.13821E-02  4918   0.505E-02    0.329E-01
RMM:   3    -0.230369155782E+04    0.99464E-03   -0.30443E-03  5076   0.258E-02    0.196E-01
RMM:   4    -0.230369122926E+04    0.32856E-03   -0.95093E-04  4645   0.134E-02    0.893E-02
RMM:   5    -0.230369125457E+04   -0.25314E-04   -0.27204E-04  3512   0.902E-03    0.731E-02
RMM:   6    -0.230369120532E+04    0.49257E-04   -0.72531E-05  2959   0.538E-03    0.287E-02
RMM:   7    -0.230369120333E+04    0.19851E-05   -0.20534E-05  2892   0.276E-03
   6 F= -.23240656E+04 E0= -.23240656E+04  d E =-.121060E-14  mag=     3.0000
       N       E                     dE             d eps       ncg     rms          rms(c)
DAV:   1    -0.230369719100E+04   -0.59857E-02   -0.75461E+00  4480   0.110E+00    0.689E-01
RMM:   2    -0.230369791758E+04   -0.72658E-03   -0.33019E-02  5131   0.791E-02    0.559E-01
RMM:   3    -0.230369507272E+04    0.28449E-02   -0.72492E-03  4986   0.408E-02    0.331E-01
RMM:   4    -0.230369475538E+04    0.31734E-03   -0.28922E-03  4982   0.249E-02    0.264E-01
RMM:   5    -0.230369427999E+04    0.47539E-03   -0.16236E-03  4342   0.193E-02    0.137E-01
RMM:   6    -0.230369416527E+04    0.11471E-03   -0.18405E-04  3597   0.710E-03    0.457E-02
RMM:   7    -0.230369417874E+04   -0.13471E-04   -0.58541E-05  3076   0.450E-03    0.214E-02
RMM:   8    -0.230369418839E+04   -0.96456E-05   -0.19725E-05  2929   0.301E-03
   7 F= -.23240691E+04 E0= -.23240691E+04  d E =-.160683E-15  mag=     3.0000
       N       E                     dE             d eps       ncg     rms          rms(c)
DAV:   1    -0.230366113903E+04    0.33040E-01   -0.67860E+00  4480   0.116E+00    0.515E-01
RMM:   2    -0.230366507620E+04   -0.39372E-02   -0.45841E-02  4492   0.824E-02    0.348E-01
RMM:   3    -0.230366484705E+04    0.22915E-03   -0.54400E-03  4469   0.409E-02    0.343E-01
RMM:   4    -0.230366380596E+04    0.10411E-02   -0.16967E-03  4447   0.211E-02    0.128E-01
RMM:   5    -0.230366378647E+04    0.19484E-04   -0.88085E-04  4088   0.137E-02    0.894E-02
RMM:   6    -0.230366368282E+04    0.10365E-03   -0.11840E-04  3461   0.678E-03    0.274E-02
RMM:   7    -0.230366368112E+04    0.16992E-05   -0.20408E-05  2996   0.366E-03
   8 F= -.23240388E+04 E0= -.23240388E+04  d E =-.997247E-16  mag=     3.0000
       N       E                     dE             d eps       ncg     rms          rms(c)
DAV:   1    -0.230368827509E+04   -0.24592E-01   -0.19748E+01  4480   0.174E+00    0.857E-01
RMM:   2    -0.230369965370E+04   -0.11379E-01   -0.12684E-01  4621   0.125E-01    0.490E-01
RMM:   3    -0.230369833870E+04    0.13150E-02   -0.99841E-03  5342   0.523E-02    0.428E-01
RMM:   4    -0.230369671545E+04    0.16232E-02   -0.43796E-03  4775   0.334E-02    0.240E-01
RMM:   5    -0.230369606893E+04    0.64652E-03   -0.16248E-03  4537   0.206E-02    0.845E-02
RMM:   6    -0.230369606816E+04    0.77070E-06   -0.31529E-04  3851   0.122E-02    0.431E-02
RMM:   7    -0.230369605223E+04    0.15935E-04   -0.40529E-05  3198   0.476E-03    0.235E-02
RMM:   8    -0.230369605143E+04    0.79155E-06   -0.26123E-05  3062   0.426E-03
   9 F= -.23240702E+04 E0= -.23240702E+04  d E =-.203736E-10  mag=     3.0000
       N       E                     dE             d eps       ncg     rms          rms(c)
DAV:   1    -0.230368691629E+04    0.91359E-02   -0.98533E+00  4640   0.128E+00    0.537E-01
RMM:   2    -0.230369330292E+04   -0.63866E-02   -0.72053E-02  4514   0.972E-02    0.294E-01
RMM:   3    -0.230369254919E+04    0.75373E-03   -0.46417E-03  4816   0.446E-02    0.247E-01
RMM:   4    -0.230369212270E+04    0.42648E-03   -0.17419E-03  4324   0.212E-02    0.160E-01
RMM:   5    -0.230369184011E+04    0.28260E-03   -0.53836E-04  4275   0.126E-02    0.659E-02
RMM:   6    -0.230369182600E+04    0.14104E-04   -0.13817E-04  3463   0.729E-03    0.266E-02
RMM:   7    -0.230369182490E+04    0.10990E-05   -0.17732E-05  2978   0.363E-03
  10 F= -.23240666E+04 E0= -.23240666E+04  d E =-.287116E-13  mag=     3.0000
       N       E                     dE             d eps       ncg     rms          rms(c)
DAV:   1    -0.230368672195E+04    0.51040E-02   -0.20076E+01  4480   0.163E+00    0.566E-01
RMM:   2    -0.230369572659E+04   -0.90046E-02   -0.88782E-02  4406   0.985E-02    0.282E-01
RMM:   3    -0.230369547856E+04    0.24803E-03   -0.41729E-03  4704   0.504E-02    0.135E-01
RMM:   4    -0.230369529819E+04    0.18037E-03   -0.10143E-03  4113   0.164E-02    0.752E-02
RMM:   5    -0.230369527937E+04    0.18820E-04   -0.27442E-04  3940   0.865E-03    0.355E-02
RMM:   6    -0.230369527741E+04    0.19576E-05   -0.36508E-05  3006   0.490E-03
  11 F= -.23240699E+04 E0= -.23240699E+04  d E =-.170692E-12  mag=     3.0000
       N       E                     dE             d eps       ncg     rms          rms(c)
DAV:   1    -0.230367896350E+04    0.16316E-01   -0.10029E+01  4480   0.119E+00    0.420E-01
RMM:   2    -0.230368239695E+04   -0.34334E-02   -0.36783E-02  4233   0.705E-02    0.224E-01
RMM:   3    -0.230368266341E+04   -0.26647E-03   -0.26794E-03  4735   0.367E-02    0.199E-01
RMM:   4    -0.230368233546E+04    0.32795E-03   -0.94174E-04  4078   0.156E-02    0.111E-01
RMM:   5    -0.230368221576E+04    0.11970E-03   -0.34192E-04  3790   0.100E-02    0.321E-02
RMM:   6    -0.230368221843E+04   -0.26661E-05   -0.48935E-05  3108   0.549E-03
  12 F= -.23240576E+04 E0= -.23240576E+04  d E =-.133404E-13  mag=     3.0000
       N       E                     dE             d eps       ncg     rms          rms(c)
DAV:   1    -0.230369681271E+04   -0.14597E-01   -0.20120E+01  4480   0.172E+00    0.588E-01
RMM:   2    -0.230370404735E+04   -0.72346E-02   -0.72842E-02  4307   0.905E-02    0.345E-01
RMM:   3    -0.230370373525E+04    0.31210E-03   -0.48928E-03  4764   0.384E-02    0.293E-01
RMM:   4    -0.230370304444E+04    0.69081E-03   -0.19793E-03  4506   0.214E-02    0.171E-01
RMM:   5    -0.230370276072E+04    0.28372E-03   -0.74520E-04  4194   0.137E-02    0.536E-02
RMM:   6    -0.230370276265E+04   -0.19295E-05   -0.11148E-04  3375   0.697E-03    0.299E-02
RMM:   7    -0.230370276403E+04   -0.13888E-05   -0.36122E-05  3065   0.430E-03
  13 F= -.23240766E+04 E0= -.23240766E+04  d E =-.388525E-12  mag=     3.0000
       N       E                     dE             d eps       ncg     rms          rms(c)
DAV:   1    -0.230367678424E+04    0.25978E-01   -0.53325E+00  4800   0.957E-01    0.453E-01
RMM:   2    -0.230367873570E+04   -0.19515E-02   -0.36219E-02  4359   0.709E-02    0.323E-01
RMM:   3    -0.230367723211E+04    0.15036E-02   -0.29907E-03  5163   0.267E-02    0.168E-01
RMM:   4    -0.230367714542E+04    0.86692E-04   -0.10529E-03  4190   0.146E-02    0.146E-01
RMM:   5    -0.230367697451E+04    0.17091E-03   -0.41768E-04  3584   0.100E-02    0.808E-02
RMM:   6    -0.230367692417E+04    0.50335E-04   -0.12515E-04  3437   0.609E-03    0.254E-02
RMM:   7    -0.230367692150E+04    0.26700E-05   -0.13195E-05  2792   0.290E-03
  14 F= -.23240520E+04 E0= -.23240520E+04  d E =-.121888E-12  mag=     3.0000
       N       E                     dE             d eps       ncg     rms          rms(c)
DAV:   1    -0.230369316935E+04   -0.16245E-01   -0.12601E+00  5280   0.424E-01    0.675E-01
RMM:   2    -0.230369226660E+04    0.90275E-03   -0.34813E-02  5355   0.715E-02    0.664E-01
RMM:   3    -0.230368634443E+04    0.59222E-02   -0.92974E-03  4957   0.469E-02    0.328E-01
RMM:   4    -0.230368602075E+04    0.32369E-03   -0.30972E-03  4635   0.235E-02    0.286E-01
RMM:   5    -0.230368530937E+04    0.71138E-03   -0.15317E-03  4485   0.172E-02    0.115E-01
RMM:   6    -0.230368517047E+04    0.13890E-03   -0.31679E-04  3721   0.731E-03    0.314E-02
RMM:   7    -0.230368515755E+04    0.12913E-04   -0.54632E-05  2887   0.527E-03    0.121E-02
RMM:   8    -0.230368515644E+04    0.11107E-05   -0.10497E-05  2701   0.206E-03
  15 F= -.23240594E+04 E0= -.23240594E+04  d E =-.832365E-13  mag=     3.0000
       N       E                     dE             d eps       ncg     rms          rms(c)
DAV:   1    -0.230369376487E+04   -0.86073E-02   -0.60497E-01  5040   0.269E-01    0.372E-01
RMM:   2    -0.230369342375E+04    0.34112E-03   -0.81853E-03  4779   0.344E-02    0.322E-01
RMM:   3    -0.230369229758E+04    0.11262E-02   -0.24599E-03  4478   0.230E-02    0.202E-01
RMM:   4    -0.230369219642E+04    0.10116E-03   -0.10048E-03  3971   0.141E-02    0.171E-01
RMM:   5    -0.230369193441E+04    0.26201E-03   -0.45180E-04  3747   0.101E-02    0.560E-02
RMM:   6    -0.230369190114E+04    0.33265E-04   -0.74633E-05  3223   0.431E-03    0.166E-02
RMM:   7    -0.230369189842E+04    0.27195E-05   -0.13136E-05  2642   0.284E-03
  16 F= -.23240664E+04 E0= -.23240664E+04  d E =-.849187E-13  mag=     3.0000
       N       E                     dE             d eps       ncg     rms          rms(c)
DAV:   1    -0.230369459257E+04   -0.26914E-02   -0.11532E+00  4480   0.378E-01    0.378E-01
RMM:   2    -0.230369419164E+04    0.40094E-03   -0.37221E-03  4257   0.240E-02    0.229E-01
RMM:   3    -0.230369424343E+04   -0.51793E-04   -0.14683E-03  4520   0.165E-02    0.176E-01
RMM:   4    -0.230369399291E+04    0.25052E-03   -0.75517E-04  3952   0.137E-02    0.929E-02
RMM:   5    -0.230369389920E+04    0.93710E-04   -0.13163E-04  3189   0.611E-03    0.313E-02
RMM:   6    -0.230369389156E+04    0.76331E-05   -0.29898E-05  2900   0.331E-03
  17 F= -.23240687E+04 E0= -.23240687E+04  d E =-.168973E-12  mag=     3.0000
       N       E                     dE             d eps       ncg     rms          rms(c)
DAV:   1    -0.230369076451E+04    0.31347E-02   -0.57545E-01  4640   0.270E-01    0.267E-01
RMM:   2    -0.230369071996E+04    0.44551E-04   -0.22638E-03  4107   0.202E-02    0.169E-01
RMM:   3    -0.230369085179E+04   -0.13183E-03   -0.93413E-04  4010   0.146E-02    0.184E-01
RMM:   4    -0.230369060546E+04    0.24633E-03   -0.51960E-04  3665   0.112E-02    0.769E-02
RMM:   5    -0.230369055801E+04    0.47450E-04   -0.13195E-04  3111   0.654E-03    0.354E-02
RMM:   6    -0.230369054552E+04    0.12492E-04   -0.15645E-05  2694   0.291E-03    0.123E-02
RMM:   7    -0.230369054576E+04   -0.23800E-06   -0.46463E-06  2514   0.157E-03
  18 F= -.23240657E+04 E0= -.23240657E+04  d E =-.368327E-14  mag=     3.0000
       N       E                     dE             d eps       ncg     rms          rms(c)
DAV:   1    -0.230369562698E+04   -0.50815E-02   -0.11579E+00  4480   0.388E-01    0.389E-01
RMM:   2    -0.230369563591E+04   -0.89338E-05   -0.38033E-03  4244   0.281E-02    0.250E-01
RMM:   3    -0.230369639193E+04   -0.75602E-03   -0.26259E-03  4531   0.233E-02    0.328E-01
RMM:   4    -0.230369530601E+04    0.10859E-02   -0.11294E-03  4036   0.167E-02    0.633E-02
RMM:   5    -0.230369532085E+04   -0.14848E-04   -0.19568E-04  3569   0.680E-03    0.473E-02
RMM:   6    -0.230369529844E+04    0.22414E-04   -0.43303E-05  2967   0.414E-03    0.175E-02
RMM:   7    -0.230369529913E+04   -0.69401E-06   -0.11310E-05  2742   0.234E-03
  19 F= -.23240695E+04 E0= -.23240695E+04  d E =-.556392E-11  mag=     3.0000
