       N       E                     dE             d eps       ncg     rms          rms(c)
DAV:   1     0.130943279847E+05    0.13094E+05   -0.84395E+05  4560   0.143E+03
DAV:   2    -0.103462048924E+04   -0.14129E+05   -0.13517E+05  4980   0.329E+02
DAV:   3    -0.248067501259E+04   -0.14461E+04   -0.14292E+04  5500   0.114E+02
DAV:   4    -0.252365443735E+04   -0.42979E+02   -0.42738E+02  6640   0.278E+01
DAV:   5    -0.252449897338E+04   -0.84454E+00   -0.84249E+00  5680   0.329E+00    0.170E+02
RMM:   6    -0.149508579527E+04    0.10294E+04   -0.19295E+03  4512   0.378E+01    0.732E+01
RMM:   7    -0.166706214919E+04   -0.17198E+03   -0.30260E+02  5233   0.146E+01    0.531E+01
RMM:   8    -0.171519828095E+04   -0.48136E+02   -0.78492E+01  5409   0.822E+00    0.433E+01
RMM:   9    -0.178308711051E+04   -0.67889E+02   -0.62548E+01  5233   0.711E+00    0.397E+01
RMM:  10    -0.188016670542E+04   -0.97080E+02   -0.62758E+01  5439   0.761E+00    0.326E+01
RMM:  11    -0.197053425020E+04   -0.90368E+02   -0.43223E+01  5527   0.592E+00    0.201E+01
RMM:  12    -0.204927377748E+04   -0.78740E+02   -0.31188E+01  5095   0.444E+00    0.196E+01
RMM:  13    -0.209717632370E+04   -0.47903E+02   -0.17803E+01  5294   0.342E+00    0.135E+01
RMM:  14    -0.222412404211E+04   -0.12695E+03   -0.98662E+01  4508   0.701E+00    0.926E+00
RMM:  15    -0.229038125465E+04   -0.66257E+02   -0.61960E+01  4573   0.540E+00    0.671E+00
RMM:  16    -0.230524922508E+04   -0.14868E+02   -0.16080E+01  4831   0.348E+00    0.428E+00
RMM:  17    -0.231131555588E+04   -0.60663E+01   -0.69421E+00  4798   0.160E+00    0.296E+00
RMM:  18    -0.231332547066E+04   -0.20099E+01   -0.12604E+00  4875   0.106E+00    0.371E+00
RMM:  19    -0.231340422556E+04   -0.78755E-01   -0.22681E-01  5760   0.298E-01    0.348E+00
RMM:  20    -0.231356143165E+04   -0.15721E+00   -0.32417E-02  5193   0.116E-01    0.316E+00
RMM:  21    -0.231547924218E+04   -0.19178E+01   -0.89955E-01  4519   0.551E-01    0.166E+00
RMM:  22    -0.231584678822E+04   -0.36755E+00   -0.26047E-01  4584   0.331E-01    0.109E+00
RMM:  23    -0.231599658590E+04   -0.14980E+00   -0.11237E-01  4755   0.198E-01    0.718E-01
RMM:  24    -0.231607520585E+04   -0.78620E-01   -0.57813E-02  5289   0.138E-01    0.381E-01
RMM:  25    -0.231612033000E+04   -0.45124E-01   -0.18232E-02  4653   0.776E-02    0.344E-01
RMM:  26    -0.231614548114E+04   -0.25151E-01   -0.81391E-03  4642   0.586E-02    0.215E-01
RMM:  27    -0.231616544834E+04   -0.19967E-01   -0.42668E-03  4617   0.477E-02    0.142E-01
RMM:  28    -0.231618396971E+04   -0.18521E-01   -0.43458E-03  4546   0.444E-02    0.848E-02
RMM:  29    -0.231619340735E+04   -0.94376E-02   -0.27396E-03  4714   0.394E-02    0.372E-02
RMM:  30    -0.231619651378E+04   -0.31064E-02   -0.11085E-03  4853   0.227E-02    0.225E-02
RMM:  31    -0.231619778708E+04   -0.12733E-02   -0.31980E-04  4007   0.112E-02    0.156E-02
RMM:  32    -0.231619818813E+04   -0.40105E-03   -0.10385E-04  3844   0.747E-03    0.875E-03
RMM:  33    -0.231619831559E+04   -0.12747E-03   -0.32240E-05  3274   0.483E-03    0.727E-03
RMM:  34    -0.231619837141E+04   -0.55812E-04   -0.13117E-05  2978   0.363E-03    0.406E-03
RMM:  35    -0.231619840832E+04   -0.36918E-04   -0.86803E-06  2896   0.292E-03    0.214E-03
RMM:  36    -0.231619842058E+04   -0.12259E-04   -0.42298E-06  2649   0.243E-03    0.118E-03
RMM:  37    -0.231619842589E+04   -0.53024E-05   -0.24588E-06  2534   0.174E-03
   1 F= -.23375182E+04 E0= -.23375182E+04  d E =-.151387E-07  mag=     3.0001
       N       E                     dE             d eps       ncg     rms          rms(c)
DAV:   1    -0.231628825283E+04   -0.89832E-01   -0.18650E+00  4580   0.765E-01    0.304E-01
RMM:   2    -0.231629064860E+04   -0.23958E-02   -0.19936E-02  4509   0.960E-02    0.414E-01
RMM:   3    -0.231628926802E+04    0.13806E-02   -0.36544E-03  5475   0.324E-02    0.252E-01
RMM:   4    -0.231628914567E+04    0.12235E-03   -0.15151E-03  4734   0.156E-02    0.226E-01
RMM:   5    -0.231628902171E+04    0.12396E-03   -0.10386E-03  4675   0.143E-02    0.193E-01
RMM:   6    -0.231628870127E+04    0.32044E-03   -0.27002E-04  3409   0.812E-03    0.773E-02
RMM:   7    -0.231628865078E+04    0.50499E-04   -0.10576E-04  2921   0.572E-03    0.380E-02
RMM:   8    -0.231628863319E+04    0.17584E-04   -0.17357E-05  2861   0.296E-03    0.115E-02
RMM:   9    -0.231628863243E+04    0.76195E-06   -0.82371E-06  2796   0.211E-03
   2 F= -.23376084E+04 E0= -.23376084E+04  d E =-.191437E-07  mag=     3.0000
       N       E                     dE             d eps       ncg     rms          rms(c)
DAV:   1    -0.231609309618E+04    0.19554E+00   -0.74229E+00  4520   0.153E+00    0.630E-01
RMM:   2    -0.231610172724E+04   -0.86311E-02   -0.75298E-02  4889   0.173E-01    0.816E-01
RMM:   3    -0.231609630605E+04    0.54212E-02   -0.14234E-02  6050   0.653E-02    0.536E-01
RMM:   4    -0.231609596562E+04    0.34043E-03   -0.64332E-03  5736   0.316E-02    0.494E-01
RMM:   5    -0.231609514708E+04    0.81854E-03   -0.42524E-03  5618   0.272E-02    0.390E-01
RMM:   6    -0.231609374028E+04    0.14068E-02   -0.10447E-03  4399   0.143E-02    0.141E-01
RMM:   7    -0.231609358799E+04    0.15229E-03   -0.38228E-04  3577   0.912E-03    0.750E-02
RMM:   8    -0.231609352867E+04    0.59325E-04   -0.64896E-05  3216   0.499E-03    0.229E-02
RMM:   9    -0.231609352941E+04   -0.74609E-06   -0.27986E-05  3026   0.343E-03
   3 F= -.23374133E+04 E0= -.23374133E+04  d E =-.124574E-07  mag=     3.0000
       N       E                     dE             d eps       ncg     rms          rms(c)
DAV:   1    -0.231617687117E+04   -0.83343E-01   -0.39692E+00  4520   0.114E+00    0.483E-01
RMM:   2    -0.231618717279E+04   -0.10302E-01   -0.50555E-02  5125   0.141E-01    0.922E-01
RMM:   3    -0.231617826705E+04    0.89057E-02   -0.97708E-03  5868   0.529E-02    0.298E-01
RMM:   4    -0.231617783067E+04    0.43638E-03   -0.34074E-03  5243   0.244E-02    0.225E-01
RMM:   5    -0.231617788618E+04   -0.55515E-04   -0.17439E-03  5099   0.191E-02    0.250E-01
RMM:   6    -0.231617736414E+04    0.52204E-03   -0.50943E-04  3710   0.105E-02    0.960E-02
RMM:   7    -0.231617730435E+04    0.59784E-04   -0.17266E-04  3228   0.706E-03    0.626E-02
RMM:   8    -0.231617725513E+04    0.49224E-04   -0.52135E-05  2980   0.436E-03    0.157E-02
RMM:   9    -0.231617725470E+04    0.42601E-06   -0.15990E-05  2879   0.301E-03
   4 F= -.23374970E+04 E0= -.23374970E+04  d E =-.101897E-07  mag=     3.0000
       N       E                     dE             d eps       ncg     rms          rms(c)
DAV:   1    -0.231618694140E+04   -0.96863E-02   -0.80239E+00  4520   0.142E+00    0.632E-01
RMM:   2    -0.231620723954E+04   -0.20298E-01   -0.87273E-02  5668   0.173E-01    0.130E+00
RMM:   3    -0.231618875207E+04    0.18487E-01   -0.17315E-02  6127   0.646E-02    0.322E-01
RMM:   4    -0.231618827803E+04    0.47403E-03   -0.43056E-03  5495   0.282E-02    0.249E-01
RMM:   5    -0.231618789551E+04    0.38253E-03   -0.16254E-03  4568   0.199E-02    0.164E-01
RMM:   6    -0.231618766757E+04    0.22793E-03   -0.28509E-04  3444   0.850E-03    0.782E-02
RMM:   7    -0.231618766984E+04   -0.22708E-05   -0.13388E-04  2995   0.609E-03    0.785E-02
RMM:   8    -0.231618761652E+04    0.53325E-04   -0.44785E-05  2979   0.403E-03    0.184E-02
RMM:   9    -0.231618761733E+04   -0.81402E-06   -0.10521E-05  2819   0.232E-03
   5 F= -.23375074E+04 E0= -.23375074E+04  d E =-.217644E-07  mag=     3.0000
       N       E                     dE             d eps       ncg     rms          rms(c)
DAV:   1    -0.231618089616E+04    0.67204E-02   -0.39571E+00  4520   0.106E+00    0.429E-01
RMM:   2    -0.231618901702E+04   -0.81209E-02   -0.39714E-02  4973   0.129E-01    0.825E-01
RMM:   3    -0.231618244090E+04    0.65761E-02   -0.73410E-03  5769   0.439E-02    0.257E-01
RMM:   4    -0.231618247265E+04   -0.31747E-04   -0.26726E-03  5224   0.199E-02    0.255E-01
RMM:   5    -0.231618283583E+04   -0.36318E-03   -0.15888E-03  4789   0.176E-02    0.320E-01
RMM:   6    -0.231618184332E+04    0.99251E-03   -0.63699E-04  4026   0.117E-02    0.511E-02
RMM:   7    -0.231618185035E+04   -0.70334E-05   -0.12542E-04  2980   0.579E-03    0.540E-02
RMM:   8    -0.231618181655E+04    0.33805E-04   -0.43660E-05  2794   0.408E-03    0.143E-02
RMM:   9    -0.231618181604E+04    0.50473E-06   -0.11699E-05  2723   0.213E-03
   6 F= -.23375013E+04 E0= -.23375013E+04  d E =-.164012E-07  mag=     3.0000
       N       E                     dE             d eps       ncg     rms          rms(c)
DAV:   1    -0.231620636205E+04   -0.24545E-01   -0.72271E+00  4540   0.139E+00    0.583E-01
RMM:   2    -0.231621518724E+04   -0.88252E-02   -0.70389E-02  5044   0.159E-01    0.783E-01
RMM:   3    -0.231621069451E+04    0.44927E-02   -0.11028E-02  5889   0.507E-02    0.524E-01
RMM:   4    -0.231620983597E+04    0.85854E-03   -0.51236E-03  5766   0.292E-02    0.425E-01
RMM:   5    -0.231620979113E+04    0.44836E-04   -0.34478E-03  5468   0.236E-02    0.373E-01
RMM:   6    -0.231620840310E+04    0.13880E-02   -0.13761E-03  4837   0.179E-02    0.108E-01
RMM:   7    -0.231620836322E+04    0.39883E-04   -0.32642E-04  3346   0.801E-03    0.959E-02
RMM:   8    -0.231620826245E+04    0.10077E-03   -0.77954E-05  3016   0.559E-03    0.177E-02
RMM:   9    -0.231620826471E+04   -0.22628E-05   -0.25077E-05  2974   0.311E-03
   7 F= -.23375283E+04 E0= -.23375283E+04  d E =-.134981E-07  mag=     3.0000
       N       E                     dE             d eps       ncg     rms          rms(c)
DAV:   1    -0.231613530602E+04    0.72956E-01   -0.67996E+00  4500   0.122E+00    0.493E-01
RMM:   2    -0.231614851808E+04   -0.13212E-01   -0.11910E-01  5592   0.150E-01    0.652E-01
RMM:   3    -0.231614601839E+04    0.24997E-02   -0.10535E-02  5939   0.453E-02    0.462E-01
RMM:   4    -0.231614542224E+04    0.59615E-03   -0.38832E-03  5532   0.246E-02    0.375E-01
RMM:   5    -0.231614442914E+04    0.99310E-03   -0.17407E-03  4919   0.175E-02    0.204E-01
RMM:   6    -0.231614428750E+04    0.14164E-03   -0.81844E-04  4299   0.134E-02    0.153E-01
RMM:   7    -0.231614415194E+04    0.13556E-03   -0.38542E-04  3727   0.952E-03    0.101E-01
RMM:   8    -0.231614404759E+04    0.10434E-03   -0.13003E-04  3117   0.660E-03    0.152E-02
RMM:   9    -0.231614405359E+04   -0.59960E-05   -0.20496E-05  2860   0.339E-03
   8 F= -.23374635E+04 E0= -.23374635E+04  d E =-.898910E-08  mag=     3.0000
       N       E                     dE             d eps       ncg     rms          rms(c)
DAV:   1    -0.231623297980E+04   -0.88932E-01   -0.19240E+01  4440   0.182E+00    0.713E-01
RMM:   2    -0.231625471544E+04   -0.21736E-01   -0.22093E-01  5601   0.187E-01    0.644E-01
RMM:   3    -0.231625752228E+04   -0.28068E-02   -0.23410E-02  5882   0.685E-02    0.818E-01
RMM:   4    -0.231625287916E+04    0.46431E-02   -0.70714E-03  6004   0.372E-02    0.451E-01
RMM:   5    -0.231625209926E+04    0.77990E-03   -0.31066E-03  5330   0.223E-02    0.332E-01
RMM:   6    -0.231625146368E+04    0.63558E-03   -0.15504E-03  4918   0.182E-02    0.200E-01
RMM:   7    -0.231625105221E+04    0.41147E-03   -0.50467E-04  3818   0.107E-02    0.730E-02
RMM:   8    -0.231625100846E+04    0.43750E-04   -0.14376E-04  3203   0.662E-03    0.280E-02
RMM:   9    -0.231625100674E+04    0.17191E-05   -0.16496E-05  2904   0.340E-03
   9 F= -.23375711E+04 E0= -.23375711E+04  d E =-.263793E-07  mag=     3.0000
       N       E                     dE             d eps       ncg     rms          rms(c)
DAV:   1    -0.231613327403E+04    0.11773E+00   -0.95163E+00  4420   0.127E+00    0.462E-01
RMM:   2    -0.231614335637E+04   -0.10082E-01   -0.11181E-01  5794   0.136E-01    0.249E-01
RMM:   3    -0.231614454765E+04   -0.11913E-02   -0.86808E-03  5235   0.338E-02    0.357E-01
RMM:   4    -0.231614370887E+04    0.83878E-03   -0.21928E-03  4586   0.180E-02    0.209E-01
RMM:   5    -0.231614377327E+04   -0.64398E-04   -0.81165E-04  4297   0.132E-02    0.203E-01
RMM:   6    -0.231614343544E+04    0.33783E-03   -0.38854E-04  3786   0.974E-03    0.837E-02
RMM:   7    -0.231614338962E+04    0.45821E-04   -0.11393E-04  3080   0.582E-03    0.321E-02
RMM:   8    -0.231614338605E+04    0.35748E-05   -0.27794E-05  2727   0.372E-03
  10 F= -.23374631E+04 E0= -.23374631E+04  d E =-.258911E-07  mag=     3.0000
       N       E                     dE             d eps       ncg     rms          rms(c)
DAV:   1    -0.231623818056E+04   -0.94791E-01   -0.19555E+01  4400   0.163E+00    0.587E-01
RMM:   2    -0.231625444055E+04   -0.16260E-01   -0.14688E-01  4804   0.183E-01    0.608E-01
RMM:   3    -0.231625421505E+04    0.22549E-03   -0.17533E-02  5924   0.660E-02    0.610E-01
RMM:   4    -0.231625135910E+04    0.28560E-02   -0.39446E-03  5576   0.280E-02    0.319E-01
RMM:   5    -0.231625111786E+04    0.24124E-03   -0.19551E-03  4816   0.181E-02    0.279E-01
RMM:   6    -0.231625061925E+04    0.49861E-03   -0.91530E-04  4195   0.128E-02    0.143E-01
RMM:   7    -0.231625051623E+04    0.10301E-03   -0.39986E-04  3587   0.941E-03    0.100E-01
RMM:   8    -0.231625040559E+04    0.11064E-03   -0.90037E-05  3003   0.570E-03    0.208E-02
RMM:   9    -0.231625040933E+04   -0.37340E-05   -0.17364E-05  2806   0.267E-03
  11 F= -.23375702E+04 E0= -.23375702E+04  d E =-.910847E-08  mag=     3.0000
       N       E                     dE             d eps       ncg     rms          rms(c)
DAV:   1    -0.231619463483E+04    0.55771E-01   -0.98881E+00  4420   0.118E+00    0.425E-01
RMM:   2    -0.231620487124E+04   -0.10236E-01   -0.86309E-02  5179   0.125E-01    0.548E-01
RMM:   3    -0.231620292544E+04    0.19458E-02   -0.94355E-03  5440   0.463E-02    0.364E-01
RMM:   4    -0.231620231121E+04    0.61423E-03   -0.24127E-03  5262   0.217E-02    0.281E-01
RMM:   5    -0.231620203530E+04    0.27591E-03   -0.12817E-03  4442   0.147E-02    0.233E-01
RMM:   6    -0.231620161216E+04    0.42313E-03   -0.59994E-04  4288   0.114E-02    0.118E-01
RMM:   7    -0.231620149792E+04    0.11424E-03   -0.26143E-04  3254   0.817E-03    0.681E-02
RMM:   8    -0.231620144213E+04    0.55785E-04   -0.74586E-05  2985   0.559E-03    0.141E-02
RMM:   9    -0.231620144257E+04   -0.44118E-06   -0.12547E-05  2806   0.286E-03
  12 F= -.23375214E+04 E0= -.23375214E+04  d E =-.826980E-08  mag=     3.0000
       N       E                     dE             d eps       ncg     rms          rms(c)
DAV:   1    -0.231617321879E+04    0.28223E-01   -0.19593E+01  4400   0.181E+00    0.692E-01
RMM:   2    -0.231619234314E+04   -0.19124E-01   -0.19469E-01  4999   0.190E-01    0.654E-01
RMM:   3    -0.231619488494E+04   -0.25418E-02   -0.25387E-02  5459   0.851E-02    0.720E-01
RMM:   4    -0.231619003778E+04    0.48472E-02   -0.68622E-03  5967   0.373E-02    0.327E-01
RMM:   5    -0.231619033203E+04   -0.29425E-03   -0.26493E-03  5128   0.200E-02    0.387E-01
RMM:   6    -0.231618913614E+04    0.11959E-02   -0.12853E-03  5033   0.158E-02    0.171E-01
RMM:   7    -0.231618889968E+04    0.23645E-03   -0.56297E-04  3849   0.107E-02    0.931E-02
RMM:   8    -0.231618882147E+04    0.78217E-04   -0.19726E-04  3403   0.746E-03    0.359E-02
RMM:   9    -0.231618883534E+04   -0.13874E-04   -0.23684E-05  2932   0.362E-03    0.159E-02
RMM:  10    -0.231618887600E+04   -0.40662E-04   -0.15764E-05  2929   0.300E-03    0.748E-03
RMM:  11    -0.231618889409E+04   -0.18093E-04   -0.54719E-06  2756   0.266E-03    0.468E-03
RMM:  12    -0.231618891228E+04   -0.18184E-04   -0.60767E-06  2761   0.203E-03    0.293E-03
RMM:  13    -0.231618892099E+04   -0.87109E-05   -0.29452E-06  2668   0.207E-03
  13 F= -.23375085E+04 E0= -.23375085E+04  d E =-.263840E-07  mag=     3.0000
       N       E                     dE             d eps       ncg     rms          rms(c)
DAV:   1    -0.231622654877E+04   -0.37636E-01   -0.52371E+00  4560   0.968E-01    0.423E-01
RMM:   2    -0.231623262229E+04   -0.60735E-02   -0.65357E-02  4418   0.115E-01    0.382E-01
RMM:   3    -0.231623338165E+04   -0.75936E-03   -0.76698E-03  4720   0.566E-02    0.433E-01
RMM:   4    -0.231623171007E+04    0.16716E-02   -0.24338E-03  5397   0.232E-02    0.209E-01
RMM:   5    -0.231623189421E+04   -0.18413E-03   -0.10821E-03  4428   0.137E-02    0.263E-01
RMM:   6    -0.231623129761E+04    0.59660E-03   -0.51522E-04  3890   0.105E-02    0.928E-02
RMM:   7    -0.231623126157E+04    0.36041E-04   -0.23136E-04  3242   0.775E-03    0.723E-02
RMM:   8    -0.231623119808E+04    0.63489E-04   -0.71647E-05  2961   0.537E-03    0.159E-02
RMM:   9    -0.231623119793E+04    0.15249E-06   -0.12311E-05  2825   0.271E-03
  14 F= -.23375510E+04 E0= -.23375510E+04  d E =-.135747E-07  mag=     3.0000
       N       E                     dE             d eps       ncg     rms          rms(c)
DAV:   1    -0.231615236939E+04    0.78829E-01   -0.12067E+00  4880   0.555E-01    0.476E-01
RMM:   2    -0.231614990746E+04    0.24619E-02   -0.15840E-02  4983   0.743E-02    0.289E-01
RMM:   3    -0.231615091135E+04   -0.10039E-02   -0.35328E-03  4637   0.426E-02    0.409E-01
RMM:   4    -0.231614944616E+04    0.14652E-02   -0.21900E-03  5124   0.215E-02    0.210E-01
RMM:   5    -0.231614941050E+04    0.35661E-04   -0.84204E-04  4518   0.140E-02    0.200E-01
RMM:   6    -0.231614902566E+04    0.38484E-03   -0.28149E-04  3602   0.924E-03    0.623E-02
RMM:   7    -0.231614899977E+04    0.25885E-04   -0.83494E-05  2955   0.495E-03    0.375E-02
RMM:   8    -0.231614898920E+04    0.10567E-04   -0.30762E-05  2806   0.341E-03    0.207E-02
RMM:   9    -0.231614898410E+04    0.50998E-05   -0.70204E-06  2664   0.217E-03
  15 F= -.23374687E+04 E0= -.23374687E+04  d E =-.168728E-07  mag=     3.0000
       N       E                     dE             d eps       ncg     rms          rms(c)
DAV:   1    -0.231619373448E+04   -0.44745E-01   -0.60846E-01  4900   0.410E-01    0.354E-01
RMM:   2    -0.231619253206E+04    0.12024E-02   -0.91727E-03  5071   0.592E-02    0.268E-01
RMM:   3    -0.231619433402E+04   -0.18020E-02   -0.32614E-03  4713   0.330E-02    0.506E-01
RMM:   4    -0.231619187737E+04    0.24567E-02   -0.13902E-03  4917   0.180E-02    0.141E-01
RMM:   5    -0.231619220965E+04   -0.33228E-03   -0.86570E-04  4710   0.131E-02    0.219E-01
RMM:   6    -0.231619172055E+04    0.48910E-03   -0.30978E-04  3546   0.970E-03    0.442E-02
RMM:   7    -0.231619170513E+04    0.15422E-04   -0.57795E-05  2950   0.489E-03    0.304E-02
RMM:   8    -0.231619169587E+04    0.92570E-05   -0.21171E-05  2755   0.312E-03
  16 F= -.23375112E+04 E0= -.23375112E+04  d E =-.148159E-07  mag=     3.0000
       N       E                     dE             d eps       ncg     rms          rms(c)
DAV:   1    -0.231619877894E+04   -0.70738E-02   -0.11360E+00  4560   0.533E-01    0.375E-01
RMM:   2    -0.231619917936E+04   -0.40042E-03   -0.10314E-02  5528   0.668E-02    0.388E-01
RMM:   3    -0.231619986948E+04   -0.69012E-03   -0.36955E-03  5509   0.311E-02    0.473E-01
RMM:   4    -0.231619812792E+04    0.17416E-02   -0.15110E-03  5051   0.186E-02    0.200E-01
RMM:   5    -0.231619802817E+04    0.99743E-04   -0.99592E-04  4539   0.141E-02    0.161E-01
RMM:   6    -0.231619782755E+04    0.20062E-03   -0.27692E-04  3545   0.910E-03    0.755E-02
RMM:   7    -0.231619776875E+04    0.58802E-04   -0.70568E-05  2991   0.574E-03    0.285E-02
RMM:   8    -0.231619775964E+04    0.91045E-05   -0.18431E-05  2792   0.304E-03
  17 F= -.23375177E+04 E0= -.23375177E+04  d E =-.153053E-07  mag=     3.0000
       N       E                     dE             d eps       ncg     rms          rms(c)
DAV:   1    -0.231619594611E+04    0.18226E-02   -0.58070E-01  4560   0.393E-01    0.281E-01
RMM:   2    -0.231619566940E+04    0.27670E-03   -0.53385E-03  5317   0.478E-02    0.227E-01
RMM:   3    -0.231619682614E+04   -0.11567E-02   -0.19827E-03  4982   0.238E-02    0.410E-01
RMM:   4    -0.231619527503E+04    0.15511E-02   -0.88274E-04  4687   0.144E-02    0.108E-01
RMM:   5    -0.231619545342E+04   -0.17838E-03   -0.47891E-04  3895   0.101E-02    0.156E-01
RMM:   6    -0.231619520445E+04    0.24896E-03   -0.18378E-04  3240   0.800E-03    0.373E-02
RMM:   7    -0.231619519253E+04    0.11919E-04   -0.38186E-05  2867   0.435E-03    0.228E-02
RMM:   8    -0.231619518610E+04    0.64279E-05   -0.89807E-06  2672   0.232E-03
  18 F= -.23375148E+04 E0= -.23375148E+04  d E =-.154843E-07  mag=     3.0000
       N       E                     dE             d eps       ncg     rms          rms(c)
DAV:   1    -0.231619729752E+04   -0.21050E-02   -0.11202E+00  4580   0.530E-01    0.357E-01
RMM:   2    -0.231619697898E+04    0.31854E-03   -0.75384E-03  5383   0.557E-02    0.225E-01
RMM:   3    -0.231619732102E+04   -0.34204E-03   -0.18310E-03  4804   0.235E-02    0.257E-01
RMM:   4    -0.231619717624E+04    0.14478E-03   -0.14893E-03  5122   0.180E-02    0.218E-01
RMM:   5    -0.231619674077E+04    0.43547E-03   -0.54615E-04  4296   0.120E-02    0.949E-02
RMM:   6    -0.231619668502E+04    0.55750E-04   -0.14330E-04  2983   0.623E-03    0.645E-02
RMM:   7    -0.231619665437E+04    0.30645E-04   -0.38299E-05  2859   0.394E-03    0.324E-02
RMM:   8    -0.231619664338E+04    0.10995E-04   -0.12222E-05  2710   0.257E-03    0.108E-02
RMM:   9    -0.231619664177E+04    0.16118E-05   -0.44115E-06  2649   0.157E-03
  19 F= -.23375165E+04 E0= -.23375165E+04  d E =-.147598E-07  mag=     3.0000
