       N       E                     dE             d eps       ncg     rms          rms(c)
DAV:   1     0.129747225475E+05    0.12975E+05   -0.84037E+05  4504   0.144E+03
DAV:   2    -0.105024343718E+04   -0.14025E+05   -0.13417E+05  5168   0.331E+02
DAV:   3    -0.247918840480E+04   -0.14289E+04   -0.14138E+04  5448   0.112E+02
DAV:   4    -0.252521476631E+04   -0.46026E+02   -0.45792E+02  6792   0.302E+01
DAV:   5    -0.252601316929E+04   -0.79840E+00   -0.79715E+00  6064   0.339E+00    0.170E+02
RMM:   6    -0.149216019357E+04    0.10339E+04   -0.19273E+03  4452   0.382E+01    0.722E+01
RMM:   7    -0.166434583122E+04   -0.17219E+03   -0.28331E+02  5034   0.138E+01    0.509E+01
RMM:   8    -0.171959924181E+04   -0.55253E+02   -0.80361E+01  5208   0.840E+00    0.423E+01
RMM:   9    -0.179280929784E+04   -0.73210E+02   -0.57874E+01  5005   0.710E+00    0.315E+01
RMM:  10    -0.193597086588E+04   -0.14316E+03   -0.57418E+01  5218   0.722E+00    0.218E+01
RMM:  11    -0.203445849213E+04   -0.98488E+02   -0.41284E+01  5040   0.521E+00    0.178E+01
RMM:  12    -0.209277348700E+04   -0.58315E+02   -0.23604E+01  5045   0.386E+00    0.158E+01
RMM:  13    -0.218428488863E+04   -0.91511E+02   -0.50928E+01  4546   0.550E+00    0.126E+01
RMM:  14    -0.227711938790E+04   -0.92834E+02   -0.82920E+01  4553   0.645E+00    0.854E+00
RMM:  15    -0.230404526321E+04   -0.26926E+02   -0.25606E+01  4722   0.436E+00    0.570E+00
RMM:  16    -0.231367218667E+04   -0.96269E+01   -0.12415E+01  4774   0.215E+00    0.240E+00
RMM:  17    -0.231679179335E+04   -0.31196E+01   -0.28374E+00  4902   0.128E+00    0.174E+00
RMM:  18    -0.231779417043E+04   -0.10024E+01   -0.66214E-01  5185   0.545E-01    0.196E+00
RMM:  19    -0.231784676991E+04   -0.52599E-01   -0.71293E-02  5663   0.213E-01    0.212E+00
RMM:  20    -0.231798629219E+04   -0.13952E+00   -0.16545E-01  4526   0.199E-01    0.172E+00
RMM:  21    -0.231804025611E+04   -0.53964E-01   -0.11215E-01  4606   0.176E-01    0.213E+00
RMM:  22    -0.231809523726E+04   -0.54981E-01   -0.30476E-02  4601   0.983E-02    0.161E+00
RMM:  23    -0.231829572351E+04   -0.20049E+00   -0.17828E-01  4493   0.217E-01    0.537E-01
RMM:  24    -0.231837752958E+04   -0.81806E-01   -0.11337E-01  4573   0.204E-01    0.427E-01
RMM:  25    -0.231840793876E+04   -0.30409E-01   -0.38787E-02  4829   0.122E-01    0.299E-01
RMM:  26    -0.231842609657E+04   -0.18158E-01   -0.15510E-02  4606   0.711E-02    0.252E-01
RMM:  27    -0.231844276303E+04   -0.16666E-01   -0.93521E-03  4609   0.701E-02    0.268E-01
RMM:  28    -0.231844814462E+04   -0.53816E-02   -0.19859E-03  4736   0.312E-02    0.184E-01
RMM:  29    -0.231845583430E+04   -0.76897E-02   -0.37947E-03  4488   0.323E-02    0.222E-01
RMM:  30    -0.231845603744E+04   -0.20314E-03   -0.30123E-04  3875   0.160E-02    0.217E-01
RMM:  31    -0.231845916850E+04   -0.31311E-02   -0.94965E-04  4053   0.145E-02    0.256E-01
RMM:  32    -0.231845922562E+04   -0.57114E-04   -0.64748E-05  3005   0.709E-03    0.252E-01
RMM:  33    -0.231846052132E+04   -0.12957E-02   -0.53781E-04  3899   0.102E-02    0.282E-01
RMM:  34    -0.231846206460E+04   -0.15433E-02   -0.80557E-04  3893   0.130E-02    0.308E-01
RMM:  35    -0.231846815267E+04   -0.60881E-02   -0.93171E-03  4510   0.432E-02    0.394E-01
RMM:  36    -0.231847095424E+04   -0.28016E-02   -0.46846E-03  5136   0.290E-02    0.256E-01
RMM:  37    -0.231847056685E+04    0.38738E-03   -0.26097E-04  3361   0.108E-02    0.166E-01
RMM:  38    -0.231847055963E+04    0.72274E-05   -0.18819E-05  2906   0.349E-03
   1 F= -.23393422E+04 E0= -.23393335E+04  d E =-.233934E+04  mag=     5.0972
       N       E                     dE             d eps       ncg     rms          rms(c)
DAV:   1    -0.231838608520E+04    0.84482E-01   -0.12100E+02  4720   0.440E+00    0.247E+00
RMM:   2    -0.231884111933E+04   -0.45503E+00   -0.59101E+00  5831   0.983E-01    0.301E+00
RMM:   3    -0.231883614722E+04    0.49721E-02   -0.49277E-01  5762   0.386E-01    0.246E+00
RMM:   4    -0.231877859548E+04    0.57552E-01   -0.10980E-01  5238   0.138E-01    0.164E+00
RMM:   5    -0.231876346464E+04    0.15131E-01   -0.75931E-02  5381   0.118E-01    0.143E+00
RMM:   6    -0.231875333829E+04    0.10126E-01   -0.27132E-02  5885   0.757E-02    0.961E-01
RMM:   7    -0.231875076849E+04    0.25698E-02   -0.91243E-03  4920   0.414E-02    0.516E-01
RMM:   8    -0.231875046062E+04    0.30787E-03   -0.60023E-03  5004   0.407E-02    0.280E-01
RMM:   9    -0.231875124336E+04   -0.78274E-03   -0.22248E-03  5011   0.278E-02    0.265E-01
RMM:  10    -0.231875163074E+04   -0.38738E-03   -0.73747E-04  4550   0.169E-02    0.166E-01
RMM:  11    -0.231875208080E+04   -0.45006E-03   -0.35516E-04  4078   0.108E-02    0.831E-02
RMM:  12    -0.231875248635E+04   -0.40556E-03   -0.12849E-04  3670   0.828E-03    0.923E-02
RMM:  13    -0.231875282018E+04   -0.33382E-03   -0.17426E-04  3744   0.824E-03    0.659E-02
RMM:  14    -0.231875309843E+04   -0.27825E-03   -0.20420E-04  3801   0.908E-03    0.242E-02
RMM:  15    -0.231875316436E+04   -0.65930E-04   -0.60264E-05  3215   0.659E-03    0.202E-02
RMM:  16    -0.231875317750E+04   -0.13134E-04   -0.14610E-05  2904   0.407E-03    0.744E-03
RMM:  17    -0.231875318596E+04   -0.84656E-05   -0.54865E-06  2851   0.285E-03
   2 F= -.23396234E+04 E0= -.23396218E+04  d E =-.281140E+00  mag=     5.0014
       N       E                     dE             d eps       ncg     rms          rms(c)
DAV:   1    -0.231885097321E+04   -0.97796E-01   -0.21107E+01  4752   0.198E+00    0.115E+00
RMM:   2    -0.231891392137E+04   -0.62948E-01   -0.95319E-01  5819   0.388E-01    0.108E+00
RMM:   3    -0.231891382499E+04    0.96378E-04   -0.83357E-02  5707   0.154E-01    0.140E+00
RMM:   4    -0.231890147967E+04    0.12345E-01   -0.15239E-02  5613   0.502E-02    0.508E-01
RMM:   5    -0.231889538545E+04    0.60942E-02   -0.19789E-02  4635   0.595E-02    0.375E-01
RMM:   6    -0.231889476393E+04    0.62152E-03   -0.41831E-03  4730   0.429E-02    0.340E-01
RMM:   7    -0.231889388356E+04    0.88037E-03   -0.13055E-03  4717   0.167E-02    0.128E-01
RMM:   8    -0.231889390597E+04   -0.22418E-04   -0.39575E-04  4147   0.117E-02    0.200E-01
RMM:   9    -0.231889378750E+04    0.11847E-03   -0.13083E-04  3318   0.735E-03    0.136E-01
RMM:  10    -0.231889364898E+04    0.13852E-03   -0.34810E-04  4001   0.991E-03    0.287E-02
RMM:  11    -0.231889362833E+04    0.20646E-04   -0.56575E-05  3216   0.736E-03    0.332E-02
RMM:  12    -0.231889362159E+04    0.67409E-05   -0.27474E-05  3050   0.446E-03
   3 F= -.23397639E+04 E0= -.23397615E+04  d E =-.421633E+00  mag=     5.0002
       N       E                     dE             d eps       ncg     rms          rms(c)
DAV:   1    -0.231890024583E+04   -0.66175E-02   -0.19213E+01  4576   0.232E+00    0.117E+00
RMM:   2    -0.231902800630E+04   -0.12776E+00   -0.14028E+00  6380   0.549E-01    0.148E+00
RMM:   3    -0.231902905069E+04   -0.10444E-02   -0.13189E-01  6122   0.182E-01    0.108E+00
RMM:   4    -0.231902084241E+04    0.82083E-02   -0.19347E-02  5524   0.563E-02    0.438E-01
RMM:   5    -0.231901821713E+04    0.26253E-02   -0.75720E-03  5201   0.422E-02    0.316E-01
RMM:   6    -0.231901864751E+04   -0.43039E-03   -0.42202E-03  5324   0.307E-02    0.478E-01
RMM:   7    -0.231901743259E+04    0.12149E-02   -0.10476E-03  4497   0.159E-02    0.137E-01
RMM:   8    -0.231901742009E+04    0.12504E-04   -0.29402E-04  3263   0.862E-03    0.108E-01
RMM:   9    -0.231901740482E+04    0.15267E-04   -0.13992E-04  3254   0.714E-03    0.441E-02
RMM:  10    -0.231901741585E+04   -0.11034E-04   -0.53286E-05  3035   0.553E-03    0.214E-02
RMM:  11    -0.231901742759E+04   -0.11739E-04   -0.15306E-05  2898   0.421E-03    0.199E-02
RMM:  12    -0.231901743380E+04   -0.62064E-05   -0.81148E-06  2845   0.312E-03
   4 F= -.23398897E+04 E0= -.23398887E+04  d E =-.125837E+00  mag=     5.0000
       N       E                     dE             d eps       ncg     rms          rms(c)
DAV:   1    -0.231901889197E+04   -0.14644E-02   -0.42330E-01  4688   0.370E-01    0.169E-01
RMM:   2    -0.231902188930E+04   -0.29973E-02   -0.31382E-02  6237   0.886E-02    0.234E-01
RMM:   3    -0.231902176591E+04    0.12339E-03   -0.25806E-03  4114   0.289E-02    0.142E-01
RMM:   4    -0.231902161350E+04    0.15241E-03   -0.38203E-04  3206   0.928E-03    0.617E-02
RMM:   5    -0.231902154463E+04    0.68866E-04   -0.17868E-04  3296   0.743E-03    0.259E-02
RMM:   6    -0.231902154450E+04    0.13679E-06   -0.43936E-05  2984   0.550E-03
   5 F= -.23398935E+04 E0= -.23398924E+04  d E =-.129608E+00  mag=     5.0000
       N       E                     dE             d eps       ncg     rms          rms(c)
DAV:   1    -0.231900007739E+04    0.21467E-01   -0.46654E+00  4576   0.151E+00    0.740E-01
RMM:   2    -0.231907933631E+04   -0.79259E-01   -0.73482E-01  6315   0.366E-01    0.138E+00
RMM:   3    -0.231907251360E+04    0.68227E-02   -0.70361E-02  6033   0.140E-01    0.464E-01
RMM:   4    -0.231907138466E+04    0.11289E-02   -0.82659E-03  5036   0.320E-02    0.259E-01
RMM:   5    -0.231907072819E+04    0.65647E-03   -0.22572E-03  5223   0.223E-02    0.240E-01
RMM:   6    -0.231907065730E+04    0.70887E-04   -0.12366E-03  4322   0.168E-02    0.217E-01
RMM:   7    -0.231907039571E+04    0.26160E-03   -0.58661E-04  4241   0.121E-02    0.103E-01
RMM:   8    -0.231907035094E+04    0.44766E-04   -0.62649E-05  2971   0.616E-03    0.510E-02
RMM:   9    -0.231907034361E+04    0.73358E-05   -0.29049E-05  2928   0.322E-03
   6 F= -.23399428E+04 E0= -.23399424E+04  d E =-.492958E-01  mag=     5.0000
       N       E                     dE             d eps       ncg     rms          rms(c)
DAV:   1    -0.231893924936E+04    0.13110E+00   -0.10314E+01  4512   0.226E+00    0.105E+00
RMM:   2    -0.231910840027E+04   -0.16915E+00   -0.16262E+00  6383   0.538E-01    0.169E+00
RMM:   3    -0.231910136239E+04    0.70379E-02   -0.15194E-01  6118   0.205E-01    0.689E-01
RMM:   4    -0.231909861394E+04    0.27485E-02   -0.17229E-02  5350   0.476E-02    0.374E-01
RMM:   5    -0.231909696673E+04    0.16472E-02   -0.47374E-03  5479   0.319E-02    0.290E-01
RMM:   6    -0.231909709244E+04   -0.12572E-03   -0.25533E-03  5035   0.244E-02    0.311E-01
RMM:   7    -0.231909650125E+04    0.59120E-03   -0.13201E-03  4954   0.166E-02    0.130E-01
RMM:   8    -0.231909639060E+04    0.11065E-03   -0.13806E-04  3072   0.796E-03    0.416E-02
RMM:   9    -0.231909638625E+04    0.43519E-05   -0.41598E-05  2979   0.415E-03
   7 F= -.23399698E+04 E0= -.23399697E+04  d E =-.763186E-01  mag=     5.0000
       N       E                     dE             d eps       ncg     rms          rms(c)
DAV:   1    -0.231908718654E+04    0.92041E-02   -0.25129E+00  4544   0.115E+00    0.527E-01
RMM:   2    -0.231912997121E+04   -0.42785E-01   -0.42892E-01  6405   0.282E-01    0.672E-01
RMM:   3    -0.231913052519E+04   -0.55398E-03   -0.41374E-02  6032   0.102E-01    0.388E-01
RMM:   4    -0.231912967054E+04    0.85464E-03   -0.46997E-03  4796   0.253E-02    0.180E-01
RMM:   5    -0.231912925485E+04    0.41569E-03   -0.87134E-04  4699   0.152E-02    0.973E-02
RMM:   6    -0.231912920578E+04    0.49070E-04   -0.44709E-04  4349   0.131E-02    0.471E-02
RMM:   7    -0.231912920995E+04   -0.41694E-05   -0.89391E-05  3019   0.727E-03
   8 F= -.23400038E+04 E0= -.23400038E+04  d E =-.340220E-01  mag=     5.0000
       N       E                     dE             d eps       ncg     rms          rms(c)
DAV:   1    -0.231881422352E+04    0.31498E+00   -0.20057E+01  4476   0.323E+00    0.145E+00
RMM:   2    -0.231914671815E+04   -0.33249E+00   -0.34020E+00  6423   0.790E-01    0.165E+00
RMM:   3    -0.231916256129E+04   -0.15843E-01   -0.36742E-01  6190   0.293E-01    0.112E+00
RMM:   4    -0.231915427189E+04    0.82894E-02   -0.37387E-02  5946   0.716E-02    0.493E-01
RMM:   5    -0.231915215383E+04    0.21181E-02   -0.68723E-03  5499   0.379E-02    0.410E-01
RMM:   6    -0.231915186141E+04    0.29242E-03   -0.55025E-03  5479   0.328E-02    0.384E-01
RMM:   7    -0.231915066497E+04    0.11964E-02   -0.22843E-03  5387   0.237E-02    0.120E-01
RMM:   8    -0.231915055796E+04    0.10700E-03   -0.28080E-04  3658   0.118E-02    0.590E-02
RMM:   9    -0.231915050572E+04    0.52243E-04   -0.13371E-04  3506   0.714E-03    0.186E-02
RMM:  10    -0.231915050065E+04    0.50631E-05   -0.26260E-05  2963   0.503E-03
   9 F= -.23400289E+04 E0= -.23400288E+04  d E =-.590538E-01  mag=     5.0000
       N       E                     dE             d eps       ncg     rms          rms(c)
DAV:   1    -0.231913401882E+04    0.16487E-01   -0.12380E+00  4576   0.798E-01    0.360E-01
RMM:   2    -0.231915505039E+04   -0.21032E-01   -0.21180E-01  6439   0.200E-01    0.429E-01
RMM:   3    -0.231915541819E+04   -0.36780E-03   -0.19408E-02  5785   0.700E-02    0.260E-01
RMM:   4    -0.231915500841E+04    0.40978E-03   -0.21695E-03  3815   0.172E-02    0.117E-01
RMM:   5    -0.231915483672E+04    0.17168E-03   -0.40148E-04  4156   0.105E-02    0.627E-02
RMM:   6    -0.231915483316E+04    0.35631E-05   -0.21784E-04  3844   0.932E-03    0.560E-02
RMM:   7    -0.231915481402E+04    0.19140E-04   -0.54414E-05  2952   0.614E-03    0.235E-02
RMM:   8    -0.231915481072E+04    0.32988E-05   -0.11328E-05  2835   0.297E-03
  10 F= -.23400322E+04 E0= -.23400322E+04  d E =-.624149E-01  mag=     5.0000
       N       E                     dE             d eps       ncg     rms          rms(c)
DAV:   1    -0.231914145763E+04    0.13356E-01   -0.34809E+00  4560   0.126E+00    0.561E-01
RMM:   2    -0.231918709378E+04   -0.45636E-01   -0.47914E-01  6459   0.285E-01    0.488E-01
RMM:   3    -0.231919067744E+04   -0.35837E-02   -0.49772E-02  5969   0.112E-01    0.457E-01
RMM:   4    -0.231918939918E+04    0.12783E-02   -0.56925E-03  4698   0.273E-02    0.181E-01
RMM:   5    -0.231918938881E+04    0.10364E-04   -0.10885E-03  4450   0.143E-02    0.196E-01
RMM:   6    -0.231918912804E+04    0.26077E-03   -0.87701E-04  3695   0.137E-02    0.956E-02
RMM:   7    -0.231918908675E+04    0.41291E-04   -0.23235E-04  3809   0.880E-03    0.441E-02
RMM:   8    -0.231918907704E+04    0.97118E-05   -0.27079E-05  2927   0.553E-03
  11 F= -.23400669E+04 E0= -.23400669E+04  d E =-.347276E-01  mag=     5.0000
       N       E                     dE             d eps       ncg     rms          rms(c)
DAV:   1    -0.231899237763E+04    0.19671E+00   -0.16199E+01  4520   0.271E+00    0.121E+00
RMM:   2    -0.231920279285E+04   -0.21042E+00   -0.22195E+00  6501   0.618E-01    0.982E-01
RMM:   3    -0.231922194694E+04   -0.19154E-01   -0.25402E-01  6188   0.248E-01    0.922E-01
RMM:   4    -0.231921677604E+04    0.51709E-02   -0.26687E-02  5998   0.591E-02    0.406E-01
RMM:   5    -0.231921640616E+04    0.36988E-03   -0.46855E-03  5303   0.271E-02    0.392E-01
RMM:   6    -0.231921544076E+04    0.96540E-03   -0.40881E-03  5098   0.278E-02    0.214E-01
RMM:   7    -0.231921519126E+04    0.24950E-03   -0.13043E-03  5024   0.174E-02    0.983E-02
RMM:   8    -0.231921512133E+04    0.69936E-04   -0.15024E-04  3085   0.988E-03    0.402E-02
RMM:   9    -0.231921510525E+04    0.16074E-04   -0.81057E-05  3103   0.531E-03    0.196E-02
RMM:  10    -0.231921510454E+04    0.71341E-06   -0.22462E-05  2958   0.391E-03
  12 F= -.23400937E+04 E0= -.23400937E+04  d E =-.615338E-01  mag=     5.0000
       N       E                     dE             d eps       ncg     rms          rms(c)
DAV:   1    -0.231916146482E+04    0.53640E-01   -0.52318E+00  4568   0.159E+00    0.727E-01
RMM:   2    -0.231924442230E+04   -0.82957E-01   -0.84154E-01  6455   0.365E-01    0.809E-01
RMM:   3    -0.231924814518E+04   -0.37229E-02   -0.10744E-01  6070   0.152E-01    0.436E-01
RMM:   4    -0.231924728567E+04    0.85951E-03   -0.96790E-03  5143   0.334E-02    0.232E-01
RMM:   5    -0.231924702779E+04    0.25788E-03   -0.13480E-03  4544   0.182E-02    0.185E-01
RMM:   6    -0.231924712729E+04   -0.99500E-04   -0.11194E-03  4408   0.156E-02    0.200E-01
RMM:   7    -0.231924684219E+04    0.28510E-03   -0.48739E-04  3881   0.113E-02    0.358E-02
RMM:   8    -0.231924683620E+04    0.59878E-05   -0.56424E-05  2973   0.573E-03
  13 F= -.23401244E+04 E0= -.23401244E+04  d E =-.306698E-01  mag=     5.0000
       N       E                     dE             d eps       ncg     rms          rms(c)
DAV:   1    -0.231909117906E+04    0.15566E+00   -0.10442E+01  4456   0.222E+00    0.104E+00
RMM:   2    -0.231925959040E+04   -0.16841E+00   -0.17217E+00  6452   0.519E-01    0.111E+00
RMM:   3    -0.231926694190E+04   -0.73515E-02   -0.21376E-01  6120   0.214E-01    0.623E-01
RMM:   4    -0.231926510044E+04    0.18415E-02   -0.19105E-02  5465   0.465E-02    0.323E-01
RMM:   5    -0.231926432294E+04    0.77750E-03   -0.23616E-03  4772   0.245E-02    0.207E-01
RMM:   6    -0.231926486960E+04   -0.54666E-03   -0.22029E-03  5122   0.218E-02    0.301E-01
RMM:   7    -0.231926416248E+04    0.70712E-03   -0.10050E-03  4440   0.147E-02    0.617E-02
RMM:   8    -0.231926413937E+04    0.23116E-04   -0.12365E-04  3005   0.632E-03    0.352E-02
RMM:   9    -0.231926413299E+04    0.63825E-05   -0.54474E-05  2948   0.455E-03
  14 F= -.23401401E+04 E0= -.23401401E+04  d E =-.463471E-01  mag=     5.0000
       N       E                     dE             d eps       ncg     rms          rms(c)
DAV:   1    -0.231918404657E+04    0.80093E-01   -0.77211E+00  4560   0.177E+00    0.834E-01
RMM:   2    -0.231929305928E+04   -0.10901E+00   -0.11204E+00  6370   0.420E-01    0.856E-01
RMM:   3    -0.231929996786E+04   -0.69086E-02   -0.13782E-01  6022   0.183E-01    0.575E-01
RMM:   4    -0.231929801207E+04    0.19558E-02   -0.13284E-02  5486   0.387E-02    0.282E-01
RMM:   5    -0.231929794633E+04    0.65740E-04   -0.28144E-03  5017   0.225E-02    0.355E-01
RMM:   6    -0.231929675569E+04    0.11906E-02   -0.20507E-03  5309   0.209E-02    0.119E-01
RMM:   7    -0.231929669540E+04    0.60287E-04   -0.53365E-04  4160   0.122E-02    0.631E-02
RMM:   8    -0.231929665557E+04    0.39837E-04   -0.81003E-05  3009   0.711E-03    0.235E-02
RMM:   9    -0.231929664875E+04    0.68121E-05   -0.48283E-05  3003   0.477E-03
  15 F= -.23401687E+04 E0= -.23401687E+04  d E =-.286160E-01  mag=     5.0000
       N       E                     dE             d eps       ncg     rms          rms(c)
DAV:   1    -0.231929384694E+04    0.28086E-02   -0.31225E-01  4832   0.359E-01    0.168E-01
RMM:   2    -0.231929822981E+04   -0.43829E-02   -0.44799E-02  6401   0.851E-02    0.184E-01
RMM:   3    -0.231929840389E+04   -0.17408E-03   -0.49921E-03  4179   0.355E-02    0.114E-01
RMM:   4    -0.231929832710E+04    0.76786E-04   -0.52932E-04  3070   0.874E-03    0.561E-02
RMM:   5    -0.231929832918E+04   -0.20760E-05   -0.12173E-04  3009   0.556E-03    0.728E-02
RMM:   6    -0.231929827636E+04    0.52817E-04   -0.83537E-05  3001   0.543E-03    0.228E-02
RMM:   7    -0.231929827406E+04    0.22992E-05   -0.21652E-05  2941   0.405E-03
  16 F= -.23401695E+04 E0= -.23401695E+04  d E =-.294484E-01  mag=     5.0000
       N       E                     dE             d eps       ncg     rms          rms(c)
DAV:   1    -0.231920022792E+04    0.98048E-01   -0.53040E+00  4496   0.157E+00    0.820E-01
RMM:   2    -0.231931819635E+04   -0.11797E+00   -0.12020E+00  6603   0.423E-01    0.839E-01
RMM:   3    -0.231932802717E+04   -0.98308E-02   -0.13855E-01  6158   0.164E-01    0.707E-01
RMM:   4    -0.231932521333E+04    0.28138E-02   -0.13370E-02  5213   0.384E-02    0.260E-01
RMM:   5    -0.231932490823E+04    0.30510E-03   -0.20524E-03  4857   0.187E-02    0.284E-01
RMM:   6    -0.231932432746E+04    0.58077E-03   -0.14768E-03  4884   0.169E-02    0.146E-01
RMM:   7    -0.231932422934E+04    0.98122E-04   -0.54567E-04  4315   0.113E-02    0.735E-02
RMM:   8    -0.231932419547E+04    0.33871E-04   -0.71469E-05  2999   0.678E-03    0.256E-02
RMM:   9    -0.231932418850E+04    0.69674E-05   -0.29694E-05  2958   0.351E-03
  17 F= -.23401926E+04 E0= -.23401926E+04  d E =-.230650E-01  mag=     5.0000
       N       E                     dE             d eps       ncg     rms          rms(c)
DAV:   1    -0.231927151153E+04    0.52684E-01   -0.25446E+00  4496   0.109E+00    0.575E-01
RMM:   2    -0.231932911295E+04   -0.57601E-01   -0.58273E-01  6576   0.294E-01    0.634E-01
RMM:   3    -0.231933302131E+04   -0.39084E-02   -0.63965E-02  6043   0.114E-01    0.493E-01
RMM:   4    -0.231933174304E+04    0.12783E-02   -0.64444E-03  4542   0.267E-02    0.180E-01
RMM:   5    -0.231933164863E+04    0.94413E-04   -0.94708E-04  4310   0.134E-02    0.209E-01
RMM:   6    -0.231933129178E+04    0.35685E-03   -0.68928E-04  4315   0.122E-02    0.902E-02
RMM:   7    -0.231933126726E+04    0.24525E-04   -0.25312E-04  3626   0.836E-03    0.523E-02
RMM:   8    -0.231933124890E+04    0.18357E-04   -0.35776E-05  2952   0.553E-03    0.151E-02
RMM:   9    -0.231933124649E+04    0.24052E-05   -0.11903E-05  2884   0.272E-03
  18 F= -.23401977E+04 E0= -.23401977E+04  d E =-.281576E-01  mag=     5.0000
       N       E                     dE             d eps       ncg     rms          rms(c)
DAV:   1    -0.231927036222E+04    0.60887E-01   -0.35079E+00  4480   0.125E+00    0.633E-01
RMM:   2    -0.231934715687E+04   -0.76795E-01   -0.80254E-01  6592   0.332E-01    0.486E-01
RMM:   3    -0.231935631694E+04   -0.91601E-02   -0.92719E-02  5975   0.142E-01    0.595E-01
RMM:   4    -0.231935451026E+04    0.18067E-02   -0.90250E-03  4591   0.295E-02    0.178E-01
RMM:   5    -0.231935421973E+04    0.29054E-03   -0.71087E-04  4036   0.116E-02    0.136E-01
RMM:   6    -0.231935411771E+04    0.10202E-03   -0.77654E-04  4704   0.131E-02    0.992E-02
RMM:   7    -0.231935407280E+04    0.44911E-04   -0.21751E-04  3105   0.888E-03    0.666E-02
RMM:   8    -0.231935403817E+04    0.34622E-04   -0.37187E-05  2930   0.441E-03    0.158E-02
RMM:   9    -0.231935403454E+04    0.36302E-05   -0.11269E-05  2887   0.265E-03
  19 F= -.23402185E+04 E0= -.23402185E+04  d E =-.208473E-01  mag=     5.0000
       N       E                     dE             d eps       ncg     rms          rms(c)
DAV:   1    -0.231862494148E+04    0.72910E+00   -0.31535E+01  4472   0.375E+00    0.188E+00
RMM:   2    -0.231932596268E+04   -0.70102E+00   -0.73861E+00  6652   0.102E+00    0.126E+00
RMM:   3    -0.231942137329E+04   -0.95411E-01   -0.93851E-01  6193   0.423E-01    0.182E+00
RMM:   4    -0.231940457528E+04    0.16798E-01   -0.78370E-02  6050   0.827E-02    0.588E-01
RMM:   5    -0.231940219339E+04    0.23819E-02   -0.70783E-03  5337   0.333E-02    0.525E-01
RMM:   6    -0.231940131884E+04    0.87455E-03   -0.73778E-03  5714   0.332E-02    0.494E-01
RMM:   7    -0.231939920949E+04    0.21093E-02   -0.45383E-03  5469   0.289E-02    0.144E-01
RMM:   8    -0.231939918516E+04    0.24335E-04   -0.51815E-04  4282   0.134E-02    0.910E-02
RMM:   9    -0.231939910395E+04    0.81208E-04   -0.15411E-04  3045   0.817E-03    0.330E-02
RMM:  10    -0.231939908974E+04    0.14205E-04   -0.69558E-05  2929   0.518E-03    0.179E-02
RMM:  11    -0.231939908792E+04    0.18198E-05   -0.14928E-05  2923   0.346E-03
  20 F= -.23402582E+04 E0= -.23402582E+04  d E =-.605217E-01  mag=     5.0000
       N       E                     dE             d eps       ncg     rms          rms(c)
DAV:   1    -0.231613256105E+04    0.32665E+01   -0.12660E+02  4488   0.755E+00    0.377E+00
RMM:   2    -0.231912621775E+04   -0.29937E+01   -0.31502E+01  6708   0.218E+00    0.253E+00
RMM:   3    -0.231941638978E+04   -0.29017E+00   -0.34949E+00  6109   0.829E-01    0.251E+00
RMM:   4    -0.231939010272E+04    0.26287E-01   -0.29792E-01  6239   0.168E-01    0.132E+00
RMM:   5    -0.231938251653E+04    0.75862E-02   -0.29888E-02  5828   0.618E-02    0.131E+00
RMM:   6    -0.231937233231E+04    0.10184E-01   -0.17908E-02  5910   0.505E-02    0.841E-01
RMM:   7    -0.231936526073E+04    0.70716E-02   -0.17899E-02  5577   0.527E-02    0.364E-01
RMM:   8    -0.231936505341E+04    0.20733E-03   -0.56110E-03  5558   0.376E-02    0.340E-01
RMM:   9    -0.231936434900E+04    0.70441E-03   -0.10111E-03  4543   0.190E-02    0.977E-02
RMM:  10    -0.231936422571E+04    0.12329E-03   -0.33533E-04  3445   0.103E-02    0.400E-02
RMM:  11    -0.231936420977E+04    0.15949E-04   -0.70571E-05  2953   0.590E-03    0.220E-02
RMM:  12    -0.231936420396E+04    0.58046E-05   -0.35911E-05  2958   0.460E-03
  21 F= -.23402150E+04 E0= -.23402150E+04  d E =-.173232E-01  mag=     5.0000
       N       E                     dE             d eps       ncg     rms          rms(c)
DAV:   1    -0.231755941756E+04    0.18048E+01   -0.73157E+01  4488   0.569E+00    0.314E+00
RMM:   2    -0.231940689390E+04   -0.18475E+01   -0.18497E+01  6699   0.171E+00    0.434E+00
RMM:   3    -0.231944318371E+04   -0.36290E-01   -0.21021E+00  6271   0.628E-01    0.223E+00
RMM:   4    -0.231941957865E+04    0.23605E-01   -0.19425E-01  6034   0.141E-01    0.909E-01
RMM:   5    -0.231941620876E+04    0.33699E-02   -0.19211E-02  5726   0.537E-02    0.858E-01
RMM:   6    -0.231940915371E+04    0.70550E-02   -0.12480E-02  5837   0.457E-02    0.479E-01
RMM:   7    -0.231940692806E+04    0.22257E-02   -0.81526E-03  5558   0.394E-02    0.134E-01
RMM:   8    -0.231940705451E+04   -0.12645E-03   -0.10310E-03  4779   0.202E-02    0.868E-02
RMM:   9    -0.231940700499E+04    0.49525E-04   -0.23608E-04  3286   0.944E-03    0.425E-02
RMM:  10    -0.231940698229E+04    0.22700E-04   -0.73997E-05  3012   0.551E-03    0.195E-02
RMM:  11    -0.231940698236E+04   -0.72483E-07   -0.28077E-05  2926   0.424E-03
  22 F= -.23402639E+04 E0= -.23402639E+04  d E =-.661670E-01  mag=     5.0000
       N       E                     dE             d eps       ncg     rms          rms(c)
DAV:   1    -0.231928657453E+04    0.12041E+00   -0.70750E+00  4488   0.196E+00    0.896E-01
RMM:   2    -0.231941571358E+04   -0.12914E+00   -0.13777E+00  6273   0.492E-01    0.549E-01
RMM:   3    -0.231942855079E+04   -0.12837E-01   -0.14634E-01  5920   0.191E-01    0.548E-01
RMM:   4    -0.231942724805E+04    0.13027E-02   -0.15622E-02  5893   0.430E-02    0.257E-01
RMM:   5    -0.231942657013E+04    0.67792E-03   -0.15063E-03  4940   0.193E-02    0.173E-01
RMM:   6    -0.231942642215E+04    0.14797E-03   -0.12662E-03  5348   0.194E-02    0.153E-01
RMM:   7    -0.231942632533E+04    0.96828E-04   -0.40994E-04  3912   0.119E-02    0.972E-02
RMM:   8    -0.231942625529E+04    0.70034E-04   -0.83572E-05  3000   0.620E-03    0.246E-02
RMM:   9    -0.231942624927E+04    0.60213E-05   -0.20309E-05  2936   0.416E-03
  23 F= -.23402830E+04 E0= -.23402830E+04  d E =-.191398E-01  mag=     5.0000
       N       E                     dE             d eps       ncg     rms          rms(c)
DAV:   1    -0.231942075263E+04    0.55027E-02   -0.30947E-01  4640   0.412E-01    0.189E-01
RMM:   2    -0.231942641526E+04   -0.56626E-02   -0.60497E-02  6246   0.104E-01    0.110E-01
RMM:   3    -0.231942695741E+04   -0.54215E-03   -0.61277E-03  4552   0.397E-02    0.116E-01
RMM:   4    -0.231942690422E+04    0.53189E-04   -0.68167E-04  3049   0.975E-03    0.550E-02
RMM:   5    -0.231942688794E+04    0.16280E-04   -0.69581E-05  2954   0.511E-03    0.542E-02
RMM:   6    -0.231942687351E+04    0.14437E-04   -0.63130E-05  2931   0.505E-03    0.390E-02
RMM:   7    -0.231942686297E+04    0.10533E-04   -0.31104E-05  2975   0.443E-03    0.136E-02
RMM:   8    -0.231942686171E+04    0.12592E-05   -0.61502E-06  2864   0.344E-03
  24 F= -.23402836E+04 E0= -.23402836E+04  d E =-.197358E-01  mag=     5.0000
       N       E                     dE             d eps       ncg     rms          rms(c)
DAV:   1    -0.231937157246E+04    0.55291E-01   -0.34578E+00  4496   0.132E+00    0.641E-01
RMM:   2    -0.231943889649E+04   -0.67324E-01   -0.68989E-01  6270   0.338E-01    0.714E-01
RMM:   3    -0.231944129422E+04   -0.23977E-02   -0.67274E-02  6019   0.124E-01    0.468E-01
RMM:   4    -0.231944010033E+04    0.11939E-02   -0.72205E-03  5174   0.289E-02    0.170E-01
RMM:   5    -0.231943988405E+04    0.21628E-03   -0.80480E-04  4291   0.138E-02    0.148E-01
RMM:   6    -0.231943978008E+04    0.10398E-03   -0.59941E-04  4270   0.117E-02    0.131E-01
RMM:   7    -0.231943965984E+04    0.12024E-03   -0.25009E-04  3587   0.942E-03    0.370E-02
RMM:   8    -0.231943965152E+04    0.83134E-05   -0.39147E-05  2932   0.589E-03
  25 F= -.23402967E+04 E0= -.23402967E+04  d E =-.131217E-01  mag=     5.0000
       N       E                     dE             d eps       ncg     rms          rms(c)
DAV:   1    -0.231940169304E+04    0.37967E-01   -0.19924E+00  4476   0.101E+00    0.486E-01
RMM:   2    -0.231944069219E+04   -0.38999E-01   -0.40248E-01  6332   0.258E-01    0.498E-01
RMM:   3    -0.231944281145E+04   -0.21193E-02   -0.42156E-02  5882   0.950E-02    0.349E-01
RMM:   4    -0.231944211214E+04    0.69931E-03   -0.40265E-03  4475   0.213E-02    0.130E-01
RMM:   5    -0.231944197141E+04    0.14073E-03   -0.43990E-04  3739   0.107E-02    0.107E-01
RMM:   6    -0.231944194541E+04    0.26001E-04   -0.34489E-04  3542   0.955E-03    0.108E-01
RMM:   7    -0.231944185884E+04    0.86564E-04   -0.16114E-04  3200   0.813E-03    0.303E-02
RMM:   8    -0.231944185297E+04    0.58722E-05   -0.28889E-05  2924   0.546E-03
  26 F= -.23402992E+04 E0= -.23402992E+04  d E =-.155994E-01  mag=     5.0000
       N       E                     dE             d eps       ncg     rms          rms(c)
DAV:   1    -0.231942038813E+04    0.21471E-01   -0.20834E+00  4476   0.109E+00    0.457E-01
RMM:   2    -0.231944859478E+04   -0.28207E-01   -0.29293E-01  6300   0.255E-01    0.442E-01
RMM:   3    -0.231945031946E+04   -0.17247E-02   -0.29117E-02  6072   0.879E-02    0.385E-01
RMM:   4    -0.231944924236E+04    0.10771E-02   -0.32286E-03  5238   0.225E-02    0.123E-01
RMM:   5    -0.231944917255E+04    0.69813E-04   -0.54239E-04  4448   0.128E-02    0.114E-01
RMM:   6    -0.231944912519E+04    0.47353E-04   -0.34695E-04  3311   0.106E-02    0.856E-02
RMM:   7    -0.231944907226E+04    0.52935E-04   -0.12020E-04  3374   0.815E-03    0.245E-02
RMM:   8    -0.231944906825E+04    0.40102E-05   -0.21553E-05  2935   0.532E-03
  27 F= -.23403063E+04 E0= -.23403063E+04  d E =-.709480E-02  mag=     5.0000
       N       E                     dE             d eps       ncg     rms          rms(c)
DAV:   1    -0.231944331763E+04    0.57546E-02   -0.47290E-01  4528   0.525E-01    0.219E-01
RMM:   2    -0.231944975786E+04   -0.64402E-02   -0.66856E-02  6326   0.123E-01    0.210E-01
RMM:   3    -0.231945013053E+04   -0.37267E-03   -0.65165E-03  5335   0.404E-02    0.182E-01
RMM:   4    -0.231944989198E+04    0.23855E-03   -0.72787E-04  3359   0.111E-02    0.588E-02
RMM:   5    -0.231944986861E+04    0.23367E-04   -0.12073E-04  3201   0.705E-03    0.477E-02
RMM:   6    -0.231944986965E+04   -0.10406E-05   -0.84758E-05  2944   0.645E-03
  28 F= -.23403070E+04 E0= -.23403070E+04  d E =-.784611E-02  mag=     5.0000
       N       E                     dE             d eps       ncg     rms          rms(c)
DAV:   1    -0.231942223326E+04    0.27635E-01   -0.22541E+00  4480   0.118E+00    0.479E-01
RMM:   2    -0.231945600579E+04   -0.33773E-01   -0.34428E-01  6289   0.268E-01    0.476E-01
RMM:   3    -0.231945774061E+04   -0.17348E-02   -0.39084E-02  6038   0.104E-01    0.363E-01
RMM:   4    -0.231945678350E+04    0.95711E-03   -0.39345E-03  5362   0.239E-02    0.139E-01
RMM:   5    -0.231945674443E+04    0.39064E-04   -0.53844E-04  3950   0.119E-02    0.153E-01
RMM:   6    -0.231945654425E+04    0.20019E-03   -0.43942E-04  4508   0.117E-02    0.808E-02
RMM:   7    -0.231945650861E+04    0.35636E-04   -0.20672E-04  3729   0.994E-03    0.237E-02
RMM:   8    -0.231945650497E+04    0.36364E-05   -0.22772E-05  2938   0.508E-03
  29 F= -.23403132E+04 E0= -.23403132E+04  d E =-.610661E-02  mag=     5.0000
       N       E                     dE             d eps       ncg     rms          rms(c)
DAV:   1    -0.231945022742E+04    0.62812E-02   -0.45972E-01  4560   0.532E-01    0.217E-01
RMM:   2    -0.231945717182E+04   -0.69444E-02   -0.70370E-02  6357   0.122E-01    0.228E-01
RMM:   3    -0.231945744445E+04   -0.27263E-03   -0.78502E-03  5271   0.455E-02    0.161E-01
RMM:   4    -0.231945726659E+04    0.17786E-03   -0.79895E-04  3447   0.111E-02    0.609E-02
RMM:   5    -0.231945725882E+04    0.77675E-05   -0.11005E-04  3047   0.639E-03    0.688E-02
RMM:   6    -0.231945721762E+04    0.41206E-04   -0.88682E-05  3022   0.617E-03    0.373E-02
RMM:   7    -0.231945720921E+04    0.84038E-05   -0.44928E-05  2962   0.579E-03
  30 F= -.23403136E+04 E0= -.23403136E+04  d E =-.658123E-02  mag=     5.0000
       N       E                     dE             d eps       ncg     rms          rms(c)
DAV:   1    -0.231942805236E+04    0.29165E-01   -0.20680E+00  4476   0.117E+00    0.456E-01
RMM:   2    -0.231946063450E+04   -0.32582E-01   -0.32936E-01  6315   0.268E-01    0.498E-01
RMM:   3    -0.231946146663E+04   -0.83212E-03   -0.36233E-02  6043   0.102E-01    0.314E-01
RMM:   4    -0.231946084433E+04    0.62230E-03   -0.37943E-03  5340   0.232E-02    0.150E-01
RMM:   5    -0.231946075732E+04    0.87006E-04   -0.44626E-04  3332   0.112E-02    0.132E-01
RMM:   6    -0.231946058811E+04    0.16921E-03   -0.35417E-04  4386   0.116E-02    0.738E-02
RMM:   7    -0.231946055144E+04    0.36679E-04   -0.21715E-04  3809   0.111E-02    0.191E-02
RMM:   8    -0.231946054988E+04    0.15546E-05   -0.26253E-05  2949   0.485E-03
  31 F= -.23403171E+04 E0= -.23403171E+04  d E =-.346106E-02  mag=     5.0000
       N       E                     dE             d eps       ncg     rms          rms(c)
DAV:   1    -0.231946054231E+04    0.91283E-05   -0.20270E-04  4920   0.129E-02    0.726E-03
RMM:   2    -0.231946054672E+04   -0.44094E-05   -0.42479E-05  2968   0.385E-03
  32 F= -.23403171E+04 E0= -.23403171E+04  d E =-.345908E-02  mag=     5.0000
       N       E                     dE             d eps       ncg     rms          rms(c)
DAV:   1    -0.231945349144E+04    0.70509E-02   -0.57475E-01  4496   0.687E-01    0.251E-01
RMM:   2    -0.231946127963E+04   -0.77882E-02   -0.83000E-02  6009   0.144E-01    0.166E-01
RMM:   3    -0.231946201686E+04   -0.73723E-03   -0.97515E-03  5502   0.603E-02    0.166E-01
RMM:   4    -0.231946181448E+04    0.20238E-03   -0.94893E-04  3920   0.132E-02    0.819E-02
RMM:   5    -0.231946177948E+04    0.35000E-04   -0.16315E-04  3086   0.849E-03    0.729E-02
RMM:   6    -0.231946172746E+04    0.52019E-04   -0.15749E-04  3748   0.840E-03    0.347E-02
RMM:   7    -0.231946171516E+04    0.12300E-04   -0.48536E-05  3098   0.647E-03    0.122E-02
RMM:   8    -0.231946171353E+04    0.16268E-05   -0.91901E-06  2887   0.440E-03
  33 F= -.23403186E+04 E0= -.23403186E+04  d E =-.148890E-02  mag=     5.0000
       N       E                     dE             d eps       ncg     rms          rms(c)
DAV:   1    -0.231946171756E+04   -0.24013E-05   -0.86223E-04  5208   0.269E-02    0.998E-03
RMM:   2    -0.231946172879E+04   -0.11236E-04   -0.12056E-04  3122   0.659E-03    0.809E-03
RMM:   3    -0.231946172999E+04   -0.11965E-05   -0.16815E-05  2670   0.431E-03
  34 F= -.23403186E+04 E0= -.23403186E+04  d E =-.149290E-02  mag=     5.0000
       N       E                     dE             d eps       ncg     rms          rms(c)
DAV:   1    -0.231945628904E+04    0.54398E-02   -0.45613E-01  4528   0.600E-01    0.200E-01
RMM:   2    -0.231946233741E+04   -0.60484E-02   -0.64247E-02  5989   0.122E-01    0.116E-01
RMM:   3    -0.231946289029E+04   -0.55288E-03   -0.69868E-03  5254   0.515E-02    0.950E-02
RMM:   4    -0.231946286148E+04    0.28809E-04   -0.68864E-04  3202   0.104E-02    0.613E-02
RMM:   5    -0.231946282272E+04    0.38764E-04   -0.89609E-05  2959   0.697E-03    0.397E-02
RMM:   6    -0.231946282491E+04   -0.21924E-05   -0.90151E-05  3353   0.670E-03
  35 F= -.23403199E+04 E0= -.23403199E+04  d E =-.130061E-02  mag=     5.0000
       N       E                     dE             d eps       ncg     rms          rms(c)
DAV:   1    -0.231946170720E+04    0.11155E-02   -0.76175E-02  4624   0.245E-01    0.832E-02
RMM:   2    -0.231946272404E+04   -0.10168E-02   -0.10873E-02  6316   0.529E-02    0.519E-02
RMM:   3    -0.231946283648E+04   -0.11244E-03   -0.12381E-03  3258   0.199E-02    0.632E-02
RMM:   4    -0.231946281614E+04    0.20341E-04   -0.12565E-04  2957   0.571E-03    0.255E-02
RMM:   5    -0.231946280888E+04    0.72623E-05   -0.17591E-05  2924   0.309E-03
  36 F= -.23403200E+04 E0= -.23403200E+04  d E =-.137036E-02  mag=     5.0000
       N       E                     dE             d eps       ncg     rms          rms(c)
DAV:   1    -0.231946025970E+04    0.25564E-02   -0.27428E-01  4496   0.450E-01    0.142E-01
RMM:   2    -0.231946394665E+04   -0.36869E-02   -0.37968E-02  6388   0.919E-02    0.144E-01
RMM:   3    -0.231946419856E+04   -0.25191E-03   -0.38783E-03  4665   0.336E-02    0.111E-01
RMM:   4    -0.231946412376E+04    0.74800E-04   -0.41328E-04  3067   0.849E-03    0.426E-02
RMM:   5    -0.231946410622E+04    0.17539E-04   -0.44014E-05  2979   0.482E-03    0.353E-02
RMM:   6    -0.231946410091E+04    0.53093E-05   -0.49102E-05  2932   0.496E-03
  37 F= -.23403211E+04 E0= -.23403211E+04  d E =-.119399E-02  mag=     5.0000
       N       E                     dE             d eps       ncg     rms          rms(c)
DAV:   1    -0.231943393271E+04    0.30174E-01   -0.22424E+00  4472   0.129E+00    0.403E-01
RMM:   2    -0.231946363556E+04   -0.29703E-01   -0.30936E-01  6147   0.261E-01    0.356E-01
RMM:   3    -0.231946613704E+04   -0.25015E-02   -0.33088E-02  5787   0.106E-01    0.300E-01
RMM:   4    -0.231946564599E+04    0.49105E-03   -0.34231E-03  5096   0.221E-02    0.127E-01
RMM:   5    -0.231946551844E+04    0.12755E-03   -0.33157E-04  3825   0.108E-02    0.108E-01
RMM:   6    -0.231946544077E+04    0.77675E-04   -0.36189E-04  3966   0.108E-02    0.784E-02
RMM:   7    -0.231946539033E+04    0.50437E-04   -0.17962E-04  3965   0.910E-03    0.373E-02
RMM:   8    -0.231946538072E+04    0.96145E-05   -0.23975E-05  2919   0.568E-03
  38 F= -.23403222E+04 E0= -.23403222E+04  d E =-.220877E-02  mag=     5.0000
       N       E                     dE             d eps       ncg     rms          rms(c)
DAV:   1    -0.231946316926E+04    0.22211E-02   -0.28249E-01  4512   0.449E-01    0.139E-01
RMM:   2    -0.231946632735E+04   -0.31581E-02   -0.33115E-02  6173   0.896E-02    0.117E-01
RMM:   3    -0.231946657814E+04   -0.25080E-03   -0.33322E-03  4578   0.342E-02    0.108E-01
RMM:   4    -0.231946650537E+04    0.72769E-04   -0.36096E-04  3052   0.850E-03    0.437E-02
RMM:   5    -0.231946648944E+04    0.15935E-04   -0.53152E-05  2991   0.515E-03    0.366E-02
RMM:   6    -0.231946648286E+04    0.65746E-05   -0.50088E-05  2948   0.506E-03
  39 F= -.23403230E+04 E0= -.23403230E+04  d E =-.868147E-03  mag=     5.0000
       N       E                     dE             d eps       ncg     rms          rms(c)
DAV:   1    -0.231945817327E+04    0.83162E-02   -0.77596E-01  4476   0.744E-01    0.229E-01
RMM:   2    -0.231946679081E+04   -0.86175E-02   -0.90604E-02  6053   0.147E-01    0.185E-01
RMM:   3    -0.231946751294E+04   -0.72213E-03   -0.91545E-03  5532   0.588E-02    0.178E-01
RMM:   4    -0.231946731529E+04    0.19765E-03   -0.98986E-04  3472   0.128E-02    0.743E-02
RMM:   5    -0.231946726918E+04    0.46105E-04   -0.14110E-04  3213   0.794E-03    0.612E-02
RMM:   6    -0.231946724969E+04    0.19494E-04   -0.14148E-04  3121   0.788E-03    0.453E-02
RMM:   7    -0.231946723136E+04    0.18329E-04   -0.50225E-05  3063   0.641E-03    0.181E-02
RMM:   8    -0.231946722882E+04    0.25390E-05   -0.90038E-06  2884   0.430E-03
  40 F= -.23403234E+04 E0= -.23403234E+04  d E =-.122853E-02  mag=     5.0000
       N       E                     dE             d eps       ncg     rms          rms(c)
DAV:   1    -0.231946672365E+04    0.50770E-03   -0.16774E-01  4496   0.337E-01    0.103E-01
RMM:   2    -0.231946814446E+04   -0.14208E-02   -0.15237E-02  5980   0.642E-02    0.723E-02
RMM:   3    -0.231946826029E+04   -0.11583E-03   -0.14515E-03  3749   0.233E-02    0.801E-02
RMM:   4    -0.231946821790E+04    0.42392E-04   -0.15194E-04  2955   0.652E-03    0.334E-02
RMM:   5    -0.231946820753E+04    0.10362E-04   -0.43224E-05  2981   0.471E-03    0.228E-02
RMM:   6    -0.231946820902E+04   -0.14832E-05   -0.25921E-05  2908   0.429E-03
  41 F= -.23403242E+04 E0= -.23403242E+04  d E =-.832150E-03  mag=     5.0000
       N       E                     dE             d eps       ncg     rms          rms(c)
DAV:   1    -0.231945938982E+04    0.88177E-02   -0.11610E+00  4472   0.887E-01    0.269E-01
RMM:   2    -0.231946895003E+04   -0.95602E-02   -0.10292E-01  5906   0.166E-01    0.182E-01
RMM:   3    -0.231946968135E+04   -0.73133E-03   -0.94073E-03  5518   0.628E-02    0.203E-01
RMM:   4    -0.231946941835E+04    0.26300E-03   -0.10747E-03  3969   0.145E-02    0.892E-02
RMM:   5    -0.231946935187E+04    0.66477E-04   -0.28058E-04  4037   0.110E-02    0.655E-02
RMM:   6    -0.231946934646E+04    0.54096E-05   -0.17937E-04  3242   0.900E-03    0.541E-02
RMM:   7    -0.231946931794E+04    0.28520E-04   -0.44940E-05  2989   0.642E-03    0.164E-02
RMM:   8    -0.231946931544E+04    0.24970E-05   -0.86313E-06  2897   0.373E-03
  42 F= -.23403249E+04 E0= -.23403249E+04  d E =-.154927E-02  mag=     5.0000
       N       E                     dE             d eps       ncg     rms          rms(c)
DAV:   1    -0.231946906344E+04    0.25450E-03   -0.14439E-01  4560   0.303E-01    0.917E-02
RMM:   2    -0.231947014117E+04   -0.10777E-02   -0.11662E-02  6024   0.569E-02    0.554E-02
RMM:   3    -0.231947022112E+04   -0.79944E-04   -0.10870E-03  3529   0.206E-02    0.621E-02
RMM:   4    -0.231947019952E+04    0.21596E-04   -0.11042E-04  2950   0.566E-03    0.309E-02
RMM:   5    -0.231947018983E+04    0.96912E-05   -0.35131E-05  2963   0.405E-03
  43 F= -.23403257E+04 E0= -.23403257E+04  d E =-.760229E-03  mag=     5.0000
       N       E                     dE             d eps       ncg     rms          rms(c)
DAV:   1    -0.231946167068E+04    0.85288E-02   -0.12946E+00  4460   0.908E-01    0.274E-01
RMM:   2    -0.231947125580E+04   -0.95851E-02   -0.10391E-01  6025   0.169E-01    0.163E-01
RMM:   3    -0.231947193366E+04   -0.67787E-03   -0.96485E-03  5568   0.599E-02    0.168E-01
RMM:   4    -0.231947178279E+04    0.15087E-03   -0.96939E-04  3531   0.137E-02    0.968E-02
RMM:   5    -0.231947170601E+04    0.76781E-04   -0.31784E-04  4085   0.111E-02    0.632E-02
RMM:   6    -0.231947170985E+04   -0.38429E-05   -0.15919E-04  3128   0.865E-03    0.581E-02
RMM:   7    -0.231947167881E+04    0.31046E-04   -0.48345E-05  2963   0.603E-03    0.149E-02
RMM:   8    -0.231947167696E+04    0.18492E-05   -0.86746E-06  2903   0.351E-03
  44 F= -.23403268E+04 E0= -.23403268E+04  d E =-.190604E-02  mag=     5.0000
       N       E                     dE             d eps       ncg     rms          rms(c)
DAV:   1    -0.231947128761E+04    0.39120E-03   -0.62805E-02  4640   0.200E-01    0.607E-02
RMM:   2    -0.231947175888E+04   -0.47127E-03   -0.50948E-03  5995   0.378E-02    0.368E-02
RMM:   3    -0.231947179379E+04   -0.34908E-04   -0.47552E-04  3110   0.138E-02    0.411E-02
RMM:   4    -0.231947178434E+04    0.94510E-05   -0.48814E-05  2935   0.398E-03
  45 F= -.23403269E+04 E0= -.23403269E+04  d E =-.193863E-02  mag=     5.0000
       N       E                     dE             d eps       ncg     rms          rms(c)
DAV:   1    -0.231947158647E+04    0.20732E-03   -0.20264E-01  4496   0.347E-01    0.106E-01
RMM:   2    -0.231947263768E+04   -0.10512E-02   -0.11377E-02  5976   0.622E-02    0.589E-02
RMM:   3    -0.231947268022E+04   -0.42532E-04   -0.97675E-04  3768   0.228E-02    0.613E-02
RMM:   4    -0.231947265929E+04    0.20927E-04   -0.11395E-04  2976   0.653E-03    0.394E-02
RMM:   5    -0.231947264766E+04    0.11625E-04   -0.55402E-05  3011   0.543E-03    0.282E-02
RMM:   6    -0.231947264547E+04    0.21898E-05   -0.24258E-05  2903   0.483E-03
  46 F= -.23403277E+04 E0= -.23403277E+04  d E =-.805242E-03  mag=     5.0000
       N       E                     dE             d eps       ncg     rms          rms(c)
DAV:   1    -0.231947047176E+04    0.21759E-02   -0.49811E-01  4464   0.543E-01    0.166E-01
RMM:   2    -0.231947306270E+04   -0.25909E-02   -0.28156E-02  5780   0.976E-02    0.835E-02
RMM:   3    -0.231947313900E+04   -0.76301E-04   -0.22682E-03  4663   0.356E-02    0.646E-02
RMM:   4    -0.231947314518E+04   -0.61787E-05   -0.27549E-04  3283   0.914E-03    0.704E-02
RMM:   5    -0.231947309864E+04    0.46542E-04   -0.11774E-04  3294   0.800E-03    0.336E-02
RMM:   6    -0.231947309990E+04   -0.12655E-05   -0.40167E-05  2932   0.610E-03
  47 F= -.23403280E+04 E0= -.23403280E+04  d E =-.117319E-02  mag=     5.0000
       N       E                     dE             d eps       ncg     rms          rms(c)
DAV:   1    -0.231947198728E+04    0.11114E-02   -0.32826E-01  4464   0.431E-01    0.131E-01
RMM:   2    -0.231947383414E+04   -0.18469E-02   -0.19849E-02  6157   0.797E-02    0.638E-02
RMM:   3    -0.231947392056E+04   -0.86416E-04   -0.18226E-03  4233   0.279E-02    0.449E-02
RMM:   4    -0.231947392134E+04   -0.78652E-06   -0.17769E-04  3011   0.693E-03    0.451E-02
RMM:   5    -0.231947391197E+04    0.93735E-05   -0.54868E-05  2940   0.530E-03
  48 F= -.23403288E+04 E0= -.23403288E+04  d E =-.777489E-03  mag=     5.0000
       N       E                     dE             d eps       ncg     rms          rms(c)
DAV:   1    -0.231947036013E+04    0.35612E-02   -0.67103E-01  4460   0.616E-01    0.186E-01
RMM:   2    -0.231947411848E+04   -0.37583E-02   -0.40429E-02  6166   0.113E-01    0.927E-02
RMM:   3    -0.231947429303E+04   -0.17455E-03   -0.35994E-03  5068   0.396E-02    0.721E-02
RMM:   4    -0.231947429640E+04   -0.33697E-05   -0.37354E-04  3122   0.936E-03    0.700E-02
RMM:   5    -0.231947425442E+04    0.41975E-04   -0.13723E-04  3191   0.800E-03    0.393E-02
RMM:   6    -0.231947425164E+04    0.27805E-05   -0.46886E-05  3015   0.634E-03
  49 F= -.23403291E+04 E0= -.23403291E+04  d E =-.106888E-02  mag=     5.0000
       N       E                     dE             d eps       ncg     rms          rms(c)
DAV:   1    -0.231947178039E+04    0.24740E-02   -0.44129E-01  4480   0.524E-01    0.166E-01
RMM:   2    -0.231947488958E+04   -0.31092E-02   -0.33359E-02  6157   0.100E-01    0.804E-02
RMM:   3    -0.231947507001E+04   -0.18043E-03   -0.33542E-03  4909   0.370E-02    0.539E-02
RMM:   4    -0.231947508964E+04   -0.19635E-04   -0.34092E-04  3207   0.906E-03    0.648E-02
RMM:   5    -0.231947505618E+04    0.33465E-04   -0.73558E-05  2973   0.634E-03    0.345E-02
RMM:   6    -0.231947505030E+04    0.58759E-05   -0.37655E-05  2971   0.521E-03
  50 F= -.23403299E+04 E0= -.23403299E+04  d E =-.776765E-03  mag=     5.0000
       N       E                     dE             d eps       ncg     rms          rms(c)
DAV:   1    -0.231947461796E+04    0.43822E-03   -0.65294E-02  4608   0.201E-01    0.668E-02
RMM:   2    -0.231947509836E+04   -0.48040E-03   -0.50351E-03  6270   0.405E-02    0.524E-02
RMM:   3    -0.231947513539E+04   -0.37037E-04   -0.56133E-04  3168   0.148E-02    0.571E-02
RMM:   4    -0.231947510967E+04    0.25727E-04   -0.53579E-05  2924   0.493E-03    0.191E-02
RMM:   5    -0.231947510890E+04    0.76854E-06   -0.19533E-05  2912   0.318E-03
  51 F= -.23403299E+04 E0= -.23403299E+04  d E =-.827082E-03  mag=     5.0000
       N       E                     dE             d eps       ncg     rms          rms(c)
DAV:   1    -0.231947360935E+04    0.15003E-02   -0.15900E-01  4512   0.354E-01    0.121E-01
RMM:   2    -0.231947540562E+04   -0.17963E-02   -0.19131E-02  6067   0.720E-02    0.656E-02
RMM:   3    -0.231947556518E+04   -0.15956E-03   -0.21216E-03  4074   0.295E-02    0.649E-02
RMM:   4    -0.231947554951E+04    0.15662E-04   -0.21452E-04  2973   0.703E-03    0.395E-02
RMM:   5    -0.231947553370E+04    0.15813E-04   -0.37300E-05  2941   0.489E-03    0.228E-02
RMM:   6    -0.231947553274E+04    0.95941E-06   -0.31925E-05  2945   0.505E-03
  52 F= -.23403305E+04 E0= -.23403305E+04  d E =-.522550E-03  mag=     5.0000
       N       E                     dE             d eps       ncg     rms          rms(c)
DAV:   1    -0.231947504767E+04    0.48603E-03   -0.37945E-02  4608   0.173E-01    0.608E-02
RMM:   2    -0.231947547983E+04   -0.43216E-03   -0.46480E-03  6205   0.364E-02    0.331E-02
RMM:   3    -0.231947552568E+04   -0.45849E-04   -0.55308E-04  3027   0.144E-02    0.420E-02
RMM:   4    -0.231947551683E+04    0.88483E-05   -0.54671E-05  2940   0.419E-03
  53 F= -.23403305E+04 E0= -.23403305E+04  d E =-.555149E-03  mag=     5.0000
       N       E                     dE             d eps       ncg     rms          rms(c)
DAV:   1    -0.231947374576E+04    0.17799E-02   -0.13300E-01  4528   0.330E-01    0.113E-01
RMM:   2    -0.231947575351E+04   -0.20078E-02   -0.20875E-02  6177   0.696E-02    0.810E-02
RMM:   3    -0.231947593312E+04   -0.17961E-03   -0.22498E-03  3880   0.281E-02    0.740E-02
RMM:   4    -0.231947590262E+04    0.30500E-04   -0.24363E-04  2985   0.724E-03    0.348E-02
RMM:   5    -0.231947589348E+04    0.91443E-05   -0.28293E-05  2927   0.408E-03
  54 F= -.23403310E+04 E0= -.23403310E+04  d E =-.478778E-03  mag=     5.0000
       N       E                     dE             d eps       ncg     rms          rms(c)
DAV:   1    -0.231947063540E+04    0.52672E-02   -0.33017E-01  4492   0.520E-01    0.181E-01
RMM:   2    -0.231947566809E+04   -0.50327E-02   -0.52024E-02  6288   0.111E-01    0.146E-01
RMM:   3    -0.231947607728E+04   -0.40919E-03   -0.58254E-03  5243   0.430E-02    0.116E-01
RMM:   4    -0.231947597093E+04    0.10635E-03   -0.59481E-04  3105   0.103E-02    0.499E-02
RMM:   5    -0.231947593819E+04    0.32743E-04   -0.65756E-05  3000   0.635E-03    0.269E-02
RMM:   6    -0.231947593245E+04    0.57368E-05   -0.53010E-05  3189   0.642E-03
  55 F= -.23403312E+04 E0= -.23403312E+04  d E =-.679481E-03  mag=     5.0000
       N       E                     dE             d eps       ncg     rms          rms(c)
DAV:   1    -0.231947466852E+04    0.12697E-02   -0.93884E-02  4576   0.277E-01    0.101E-01
RMM:   2    -0.231947628547E+04   -0.16170E-02   -0.16403E-02  6445   0.621E-02    0.109E-01
RMM:   3    -0.231947637027E+04   -0.84797E-04   -0.17021E-03  3515   0.219E-02    0.757E-02
RMM:   4    -0.231947633534E+04    0.34931E-04   -0.19542E-04  2976   0.675E-03    0.264E-02
RMM:   5    -0.231947633257E+04    0.27648E-05   -0.21124E-05  2922   0.329E-03
  56 F= -.23403316E+04 E0= -.23403316E+04  d E =-.449848E-03  mag=     5.0000
       N       E                     dE             d eps       ncg     rms          rms(c)
DAV:   1    -0.231946667776E+04    0.96576E-02   -0.56688E-01  4488   0.681E-01    0.239E-01
RMM:   2    -0.231947627792E+04   -0.96002E-02   -0.98411E-02  6232   0.147E-01    0.217E-01
RMM:   3    -0.231947694555E+04   -0.66763E-03   -0.10166E-02  5618   0.555E-02    0.169E-01
RMM:   4    -0.231947675447E+04    0.19108E-03   -0.11274E-03  3391   0.129E-02    0.691E-02
RMM:   5    -0.231947672776E+04    0.26717E-04   -0.11515E-04  3039   0.722E-03    0.638E-02
RMM:   6    -0.231947669107E+04    0.36685E-04   -0.10178E-04  3023   0.687E-03    0.389E-02
RMM:   7    -0.231947668005E+04    0.11020E-04   -0.51565E-05  3073   0.654E-03    0.141E-02
RMM:   8    -0.231947667865E+04    0.14038E-05   -0.86820E-06  2892   0.455E-03
  57 F= -.23403321E+04 E0= -.23403321E+04  d E =-.919208E-03  mag=     5.0000
       N       E                     dE             d eps       ncg     rms          rms(c)
DAV:   1    -0.231947518441E+04    0.14956E-02   -0.12036E-01  4512   0.328E-01    0.123E-01
RMM:   2    -0.231947718228E+04   -0.19979E-02   -0.20564E-02  6125   0.709E-02    0.112E-01
RMM:   3    -0.231947731109E+04   -0.12881E-03   -0.21306E-03  4004   0.264E-02    0.919E-02
RMM:   4    -0.231947724941E+04    0.61681E-04   -0.24014E-04  2996   0.741E-03    0.321E-02
RMM:   5    -0.231947724458E+04    0.48264E-05   -0.34760E-05  2930   0.424E-03
  58 F= -.23403326E+04 E0= -.23403326E+04  d E =-.542678E-03  mag=     5.0000
       N       E                     dE             d eps       ncg     rms          rms(c)
DAV:   1    -0.231947511046E+04    0.21389E-02   -0.13521E-01  4480   0.348E-01    0.128E-01
RMM:   2    -0.231947735518E+04   -0.22447E-02   -0.23023E-02  6251   0.763E-02    0.119E-01
RMM:   3    -0.231947749763E+04   -0.14244E-03   -0.24783E-03  4219   0.292E-02    0.932E-02
RMM:   4    -0.231947742846E+04    0.69170E-04   -0.26543E-04  3018   0.796E-03    0.358E-02
RMM:   5    -0.231947742176E+04    0.67001E-05   -0.45744E-05  2939   0.515E-03
  59 F= -.23403328E+04 E0= -.23403328E+04  d E =-.695142E-03  mag=     5.0000
       N       E                     dE             d eps       ncg     rms          rms(c)
DAV:   1    -0.231947591300E+04    0.15155E-02   -0.12221E-01  4480   0.329E-01    0.112E-01
RMM:   2    -0.231947782106E+04   -0.19081E-02   -0.19749E-02  6406   0.709E-02    0.985E-02
RMM:   3    -0.231947796313E+04   -0.14207E-03   -0.20936E-03  3845   0.260E-02    0.810E-02
RMM:   4    -0.231947791238E+04    0.50748E-04   -0.22131E-04  2991   0.756E-03    0.329E-02
RMM:   5    -0.231947790321E+04    0.91727E-05   -0.35018E-05  2941   0.461E-03
  60 F= -.23403332E+04 E0= -.23403332E+04  d E =-.405598E-03  mag=     5.0000
       N       E                     dE             d eps       ncg     rms          rms(c)
DAV:   1    -0.231947520955E+04    0.27028E-02   -0.17987E-01  4480   0.399E-01    0.138E-01
RMM:   2    -0.231947800458E+04   -0.27950E-02   -0.29032E-02  6311   0.845E-02    0.115E-01
RMM:   3    -0.231947821706E+04   -0.21248E-03   -0.30560E-03  4444   0.324E-02    0.951E-02
RMM:   4    -0.231947814345E+04    0.73604E-04   -0.32423E-04  3028   0.861E-03    0.392E-02
RMM:   5    -0.231947812879E+04    0.14658E-04   -0.49906E-05  2959   0.544E-03    0.292E-02
RMM:   6    -0.231947813055E+04   -0.17530E-05   -0.37071E-05  2934   0.494E-03
  61 F= -.23403333E+04 E0= -.23403333E+04  d E =-.540731E-03  mag=     5.0000
       N       E                     dE             d eps       ncg     rms          rms(c)
DAV:   1    -0.231947642816E+04    0.17006E-02   -0.14839E-01  4496   0.355E-01    0.119E-01
RMM:   2    -0.231947842656E+04   -0.19984E-02   -0.21236E-02  6281   0.729E-02    0.876E-02
RMM:   3    -0.231947860455E+04   -0.17799E-03   -0.20756E-03  4028   0.261E-02    0.905E-02
RMM:   4    -0.231947855275E+04    0.51804E-04   -0.24509E-04  2986   0.727E-03    0.347E-02
RMM:   5    -0.231947854582E+04    0.69211E-05   -0.34922E-05  2956   0.435E-03
  62 F= -.23403337E+04 E0= -.23403337E+04  d E =-.398081E-03  mag=     5.0000
       N       E                     dE             d eps       ncg     rms          rms(c)
DAV:   1    -0.231947753267E+04    0.10201E-02   -0.76405E-02  4512   0.255E-01    0.867E-02
RMM:   2    -0.231947860451E+04   -0.10718E-02   -0.11040E-02  6351   0.537E-02    0.866E-02
RMM:   3    -0.231947865699E+04   -0.52485E-04   -0.11372E-03  3430   0.194E-02    0.616E-02
RMM:   4    -0.231947862869E+04    0.28301E-04   -0.12356E-04  2961   0.605E-03    0.262E-02
RMM:   5    -0.231947862254E+04    0.61549E-05   -0.27429E-05  2939   0.407E-03
  63 F= -.23403338E+04 E0= -.23403338E+04  d E =-.462298E-03  mag=     5.0000
       N       E                     dE             d eps       ncg     rms          rms(c)
DAV:   1    -0.231947744735E+04    0.11813E-02   -0.13414E-01  4480   0.335E-01    0.106E-01
RMM:   2    -0.231947892751E+04   -0.14802E-02   -0.15911E-02  6283   0.664E-02    0.639E-02
RMM:   3    -0.231947905990E+04   -0.13239E-03   -0.16942E-03  3821   0.257E-02    0.607E-02
RMM:   4    -0.231947903404E+04    0.25860E-04   -0.18068E-04  2996   0.712E-03    0.339E-02
RMM:   5    -0.231947902452E+04    0.95195E-05   -0.33396E-05  2965   0.443E-03
  64 F= -.23403342E+04 E0= -.23403342E+04  d E =-.422852E-03  mag=     5.0000
       N       E                     dE             d eps       ncg     rms          rms(c)
DAV:   1    -0.231947824641E+04    0.78763E-03   -0.72288E-02  4512   0.246E-01    0.845E-02
RMM:   2    -0.231947912013E+04   -0.87372E-03   -0.86187E-03  6317   0.495E-02    0.113E-01
RMM:   3    -0.231947910752E+04    0.12604E-04   -0.95173E-04  3438   0.187E-02    0.575E-02
RMM:   4    -0.231947908492E+04    0.22597E-04   -0.10023E-04  2960   0.591E-03    0.240E-02
RMM:   5    -0.231947908357E+04    0.13564E-05   -0.27778E-05  2956   0.419E-03
  65 F= -.23403343E+04 E0= -.23403343E+04  d E =-.497249E-03  mag=     5.0000
       N       E                     dE             d eps       ncg     rms          rms(c)
DAV:   1    -0.231947800198E+04    0.10829E-02   -0.15306E-01  4476   0.360E-01    0.109E-01
RMM:   2    -0.231947941702E+04   -0.14150E-02   -0.15239E-02  6227   0.691E-02    0.624E-02
RMM:   3    -0.231947953647E+04   -0.11945E-03   -0.15179E-03  3986   0.264E-02    0.659E-02
RMM:   4    -0.231947951152E+04    0.24950E-04   -0.17298E-04  2981   0.710E-03    0.352E-02
RMM:   5    -0.231947949799E+04    0.13534E-04   -0.35578E-05  2932   0.492E-03    0.172E-02
RMM:   6    -0.231947950195E+04   -0.39612E-05   -0.21600E-05  2943   0.458E-03
  66 F= -.23403347E+04 E0= -.23403347E+04  d E =-.382754E-03  mag=     5.0000
       N       E                     dE             d eps       ncg     rms          rms(c)
DAV:   1    -0.231947876084E+04    0.73715E-03   -0.83389E-02  4512   0.265E-01    0.818E-02
RMM:   2    -0.231947953501E+04   -0.77417E-03   -0.83588E-03  6274   0.505E-02    0.452E-02
RMM:   3    -0.231947959782E+04   -0.62811E-04   -0.80958E-04  3403   0.182E-02    0.487E-02
RMM:   4    -0.231947958503E+04    0.12788E-04   -0.94701E-05  2956   0.526E-03    0.263E-02
RMM:   5    -0.231947957755E+04    0.74817E-05   -0.17763E-05  2915   0.347E-03
  67 F= -.23403347E+04 E0= -.23403347E+04  d E =-.431955E-03  mag=     5.0000
       N       E                     dE             d eps       ncg     rms          rms(c)
DAV:   1    -0.231947831408E+04    0.12710E-02   -0.18867E-01  4472   0.393E-01    0.123E-01
RMM:   2    -0.231947993091E+04   -0.16168E-02   -0.17371E-02  6130   0.749E-02    0.726E-02
RMM:   3    -0.231948007667E+04   -0.14576E-03   -0.17403E-03  4269   0.284E-02    0.833E-02
RMM:   4    -0.231948002741E+04    0.49261E-04   -0.19982E-04  2993   0.746E-03    0.362E-02
RMM:   5    -0.231948001346E+04    0.13951E-04   -0.47638E-05  2965   0.540E-03    0.225E-02
RMM:   6    -0.231948001580E+04   -0.23433E-05   -0.29252E-05  2935   0.502E-03
  68 F= -.23403351E+04 E0= -.23403351E+04  d E =-.368792E-03  mag=     5.0000
       N       E                     dE             d eps       ncg     rms          rms(c)
DAV:   1    -0.231947973296E+04    0.28049E-03   -0.33977E-02  4640   0.167E-01    0.530E-02
RMM:   2    -0.231948002354E+04   -0.29058E-03   -0.31701E-03  6210   0.324E-02    0.248E-02
RMM:   3    -0.231948004529E+04   -0.21752E-04   -0.31792E-04  2990   0.121E-02    0.173E-02
RMM:   4    -0.231948004715E+04   -0.18641E-05   -0.37460E-05  2944   0.354E-03
  69 F= -.23403351E+04 E0= -.23403351E+04  d E =-.370512E-03  mag=     5.0000
       N       E                     dE             d eps       ncg     rms          rms(c)
DAV:   1    -0.231947891765E+04    0.11276E-02   -0.17719E-01  4476   0.368E-01    0.111E-01
RMM:   2    -0.231948037982E+04   -0.14622E-02   -0.15504E-02  6126   0.687E-02    0.672E-02
RMM:   3    -0.231948050409E+04   -0.12427E-03   -0.15666E-03  3950   0.271E-02    0.729E-02
RMM:   4    -0.231948047451E+04    0.29583E-04   -0.18212E-04  2977   0.711E-03    0.381E-02
RMM:   5    -0.231948045969E+04    0.14820E-04   -0.41898E-05  2963   0.508E-03    0.212E-02
RMM:   6    -0.231948046082E+04   -0.11280E-05   -0.28784E-05  2929   0.490E-03
  70 F= -.23403354E+04 E0= -.23403354E+04  d E =-.349843E-03  mag=     5.0000
       N       E                     dE             d eps       ncg     rms          rms(c)
DAV:   1    -0.231947923874E+04    0.12210E-02   -0.14926E-01  4480   0.338E-01    0.104E-01
RMM:   2    -0.231948046114E+04   -0.12224E-02   -0.13151E-02  5983   0.629E-02    0.518E-02
RMM:   3    -0.231948055481E+04   -0.93669E-04   -0.13156E-03  3895   0.269E-02    0.398E-02
RMM:   4    -0.231948055867E+04   -0.38640E-05   -0.14915E-04  2971   0.628E-03    0.390E-02
RMM:   5    -0.231948054464E+04    0.14030E-04   -0.30390E-05  2926   0.432E-03    0.192E-02
RMM:   6    -0.231948054134E+04    0.33064E-05   -0.17057E-05  2936   0.400E-03
  71 F= -.23403355E+04 E0= -.23403355E+04  d E =-.371971E-03  mag=     5.0000
       N       E                     dE             d eps       ncg     rms          rms(c)
DAV:   1    -0.231947941320E+04    0.11314E-02   -0.16560E-01  4476   0.355E-01    0.108E-01
RMM:   2    -0.231948080554E+04   -0.13923E-02   -0.14818E-02  6137   0.664E-02    0.628E-02
RMM:   3    -0.231948092386E+04   -0.11832E-03   -0.14842E-03  3959   0.275E-02    0.644E-02
RMM:   4    -0.231948089788E+04    0.25977E-04   -0.16828E-04  2965   0.679E-03    0.339E-02
RMM:   5    -0.231948088869E+04    0.91958E-05   -0.37103E-05  2950   0.474E-03
  72 F= -.23403358E+04 E0= -.23403358E+04  d E =-.346313E-03  mag=     5.0000
       N       E                     dE             d eps       ncg     rms          rms(c)
DAV:   1    -0.231947957147E+04    0.13264E-02   -0.15395E-01  4480   0.342E-01    0.105E-01
RMM:   2    -0.231948089092E+04   -0.13195E-02   -0.13917E-02  6298   0.657E-02    0.729E-02
RMM:   3    -0.231948100245E+04   -0.11153E-03   -0.15104E-03  3877   0.250E-02    0.765E-02
RMM:   4    -0.231948095376E+04    0.48686E-04   -0.16565E-04  3001   0.719E-03    0.335E-02
RMM:   5    -0.231948095481E+04   -0.10418E-05   -0.42070E-05  2963   0.450E-03
  73 F= -.23403359E+04 E0= -.23403359E+04  d E =-.411694E-03  mag=     5.0000
       N       E                     dE             d eps       ncg     rms          rms(c)
DAV:   1    -0.231947952150E+04    0.14323E-02   -0.18448E-01  4472   0.387E-01    0.120E-01
RMM:   2    -0.231948118604E+04   -0.16645E-02   -0.17694E-02  6215   0.742E-02    0.737E-02
RMM:   3    -0.231948133983E+04   -0.15379E-03   -0.18413E-03  4164   0.287E-02    0.831E-02
RMM:   4    -0.231948128886E+04    0.50969E-04   -0.19996E-04  2987   0.764E-03    0.379E-02
RMM:   5    -0.231948128154E+04    0.73238E-05   -0.54804E-05  3006   0.546E-03
  74 F= -.23403363E+04 E0= -.23403363E+04  d E =-.402710E-03  mag=     5.0000
       N       E                     dE             d eps       ncg     rms          rms(c)
DAV:   1    -0.231948066314E+04    0.62573E-03   -0.62602E-02  4544   0.225E-01    0.730E-02
RMM:   2    -0.231948125133E+04   -0.58819E-03   -0.61513E-03  6314   0.455E-02    0.594E-02
RMM:   3    -0.231948129732E+04   -0.45988E-04   -0.69637E-04  3354   0.167E-02    0.568E-02
RMM:   4    -0.231948126903E+04    0.28290E-04   -0.72963E-05  2948   0.562E-03    0.237E-02
RMM:   5    -0.231948127028E+04   -0.12482E-05   -0.22423E-05  2928   0.329E-03
  75 F= -.23403363E+04 E0= -.23403363E+04  d E =-.435862E-03  mag=     5.0000
       N       E                     dE             d eps       ncg     rms          rms(c)
DAV:   1    -0.231948014492E+04    0.11241E-02   -0.13658E-01  4472   0.337E-01    0.106E-01
RMM:   2    -0.231948146755E+04   -0.13226E-02   -0.13978E-02  6117   0.655E-02    0.683E-02
RMM:   3    -0.231948157746E+04   -0.10991E-03   -0.14131E-03  3945   0.254E-02    0.716E-02
RMM:   4    -0.231948153646E+04    0.41006E-04   -0.15736E-04  2974   0.701E-03    0.324E-02
RMM:   5    -0.231948153231E+04    0.41512E-05   -0.43569E-05  2973   0.493E-03
  76 F= -.23403366E+04 E0= -.23403366E+04  d E =-.325998E-03  mag=     5.0000
       N       E                     dE             d eps       ncg     rms          rms(c)
DAV:   1    -0.231948119452E+04    0.34194E-03   -0.30601E-02  4640   0.159E-01    0.533E-02
RMM:   2    -0.231948150640E+04   -0.31188E-03   -0.32293E-03  6189   0.336E-02    0.470E-02
RMM:   3    -0.231948152562E+04   -0.19226E-04   -0.37041E-04  3049   0.124E-02    0.400E-02
RMM:   4    -0.231948151147E+04    0.14154E-04   -0.39403E-05  2936   0.440E-03    0.185E-02
RMM:   5    -0.231948151184E+04   -0.37425E-06   -0.12524E-05  2905   0.249E-03
  77 F= -.23403367E+04 E0= -.23403367E+04  d E =-.336047E-03  mag=     5.0000
       N       E                     dE             d eps       ncg     rms          rms(c)
DAV:   1    -0.231948029002E+04    0.12215E-02   -0.14319E-01  4472   0.350E-01    0.112E-01
RMM:   2    -0.231948180487E+04   -0.15149E-02   -0.15717E-02  6055   0.691E-02    0.866E-02
RMM:   3    -0.231948191345E+04   -0.10858E-03   -0.16213E-03  4084   0.267E-02    0.818E-02
RMM:   4    -0.231948185843E+04    0.55019E-04   -0.18194E-04  2983   0.739E-03    0.328E-02
RMM:   5    -0.231948185736E+04    0.10708E-05   -0.45394E-05  2957   0.491E-03
  78 F= -.23403370E+04 E0= -.23403370E+04  d E =-.324027E-03  mag=     5.0000
       N       E                     dE             d eps       ncg     rms          rms(c)
DAV:   1    -0.231948166818E+04    0.19025E-03   -0.17207E-02  4696   0.122E-01    0.414E-02
RMM:   2    -0.231948185795E+04   -0.18977E-03   -0.19453E-03  5980   0.264E-02    0.377E-02
RMM:   3    -0.231948186878E+04   -0.10834E-04   -0.23222E-04  2975   0.101E-02    0.298E-02
RMM:   4    -0.231948186077E+04    0.80117E-05   -0.23738E-05  2928   0.365E-03
  79 F= -.23403370E+04 E0= -.23403370E+04  d E =-.320005E-03  mag=     5.0000
       N       E                     dE             d eps       ncg     rms          rms(c)
DAV:   1    -0.231948073987E+04    0.11289E-02   -0.13262E-01  4476   0.344E-01    0.113E-01
RMM:   2    -0.231948214059E+04   -0.14007E-02   -0.14631E-02  6144   0.680E-02    0.731E-02
RMM:   3    -0.231948224252E+04   -0.10193E-03   -0.15103E-03  4002   0.262E-02    0.669E-02
RMM:   4    -0.231948220409E+04    0.38429E-04   -0.16967E-04  2987   0.722E-03    0.323E-02
RMM:   5    -0.231948219044E+04    0.13645E-04   -0.38683E-05  2920   0.525E-03    0.149E-02
RMM:   6    -0.231948218938E+04    0.10610E-05   -0.19451E-05  2952   0.476E-03
  80 F= -.23403373E+04 E0= -.23403373E+04  d E =-.279673E-03  mag=     5.0000
       N       E                     dE             d eps       ncg     rms          rms(c)
DAV:   1    -0.231948210930E+04    0.81140E-04   -0.80283E-03  4960   0.848E-02    0.298E-02
RMM:   2    -0.231948220168E+04   -0.92376E-04   -0.92554E-04  5670   0.188E-02    0.315E-02
RMM:   3    -0.231948220359E+04   -0.19099E-05   -0.98238E-05  2911   0.720E-03
  81 F= -.23403373E+04 E0= -.23403373E+04  d E =-.281819E-03  mag=     5.0000
       N       E                     dE             d eps       ncg     rms          rms(c)
DAV:   1    -0.231948102539E+04    0.11763E-02   -0.12499E-01  4476   0.328E-01    0.110E-01
RMM:   2    -0.231948246494E+04   -0.14396E-02   -0.14357E-02  6199   0.656E-02    0.112E-01
RMM:   3    -0.231948249095E+04   -0.26010E-04   -0.14229E-03  3893   0.239E-02    0.741E-02
RMM:   4    -0.231948244867E+04    0.42279E-04   -0.17150E-04  2992   0.710E-03    0.303E-02
RMM:   5    -0.231948244774E+04    0.93684E-06   -0.37426E-05  2936   0.479E-03
  82 F= -.23403375E+04 E0= -.23403375E+04  d E =-.254390E-03  mag=     5.0000
       N       E                     dE             d eps       ncg     rms          rms(c)
DAV:   1    -0.231948222047E+04    0.22821E-03   -0.18611E-02  4608   0.127E-01    0.430E-02
RMM:   2    -0.231948242810E+04   -0.20763E-03   -0.21340E-03  6035   0.273E-02    0.361E-02
RMM:   3    -0.231948244239E+04   -0.14297E-04   -0.24828E-04  2956   0.104E-02    0.305E-02
RMM:   4    -0.231948243394E+04    0.84512E-05   -0.25343E-05  2925   0.370E-03
  83 F= -.23403375E+04 E0= -.23403375E+04  d E =-.244686E-03  mag=     5.0000
       N       E                     dE             d eps       ncg     rms          rms(c)
DAV:   1    -0.231948108472E+04    0.13577E-02   -0.14211E-01  4472   0.344E-01    0.113E-01
RMM:   2    -0.231948255265E+04   -0.14679E-02   -0.15295E-02  6122   0.678E-02    0.706E-02
RMM:   3    -0.231948266689E+04   -0.11425E-03   -0.16291E-03  3981   0.275E-02    0.629E-02
RMM:   4    -0.231948263717E+04    0.29720E-04   -0.17185E-04  2986   0.710E-03    0.333E-02
RMM:   5    -0.231948262409E+04    0.13080E-04   -0.39035E-05  2919   0.517E-03    0.173E-02
RMM:   6    -0.231948262370E+04    0.38861E-06   -0.22066E-05  2949   0.474E-03
  84 F= -.23403378E+04 E0= -.23403378E+04  d E =-.262237E-03  mag=     5.0000
       N       E                     dE             d eps       ncg     rms          rms(c)
DAV:   1    -0.231948241969E+04    0.20441E-03   -0.15879E-02  4704   0.115E-01    0.397E-02
RMM:   2    -0.231948258754E+04   -0.16786E-03   -0.17642E-03  5998   0.245E-02    0.264E-02
RMM:   3    -0.231948260537E+04   -0.17826E-04   -0.20759E-04  2927   0.974E-03    0.315E-02
RMM:   4    -0.231948259792E+04    0.74454E-05   -0.21451E-05  2913   0.321E-03
  85 F= -.23403378E+04 E0= -.23403378E+04  d E =-.260913E-03  mag=     5.0000
       N       E                     dE             d eps       ncg     rms          rms(c)
DAV:   1    -0.231948119270E+04    0.14127E-02   -0.15094E-01  4472   0.333E-01    0.108E-01
RMM:   2    -0.231948268642E+04   -0.14937E-02   -0.15522E-02  6046   0.658E-02    0.750E-02
RMM:   3    -0.231948280270E+04   -0.11628E-03   -0.16364E-03  3929   0.268E-02    0.732E-02
RMM:   4    -0.231948277074E+04    0.31964E-04   -0.17611E-04  2975   0.694E-03    0.348E-02
RMM:   5    -0.231948276223E+04    0.85132E-05   -0.38855E-05  2928   0.471E-03
  86 F= -.23403380E+04 E0= -.23403380E+04  d E =-.275275E-03  mag=     5.0000
       N       E                     dE             d eps       ncg     rms          rms(c)
DAV:   1    -0.231948248512E+04    0.28561E-03   -0.22006E-02  4592   0.127E-01    0.482E-02
RMM:   2    -0.231948273641E+04   -0.25128E-03   -0.23734E-03  6010   0.276E-02    0.629E-02
RMM:   3    -0.231948271752E+04    0.18885E-04   -0.26829E-04  2989   0.106E-02    0.256E-02
RMM:   4    -0.231948271187E+04    0.56497E-05   -0.27713E-05  2943   0.366E-03
  87 F= -.23403380E+04 E0= -.23403380E+04  d E =-.267877E-03  mag=     5.0000
       N       E                     dE             d eps       ncg     rms          rms(c)
DAV:   1    -0.231948135181E+04    0.13657E-02   -0.17963E-01  4472   0.355E-01    0.115E-01
RMM:   2    -0.231948284535E+04   -0.14935E-02   -0.15752E-02  6138   0.689E-02    0.667E-02
RMM:   3    -0.231948295738E+04   -0.11203E-03   -0.16084E-03  3950   0.267E-02    0.654E-02
RMM:   4    -0.231948293185E+04    0.25533E-04   -0.17167E-04  2989   0.698E-03    0.410E-02
RMM:   5    -0.231948292397E+04    0.78804E-05   -0.42525E-05  2962   0.467E-03
  88 F= -.23403383E+04 E0= -.23403383E+04  d E =-.284143E-03  mag=     5.0000
       N       E                     dE             d eps       ncg     rms          rms(c)
DAV:   1    -0.231948275915E+04    0.17270E-03   -0.14986E-02  4832   0.103E-01    0.388E-02
RMM:   2    -0.231948290986E+04   -0.15072E-03   -0.13911E-03  5767   0.221E-02    0.565E-02
RMM:   3    -0.231948289308E+04    0.16788E-04   -0.14822E-04  2941   0.837E-03    0.223E-02
RMM:   4    -0.231948288985E+04    0.32289E-05   -0.18003E-05  2925   0.313E-03
  89 F= -.23403383E+04 E0= -.23403383E+04  d E =-.271203E-03  mag=     5.0000
       N       E                     dE             d eps       ncg     rms          rms(c)
DAV:   1    -0.231948178170E+04    0.11114E-02   -0.18538E-01  4472   0.346E-01    0.110E-01
RMM:   2    -0.231948315753E+04   -0.13758E-02   -0.14352E-02  6179   0.671E-02    0.823E-02
RMM:   3    -0.231948325312E+04   -0.95584E-04   -0.13540E-03  3945   0.240E-02    0.913E-02
RMM:   4    -0.231948319223E+04    0.60887E-04   -0.15948E-04  2985   0.719E-03    0.346E-02
RMM:   5    -0.231948318372E+04    0.85121E-05   -0.54244E-05  3032   0.546E-03
  90 F= -.23403386E+04 E0= -.23403386E+04  d E =-.291832E-03  mag=     5.0000
       N       E                     dE             d eps       ncg     rms          rms(c)
DAV:   1    -0.231948307802E+04    0.11421E-03   -0.13180E-02  4776   0.925E-02    0.367E-02
RMM:   2    -0.231948319898E+04   -0.12096E-03   -0.10946E-03  5695   0.202E-02    0.523E-02
RMM:   3    -0.231948317907E+04    0.19906E-04   -0.11915E-04  2948   0.770E-03    0.184E-02
RMM:   4    -0.231948317590E+04    0.31696E-05   -0.13519E-05  2925   0.295E-03
  91 F= -.23403386E+04 E0= -.23403386E+04  d E =-.283555E-03  mag=     5.0000
       N       E                     dE             d eps       ncg     rms          rms(c)
DAV:   1    -0.231948221566E+04    0.96342E-03   -0.18799E-01  4472   0.343E-01    0.110E-01
RMM:   2    -0.231948345792E+04   -0.12423E-02   -0.13193E-02  6151   0.658E-02    0.681E-02
RMM:   3    -0.231948354425E+04   -0.86325E-04   -0.11913E-03  3884   0.233E-02    0.813E-02
RMM:   4    -0.231948349853E+04    0.45722E-04   -0.14155E-04  2979   0.690E-03    0.346E-02
RMM:   5    -0.231948348808E+04    0.10452E-04   -0.51329E-05  3004   0.535E-03    0.241E-02
RMM:   6    -0.231948348704E+04    0.10327E-05   -0.27519E-05  2911   0.503E-03
  92 F= -.23403389E+04 E0= -.23403389E+04  d E =-.278773E-03  mag=     5.0000
       N       E                     dE             d eps       ncg     rms          rms(c)
DAV:   1    -0.231948339941E+04    0.88670E-04   -0.12547E-02  4696   0.887E-02    0.299E-02
RMM:   2    -0.231948348276E+04   -0.83350E-04   -0.90830E-04  5720   0.180E-02    0.147E-02
RMM:   3    -0.231948348744E+04   -0.46831E-05   -0.86157E-05  2909   0.713E-03
  93 F= -.23403389E+04 E0= -.23403389E+04  d E =-.270742E-03  mag=     5.0000
       N       E                     dE             d eps       ncg     rms          rms(c)
DAV:   1    -0.231948250113E+04    0.98162E-03   -0.19470E-01  4472   0.350E-01    0.113E-01
RMM:   2    -0.231948370905E+04   -0.12079E-02   -0.12728E-02  6042   0.653E-02    0.767E-02
RMM:   3    -0.231948379264E+04   -0.83596E-04   -0.11678E-03  3962   0.240E-02    0.905E-02
RMM:   4    -0.231948372859E+04    0.64053E-04   -0.14112E-04  2976   0.709E-03    0.344E-02
RMM:   5    -0.231948372686E+04    0.17323E-05   -0.63585E-05  3039   0.566E-03
  94 F= -.23403391E+04 E0= -.23403391E+04  d E =-.256687E-03  mag=     5.0000
       N       E                     dE             d eps       ncg     rms          rms(c)
DAV:   1    -0.231948367192E+04    0.56668E-04   -0.56712E-03  5168   0.602E-02    0.246E-02
RMM:   2    -0.231948371513E+04   -0.43202E-04   -0.40564E-04  4361   0.131E-02    0.306E-02
RMM:   3    -0.231948370959E+04    0.55337E-05   -0.44761E-05  2903   0.619E-03
  95 F= -.23403391E+04 E0= -.23403391E+04  d E =-.242438E-03  mag=     5.0000
       N       E                     dE             d eps       ncg     rms          rms(c)
DAV:   1    -0.231948290016E+04    0.81496E-03   -0.16682E-01  4472   0.327E-01    0.109E-01
RMM:   2    -0.231948391006E+04   -0.10099E-02   -0.10737E-02  6042   0.605E-02    0.656E-02
RMM:   3    -0.231948397372E+04   -0.63664E-04   -0.94913E-04  3838   0.225E-02    0.733E-02
RMM:   4    -0.231948392943E+04    0.44295E-04   -0.11549E-04  2961   0.678E-03    0.336E-02
RMM:   5    -0.231948392936E+04    0.68321E-07   -0.53125E-05  2983   0.516E-03
  96 F= -.23403393E+04 E0= -.23403393E+04  d E =-.252057E-03  mag=     5.0000
       N       E                     dE             d eps       ncg     rms          rms(c)
DAV:   1    -0.231948387508E+04    0.54343E-04   -0.52179E-03  5184   0.581E-02    0.245E-02
RMM:   2    -0.231948391607E+04   -0.40988E-04   -0.36744E-04  4161   0.126E-02    0.332E-02
RMM:   3    -0.231948390892E+04    0.71531E-05   -0.43555E-05  2905   0.625E-03
  97 F= -.23403393E+04 E0= -.23403393E+04  d E =-.237443E-03  mag=     5.0000
       N       E                     dE             d eps       ncg     rms          rms(c)
DAV:   1    -0.231948316104E+04    0.75503E-03   -0.15251E-01  4472   0.313E-01    0.105E-01
RMM:   2    -0.231948411562E+04   -0.95457E-03   -0.10029E-02  6050   0.579E-02    0.701E-02
RMM:   3    -0.231948417561E+04   -0.59993E-04   -0.91719E-04  3799   0.220E-02    0.749E-02
RMM:   4    -0.231948412656E+04    0.49052E-04   -0.11345E-04  2968   0.672E-03    0.319E-02
RMM:   5    -0.231948412973E+04   -0.31774E-05   -0.49519E-05  2970   0.489E-03
  98 F= -.23403395E+04 E0= -.23403395E+04  d E =-.207780E-03  mag=     5.0000
       N       E                     dE             d eps       ncg     rms          rms(c)
DAV:   1    -0.231948409047E+04    0.36081E-04   -0.37824E-03  5264   0.495E-02    0.210E-02
RMM:   2    -0.231948412007E+04   -0.29592E-04   -0.27041E-04  3708   0.107E-02    0.276E-02
RMM:   3    -0.231948411607E+04    0.40001E-05   -0.33430E-05  2860   0.579E-03
  99 F= -.23403395E+04 E0= -.23403395E+04  d E =-.192049E-03  mag=     5.0000
       N       E                     dE             d eps       ncg     rms          rms(c)
DAV:   1    -0.231948338289E+04    0.73718E-03   -0.14557E-01  4472   0.311E-01    0.105E-01
RMM:   2    -0.231948433501E+04   -0.95212E-03   -0.99494E-03  6075   0.583E-02    0.723E-02
RMM:   3    -0.231948439813E+04   -0.63128E-04   -0.93661E-04  3816   0.224E-02    0.767E-02
RMM:   4    -0.231948434627E+04    0.51860E-04   -0.11705E-04  2968   0.685E-03    0.313E-02
RMM:   5    -0.231948434938E+04   -0.31023E-05   -0.49128E-05  2972   0.499E-03
 100 F= -.23403397E+04 E0= -.23403397E+04  d E =-.217624E-03  mag=     5.0000
       N       E                     dE             d eps       ncg     rms          rms(c)
DAV:   1    -0.231948432165E+04    0.24624E-04   -0.18686E-03  5160   0.358E-02    0.169E-02
RMM:   2    -0.231948433891E+04   -0.17263E-04   -0.14435E-04  3254   0.805E-03    0.254E-02
RMM:   3    -0.231948433444E+04    0.44770E-05   -0.19255E-05  2763   0.474E-03
 101 F= -.23403397E+04 E0= -.23403397E+04  d E =-.200881E-03  mag=     5.0000
       N       E                     dE             d eps       ncg     rms          rms(c)
DAV:   1    -0.231948358013E+04    0.75878E-03   -0.12778E-01  4472   0.290E-01    0.995E-02
RMM:   2    -0.231948451126E+04   -0.93113E-03   -0.96321E-03  6089   0.557E-02    0.754E-02
RMM:   3    -0.231948456886E+04   -0.57592E-04   -0.93374E-04  3714   0.212E-02    0.740E-02
RMM:   4    -0.231948452150E+04    0.47361E-04   -0.11151E-04  2962   0.661E-03    0.289E-02
RMM:   5    -0.231948452458E+04   -0.30856E-05   -0.43454E-05  2964   0.470E-03
 102 F= -.23403399E+04 E0= -.23403399E+04  d E =-.201092E-03  mag=     5.0000
       N       E                     dE             d eps       ncg     rms          rms(c)
DAV:   1    -0.231948449913E+04    0.22369E-04   -0.13736E-03  5112   0.307E-02    0.153E-02
RMM:   2    -0.231948451311E+04   -0.13986E-04   -0.11664E-04  3192   0.707E-03    0.227E-02
RMM:   3    -0.231948450964E+04    0.34698E-05   -0.15576E-05  2699   0.428E-03
 103 F= -.23403399E+04 E0= -.23403399E+04  d E =-.187321E-03  mag=     5.0000
       N       E                     dE             d eps       ncg     rms          rms(c)
DAV:   1    -0.231948382119E+04    0.69192E-03   -0.11511E-01  4472   0.278E-01    0.957E-02
RMM:   2    -0.231948471842E+04   -0.89723E-03   -0.92040E-03  6097   0.536E-02    0.747E-02
RMM:   3    -0.231948477263E+04   -0.54206E-04   -0.89202E-04  3652   0.204E-02    0.719E-02
RMM:   4    -0.231948472925E+04    0.43381E-04   -0.10669E-04  2960   0.633E-03    0.270E-02
RMM:   5    -0.231948473135E+04   -0.20988E-05   -0.36903E-05  2947   0.430E-03
 104 F= -.23403401E+04 E0= -.23403401E+04  d E =-.218409E-03  mag=     5.0000
       N       E                     dE             d eps       ncg     rms          rms(c)
DAV:   1    -0.231948461091E+04    0.11834E-03   -0.14016E-02  4592   0.969E-02    0.349E-02
[...]
RMM:   2    -0.231948992677E+04   -0.32230E-04   -0.31631E-04  4488   0.150E-02    0.268E-02
RMM:   3    -0.231948992410E+04    0.26674E-05   -0.35334E-05  2918   0.710E-03
 252 F= -.23403488E+04 E0= -.23403488E+04  d E =-.275877E-04  mag=     5.0000
       N       E                     dE             d eps       ncg     rms          rms(c)
DAV:   1    -0.231948991953E+04    0.72393E-05   -0.77037E-05  4816   0.833E-03    0.861E-03
RMM:   2    -0.231948992124E+04   -0.17057E-05   -0.76023E-06  2448   0.263E-03
 253 F= -.23403488E+04 E0= -.23403488E+04  d E =-.255093E-04  mag=     5.0000
       N       E                     dE             d eps       ncg     rms          rms(c)
DAV:   1    -0.231948990974E+04    0.97922E-05   -0.94041E-03  4456   0.811E-02    0.267E-02
RMM:   2    -0.231948993706E+04   -0.27321E-04   -0.31215E-04  4487   0.138E-02    0.123E-02
RMM:   3    -0.231948993705E+04    0.10055E-07   -0.26482E-05  2906   0.746E-03
 254 F= -.23403489E+04 E0= -.23403489E+04  d E =-.310414E-04  mag=     5.0000
       N       E                     dE             d eps       ncg     rms          rms(c)
DAV:   1    -0.231948992835E+04    0.87109E-05   -0.84621E-04  4832   0.247E-02    0.122E-02
RMM:   2    -0.231948993227E+04   -0.39157E-05   -0.32095E-05  2912   0.489E-03
 255 F= -.23403489E+04 E0= -.23403489E+04  d E =-.308709E-04  mag=     5.0000
       N       E                     dE             d eps       ncg     rms          rms(c)
DAV:   1    -0.231948992701E+04    0.13384E-05   -0.73624E-03  4456   0.684E-02    0.220E-02
RMM:   2    -0.231948994963E+04   -0.22616E-04   -0.24228E-04  3894   0.127E-02    0.170E-02
RMM:   3    -0.231948995137E+04   -0.17416E-05   -0.26519E-05  2895   0.666E-03
 256 F= -.23403489E+04 E0= -.23403489E+04  d E =-.260401E-04  mag=     5.0000
       N       E                     dE             d eps       ncg     rms          rms(c)
DAV:   1    -0.231948994227E+04    0.73559E-05   -0.17054E-03  4504   0.331E-02    0.125E-02
RMM:   2    -0.231948994703E+04   -0.47601E-05   -0.55529E-05  3009   0.646E-03
 257 F= -.23403489E+04 E0= -.23403489E+04  d E =-.250772E-04  mag=     5.0000
       N       E                     dE             d eps       ncg     rms          rms(c)
DAV:   1    -0.231948995938E+04   -0.17106E-04   -0.72003E-03  4456   0.717E-02    0.263E-02
RMM:   2    -0.231948998909E+04   -0.29714E-04   -0.25580E-04  4212   0.143E-02    0.352E-02
RMM:   3    -0.231948998190E+04    0.71954E-05   -0.31529E-05  2904   0.671E-03
 258 F= -.23403489E+04 E0= -.23403489E+04  d E =-.383260E-04  mag=     5.0000
       N       E                     dE             d eps       ncg     rms          rms(c)
DAV:   1    -0.231948997631E+04    0.12778E-04   -0.14766E-03  4656   0.325E-02    0.134E-02
RMM:   2    -0.231948997967E+04   -0.33595E-05   -0.46387E-05  2997   0.659E-03
 259 F= -.23403489E+04 E0= -.23403489E+04  d E =-.376974E-04  mag=     5.0000
       N       E                     dE             d eps       ncg     rms          rms(c)
DAV:   1    -0.231948997918E+04   -0.28695E-05   -0.76175E-03  4456   0.723E-02    0.252E-02
RMM:   2    -0.231949000928E+04   -0.30094E-04   -0.27911E-04  4291   0.145E-02    0.291E-02
RMM:   3    -0.231949000309E+04    0.61837E-05   -0.32159E-05  2907   0.663E-03
 260 F= -.23403490E+04 E0= -.23403490E+04  d E =-.266136E-04  mag=     5.0000
       N       E                     dE             d eps       ncg     rms          rms(c)
DAV:   1    -0.231949000021E+04    0.90688E-05   -0.36983E-05  4304   0.641E-03    0.775E-03
RMM:   2    -0.231949000182E+04   -0.16070E-05   -0.63764E-06  2404   0.308E-03
 261 F= -.23403490E+04 E0= -.23403490E+04  d E =-.255516E-04  mag=     5.0000
       N       E                     dE             d eps       ncg     rms          rms(c)
DAV:   1    -0.231949000038E+04   -0.17142E-06   -0.72190E-03  4456   0.697E-02    0.233E-02
RMM:   2    -0.231949002228E+04   -0.21896E-04   -0.24686E-04  4148   0.119E-02    0.105E-02
RMM:   3    -0.231949002220E+04    0.81229E-07   -0.22364E-05  2869   0.695E-03
 262 F= -.23403490E+04 E0= -.23403490E+04  d E =-.273020E-04  mag=     5.0000
       N       E                     dE             d eps       ncg     rms          rms(c)
DAV:   1    -0.231949001481E+04    0.74666E-05   -0.15833E-03  4512   0.327E-02    0.148E-02
RMM:   2    -0.231949002278E+04   -0.79685E-05   -0.62360E-05  3042   0.627E-03
 263 F= -.23403490E+04 E0= -.23403490E+04  d E =-.311717E-04  mag=     5.0000
       N       E                     dE             d eps       ncg     rms          rms(c)
DAV:   1    -0.231949000869E+04    0.61155E-05   -0.85008E-03  4456   0.745E-02    0.253E-02
RMM:   2    -0.231949003951E+04   -0.30812E-04   -0.31809E-04  4323   0.144E-02    0.224E-02
RMM:   3    -0.231949004007E+04   -0.56042E-06   -0.32937E-05  2905   0.678E-03
 264 F= -.23403490E+04 E0= -.23403490E+04  d E =-.260526E-04  mag=     5.0000
       N       E                     dE             d eps       ncg     rms          rms(c)
DAV:   1    -0.231949002628E+04    0.13225E-04   -0.21105E-03  4568   0.372E-02    0.143E-02
RMM:   2    -0.231949003265E+04   -0.63723E-05   -0.75310E-05  3113   0.730E-03
 265 F= -.23403490E+04 E0= -.23403490E+04  d E =-.230471E-04  mag=     5.0000
       N       E                     dE             d eps       ncg     rms          rms(c)
DAV:   1    -0.231949002893E+04   -0.26463E-05   -0.66692E-03  4456   0.647E-02    0.238E-02
RMM:   2    -0.231949006208E+04   -0.33152E-04   -0.27040E-04  4052   0.134E-02    0.355E-02
RMM:   3    -0.231949005218E+04    0.98986E-05   -0.31590E-05  2881   0.629E-03
 266 F= -.23403490E+04 E0= -.23403490E+04  d E =-.305400E-04  mag=     5.0000
       N       E                     dE             d eps       ncg     rms          rms(c)
DAV:   1    -0.231949004333E+04    0.18746E-04   -0.20546E-03  4432   0.359E-02    0.157E-02
RMM:   2    -0.231949005367E+04   -0.10333E-04   -0.80608E-05  3113   0.743E-03    0.234E-02
RMM:   3    -0.231949004933E+04    0.43384E-05   -0.11941E-05  2721   0.402E-03
 267 F= -.23403490E+04 E0= -.23403490E+04  d E =-.338504E-04  mag=     5.0000
       N       E                     dE             d eps       ncg     rms          rms(c)
DAV:   1    -0.231949005840E+04   -0.47354E-05   -0.60567E-03  4456   0.654E-02    0.230E-02
RMM:   2    -0.231949007973E+04   -0.21325E-04   -0.21823E-04  4042   0.120E-02    0.195E-02
RMM:   3    -0.231949007980E+04   -0.76092E-07   -0.25210E-05  2888   0.663E-03
 268 F= -.23403491E+04 E0= -.23403491E+04  d E =-.355243E-04  mag=     5.0000
       N       E                     dE             d eps       ncg     rms          rms(c)
DAV:   1    -0.231949007447E+04    0.52541E-05   -0.78729E-04  4672   0.238E-02    0.116E-02
RMM:   2    -0.231949007827E+04   -0.37934E-05   -0.33202E-05  2926   0.498E-03
 269 F= -.23403491E+04 E0= -.23403491E+04  d E =-.358250E-04  mag=     5.0000
       N       E                     dE             d eps       ncg     rms          rms(c)
DAV:   1    -0.231949008147E+04   -0.70023E-05   -0.48621E-03  4456   0.583E-02    0.201E-02
RMM:   2    -0.231949009896E+04   -0.17486E-04   -0.18802E-04  3828   0.117E-02    0.158E-02
RMM:   3    -0.231949010024E+04   -0.12763E-05   -0.20492E-05  2860   0.612E-03
 270 F= -.23403491E+04 E0= -.23403491E+04  d E =-.211981E-04  mag=     5.0000
       N       E                     dE             d eps       ncg     rms          rms(c)
DAV:   1    -0.231949009736E+04    0.15964E-05   -0.28024E-04  5024   0.144E-02    0.789E-03
RMM:   2    -0.231949009866E+04   -0.12925E-05   -0.12721E-05  2529   0.320E-03
 271 F= -.23403491E+04 E0= -.23403491E+04  d E =-.194297E-04  mag=     5.0000
       N       E                     dE             d eps       ncg     rms          rms(c)
DAV:   1    -0.231949009692E+04    0.44539E-06   -0.51090E-03  4460   0.592E-02    0.196E-02
RMM:   2    -0.231949011476E+04   -0.17839E-04   -0.19078E-04  3764   0.112E-02    0.150E-02
RMM:   3    -0.231949011651E+04   -0.17559E-05   -0.21909E-05  2778   0.623E-03
 272 F= -.23403491E+04 E0= -.23403491E+04  d E =-.269060E-04  mag=     5.0000
       N       E                     dE             d eps       ncg     rms          rms(c)
DAV:   1    -0.231949010475E+04    0.10008E-04   -0.17712E-03  4480   0.349E-02    0.132E-02
RMM:   2    -0.231949011032E+04   -0.55719E-05   -0.67648E-05  3080   0.698E-03
 273 F= -.23403491E+04 E0= -.23403491E+04  d E =-.260860E-04  mag=     5.0000
       N       E                     dE             d eps       ncg     rms          rms(c)
DAV:   1    -0.231949010096E+04    0.37883E-05   -0.45450E-03  4444   0.540E-02    0.204E-02
RMM:   2    -0.231949012476E+04   -0.23795E-04   -0.19075E-04  3631   0.114E-02    0.333E-02
RMM:   3    -0.231949011726E+04    0.74912E-05   -0.24673E-05  2870   0.584E-03
 274 F= -.23403491E+04 E0= -.23403491E+04  d E =-.241484E-04  mag=     5.0000
       N       E                     dE             d eps       ncg     rms          rms(c)
DAV:   1    -0.231949010455E+04    0.20201E-04   -0.17765E-03  4560   0.336E-02    0.131E-02
RMM:   2    -0.231949011099E+04   -0.64358E-05   -0.65727E-05  3058   0.683E-03
 275 F= -.23403491E+04 E0= -.23403491E+04  d E =-.287015E-04  mag=     5.0000
       N       E                     dE             d eps       ncg     rms          rms(c)
DAV:   1    -0.231949011953E+04   -0.14975E-04   -0.47504E-03  4456   0.565E-02    0.204E-02
RMM:   2    -0.231949013872E+04   -0.19186E-04   -0.18892E-04  3819   0.121E-02    0.196E-02
RMM:   3    -0.231949013755E+04    0.11616E-05   -0.22661E-05  2807   0.609E-03
 276 F= -.23403492E+04 E0= -.23403492E+04  d E =-.289195E-04  mag=     5.0000
       N       E                     dE             d eps       ncg     rms          rms(c)
DAV:   1    -0.231949013429E+04    0.44274E-05   -0.13191E-03  4488   0.298E-02    0.123E-02
RMM:   2    -0.231949013911E+04   -0.48207E-05   -0.50270E-05  2998   0.636E-03
 277 F= -.23403492E+04 E0= -.23403492E+04  d E =-.317393E-04  mag=     5.0000
       N       E                     dE             d eps       ncg     rms          rms(c)
DAV:   1    -0.231949014219E+04   -0.79027E-05   -0.36220E-03  4424   0.500E-02    0.196E-02
RMM:   2    -0.231949015896E+04   -0.16764E-04   -0.15312E-04  3630   0.109E-02    0.254E-02
RMM:   3    -0.231949015591E+04    0.30410E-05   -0.19579E-05  2843   0.575E-03
 278 F= -.23403492E+04 E0= -.23403492E+04  d E =-.201257E-04  mag=     5.0000
       N       E                     dE             d eps       ncg     rms          rms(c)
DAV:   1    -0.231949015372E+04    0.52370E-05   -0.24553E-04  5008   0.132E-02    0.767E-03
RMM:   2    -0.231949015497E+04   -0.12519E-05   -0.11870E-05  2519   0.306E-03
 279 F= -.23403492E+04 E0= -.23403492E+04  d E =-.200615E-04  mag=     5.0000
       N       E                     dE             d eps       ncg     rms          rms(c)
DAV:   1    -0.231949015770E+04   -0.39838E-05   -0.38563E-03  4440   0.493E-02    0.169E-02
RMM:   2    -0.231949017258E+04   -0.14875E-04   -0.15520E-04  3532   0.980E-03    0.132E-02
RMM:   3    -0.231949017332E+04   -0.74583E-06   -0.17551E-05  2588   0.559E-03
 280 F= -.23403492E+04 E0= -.23403492E+04  d E =-.229439E-04  mag=     5.0000
       N       E                     dE             d eps       ncg     rms          rms(c)
DAV:   1    -0.231949016891E+04    0.36704E-05   -0.78499E-04  4304   0.224E-02    0.944E-03
RMM:   2    -0.231949017190E+04   -0.29920E-05   -0.33273E-05  2906   0.494E-03
 281 F= -.23403492E+04 E0= -.23403492E+04  d E =-.236164E-04  mag=     5.0000
       N       E                     dE             d eps       ncg     rms          rms(c)
DAV:   1    -0.231949017457E+04   -0.56644E-05   -0.34058E-03  4424   0.459E-02    0.173E-02
RMM:   2    -0.231949019081E+04   -0.16242E-04   -0.14469E-04  3417   0.964E-03    0.234E-02
RMM:   3    -0.231949018771E+04    0.31052E-05   -0.17062E-05  2740   0.519E-03
 282 F= -.23403492E+04 E0= -.23403492E+04  d E =-.202365E-04  mag=     5.0000
       N       E                     dE             d eps       ncg     rms          rms(c)
DAV:   1    -0.231949018298E+04    0.78277E-05   -0.14745E-03  4416   0.302E-02    0.122E-02
RMM:   2    -0.231949018917E+04   -0.61863E-05   -0.59196E-05  3054   0.637E-03
 283 F= -.23403492E+04 E0= -.23403492E+04  d E =-.246438E-04  mag=     5.0000
       N       E                     dE             d eps       ncg     rms          rms(c)
DAV:   1    -0.231949018827E+04   -0.52868E-05   -0.41791E-03  4440   0.518E-02    0.191E-02
RMM:   2    -0.231949020575E+04   -0.17476E-04   -0.16970E-04  3661   0.111E-02    0.196E-02
RMM:   3    -0.231949020426E+04    0.14832E-05   -0.19933E-05  2801   0.575E-03
 284 F= -.23403493E+04 E0= -.23403493E+04  d E =-.247414E-04  mag=     5.0000
       N       E                     dE             d eps       ncg     rms          rms(c)
DAV:   1    -0.231949019865E+04    0.70932E-05   -0.80518E-04  4472   0.228E-02    0.106E-02
RMM:   2    -0.231949020258E+04   -0.39221E-05   -0.34111E-05  2950   0.510E-03
 285 F= -.23403493E+04 E0= -.23403493E+04  d E =-.273547E-04  mag=     5.0000
       N       E                     dE             d eps       ncg     rms          rms(c)
DAV:   1    -0.231949020204E+04   -0.33865E-05   -0.49126E-03  4456   0.552E-02    0.196E-02
RMM:   2    -0.231949021929E+04   -0.17251E-04   -0.18203E-04  3668   0.112E-02    0.149E-02
RMM:   3    -0.231949022073E+04   -0.14402E-05   -0.21130E-05  2788   0.605E-03
 286 F= -.23403493E+04 E0= -.23403493E+04  d E =-.245126E-04  mag=     5.0000
       N       E                     dE             d eps       ncg     rms          rms(c)
DAV:   1    -0.231949021173E+04    0.75655E-05   -0.19249E-03  4432   0.346E-02    0.139E-02
RMM:   2    -0.231949021908E+04   -0.73518E-05   -0.73471E-05  3076   0.720E-03
 287 F= -.23403493E+04 E0= -.23403493E+04  d E =-.268737E-04  mag=     5.0000
       N       E                     dE             d eps       ncg     rms          rms(c)
DAV:   1    -0.231949022342E+04   -0.11699E-04   -0.43798E-03  4424   0.498E-02    0.201E-02
RMM:   2    -0.231949024585E+04   -0.22424E-04   -0.18339E-04  3536   0.107E-02    0.313E-02
RMM:   3    -0.231949023903E+04    0.68214E-05   -0.21934E-05  2835   0.556E-03
 288 F= -.23403493E+04 E0= -.23403493E+04  d E =-.225774E-04  mag=     5.0000
       N       E                     dE             d eps       ncg     rms          rms(c)
DAV:   1    -0.231949023303E+04    0.12817E-04   -0.32112E-03  4412   0.423E-02    0.164E-02
RMM:   2    -0.231949024514E+04   -0.12106E-04   -0.11849E-04  3249   0.855E-03    0.168E-02
RMM:   3    -0.231949024373E+04    0.14058E-05   -0.14329E-05  2825   0.460E-03
 289 F= -.23403493E+04 E0= -.23403493E+04  d E =-.295540E-04  mag=     5.0000
       N       E                     dE             d eps       ncg     rms          rms(c)
DAV:   1    -0.231949025236E+04   -0.72243E-05   -0.53449E-03  4440   0.555E-02    0.193E-02
RMM:   2    -0.231949027208E+04   -0.19722E-04   -0.20008E-04  3664   0.108E-02    0.161E-02
RMM:   3    -0.231949027264E+04   -0.55865E-06   -0.20650E-05  2729   0.574E-03
 290 F= -.23403494E+04 E0= -.23403494E+04  d E =-.309555E-04  mag=     5.0000
       N       E                     dE             d eps       ncg     rms          rms(c)
DAV:   1    -0.231949025077E+04    0.21314E-04   -0.89927E-03  4456   0.719E-02    0.255E-02
RMM:   2    -0.231949028273E+04   -0.31956E-04   -0.33677E-04  4284   0.135E-02    0.195E-02
RMM:   3    -0.231949028337E+04   -0.64228E-06   -0.32041E-05  2900   0.622E-03
 291 F= -.23403494E+04 E0= -.23403494E+04  d E =-.443096E-04  mag=     5.0000
       N       E                     dE             d eps       ncg     rms          rms(c)
DAV:   1    -0.231949027574E+04    0.69808E-05   -0.68806E-03  4456   0.623E-02    0.223E-02
RMM:   2    -0.231949030237E+04   -0.26624E-04   -0.27070E-04  3913   0.119E-02    0.197E-02
RMM:   3    -0.231949030249E+04   -0.12101E-06   -0.26737E-05  2903   0.575E-03
 292 F= -.23403494E+04 E0= -.23403494E+04  d E =-.269312E-04  mag=     5.0000
       N       E                     dE             d eps       ncg     rms          rms(c)
DAV:   1    -0.231949028632E+04    0.16051E-04   -0.42128E-03  4512   0.486E-02    0.188E-02
RMM:   2    -0.231949030334E+04   -0.17020E-04   -0.16768E-04  3444   0.941E-03    0.197E-02
RMM:   3    -0.231949030160E+04    0.17367E-05   -0.17473E-05  2857   0.481E-03
 293 F= -.23403494E+04 E0= -.23403494E+04  d E =-.321699E-04  mag=     5.0000
       N       E                     dE             d eps       ncg     rms          rms(c)
DAV:   1    -0.231949030365E+04   -0.31147E-06   -0.87831E-03  4456   0.711E-02    0.246E-02
RMM:   2    -0.231949033791E+04   -0.34264E-04   -0.33953E-04  4272   0.133E-02    0.226E-02
RMM:   3    -0.231949033685E+04    0.10617E-05   -0.32502E-05  2894   0.647E-03
 294 F= -.23403495E+04 E0= -.23403495E+04  d E =-.412621E-04  mag=     5.0000
       N       E                     dE             d eps       ncg     rms          rms(c)
DAV:   1    -0.231949031736E+04    0.20552E-04   -0.66244E-03  4456   0.616E-02    0.232E-02
RMM:   2    -0.231949034323E+04   -0.25865E-04   -0.25983E-04  3886   0.117E-02    0.225E-02
RMM:   3    -0.231949034144E+04    0.17866E-05   -0.26047E-05  2904   0.557E-03
 295 F= -.23403495E+04 E0= -.23403495E+04  d E =-.511010E-04  mag=     5.0000
       N       E                     dE             d eps       ncg     rms          rms(c)
DAV:   1    -0.231949033472E+04    0.85090E-05   -0.10035E-02  4456   0.768E-02    0.273E-02
RMM:   2    -0.231949037198E+04   -0.37259E-04   -0.37307E-04  4514   0.142E-02    0.257E-02
RMM:   3    -0.231949037011E+04    0.18626E-05   -0.35996E-05  2915   0.645E-03
 296 F= -.23403495E+04 E0= -.23403495E+04  d E =-.359672E-04  mag=     5.0000
       N       E                     dE             d eps       ncg     rms          rms(c)
DAV:   1    -0.231949035997E+04    0.12007E-04   -0.22210E-03  4528   0.363E-02    0.163E-02
RMM:   2    -0.231949036971E+04   -0.97396E-05   -0.88688E-05  3130   0.710E-03
 297 F= -.23403495E+04 E0= -.23403495E+04  d E =-.390240E-04  mag=     5.0000
       N       E                     dE             d eps       ncg     rms          rms(c)
DAV:   1    -0.231949034738E+04    0.12585E-04   -0.11101E-02  4456   0.786E-02    0.278E-02
RMM:   2    -0.231949038629E+04   -0.38903E-04   -0.40653E-04  4474   0.151E-02    0.211E-02
RMM:   3    -0.231949038842E+04   -0.21299E-05   -0.41964E-05  2908   0.713E-03
 298 F= -.23403495E+04 E0= -.23403495E+04  d E =-.385371E-04  mag=     5.0000
       N       E                     dE             d eps       ncg     rms          rms(c)
DAV:   1    -0.231949035984E+04    0.26445E-04   -0.47140E-03  4480   0.513E-02    0.207E-02
RMM:   2    -0.231949037771E+04   -0.17864E-04   -0.17232E-04  3431   0.982E-03    0.226E-02
RMM:   3    -0.231949037611E+04    0.15934E-05   -0.20463E-05  2898   0.500E-03
 299 F= -.23403495E+04 E0= -.23403495E+04  d E =-.392746E-04  mag=     5.0000
       N       E                     dE             d eps       ncg     rms          rms(c)
DAV:   1    -0.231949035837E+04    0.19336E-04   -0.10174E-02  4456   0.739E-02    0.249E-02
RMM:   2    -0.231949039232E+04   -0.33953E-04   -0.35964E-04  4242   0.132E-02    0.158E-02
RMM:   3    -0.231949039407E+04   -0.17415E-05   -0.32404E-05  2904   0.651E-03
 300 F= -.23403496E+04 E0= -.23403496E+04  d E =-.398734E-04  mag=     5.0000
       N       E                     dE             d eps       ncg     rms          rms(c)
DAV:   1    -0.231949035308E+04    0.39242E-04   -0.86482E-03  4456   0.682E-02    0.241E-02
RMM:   2    -0.231949038140E+04   -0.28322E-04   -0.31140E-04  3964   0.124E-02    0.144E-02
RMM:   3    -0.231949038328E+04   -0.18723E-05   -0.30540E-05  2925   0.617E-03
 301 F= -.23403496E+04 E0= -.23403496E+04  d E =-.493274E-04  mag=     5.0000
