       N       E                     dE             d eps       ncg     rms          rms(c)
DAV:   1     0.131499911906E+05    0.13150E+05   -0.84530E+05  4536   0.145E+03
DAV:   2    -0.100198267789E+04   -0.14152E+05   -0.13527E+05  4936   0.331E+02
DAV:   3    -0.248048476619E+04   -0.14785E+04   -0.14596E+04  5528   0.116E+02
DAV:   4    -0.252757570429E+04   -0.47091E+02   -0.46823E+02  6736   0.298E+01
DAV:   5    -0.252843754126E+04   -0.86184E+00   -0.86004E+00  6376   0.354E+00    0.170E+02
RMM:   6    -0.149285432059E+04    0.10356E+04   -0.19541E+03  4473   0.383E+01    0.726E+01
RMM:   7    -0.166029627477E+04   -0.16744E+03   -0.29216E+02  5119   0.142E+01    0.491E+01
RMM:   8    -0.171676865282E+04   -0.56472E+02   -0.55086E+01  5321   0.761E+00    0.387E+01
RMM:   9    -0.182314524533E+04   -0.10638E+03   -0.65003E+01  5158   0.789E+00    0.362E+01
RMM:  10    -0.192734428614E+04   -0.10420E+03   -0.52091E+01  5362   0.697E+00    0.223E+01
RMM:  11    -0.202748754932E+04   -0.10014E+03   -0.41370E+01  5250   0.538E+00    0.168E+01
RMM:  12    -0.209933916346E+04   -0.71852E+02   -0.28599E+01  4999   0.420E+00    0.132E+01
RMM:  13    -0.223547335648E+04   -0.13613E+03   -0.11138E+02  4473   0.767E+00    0.927E+00
RMM:  14    -0.229414138939E+04   -0.58668E+02   -0.54159E+01  4539   0.532E+00    0.106E+01
RMM:  15    -0.230221472509E+04   -0.80733E+01   -0.10371E+01  5210   0.289E+00    0.630E+00
RMM:  16    -0.231250524444E+04   -0.10291E+02   -0.83510E+00  4473   0.178E+00    0.451E+00
RMM:  17    -0.231924314510E+04   -0.67379E+01   -0.49801E+00  4629   0.158E+00    0.436E+00
RMM:  18    -0.231996025525E+04   -0.71711E+00   -0.69720E-01  5012   0.814E-01    0.302E+00
RMM:  19    -0.232117913496E+04   -0.12189E+01   -0.79827E-01  4476   0.453E-01    0.155E+00
RMM:  20    -0.232188413405E+04   -0.70500E+00   -0.75040E-01  4517   0.434E-01    0.914E-01
RMM:  21    -0.232215694175E+04   -0.27281E+00   -0.38606E-01  4618   0.308E-01    0.485E-01
RMM:  22    -0.232228106359E+04   -0.12412E+00   -0.95665E-02  4760   0.194E-01    0.349E-01
RMM:  23    -0.232239445297E+04   -0.11339E+00   -0.48835E-02  4535   0.104E-01    0.244E-01
RMM:  24    -0.232246687550E+04   -0.72423E-01   -0.18568E-02  4582   0.976E-02    0.145E-01
RMM:  25    -0.232249786551E+04   -0.30990E-01   -0.77962E-03  4745   0.599E-02    0.100E-01
RMM:  26    -0.232251527026E+04   -0.17405E-01   -0.41258E-03  4538   0.444E-02    0.582E-02
RMM:  27    -0.232252163558E+04   -0.63653E-02   -0.17994E-03  4672   0.317E-02    0.333E-02
RMM:  28    -0.232252387729E+04   -0.22417E-02   -0.62585E-04  4416   0.179E-02    0.170E-02
RMM:  29    -0.232252454411E+04   -0.66681E-03   -0.18260E-04  3926   0.102E-02    0.112E-02
RMM:  30    -0.232252472464E+04   -0.18053E-03   -0.52097E-05  3442   0.623E-03    0.544E-03
RMM:  31    -0.232252481142E+04   -0.86783E-04   -0.21118E-05  3088   0.432E-03    0.416E-03
RMM:  32    -0.232252484836E+04   -0.36930E-04   -0.87781E-06  2861   0.326E-03    0.198E-03
RMM:  33    -0.232252486502E+04   -0.16664E-04   -0.45025E-06  2740   0.242E-03    0.119E-03
RMM:  34    -0.232252487388E+04   -0.88605E-05   -0.27225E-06  2474   0.192E-03
   1 F= -.23439433E+04 E0= -.23439433E+04  d E =-.234394E+04  mag=     2.0000
       N       E                     dE             d eps       ncg     rms          rms(c)
DAV:   1    -0.232251294438E+04    0.11921E-01   -0.11023E+01  5152   0.234E+00    0.954E-01
RMM:   2    -0.232279151910E+04   -0.27857E+00   -0.28766E+00  6614   0.654E-01    0.876E-01
RMM:   3    -0.232280950855E+04   -0.17989E-01   -0.32399E-01  6226   0.265E-01    0.755E-01
RMM:   4    -0.232280763617E+04    0.18724E-02   -0.30358E-02  6025   0.542E-02    0.640E-01
RMM:   5    -0.232280483940E+04    0.27968E-02   -0.36113E-03  5511   0.242E-02    0.372E-01
RMM:   6    -0.232280347747E+04    0.13619E-02   -0.53599E-03  5759   0.320E-02    0.256E-01
RMM:   7    -0.232280300379E+04    0.47368E-03   -0.23415E-03  5441   0.229E-02    0.172E-01
RMM:   8    -0.232280265504E+04    0.34875E-03   -0.55346E-04  4533   0.122E-02    0.668E-02
RMM:   9    -0.232280259666E+04    0.58380E-04   -0.80497E-05  3032   0.677E-03    0.500E-02
RMM:  10    -0.232280255970E+04    0.36963E-04   -0.77415E-05  2940   0.558E-03    0.152E-02
RMM:  11    -0.232280255666E+04    0.30400E-05   -0.25611E-05  2954   0.387E-03
   2 F= -.23442113E+04 E0= -.23442113E+04  d E =-.267966E+00  mag=     2.0000
       N       E                     dE             d eps       ncg     rms          rms(c)
DAV:   1    -0.232174570565E+04    0.10569E+01   -0.47591E+01  4592   0.484E+00    0.196E+00
RMM:   2    -0.232302151902E+04   -0.12758E+01   -0.13200E+01  6587   0.145E+00    0.183E+00
RMM:   3    -0.232307525474E+04   -0.53736E-01   -0.13856E+00  5786   0.598E-01    0.146E+00
RMM:   4    -0.232307397207E+04    0.12827E-02   -0.13626E-01  6321   0.114E-01    0.138E+00
RMM:   5    -0.232306034228E+04    0.13630E-01   -0.14594E-02  6092   0.491E-02    0.780E-01
RMM:   6    -0.232305304037E+04    0.73019E-02   -0.31421E-02  5878   0.736E-02    0.493E-01
RMM:   7    -0.232305153687E+04    0.15035E-02   -0.64376E-03  5586   0.396E-02    0.297E-01
RMM:   8    -0.232305088253E+04    0.65434E-03   -0.23398E-03  5496   0.219E-02    0.210E-01
RMM:   9    -0.232305041216E+04    0.47038E-03   -0.45700E-04  4417   0.123E-02    0.141E-01
RMM:  10    -0.232305013605E+04    0.27610E-03   -0.48400E-04  3670   0.116E-02    0.402E-02
RMM:  11    -0.232305011570E+04    0.20356E-04   -0.12720E-04  3075   0.656E-03    0.113E-02
RMM:  12    -0.232305011729E+04   -0.15909E-05   -0.14820E-05  2943   0.427E-03
   3 F= -.23444540E+04 E0= -.23444540E+04  d E =-.510638E+00  mag=     2.0000
       N       E                     dE             d eps       ncg     rms          rms(c)
DAV:   1    -0.232303313027E+04    0.16985E-01   -0.70738E-01  4816   0.598E-01    0.249E-01
RMM:   2    -0.232305197525E+04   -0.18845E-01   -0.18951E-01  6492   0.166E-01    0.351E-01
RMM:   3    -0.232305308988E+04   -0.11146E-02   -0.21314E-02  5262   0.787E-02    0.282E-01
RMM:   4    -0.232305251365E+04    0.57622E-03   -0.19762E-03  3705   0.156E-02    0.127E-01
RMM:   5    -0.232305244290E+04    0.70757E-04   -0.26601E-04  3071   0.842E-03    0.111E-01
RMM:   6    -0.232305226156E+04    0.18134E-03   -0.27210E-04  3764   0.855E-03    0.406E-02
RMM:   7    -0.232305225188E+04    0.96805E-05   -0.80743E-05  3179   0.638E-03
   4 F= -.23444564E+04 E0= -.23444564E+04  d E =-.513070E+00  mag=     2.0000
       N       E                     dE             d eps       ncg     rms          rms(c)
DAV:   1    -0.232296681420E+04    0.85447E-01   -0.12940E+01  4576   0.350E+00    0.136E+00
RMM:   2    -0.232306081299E+04   -0.93999E-01   -0.10691E+00  5967   0.713E-01    0.904E-01
RMM:   3    -0.232308445340E+04   -0.23640E-01   -0.13131E-01  5842   0.319E-01    0.172E+00
RMM:   4    -0.232305671381E+04    0.27740E-01   -0.23229E-02  6126   0.904E-02    0.571E-01
RMM:   5    -0.232305484451E+04    0.18693E-02   -0.10843E-02  5670   0.633E-02    0.466E-01
RMM:   6    -0.232305125230E+04    0.35922E-02   -0.57593E-03  5629   0.501E-02    0.149E-01
RMM:   7    -0.232305121189E+04    0.40415E-04   -0.13657E-03  5300   0.276E-02    0.156E-01
RMM:   8    -0.232305083141E+04    0.38048E-03   -0.49039E-04  4766   0.121E-02    0.510E-02
RMM:   9    -0.232305076714E+04    0.64261E-04   -0.14001E-04  4092   0.855E-03    0.238E-02
RMM:  10    -0.232305076687E+04    0.27104E-06   -0.71260E-05  3913   0.719E-03
   5 F= -.23444560E+04 E0= -.23444560E+04  d E =0.355018E-03  mag=     2.0000
       N       E                     dE             d eps       ncg     rms          rms(c)
DAV:   1    -0.232306934879E+04   -0.18582E-01   -0.32633E+00  4608   0.176E+00    0.690E-01
RMM:   2    -0.232309449314E+04   -0.25144E-01   -0.27470E-01  6007   0.363E-01    0.518E-01
RMM:   3    -0.232309996779E+04   -0.54746E-02   -0.33800E-02  5897   0.158E-01    0.887E-01
RMM:   4    -0.232309265314E+04    0.73146E-02   -0.61607E-03  5923   0.466E-02    0.299E-01
RMM:   5    -0.232309197849E+04    0.67465E-03   -0.26497E-03  5617   0.327E-02    0.216E-01
RMM:   6    -0.232309121093E+04    0.76757E-03   -0.14448E-03  5289   0.252E-02    0.675E-02
RMM:   7    -0.232309119256E+04    0.18369E-04   -0.33612E-04  4186   0.151E-02    0.716E-02
RMM:   8    -0.232309111796E+04    0.74603E-04   -0.12157E-04  3225   0.667E-03    0.311E-02
RMM:   9    -0.232309109130E+04    0.26657E-04   -0.27175E-05  3010   0.478E-03    0.116E-02
RMM:  10    -0.232309108138E+04    0.99211E-05   -0.20606E-05  2986   0.440E-03
   6 F= -.23444958E+04 E0= -.23444958E+04  d E =-.393799E-01  mag=     2.0000
       N       E                     dE             d eps       ncg     rms          rms(c)
DAV:   1    -0.232305826472E+04    0.32827E-01   -0.25772E+00  4560   0.145E+00    0.523E-01
RMM:   2    -0.232310746740E+04   -0.49203E-01   -0.54097E-01  6450   0.380E-01    0.392E-01
RMM:   3    -0.232311346469E+04   -0.59973E-02   -0.65776E-02  6069   0.147E-01    0.525E-01
RMM:   4    -0.232311172489E+04    0.17398E-02   -0.64021E-03  5692   0.344E-02    0.256E-01
RMM:   5    -0.232311148438E+04    0.24051E-03   -0.14134E-03  5533   0.196E-02    0.217E-01
RMM:   6    -0.232311094362E+04    0.54076E-03   -0.12073E-03  5207   0.202E-02    0.104E-01
RMM:   7    -0.232311090475E+04    0.38870E-04   -0.53472E-04  4229   0.140E-02    0.848E-02
RMM:   8    -0.232311079971E+04    0.10505E-03   -0.13575E-04  3098   0.765E-03    0.218E-02
RMM:   9    -0.232311079192E+04    0.77908E-05   -0.17805E-05  2964   0.448E-03
   7 F= -.23445166E+04 E0= -.23445166E+04  d E =-.207979E-01  mag=     2.0000
       N       E                     dE             d eps       ncg     rms          rms(c)
DAV:   1    -0.232311068997E+04    0.10974E-03   -0.42308E-03  5492   0.594E-02    0.242E-02
RMM:   2    -0.232311078826E+04   -0.98292E-04   -0.93121E-04  5433   0.164E-02    0.423E-02
RMM:   3    -0.232311078473E+04    0.35275E-05   -0.11653E-04  2897   0.692E-03    0.251E-02
RMM:   4    -0.232311078114E+04    0.35908E-05   -0.14881E-05  2904   0.242E-03
   8 F= -.23445166E+04 E0= -.23445166E+04  d E =-.208306E-01  mag=     2.0000
       N       E                     dE             d eps       ncg     rms          rms(c)
DAV:   1    -0.232307968408E+04    0.31101E-01   -0.20235E+00  4560   0.127E+00    0.472E-01
RMM:   2    -0.232312484709E+04   -0.45163E-01   -0.48728E-01  6533   0.328E-01    0.319E-01
RMM:   3    -0.232312910156E+04   -0.42545E-02   -0.56075E-02  6148   0.128E-01    0.286E-01
RMM:   4    -0.232312841138E+04    0.69018E-03   -0.51546E-03  5067   0.277E-02    0.179E-01
RMM:   5    -0.232312849588E+04   -0.84501E-04   -0.78728E-04  4279   0.134E-02    0.210E-01
RMM:   6    -0.232312809678E+04    0.39910E-03   -0.58710E-04  4633   0.133E-02    0.880E-02
RMM:   7    -0.232312806458E+04    0.32202E-04   -0.31512E-04  3758   0.103E-02    0.662E-02
RMM:   8    -0.232312800284E+04    0.61731E-04   -0.80312E-05  3044   0.679E-03    0.158E-02
RMM:   9    -0.232312799803E+04    0.48157E-05   -0.13207E-05  2930   0.433E-03
   9 F= -.23445346E+04 E0= -.23445346E+04  d E =-.180193E-01  mag=     2.0000
       N       E                     dE             d eps       ncg     rms          rms(c)
DAV:   1    -0.232306262561E+04    0.65377E-01   -0.30015E+00  4528   0.154E+00    0.576E-01
RMM:   2    -0.232312955597E+04   -0.66930E-01   -0.72216E-01  6525   0.401E-01    0.393E-01
RMM:   3    -0.232313576385E+04   -0.62079E-02   -0.83201E-02  6178   0.157E-01    0.342E-01
RMM:   4    -0.232313469740E+04    0.10665E-02   -0.75865E-03  5516   0.338E-02    0.206E-01
RMM:   5    -0.232313489717E+04   -0.19978E-03   -0.11732E-03  4858   0.160E-02    0.263E-01
RMM:   6    -0.232313427033E+04    0.62685E-03   -0.81418E-04  4916   0.151E-02    0.106E-01
RMM:   7    -0.232313423160E+04    0.38728E-04   -0.45057E-04  4248   0.120E-02    0.817E-02
RMM:   8    -0.232313413540E+04    0.96205E-04   -0.12203E-04  3334   0.752E-03    0.197E-02
RMM:   9    -0.232313412748E+04    0.79153E-05   -0.18595E-05  2950   0.486E-03
  10 F= -.23445417E+04 E0= -.23445417E+04  d E =-.251341E-01  mag=     2.0000
       N       E                     dE             d eps       ncg     rms          rms(c)
DAV:   1    -0.232309600136E+04    0.38134E-01   -0.21963E+00  4544   0.129E+00    0.468E-01
RMM:   2    -0.232314553153E+04   -0.49530E-01   -0.53362E-01  6578   0.333E-01    0.280E-01
RMM:   3    -0.232315108009E+04   -0.55486E-02   -0.54854E-02  6140   0.122E-01    0.434E-01
RMM:   4    -0.232314983728E+04    0.12428E-02   -0.59562E-03  5213   0.285E-02    0.212E-01
RMM:   5    -0.232314963035E+04    0.20694E-03   -0.87523E-04  4374   0.135E-02    0.159E-01
RMM:   6    -0.232314934963E+04    0.28072E-03   -0.59130E-04  4662   0.144E-02    0.635E-02
RMM:   7    -0.232314936682E+04   -0.17197E-04   -0.22176E-04  3603   0.989E-03    0.614E-02
RMM:   8    -0.232314931627E+04    0.50554E-04   -0.82940E-05  2931   0.668E-03    0.228E-02
RMM:   9    -0.232314930929E+04    0.69757E-05   -0.11185E-05  2915   0.375E-03
  11 F= -.23445574E+04 E0= -.23445574E+04  d E =-.157041E-01  mag=     2.0000
       N       E                     dE             d eps       ncg     rms          rms(c)
DAV:   1    -0.232308025371E+04    0.69063E-01   -0.30982E+00  4528   0.153E+00    0.555E-01
RMM:   2    -0.232314989602E+04   -0.69642E-01   -0.75018E-01  6582   0.393E-01    0.330E-01
RMM:   3    -0.232315771203E+04   -0.78160E-02   -0.77489E-02  6166   0.144E-01    0.510E-01
RMM:   4    -0.232315599441E+04    0.17176E-02   -0.83431E-03  5651   0.336E-02    0.250E-01
RMM:   5    -0.232315570410E+04    0.29031E-03   -0.12131E-03  4770   0.154E-02    0.188E-01
RMM:   6    -0.232315530825E+04    0.39585E-03   -0.82691E-04  4957   0.166E-02    0.770E-02
RMM:   7    -0.232315531609E+04   -0.78423E-05   -0.31094E-04  4174   0.111E-02    0.697E-02
RMM:   8    -0.232315525272E+04    0.63374E-04   -0.11589E-04  2953   0.720E-03    0.297E-02
RMM:   9    -0.232315523962E+04    0.13098E-04   -0.15685E-05  2931   0.430E-03    0.113E-02
RMM:  10    -0.232315523595E+04    0.36764E-05   -0.11018E-05  2908   0.304E-03
  12 F= -.23445640E+04 E0= -.23445640E+04  d E =-.222604E-01  mag=     2.0000
       N       E                     dE             d eps       ncg     rms          rms(c)
DAV:   1    -0.232314056217E+04    0.14677E-01   -0.11597E+00  4560   0.958E-01    0.367E-01
RMM:   2    -0.232316422654E+04   -0.23664E-01   -0.24490E-01  6487   0.242E-01    0.419E-01
RMM:   3    -0.232316717281E+04   -0.29463E-02   -0.32280E-02  6070   0.998E-02    0.501E-01
RMM:   4    -0.232316497072E+04    0.22021E-02   -0.27193E-03  5048   0.238E-02    0.118E-01
RMM:   5    -0.232316495322E+04    0.17505E-04   -0.67537E-04  4301   0.128E-02    0.127E-01
RMM:   6    -0.232316472682E+04    0.22640E-03   -0.40600E-04  4498   0.111E-02    0.465E-02
RMM:   7    -0.232316473344E+04   -0.66193E-05   -0.12327E-04  3035   0.845E-03    0.472E-02
RMM:   8    -0.232316469907E+04    0.34363E-04   -0.36132E-05  2938   0.507E-03    0.107E-02
RMM:   9    -0.232316469692E+04    0.21548E-05   -0.77282E-06  2913   0.312E-03
  13 F= -.23445741E+04 E0= -.23445741E+04  d E =-.100879E-01  mag=     2.0000
       N       E                     dE             d eps       ncg     rms          rms(c)
DAV:   1    -0.232314962203E+04    0.15077E-01   -0.82528E-01  4560   0.812E-01    0.309E-01
RMM:   2    -0.232316650088E+04   -0.16879E-01   -0.17429E-01  6490   0.204E-01    0.357E-01
RMM:   3    -0.232316850141E+04   -0.20005E-02   -0.22921E-02  6014   0.847E-02    0.413E-01
RMM:   4    -0.232316699272E+04    0.15087E-02   -0.19293E-03  4520   0.201E-02    0.995E-02
RMM:   5    -0.232316698276E+04    0.99618E-05   -0.47664E-04  3794   0.111E-02    0.109E-01
RMM:   6    -0.232316681518E+04    0.16758E-03   -0.29540E-04  4271   0.101E-02    0.389E-02
RMM:   7    -0.232316682075E+04   -0.55705E-05   -0.89949E-05  3013   0.739E-03
  14 F= -.23445767E+04 E0= -.23445767E+04  d E =-.127469E-01  mag=     2.0000
       N       E                     dE             d eps       ncg     rms          rms(c)
DAV:   1    -0.232315257533E+04    0.14240E-01   -0.10179E+00  4528   0.838E-01    0.319E-01
RMM:   2    -0.232317242146E+04   -0.19846E-01   -0.21274E-01  6576   0.216E-01    0.279E-01
RMM:   3    -0.232317525006E+04   -0.28286E-02   -0.27005E-02  5857   0.897E-02    0.419E-01
RMM:   4    -0.232317380360E+04    0.14465E-02   -0.23981E-03  4259   0.208E-02    0.123E-01
RMM:   5    -0.232317378481E+04    0.18789E-04   -0.50721E-04  3510   0.111E-02    0.126E-01
RMM:   6    -0.232317356037E+04    0.22444E-03   -0.31117E-04  4042   0.102E-02    0.471E-02
RMM:   7    -0.232317355320E+04    0.71686E-05   -0.13603E-04  3212   0.777E-03    0.314E-02
RMM:   8    -0.232317354163E+04    0.11572E-04   -0.34629E-05  2927   0.542E-03    0.139E-02
RMM:   9    -0.232317353893E+04    0.27070E-05   -0.65117E-06  2864   0.248E-03
  15 F= -.23445842E+04 E0= -.23445842E+04  d E =-.750530E-02  mag=     2.0000
       N       E                     dE             d eps       ncg     rms          rms(c)
DAV:   1    -0.232316580197E+04    0.77397E-02   -0.41909E-01  4592   0.535E-01    0.204E-01
RMM:   2    -0.232317400099E+04   -0.81990E-02   -0.87325E-02  6562   0.138E-01    0.189E-01
RMM:   3    -0.232317511792E+04   -0.11169E-02   -0.11028E-02  5330   0.568E-02    0.270E-01
RMM:   4    -0.232317451037E+04    0.60755E-03   -0.99326E-04  3326   0.136E-02    0.775E-02
RMM:   5    -0.232317450140E+04    0.89608E-05   -0.20864E-04  3034   0.782E-03    0.811E-02
RMM:   6    -0.232317440741E+04    0.93992E-04   -0.13158E-04  3176   0.709E-03    0.303E-02
RMM:   7    -0.232317440406E+04    0.33485E-05   -0.62546E-05  3042   0.604E-03
  16 F= -.23445856E+04 E0= -.23445856E+04  d E =-.887905E-02  mag=     2.0000
       N       E                     dE             d eps       ncg     rms          rms(c)
DAV:   1    -0.232316151023E+04    0.12897E-01   -0.86930E-01  4528   0.835E-01    0.302E-01
RMM:   2    -0.232317825509E+04   -0.16745E-01   -0.18206E-01  6532   0.215E-01    0.147E-01
RMM:   3    -0.232317984382E+04   -0.15887E-02   -0.20171E-02  5788   0.834E-02    0.154E-01
RMM:   4    -0.232317990264E+04   -0.58817E-04   -0.18832E-03  3613   0.179E-02    0.144E-01
RMM:   5    -0.232317978449E+04    0.11815E-03   -0.31078E-04  3462   0.991E-03    0.102E-01
RMM:   6    -0.232317967168E+04    0.11281E-03   -0.22287E-04  3717   0.923E-03    0.374E-02
RMM:   7    -0.232317965939E+04    0.12292E-04   -0.63545E-05  3059   0.663E-03    0.155E-02
RMM:   8    -0.232317966049E+04   -0.11074E-05   -0.15996E-05  2917   0.464E-03
  17 F= -.23445918E+04 E0= -.23445918E+04  d E =-.617881E-02  mag=     2.0000
       N       E                     dE             d eps       ncg     rms          rms(c)
DAV:   1    -0.232314787217E+04    0.31787E-01   -0.15696E+00  4528   0.112E+00    0.404E-01
RMM:   2    -0.232317805646E+04   -0.30184E-01   -0.32823E-01  6474   0.288E-01    0.192E-01
RMM:   3    -0.232318080826E+04   -0.27518E-02   -0.36046E-02  5781   0.111E-01    0.186E-01
RMM:   4    -0.232318109146E+04   -0.28320E-03   -0.34103E-03  4386   0.235E-02    0.208E-01
RMM:   5    -0.232318075747E+04    0.33399E-03   -0.53529E-04  4362   0.125E-02    0.116E-01
RMM:   6    -0.232318062133E+04    0.13614E-03   -0.35790E-04  4065   0.110E-02    0.554E-02
RMM:   7    -0.232318058761E+04    0.33722E-04   -0.10855E-04  3258   0.772E-03    0.172E-02
RMM:   8    -0.232318058595E+04    0.16566E-05   -0.16762E-05  2946   0.522E-03
  18 F= -.23445940E+04 E0= -.23445940E+04  d E =-.835035E-02  mag=     2.0000
       N       E                     dE             d eps       ncg     rms          rms(c)
DAV:   1    -0.232317367086E+04    0.69168E-02   -0.45034E-01  4624   0.561E-01    0.196E-01
RMM:   2    -0.232318300299E+04   -0.93321E-02   -0.10082E-01  6604   0.146E-01    0.112E-01
RMM:   3    -0.232318400180E+04   -0.99882E-03   -0.11440E-02  5196   0.553E-02    0.140E-01
RMM:   4    -0.232318394757E+04    0.54237E-04   -0.10192E-03  3058   0.117E-02    0.908E-02
RMM:   5    -0.232318388744E+04    0.60124E-04   -0.14226E-04  3042   0.670E-03    0.521E-02
RMM:   6    -0.232318386482E+04    0.22626E-04   -0.95062E-05  3020   0.581E-03    0.324E-02
RMM:   7    -0.232318385383E+04    0.10993E-04   -0.38812E-05  3022   0.482E-03    0.107E-02
RMM:   8    -0.232318385373E+04    0.10028E-06   -0.67892E-06  2870   0.316E-03
  19 F= -.23445978E+04 E0= -.23445978E+04  d E =-.383923E-02  mag=     2.0000
       N       E                     dE             d eps       ncg     rms          rms(c)
DAV:   1    -0.232309784676E+04    0.86007E-01   -0.40561E+00  4504   0.168E+00    0.589E-01
RMM:   2    -0.232318217332E+04   -0.84327E-01   -0.90554E-01  6629   0.435E-01    0.379E-01
RMM:   3    -0.232319191985E+04   -0.97465E-02   -0.10426E-01  6030   0.167E-01    0.534E-01
RMM:   4    -0.232319013877E+04    0.17811E-02   -0.92450E-03  5231   0.360E-02    0.258E-01
RMM:   5    -0.232318986792E+04    0.27085E-03   -0.13425E-03  4961   0.166E-02    0.194E-01
RMM:   6    -0.232318942482E+04    0.44310E-03   -0.85283E-04  4619   0.142E-02    0.961E-02
RMM:   7    -0.232318936251E+04    0.62307E-04   -0.40474E-04  4531   0.108E-02    0.506E-02
RMM:   8    -0.232318933269E+04    0.29823E-04   -0.90188E-05  2958   0.729E-03    0.281E-02
RMM:   9    -0.232318932054E+04    0.12148E-04   -0.14160E-05  2914   0.331E-03    0.131E-02
RMM:  10    -0.232318931866E+04    0.18810E-05   -0.12445E-05  2933   0.250E-03
  20 F= -.23446050E+04 E0= -.23446050E+04  d E =-.110349E-01  mag=     2.0000
       N       E                     dE             d eps       ncg     rms          rms(c)
DAV:   1    -0.232281215354E+04    0.37717E+00   -0.16239E+01  4504   0.336E+00    0.119E+00
RMM:   2    -0.232315504196E+04   -0.34289E+00   -0.36537E+00  6635   0.866E-01    0.912E-01
RMM:   3    -0.232319692417E+04   -0.41882E-01   -0.43337E-01  6191   0.338E-01    0.131E+00
RMM:   4    -0.232318394879E+04    0.12975E-01   -0.37466E-02  6227   0.753E-02    0.515E-01
RMM:   5    -0.232318275941E+04    0.11894E-02   -0.54575E-03  5698   0.311E-02    0.387E-01
RMM:   6    -0.232318112366E+04    0.16357E-02   -0.34430E-03  5710   0.271E-02    0.215E-01
RMM:   7    -0.232318061321E+04    0.51045E-03   -0.19222E-03  5222   0.212E-02    0.644E-02
RMM:   8    -0.232318061270E+04    0.50840E-06   -0.25268E-04  3429   0.134E-02    0.724E-02
RMM:   9    -0.232318055264E+04    0.60059E-04   -0.91055E-05  3025   0.621E-03    0.360E-02
RMM:  10    -0.232318053598E+04    0.16664E-04   -0.49227E-05  2939   0.468E-03    0.161E-02
RMM:  11    -0.232318053408E+04    0.18969E-05   -0.16391E-05  2938   0.333E-03
  21 F= -.23445998E+04 E0= -.23445998E+04  d E =-.577952E-02  mag=     2.0000
       N       E                     dE             d eps       ncg     rms          rms(c)
DAV:   1    -0.232300907438E+04    0.17146E+00   -0.79723E+00  4504   0.234E+00    0.822E-01
RMM:   2    -0.232317421462E+04   -0.16514E+00   -0.17858E+00  6636   0.626E-01    0.444E-01
RMM:   3    -0.232319045297E+04   -0.16238E-01   -0.21365E-01  5962   0.237E-01    0.348E-01
RMM:   4    -0.232319059212E+04   -0.13914E-03   -0.17497E-02  5606   0.483E-02    0.262E-01
RMM:   5    -0.232319021623E+04    0.37588E-03   -0.21788E-03  5167   0.219E-02    0.232E-01
RMM:   6    -0.232319001864E+04    0.19759E-03   -0.15628E-03  5379   0.186E-02    0.244E-01
RMM:   7    -0.232318967261E+04    0.34603E-03   -0.76971E-04  4139   0.129E-02    0.131E-01
RMM:   8    -0.232318956185E+04    0.11076E-03   -0.27103E-04  3218   0.907E-03    0.684E-02
RMM:   9    -0.232318951709E+04    0.44766E-04   -0.11447E-04  2950   0.699E-03    0.431E-02
RMM:  10    -0.232318948688E+04    0.30203E-04   -0.38459E-05  2915   0.440E-03    0.135E-02
RMM:  11    -0.232318948569E+04    0.11900E-05   -0.16156E-05  2916   0.286E-03
  22 F= -.23446062E+04 E0= -.23446062E+04  d E =-.122485E-01  mag=     2.0000
       N       E                     dE             d eps       ncg     rms          rms(c)
DAV:   1    -0.232318600569E+04    0.34812E-02   -0.44605E-01  4528   0.624E-01    0.224E-01
RMM:   2    -0.232319435140E+04   -0.83457E-02   -0.89575E-02  6351   0.154E-01    0.132E-01
RMM:   3    -0.232319511108E+04   -0.75968E-03   -0.96611E-03  5854   0.620E-02    0.158E-01
RMM:   4    -0.232319498834E+04    0.12274E-03   -0.96782E-04  3393   0.140E-02    0.115E-01
RMM:   5    -0.232319490764E+04    0.80695E-04   -0.20947E-04  3159   0.858E-03    0.805E-02
RMM:   6    -0.232319483298E+04    0.74663E-04   -0.19349E-04  3945   0.976E-03    0.247E-02
RMM:   7    -0.232319482858E+04    0.44047E-05   -0.36568E-05  2993   0.645E-03
  23 F= -.23446118E+04 E0= -.23446118E+04  d E =-.557384E-02  mag=     2.0000
       N       E                     dE             d eps       ncg     rms          rms(c)
DAV:   1    -0.232318199071E+04    0.12842E-01   -0.76853E-01  4528   0.818E-01    0.296E-01
RMM:   2    -0.232319638677E+04   -0.14396E-01   -0.15490E-01  6339   0.202E-01    0.175E-01
RMM:   3    -0.232319770667E+04   -0.13199E-02   -0.16739E-02  5950   0.830E-02    0.205E-01
RMM:   4    -0.232319749028E+04    0.21639E-03   -0.16744E-03  4048   0.184E-02    0.151E-01
RMM:   5    -0.232319736325E+04    0.12703E-03   -0.36618E-04  3606   0.106E-02    0.112E-01
RMM:   6    -0.232319724972E+04    0.11353E-03   -0.31476E-04  4396   0.117E-02    0.523E-02
RMM:   7    -0.232319724602E+04    0.37031E-05   -0.12935E-04  3024   0.884E-03    0.474E-02
RMM:   8    -0.232319721231E+04    0.33706E-04   -0.31609E-05  2927   0.509E-03    0.936E-03
RMM:   9    -0.232319720971E+04    0.26034E-05   -0.61978E-06  2890   0.316E-03
  24 F= -.23446145E+04 E0= -.23446145E+04  d E =-.826006E-02  mag=     2.0000
       N       E                     dE             d eps       ncg     rms          rms(c)
DAV:   1    -0.232319499669E+04    0.22156E-02   -0.29522E-01  4576   0.506E-01    0.180E-01
RMM:   2    -0.232320003005E+04   -0.50334E-02   -0.52634E-02  6381   0.120E-01    0.147E-01
RMM:   3    -0.232320050567E+04   -0.47561E-03   -0.58990E-03  5547   0.491E-02    0.204E-01
RMM:   4    -0.232320019230E+04    0.31337E-03   -0.66267E-04  3144   0.119E-02    0.921E-02
RMM:   5    -0.232320010778E+04    0.84514E-04   -0.15277E-04  3047   0.761E-03    0.513E-02
RMM:   6    -0.232320007327E+04    0.34510E-04   -0.11312E-04  3768   0.813E-03    0.211E-02
RMM:   7    -0.232320008015E+04   -0.68799E-05   -0.41702E-05  2955   0.628E-03
  25 F= -.23446176E+04 E0= -.23446176E+04  d E =-.308178E-02  mag=     2.0000
       N       E                     dE             d eps       ncg     rms          rms(c)
DAV:   1    -0.232319139281E+04    0.86805E-02   -0.56740E-01  4528   0.703E-01    0.250E-01
RMM:   2    -0.232320108666E+04   -0.96939E-02   -0.10156E-01  6365   0.167E-01    0.206E-01
RMM:   3    -0.232320202740E+04   -0.94073E-03   -0.11451E-02  5951   0.689E-02    0.288E-01
RMM:   4    -0.232320139763E+04    0.62977E-03   -0.12879E-03  3778   0.162E-02    0.127E-01
RMM:   5    -0.232320123818E+04    0.15945E-03   -0.29784E-04  3388   0.993E-03    0.717E-02
RMM:   6    -0.232320117516E+04    0.63021E-04   -0.20471E-04  4149   0.105E-02    0.350E-02
RMM:   7    -0.232320118342E+04   -0.82629E-05   -0.88961E-05  2985   0.834E-03
  26 F= -.23446190E+04 E0= -.23446190E+04  d E =-.448215E-02  mag=     2.0000
       N       E                     dE             d eps       ncg     rms          rms(c)
DAV:   1    -0.232319931294E+04    0.18622E-02   -0.24350E-01  4560   0.425E-01    0.136E-01
RMM:   2    -0.232320298575E+04   -0.36728E-02   -0.39021E-02  6531   0.999E-02    0.974E-02
RMM:   3    -0.232320326871E+04   -0.28296E-03   -0.41957E-03  4564   0.378E-02    0.977E-02
RMM:   4    -0.232320322677E+04    0.41936E-04   -0.42883E-04  3068   0.933E-03    0.768E-02
RMM:   5    -0.232320318108E+04    0.45696E-04   -0.65692E-05  2956   0.462E-03    0.446E-02
RMM:   6    -0.232320316219E+04    0.18889E-04   -0.51863E-05  2958   0.466E-03    0.250E-02
RMM:   7    -0.232320316413E+04   -0.19447E-05   -0.42034E-05  2917   0.464E-03
  27 F= -.23446213E+04 E0= -.23446213E+04  d E =-.228763E-02  mag=     2.0000
       N       E                     dE             d eps       ncg     rms          rms(c)
DAV:   1    -0.232317833047E+04    0.24832E-01   -0.16746E+00  4516   0.111E+00    0.352E-01
RMM:   2    -0.232320357436E+04   -0.25244E-01   -0.26684E-01  6582   0.257E-01    0.258E-01
RMM:   3    -0.232320544731E+04   -0.18730E-02   -0.28506E-02  6149   0.968E-02    0.259E-01
RMM:   4    -0.232320513987E+04    0.30744E-03   -0.29066E-03  4428   0.216E-02    0.200E-01
RMM:   5    -0.232320481899E+04    0.32088E-03   -0.44491E-04  3364   0.100E-02    0.115E-01
RMM:   6    -0.232320466371E+04    0.15528E-03   -0.38915E-04  4226   0.121E-02    0.558E-02
RMM:   7    -0.232320468373E+04   -0.20022E-04   -0.24452E-04  3457   0.102E-02    0.636E-02
RMM:   8    -0.232320462800E+04    0.55733E-04   -0.59580E-05  3019   0.591E-03    0.134E-02
RMM:   9    -0.232320462491E+04    0.30880E-05   -0.76885E-06  2906   0.340E-03
  28 F= -.23446235E+04 E0= -.23446235E+04  d E =-.456492E-02  mag=     2.0000
       N       E                     dE             d eps       ncg     rms          rms(c)
DAV:   1    -0.232320192578E+04    0.27022E-02   -0.39480E-01  4576   0.546E-01    0.171E-01
RMM:   2    -0.232320642021E+04   -0.44944E-02   -0.47300E-02  6300   0.116E-01    0.139E-01
RMM:   3    -0.232320673319E+04   -0.31299E-03   -0.49715E-03  5113   0.461E-02    0.137E-01
RMM:   4    -0.232320663457E+04    0.98620E-04   -0.55858E-04  3183   0.112E-02    0.967E-02
RMM:   5    -0.232320656503E+04    0.69544E-04   -0.12348E-04  3018   0.722E-03    0.530E-02
RMM:   6    -0.232320652291E+04    0.42122E-04   -0.11755E-04  3521   0.751E-03    0.225E-02
RMM:   7    -0.232320652808E+04   -0.51677E-05   -0.37218E-05  2933   0.582E-03
  29 F= -.23446259E+04 E0= -.23446259E+04  d E =-.238254E-02  mag=     2.0000
       N       E                     dE             d eps       ncg     rms          rms(c)
DAV:   1    -0.232320354986E+04    0.29731E-02   -0.26574E-01  4560   0.448E-01    0.141E-01
RMM:   2    -0.232320655169E+04   -0.30018E-02   -0.31948E-02  6351   0.961E-02    0.101E-01
RMM:   3    -0.232320676695E+04   -0.21526E-03   -0.33892E-03  4519   0.386E-02    0.926E-02
RMM:   4    -0.232320671595E+04    0.51005E-04   -0.35156E-04  3023   0.948E-03    0.709E-02
RMM:   5    -0.232320669477E+04    0.21182E-04   -0.78973E-05  2942   0.572E-03    0.512E-02
RMM:   6    -0.232320666482E+04    0.29950E-04   -0.72118E-05  3074   0.586E-03    0.273E-02
RMM:   7    -0.232320666180E+04    0.30183E-05   -0.32191E-05  2917   0.502E-03
  30 F= -.23446264E+04 E0= -.23446264E+04  d E =-.291286E-02  mag=     2.0000
       N       E                     dE             d eps       ncg     rms          rms(c)
DAV:   1    -0.232320613509E+04    0.52973E-03   -0.12522E-01  4592   0.319E-01    0.103E-01
RMM:   2    -0.232320786249E+04   -0.17274E-02   -0.16718E-02  6366   0.702E-02    0.154E-01
RMM:   3    -0.232320786412E+04   -0.16270E-05   -0.19311E-03  3976   0.289E-02    0.104E-01
RMM:   4    -0.232320776520E+04    0.98924E-04   -0.18359E-04  2998   0.812E-03    0.329E-02
RMM:   5    -0.232320776082E+04    0.43774E-05   -0.44184E-05  2968   0.492E-03
  31 F= -.23446277E+04 E0= -.23446277E+04  d E =-.128986E-02  mag=     2.0000
       N       E                     dE             d eps       ncg     rms          rms(c)
DAV:   1    -0.232320240202E+04    0.53632E-02   -0.45588E-01  4528   0.609E-01    0.196E-01
RMM:   2    -0.232320876807E+04   -0.63660E-02   -0.60668E-02  6359   0.132E-01    0.307E-01
RMM:   3    -0.232320863732E+04    0.13075E-03   -0.70691E-03  5751   0.547E-02    0.190E-01
RMM:   4    -0.232320831629E+04    0.32103E-03   -0.67952E-04  3687   0.132E-02    0.689E-02
RMM:   5    -0.232320830087E+04    0.15424E-04   -0.16429E-04  3097   0.862E-03    0.636E-02
RMM:   6    -0.232320824462E+04    0.56251E-04   -0.14620E-04  3780   0.870E-03    0.311E-02
RMM:   7    -0.232320824175E+04    0.28692E-05   -0.44894E-05  2962   0.647E-03
  32 F= -.23446286E+04 E0= -.23446286E+04  d E =-.213644E-02  mag=     2.0000
       N       E                     dE             d eps       ncg     rms          rms(c)
DAV:   1    -0.232320615752E+04    0.20871E-02   -0.22917E-01  4560   0.438E-01    0.138E-01
RMM:   2    -0.232320956495E+04   -0.34074E-02   -0.33515E-02  6483   0.100E-01    0.195E-01
RMM:   3    -0.232320966213E+04   -0.97178E-04   -0.37929E-03  5115   0.389E-02    0.156E-01
RMM:   4    -0.232320946161E+04    0.20052E-03   -0.37182E-04  3042   0.990E-03    0.516E-02
RMM:   5    -0.232320944254E+04    0.19066E-04   -0.79307E-05  3031   0.595E-03    0.407E-02
RMM:   6    -0.232320942040E+04    0.22141E-04   -0.69760E-05  3165   0.629E-03    0.176E-02
RMM:   7    -0.232320942349E+04   -0.30853E-05   -0.22928E-05  2945   0.493E-03
  33 F= -.23446299E+04 E0= -.23446299E+04  d E =-.127515E-02  mag=     2.0000
       N       E                     dE             d eps       ncg     rms          rms(c)
DAV:   1    -0.232320322271E+04    0.61977E-02   -0.46853E-01  4516   0.626E-01    0.198E-01
RMM:   2    -0.232321025333E+04   -0.70306E-02   -0.68306E-02  6484   0.142E-01    0.291E-01
RMM:   3    -0.232321033833E+04   -0.84992E-04   -0.77598E-03  5787   0.556E-02    0.213E-01
RMM:   4    -0.232320996583E+04    0.37249E-03   -0.75834E-04  3424   0.134E-02    0.747E-02
RMM:   5    -0.232320992299E+04    0.42846E-04   -0.15823E-04  3099   0.803E-03    0.566E-02
RMM:   6    -0.232320987800E+04    0.44986E-04   -0.14028E-04  3909   0.854E-03    0.259E-02
RMM:   7    -0.232320988286E+04   -0.48638E-05   -0.44162E-05  2941   0.637E-03
  34 F= -.23446304E+04 E0= -.23446304E+04  d E =-.186896E-02  mag=     2.0000
       N       E                     dE             d eps       ncg     rms          rms(c)
DAV:   1    -0.232320741564E+04    0.24624E-02   -0.26277E-01  4528   0.470E-01    0.143E-01
RMM:   2    -0.232321087285E+04   -0.34572E-02   -0.36839E-02  6381   0.109E-01    0.102E-01
RMM:   3    -0.232321129129E+04   -0.41844E-03   -0.39735E-03  5216   0.406E-02    0.158E-01
RMM:   4    -0.232321107634E+04    0.21496E-03   -0.38990E-04  3057   0.100E-02    0.627E-02
RMM:   5    -0.232321106243E+04    0.13911E-04   -0.89971E-05  2963   0.600E-03    0.498E-02
RMM:   6    -0.232321103767E+04    0.24756E-04   -0.74438E-05  3086   0.611E-03    0.291E-02
RMM:   7    -0.232321103416E+04    0.35125E-05   -0.42021E-05  2934   0.556E-03
  35 F= -.23446317E+04 E0= -.23446317E+04  d E =-.122360E-02  mag=     2.0000
       N       E                     dE             d eps       ncg     rms          rms(c)
DAV:   1    -0.232320647981E+04    0.45579E-02   -0.35505E-01  4516   0.546E-01    0.166E-01
RMM:   2    -0.232321115103E+04   -0.46712E-02   -0.49806E-02  6455   0.126E-01    0.117E-01
RMM:   3    -0.232321171216E+04   -0.56113E-03   -0.53332E-03  5586   0.470E-02    0.183E-01
RMM:   4    -0.232321142707E+04    0.28510E-03   -0.52308E-04  3114   0.112E-02    0.712E-02
RMM:   5    -0.232321140956E+04    0.17508E-04   -0.12023E-04  2985   0.685E-03    0.585E-02
RMM:   6    -0.232321137380E+04    0.35758E-04   -0.10393E-04  3190   0.717E-03    0.327E-02
RMM:   7    -0.232321136962E+04    0.41754E-05   -0.56696E-05  2951   0.633E-03
  36 F= -.23446321E+04 E0= -.23446321E+04  d E =-.164503E-02  mag=     2.0000
       N       E                     dE             d eps       ncg     rms          rms(c)
DAV:   1    -0.232320934343E+04    0.20304E-02   -0.25105E-01  4528   0.445E-01    0.131E-01
RMM:   2    -0.232321227051E+04   -0.29271E-02   -0.31581E-02  6513   0.102E-01    0.779E-02
RMM:   3    -0.232321259436E+04   -0.32385E-03   -0.35359E-03  4512   0.369E-02    0.122E-01
RMM:   4    -0.232321248389E+04    0.11047E-03   -0.31836E-04  3000   0.882E-03    0.538E-02
RMM:   5    -0.232321248444E+04   -0.54935E-06   -0.72784E-05  2951   0.515E-03
  37 F= -.23446333E+04 E0= -.23446333E+04  d E =-.116951E-02  mag=     2.0000
       N       E                     dE             d eps       ncg     rms          rms(c)
DAV:   1    -0.232320664683E+04    0.58371E-02   -0.50824E-01  4516   0.633E-01    0.186E-01
RMM:   2    -0.232321259763E+04   -0.59508E-02   -0.63527E-02  6484   0.143E-01    0.123E-01
RMM:   3    -0.232321321645E+04   -0.61882E-03   -0.70502E-03  5405   0.520E-02    0.163E-01
RMM:   4    -0.232321297114E+04    0.24531E-03   -0.62821E-04  3079   0.121E-02    0.767E-02
RMM:   5    -0.232321301922E+04   -0.48082E-04   -0.18354E-04  3062   0.783E-03    0.110E-01
RMM:   6    -0.232321290623E+04    0.11299E-03   -0.17525E-04  3607   0.899E-03    0.216E-02
RMM:   7    -0.232321290212E+04    0.41110E-05   -0.28551E-05  2957   0.553E-03
  38 F= -.23446338E+04 E0= -.23446338E+04  d E =-.166788E-02  mag=     2.0000
       N       E                     dE             d eps       ncg     rms          rms(c)
DAV:   1    -0.232321077031E+04    0.21359E-02   -0.32709E-01  4516   0.515E-01    0.150E-01
RMM:   2    -0.232321394954E+04   -0.31792E-02   -0.34170E-02  6352   0.113E-01    0.903E-02
RMM:   3    -0.232321420013E+04   -0.25059E-03   -0.34465E-03  5072   0.398E-02    0.111E-01
RMM:   4    -0.232321411214E+04    0.87990E-04   -0.35134E-04  3056   0.992E-03    0.731E-02
RMM:   5    -0.232321408536E+04    0.26772E-04   -0.92717E-05  2984   0.588E-03    0.591E-02
RMM:   6    -0.232321405854E+04    0.26822E-04   -0.91219E-05  3182   0.694E-03    0.251E-02
RMM:   7    -0.232321405646E+04    0.20860E-05   -0.29095E-05  2957   0.538E-03
  39 F= -.23446350E+04 E0= -.23446350E+04  d E =-.121208E-02  mag=     2.0000
       N       E                     dE             d eps       ncg     rms          rms(c)
DAV:   1    -0.232321138932E+04    0.26692E-02   -0.28789E-01  4516   0.484E-01    0.140E-01
RMM:   2    -0.232321414869E+04   -0.27594E-02   -0.29861E-02  6343   0.106E-01    0.780E-02
RMM:   3    -0.232321439404E+04   -0.24535E-03   -0.31370E-03  4778   0.385E-02    0.104E-01
RMM:   4    -0.232321432366E+04    0.70375E-04   -0.30276E-04  3012   0.903E-03    0.628E-02
RMM:   5    -0.232321430945E+04    0.14207E-04   -0.79974E-05  2976   0.551E-03    0.569E-02
RMM:   6    -0.232321428670E+04    0.22759E-04   -0.75846E-05  3012   0.627E-03    0.300E-02
RMM:   7    -0.232321427892E+04    0.77784E-05   -0.31458E-05  2953   0.519E-03
  40 F= -.23446353E+04 E0= -.23446353E+04  d E =-.149016E-02  mag=     2.0000
       N       E                     dE             d eps       ncg     rms          rms(c)
DAV:   1    -0.232321179297E+04    0.24937E-02   -0.37307E-01  4516   0.527E-01    0.150E-01
RMM:   2    -0.232321517830E+04   -0.33853E-02   -0.35439E-02  6407   0.111E-01    0.127E-01
RMM:   3    -0.232321553470E+04   -0.35640E-03   -0.34551E-03  5066   0.388E-02    0.182E-01
RMM:   4    -0.232321525424E+04    0.28046E-03   -0.37468E-04  3072   0.105E-02    0.610E-02
RMM:   5    -0.232321524771E+04    0.65292E-05   -0.12221E-04  3045   0.692E-03    0.570E-02
RMM:   6    -0.232321520709E+04    0.40616E-04   -0.96645E-05  3134   0.697E-03    0.236E-02
RMM:   7    -0.232321520691E+04    0.18645E-06   -0.33635E-05  2933   0.550E-03
  41 F= -.23446363E+04 E0= -.23446363E+04  d E =-.107018E-02  mag=     2.0000
       N       E                     dE             d eps       ncg     rms          rms(c)
DAV:   1    -0.232321292568E+04    0.22814E-02   -0.25423E-01  4548   0.434E-01    0.124E-01
RMM:   2    -0.232321522277E+04   -0.22971E-02   -0.24240E-02  6380   0.922E-02    0.951E-02
RMM:   3    -0.232321546046E+04   -0.23769E-03   -0.23390E-03  4443   0.322E-02    0.142E-01
RMM:   4    -0.232321529680E+04    0.16365E-03   -0.25469E-04  3000   0.904E-03    0.529E-02
RMM:   5    -0.232321528962E+04    0.71827E-05   -0.82613E-05  3008   0.574E-03
  42 F= -.23446365E+04 E0= -.23446365E+04  d E =-.127180E-02  mag=     2.0000
       N       E                     dE             d eps       ncg     rms          rms(c)
DAV:   1    -0.232321102511E+04    0.42717E-02   -0.52281E-01  4516   0.615E-01    0.187E-01
RMM:   2    -0.232321633552E+04   -0.53104E-02   -0.52456E-02  6387   0.131E-01    0.243E-01
RMM:   3    -0.232321647396E+04   -0.13843E-03   -0.54257E-03  5601   0.468E-02    0.202E-01
RMM:   4    -0.232321612706E+04    0.34690E-03   -0.53710E-04  3407   0.122E-02    0.726E-02
RMM:   5    -0.232321612170E+04    0.53547E-05   -0.17686E-04  3010   0.826E-03    0.707E-02
RMM:   6    -0.232321605756E+04    0.64143E-04   -0.14046E-04  3899   0.825E-03    0.299E-02
RMM:   7    -0.232321605542E+04    0.21439E-05   -0.42614E-05  2940   0.652E-03
  43 F= -.23446376E+04 E0= -.23446376E+04  d E =-.110571E-02  mag=     2.0000
       N       E                     dE             d eps       ncg     rms          rms(c)
DAV:   1    -0.232321458928E+04    0.14683E-02   -0.14326E-01  4576   0.321E-01    0.985E-02
RMM:   2    -0.232321604322E+04   -0.14539E-02   -0.14514E-02  6312   0.690E-02    0.123E-01
RMM:   3    -0.232321610924E+04   -0.66025E-04   -0.14830E-03  3763   0.249E-02    0.114E-01
RMM:   4    -0.232321599635E+04    0.11289E-03   -0.15232E-04  2997   0.773E-03    0.340E-02
RMM:   5    -0.232321599425E+04    0.21012E-05   -0.49567E-05  2993   0.470E-03
  44 F= -.23446377E+04 E0= -.23446377E+04  d E =-.122291E-02  mag=     2.0000
       N       E                     dE             d eps       ncg     rms          rms(c)
DAV:   1    -0.232321255678E+04    0.34396E-02   -0.41461E-01  4516   0.535E-01    0.169E-01
RMM:   2    -0.232321689460E+04   -0.43378E-02   -0.42926E-02  6340   0.116E-01    0.213E-01
RMM:   3    -0.232321705592E+04   -0.16131E-03   -0.46044E-03  5525   0.432E-02    0.200E-01
RMM:   4    -0.232321671873E+04    0.33718E-03   -0.43182E-04  3166   0.111E-02    0.615E-02
RMM:   5    -0.232321671977E+04   -0.10336E-05   -0.13553E-04  2993   0.749E-03    0.629E-02
RMM:   6    -0.232321666869E+04    0.51072E-04   -0.11402E-04  3651   0.766E-03    0.250E-02
RMM:   7    -0.232321666695E+04    0.17497E-05   -0.33133E-05  2940   0.585E-03
  45 F= -.23446388E+04 E0= -.23446388E+04  d E =-.103313E-02  mag=     2.0000
       N       E                     dE             d eps       ncg     rms          rms(c)
DAV:   1    -0.232321524127E+04    0.14274E-02   -0.13201E-01  4560   0.301E-01    0.967E-02
RMM:   2    -0.232321663181E+04   -0.13905E-02   -0.13822E-02  6313   0.659E-02    0.119E-01
RMM:   3    -0.232321669921E+04   -0.67395E-04   -0.14758E-03  3881   0.250E-02    0.118E-01
RMM:   4    -0.232321657883E+04    0.12038E-03   -0.13938E-04  2968   0.755E-03    0.318E-02
RMM:   5    -0.232321658235E+04   -0.35242E-05   -0.47386E-05  2936   0.455E-03
  46 F= -.23446389E+04 E0= -.23446389E+04  d E =-.115228E-02  mag=     2.0000
       N       E                     dE             d eps       ncg     rms          rms(c)
DAV:   1    -0.232321396988E+04    0.26090E-02   -0.34706E-01  4516   0.487E-01    0.149E-01
RMM:   2    -0.232321691187E+04   -0.29420E-02   -0.31478E-02  6337   0.102E-01    0.840E-02
RMM:   3    -0.232321716619E+04   -0.25432E-03   -0.33843E-03  4875   0.399E-02    0.106E-01
RMM:   4    -0.232321705451E+04    0.11168E-03   -0.31023E-04  3045   0.953E-03    0.467E-02
RMM:   5    -0.232321707113E+04   -0.16628E-04   -0.11253E-04  3123   0.696E-03    0.666E-02
RMM:   6    -0.232321703280E+04    0.38335E-04   -0.63787E-05  2985   0.643E-03    0.386E-02
RMM:   7    -0.232321702531E+04    0.74925E-05   -0.33812E-05  2922   0.437E-03
  47 F= -.23446396E+04 E0= -.23446396E+04  d E =-.709577E-03  mag=     2.0000
       N       E                     dE             d eps       ncg     rms          rms(c)
DAV:   1    -0.232321649590E+04    0.53690E-03   -0.50511E-02  4656   0.186E-01    0.585E-02
RMM:   2    -0.232321693737E+04   -0.44147E-03   -0.47252E-03  6405   0.406E-02    0.318E-02
RMM:   3    -0.232321697631E+04   -0.38941E-04   -0.47981E-04  3082   0.150E-02    0.477E-02
RMM:   4    -0.232321695964E+04    0.16668E-04   -0.48558E-05  2966   0.468E-03    0.250E-02
RMM:   5    -0.232321695766E+04    0.19844E-05   -0.13905E-05  2907   0.239E-03
  48 F= -.23446396E+04 E0= -.23446396E+04  d E =-.744022E-03  mag=     2.0000
       N       E                     dE             d eps       ncg     rms          rms(c)
DAV:   1    -0.232321418960E+04    0.27700E-02   -0.40208E-01  4516   0.510E-01    0.155E-01
RMM:   2    -0.232321759782E+04   -0.34082E-02   -0.33267E-02  6292   0.106E-01    0.202E-01
RMM:   3    -0.232321769132E+04   -0.93501E-04   -0.33184E-03  5112   0.379E-02    0.178E-01
RMM:   4    -0.232321740721E+04    0.28412E-03   -0.33837E-04  3098   0.106E-02    0.530E-02
RMM:   5    -0.232321740421E+04    0.29968E-05   -0.12431E-04  3064   0.731E-03    0.569E-02
RMM:   6    -0.232321735861E+04    0.45603E-04   -0.11489E-04  3434   0.806E-03    0.129E-02
RMM:   7    -0.232321736051E+04   -0.18968E-05   -0.17974E-05  2944   0.514E-03
  49 F= -.23446403E+04 E0= -.23446403E+04  d E =-.628114E-03  mag=     2.0000
       N       E                     dE             d eps       ncg     rms          rms(c)
DAV:   1    -0.232321703855E+04    0.32006E-03   -0.32972E-02  4720   0.146E-01    0.458E-02
RMM:   2    -0.232321731659E+04   -0.27804E-03   -0.27767E-03  6171   0.316E-02    0.523E-02
RMM:   3    -0.232321733330E+04   -0.16718E-04   -0.27450E-04  2990   0.116E-02    0.554E-02
RMM:   4    -0.232321730770E+04    0.25609E-04   -0.31127E-05  2929   0.409E-03    0.175E-02
RMM:   5    -0.232321730622E+04    0.14792E-05   -0.10160E-05  2820   0.219E-03
  50 F= -.23446403E+04 E0= -.23446403E+04  d E =-.638813E-03  mag=     2.0000
       N       E                     dE             d eps       ncg     rms          rms(c)
DAV:   1    -0.232321559379E+04    0.17139E-02   -0.29779E-01  4516   0.426E-01    0.128E-01
RMM:   2    -0.232321797254E+04   -0.23787E-02   -0.22426E-02  6280   0.870E-02    0.188E-01
RMM:   3    -0.232321791515E+04    0.57390E-04   -0.22624E-03  4619   0.307E-02    0.132E-01
RMM:   4    -0.232321777270E+04    0.14245E-03   -0.24816E-04  3042   0.897E-03    0.531E-02
RMM:   5    -0.232321775497E+04    0.17730E-04   -0.77820E-05  2963   0.569E-03    0.457E-02
RMM:   6    -0.232321773146E+04    0.23511E-04   -0.71629E-05  3089   0.615E-03    0.238E-02
RMM:   7    -0.232321772756E+04    0.39052E-05   -0.25277E-05  2925   0.508E-03
  51 F= -.23446409E+04 E0= -.23446409E+04  d E =-.610124E-03  mag=     2.0000
       N       E                     dE             d eps       ncg     rms          rms(c)
DAV:   1    -0.232321617810E+04    0.15534E-02   -0.20392E-01  4516   0.351E-01    0.108E-01
RMM:   2    -0.232321783236E+04   -0.16543E-02   -0.15723E-02  6369   0.732E-02    0.154E-01
RMM:   3    -0.232321781064E+04    0.21719E-04   -0.15687E-03  4061   0.257E-02    0.116E-01
RMM:   4    -0.232321770103E+04    0.10961E-03   -0.17546E-04  3022   0.810E-03    0.428E-02
RMM:   5    -0.232321768811E+04    0.12919E-04   -0.54041E-05  2968   0.487E-03    0.366E-02
RMM:   6    -0.232321767450E+04    0.13609E-04   -0.48889E-05  2986   0.519E-03    0.215E-02
RMM:   7    -0.232321767057E+04    0.39273E-05   -0.18216E-05  2911   0.429E-03
  52 F= -.23446410E+04 E0= -.23446410E+04  d E =-.710684E-03  mag=     2.0000
       N       E                     dE             d eps       ncg     rms          rms(c)
DAV:   1    -0.232321508086E+04    0.25936E-02   -0.41326E-01  4516   0.511E-01    0.152E-01
RMM:   2    -0.232321803848E+04   -0.29576E-02   -0.29884E-02  6251   0.105E-01    0.150E-01
RMM:   3    -0.232321829987E+04   -0.26139E-03   -0.29079E-03  5184   0.370E-02    0.192E-01
RMM:   4    -0.232321798711E+04    0.31276E-03   -0.32942E-04  3097   0.104E-02    0.597E-02
RMM:   5    -0.232321797312E+04    0.13996E-04   -0.10185E-04  2993   0.661E-03    0.550E-02
RMM:   6    -0.232321793184E+04    0.41280E-04   -0.97150E-05  3317   0.713E-03    0.165E-02
RMM:   7    -0.232321793304E+04   -0.12039E-05   -0.23349E-05  2939   0.546E-03
  53 F= -.23446416E+04 E0= -.23446416E+04  d E =-.595087E-03  mag=     2.0000
       N       E                     dE             d eps       ncg     rms          rms(c)
DAV:   1    -0.232321705200E+04    0.87984E-03   -0.10766E-01  4576   0.261E-01    0.784E-02
RMM:   2    -0.232321782553E+04   -0.77352E-03   -0.78392E-03  6287   0.544E-02    0.751E-02
RMM:   3    -0.232321790125E+04   -0.75726E-04   -0.77943E-04  3492   0.197E-02    0.100E-01
RMM:   4    -0.232321781557E+04    0.85678E-04   -0.88835E-05  2961   0.659E-03    0.306E-02
RMM:   5    -0.232321781212E+04    0.34525E-05   -0.28273E-05  2932   0.356E-03
  54 F= -.23446416E+04 E0= -.23446416E+04  d E =-.644732E-03  mag=     2.0000
       N       E                     dE             d eps       ncg     rms          rms(c)
DAV:   1    -0.232321432811E+04    0.34875E-02   -0.47855E-01  4504   0.544E-01    0.161E-01
RMM:   2    -0.232321803195E+04   -0.37038E-02   -0.39238E-02  6283   0.115E-01    0.880E-02
RMM:   3    -0.232321825996E+04   -0.22801E-03   -0.37533E-03  5138   0.408E-02    0.924E-02
RMM:   4    -0.232321819227E+04    0.67693E-04   -0.36977E-04  3095   0.997E-03    0.620E-02
RMM:   5    -0.232321822924E+04   -0.36976E-04   -0.13503E-04  3017   0.714E-03    0.941E-02
RMM:   6    -0.232321815041E+04    0.78836E-04   -0.89540E-05  2992   0.675E-03    0.215E-02
RMM:   7    -0.232321814648E+04    0.39226E-05   -0.19513E-05  2939   0.464E-03
  55 F= -.23446424E+04 E0= -.23446424E+04  d E =-.760185E-03  mag=     2.0000
       N       E                     dE             d eps       ncg     rms          rms(c)
DAV:   1    -0.232321343926E+04    0.47111E-02   -0.55522E-01  4504   0.586E-01    0.174E-01
RMM:   2    -0.232321775396E+04   -0.43147E-02   -0.45819E-02  6353   0.124E-01    0.900E-02
RMM:   3    -0.232321799127E+04   -0.23731E-03   -0.43166E-03  5260   0.442E-02    0.837E-02
RMM:   4    -0.232321795329E+04    0.37981E-04   -0.41848E-04  3069   0.103E-02    0.645E-02
RMM:   5    -0.232321795922E+04   -0.59267E-05   -0.14663E-04  3077   0.749E-03    0.840E-02
RMM:   6    -0.232321791039E+04    0.48831E-04   -0.89195E-05  2968   0.680E-03    0.382E-02
RMM:   7    -0.232321789757E+04    0.12821E-04   -0.21831E-05  2949   0.474E-03    0.106E-02
RMM:   8    -0.232321789734E+04    0.22537E-06   -0.77600E-06  2877   0.314E-03
  56 F= -.23446426E+04 E0= -.23446426E+04  d E =-.970542E-03  mag=     2.0000
       N       E                     dE             d eps       ncg     rms          rms(c)
DAV:   1    -0.232321559927E+04    0.22983E-02   -0.27362E-01  4516   0.398E-01    0.121E-01
RMM:   2    -0.232321809200E+04   -0.24927E-02   -0.26403E-02  6301   0.869E-02    0.641E-02
RMM:   3    -0.232321827975E+04   -0.18775E-03   -0.25862E-03  3862   0.302E-02    0.904E-02
RMM:   4    -0.232321823564E+04    0.44110E-04   -0.24337E-04  3001   0.747E-03    0.508E-02
RMM:   5    -0.232321822673E+04    0.89063E-05   -0.59554E-05  3028   0.449E-03
  57 F= -.23446432E+04 E0= -.23446432E+04  d E =-.639588E-03  mag=     2.0000
       N       E                     dE             d eps       ncg     rms          rms(c)
DAV:   1    -0.232319481010E+04    0.23426E-01   -0.24580E+00  4504   0.119E+00    0.359E-01
RMM:   2    -0.232321713968E+04   -0.22330E-01   -0.23544E-01  6414   0.260E-01    0.206E-01
RMM:   3    -0.232321876018E+04   -0.16205E-02   -0.23051E-02  5870   0.902E-02    0.257E-01
RMM:   4    -0.232321830875E+04    0.45143E-03   -0.22155E-03  3752   0.206E-02    0.161E-01
RMM:   5    -0.232321832204E+04   -0.13292E-04   -0.54495E-04  4060   0.120E-02    0.165E-01
RMM:   6    -0.232321801822E+04    0.30382E-03   -0.54170E-04  4438   0.133E-02    0.447E-02
RMM:   7    -0.232321800632E+04    0.11902E-04   -0.85592E-05  3033   0.794E-03    0.211E-02
RMM:   8    -0.232321800429E+04    0.20225E-05   -0.21017E-05  2943   0.394E-03
  58 F= -.23446440E+04 E0= -.23446440E+04  d E =-.135394E-02  mag=     2.0000
       N       E                     dE             d eps       ncg     rms          rms(c)
DAV:   1    -0.232321258116E+04    0.54252E-02   -0.57612E-01  4504   0.564E-01    0.178E-01
RMM:   2    -0.232321809469E+04   -0.55135E-02   -0.58651E-02  6375   0.127E-01    0.949E-02
RMM:   3    -0.232321850422E+04   -0.40953E-03   -0.59193E-03  5085   0.449E-02    0.114E-01
RMM:   4    -0.232321845823E+04    0.45990E-04   -0.55482E-04  3063   0.103E-02    0.820E-02
RMM:   5    -0.232321843387E+04    0.24361E-04   -0.13402E-04  3115   0.665E-03    0.655E-02
RMM:   6    -0.232321839146E+04    0.42410E-04   -0.10691E-04  3001   0.649E-03    0.295E-02
RMM:   7    -0.232321838315E+04    0.83061E-05   -0.28017E-05  2969   0.471E-03
  59 F= -.23446448E+04 E0= -.23446448E+04  d E =-.845592E-03  mag=     2.0000
       N       E                     dE             d eps       ncg     rms          rms(c)
DAV:   1    -0.232320327378E+04    0.15118E-01   -0.14553E+00  4504   0.897E-01    0.281E-01
RMM:   2    -0.232321722842E+04   -0.13955E-01   -0.14849E-01  6434   0.202E-01    0.145E-01
RMM:   3    -0.232321808494E+04   -0.85652E-03   -0.14636E-02  5794   0.729E-02    0.134E-01
RMM:   4    -0.232321813517E+04   -0.50233E-04   -0.13647E-03  3369   0.158E-02    0.141E-01
RMM:   5    -0.232321806557E+04    0.69598E-04   -0.35025E-04  3405   0.106E-02    0.111E-01
RMM:   6    -0.232321795070E+04    0.11487E-03   -0.25142E-04  3313   0.952E-03    0.480E-02
RMM:   7    -0.232321792174E+04    0.28965E-04   -0.59748E-05  3006   0.629E-03    0.136E-02
RMM:   8    -0.232321792043E+04    0.13073E-05   -0.11907E-05  2942   0.393E-03
  60 F= -.23446451E+04 E0= -.23446451E+04  d E =-.112973E-02  mag=     2.0000
       N       E                     dE             d eps       ncg     rms          rms(c)
DAV:   1    -0.232321166667E+04    0.62551E-02   -0.65452E-01  4504   0.586E-01    0.185E-01
RMM:   2    -0.232321780448E+04   -0.61378E-02   -0.64635E-02  6428   0.131E-01    0.128E-01
RMM:   3    -0.232321849865E+04   -0.69417E-03   -0.67959E-03  5183   0.469E-02    0.218E-01
RMM:   4    -0.232321813080E+04    0.36786E-03   -0.64815E-04  3096   0.116E-02    0.672E-02
RMM:   5    -0.232321811621E+04    0.14582E-04   -0.16950E-04  3073   0.726E-03    0.620E-02
RMM:   6    -0.232321807114E+04    0.45070E-04   -0.12953E-04  3102   0.704E-03    0.273E-02
RMM:   7    -0.232321806671E+04    0.44315E-05   -0.26345E-05  2950   0.477E-03
  61 F= -.23446458E+04 E0= -.23446458E+04  d E =-.661205E-03  mag=     2.0000
       N       E                     dE             d eps       ncg     rms          rms(c)
DAV:   1    -0.232319817896E+04    0.19892E-01   -0.19522E+00  4504   0.101E+00    0.321E-01
RMM:   2    -0.232321665766E+04   -0.18479E-01   -0.19422E-01  6487   0.228E-01    0.223E-01
RMM:   3    -0.232321876338E+04   -0.21057E-02   -0.20168E-02  5996   0.826E-02    0.380E-01
RMM:   4    -0.232321760202E+04    0.11614E-02   -0.19389E-03  3955   0.198E-02    0.116E-01
RMM:   5    -0.232321759002E+04    0.11997E-04   -0.50555E-04  3933   0.114E-02    0.119E-01
RMM:   6    -0.232321742051E+04    0.16951E-03   -0.38512E-04  3682   0.111E-02    0.479E-02
RMM:   7    -0.232321739772E+04    0.22793E-04   -0.70317E-05  3044   0.650E-03    0.160E-02
RMM:   8    -0.232321739696E+04    0.75837E-06   -0.15923E-05  2929   0.420E-03
  62 F= -.23446460E+04 E0= -.23446460E+04  d E =-.886978E-03  mag=     2.0000
       N       E                     dE             d eps       ncg     rms          rms(c)
DAV:   1    -0.232320881667E+04    0.85811E-02   -0.97859E-01  4504   0.706E-01    0.231E-01
RMM:   2    -0.232321783852E+04   -0.90219E-02   -0.92186E-02  6413   0.159E-01    0.236E-01
RMM:   3    -0.232321866844E+04   -0.82992E-03   -0.93075E-03  5703   0.555E-02    0.296E-01
RMM:   4    -0.232321791996E+04    0.74848E-03   -0.94140E-04  3433   0.148E-02    0.833E-02
RMM:   5    -0.232321791166E+04    0.83005E-05   -0.25782E-04  3145   0.863E-03    0.849E-02
RMM:   6    -0.232321782004E+04    0.91621E-04   -0.22557E-04  3505   0.917E-03    0.311E-02
RMM:   7    -0.232321782326E+04   -0.32279E-05   -0.59965E-05  2983   0.636E-03
  63 F= -.23446470E+04 E0= -.23446470E+04  d E =-.104332E-02  mag=     2.0000
       N       E                     dE             d eps       ncg     rms          rms(c)
DAV:   1    -0.232320168304E+04    0.16137E-01   -0.16825E+00  4504   0.925E-01    0.302E-01
RMM:   2    -0.232321710956E+04   -0.15427E-01   -0.15837E-01  6483   0.210E-01    0.293E-01
RMM:   3    -0.232321865985E+04   -0.15503E-02   -0.16035E-02  6013   0.744E-02    0.390E-01
RMM:   4    -0.232321735162E+04    0.13082E-02   -0.16278E-03  4224   0.195E-02    0.108E-01
RMM:   5    -0.232321734712E+04    0.44964E-05   -0.44319E-04  3536   0.105E-02    0.113E-01
RMM:   6    -0.232321718587E+04    0.16126E-03   -0.37010E-04  4001   0.113E-02    0.422E-02
RMM:   7    -0.232321718546E+04    0.40879E-06   -0.10063E-04  3037   0.727E-03    0.353E-02
RMM:   8    -0.232321716753E+04    0.17925E-04   -0.30929E-05  2946   0.474E-03    0.114E-02
RMM:   9    -0.232321716548E+04    0.20563E-05   -0.52456E-06  2881   0.234E-03
  64 F= -.23446472E+04 E0= -.23446472E+04  d E =-.120037E-02  mag=     2.0000
       N       E                     dE             d eps       ncg     rms          rms(c)
DAV:   1    -0.232320836096E+04    0.88066E-02   -0.10448E+00  4504   0.704E-01    0.231E-01
RMM:   2    -0.232321777413E+04   -0.94132E-02   -0.94287E-02  6533   0.159E-01    0.270E-01
RMM:   3    -0.232321834931E+04   -0.57518E-03   -0.94085E-03  5716   0.548E-02    0.276E-01
RMM:   4    -0.232321771259E+04    0.63672E-03   -0.97284E-04  3440   0.147E-02    0.922E-02
RMM:   5    -0.232321767191E+04    0.40680E-04   -0.24294E-04  3059   0.830E-03    0.814E-02
RMM:   6    -0.232321759323E+04    0.78681E-04   -0.21941E-04  3428   0.894E-03    0.358E-02
RMM:   7    -0.232321759449E+04   -0.12596E-05   -0.78933E-05  2963   0.673E-03
  65 F= -.23446482E+04 E0= -.23446482E+04  d E =-.975531E-03  mag=     2.0000
       N       E                     dE             d eps       ncg     rms          rms(c)
DAV:   1    -0.232317353090E+04    0.44062E-01   -0.48615E+00  4504   0.152E+00    0.498E-01
RMM:   2    -0.232321689148E+04   -0.43361E-01   -0.43834E-01  6549   0.341E-01    0.544E-01
RMM:   3    -0.232322008727E+04   -0.31958E-02   -0.43816E-02  6222   0.118E-01    0.604E-01
RMM:   4    -0.232321704679E+04    0.30405E-02   -0.45819E-03  5488   0.315E-02    0.198E-01
RMM:   5    -0.232321687597E+04    0.17081E-03   -0.11417E-03  4440   0.150E-02    0.177E-01
RMM:   6    -0.232321650146E+04    0.37451E-03   -0.92996E-04  4650   0.165E-02    0.767E-02
RMM:   7    -0.232321651076E+04   -0.92945E-05   -0.36806E-04  3417   0.120E-02    0.678E-02
RMM:   8    -0.232321644114E+04    0.69616E-04   -0.81341E-05  2993   0.624E-03    0.167E-02
RMM:   9    -0.232321643610E+04    0.50427E-05   -0.12623E-05  2934   0.338E-03
  66 F= -.23446482E+04 E0= -.23446482E+04  d E =-.101028E-02  mag=     2.0000
       N       E                     dE             d eps       ncg     rms          rms(c)
DAV:   1    -0.232321033882E+04    0.61023E-02   -0.77527E-01  4504   0.605E-01    0.199E-01
RMM:   2    -0.232321726842E+04   -0.69296E-02   -0.70523E-02  6497   0.137E-01    0.205E-01
RMM:   3    -0.232321784365E+04   -0.57524E-03   -0.70212E-03  5327   0.458E-02    0.249E-01
RMM:   4    -0.232321732332E+04    0.52033E-03   -0.71202E-04  3231   0.128E-02    0.780E-02
RMM:   5    -0.232321730137E+04    0.21958E-04   -0.18843E-04  3034   0.738E-03    0.709E-02
RMM:   6    -0.232321724211E+04    0.59253E-04   -0.16398E-04  3133   0.765E-03    0.304E-02
RMM:   7    -0.232321724121E+04    0.90078E-06   -0.53010E-05  2953   0.586E-03
  67 F= -.23446485E+04 E0= -.23446485E+04  d E =-.133615E-02  mag=     2.0000
       N       E                     dE             d eps       ncg     rms          rms(c)
DAV:   1    -0.232321262647E+04    0.46156E-02   -0.63625E-01  4516   0.580E-01    0.190E-01
RMM:   2    -0.232321796383E+04   -0.53374E-02   -0.54833E-02  6229   0.127E-01    0.165E-01
RMM:   3    -0.232321838086E+04   -0.41704E-03   -0.53720E-03  5643   0.467E-02    0.209E-01
RMM:   4    -0.232321803976E+04    0.34110E-03   -0.58620E-04  3268   0.122E-02    0.890E-02
RMM:   5    -0.232321798541E+04    0.54350E-04   -0.16434E-04  3024   0.766E-03    0.638E-02
RMM:   6    -0.232321793440E+04    0.51012E-04   -0.16179E-04  3626   0.826E-03    0.321E-02
RMM:   7    -0.232321793034E+04    0.40645E-05   -0.54655E-05  2966   0.667E-03
  68 F= -.23446495E+04 E0= -.23446495E+04  d E =-.102027E-02  mag=     2.0000
       N       E                     dE             d eps       ncg     rms          rms(c)
DAV:   1    -0.232321555432E+04    0.23801E-02   -0.25997E-01  4560   0.372E-01    0.124E-01
RMM:   2    -0.232321774176E+04   -0.21874E-02   -0.22682E-02  6335   0.836E-02    0.100E-01
RMM:   3    -0.232321793636E+04   -0.19460E-03   -0.22659E-03  4359   0.310E-02    0.135E-01
RMM:   4    -0.232321779404E+04    0.14232E-03   -0.24886E-04  3033   0.891E-03    0.566E-02
RMM:   5    -0.232321777541E+04    0.18630E-04   -0.72247E-05  2977   0.516E-03    0.426E-02
RMM:   6    -0.232321775577E+04    0.19636E-04   -0.56134E-05  2975   0.511E-03    0.238E-02
RMM:   7    -0.232321775241E+04    0.33576E-05   -0.28496E-05  2915   0.458E-03
  69 F= -.23446496E+04 E0= -.23446496E+04  d E =-.105609E-02  mag=     2.0000
       N       E                     dE             d eps       ncg     rms          rms(c)
DAV:   1    -0.232321366357E+04    0.40922E-02   -0.49490E-01  4504   0.520E-01    0.164E-01
RMM:   2    -0.232321795423E+04   -0.42907E-02   -0.44988E-02  6422   0.114E-01    0.111E-01
RMM:   3    -0.232321825260E+04   -0.29837E-03   -0.44808E-03  5189   0.413E-02    0.121E-01
RMM:   4    -0.232321813500E+04    0.11760E-03   -0.43051E-04  3101   0.104E-02    0.748E-02
RMM:   5    -0.232321812658E+04    0.84136E-05   -0.10757E-04  2990   0.613E-03    0.678E-02
RMM:   6    -0.232321807999E+04    0.46589E-04   -0.90909E-05  3000   0.593E-03    0.321E-02
RMM:   7    -0.232321807477E+04    0.52214E-05   -0.52884E-05  2966   0.544E-03
  70 F= -.23446502E+04 E0= -.23446502E+04  d E =-.597355E-03  mag=     2.0000
       N       E                     dE             d eps       ncg     rms          rms(c)
DAV:   1    -0.232321589436E+04    0.21856E-02   -0.22503E-01  4528   0.351E-01    0.112E-01
RMM:   2    -0.232321783791E+04   -0.19435E-02   -0.20469E-02  6492   0.782E-02    0.720E-02
RMM:   3    -0.232321797892E+04   -0.14101E-03   -0.20531E-03  3876   0.280E-02    0.764E-02
RMM:   4    -0.232321793079E+04    0.48128E-04   -0.19442E-04  3021   0.802E-03    0.478E-02
RMM:   5    -0.232321793297E+04   -0.21824E-05   -0.51114E-05  2954   0.437E-03
  71 F= -.23446502E+04 E0= -.23446502E+04  d E =-.642530E-03  mag=     2.0000
       N       E                     dE             d eps       ncg     rms          rms(c)
DAV:   1    -0.232321428203E+04    0.36488E-02   -0.48923E-01  4504   0.563E-01    0.171E-01
RMM:   2    -0.232321816383E+04   -0.38818E-02   -0.40841E-02  6179   0.115E-01    0.110E-01
RMM:   3    -0.232321846757E+04   -0.30374E-03   -0.41454E-03  5466   0.440E-02    0.125E-01
RMM:   4    -0.232321829818E+04    0.16940E-03   -0.40078E-04  3160   0.109E-02    0.654E-02
RMM:   5    -0.232321834463E+04   -0.46454E-04   -0.15692E-04  2990   0.778E-03    0.955E-02
RMM:   6    -0.232321824810E+04    0.96532E-04   -0.98798E-05  3131   0.705E-03    0.231E-02
RMM:   7    -0.232321824810E+04   -0.21391E-08   -0.34582E-05  2964   0.573E-03
  72 F= -.23446508E+04 E0= -.23446508E+04  d E =-.592067E-03  mag=     2.0000
       N       E                     dE             d eps       ncg     rms          rms(c)
DAV:   1    -0.232321749659E+04    0.75151E-03   -0.77218E-02  4624   0.223E-01    0.694E-02
RMM:   2    -0.232321811400E+04   -0.61741E-03   -0.66038E-03  6340   0.473E-02    0.366E-02
RMM:   3    -0.232321816014E+04   -0.46143E-04   -0.64719E-04  3241   0.177E-02    0.450E-02
RMM:   4    -0.232321815041E+04    0.97332E-05   -0.65149E-05  2972   0.507E-03
  73 F= -.23446508E+04 E0= -.23446508E+04  d E =-.604819E-03  mag=     2.0000
       N       E                     dE             d eps       ncg     rms          rms(c)
DAV:   1    -0.232321531197E+04    0.28482E-02   -0.36973E-01  4504   0.498E-01    0.145E-01
RMM:   2    -0.232321838678E+04   -0.30748E-02   -0.32369E-02  6262   0.102E-01    0.109E-01
RMM:   3    -0.232321875902E+04   -0.37223E-03   -0.34885E-03  4636   0.386E-02    0.171E-01
RMM:   4    -0.232321850643E+04    0.25259E-03   -0.33654E-04  3029   0.102E-02    0.609E-02
RMM:   5    -0.232321851571E+04   -0.92832E-05   -0.12770E-04  3040   0.700E-03    0.653E-02
RMM:   6    -0.232321845569E+04    0.60023E-04   -0.98340E-05  3361   0.716E-03    0.157E-02
RMM:   7    -0.232321845631E+04   -0.61859E-06   -0.19424E-05  2953   0.520E-03
  74 F= -.23446514E+04 E0= -.23446514E+04  d E =-.537767E-03  mag=     2.0000
       N       E                     dE             d eps       ncg     rms          rms(c)
DAV:   1    -0.232321801380E+04    0.44189E-03   -0.42501E-02  4672   0.169E-01    0.510E-02
RMM:   2    -0.232321836663E+04   -0.35283E-03   -0.38175E-03  6258   0.358E-02    0.249E-02
RMM:   3    -0.232321838756E+04   -0.20929E-04   -0.37151E-04  3028   0.134E-02    0.207E-02
RMM:   4    -0.232321839233E+04   -0.47715E-05   -0.37826E-05  2974   0.352E-03
  75 F= -.23446514E+04 E0= -.23446514E+04  d E =-.552663E-03  mag=     2.0000
       N       E                     dE             d eps       ncg     rms          rms(c)
DAV:   1    -0.232321561346E+04    0.27741E-02   -0.32889E-01  4504   0.495E-01    0.141E-01
RMM:   2    -0.232321849501E+04   -0.28816E-02   -0.30986E-02  6248   0.101E-01    0.803E-02
RMM:   3    -0.232321877196E+04   -0.27695E-03   -0.32117E-03  4586   0.381E-02    0.127E-01
RMM:   4    -0.232321866859E+04    0.10336E-03   -0.29991E-04  3006   0.909E-03    0.546E-02
RMM:   5    -0.232321865364E+04    0.14952E-04   -0.10332E-04  3105   0.675E-03    0.455E-02
RMM:   6    -0.232321862753E+04    0.26112E-04   -0.66410E-05  3041   0.644E-03    0.186E-02
RMM:   7    -0.232321862411E+04    0.34184E-05   -0.13093E-05  2916   0.410E-03
  76 F= -.23446518E+04 E0= -.23446518E+04  d E =-.454483E-03  mag=     2.0000
       N       E                     dE             d eps       ncg     rms          rms(c)
DAV:   1    -0.232321847400E+04    0.15353E-03   -0.11214E-02  4912   0.913E-02    0.273E-02
RMM:   2    -0.232321857398E+04   -0.99982E-04   -0.10843E-03  5731   0.200E-02    0.151E-02
RMM:   3    -0.232321858336E+04   -0.93791E-05   -0.11606E-04  2908   0.815E-03    0.185E-02
RMM:   4    -0.232321857990E+04    0.34532E-05   -0.11471E-05  2922   0.268E-03
  77 F= -.23446518E+04 E0= -.23446518E+04  d E =-.451601E-03  mag=     2.0000
       N       E                     dE             d eps       ncg     rms          rms(c)
DAV:   1    -0.232321579589E+04    0.27875E-02   -0.33976E-01  4504   0.518E-01    0.143E-01
RMM:   2    -0.232321879048E+04   -0.29946E-02   -0.31738E-02  6249   0.105E-01    0.103E-01
RMM:   3    -0.232321922589E+04   -0.43540E-03   -0.33505E-03  4828   0.396E-02    0.189E-01
RMM:   4    -0.232321892065E+04    0.30524E-03   -0.33003E-04  3068   0.101E-02    0.487E-02
RMM:   5    -0.232321891993E+04    0.71878E-06   -0.12624E-04  3109   0.739E-03    0.527E-02
RMM:   6    -0.232321888103E+04    0.38904E-04   -0.75483E-05  3071   0.697E-03    0.197E-02
RMM:   7    -0.232321887901E+04    0.20204E-05   -0.18859E-05  2919   0.485E-03
  78 F= -.23446523E+04 E0= -.23446523E+04  d E =-.436826E-03  mag=     2.0000
       N       E                     dE             d eps       ncg     rms          rms(c)
DAV:   1    -0.232321869090E+04    0.19013E-03   -0.15760E-02  4784   0.112E-01    0.326E-02
RMM:   2    -0.232321883269E+04   -0.14180E-03   -0.15358E-03  5946   0.241E-02    0.188E-02
RMM:   3    -0.232321884717E+04   -0.14475E-04   -0.16007E-04  2951   0.921E-03    0.276E-02
RMM:   4    -0.232321884030E+04    0.68689E-05   -0.16106E-05  2923   0.295E-03
  79 F= -.23446522E+04 E0= -.23446522E+04  d E =-.428071E-03  mag=     2.0000
       N       E                     dE             d eps       ncg     rms          rms(c)
DAV:   1    -0.232321618958E+04    0.26576E-02   -0.34744E-01  4504   0.531E-01    0.143E-01
RMM:   2    -0.232321912389E+04   -0.29343E-02   -0.31415E-02  6255   0.106E-01    0.779E-02
RMM:   3    -0.232321928865E+04   -0.16476E-03   -0.29355E-03  4627   0.369E-02    0.677E-02
RMM:   4    -0.232321926917E+04    0.19483E-04   -0.28896E-04  3030   0.917E-03    0.541E-02
RMM:   5    -0.232321927529E+04   -0.61151E-05   -0.11489E-04  3270   0.749E-03    0.690E-02
RMM:   6    -0.232321923457E+04    0.40713E-04   -0.58379E-05  2966   0.655E-03    0.258E-02
RMM:   7    -0.232321923046E+04    0.41092E-05   -0.18807E-05  2907   0.395E-03
  80 F= -.23446527E+04 E0= -.23446527E+04  d E =-.405826E-03  mag=     2.0000
       N       E                     dE             d eps       ncg     rms          rms(c)
DAV:   1    -0.232321899041E+04    0.24416E-03   -0.25704E-02  4640   0.144E-01    0.407E-02
RMM:   2    -0.232321921126E+04   -0.22085E-03   -0.23838E-03  6139   0.304E-02    0.228E-02
RMM:   3    -0.232321923630E+04   -0.25042E-04   -0.23967E-04  2999   0.111E-02    0.395E-02
RMM:   4    -0.232321922405E+04    0.12259E-04   -0.23791E-05  2929   0.343E-03    0.152E-02
RMM:   5    -0.232321922346E+04    0.58929E-06   -0.75799E-06  2842   0.205E-03
  81 F= -.23446527E+04 E0= -.23446527E+04  d E =-.403258E-03  mag=     2.0000
       N       E                     dE             d eps       ncg     rms          rms(c)
DAV:   1    -0.232321709762E+04    0.21264E-02   -0.30460E-01  4504   0.500E-01    0.139E-01
RMM:   2    -0.232321959585E+04   -0.24982E-02   -0.26758E-02  6167   0.996E-02    0.799E-02
RMM:   3    -0.232321980077E+04   -0.20491E-03   -0.25162E-03  4613   0.354E-02    0.107E-01
RMM:   4    -0.232321970589E+04    0.94878E-04   -0.26451E-04  3006   0.906E-03    0.656E-02
RMM:   5    -0.232321969120E+04    0.14682E-04   -0.86950E-05  2979   0.599E-03    0.539E-02
RMM:   6    -0.232321966298E+04    0.28228E-04   -0.78085E-05  3114   0.653E-03    0.256E-02
RMM:   7    -0.232321965906E+04    0.39196E-05   -0.28768E-05  2927   0.554E-03
  82 F= -.23446530E+04 E0= -.23446530E+04  d E =-.389778E-03  mag=     2.0000
       N       E                     dE             d eps       ncg     rms          rms(c)
DAV:   1    -0.232321958396E+04    0.79013E-04   -0.76966E-03  4992   0.798E-02    0.240E-02
RMM:   2    -0.232321964958E+04   -0.65619E-04   -0.71842E-04  5286   0.174E-02    0.137E-02
RMM:   3    -0.232321965604E+04   -0.64584E-05   -0.69791E-05  2924   0.686E-03
  83 F= -.23446530E+04 E0= -.23446530E+04  d E =-.379453E-03  mag=     2.0000
       N       E                     dE             d eps       ncg     rms          rms(c)
DAV:   1    -0.232321780441E+04    0.18452E-02   -0.25937E-01  4504   0.449E-01    0.123E-01
RMM:   2    -0.232322000253E+04   -0.21981E-02   -0.22790E-02  6254   0.899E-02    0.984E-02
RMM:   3    -0.232322021184E+04   -0.20931E-03   -0.22745E-03  4384   0.318E-02    0.142E-01
RMM:   4    -0.232322004462E+04    0.16722E-03   -0.25450E-04  2990   0.881E-03    0.613E-02
RMM:   5    -0.232322001649E+04    0.28131E-04   -0.70364E-05  2959   0.547E-03    0.412E-02
RMM:   6    -0.232322000186E+04    0.14631E-04   -0.79902E-05  3085   0.638E-03    0.266E-02
RMM:   7    -0.232321999687E+04    0.49869E-05   -0.29280E-05  2933   0.532E-03
  84 F= -.23446533E+04 E0= -.23446533E+04  d E =-.315725E-03  mag=     2.0000
       N       E                     dE             d eps       ncg     rms          rms(c)
DAV:   1    -0.232321964344E+04    0.35842E-03   -0.39908E-02  4560   0.176E-01    0.499E-02
RMM:   2    -0.232321998503E+04   -0.34159E-03   -0.36214E-03  6285   0.368E-02    0.330E-02
RMM:   3    -0.232322000855E+04   -0.23526E-04   -0.33208E-04  3065   0.125E-02    0.392E-02
RMM:   4    -0.232321999676E+04    0.11789E-04   -0.37388E-05  2933   0.425E-03    0.278E-02
RMM:   5    -0.232321999186E+04    0.49082E-05   -0.11068E-05  2852   0.215E-03
  85 F= -.23446533E+04 E0= -.23446533E+04  d E =-.301032E-03  mag=     2.0000
       N       E                     dE             d eps       ncg     rms          rms(c)
DAV:   1    -0.232321819195E+04    0.18048E-02   -0.25495E-01  4536   0.447E-01    0.126E-01
RMM:   2    -0.232322029484E+04   -0.21029E-02   -0.22142E-02  6254   0.888E-02    0.847E-02
RMM:   3    -0.232322042041E+04   -0.12557E-03   -0.21039E-03  4343   0.314E-02    0.833E-02
RMM:   4    -0.232322033835E+04    0.82063E-04   -0.21456E-04  2996   0.867E-03    0.479E-02
RMM:   5    -0.232322034239E+04   -0.40445E-05   -0.68457E-05  2959   0.536E-03
  86 F= -.23446537E+04 E0= -.23446537E+04  d E =-.391585E-03  mag=     2.0000
       N       E                     dE             d eps       ncg     rms          rms(c)
DAV:   1    -0.232321950457E+04    0.83378E-03   -0.94444E-02  4504   0.272E-01    0.823E-02
RMM:   2    -0.232322040281E+04   -0.89824E-03   -0.83377E-03  6395   0.551E-02    0.122E-01
RMM:   3    -0.232322036371E+04    0.39101E-04   -0.89308E-04  3516   0.199E-02    0.891E-02
RMM:   4    -0.232322031196E+04    0.51743E-04   -0.10882E-04  2960   0.688E-03    0.464E-02
RMM:   5    -0.232322028836E+04    0.23605E-04   -0.33432E-05  2908   0.394E-03    0.246E-02
RMM:   6    -0.232322027891E+04    0.94481E-05   -0.35210E-05  3000   0.456E-03
  87 F= -.23446537E+04 E0= -.23446537E+04  d E =-.353639E-03  mag=     2.0000
       N       E                     dE             d eps       ncg     rms          rms(c)
DAV:   1    -0.232321821000E+04    0.20784E-02   -0.27873E-01  4504   0.453E-01    0.126E-01
RMM:   2    -0.232322052674E+04   -0.23167E-02   -0.24842E-02  6399   0.915E-02    0.698E-02
RMM:   3    -0.232322064032E+04   -0.11358E-03   -0.21816E-03  4245   0.293E-02    0.539E-02
RMM:   4    -0.232322063323E+04    0.70882E-05   -0.21630E-04  3059   0.818E-03    0.537E-02
RMM:   5    -0.232322062786E+04    0.53691E-05   -0.57158E-05  2976   0.526E-03
  88 F= -.23446541E+04 E0= -.23446541E+04  d E =-.398089E-03  mag=     2.0000
       N       E                     dE             d eps       ncg     rms          rms(c)
DAV:   1    -0.232321996455E+04    0.66868E-03   -0.71606E-02  4560   0.230E-01    0.682E-02
RMM:   2    -0.232322059475E+04   -0.63020E-03   -0.64190E-03  6377   0.469E-02    0.741E-02
RMM:   3    -0.232322062136E+04   -0.26611E-04   -0.67215E-04  3224   0.167E-02    0.718E-02
RMM:   4    -0.232322059149E+04    0.29866E-04   -0.80249E-05  2953   0.576E-03    0.393E-02
RMM:   5    -0.232322057733E+04    0.14160E-04   -0.23594E-05  2905   0.322E-03    0.230E-02
RMM:   6    -0.232322057566E+04    0.16687E-05   -0.25250E-05  2953   0.362E-03
  89 F= -.23446541E+04 E0= -.23446541E+04  d E =-.371399E-03  mag=     2.0000
       N       E                     dE             d eps       ncg     rms          rms(c)
DAV:   1    -0.232321817471E+04    0.24026E-02   -0.33576E-01  4504   0.489E-01    0.138E-01
RMM:   2    -0.232322082029E+04   -0.26456E-02   -0.28190E-02  6308   0.957E-02    0.860E-02
RMM:   3    -0.232322099969E+04   -0.17940E-03   -0.26982E-03  4575   0.345E-02    0.990E-02
RMM:   4    -0.232322092584E+04    0.73851E-04   -0.27519E-04  3115   0.908E-03    0.719E-02
RMM:   5    -0.232322089875E+04    0.27083E-04   -0.77518E-05  2953   0.558E-03    0.504E-02
RMM:   6    -0.232322087508E+04    0.23674E-04   -0.83267E-05  3158   0.620E-03    0.295E-02
RMM:   7    -0.232322086793E+04    0.71469E-05   -0.31469E-05  2921   0.521E-03
  90 F= -.23446544E+04 E0= -.23446544E+04  d E =-.368903E-03  mag=     2.0000
       N       E                     dE             d eps       ncg     rms          rms(c)
DAV:   1    -0.232322067829E+04    0.19679E-03   -0.18868E-02  4816   0.116E-01    0.346E-02
RMM:   2    -0.232322083166E+04   -0.15337E-03   -0.16549E-03  5942   0.240E-02    0.208E-02
RMM:   3    -0.232322084120E+04   -0.95407E-05   -0.15028E-04  2943   0.892E-03    0.237E-02
RMM:   4    -0.232322083740E+04    0.37960E-05   -0.17060E-05  2929   0.307E-03
  91 F= -.23446544E+04 E0= -.23446544E+04  d E =-.356783E-03  mag=     2.0000
       N       E                     dE             d eps       ncg     rms          rms(c)
DAV:   1    -0.232321930795E+04    0.15333E-02   -0.22435E-01  4536   0.407E-01    0.117E-01
RMM:   2    -0.232322097669E+04   -0.16687E-02   -0.17807E-02  6166   0.782E-02    0.726E-02
RMM:   3    -0.232322119617E+04   -0.21948E-03   -0.17807E-03  4117   0.295E-02    0.139E-01
RMM:   4    -0.232322103583E+04    0.16034E-03   -0.18164E-04  2981   0.822E-03    0.393E-02
RMM:   5    -0.232322102859E+04    0.72386E-05   -0.73209E-05  3038   0.585E-03
  92 F= -.23446547E+04 E0= -.23446547E+04  d E =-.317749E-03  mag=     2.0000
       N       E                     dE             d eps       ncg     rms          rms(c)
DAV:   1    -0.232322087406E+04    0.16177E-03   -0.12901E-02  4952   0.981E-02    0.341E-02
RMM:   2    -0.232322099837E+04   -0.12431E-03   -0.11044E-03  5565   0.206E-02    0.450E-02
RMM:   3    -0.232322097645E+04    0.21913E-04   -0.11010E-04  2927   0.807E-03    0.221E-02
RMM:   4    -0.232322097378E+04    0.26769E-05   -0.15269E-05  2933   0.328E-03
  93 F= -.23446547E+04 E0= -.23446547E+04  d E =-.293910E-03  mag=     2.0000
       N       E                     dE             d eps       ncg     rms          rms(c)
DAV:   1    -0.232321986570E+04    0.11108E-02   -0.17088E-01  4504   0.362E-01    0.102E-01
RMM:   2    -0.232322107588E+04   -0.12102E-02   -0.12991E-02  6102   0.686E-02    0.546E-02
RMM:   3    -0.232322117414E+04   -0.98258E-04   -0.11905E-03  3797   0.264E-02    0.815E-02
RMM:   4    -0.232322112541E+04    0.48736E-04   -0.12425E-04  2981   0.711E-03    0.413E-02
RMM:   5    -0.232322111507E+04    0.10338E-04   -0.53059E-05  2984   0.522E-03    0.304E-02
RMM:   6    -0.232322110480E+04    0.10264E-04   -0.35154E-05  2943   0.495E-03    0.151E-02
RMM:   7    -0.232322110318E+04    0.16197E-05   -0.76861E-06  2882   0.329E-03
  94 F= -.23446550E+04 E0= -.23446550E+04  d E =-.243663E-03  mag=     2.0000
       N       E                     dE             d eps       ncg     rms          rms(c)
DAV:   1    -0.232322104831E+04    0.56490E-04   -0.43418E-03  4992   0.578E-02    0.177E-02
RMM:   2    -0.232322108105E+04   -0.32739E-04   -0.34585E-04  3918   0.124E-02    0.127E-02
RMM:   3    -0.232322108453E+04   -0.34717E-05   -0.39491E-05  2898   0.638E-03
  95 F= -.23446550E+04 E0= -.23446550E+04  d E =-.243374E-03  mag=     2.0000
       N       E                     dE             d eps       ncg     rms          rms(c)
DAV:   1    -0.232322031283E+04    0.76822E-03   -0.12720E-01  4504   0.323E-01    0.948E-02
RMM:   2    -0.232322122120E+04   -0.90836E-03   -0.96304E-03  6018   0.612E-02    0.628E-02
RMM:   3    -0.232322136349E+04   -0.14229E-03   -0.10171E-03  3746   0.249E-02    0.116E-01
RMM:   4    -0.232322123914E+04    0.12435E-03   -0.11446E-04  2949   0.746E-03    0.337E-02
RMM:   5    -0.232322123953E+04   -0.39389E-06   -0.47649E-05  2968   0.480E-03
  96 F= -.23446552E+04 E0= -.23446552E+04  d E =-.204603E-03  mag=     2.0000
       N       E                     dE             d eps       ncg     rms          rms(c)
DAV:   1    -0.232322121395E+04    0.25188E-04   -0.21568E-04  5376   0.155E-02    0.117E-02
RMM:   2    -0.232322122300E+04   -0.90534E-05   -0.31823E-05  2931   0.382E-03
  97 F= -.23446551E+04 E0= -.23446551E+04  d E =-.190220E-03  mag=     2.0000
       N       E                     dE             d eps       ncg     rms          rms(c)
DAV:   1    -0.232322060220E+04    0.61175E-03   -0.97788E-02  4504   0.285E-01    0.781E-02
RMM:   2    -0.232322132127E+04   -0.71907E-03   -0.76907E-03  6041   0.547E-02    0.448E-02
[...]
DAV:   1    -0.232322237000E+04    0.19879E-04   -0.32444E-03  4472   0.506E-02    0.162E-02
RMM:   2    -0.232322239052E+04   -0.20518E-04   -0.19967E-04  3748   0.984E-03    0.169E-02
RMM:   3    -0.232322238859E+04    0.19210E-05   -0.23367E-05  2818   0.557E-03
 154 F= -.23446570E+04 E0= -.23446570E+04  d E =-.147657E-04  mag=     2.0000
       N       E                     dE             d eps       ncg     rms          rms(c)
DAV:   1    -0.232322239414E+04   -0.36274E-05   -0.47678E-04  4712   0.186E-02    0.961E-03
RMM:   2    -0.232322240451E+04   -0.10363E-04   -0.38837E-05  2884   0.444E-03    0.281E-02
RMM:   3    -0.232322239670E+04    0.78074E-05   -0.67262E-06  2377   0.258E-03
 155 F= -.23446570E+04 E0= -.23446570E+04  d E =-.505810E-05  mag=     2.0000
       N       E                     dE             d eps       ncg     rms          rms(c)
DAV:   1    -0.232322239516E+04    0.93483E-05   -0.43767E-03  4424   0.558E-02    0.159E-02
RMM:   2    -0.232322242060E+04   -0.25439E-04   -0.26090E-04  3954   0.108E-02    0.147E-02
RMM:   3    -0.232322242040E+04    0.19930E-06   -0.27696E-05  2622   0.552E-03
 156 F= -.23446571E+04 E0= -.23446571E+04  d E =-.196304E-04  mag=     2.0000
       N       E                     dE             d eps       ncg     rms          rms(c)
DAV:   1    -0.232322234616E+04    0.74439E-04   -0.17476E-02  4504   0.111E-01    0.313E-02
RMM:   2    -0.232322245742E+04   -0.11126E-03   -0.10668E-03  5886   0.213E-02    0.393E-02
RMM:   3    -0.232322245626E+04    0.11600E-05   -0.11228E-04  2928   0.803E-03    0.381E-02
RMM:   4    -0.232322244659E+04    0.96764E-05   -0.16751E-05  2917   0.296E-03
 157 F= -.23446571E+04 E0= -.23446571E+04  d E =-.276112E-04  mag=     2.0000
       N       E                     dE             d eps       ncg     rms          rms(c)
DAV:   1    -0.232322245610E+04    0.16611E-06   -0.13062E-03  4384   0.301E-02    0.133E-02
RMM:   2    -0.232322246611E+04   -0.10013E-04   -0.81456E-05  3103   0.605E-03    0.173E-02
RMM:   3    -0.232322246339E+04    0.27168E-05   -0.99567E-06  2649   0.350E-03
 158 F= -.23446571E+04 E0= -.23446571E+04  d E =-.120811E-04  mag=     2.0000
       N       E                     dE             d eps       ncg     rms          rms(c)
DAV:   1    -0.232322244197E+04    0.24144E-04   -0.12058E-02  4504   0.902E-02    0.273E-02
RMM:   2    -0.232322253731E+04   -0.95342E-04   -0.74554E-04  5585   0.172E-02    0.578E-02
RMM:   3    -0.232322251410E+04    0.23202E-04   -0.79106E-05  2933   0.660E-03    0.201E-02
RMM:   4    -0.232322251022E+04    0.38866E-05   -0.80287E-06  2787   0.235E-03
 159 F= -.23446571E+04 E0= -.23446571E+04  d E =-.447694E-04  mag=     2.0000
       N       E                     dE             d eps       ncg     rms          rms(c)
DAV:   1    -0.232322227106E+04    0.24304E-03   -0.48090E-02  4504   0.180E-01    0.485E-02
RMM:   2    -0.232322255436E+04   -0.28330E-03   -0.29264E-03  6168   0.337E-02    0.429E-02
RMM:   3    -0.232322257918E+04   -0.24816E-04   -0.29445E-04  3020   0.119E-02    0.551E-02
RMM:   4    -0.232322255210E+04    0.27079E-04   -0.33300E-05  2927   0.415E-03    0.260E-02
RMM:   5    -0.232322254906E+04    0.30410E-05   -0.13622E-05  2799   0.251E-03
 160 F= -.23446571E+04 E0= -.23446571E+04  d E =-.554967E-04  mag=     2.0000
       N       E                     dE             d eps       ncg     rms          rms(c)
DAV:   1    -0.232322253856E+04    0.13537E-04   -0.51631E-03  4496   0.577E-02    0.176E-02
RMM:   2    -0.232322257247E+04   -0.33908E-04   -0.31780E-04  4080   0.113E-02    0.221E-02
RMM:   3    -0.232322256964E+04    0.28282E-05   -0.34116E-05  2882   0.549E-03
 161 F= -.23446571E+04 E0= -.23446571E+04  d E =-.154313E-04  mag=     2.0000
       N       E                     dE             d eps       ncg     rms          rms(c)
DAV:   1    -0.232322254684E+04    0.25632E-04   -0.73715E-03  4472   0.688E-02    0.222E-02
RMM:   2    -0.232322260380E+04   -0.56958E-04   -0.46458E-04  4708   0.139E-02    0.390E-02
RMM:   3    -0.232322259191E+04    0.11884E-04   -0.49863E-05  2891   0.588E-03    0.226E-02
RMM:   4    -0.232322258931E+04    0.26041E-05   -0.99123E-06  2740   0.225E-03
 162 F= -.23446572E+04 E0= -.23446572E+04  d E =-.291107E-04  mag=     2.0000
       N       E                     dE             d eps       ncg     rms          rms(c)
DAV:   1    -0.232322244655E+04    0.14536E-03   -0.29350E-02  4504   0.137E-01    0.370E-02
RMM:   2    -0.232322261038E+04   -0.16383E-03   -0.17500E-03  6080   0.258E-02    0.252E-02
RMM:   3    -0.232322261998E+04   -0.95998E-05   -0.15341E-04  2942   0.904E-03    0.318E-02
RMM:   4    -0.232322261452E+04    0.54598E-05   -0.18469E-05  2920   0.292E-03
 163 F= -.23446572E+04 E0= -.23446572E+04  d E =-.424434E-04  mag=     2.0000
       N       E                     dE             d eps       ncg     rms          rms(c)
DAV:   1    -0.232322262784E+04   -0.78614E-05   -0.59837E-03  4512   0.627E-02    0.237E-02
RMM:   2    -0.232322267313E+04   -0.45282E-04   -0.35662E-04  4517   0.124E-02    0.357E-02
RMM:   3    -0.232322266268E+04    0.10449E-04   -0.43301E-05  2912   0.602E-03    0.238E-02
RMM:   4    -0.232322265982E+04    0.28587E-05   -0.94030E-06  2727   0.217E-03
 164 F= -.23446572E+04 E0= -.23446572E+04  d E =-.457121E-04  mag=     2.0000
       N       E                     dE             d eps       ncg     rms          rms(c)
DAV:   1    -0.232322258666E+04    0.76020E-04   -0.18691E-02  4504   0.110E-01    0.348E-02
RMM:   2    -0.232322268849E+04   -0.10183E-03   -0.10852E-03  5985   0.211E-02    0.254E-02
RMM:   3    -0.232322269336E+04   -0.48746E-05   -0.10172E-04  2927   0.808E-03    0.274E-02
RMM:   4    -0.232322268444E+04    0.89252E-05   -0.13438E-05  2919   0.310E-03
 165 F= -.23446572E+04 E0= -.23446572E+04  d E =-.711005E-04  mag=     2.0000
       N       E                     dE             d eps       ncg     rms          rms(c)
DAV:   1    -0.232322267560E+04    0.17769E-04   -0.47336E-03  4564   0.560E-02    0.307E-02
RMM:   2    -0.232322280765E+04   -0.13206E-03   -0.39275E-04  4271   0.118E-02    0.109E-01
RMM:   3    -0.232322270070E+04    0.10696E-03   -0.77035E-05  2917   0.612E-03    0.141E-02
RMM:   4    -0.232322269942E+04    0.12743E-05   -0.12075E-05  2887   0.223E-03
 166 F= -.23446573E+04 E0= -.23446573E+04  d E =-.270556E-04  mag=     2.0000
       N       E                     dE             d eps       ncg     rms          rms(c)
DAV:   1    -0.232322266853E+04    0.32170E-04   -0.45400E-03  4516   0.547E-02    0.189E-02
RMM:   2    -0.232322269632E+04   -0.27792E-04   -0.28710E-04  3934   0.108E-02    0.181E-02
RMM:   3    -0.232322269841E+04   -0.20924E-05   -0.31219E-05  2903   0.581E-03
 167 F= -.23446573E+04 E0= -.23446573E+04  d E =-.378933E-04  mag=     2.0000
       N       E                     dE             d eps       ncg     rms          rms(c)
DAV:   1    -0.232322268620E+04    0.10116E-04   -0.55226E-03  4504   0.643E-02    0.224E-02
RMM:   2    -0.232322272369E+04   -0.37489E-04   -0.35953E-04  4407   0.135E-02    0.237E-02
RMM:   3    -0.232322272260E+04    0.10868E-05   -0.38766E-05  2910   0.639E-03
 168 F= -.23446573E+04 E0= -.23446573E+04  d E =-.348102E-04  mag=     2.0000
       N       E                     dE             d eps       ncg     rms          rms(c)
DAV:   1    -0.232322270913E+04    0.14561E-04   -0.20318E-03  4624   0.389E-02    0.224E-02
RMM:   2    -0.232322276691E+04   -0.57780E-04   -0.17853E-04  3372   0.879E-03    0.728E-02
RMM:   3    -0.232322271891E+04    0.47998E-04   -0.37145E-05  2910   0.494E-03    0.132E-02
RMM:   4    -0.232322271827E+04    0.63838E-06   -0.78177E-06  2737   0.186E-03
 169 F= -.23446573E+04 E0= -.23446573E+04  d E =-.369001E-04  mag=     2.0000
       N       E                     dE             d eps       ncg     rms          rms(c)
DAV:   1    -0.232322272007E+04   -0.11574E-05   -0.52519E-03  4504   0.644E-02    0.202E-02
RMM:   2    -0.232322274995E+04   -0.29885E-04   -0.30641E-04  4619   0.125E-02    0.185E-02
RMM:   3    -0.232322275411E+04   -0.41503E-05   -0.31889E-05  2900   0.600E-03
 170 F= -.23446573E+04 E0= -.23446573E+04  d E =-.324673E-04  mag=     2.0000
       N       E                     dE             d eps       ncg     rms          rms(c)
DAV:   1    -0.232322274726E+04    0.26911E-05   -0.44151E-04  5136   0.188E-02    0.102E-02
RMM:   2    -0.232322275218E+04   -0.49171E-05   -0.32288E-05  2794   0.436E-03
 171 F= -.23446573E+04 E0= -.23446573E+04  d E =-.295857E-04  mag=     2.0000
       N       E                     dE             d eps       ncg     rms          rms(c)
DAV:   1    -0.232322275260E+04   -0.53332E-05   -0.52772E-03  4504   0.672E-02    0.210E-02
RMM:   2    -0.232322278117E+04   -0.28571E-04   -0.28916E-04  4600   0.134E-02    0.204E-02
RMM:   3    -0.232322278516E+04   -0.39967E-05   -0.36443E-05  2918   0.688E-03
 172 F= -.23446574E+04 E0= -.23446574E+04  d E =-.255448E-04  mag=     2.0000
       N       E                     dE             d eps       ncg     rms          rms(c)
DAV:   1    -0.232322278002E+04    0.11512E-05   -0.25926E-04  5216   0.151E-02    0.102E-02
RMM:   2    -0.232322278597E+04   -0.59548E-05   -0.22390E-05  2663   0.366E-03
 173 F= -.23446574E+04 E0= -.23446574E+04  d E =-.247603E-04  mag=     2.0000
       N       E                     dE             d eps       ncg     rms          rms(c)
DAV:   1    -0.232322278070E+04   -0.68151E-06   -0.44739E-03  4504   0.634E-02    0.195E-02
RMM:   2    -0.232322280551E+04   -0.24813E-04   -0.25776E-04  4517   0.130E-02    0.184E-02
RMM:   3    -0.232322280900E+04   -0.34925E-05   -0.27677E-05  2884   0.627E-03
 174 F= -.23446574E+04 E0= -.23446574E+04  d E =-.220748E-04  mag=     2.0000
       N       E                     dE             d eps       ncg     rms          rms(c)
DAV:   1    -0.232322280332E+04    0.21938E-05   -0.64331E-05  4392   0.763E-03    0.857E-03
RMM:   2    -0.232322280756E+04   -0.42397E-05   -0.96098E-06  2483   0.332E-03
 175 F= -.23446574E+04 E0= -.23446574E+04  d E =-.205383E-04  mag=     2.0000
       N       E                     dE             d eps       ncg     rms          rms(c)
DAV:   1    -0.232322280775E+04   -0.44291E-05   -0.41550E-03  4504   0.596E-02    0.184E-02
RMM:   2    -0.232322283035E+04   -0.22599E-04   -0.22045E-04  4369   0.118E-02    0.197E-02
RMM:   3    -0.232322283118E+04   -0.83361E-06   -0.23609E-05  2828   0.586E-03
 176 F= -.23446574E+04 E0= -.23446574E+04  d E =-.171304E-04  mag=     2.0000
       N       E                     dE             d eps       ncg     rms          rms(c)
DAV:   1    -0.232322282757E+04    0.27708E-05   -0.25241E-05  3656   0.403E-03    0.965E-03
RMM:   2    -0.232322283601E+04   -0.84358E-05   -0.11477E-05  2464   0.235E-03
 177 F= -.23446574E+04 E0= -.23446574E+04  d E =-.218783E-04  mag=     2.0000
       N       E                     dE             d eps       ncg     rms          rms(c)
DAV:   1    -0.232322282281E+04    0.47637E-05   -0.42176E-03  4504   0.600E-02    0.180E-02
RMM:   2    -0.232322284558E+04   -0.22764E-04   -0.21453E-04  4281   0.114E-02    0.211E-02
RMM:   3    -0.232322284574E+04   -0.16550E-06   -0.24122E-05  2808   0.589E-03
 178 F= -.23446574E+04 E0= -.23446574E+04  d E =-.113150E-04  mag=     2.0000
       N       E                     dE             d eps       ncg     rms          rms(c)
DAV:   1    -0.232322284174E+04    0.38387E-05   -0.49169E-05  4232   0.652E-03    0.978E-03
RMM:   2    -0.232322284989E+04   -0.81584E-05   -0.13904E-05  2498   0.322E-03
 179 F= -.23446574E+04 E0= -.23446574E+04  d E =-.156123E-04  mag=     2.0000
       N       E                     dE             d eps       ncg     rms          rms(c)
DAV:   1    -0.232322283369E+04    0.80507E-05   -0.44272E-03  4504   0.610E-02    0.187E-02
RMM:   2    -0.232322285814E+04   -0.24456E-04   -0.23356E-04  4327   0.121E-02    0.199E-02
RMM:   3    -0.232322285742E+04    0.71732E-06   -0.24413E-05  2813   0.593E-03
 180 F= -.23446574E+04 E0= -.23446574E+04  d E =-.143228E-04  mag=     2.0000
       N       E                     dE             d eps       ncg     rms          rms(c)
DAV:   1    -0.232322285458E+04    0.35658E-05   -0.46712E-05  4136   0.614E-03    0.126E-02
RMM:   2    -0.232322287512E+04   -0.20545E-04   -0.24494E-05  2652   0.357E-03    0.464E-02
RMM:   3    -0.232322285372E+04    0.21399E-04   -0.92226E-06  2112   0.213E-03    0.796E-03
RMM:   4    -0.232322285287E+04    0.85292E-06   -0.14088E-06  1314   0.944E-04
 181 F= -.23446574E+04 E0= -.23446574E+04  d E =-.102640E-04  mag=     2.0000
       N       E                     dE             d eps       ncg     rms          rms(c)
DAV:   1    -0.232322285558E+04   -0.18545E-05   -0.35748E-03  4456   0.543E-02    0.165E-02
RMM:   2    -0.232322287457E+04   -0.18997E-04   -0.18445E-04  3968   0.992E-03    0.170E-02
RMM:   3    -0.232322287547E+04   -0.89906E-06   -0.20321E-05  2677   0.528E-03
 182 F= -.23446575E+04 E0= -.23446575E+04  d E =-.201263E-04  mag=     2.0000
       N       E                     dE             d eps       ncg     rms          rms(c)
DAV:   1    -0.232322287241E+04    0.21581E-05   -0.12470E-04  5096   0.103E-02    0.920E-03
RMM:   2    -0.232322287660E+04   -0.41899E-05   -0.14232E-05  2504   0.278E-03
 183 F= -.23446575E+04 E0= -.23446575E+04  d E =-.208245E-04  mag=     2.0000
       N       E                     dE             d eps       ncg     rms          rms(c)
DAV:   1    -0.232322286376E+04    0.86520E-05   -0.26582E-03  4440   0.460E-02    0.143E-02
RMM:   2    -0.232322287861E+04   -0.14846E-04   -0.14341E-04  3458   0.902E-03    0.165E-02
RMM:   3    -0.232322287945E+04   -0.84373E-06   -0.16918E-05  2574   0.539E-03
 184 F= -.23446575E+04 E0= -.23446575E+04  d E =-.115426E-04  mag=     2.0000
       N       E                     dE             d eps       ncg     rms          rms(c)
DAV:   1    -0.232322287607E+04    0.25405E-05   -0.18746E-05  3488   0.403E-03    0.642E-03
RMM:   2    -0.232322287721E+04   -0.11371E-05   -0.45388E-06  2316   0.222E-03
 185 F= -.23446575E+04 E0= -.23446575E+04  d E =-.978743E-05  mag=     2.0000
       N       E                     dE             d eps       ncg     rms          rms(c)
DAV:   1    -0.232322287382E+04    0.22498E-05   -0.13133E-03  4248   0.315E-02    0.104E-02
RMM:   2    -0.232322288536E+04   -0.11542E-04   -0.77968E-05  2964   0.637E-03    0.231E-02
RMM:   3    -0.232322288095E+04    0.44139E-05   -0.89616E-06  2329   0.351E-03
 186 F= -.23446575E+04 E0= -.23446575E+04  d E =-.838168E-05  mag=     2.0000
       N       E                     dE             d eps       ncg     rms          rms(c)
DAV:   1    -0.232322287747E+04    0.78938E-05   -0.46962E-04  4208   0.187E-02    0.710E-03
RMM:   2    -0.232322288028E+04   -0.28142E-05   -0.26075E-05  2606   0.396E-03
 187 F= -.23446575E+04 E0= -.23446575E+04  d E =-.105187E-04  mag=     2.0000
       N       E                     dE             d eps       ncg     rms          rms(c)
DAV:   1    -0.232322288805E+04   -0.10578E-04   -0.61725E-04  4244   0.222E-02    0.920E-03
RMM:   2    -0.232322289712E+04   -0.90708E-05   -0.43157E-05  2945   0.549E-03
 188 F= -.23446575E+04 E0= -.23446575E+04  d E =-.163133E-04  mag=     2.0000
       N       E                     dE             d eps       ncg     rms          rms(c)
DAV:   1    -0.232322289223E+04   -0.41887E-05   -0.14639E-04  4832   0.114E-02    0.663E-03
RMM:   2    -0.232322289429E+04   -0.20600E-05   -0.10677E-05  2459   0.307E-03
 189 F= -.23446575E+04 E0= -.23446575E+04  d E =-.132646E-04  mag=     2.0000
       N       E                     dE             d eps       ncg     rms          rms(c)
DAV:   1    -0.232322289968E+04   -0.74413E-05   -0.41969E-04  4224   0.190E-02    0.738E-03
RMM:   2    -0.232322290274E+04   -0.30630E-05   -0.29877E-05  2511   0.472E-03
 190 F= -.23446575E+04 E0= -.23446575E+04  d E =-.450198E-05  mag=     2.0000
       N       E                     dE             d eps       ncg     rms          rms(c)
DAV:   1    -0.232322290395E+04   -0.42772E-05   -0.39594E-05  3016   0.651E-03    0.852E-03
RMM:   2    -0.232322291503E+04   -0.11081E-04   -0.15377E-05  2446   0.388E-03    0.352E-02
RMM:   3    -0.232322290388E+04    0.11154E-04   -0.45580E-06  2226   0.184E-03    0.278E-03
RMM:   4    -0.232322290367E+04    0.20931E-06   -0.59836E-07  1885   0.998E-04
 191 F= -.23446575E+04 E0= -.23446575E+04  d E =-.437324E-05  mag=     2.0000
       N       E                     dE             d eps       ncg     rms          rms(c)
DAV:   1    -0.232322290693E+04   -0.30526E-05   -0.34761E-04  4192   0.166E-02    0.538E-03
RMM:   2    -0.232322290950E+04   -0.25699E-05   -0.24522E-05  2479   0.362E-03
 192 F= -.23446575E+04 E0= -.23446575E+04  d E =-.454451E-05  mag=     2.0000
       N       E                     dE             d eps       ncg     rms          rms(c)
DAV:   1    -0.232322290989E+04   -0.29618E-05   -0.17721E-05  2728   0.450E-03    0.591E-03
RMM:   2    -0.232322291525E+04   -0.53601E-05   -0.75683E-06  2294   0.267E-03
 193 F= -.23446575E+04 E0= -.23446575E+04  d E =-.100586E-04  mag=     2.0000
       N       E                     dE             d eps       ncg     rms          rms(c)
DAV:   1    -0.232322290718E+04    0.27112E-05   -0.33376E-04  4472   0.156E-02    0.553E-03
RMM:   2    -0.232322291012E+04   -0.29330E-05   -0.27339E-05  2495   0.368E-03
 194 F= -.23446575E+04 E0= -.23446575E+04  d E =-.485167E-06  mag=     2.0000
       N       E                     dE             d eps       ncg     rms          rms(c)
DAV:   1    -0.232322290740E+04   -0.22008E-06   -0.87959E-05  3912   0.839E-03    0.462E-03
RMM:   2    -0.232322290901E+04   -0.16037E-05   -0.10321E-05  2381   0.281E-03
 195 F= -.23446575E+04 E0= -.23446575E+04  d E =-.229802E-05  mag=     2.0000
       N       E                     dE             d eps       ncg     rms          rms(c)
DAV:   1    -0.232322290698E+04    0.42350E-06   -0.33665E-04  4168   0.155E-02    0.591E-03
RMM:   2    -0.232322291046E+04   -0.34782E-05   -0.25102E-05  2447   0.396E-03
 196 F= -.23446575E+04 E0= -.23446575E+04  d E =-.631944E-05  mag=     2.0000
       N       E                     dE             d eps       ncg     rms          rms(c)
DAV:   1    -0.232322290795E+04   -0.97147E-06   -0.59660E-05  3160   0.702E-03    0.501E-03
RMM:   2    -0.232322291042E+04   -0.24654E-05   -0.77988E-06  2339   0.345E-03
 197 F= -.23446575E+04 E0= -.23446575E+04  d E =-.815580E-05  mag=     2.0000
       N       E                     dE             d eps       ncg     rms          rms(c)
DAV:   1    -0.232322290996E+04   -0.20085E-05   -0.22841E-04  4224   0.124E-02    0.474E-03
RMM:   2    -0.232322291149E+04   -0.15344E-05   -0.16264E-05  2408   0.303E-03
 198 F= -.23446575E+04 E0= -.23446575E+04  d E =-.152977E-05  mag=     2.0000
       N       E                     dE             d eps       ncg     rms          rms(c)
DAV:   1    -0.232322291194E+04   -0.19792E-05   -0.42186E-05  2888   0.562E-03    0.629E-03
RMM:   2    -0.232322291801E+04   -0.60704E-05   -0.93107E-06  2361   0.281E-03
 199 F= -.23446575E+04 E0= -.23446575E+04  d E =-.823812E-05  mag=     2.0000
       N       E                     dE             d eps       ncg     rms          rms(c)
DAV:   1    -0.232322291163E+04    0.31198E-06   -0.18045E-04  4440   0.111E-02    0.425E-03
RMM:   2    -0.232322291268E+04   -0.10575E-05   -0.12566E-05  2389   0.263E-03
 200 F= -.23446575E+04 E0= -.23446575E+04  d E =-.329849E-05  mag=     2.0000
       N       E                     dE             d eps       ncg     rms          rms(c)
DAV:   1    -0.232322291592E+04   -0.42894E-05   -0.34381E-04  4176   0.147E-02    0.571E-03
RMM:   2    -0.232322291978E+04   -0.38676E-05   -0.25996E-05  2461   0.377E-03
 201 F= -.23446575E+04 E0= -.23446575E+04  d E =-.688502E-05  mag=     2.0000
