       N       E                     dE             d eps       ncg     rms          rms(c)
DAV:   1     0.129477751978E+05    0.12948E+05   -0.83359E+05  4472   0.144E+03
DAV:   2    -0.102843070789E+04   -0.13976E+05   -0.13372E+05  5088   0.331E+02
DAV:   3    -0.246470462821E+04   -0.14363E+04   -0.14213E+04  5384   0.113E+02
DAV:   4    -0.250955320618E+04   -0.44849E+02   -0.44614E+02  6720   0.296E+01
DAV:   5    -0.251033436944E+04   -0.78116E+00   -0.77997E+00  6080   0.343E+00    0.170E+02
RMM:   6    -0.148734666004E+04    0.10230E+04   -0.19192E+03  4412   0.384E+01    0.755E+01
RMM:   7    -0.167481023510E+04   -0.18746E+03   -0.36690E+02  4990   0.143E+01    0.596E+01
RMM:   8    -0.169928826736E+04   -0.24478E+02   -0.10020E+02  5305   0.857E+00    0.454E+01
RMM:   9    -0.173635942459E+04   -0.37071E+02   -0.55001E+01  4855   0.602E+00    0.348E+01
RMM:  10    -0.189196557807E+04   -0.15561E+03   -0.75275E+01  4971   0.798E+00    0.323E+01
RMM:  11    -0.196657230504E+04   -0.74607E+02   -0.39348E+01  5175   0.546E+00    0.239E+01
RMM:  12    -0.202372141297E+04   -0.57149E+02   -0.22242E+01  5110   0.398E+00    0.188E+01
RMM:  13    -0.208221978213E+04   -0.58498E+02   -0.19406E+01  4873   0.355E+00    0.133E+01
RMM:  14    -0.218379808224E+04   -0.10158E+03   -0.65067E+01  4634   0.593E+00    0.960E+00
RMM:  15    -0.226273374146E+04   -0.78936E+02   -0.65652E+01  4450   0.570E+00    0.659E+00
RMM:  16    -0.229166729434E+04   -0.28934E+02   -0.27864E+01  4541   0.400E+00    0.455E+00
RMM:  17    -0.229627294494E+04   -0.46057E+01   -0.57848E+00  5238   0.197E+00    0.387E+00
RMM:  18    -0.229819054457E+04   -0.19176E+01   -0.15598E+00  4836   0.779E-01    0.225E+00
RMM:  19    -0.230056103650E+04   -0.23705E+01   -0.11767E+00  4575   0.778E-01    0.134E+00
RMM:  20    -0.230132595905E+04   -0.76492E+00   -0.50420E-01  4715   0.459E-01    0.723E-01
RMM:  21    -0.230147405941E+04   -0.14810E+00   -0.17720E-01  4811   0.240E-01    0.467E-01
RMM:  22    -0.230157241001E+04   -0.98351E-01   -0.77511E-02  4608   0.147E-01    0.272E-01
RMM:  23    -0.230161314606E+04   -0.40736E-01   -0.24121E-02  4642   0.104E-01    0.213E-01
RMM:  24    -0.230163458781E+04   -0.21442E-01   -0.98511E-03  4536   0.672E-02    0.140E-01
RMM:  25    -0.230164787443E+04   -0.13287E-01   -0.31324E-03  4487   0.474E-02    0.914E-02
RMM:  26    -0.230166266763E+04   -0.14793E-01   -0.46650E-03  4399   0.469E-02    0.610E-02
RMM:  27    -0.230166776887E+04   -0.51012E-02   -0.14108E-03  4388   0.342E-02    0.441E-02
RMM:  28    -0.230167122271E+04   -0.34538E-02   -0.94764E-04  4105   0.196E-02    0.243E-02
RMM:  29    -0.230167244624E+04   -0.12235E-02   -0.32556E-04  3944   0.176E-02    0.160E-02
RMM:  30    -0.230167295834E+04   -0.51209E-03   -0.17473E-04  3704   0.897E-03    0.101E-02
RMM:  31    -0.230167310867E+04   -0.15034E-03   -0.45243E-05  3429   0.784E-03    0.594E-03
RMM:  32    -0.230167318300E+04   -0.74327E-04   -0.25967E-05  3182   0.414E-03    0.255E-03
RMM:  33    -0.230167320856E+04   -0.25561E-04   -0.87420E-06  2855   0.362E-03    0.181E-03
RMM:  34    -0.230167322246E+04   -0.13898E-04   -0.50581E-06  2519   0.233E-03    0.105E-03
RMM:  35    -0.230167322678E+04   -0.43231E-05   -0.24106E-06  2408   0.193E-03
   1 F= -.23223914E+04 E0= -.23223914E+04  d E =-.232239E+04  mag=     5.0000
       N       E                     dE             d eps       ncg     rms          rms(c)
DAV:   1    -0.230161770535E+04    0.55517E-01   -0.46786E+01  4832   0.389E+00    0.174E+00
RMM:   2    -0.230215894441E+04   -0.54124E+00   -0.55209E+00  6066   0.105E+00    0.135E+00
RMM:   3    -0.230219556348E+04   -0.36619E-01   -0.58654E-01  5748   0.395E-01    0.155E+00
RMM:   4    -0.230217793365E+04    0.17630E-01   -0.44891E-02  5842   0.880E-02    0.637E-01
RMM:   5    -0.230217605051E+04    0.18831E-02   -0.11448E-02  5693   0.475E-02    0.599E-01
RMM:   6    -0.230217406183E+04    0.19887E-02   -0.97586E-03  5712   0.459E-02    0.428E-01
RMM:   7    -0.230217225707E+04    0.18048E-02   -0.20949E-03  5201   0.279E-02    0.930E-02
RMM:   8    -0.230217211600E+04    0.14107E-03   -0.48738E-04  4656   0.119E-02    0.827E-02
RMM:   9    -0.230217200437E+04    0.11163E-03   -0.24637E-04  3706   0.103E-02    0.337E-02
RMM:  10    -0.230217196440E+04    0.39971E-04   -0.62129E-05  3475   0.610E-03    0.175E-02
RMM:  11    -0.230217195356E+04    0.10839E-04   -0.36355E-05  3076   0.580E-03    0.103E-02
RMM:  12    -0.230217195914E+04   -0.55769E-05   -0.27464E-05  3065   0.515E-03
   2 F= -.23228849E+04 E0= -.23228849E+04  d E =-.493438E+00  mag=     5.0000
       N       E                     dE             d eps       ncg     rms          rms(c)
DAV:   1    -0.230110286269E+04    0.10691E+01   -0.11200E+02  4528   0.621E+00    0.267E+00
RMM:   2    -0.230247437008E+04   -0.13715E+01   -0.13934E+01  6120   0.174E+00    0.246E+00
RMM:   3    -0.230252755130E+04   -0.53181E-01   -0.14116E+00  5440   0.694E-01    0.219E+00
RMM:   4    -0.230249356321E+04    0.33988E-01   -0.11340E-01  5667   0.142E-01    0.108E+00
RMM:   5    -0.230248751541E+04    0.60478E-02   -0.31793E-02  5956   0.820E-02    0.968E-01
RMM:   6    -0.230248165667E+04    0.58587E-02   -0.25438E-02  5689   0.770E-02    0.685E-01
RMM:   7    -0.230247731740E+04    0.43393E-02   -0.64310E-03  5508   0.481E-02    0.175E-01
RMM:   8    -0.230247676064E+04    0.55675E-03   -0.12911E-03  4991   0.184E-02    0.117E-01
RMM:   9    -0.230247647460E+04    0.28604E-03   -0.59981E-04  4634   0.172E-02    0.501E-02
RMM:  10    -0.230247638381E+04    0.90787E-04   -0.19518E-04  4380   0.930E-03    0.275E-02
RMM:  11    -0.230247635891E+04    0.24906E-04   -0.82661E-05  3722   0.817E-03    0.158E-02
RMM:  12    -0.230247636733E+04   -0.84255E-05   -0.65427E-05  3732   0.657E-03
   3 F= -.23231865E+04 E0= -.23231865E+04  d E =-.795042E+00  mag=     5.0000
       N       E                     dE             d eps       ncg     rms          rms(c)
DAV:   1    -0.230186795458E+04    0.60840E+00   -0.64288E+01  4512   0.716E+00    0.295E+00
RMM:   2    -0.230256434666E+04   -0.69639E+00   -0.71244E+00  5897   0.164E+00    0.257E+00
RMM:   3    -0.230258287532E+04   -0.18529E-01   -0.63838E-01  5769   0.555E-01    0.249E+00
RMM:   4    -0.230251755755E+04    0.65318E-01   -0.75009E-02  5507   0.167E-01    0.667E-01
RMM:   5    -0.230250984863E+04    0.77089E-02   -0.25753E-02  5279   0.113E-01    0.390E-01
RMM:   6    -0.230251079835E+04   -0.94972E-03   -0.10715E-02  5546   0.726E-02    0.613E-01
RMM:   7    -0.230250764511E+04    0.31532E-02   -0.36919E-03  5444   0.443E-02    0.162E-01
RMM:   8    -0.230250717494E+04    0.47017E-03   -0.88092E-04  4983   0.150E-02    0.743E-02
RMM:   9    -0.230250697338E+04    0.20157E-03   -0.30376E-04  4892   0.131E-02    0.413E-02
RMM:  10    -0.230250688443E+04    0.88948E-04   -0.15091E-04  4572   0.101E-02    0.198E-02
RMM:  11    -0.230250686916E+04    0.15272E-04   -0.53233E-05  3714   0.765E-03    0.139E-02
RMM:  12    -0.230250687306E+04   -0.39031E-05   -0.48480E-05  3696   0.590E-03
   4 F= -.23232175E+04 E0= -.23232175E+04  d E =-.310393E-01  mag=     5.0000
       N       E                     dE             d eps       ncg     rms          rms(c)
DAV:   1    -0.230245228164E+04    0.54588E-01   -0.13043E+01  4608   0.327E+00    0.137E+00
RMM:   2    -0.230258231797E+04   -0.13004E+00   -0.13862E+00  5882   0.746E-01    0.936E-01
RMM:   3    -0.230259718354E+04   -0.14866E-01   -0.14941E-01  5741   0.265E-01    0.128E+00
RMM:   4    -0.230258102185E+04    0.16162E-01   -0.16168E-02  5676   0.748E-02    0.314E-01
RMM:   5    -0.230258092542E+04    0.96431E-04   -0.54632E-03  5404   0.497E-02    0.408E-01
RMM:   6    -0.230257953450E+04    0.13909E-02   -0.31177E-03  5613   0.349E-02    0.191E-01
RMM:   7    -0.230257908888E+04    0.44562E-03   -0.74710E-04  5048   0.218E-02    0.499E-02
RMM:   8    -0.230257903085E+04    0.58031E-04   -0.17405E-04  4291   0.995E-03    0.308E-02
RMM:   9    -0.230257899141E+04    0.39445E-04   -0.52126E-05  3392   0.724E-03    0.157E-02
RMM:  10    -0.230257897363E+04    0.17777E-04   -0.38820E-05  3395   0.578E-03    0.103E-02
RMM:  11    -0.230257897176E+04    0.18726E-05   -0.12224E-05  2834   0.493E-03
   5 F= -.23232894E+04 E0= -.23232894E+04  d E =-.102927E+00  mag=     5.0000
       N       E                     dE             d eps       ncg     rms          rms(c)
DAV:   1    -0.230237209716E+04    0.20688E+00   -0.96199E+00  4560   0.248E+00    0.122E+00
RMM:   2    -0.230268627677E+04   -0.31418E+00   -0.29571E+00  6150   0.779E-01    0.220E+00
RMM:   3    -0.230266564342E+04    0.20633E-01   -0.31812E-01  5666   0.331E-01    0.668E-01
RMM:   4    -0.230266373616E+04    0.19073E-02   -0.28940E-02  5365   0.638E-02    0.383E-01
RMM:   5    -0.230266350960E+04    0.22657E-03   -0.35691E-03  5201   0.344E-02    0.445E-01
RMM:   6    -0.230266162951E+04    0.18801E-02   -0.29820E-03  5711   0.279E-02    0.235E-01
RMM:   7    -0.230266112231E+04    0.50720E-03   -0.16359E-03  4988   0.220E-02    0.613E-02
RMM:   8    -0.230266111292E+04    0.93880E-05   -0.12122E-04  3490   0.931E-03    0.347E-02
RMM:   9    -0.230266113570E+04   -0.22777E-04   -0.60735E-05  3244   0.629E-03    0.187E-02
RMM:  10    -0.230266116294E+04   -0.27246E-04   -0.23595E-05  2943   0.444E-03    0.126E-02
RMM:  11    -0.230266119097E+04   -0.28029E-04   -0.12196E-05  2871   0.362E-03    0.517E-03
RMM:  12    -0.230266121141E+04   -0.20435E-04   -0.72870E-06  2834   0.306E-03    0.309E-03
RMM:  13    -0.230266122488E+04   -0.13469E-04   -0.58800E-06  2786   0.263E-03    0.248E-03
RMM:  14    -0.230266123013E+04   -0.52582E-05   -0.33500E-06  2676   0.234E-03
   6 F= -.23233723E+04 E0= -.23233723E+04  d E =-.829016E-01  mag=     5.0000
       N       E                     dE             d eps       ncg     rms          rms(c)
DAV:   1    -0.230263735376E+04    0.23871E-01   -0.96115E-01  4624   0.768E-01    0.384E-01
RMM:   2    -0.230266867523E+04   -0.31321E-01   -0.29399E-01  6106   0.244E-01    0.686E-01
RMM:   3    -0.230266644223E+04    0.22330E-02   -0.30050E-02  5413   0.995E-02    0.204E-01
RMM:   4    -0.230266629133E+04    0.15090E-03   -0.28981E-03  4804   0.200E-02    0.134E-01
RMM:   5    -0.230266625213E+04    0.39199E-04   -0.32959E-04  3401   0.104E-02    0.133E-01
RMM:   6    -0.230266605473E+04    0.19740E-03   -0.33285E-04  4325   0.103E-02    0.692E-02
RMM:   7    -0.230266600960E+04    0.45131E-04   -0.15946E-04  3517   0.860E-03    0.235E-02
RMM:   8    -0.230266600666E+04    0.29472E-05   -0.29958E-05  2985   0.454E-03
   7 F= -.23233773E+04 E0= -.23233773E+04  d E =-.878594E-01  mag=     5.0000
       N       E                     dE             d eps       ncg     rms          rms(c)
DAV:   1    -0.230258382248E+04    0.82187E-01   -0.52067E+00  4496   0.222E+00    0.897E-01
RMM:   2    -0.230270347558E+04   -0.11965E+00   -0.11843E+00  5907   0.564E-01    0.115E+00
RMM:   3    -0.230270244156E+04    0.10340E-02   -0.12121E-01  5712   0.218E-01    0.646E-01
RMM:   4    -0.230269859638E+04    0.38452E-02   -0.11016E-02  5405   0.503E-02    0.255E-01
RMM:   5    -0.230269854962E+04    0.46760E-04   -0.22086E-03  5306   0.282E-02    0.294E-01
RMM:   6    -0.230269774680E+04    0.80282E-03   -0.14567E-03  5227   0.213E-02    0.138E-01
RMM:   7    -0.230269759294E+04    0.15386E-03   -0.55153E-04  4904   0.165E-02    0.551E-02
RMM:   8    -0.230269756441E+04    0.28535E-04   -0.10305E-04  3565   0.828E-03    0.263E-02
RMM:   9    -0.230269755396E+04    0.10444E-04   -0.24872E-05  2946   0.564E-03    0.119E-02
RMM:  10    -0.230269755106E+04    0.28969E-05   -0.12383E-05  2856   0.377E-03
   8 F= -.23234087E+04 E0= -.23234087E+04  d E =-.314622E-01  mag=     5.0000
       N       E                     dE             d eps       ncg     rms          rms(c)
DAV:   1    -0.230268409181E+04    0.13462E-01   -0.75478E-01  4656   0.843E-01    0.336E-01
RMM:   2    -0.230270083040E+04   -0.16739E-01   -0.16712E-01  5943   0.213E-01    0.407E-01
RMM:   3    -0.230270104086E+04   -0.21047E-03   -0.17725E-02  5707   0.835E-02    0.253E-01
RMM:   4    -0.230270046999E+04    0.57088E-03   -0.16009E-03  4852   0.195E-02    0.104E-01
RMM:   5    -0.230270046184E+04    0.81493E-05   -0.31190E-04  3710   0.112E-02    0.115E-01
RMM:   6    -0.230270031923E+04    0.14261E-03   -0.23467E-04  4271   0.101E-02    0.411E-02
RMM:   7    -0.230270030625E+04    0.12976E-04   -0.75346E-05  3364   0.785E-03    0.195E-02
RMM:   8    -0.230270030278E+04    0.34765E-05   -0.19121E-05  2943   0.492E-03
   9 F= -.23234114E+04 E0= -.23234114E+04  d E =-.341681E-01  mag=     5.0000
       N       E                     dE             d eps       ncg     rms          rms(c)
DAV:   1    -0.230267136818E+04    0.28938E-01   -0.25031E+00  4496   0.138E+00    0.541E-01
RMM:   2    -0.230272548206E+04   -0.54114E-01   -0.55086E-01  6040   0.360E-01    0.620E-01
RMM:   3    -0.230272741673E+04   -0.19347E-02   -0.53307E-02  5678   0.135E-01    0.429E-01
RMM:   4    -0.230272589651E+04    0.15202E-02   -0.48069E-03  5354   0.306E-02    0.161E-01
RMM:   5    -0.230272577749E+04    0.11902E-03   -0.73017E-04  4649   0.145E-02    0.149E-01
RMM:   6    -0.230272563888E+04    0.13861E-03   -0.46742E-04  3995   0.117E-02    0.997E-02
RMM:   7    -0.230272556504E+04    0.73838E-04   -0.20444E-04  4043   0.954E-03    0.333E-02
RMM:   8    -0.230272555624E+04    0.88078E-05   -0.33160E-05  2990   0.588E-03
  10 F= -.23234366E+04 E0= -.23234366E+04  d E =-.251575E-01  mag=     5.0000
       N       E                     dE             d eps       ncg     rms          rms(c)
DAV:   1    -0.230225984835E+04    0.46572E+00   -0.22449E+01  4456   0.416E+00    0.166E+00
RMM:   2    -0.230277933092E+04   -0.51948E+00   -0.52216E+00  6066   0.112E+00    0.211E+00
RMM:   3    -0.230277161105E+04    0.77199E-02   -0.49916E-01  5516   0.421E-01    0.105E+00
RMM:   4    -0.230276339445E+04    0.82166E-02   -0.44527E-02  5644   0.895E-02    0.508E-01
RMM:   5    -0.230276243015E+04    0.96430E-03   -0.74173E-03  5434   0.443E-02    0.479E-01
RMM:   6    -0.230276103336E+04    0.13968E-02   -0.42455E-03  5480   0.326E-02    0.318E-01
RMM:   7    -0.230276023275E+04    0.80062E-03   -0.16756E-03  5106   0.245E-02    0.883E-02
RMM:   8    -0.230276016462E+04    0.68131E-04   -0.33235E-04  4379   0.135E-02    0.484E-02
RMM:   9    -0.230276013711E+04    0.27508E-04   -0.94272E-05  3524   0.820E-03    0.228E-02
RMM:  10    -0.230276012746E+04    0.96466E-05   -0.25859E-05  2910   0.520E-03
  11 F= -.23234707E+04 E0= -.23234707E+04  d E =-.593255E-01  mag=     5.0000
       N       E                     dE             d eps       ncg     rms          rms(c)
DAV:   1    -0.230275051121E+04    0.96259E-02   -0.16894E+00  4560   0.104E+00    0.397E-01
RMM:   2    -0.230278103024E+04   -0.30519E-01   -0.32325E-01  6259   0.268E-01    0.309E-01
RMM:   3    -0.230278345289E+04   -0.24227E-02   -0.31143E-02  5702   0.936E-02    0.334E-01
RMM:   4    -0.230278264928E+04    0.80361E-03   -0.28183E-03  4669   0.233E-02    0.147E-01
RMM:   5    -0.230278251605E+04    0.13323E-03   -0.47934E-04  3924   0.107E-02    0.107E-01
RMM:   6    -0.230278248375E+04    0.32305E-04   -0.29511E-04  3179   0.961E-03    0.878E-02
RMM:   7    -0.230278242633E+04    0.57416E-04   -0.10428E-04  3323   0.736E-03    0.227E-02
RMM:   8    -0.230278242498E+04    0.13534E-05   -0.12204E-05  2902   0.468E-03
  12 F= -.23234928E+04 E0= -.23234928E+04  d E =-.220321E-01  mag=     5.0000
       N       E                     dE             d eps       ncg     rms          rms(c)
DAV:   1    -0.230254463457E+04    0.23779E+00   -0.15159E+01  4456   0.313E+00    0.120E+00
RMM:   2    -0.230282518447E+04   -0.28055E+00   -0.29537E+00  6202   0.801E-01    0.104E+00
RMM:   3    -0.230284373737E+04   -0.18553E-01   -0.30147E-01  5803   0.292E-01    0.932E-01
RMM:   4    -0.230283775698E+04    0.59804E-02   -0.25265E-02  5989   0.687E-02    0.466E-01
RMM:   5    -0.230283585314E+04    0.19038E-02   -0.49192E-03  5472   0.336E-02    0.216E-01
RMM:   6    -0.230283602097E+04   -0.16784E-03   -0.25266E-03  5172   0.239E-02    0.254E-01
RMM:   7    -0.230283562556E+04    0.39541E-03   -0.81474E-04  4447   0.158E-02    0.114E-01
RMM:   8    -0.230283553986E+04    0.85708E-04   -0.19420E-04  3386   0.789E-03    0.434E-02
RMM:   9    -0.230283551992E+04    0.19939E-04   -0.64957E-05  2975   0.618E-03    0.202E-02
RMM:  10    -0.230283551753E+04    0.23905E-05   -0.23189E-05  2929   0.380E-03
  13 F= -.23235450E+04 E0= -.23235450E+04  d E =-.742637E-01  mag=     5.0000
       N       E                     dE             d eps       ncg     rms          rms(c)
DAV:   1    -0.230166797902E+04    0.11675E+01   -0.60389E+01  4456   0.622E+00    0.247E+00
RMM:   2    -0.230288851052E+04   -0.12205E+01   -0.12615E+01  6234   0.164E+00    0.251E+00
RMM:   3    -0.230290123439E+04   -0.12724E-01   -0.12234E+00  5705   0.593E-01    0.166E+00
RMM:   4    -0.230288612249E+04    0.15112E-01   -0.10218E-01  5981   0.130E-01    0.989E-01
RMM:   5    -0.230288329455E+04    0.28279E-02   -0.16710E-02  5546   0.580E-02    0.878E-01
RMM:   6    -0.230287741643E+04    0.58781E-02   -0.15234E-02  5633   0.556E-02    0.385E-01
RMM:   7    -0.230287660231E+04    0.81411E-03   -0.39774E-03  5294   0.328E-02    0.142E-01
RMM:   8    -0.230287658597E+04    0.16341E-04   -0.83265E-04  4718   0.174E-02    0.106E-01
RMM:   9    -0.230287650021E+04    0.85765E-04   -0.29149E-04  3708   0.117E-02    0.544E-02
RMM:  10    -0.230287649208E+04    0.81230E-05   -0.10357E-04  3078   0.676E-03    0.220E-02
RMM:  11    -0.230287650019E+04   -0.81076E-05   -0.18753E-05  2910   0.436E-03
  14 F= -.23235840E+04 E0= -.23235840E+04  d E =-.113239E+00  mag=     5.0000
       N       E                     dE             d eps       ncg     rms          rms(c)
DAV:   1    -0.230279670439E+04    0.79788E-01   -0.10723E+01  4460   0.256E+00    0.946E-01
RMM:   2    -0.230291259191E+04   -0.11589E+00   -0.12495E+00  5976   0.584E-01    0.474E-01
RMM:   3    -0.230292102399E+04   -0.84321E-02   -0.11628E-01  5503   0.204E-01    0.618E-01
RMM:   4    -0.230291903050E+04    0.19935E-02   -0.10714E-02  5722   0.448E-02    0.282E-01
RMM:   5    -0.230291842723E+04    0.60327E-03   -0.20655E-03  4942   0.251E-02    0.198E-01
RMM:   6    -0.230291861759E+04   -0.19036E-03   -0.16424E-03  5303   0.222E-02    0.246E-01
RMM:   7    -0.230291808085E+04    0.53674E-03   -0.54702E-04  4770   0.144E-02    0.601E-02
RMM:   8    -0.230291805712E+04    0.23731E-04   -0.10090E-04  3229   0.681E-03    0.276E-02
RMM:   9    -0.230291804784E+04    0.92847E-05   -0.28304E-05  2941   0.452E-03
  15 F= -.23236246E+04 E0= -.23236246E+04  d E =-.406330E-01  mag=     5.0000
       N       E                     dE             d eps       ncg     rms          rms(c)
DAV:   1    -0.230278684915E+04    0.13121E+00   -0.12932E+01  4456   0.283E+00    0.104E+00
RMM:   2    -0.230292766058E+04   -0.14081E+00   -0.15160E+00  5958   0.642E-01    0.545E-01
RMM:   3    -0.230293869352E+04   -0.11033E-01   -0.14125E-01  5555   0.226E-01    0.779E-01
RMM:   4    -0.230293518328E+04    0.35102E-02   -0.13342E-02  5856   0.502E-02    0.302E-01
RMM:   5    -0.230293464549E+04    0.53779E-03   -0.24820E-03  5035   0.271E-02    0.257E-01
RMM:   6    -0.230293451797E+04    0.12752E-03   -0.20370E-03  5383   0.242E-02    0.237E-01
RMM:   7    -0.230293401615E+04    0.50182E-03   -0.64964E-04  4992   0.163E-02    0.667E-02
RMM:   8    -0.230293398240E+04    0.33748E-04   -0.12011E-04  3342   0.818E-03    0.310E-02
RMM:   9    -0.230293396709E+04    0.15308E-04   -0.38072E-05  2981   0.504E-03    0.131E-02
RMM:  10    -0.230293396342E+04    0.36700E-05   -0.13567E-05  2918   0.377E-03
  16 F= -.23236394E+04 E0= -.23236394E+04  d E =-.554346E-01  mag=     5.0000
       N       E                     dE             d eps       ncg     rms          rms(c)
DAV:   1    -0.230291332465E+04    0.20642E-01   -0.61769E+00  4464   0.171E+00    0.652E-01
RMM:   2    -0.230297001245E+04   -0.56688E-01   -0.59079E-01  6029   0.399E-01    0.434E-01
RMM:   3    -0.230297362033E+04   -0.36079E-02   -0.50569E-02  5619   0.127E-01    0.605E-01
RMM:   4    -0.230297115916E+04    0.24612E-02   -0.57292E-03  5385   0.327E-02    0.200E-01
RMM:   5    -0.230297096893E+04    0.19024E-03   -0.12109E-03  4868   0.191E-02    0.178E-01
RMM:   6    -0.230297087282E+04    0.96111E-04   -0.93757E-04  4854   0.169E-02    0.156E-01
RMM:   7    -0.230297067546E+04    0.19736E-03   -0.33402E-04  4204   0.114E-02    0.380E-02
RMM:   8    -0.230297066222E+04    0.13238E-04   -0.38096E-05  2962   0.625E-03    0.192E-02
RMM:   9    -0.230297065923E+04    0.29887E-05   -0.14478E-05  2914   0.326E-03
  17 F= -.23236754E+04 E0= -.23236754E+04  d E =-.359405E-01  mag=     5.0000
       N       E                     dE             d eps       ncg     rms          rms(c)
DAV:   1    -0.230279613117E+04    0.17453E+00   -0.21496E+01  4456   0.317E+00    0.122E+00
RMM:   2    -0.230299453321E+04   -0.19840E+00   -0.20800E+00  6012   0.736E-01    0.723E-01
RMM:   3    -0.230300819640E+04   -0.13663E-01   -0.17791E-01  5591   0.239E-01    0.105E+00
RMM:   4    -0.230300097920E+04    0.72172E-02   -0.20014E-02  5865   0.591E-02    0.376E-01
RMM:   5    -0.230299982945E+04    0.11497E-02   -0.38558E-03  5051   0.338E-02    0.258E-01
RMM:   6    -0.230300032774E+04   -0.49829E-03   -0.31888E-03  5353   0.308E-02    0.335E-01
RMM:   7    -0.230299928592E+04    0.10418E-02   -0.10702E-03  5145   0.187E-02    0.627E-02
RMM:   8    -0.230299924126E+04    0.44662E-04   -0.16162E-04  3157   0.924E-03    0.268E-02
RMM:   9    -0.230299923653E+04    0.47239E-05   -0.52753E-05  3101   0.502E-03
  18 F= -.23237023E+04 E0= -.23237023E+04  d E =-.628397E-01  mag=     5.0000
       N       E                     dE             d eps       ncg     rms          rms(c)
DAV:   1    -0.230291298690E+04    0.86254E-01   -0.10398E+01  4460   0.235E+00    0.947E-01
RMM:   2    -0.230303936211E+04   -0.12638E+00   -0.12761E+00  6030   0.565E-01    0.970E-01
RMM:   3    -0.230304368640E+04   -0.43243E-02   -0.10670E-01  5784   0.185E-01    0.893E-01
RMM:   4    -0.230303771856E+04    0.59678E-02   -0.12113E-02  5510   0.493E-02    0.268E-01
RMM:   5    -0.230303709075E+04    0.62781E-03   -0.26146E-03  5232   0.265E-02    0.203E-01
RMM:   6    -0.230303711757E+04   -0.26825E-04   -0.18034E-03  5256   0.227E-02    0.225E-01
RMM:   7    -0.230303665896E+04    0.45861E-03   -0.70243E-04  4978   0.162E-02    0.625E-02
RMM:   8    -0.230303662924E+04    0.29719E-04   -0.99503E-05  3084   0.730E-03    0.265E-02
RMM:   9    -0.230303662300E+04    0.62489E-05   -0.28307E-05  2964   0.441E-03
  19 F= -.23237384E+04 E0= -.23237384E+04  d E =-.361691E-01  mag=     5.0000
       N       E                     dE             d eps       ncg     rms          rms(c)
DAV:   1    -0.230295450536E+04    0.82124E-01   -0.78137E+00  4460   0.205E+00    0.819E-01
RMM:   2    -0.230305020140E+04   -0.95696E-01   -0.97031E-01  6030   0.497E-01    0.817E-01
RMM:   3    -0.230305346950E+04   -0.32681E-02   -0.80301E-02  5784   0.160E-01    0.765E-01
RMM:   4    -0.230304903272E+04    0.44368E-02   -0.91208E-03  5464   0.428E-02    0.233E-01
RMM:   5    -0.230304845335E+04    0.57937E-03   -0.19130E-03  5102   0.229E-02    0.152E-01
RMM:   6    -0.230304852627E+04   -0.72927E-04   -0.13399E-03  5201   0.206E-02    0.187E-01
RMM:   7    -0.230304820495E+04    0.32132E-03   -0.48210E-04  4662   0.140E-02    0.574E-02
RMM:   8    -0.230304817582E+04    0.29129E-04   -0.70948E-05  2997   0.607E-03    0.225E-02
RMM:   9    -0.230304817019E+04    0.56338E-05   -0.21466E-05  2947   0.399E-03
  20 F= -.23237488E+04 E0= -.23237488E+04  d E =-.465228E-01  mag=     5.0000
       N       E                     dE             d eps       ncg     rms          rms(c)
DAV:   1    -0.230294844053E+04    0.99735E-01   -0.89149E+00  4440   0.223E+00    0.964E-01
RMM:   2    -0.230310190853E+04   -0.15347E+00   -0.13765E+00  6122   0.544E-01    0.184E+00
RMM:   3    -0.230308249515E+04    0.19413E-01   -0.12126E-01  5862   0.179E-01    0.489E-01
RMM:   4    -0.230308161181E+04    0.88334E-03   -0.13678E-02  5016   0.422E-02    0.244E-01
RMM:   5    -0.230308143067E+04    0.18114E-03   -0.16777E-03  4928   0.245E-02    0.272E-01
RMM:   6    -0.230308077151E+04    0.65916E-03   -0.13459E-03  5354   0.200E-02    0.200E-01
RMM:   7    -0.230308048026E+04    0.29125E-03   -0.91915E-04  4539   0.181E-02    0.395E-02
RMM:   8    -0.230308046665E+04    0.13609E-04   -0.83482E-05  3025   0.700E-03    0.198E-02
RMM:   9    -0.230308046566E+04    0.99100E-06   -0.19305E-05  2938   0.427E-03
  21 F= -.23237796E+04 E0= -.23237796E+04  d E =-.307737E-01  mag=     5.0000
       N       E                     dE             d eps       ncg     rms          rms(c)
DAV:   1    -0.230293674312E+04    0.14372E+00   -0.10605E+01  4440   0.244E+00    0.105E+00
RMM:   2    -0.230311932568E+04   -0.18258E+00   -0.16463E+00  6134   0.598E-01    0.196E+00
RMM:   3    -0.230309697034E+04    0.22355E-01   -0.14627E-01  5857   0.200E-01    0.529E-01
RMM:   4    -0.230309593482E+04    0.10355E-02   -0.16423E-02  5088   0.464E-02    0.277E-01
RMM:   5    -0.230309571307E+04    0.22176E-03   -0.20539E-03  5031   0.267E-02    0.301E-01
RMM:   6    -0.230309484149E+04    0.87158E-03   -0.16203E-03  5299   0.220E-02    0.214E-01
RMM:   7    -0.230309451658E+04    0.32491E-03   -0.11022E-03  4629   0.201E-02    0.444E-02
RMM:   8    -0.230309450208E+04    0.14496E-04   -0.10020E-04  3147   0.746E-03    0.219E-02
RMM:   9    -0.230309450262E+04   -0.53557E-06   -0.23441E-05  2944   0.469E-03
  22 F= -.23237917E+04 E0= -.23237917E+04  d E =-.429586E-01  mag=     5.0000
       N       E                     dE             d eps       ncg     rms          rms(c)
DAV:   1    -0.230294044492E+04    0.15406E+00   -0.10532E+01  4456   0.264E+00    0.115E+00
RMM:   2    -0.230314478532E+04   -0.20434E+00   -0.18596E+00  6128   0.660E-01    0.205E+00
RMM:   3    -0.230312095816E+04    0.23827E-01   -0.16312E-01  5867   0.221E-01    0.633E-01
RMM:   4    -0.230311917853E+04    0.17796E-02   -0.18902E-02  5284   0.533E-02    0.321E-01
RMM:   5    -0.230311877431E+04    0.40422E-03   -0.23606E-03  5140   0.299E-02    0.304E-01
RMM:   6    -0.230311777505E+04    0.99926E-03   -0.17528E-03  5159   0.247E-02    0.219E-01
RMM:   7    -0.230311742699E+04    0.34807E-03   -0.12165E-03  4854   0.235E-02    0.459E-02
RMM:   8    -0.230311741152E+04    0.15467E-04   -0.11959E-04  3413   0.777E-03    0.239E-02
RMM:   9    -0.230311740925E+04    0.22664E-05   -0.27956E-05  2939   0.516E-03
  23 F= -.23238118E+04 E0= -.23238118E+04  d E =-.200917E-01  mag=     5.0000
       N       E                     dE             d eps       ncg     rms          rms(c)
DAV:   1    -0.230311714526E+04    0.26626E-03   -0.28457E-02  5352   0.138E-01    0.643E-02
RMM:   2    -0.230311774137E+04   -0.59611E-03   -0.50933E-03  6153   0.357E-02    0.129E-01
RMM:   3    -0.230311763503E+04    0.10634E-03   -0.48453E-04  3045   0.123E-02    0.314E-02
RMM:   4    -0.230311763107E+04    0.39573E-05   -0.54959E-05  2950   0.377E-03
  24 F= -.23238119E+04 E0= -.23238119E+04  d E =-.201612E-01  mag=     5.0000
       N       E                     dE             d eps       ncg     rms          rms(c)
DAV:   1    -0.230309908774E+04    0.18547E-01   -0.17722E+00  4496   0.128E+00    0.471E-01
RMM:   2    -0.230312631549E+04   -0.27228E-01   -0.27096E-01  5947   0.295E-01    0.503E-01
RMM:   3    -0.230312709167E+04   -0.77617E-03   -0.26204E-02  5657   0.110E-01    0.395E-01
RMM:   4    -0.230312567425E+04    0.14174E-02   -0.27328E-03  5239   0.272E-02    0.113E-01
RMM:   5    -0.230312561520E+04    0.59055E-04   -0.56521E-04  4755   0.167E-02    0.126E-01
RMM:   6    -0.230312549009E+04    0.12511E-03   -0.36846E-04  4646   0.120E-02    0.918E-02
RMM:   7    -0.230312543062E+04    0.59472E-04   -0.12545E-04  3596   0.975E-03    0.238E-02
RMM:   8    -0.230312542709E+04    0.35256E-05   -0.22672E-05  2914   0.518E-03
  25 F= -.23238188E+04 E0= -.23238188E+04  d E =-.685296E-02  mag=     5.0000
       N       E                     dE             d eps       ncg     rms          rms(c)
DAV:   1    -0.230312438935E+04    0.10413E-02   -0.10057E-01  4800   0.307E-01    0.113E-01
RMM:   2    -0.230312594321E+04   -0.15539E-02   -0.15553E-02  6161   0.720E-02    0.117E-01
RMM:   3    -0.230312599079E+04   -0.47583E-04   -0.14617E-03  3942   0.252E-02    0.950E-02
RMM:   4    -0.230312591214E+04    0.78646E-04   -0.15453E-04  3062   0.750E-03    0.276E-02
RMM:   5    -0.230312590850E+04    0.36462E-05   -0.33493E-05  2932   0.493E-03
  26 F= -.23238190E+04 E0= -.23238190E+04  d E =-.710714E-02  mag=     5.0000
       N       E                     dE             d eps       ncg     rms          rms(c)
DAV:   1    -0.230310159063E+04    0.24322E-01   -0.20144E+00  4480   0.143E+00    0.455E-01
RMM:   2    -0.230313417156E+04   -0.32581E-01   -0.32337E-01  6070   0.320E-01    0.534E-01
RMM:   3    -0.230313445681E+04   -0.28524E-03   -0.31233E-02  5740   0.111E-01    0.339E-01
RMM:   4    -0.230313340697E+04    0.10498E-02   -0.31034E-03  5265   0.256E-02    0.119E-01
RMM:   5    -0.230313336850E+04    0.38475E-04   -0.44749E-04  4229   0.136E-02    0.139E-01
RMM:   6    -0.230313318925E+04    0.17925E-03   -0.35295E-04  4521   0.118E-02    0.833E-02
RMM:   7    -0.230313314310E+04    0.46147E-04   -0.15854E-04  3896   0.107E-02    0.205E-02
RMM:   8    -0.230313314081E+04    0.22880E-05   -0.19430E-05  2905   0.474E-03
  27 F= -.23238256E+04 E0= -.23238256E+04  d E =-.658877E-02  mag=     5.0000
       N       E                     dE             d eps       ncg     rms          rms(c)
DAV:   1    -0.230311476479E+04    0.18378E-01   -0.13077E+00  4496   0.115E+00    0.370E-01
RMM:   2    -0.230313583992E+04   -0.21075E-01   -0.20928E-01  6052   0.259E-01    0.436E-01
RMM:   3    -0.230313603714E+04   -0.19722E-03   -0.19967E-02  5663   0.886E-02    0.280E-01
RMM:   4    -0.230313535673E+04    0.68041E-03   -0.20192E-03  5072   0.205E-02    0.100E-01
RMM:   5    -0.230313533959E+04    0.17138E-04   -0.28561E-04  3506   0.109E-02    0.114E-01
RMM:   6    -0.230313519802E+04    0.14157E-03   -0.23969E-04  4300   0.104E-02    0.582E-02
RMM:   7    -0.230313517488E+04    0.23141E-04   -0.12037E-04  3746   0.965E-03    0.175E-02
RMM:   8    -0.230313517282E+04    0.20657E-05   -0.14023E-05  2888   0.440E-03
  28 F= -.23238271E+04 E0= -.23238271E+04  d E =-.808847E-02  mag=     5.0000
       N       E                     dE             d eps       ncg     rms          rms(c)
DAV:   1    -0.230312353951E+04    0.11635E-01   -0.10895E+00  4448   0.102E+00    0.313E-01
RMM:   2    -0.230314148875E+04   -0.17949E-01   -0.17564E-01  6121   0.228E-01    0.436E-01
RMM:   3    -0.230314129993E+04    0.18882E-03   -0.16910E-02  5667   0.776E-02    0.232E-01
RMM:   4    -0.230314091476E+04    0.38517E-03   -0.17052E-03  4565   0.169E-02    0.933E-02
RMM:   5    -0.230314087934E+04    0.35415E-04   -0.19264E-04  3161   0.880E-03    0.959E-02
RMM:   6    -0.230314076951E+04    0.10984E-03   -0.17597E-04  3928   0.914E-03    0.501E-02
RMM:   7    -0.230314075278E+04    0.16726E-04   -0.12955E-04  3528   0.879E-03    0.153E-02
RMM:   8    -0.230314075134E+04    0.14430E-05   -0.11541E-05  2895   0.456E-03
  29 F= -.23238322E+04 E0= -.23238322E+04  d E =-.509911E-02  mag=     5.0000
       N       E                     dE             d eps       ncg     rms          rms(c)
DAV:   1    -0.230299467921E+04    0.14607E+00   -0.97948E+00  4440   0.306E+00    0.925E-01
RMM:   2    -0.230315248278E+04   -0.15780E+00   -0.15744E+00  6148   0.691E-01    0.114E+00
RMM:   3    -0.230315694904E+04   -0.44663E-02   -0.15673E-01  5884   0.230E-01    0.810E-01
RMM:   4    -0.230315188145E+04    0.50676E-02   -0.15513E-02  5584   0.520E-02    0.289E-01
RMM:   5    -0.230315151549E+04    0.36596E-03   -0.18273E-03  4993   0.232E-02    0.285E-01
RMM:   6    -0.230315053361E+04    0.98188E-03   -0.15227E-03  4919   0.234E-02    0.146E-01
RMM:   7    -0.230315035802E+04    0.17559E-03   -0.11275E-03  5030   0.226E-02    0.527E-02
RMM:   8    -0.230315033874E+04    0.19282E-04   -0.92416E-05  3487   0.925E-03    0.256E-02
RMM:   9    -0.230315033426E+04    0.44798E-05   -0.28107E-05  2991   0.449E-03
  30 F= -.23238403E+04 E0= -.23238403E+04  d E =-.131996E-01  mag=     5.0000
       N       E                     dE             d eps       ncg     rms          rms(c)
DAV:   1    -0.230311028114E+04    0.40058E-01   -0.28022E+00  4456   0.162E+00    0.533E-01
RMM:   2    -0.230316033579E+04   -0.50055E-01   -0.49737E-01  6072   0.373E-01    0.708E-01
RMM:   3    -0.230316074096E+04   -0.40517E-03   -0.48505E-02  5793   0.133E-01    0.437E-01
RMM:   4    -0.230315933108E+04    0.14099E-02   -0.48060E-03  5293   0.292E-02    0.155E-01
RMM:   5    -0.230315923753E+04    0.93546E-04   -0.63567E-04  4510   0.148E-02    0.175E-01
RMM:   6    -0.230315890260E+04    0.33493E-03   -0.56270E-04  4672   0.142E-02    0.826E-02
RMM:   7    -0.230315885256E+04    0.50043E-04   -0.31266E-04  4395   0.122E-02    0.291E-02
RMM:   8    -0.230315884767E+04    0.48884E-05   -0.31771E-05  2968   0.584E-03
  31 F= -.23238481E+04 E0= -.23238481E+04  d E =-.777456E-02  mag=     5.0000
       N       E                     dE             d eps       ncg     rms          rms(c)
DAV:   1    -0.230310806976E+04    0.50783E-01   -0.30910E+00  4456   0.170E+00    0.560E-01
RMM:   2    -0.230316314986E+04   -0.55080E-01   -0.54792E-01  6070   0.390E-01    0.744E-01
RMM:   3    -0.230316373713E+04   -0.58727E-03   -0.54263E-02  5792   0.137E-01    0.463E-01
RMM:   4    -0.230316217391E+04    0.15632E-02   -0.53751E-03  5321   0.306E-02    0.163E-01
RMM:   5    -0.230316207189E+04    0.10202E-03   -0.71073E-04  4597   0.155E-02    0.184E-01
RMM:   6    -0.230316170063E+04    0.37126E-03   -0.62162E-04  4727   0.148E-02    0.861E-02
RMM:   7    -0.230316164277E+04    0.57866E-04   -0.34903E-04  4504   0.126E-02    0.301E-02
RMM:   8    -0.230316163587E+04    0.68953E-05   -0.33758E-05  2981   0.600E-03
  32 F= -.23238501E+04 E0= -.23238501E+04  d E =-.977586E-02  mag=     5.0000
       N       E                     dE             d eps       ncg     rms          rms(c)
DAV:   1    -0.230310738973E+04    0.54253E-01   -0.29779E+00  4456   0.165E+00    0.549E-01
RMM:   2    -0.230316510493E+04   -0.57715E-01   -0.58499E-01  6127   0.382E-01    0.681E-01
RMM:   3    -0.230316785664E+04   -0.27517E-02   -0.61234E-02  5775   0.141E-01    0.469E-01
RMM:   4    -0.230316628154E+04    0.15751E-02   -0.58614E-03  5291   0.298E-02    0.160E-01
RMM:   5    -0.230316611554E+04    0.16600E-03   -0.60439E-04  4260   0.130E-02    0.165E-01
RMM:   6    -0.230316583172E+04    0.28382E-03   -0.51725E-04  4361   0.130E-02    0.958E-02
RMM:   7    -0.230316574566E+04    0.86058E-04   -0.39177E-04  4554   0.120E-02    0.347E-02
RMM:   8    -0.230316573899E+04    0.66670E-05   -0.41270E-05  2984   0.673E-03
  33 F= -.23238537E+04 E0= -.23238537E+04  d E =-.361531E-02  mag=     5.0000
       N       E                     dE             d eps       ncg     rms          rms(c)
DAV:   1    -0.230308450200E+04    0.81244E-01   -0.41752E+00  4456   0.195E+00    0.649E-01
RMM:   2    -0.230316512148E+04   -0.80619E-01   -0.81849E-01  6158   0.452E-01    0.796E-01
RMM:   3    -0.230316925187E+04   -0.41304E-02   -0.86291E-02  5813   0.169E-01    0.561E-01
RMM:   4    -0.230316697587E+04    0.22760E-02   -0.81938E-03  5421   0.354E-02    0.189E-01
RMM:   5    -0.230316673514E+04    0.24072E-03   -0.85320E-04  4613   0.152E-02    0.193E-01
RMM:   6    -0.230316634862E+04    0.38653E-03   -0.71196E-04  4601   0.149E-02    0.115E-01
RMM:   7    -0.230316621885E+04    0.12977E-03   -0.54731E-04  4828   0.138E-02    0.420E-02
RMM:   8    -0.230316620827E+04    0.10571E-04   -0.58765E-05  3027   0.757E-03    0.201E-02
RMM:   9    -0.230316620499E+04    0.32861E-05   -0.17032E-05  2937   0.382E-03
  34 F= -.23238536E+04 E0= -.23238536E+04  d E =-.349072E-02  mag=     5.0000
       N       E                     dE             d eps       ncg     rms          rms(c)
DAV:   1    -0.230314655133E+04    0.19657E-01   -0.10340E+00  4496   0.969E-01    0.330E-01
RMM:   2    -0.230316726119E+04   -0.20710E-01   -0.20458E-01  6150   0.224E-01    0.479E-01
RMM:   3    -0.230316718284E+04    0.78348E-04   -0.19715E-02  5696   0.780E-02    0.236E-01
RMM:   4    -0.230316676756E+04    0.41528E-03   -0.19328E-03  4271   0.167E-02    0.934E-02
RMM:   5    -0.230316670683E+04    0.60728E-04   -0.20165E-04  3256   0.854E-03    0.967E-02
RMM:   6    -0.230316660250E+04    0.10433E-03   -0.20776E-04  3527   0.910E-03    0.556E-02
RMM:   7    -0.230316657572E+04    0.26780E-04   -0.13150E-04  3609   0.803E-03    0.134E-02
RMM:   8    -0.230316657424E+04    0.14875E-05   -0.10787E-05  2908   0.487E-03
  35 F= -.23238542E+04 E0= -.23238542E+04  d E =-.415539E-02  mag=     5.0000
       N       E                     dE             d eps       ncg     rms          rms(c)
DAV:   1    -0.230315671833E+04    0.98574E-02   -0.69868E-01  4496   0.819E-01    0.289E-01
RMM:   2    -0.230316984393E+04   -0.13126E-01   -0.13941E-01  5963   0.188E-01    0.199E-01
RMM:   3    -0.230317101630E+04   -0.11724E-02   -0.13860E-02  5576   0.761E-02    0.214E-01
RMM:   4    -0.230317067984E+04    0.33646E-03   -0.14474E-03  4418   0.165E-02    0.891E-02
RMM:   5    -0.230317057470E+04    0.10514E-03   -0.23293E-04  3952   0.108E-02    0.563E-02
RMM:   6    -0.230317059780E+04   -0.23094E-04   -0.18904E-04  3595   0.953E-03    0.866E-02
RMM:   7    -0.230317053463E+04    0.63168E-04   -0.69596E-05  3054   0.731E-03    0.211E-02
RMM:   8    -0.230317053176E+04    0.28666E-05   -0.16192E-05  2890   0.456E-03
  36 F= -.23238583E+04 E0= -.23238583E+04  d E =-.403386E-02  mag=     5.0000
       N       E                     dE             d eps       ncg     rms          rms(c)
DAV:   1    -0.230316420965E+04    0.63250E-02   -0.35414E-01  4528   0.584E-01    0.208E-01
RMM:   2    -0.230317094062E+04   -0.67310E-02   -0.71454E-02  5962   0.135E-01    0.149E-01
RMM:   3    -0.230317153346E+04   -0.59284E-03   -0.69699E-03  5321   0.522E-02    0.161E-01
RMM:   4    -0.230317134167E+04    0.19179E-03   -0.74119E-04  3505   0.119E-02    0.631E-02
RMM:   5    -0.230317129124E+04    0.50437E-04   -0.11486E-04  3221   0.804E-03    0.422E-02
RMM:   6    -0.230317130006E+04   -0.88244E-05   -0.10168E-04  3110   0.763E-03    0.596E-02
RMM:   7    -0.230317127052E+04    0.29541E-04   -0.39367E-05  2949   0.621E-03    0.157E-02
RMM:   8    -0.230317126939E+04    0.11324E-05   -0.10029E-05  2871   0.407E-03
  37 F= -.23238590E+04 E0= -.23238590E+04  d E =-.481991E-02  mag=     5.0000
       N       E                     dE             d eps       ncg     rms          rms(c)
DAV:   1    -0.230315661495E+04    0.14656E-01   -0.85362E-01  4496   0.852E-01    0.311E-01
RMM:   2    -0.230317325881E+04   -0.16644E-01   -0.17795E-01  6022   0.195E-01    0.160E-01
RMM:   3    -0.230317465768E+04   -0.13989E-02   -0.18639E-02  5513   0.822E-02    0.115E-01
RMM:   4    -0.230317469944E+04   -0.41762E-04   -0.17811E-03  3753   0.151E-02    0.978E-02
RMM:   5    -0.230317459259E+04    0.10685E-03   -0.20564E-04  3373   0.932E-03    0.625E-02
RMM:   6    -0.230317454886E+04    0.43730E-04   -0.20549E-04  4244   0.918E-03    0.446E-02
RMM:   7    -0.230317454697E+04    0.18914E-05   -0.40864E-05  2903   0.692E-03
  38 F= -.23238623E+04 E0= -.23238623E+04  d E =-.327213E-02  mag=     5.0000
       N       E                     dE             d eps       ncg     rms          rms(c)
DAV:   1    -0.230316674881E+04    0.78001E-02   -0.39819E-01  4528   0.583E-01    0.213E-01
RMM:   2    -0.230317451274E+04   -0.77639E-02   -0.83306E-02  6025   0.134E-01    0.107E-01
RMM:   3    -0.230317515503E+04   -0.64229E-03   -0.85901E-03  5162   0.573E-02    0.712E-02
RMM:   4    -0.230317518190E+04   -0.26869E-04   -0.82204E-04  3200   0.106E-02    0.678E-02
RMM:   5    -0.230317513686E+04    0.45040E-04   -0.94174E-05  2981   0.674E-03    0.458E-02
RMM:   6    -0.230317510987E+04    0.26990E-04   -0.10465E-04  3509   0.707E-03    0.208E-02
RMM:   7    -0.230317510917E+04    0.69560E-06   -0.12148E-05  2868   0.481E-03
  39 F= -.23238629E+04 E0= -.23238629E+04  d E =-.382348E-02  mag=     5.0000
       N       E                     dE             d eps       ncg     rms          rms(c)
DAV:   1    -0.230315360390E+04    0.21506E-01   -0.11427E+00  4456   0.962E-01    0.341E-01
RMM:   2    -0.230317644286E+04   -0.22839E-01   -0.24195E-01  6112   0.220E-01    0.198E-01
RMM:   3    -0.230317861549E+04   -0.21726E-02   -0.27278E-02  5528   0.930E-02    0.174E-01
RMM:   4    -0.230317857102E+04    0.44465E-04   -0.24263E-03  3903   0.178E-02    0.106E-01
RMM:   5    -0.230317841842E+04    0.15261E-03   -0.21406E-04  3646   0.949E-03    0.729E-02
RMM:   6    -0.230317837169E+04    0.46728E-04   -0.28141E-04  4153   0.108E-02    0.679E-02
RMM:   7    -0.230317834686E+04    0.24827E-04   -0.84982E-05  3123   0.729E-03    0.475E-02
RMM:   8    -0.230317832874E+04    0.18129E-04   -0.20117E-05  2874   0.453E-03    0.837E-03
RMM:   9    -0.230317832732E+04    0.14156E-05   -0.62276E-06  2860   0.309E-03
  40 F= -.23238659E+04 E0= -.23238659E+04  d E =-.303559E-02  mag=     5.0000
       N       E                     dE             d eps       ncg     rms          rms(c)
DAV:   1    -0.230316966778E+04    0.86610E-02   -0.42913E-01  4480   0.590E-01    0.209E-01
RMM:   2    -0.230317823298E+04   -0.85652E-02   -0.90639E-02  6033   0.134E-01    0.122E-01
RMM:   3    -0.230317904484E+04   -0.81186E-03   -0.10176E-02  5115   0.584E-02    0.108E-01
RMM:   4    -0.230317902333E+04    0.21511E-04   -0.90056E-04  3208   0.110E-02    0.650E-02
RMM:   5    -0.230317896272E+04    0.60614E-04   -0.84154E-05  3008   0.647E-03    0.421E-02
RMM:   6    -0.230317893631E+04    0.26407E-04   -0.11608E-04  3579   0.751E-03    0.245E-02
RMM:   7    -0.230317893362E+04    0.26943E-05   -0.15945E-05  2900   0.497E-03
  41 F= -.23238664E+04 E0= -.23238664E+04  d E =-.352444E-02  mag=     5.0000
       N       E                     dE             d eps       ncg     rms          rms(c)
DAV:   1    -0.230315892340E+04    0.20013E-01   -0.10436E+00  4440   0.916E-01    0.326E-01
RMM:   2    -0.230318021121E+04   -0.21288E-01   -0.22441E-01  6164   0.209E-01    0.201E-01
RMM:   3    -0.230318233100E+04   -0.21198E-02   -0.25549E-02  5581   0.856E-02    0.195E-01
RMM:   4    -0.230318221749E+04    0.11350E-03   -0.21698E-03  3650   0.161E-02    0.105E-01
RMM:   5    -0.230318209050E+04    0.12699E-03   -0.19843E-04  3202   0.861E-03    0.656E-02
RMM:   6    -0.230318205725E+04    0.33254E-04   -0.21942E-04  4205   0.890E-03    0.632E-02
RMM:   7    -0.230318203447E+04    0.22776E-04   -0.70831E-05  2952   0.709E-03    0.372E-02
RMM:   8    -0.230318202345E+04    0.11020E-04   -0.17447E-05  2899   0.383E-03    0.932E-03
RMM:   9    -0.230318202322E+04    0.22880E-06   -0.45701E-06  2867   0.260E-03
  42 F= -.23238695E+04 E0= -.23238695E+04  d E =-.306593E-02  mag=     5.0000
       N       E                     dE             d eps       ncg     rms          rms(c)
DAV:   1    -0.230312939319E+04    0.52630E-01   -0.24623E+00  4440   0.140E+00    0.500E-01
RMM:   2    -0.230317971635E+04   -0.50323E-01   -0.52974E-01  6154   0.320E-01    0.310E-01
RMM:   3    -0.230318469584E+04   -0.49795E-02   -0.61200E-02  5700   0.129E-01    0.288E-01
RMM:   4    -0.230318449842E+04    0.19742E-03   -0.51423E-03  4799   0.246E-02    0.162E-01
RMM:   5    -0.230318420422E+04    0.29420E-03   -0.47230E-04  3938   0.117E-02    0.104E-01
RMM:   6    -0.230318410094E+04    0.10328E-03   -0.50828E-04  4728   0.124E-02    0.986E-02
RMM:   7    -0.230318405794E+04    0.42995E-04   -0.16181E-04  3063   0.102E-02    0.618E-02
RMM:   8    -0.230318402536E+04    0.32584E-04   -0.47212E-05  2923   0.523E-03    0.131E-02
RMM:   9    -0.230318402506E+04    0.29462E-06   -0.10095E-05  2902   0.345E-03
  43 F= -.23238714E+04 E0= -.23238714E+04  d E =-.500592E-02  mag=     5.0000
       N       E                     dE             d eps       ncg     rms          rms(c)
DAV:   1    -0.230315765055E+04    0.26375E-01   -0.12708E+00  4440   0.100E+00    0.368E-01
RMM:   2    -0.230318443836E+04   -0.26788E-01   -0.28253E-01  6099   0.235E-01    0.220E-01
RMM:   3    -0.230318717803E+04   -0.27397E-02   -0.32985E-02  5677   0.954E-02    0.202E-01
RMM:   4    -0.230318708678E+04    0.91251E-04   -0.27074E-03  4015   0.181E-02    0.125E-01
RMM:   5    -0.230318692280E+04    0.16398E-03   -0.27105E-04  3363   0.101E-02    0.737E-02
RMM:   6    -0.230318685643E+04    0.66364E-04   -0.30340E-04  4357   0.107E-02    0.492E-02
RMM:   7    -0.230318685493E+04    0.14968E-05   -0.57441E-05  2963   0.768E-03
  44 F= -.23238743E+04 E0= -.23238743E+04  d E =-.292703E-02  mag=     5.0000
       N       E                     dE             d eps       ncg     rms          rms(c)
DAV:   1    -0.230312676786E+04    0.60089E-01   -0.25986E+00  4440   0.143E+00    0.529E-01
RMM:   2    -0.230318162139E+04   -0.54854E-01   -0.57869E-01  6112   0.337E-01    0.328E-01
RMM:   3    -0.230318741684E+04   -0.57955E-02   -0.69579E-02  5749   0.141E-01    0.306E-01
RMM:   4    -0.230318713612E+04    0.28072E-03   -0.56373E-03  5165   0.266E-02    0.180E-01
RMM:   5    -0.230318680302E+04    0.33310E-03   -0.57614E-04  4153   0.134E-02    0.106E-01
RMM:   6    -0.230318664828E+04    0.15474E-03   -0.56711E-04  4813   0.138E-02    0.620E-02
RMM:   7    -0.230318662967E+04    0.18611E-04   -0.99015E-05  3021   0.976E-03    0.292E-02
RMM:   8    -0.230318662678E+04    0.28933E-05   -0.29352E-05  2894   0.462E-03
  45 F= -.23238742E+04 E0= -.23238742E+04  d E =-.280164E-02  mag=     5.0000
       N       E                     dE             d eps       ncg     rms          rms(c)
DAV:   1    -0.230317273081E+04    0.13899E-01   -0.63928E-01  4464   0.710E-01    0.259E-01
RMM:   2    -0.230318609246E+04   -0.13362E-01   -0.14085E-01  6126   0.166E-01    0.140E-01
RMM:   3    -0.230318748607E+04   -0.13936E-02   -0.17215E-02  5449   0.702E-02    0.109E-01
RMM:   4    -0.230318749432E+04   -0.82544E-05   -0.13292E-03  3343   0.130E-02    0.910E-02
RMM:   5    -0.230318741313E+04    0.81187E-04   -0.13333E-04  2988   0.766E-03    0.537E-02
RMM:   6    -0.230318739032E+04    0.22811E-04   -0.16346E-04  3684   0.776E-03    0.542E-02
RMM:   7    -0.230318737120E+04    0.19125E-04   -0.49182E-05  2945   0.614E-03    0.204E-02
RMM:   8    -0.230318736755E+04    0.36437E-05   -0.11146E-05  2914   0.316E-03
  46 F= -.23238749E+04 E0= -.23238749E+04  d E =-.349681E-02  mag=     5.0000
       N       E                     dE             d eps       ncg     rms          rms(c)
DAV:   1    -0.230316307799E+04    0.24293E-01   -0.11311E+00  4456   0.925E-01    0.345E-01
RMM:   2    -0.230318769280E+04   -0.24615E-01   -0.25617E-01  6298   0.223E-01    0.242E-01
RMM:   3    -0.230319029233E+04   -0.25995E-02   -0.30089E-02  5730   0.903E-02    0.238E-01
RMM:   4    -0.230318992671E+04    0.36562E-03   -0.26981E-03  3924   0.189E-02    0.104E-01
RMM:   5    -0.230318980161E+04    0.12510E-03   -0.21539E-04  3117   0.884E-03    0.654E-02
RMM:   6    -0.230318981340E+04   -0.11788E-04   -0.23458E-04  3698   0.910E-03    0.986E-02
RMM:   7    -0.230318973288E+04    0.80519E-04   -0.10872E-04  3222   0.736E-03    0.227E-02
RMM:   8    -0.230318972895E+04    0.39328E-05   -0.19066E-05  2893   0.471E-03
  47 F= -.23238772E+04 E0= -.23238772E+04  d E =-.230976E-02  mag=     5.0000
       N       E                     dE             d eps       ncg     rms          rms(c)
DAV:   1    -0.230313263525E+04    0.57098E-01   -0.24595E+00  4456   0.136E+00    0.512E-01
RMM:   2    -0.230318652825E+04   -0.53893E-01   -0.56102E-01  6232   0.330E-01    0.373E-01
RMM:   3    -0.230319214104E+04   -0.56128E-02   -0.65857E-02  5902   0.128E-01    0.362E-01
RMM:   4    -0.230319129567E+04    0.84537E-03   -0.59207E-03  5133   0.276E-02    0.156E-01
RMM:   5    -0.230319102254E+04    0.27313E-03   -0.48727E-04  3738   0.118E-02    0.961E-02
RMM:   6    -0.230319101746E+04    0.50769E-05   -0.53440E-04  4475   0.132E-02    0.137E-01
RMM:   7    -0.230319087074E+04    0.14672E-03   -0.18946E-04  3445   0.909E-03    0.353E-02
RMM:   8    -0.230319086088E+04    0.98643E-05   -0.43139E-05  2914   0.540E-03
  48 F= -.23238782E+04 E0= -.23238782E+04  d E =-.333593E-02  mag=     5.0000
       N       E                     dE             d eps       ncg     rms          rms(c)
DAV:   1    -0.230317877733E+04    0.12093E-01   -0.56113E-01  4528   0.649E-01    0.249E-01
RMM:   2    -0.230319202369E+04   -0.13246E-01   -0.13664E-01  6295   0.162E-01    0.211E-01
RMM:   3    -0.230319324149E+04   -0.12178E-02   -0.15075E-02  5520   0.611E-02    0.193E-01
RMM:   4    -0.230319293582E+04    0.30567E-03   -0.14209E-03  3488   0.141E-02    0.693E-02
RMM:   5    -0.230319288172E+04    0.54096E-04   -0.11303E-04  2957   0.644E-03    0.478E-02
RMM:   6    -0.230319288868E+04   -0.69581E-05   -0.99343E-05  2982   0.595E-03
  49 F= -.23238801E+04 E0= -.23238801E+04  d E =-.183734E-02  mag=     5.0000
       N       E                     dE             d eps       ncg     rms          rms(c)
DAV:   1    -0.230306931004E+04    0.12357E+00   -0.50317E+00  4456   0.195E+00    0.748E-01
RMM:   2    -0.230318838018E+04   -0.11907E+00   -0.12262E+00  6384   0.487E-01    0.650E-01
RMM:   3    -0.230319975594E+04   -0.11376E-01   -0.14387E-01  6060   0.186E-01    0.575E-01
RMM:   4    -0.230319717987E+04    0.25761E-02   -0.12858E-02  5671   0.415E-02    0.218E-01
RMM:   5    -0.230319665902E+04    0.52085E-03   -0.10282E-03  4272   0.157E-02    0.139E-01
RMM:   6    -0.230319636135E+04    0.29767E-03   -0.11178E-03  5006   0.186E-02    0.805E-02
RMM:   7    -0.230319636952E+04   -0.81739E-05   -0.21356E-04  3344   0.111E-02    0.781E-02
RMM:   8    -0.230319632063E+04    0.48893E-04   -0.73033E-05  2961   0.587E-03    0.259E-02
RMM:   9    -0.230319631524E+04    0.53860E-05   -0.16088E-05  2897   0.390E-03
  50 F= -.23238829E+04 E0= -.23238829E+04  d E =-.465026E-02  mag=     5.0000
       N       E                     dE             d eps       ncg     rms          rms(c)
DAV:   1    -0.230318749651E+04    0.88241E-02   -0.36426E-01  4624   0.523E-01    0.201E-01
RMM:   2    -0.230319604871E+04   -0.85522E-02   -0.88325E-02  6353   0.130E-01    0.165E-01
RMM:   3    -0.230319687837E+04   -0.82966E-03   -0.99903E-03  5125   0.500E-02    0.153E-01
RMM:   4    -0.230319669543E+04    0.18295E-03   -0.92857E-04  3242   0.116E-02    0.565E-02
RMM:   5    -0.230319666160E+04    0.33824E-04   -0.73094E-05  2923   0.545E-03    0.410E-02
RMM:   6    -0.230319666056E+04    0.10414E-05   -0.58510E-05  2912   0.467E-03
  51 F= -.23238831E+04 E0= -.23238831E+04  d E =-.482026E-02  mag=     5.0000
       N       E                     dE             d eps       ncg     rms          rms(c)
DAV:   1    -0.230316177962E+04    0.34882E-01   -0.14631E+00  4456   0.105E+00    0.427E-01
RMM:   2    -0.230319885853E+04   -0.37079E-01   -0.37589E-01  6288   0.272E-01    0.446E-01
RMM:   3    -0.230320148722E+04   -0.26287E-02   -0.42850E-02  5922   0.106E-01    0.321E-01
RMM:   4    -0.230320057192E+04    0.91530E-03   -0.39386E-03  4889   0.233E-02    0.114E-01
RMM:   5    -0.230320041109E+04    0.16082E-03   -0.34076E-04  3519   0.965E-03    0.785E-02
RMM:   6    -0.230320043536E+04   -0.24264E-04   -0.29946E-04  3615   0.980E-03    0.120E-01
RMM:   7    -0.230320031925E+04    0.11611E-03   -0.16532E-04  3348   0.838E-03    0.198E-02
RMM:   8    -0.230320031724E+04    0.20099E-05   -0.26833E-05  2972   0.512E-03
  52 F= -.23238863E+04 E0= -.23238863E+04  d E =-.322227E-02  mag=     5.0000
       N       E                     dE             d eps       ncg     rms          rms(c)
DAV:   1    -0.230308238375E+04    0.11794E+00   -0.45827E+00  4456   0.185E+00    0.764E-01
RMM:   2    -0.230319961818E+04   -0.11723E+00   -0.11802E+00  6378   0.485E-01    0.859E-01
RMM:   3    -0.230320686034E+04   -0.72422E-02   -0.13731E-01  6086   0.185E-01    0.572E-01
RMM:   4    -0.230320407702E+04    0.27833E-02   -0.12421E-02  5651   0.406E-02    0.202E-01
RMM:   5    -0.230320354593E+04    0.53108E-03   -0.10298E-03  4544   0.159E-02    0.131E-01
RMM:   6    -0.230320327727E+04    0.26867E-03   -0.10329E-03  5063   0.183E-02    0.533E-02
RMM:   7    -0.230320326647E+04    0.10801E-04   -0.13054E-04  3499   0.100E-02    0.385E-02
RMM:   8    -0.230320326304E+04    0.34277E-05   -0.42690E-05  2899   0.476E-03
  53 F= -.23238884E+04 E0= -.23238884E+04  d E =-.535596E-02  mag=     5.0000
       N       E                     dE             d eps       ncg     rms          rms(c)
DAV:   1    -0.230314865933E+04    0.54607E-01   -0.21382E+00  4456   0.123E+00    0.539E-01
RMM:   2    -0.230320707578E+04   -0.58416E-01   -0.57652E-01  6395   0.334E-01    0.705E-01
RMM:   3    -0.230320871001E+04   -0.16342E-02   -0.63509E-02  6050   0.125E-01    0.374E-01
RMM:   4    -0.230320756246E+04    0.11475E-02   -0.60118E-03  5228   0.269E-02    0.137E-01
RMM:   5    -0.230320732970E+04    0.23276E-03   -0.41811E-04  3954   0.110E-02    0.105E-01
RMM:   6    -0.230320733292E+04   -0.32155E-05   -0.41053E-04  3564   0.110E-02    0.132E-01
RMM:   7    -0.230320718949E+04    0.14343E-03   -0.25013E-04  3861   0.972E-03    0.246E-02
RMM:   8    -0.230320718725E+04    0.22409E-05   -0.34340E-05  2990   0.555E-03
  54 F= -.23238918E+04 E0= -.23238918E+04  d E =-.338691E-02  mag=     5.0000
       N       E                     dE             d eps       ncg     rms          rms(c)
DAV:   1    -0.230313040434E+04    0.76785E-01   -0.28677E+00  4456   0.142E+00    0.624E-01
RMM:   2    -0.230320864885E+04   -0.78245E-01   -0.77212E-01  6428   0.388E-01    0.813E-01
RMM:   3    -0.230321103948E+04   -0.23906E-02   -0.86771E-02  6086   0.146E-01    0.431E-01
RMM:   4    -0.230320951205E+04    0.15274E-02   -0.81029E-03  5424   0.312E-02    0.158E-01
RMM:   5    -0.230320916017E+04    0.35189E-03   -0.55855E-04  4258   0.127E-02    0.107E-01
RMM:   6    -0.230320913911E+04    0.21058E-04   -0.68230E-04  4565   0.148E-02    0.130E-01
RMM:   7    -0.230320900162E+04    0.13749E-03   -0.17090E-04  3146   0.882E-03    0.250E-02
RMM:   8    -0.230320900040E+04    0.12192E-05   -0.36737E-05  3040   0.466E-03
  55 F= -.23238930E+04 E0= -.23238930E+04  d E =-.455117E-02  mag=     5.0000
       N       E                     dE             d eps       ncg     rms          rms(c)
DAV:   1    -0.230315300122E+04    0.56000E-01   -0.21016E+00  4456   0.118E+00    0.543E-01
RMM:   2    -0.230321270922E+04   -0.59708E-01   -0.58336E-01  6438   0.329E-01    0.758E-01
RMM:   3    -0.230321364378E+04   -0.93456E-03   -0.65546E-02  6038   0.124E-01    0.355E-01
RMM:   4    -0.230321269660E+04    0.94718E-03   -0.61854E-03  5133   0.262E-02    0.134E-01
RMM:   5    -0.230321247423E+04    0.22237E-03   -0.39899E-04  3854   0.105E-02    0.107E-01
RMM:   6    -0.230321247383E+04    0.40093E-06   -0.38661E-04  3368   0.107E-02    0.127E-01
RMM:   7    -0.230321234088E+04    0.13295E-03   -0.23444E-04  3792   0.929E-03    0.229E-02
RMM:   8    -0.230321234004E+04    0.83681E-06   -0.28088E-05  2963   0.531E-03
  56 F= -.23238958E+04 E0= -.23238958E+04  d E =-.284529E-02  mag=     5.0000
       N       E                     dE             d eps       ncg     rms          rms(c)
DAV:   1    -0.230307307973E+04    0.13926E+00   -0.49462E+00  4456   0.181E+00    0.837E-01
RMM:   2    -0.230321525863E+04   -0.14218E+00   -0.13852E+00  6463   0.509E-01    0.119E+00
RMM:   3    -0.230321659300E+04   -0.13344E-02   -0.15646E-01  6118   0.191E-01    0.533E-01
RMM:   4    -0.230321449839E+04    0.20946E-02   -0.14616E-02  5538   0.398E-02    0.207E-01
RMM:   5    -0.230321388863E+04    0.60976E-03   -0.93993E-04  4620   0.160E-02    0.141E-01
RMM:   6    -0.230321365574E+04    0.23288E-03   -0.10770E-03  4872   0.189E-02    0.580E-02
RMM:   7    -0.230321366637E+04   -0.10629E-04   -0.15267E-04  3205   0.921E-03    0.596E-02
RMM:   8    -0.230321363956E+04    0.26818E-04   -0.50210E-05  2917   0.493E-03    0.208E-02
RMM:   9    -0.230321363696E+04    0.26002E-05   -0.16339E-05  2900   0.344E-03
  57 F= -.23238963E+04 E0= -.23238963E+04  d E =-.336153E-02  mag=     5.0000
       N       E                     dE             d eps       ncg     rms          rms(c)
DAV:   1    -0.230319248046E+04    0.21159E-01   -0.75310E-01  4496   0.706E-01    0.319E-01
RMM:   2    -0.230321340132E+04   -0.20921E-01   -0.20719E-01  6419   0.195E-01    0.407E-01
RMM:   3    -0.230321430491E+04   -0.90359E-03   -0.23884E-02  5698   0.762E-02    0.233E-01
RMM:   4    -0.230321385072E+04    0.45419E-03   -0.22166E-03  3797   0.164E-02    0.894E-02
RMM:   5    -0.230321380494E+04    0.45781E-04   -0.15593E-04  3019   0.677E-03    0.891E-02
RMM:   6    -0.230321372052E+04    0.84419E-04   -0.13878E-04  2992   0.674E-03    0.462E-02
RMM:   7    -0.230321370070E+04    0.19816E-04   -0.12001E-04  3280   0.690E-03    0.149E-02
RMM:   8    -0.230321369919E+04    0.15091E-05   -0.11549E-05  2882   0.440E-03
  58 F= -.23238967E+04 E0= -.23238967E+04  d E =-.373124E-02  mag=     5.0000
       N       E                     dE             d eps       ncg     rms          rms(c)
DAV:   1    -0.230314859798E+04    0.65103E-01   -0.25291E+00  4456   0.132E+00    0.594E-01
RMM:   2    -0.230321783286E+04   -0.69235E-01   -0.67633E-01  6413   0.359E-01    0.800E-01
RMM:   3    -0.230321907585E+04   -0.12430E-02   -0.76774E-02  6038   0.139E-01    0.388E-01
RMM:   4    -0.230321789320E+04    0.11826E-02   -0.72454E-03  5292   0.291E-02    0.145E-01
RMM:   5    -0.230321763392E+04    0.25928E-03   -0.49917E-04  4137   0.120E-02    0.118E-01
RMM:   6    -0.230321761744E+04    0.16480E-04   -0.44223E-04  3476   0.116E-02    0.133E-01
RMM:   7    -0.230321746435E+04    0.15308E-03   -0.26696E-04  4068   0.101E-02    0.218E-02
RMM:   8    -0.230321746142E+04    0.29374E-05   -0.27381E-05  2926   0.576E-03
  59 F= -.23238999E+04 E0= -.23238999E+04  d E =-.322859E-02  mag=     5.0000
       N       E                     dE             d eps       ncg     rms          rms(c)
DAV:   1    -0.230317840385E+04    0.39061E-01   -0.14591E+00  4460   0.100E+00    0.450E-01
RMM:   2    -0.230321816694E+04   -0.39763E-01   -0.39109E-01  6392   0.273E-01    0.584E-01
RMM:   3    -0.230321921795E+04   -0.10510E-02   -0.43932E-02  5930   0.104E-01    0.302E-01
RMM:   4    -0.230321848869E+04    0.72926E-03   -0.41911E-03  4828   0.223E-02    0.111E-01
RMM:   5    -0.230321836236E+04    0.12633E-03   -0.29737E-04  3469   0.928E-03    0.101E-01
RMM:   6    -0.230321830691E+04    0.55446E-04   -0.23313E-04  3070   0.901E-03    0.870E-02
RMM:   7    -0.230321824346E+04    0.63456E-04   -0.16780E-04  3781   0.849E-03    0.180E-02
RMM:   8    -0.230321824184E+04    0.16135E-05   -0.17087E-05  2922   0.515E-03
  60 F= -.23239003E+04 E0= -.23239003E+04  d E =-.359356E-02  mag=     5.0000
       N       E                     dE             d eps       ncg     rms          rms(c)
DAV:   1    -0.230313122310E+04    0.87020E-01   -0.33135E+00  4456   0.149E+00    0.667E-01
RMM:   2    -0.230322097601E+04   -0.89753E-01   -0.88329E-01  6448   0.404E-01    0.853E-01
RMM:   3    -0.230322346874E+04   -0.24927E-02   -0.10065E-01  6071   0.155E-01    0.434E-01
RMM:   4    -0.230322196850E+04    0.15002E-02   -0.95985E-03  5407   0.323E-02    0.163E-01
RMM:   5    -0.230322160636E+04    0.36214E-03   -0.56461E-04  4050   0.124E-02    0.109E-01
RMM:   6    -0.230322151702E+04    0.89337E-04   -0.66368E-04  4443   0.152E-02    0.945E-02
RMM:   7    -0.230322145177E+04    0.65251E-04   -0.12719E-04  3098   0.801E-03    0.295E-02
RMM:   8    -0.230322144825E+04    0.35263E-05   -0.21039E-05  2937   0.413E-03
  61 F= -.23239026E+04 E0= -.23239026E+04  d E =-.233604E-02  mag=     5.0000
       N       E                     dE             d eps       ncg     rms          rms(c)
DAV:   1    -0.230320152361E+04    0.19928E-01   -0.75439E-01  4512   0.711E-01    0.317E-01
RMM:   2    -0.230322175155E+04   -0.20228E-01   -0.20030E-01  6395   0.191E-01    0.387E-01
RMM:   3    -0.230322252808E+04   -0.77653E-03   -0.22797E-02  5654   0.748E-02    0.211E-01
RMM:   4    -0.230322215382E+04    0.37426E-03   -0.21856E-03  3657   0.159E-02    0.784E-02
RMM:   5    -0.230322209611E+04    0.57708E-04   -0.14032E-04  3041   0.677E-03    0.705E-02
RMM:   6    -0.230322206991E+04    0.26199E-04   -0.10713E-04  2941   0.618E-03    0.621E-02
RMM:   7    -0.230322203850E+04    0.31409E-04   -0.93445E-05  3107   0.650E-03    0.117E-02
RMM:   8    -0.230322203858E+04   -0.73749E-07   -0.10591E-05  2906   0.410E-03
  62 F= -.23239028E+04 E0= -.23239028E+04  d E =-.249740E-02  mag=     5.0000
       N       E                     dE             d eps       ncg     rms          rms(c)
DAV:   1    -0.230316072316E+04    0.61315E-01   -0.25186E+00  4456   0.137E+00    0.583E-01
RMM:   2    -0.230322396160E+04   -0.63238E-01   -0.63415E-01  6315   0.353E-01    0.624E-01
RMM:   3    -0.230322780862E+04   -0.38470E-02   -0.73797E-02  5993   0.142E-01    0.415E-01
RMM:   4    -0.230322623098E+04    0.15776E-02   -0.70840E-03  5505   0.307E-02    0.145E-01
RMM:   5    -0.230322600444E+04    0.22654E-03   -0.60503E-04  4205   0.129E-02    0.114E-01
RMM:   6    -0.230322599997E+04    0.44792E-05   -0.45571E-04  4047   0.118E-02    0.134E-01
RMM:   7    -0.230322584800E+04    0.15197E-03   -0.25937E-04  3835   0.103E-02    0.243E-02
RMM:   8    -0.230322584453E+04    0.34626E-05   -0.30651E-05  2997   0.570E-03
  63 F= -.23239055E+04 E0= -.23239055E+04  d E =-.276113E-02  mag=     5.0000
       N       E                     dE             d eps       ncg     rms          rms(c)
DAV:   1    -0.230322094402E+04    0.49040E-02   -0.20366E-01  4688   0.388E-01    0.167E-01
RMM:   2    -0.230322606525E+04   -0.51212E-02   -0.51380E-02  6363   0.101E-01    0.180E-01
RMM:   3    -0.230322635764E+04   -0.29239E-03   -0.59124E-03  4668   0.408E-02    0.116E-01
RMM:   4    -0.230322623416E+04    0.12349E-03   -0.57396E-04  3114   0.954E-03    0.407E-02
RMM:   5    -0.230322621303E+04    0.21127E-04   -0.48216E-05  2929   0.487E-03    0.259E-02
RMM:   6    -0.230322620538E+04    0.76531E-05   -0.42692E-05  2989   0.482E-03
  64 F= -.23239056E+04 E0= -.23239056E+04  d E =-.281801E-02  mag=     5.0000
       N       E                     dE             d eps       ncg     rms          rms(c)
DAV:   1    -0.230318154696E+04    0.44666E-01   -0.19258E+00  4456   0.120E+00    0.481E-01
RMM:   2    -0.230322601356E+04   -0.44467E-01   -0.45819E-01  6274   0.300E-01    0.387E-01
RMM:   3    -0.230323052519E+04   -0.45116E-02   -0.54904E-02  5922   0.121E-01    0.344E-01
RMM:   4    -0.230322952212E+04    0.10031E-02   -0.52330E-03  5247   0.268E-02    0.135E-01
RMM:   5    -0.230322930815E+04    0.21397E-03   -0.45687E-04  3984   0.114E-02    0.808E-02
RMM:   6    -0.230322921621E+04    0.91946E-04   -0.38941E-04  4705   0.126E-02    0.456E-02
RMM:   7    -0.230322921623E+04   -0.22439E-07   -0.78877E-05  2962   0.788E-03
  65 F= -.23239077E+04 E0= -.23239077E+04  d E =-.209513E-02  mag=     5.0000
       N       E                     dE             d eps       ncg     rms          rms(c)
DAV:   1    -0.230322434067E+04    0.48755E-02   -0.20874E-01  4640   0.396E-01    0.161E-01
RMM:   2    -0.230322915949E+04   -0.48188E-02   -0.49756E-02  6273   0.988E-02    0.135E-01
RMM:   3    -0.230322963874E+04   -0.47925E-03   -0.59438E-03  4687   0.413E-02    0.116E-01
RMM:   4    -0.230322952152E+04    0.11723E-03   -0.56857E-04  3108   0.974E-03    0.442E-02
RMM:   5    -0.230322949801E+04    0.23504E-04   -0.55480E-05  2936   0.514E-03    0.275E-02
RMM:   6    -0.230322949901E+04   -0.99598E-06   -0.45227E-05  2965   0.482E-03
  66 F= -.23239077E+04 E0= -.23239077E+04  d E =-.207245E-02  mag=     5.0000
       N       E                     dE             d eps       ncg     rms          rms(c)
DAV:   1    -0.230319185082E+04    0.37647E-01   -0.16723E+00  4440   0.113E+00    0.427E-01
RMM:   2    -0.230322879321E+04   -0.36942E-01   -0.38611E-01  6241   0.269E-01    0.239E-01
RMM:   3    -0.230323283011E+04   -0.40369E-02   -0.46947E-02  5770   0.105E-01    0.197E-01
RMM:   4    -0.230323279454E+04    0.35569E-04   -0.39151E-03  4304   0.205E-02    0.141E-01
RMM:   5    -0.230323260508E+04    0.18946E-03   -0.30462E-04  3336   0.104E-02    0.791E-02
RMM:   6    -0.230323259638E+04    0.87044E-05   -0.33475E-04  4185   0.103E-02    0.103E-01
RMM:   7    -0.230323251531E+04    0.81071E-04   -0.12195E-04  3141   0.795E-03    0.259E-02
RMM:   8    -0.230323250988E+04    0.54300E-05   -0.20434E-05  2906   0.432E-03
  67 F= -.23239100E+04 E0= -.23239100E+04  d E =-.229587E-02  mag=     5.0000
       N       E                     dE             d eps       ncg     rms          rms(c)
DAV:   1    -0.230319918283E+04    0.33332E-01   -0.14178E+00  4440   0.104E+00    0.394E-01
RMM:   2    -0.230323055852E+04   -0.31376E-01   -0.32794E-01  6234   0.249E-01    0.220E-01
RMM:   3    -0.230323402927E+04   -0.34707E-02   -0.40046E-02  5786   0.962E-02    0.183E-01
RMM:   4    -0.230323396901E+04    0.60258E-04   -0.33590E-03  4091   0.191E-02    0.127E-01
RMM:   5    -0.230323380751E+04    0.16150E-03   -0.25135E-04  3143   0.963E-03    0.695E-02
RMM:   6    -0.230323373721E+04    0.70298E-04   -0.28383E-04  4441   0.101E-02    0.329E-02
RMM:   7    -0.230323374318E+04   -0.59663E-05   -0.51651E-05  2910   0.731E-03
  68 F= -.23239105E+04 E0= -.23239105E+04  d E =-.286477E-02  mag=     5.0000
       N       E                     dE             d eps       ncg     rms          rms(c)
DAV:   1    -0.230320146948E+04    0.32268E-01   -0.15539E+00  4440   0.110E+00    0.405E-01
RMM:   2    -0.230323355576E+04   -0.32086E-01   -0.33711E-01  6200   0.254E-01    0.197E-01
RMM:   3    -0.230323694561E+04   -0.33899E-02   -0.40417E-02  5713   0.971E-02    0.120E-01
RMM:   4    -0.230323709185E+04   -0.14624E-03   -0.32215E-03  4145   0.179E-02    0.118E-01
RMM:   5    -0.230323699290E+04    0.98953E-04   -0.28643E-04  3243   0.105E-02    0.802E-02
RMM:   6    -0.230323691370E+04    0.79197E-04   -0.22376E-04  4260   0.933E-03    0.315E-02
RMM:   7    -0.230323690788E+04    0.58158E-05   -0.34515E-05  2896   0.706E-03
  69 F= -.23239132E+04 E0= -.23239132E+04  d E =-.266101E-02  mag=     5.0000
       N       E                     dE             d eps       ncg     rms          rms(c)
DAV:   1    -0.230320903164E+04    0.27882E-01   -0.12672E+00  4440   0.994E-01    0.365E-01
RMM:   2    -0.230323527029E+04   -0.26239E-01   -0.27564E-01  6187   0.231E-01    0.175E-01
RMM:   3    -0.230323806796E+04   -0.27977E-02   -0.33105E-02  5671   0.888E-02    0.118E-01
RMM:   4    -0.230323822274E+04   -0.15478E-03   -0.27307E-03  3750   0.164E-02    0.129E-01
RMM:   5    -0.230323809136E+04    0.13138E-03   -0.20507E-04  3027   0.848E-03    0.726E-02
RMM:   6    -0.230323805943E+04    0.31925E-04   -0.22876E-04  3952   0.957E-03    0.653E-02
RMM:   7    -0.230323803092E+04    0.28510E-04   -0.75340E-05  3128   0.697E-03    0.321E-02
RMM:   8    -0.230323802195E+04    0.89777E-05   -0.14800E-05  2878   0.385E-03
  70 F= -.23239139E+04 E0= -.23239139E+04  d E =-.331519E-02  mag=     5.0000
       N       E                     dE             d eps       ncg     rms          rms(c)
DAV:   1    -0.230320992821E+04    0.28103E-01   -0.13679E+00  4440   0.106E+00    0.386E-01
RMM:   2    -0.230323759019E+04   -0.27662E-01   -0.29053E-01  6085   0.243E-01    0.185E-01
RMM:   3    -0.230324049030E+04   -0.29001E-02   -0.33651E-02  5614   0.912E-02    0.165E-01
RMM:   4    -0.230324053645E+04   -0.46148E-04   -0.28672E-03  3964   0.175E-02    0.126E-01
RMM:   5    -0.230324039466E+04    0.14179E-03   -0.21194E-04  3392   0.902E-03    0.781E-02
RMM:   6    -0.230324038913E+04    0.55236E-05   -0.25103E-04  3904   0.103E-02    0.849E-02
RMM:   7    -0.230324032048E+04    0.68653E-04   -0.10549E-04  3572   0.761E-03    0.226E-02
RMM:   8    -0.230324031642E+04    0.40557E-05   -0.13129E-05  2874   0.482E-03
  71 F= -.23239158E+04 E0= -.23239158E+04  d E =-.191332E-02  mag=     5.0000
       N       E                     dE             d eps       ncg     rms          rms(c)
DAV:   1    -0.230323283476E+04    0.74857E-02   -0.34907E-01  4584   0.536E-01    0.195E-01
RMM:   2    -0.230323992699E+04   -0.70922E-02   -0.74381E-02  6083   0.123E-01    0.100E-01
RMM:   3    -0.230324069012E+04   -0.76313E-03   -0.84972E-03  4829   0.463E-02    0.111E-01
RMM:   4    -0.230324065336E+04    0.36757E-04   -0.73900E-04  3094   0.967E-03    0.572E-02
RMM:   5    -0.230324062367E+04    0.29692E-04   -0.54769E-05  2986   0.512E-03    0.430E-02
RMM:   6    -0.230324061842E+04    0.52459E-05   -0.61362E-05  2931   0.576E-03
  72 F= -.23239159E+04 E0= -.23239159E+04  d E =-.202150E-02  mag=     5.0000
       N       E                     dE             d eps       ncg     rms          rms(c)
DAV:   1    -0.230321572320E+04    0.24900E-01   -0.12480E+00  4440   0.103E+00    0.369E-01
RMM:   2    -0.230324081479E+04   -0.25092E-01   -0.26147E-01  6124   0.236E-01    0.215E-01
RMM:   3    -0.230324345739E+04   -0.26426E-02   -0.28799E-02  5687   0.886E-02    0.233E-01
RMM:   4    -0.230324313676E+04    0.32063E-03   -0.26416E-03  4048   0.184E-02    0.108E-01
RMM:   5    -0.230324305568E+04    0.81078E-04   -0.19744E-04  3405   0.878E-03    0.914E-02
RMM:   6    -0.230324300962E+04    0.46061E-04   -0.20651E-04  3491   0.945E-03    0.727E-02
RMM:   7    -0.230324295910E+04    0.50526E-04   -0.12914E-04  4026   0.828E-03    0.199E-02
RMM:   8    -0.230324295560E+04    0.35008E-05   -0.15581E-05  2930   0.529E-03
  73 F= -.23239176E+04 E0= -.23239176E+04  d E =-.175664E-02  mag=     5.0000
       N       E                     dE             d eps       ncg     rms          rms(c)
DAV:   1    -0.230323593035E+04    0.70288E-02   -0.34673E-01  4512   0.540E-01    0.196E-01
RMM:   2    -0.230324295788E+04   -0.70275E-02   -0.72805E-02  6149   0.125E-01    0.136E-01
RMM:   3    -0.230324370107E+04   -0.74319E-03   -0.79749E-03  5045   0.456E-02    0.154E-01
RMM:   4    -0.230324353308E+04    0.16800E-03   -0.74683E-04  3138   0.106E-02    0.541E-02
RMM:   5    -0.230324351831E+04    0.14765E-04   -0.72069E-05  3011   0.545E-03    0.537E-02
RMM:   6    -0.230324349508E+04    0.23233E-04   -0.58614E-05  2925   0.562E-03    0.318E-02
RMM:   7    -0.230324348500E+04    0.10080E-04   -0.37653E-05  3074   0.511E-03    0.967E-03
RMM:   8    -0.230324348452E+04    0.48341E-06   -0.61435E-06  2855   0.399E-03
  74 F= -.23239179E+04 E0= -.23239179E+04  d E =-.197918E-02  mag=     5.0000
       N       E                     dE             d eps       ncg     rms          rms(c)
DAV:   1    -0.230321970097E+04    0.23784E-01   -0.13145E+00  4456   0.105E+00    0.386E-01
RMM:   2    -0.230324498264E+04   -0.25282E-01   -0.26105E-01  6142   0.247E-01    0.290E-01
RMM:   3    -0.230324739607E+04   -0.24134E-02   -0.27702E-02  5806   0.916E-02    0.300E-01
RMM:   4    -0.230324668039E+04    0.71568E-03   -0.28323E-03  4818   0.210E-02    0.111E-01
RMM:   5    -0.230324662543E+04    0.54960E-04   -0.28247E-04  3655   0.968E-03    0.110E-01
RMM:   6    -0.230324652940E+04    0.96028E-04   -0.24512E-04  3861   0.101E-02    0.662E-02
RMM:   7    -0.230324648807E+04    0.41331E-04   -0.15085E-04  4167   0.884E-03    0.191E-02
RMM:   8    -0.230324648418E+04    0.38882E-05   -0.17464E-05  2948   0.534E-03
  75 F= -.23239201E+04 E0= -.23239201E+04  d E =-.219886E-02  mag=     5.0000
       N       E                     dE             d eps       ncg     rms          rms(c)
DAV:   1    -0.230324184042E+04    0.46476E-02   -0.25125E-01  4592   0.460E-01    0.170E-01
RMM:   2    -0.230324669946E+04   -0.48590E-02   -0.50004E-02  6154   0.108E-01    0.137E-01
RMM:   3    -0.230324713464E+04   -0.43517E-03   -0.52434E-03  4859   0.399E-02    0.135E-01
RMM:   4    -0.230324699257E+04    0.14207E-03   -0.54297E-04  3097   0.983E-03    0.486E-02
RMM:   5    -0.230324698330E+04    0.92734E-05   -0.57770E-05  2985   0.523E-03
  76 F= -.23239202E+04 E0= -.23239202E+04  d E =-.234689E-02  mag=     5.0000
       N       E                     dE             d eps       ncg     rms          rms(c)
DAV:   1    -0.230323080433E+04    0.16188E-01   -0.99037E-01  4456   0.884E-01    0.312E-01
RMM:   2    -0.230324861881E+04   -0.17814E-01   -0.18105E-01  6280   0.204E-01    0.275E-01
RMM:   3    -0.230324996549E+04   -0.13467E-02   -0.18851E-02  5813   0.741E-02    0.231E-01
RMM:   4    -0.230324949335E+04    0.47214E-03   -0.18710E-03  4036   0.172E-02    0.894E-02
RMM:   5    -0.230324941303E+04    0.80325E-04   -0.20968E-04  3676   0.896E-03    0.672E-02
RMM:   6    -0.230324942852E+04   -0.15494E-04   -0.19254E-04  3575   0.913E-03    0.902E-02
RMM:   7    -0.230324936749E+04    0.61034E-04   -0.93991E-05  3228   0.727E-03    0.146E-02
RMM:   8    -0.230324936481E+04    0.26737E-05   -0.14187E-05  2928   0.440E-03
  77 F= -.23239220E+04 E0= -.23239220E+04  d E =-.177660E-02  mag=     5.0000
       N       E                     dE             d eps       ncg     rms          rms(c)
DAV:   1    -0.230321621966E+04    0.33148E-01   -0.18430E+00  4456   0.120E+00    0.433E-01
RMM:   2    -0.230324925954E+04   -0.33040E-01   -0.33824E-01  6239   0.279E-01    0.356E-01
RMM:   3    -0.230325203686E+04   -0.27773E-02   -0.35377E-02  5915   0.994E-02    0.330E-01
RMM:   4    -0.230325113673E+04    0.90012E-03   -0.35610E-03  4900   0.230E-02    0.125E-01
RMM:   5    -0.230325106827E+04    0.68456E-04   -0.34892E-04  3646   0.994E-03    0.124E-01
RMM:   6    -0.230325095147E+04    0.11680E-03   -0.29353E-04  3955   0.106E-02    0.790E-02
RMM:   7    -0.230325089559E+04    0.55884E-04   -0.20458E-04  4292   0.955E-03    0.224E-02
RMM:   8    -0.230325088979E+04    0.57976E-05   -0.21395E-05  2971   0.556E-03
  78 F= -.23239227E+04 E0= -.23239227E+04  d E =-.247582E-02  mag=     5.0000
       N       E                     dE             d eps       ncg     rms          rms(c)
DAV:   1    -0.230324128023E+04    0.96154E-02   -0.67165E-01  4480   0.706E-01    0.257E-01
RMM:   2    -0.230325255813E+04   -0.11278E-01   -0.11535E-01  6216   0.163E-01    0.213E-01
RMM:   3    -0.230325348173E+04   -0.92361E-03   -0.11838E-02  5555   0.572E-02    0.192E-01
RMM:   4    -0.230325316912E+04    0.31261E-03   -0.11672E-03  3356   0.136E-02    0.706E-02
RMM:   5    -0.230325314588E+04    0.23239E-04   -0.12934E-04  3088   0.694E-03    0.712E-02
RMM:   6    -0.230325311316E+04    0.32726E-04   -0.10524E-04  3027   0.704E-03    0.494E-02
RMM:   7    -0.230325309592E+04    0.17237E-04   -0.60320E-05  3167   0.632E-03    0.130E-02
RMM:   8    -0.230325309459E+04    0.13275E-05   -0.85399E-06  2885   0.429E-03
  79 F= -.23239245E+04 E0= -.23239245E+04  d E =-.183945E-02  mag=     5.0000
       N       E                     dE             d eps       ncg     rms          rms(c)
DAV:   1    -0.230315381916E+04    0.99277E-01   -0.58062E+00  4456   0.208E+00    0.753E-01
RMM:   2    -0.230325140835E+04   -0.97589E-01   -0.99957E-01  6222   0.482E-01    0.604E-01
RMM:   3    -0.230325975272E+04   -0.83444E-02   -0.10553E-01  6015   0.171E-01    0.551E-01
RMM:   4    -0.230325714777E+04    0.26050E-02   -0.10122E-02  5707   0.390E-02    0.215E-01
RMM:   5    -0.230325692539E+04    0.22238E-03   -0.10855E-03  4665   0.163E-02    0.205E-01
RMM:   6    -0.230325666065E+04    0.26473E-03   -0.90954E-04  4931   0.166E-02    0.151E-01
RMM:   7    -0.230325647631E+04    0.18434E-03   -0.51655E-04  4812   0.141E-02    0.391E-02
RMM:   8    -0.230325646091E+04    0.15399E-04   -0.56588E-05  3101   0.713E-03    0.180E-02
RMM:   9    -0.230325645635E+04    0.45536E-05   -0.13760E-05  2870   0.355E-03
  80 F= -.23239268E+04 E0= -.23239268E+04  d E =-.413409E-02  mag=     5.0000
       N       E                     dE             d eps       ncg     rms          rms(c)
DAV:   1    -0.230323946885E+04    0.16992E-01   -0.11056E+00  4488   0.857E-01    0.325E-01
RMM:   2    -0.230325830473E+04   -0.18836E-01   -0.19443E-01  6301   0.205E-01    0.229E-01
RMM:   3    -0.230325993872E+04   -0.16340E-02   -0.19338E-02  5771   0.709E-02    0.216E-01
RMM:   4    -0.230325955918E+04    0.37954E-03   -0.18649E-03  3623   0.164E-02    0.906E-02
RMM:   5    -0.230325947877E+04    0.80410E-04   -0.18561E-04  3158   0.848E-03    0.635E-02
RMM:   6    -0.230325950075E+04   -0.21981E-04   -0.19358E-04  3462   0.860E-03    0.910E-02
RMM:   7    -0.230325944080E+04    0.59955E-04   -0.86570E-05  3123   0.696E-03    0.176E-02
RMM:   8    -0.230325943801E+04    0.27903E-05   -0.13746E-05  2931   0.401E-03
  81 F= -.23239294E+04 E0= -.23239294E+04  d E =-.260830E-02  mag=     5.0000
       N       E                     dE             d eps       ncg     rms          rms(c)
DAV:   1    -0.230313434981E+04    0.12509E+00   -0.70895E+00  4456   0.217E+00    0.826E-01
RMM:   2    -0.230325618881E+04   -0.12184E+00   -0.12546E+00  6280   0.521E-01    0.614E-01
RMM:   3    -0.230326659759E+04   -0.10409E-01   -0.12872E-01  6052   0.181E-01    0.572E-01
RMM:   4    -0.230326387393E+04    0.27237E-02   -0.11999E-02  5759   0.413E-02    0.232E-01
RMM:   5    -0.230326343839E+04    0.43555E-03   -0.12040E-03  4702   0.181E-02    0.185E-01
RMM:   6    -0.230326342298E+04    0.15409E-04   -0.11602E-03  5064   0.176E-02    0.210E-01
RMM:   7    -0.230326308595E+04    0.33703E-03   -0.56317E-04  4666   0.137E-02    0.451E-02
RMM:   8    -0.230326306646E+04    0.19490E-04   -0.74702E-05  3122   0.679E-03    0.202E-02
RMM:   9    -0.230326306072E+04    0.57370E-05   -0.16689E-05  2888   0.373E-03
  82 F= -.23239321E+04 E0= -.23239321E+04  d E =-.530947E-02  mag=     5.0000
       N       E                     dE             d eps       ncg     rms          rms(c)
DAV:   1    -0.230323455782E+04    0.28509E-01   -0.17472E+00  4456   0.105E+00    0.411E-01
RMM:   2    -0.230326466612E+04   -0.30108E-01   -0.31069E-01  6329   0.257E-01    0.281E-01
RMM:   3    -0.230326731265E+04   -0.26465E-02   -0.30828E-02  5889   0.890E-02    0.270E-01
RMM:   4    -0.230326674650E+04    0.56615E-03   -0.29690E-03  4251   0.203E-02    0.118E-01
RMM:   5    -0.230326664194E+04    0.10456E-03   -0.30228E-04  3405   0.972E-03    0.933E-02
RMM:   6    -0.230326663400E+04    0.79489E-05   -0.28557E-04  3662   0.100E-02    0.102E-01
RMM:   7    -0.230326655566E+04    0.78335E-04   -0.14673E-04  3529   0.814E-03    0.244E-02
RMM:   8    -0.230326654991E+04    0.57530E-05   -0.20314E-05  2955   0.492E-03
  83 F= -.23239351E+04 E0= -.23239351E+04  d E =-.297537E-02  mag=     5.0000
       N       E                     dE             d eps       ncg     rms          rms(c)
DAV:   1    -0.230318319129E+04    0.83364E-01   -0.46877E+00  4456   0.171E+00    0.675E-01
RMM:   2    -0.230326437482E+04   -0.81184E-01   -0.83586E-01  6331   0.421E-01    0.485E-01
RMM:   3    -0.230327130301E+04   -0.69282E-02   -0.82138E-02  6059   0.145E-01    0.468E-01
RMM:   4    -0.230326951324E+04    0.17898E-02   -0.79478E-03  5516   0.336E-02    0.191E-01
RMM:   5    -0.230326925961E+04    0.25363E-03   -0.80938E-04  4379   0.147E-02    0.158E-01
RMM:   6    -0.230326920715E+04    0.52464E-04   -0.75102E-04  4689   0.148E-02    0.163E-01
[...]
DAV:   1    -0.230360658360E+04    0.11177E-02   -0.66387E-02  4464   0.260E-01    0.807E-02
RMM:   2    -0.230360779409E+04   -0.12105E-02   -0.12980E-02  5705   0.537E-02    0.473E-02
RMM:   3    -0.230360789127E+04   -0.97176E-04   -0.13031E-03  3790   0.274E-02    0.320E-02
RMM:   4    -0.230360789215E+04   -0.88420E-06   -0.12749E-04  2967   0.550E-03    0.340E-02
RMM:   5    -0.230360787935E+04    0.12808E-04   -0.27862E-05  2864   0.397E-03    0.193E-02
RMM:   6    -0.230360787536E+04    0.39862E-05   -0.20984E-05  2934   0.358E-03
 259 F= -.23242963E+04 E0= -.23242963E+04  d E =-.140605E-03  mag=     5.0000
       N       E                     dE             d eps       ncg     rms          rms(c)
DAV:   1    -0.230360785505E+04    0.24300E-04   -0.11644E-03  5184   0.346E-02    0.134E-02
RMM:   2    -0.230360787886E+04   -0.23810E-04   -0.24824E-04  3473   0.842E-03    0.176E-02
RMM:   3    -0.230360787908E+04   -0.22790E-06   -0.26997E-05  2612   0.522E-03
 260 F= -.23242963E+04 E0= -.23242963E+04  d E =-.139706E-03  mag=     5.0000
       N       E                     dE             d eps       ncg     rms          rms(c)
DAV:   1    -0.230360684036E+04    0.10385E-02   -0.62740E-02  4464   0.252E-01    0.790E-02
RMM:   2    -0.230360800885E+04   -0.11685E-02   -0.12406E-02  5693   0.530E-02    0.569E-02
RMM:   3    -0.230360811928E+04   -0.11043E-03   -0.13286E-03  3801   0.283E-02    0.532E-02
RMM:   4    -0.230360809787E+04    0.21410E-04   -0.12892E-04  2957   0.567E-03    0.293E-02
RMM:   5    -0.230360808342E+04    0.14448E-04   -0.27189E-05  2893   0.378E-03    0.148E-02
RMM:   6    -0.230360808096E+04    0.24594E-05   -0.19249E-05  2931   0.365E-03
 261 F= -.23242964E+04 E0= -.23242964E+04  d E =-.116507E-03  mag=     5.0000
       N       E                     dE             d eps       ncg     rms          rms(c)
DAV:   1    -0.230360807726E+04    0.61567E-05   -0.45666E-04  5200   0.219E-02    0.956E-03
RMM:   2    -0.230360808746E+04   -0.10199E-04   -0.10459E-04  3053   0.557E-03    0.146E-02
RMM:   3    -0.230360808668E+04    0.78831E-06   -0.11438E-05  2463   0.378E-03
 262 F= -.23242964E+04 E0= -.23242964E+04  d E =-.114776E-03  mag=     5.0000
       N       E                     dE             d eps       ncg     rms          rms(c)
DAV:   1    -0.230360718372E+04    0.90374E-03   -0.54969E-02  4464   0.237E-01    0.781E-02
RMM:   2    -0.230360822007E+04   -0.10363E-02   -0.10928E-02  5743   0.507E-02    0.613E-02
RMM:   3    -0.230360832003E+04   -0.99958E-04   -0.12065E-03  3677   0.259E-02    0.581E-02
RMM:   4    -0.230360828998E+04    0.30047E-04   -0.11695E-04  2942   0.567E-03    0.261E-02
RMM:   5    -0.230360827830E+04    0.11684E-04   -0.23448E-05  2881   0.364E-03    0.134E-02
RMM:   6    -0.230360827623E+04    0.20696E-05   -0.16473E-05  2917   0.344E-03
 263 F= -.23242965E+04 E0= -.23242965E+04  d E =-.111717E-03  mag=     5.0000
       N       E                     dE             d eps       ncg     rms          rms(c)
DAV:   1    -0.230360827007E+04    0.82232E-05   -0.64113E-04  5200   0.259E-02    0.106E-02
RMM:   2    -0.230360828411E+04   -0.14041E-04   -0.14242E-04  3173   0.656E-03    0.151E-02
RMM:   3    -0.230360828365E+04    0.46856E-06   -0.16762E-05  2490   0.441E-03
 264 F= -.23242965E+04 E0= -.23242965E+04  d E =-.110566E-03  mag=     5.0000
       N       E                     dE             d eps       ncg     rms          rms(c)
DAV:   1    -0.230360745792E+04    0.82620E-03   -0.45789E-02  4464   0.211E-01    0.717E-02
RMM:   2    -0.230360840315E+04   -0.94524E-03   -0.98080E-03  5872   0.474E-02    0.675E-02
RMM:   3    -0.230360848063E+04   -0.77471E-04   -0.10792E-03  3468   0.223E-02    0.556E-02
RMM:   4    -0.230360845216E+04    0.28468E-04   -0.10586E-04  2941   0.539E-03    0.238E-02
RMM:   5    -0.230360844193E+04    0.10224E-04   -0.19908E-05  2870   0.334E-03    0.127E-02
RMM:   6    -0.230360843982E+04    0.21130E-05   -0.15340E-05  2914   0.322E-03
 265 F= -.23242966E+04 E0= -.23242966E+04  d E =-.908505E-04  mag=     5.0000
       N       E                     dE             d eps       ncg     rms          rms(c)
DAV:   1    -0.230360843995E+04    0.19850E-05   -0.62621E-06  3632   0.395E-03    0.548E-03
RMM:   2    -0.230360844152E+04   -0.15685E-05   -0.49404E-06  2269   0.168E-03
 266 F= -.23242966E+04 E0= -.23242966E+04  d E =-.920141E-04  mag=     5.0000
       N       E                     dE             d eps       ncg     rms          rms(c)
DAV:   1    -0.230360775065E+04    0.68930E-03   -0.40788E-02  4464   0.201E-01    0.736E-02
RMM:   2    -0.230360855246E+04   -0.80180E-03   -0.82682E-03  5920   0.453E-02    0.701E-02
RMM:   3    -0.230360861199E+04   -0.59532E-04   -0.90795E-04  3417   0.197E-02    0.586E-02
RMM:   4    -0.230360857819E+04    0.33798E-04   -0.90093E-05  2941   0.536E-03    0.215E-02
RMM:   5    -0.230360857337E+04    0.48183E-05   -0.18142E-05  2836   0.310E-03
 267 F= -.23242967E+04 E0= -.23242967E+04  d E =-.716273E-04  mag=     5.0000
       N       E                     dE             d eps       ncg     rms          rms(c)
DAV:   1    -0.230360856255E+04    0.15644E-04   -0.24436E-04  5280   0.158E-02    0.135E-02
RMM:   2    -0.230360857410E+04   -0.11549E-04   -0.61424E-05  2938   0.451E-03    0.296E-02
RMM:   3    -0.230360856612E+04    0.79761E-05   -0.11127E-05  2426   0.305E-03
 268 F= -.23242966E+04 E0= -.23242966E+04  d E =-.684465E-04  mag=     5.0000
       N       E                     dE             d eps       ncg     rms          rms(c)
DAV:   1    -0.230360798438E+04    0.58971E-03   -0.36605E-02  4464   0.187E-01    0.683E-02
RMM:   2    -0.230360872983E+04   -0.74545E-03   -0.74503E-03  6007   0.424E-02    0.809E-02
RMM:   3    -0.230360875410E+04   -0.24261E-04   -0.78232E-04  3274   0.174E-02    0.515E-02
RMM:   4    -0.230360872804E+04    0.26059E-04   -0.77127E-05  2936   0.493E-03    0.187E-02
RMM:   5    -0.230360872415E+04    0.38890E-05   -0.14929E-05  2844   0.287E-03
 269 F= -.23242967E+04 E0= -.23242967E+04  d E =-.828218E-04  mag=     5.0000
       N       E                     dE             d eps       ncg     rms          rms(c)
DAV:   1    -0.230360871061E+04    0.17424E-04   -0.11687E-03  4920   0.340E-02    0.149E-02
RMM:   2    -0.230360873791E+04   -0.27299E-04   -0.24835E-04  3439   0.851E-03    0.246E-02
RMM:   3    -0.230360873492E+04    0.29960E-05   -0.28363E-05  2719   0.516E-03
 270 F= -.23242967E+04 E0= -.23242967E+04  d E =-.797078E-04  mag=     5.0000
       N       E                     dE             d eps       ncg     rms          rms(c)
DAV:   1    -0.230360829075E+04    0.44716E-03   -0.30415E-02  4464   0.172E-01    0.628E-02
RMM:   2    -0.230360889085E+04   -0.60010E-03   -0.59349E-03  5996   0.388E-02    0.753E-02
RMM:   3    -0.230360890465E+04   -0.13805E-04   -0.62347E-04  3182   0.159E-02    0.475E-02
RMM:   4    -0.230360888213E+04    0.22516E-04   -0.64544E-05  2935   0.465E-03    0.177E-02
RMM:   5    -0.230360887837E+04    0.37633E-05   -0.14292E-05  2846   0.288E-03
 271 F= -.23242968E+04 E0= -.23242968E+04  d E =-.704660E-04  mag=     5.0000
       N       E                     dE             d eps       ncg     rms          rms(c)
DAV:   1    -0.230360887730E+04    0.48343E-05   -0.32953E-05  4200   0.668E-03    0.107E-02
RMM:   2    -0.230360888377E+04   -0.64733E-05   -0.16272E-05  2585   0.348E-03
 272 F= -.23242968E+04 E0= -.23242968E+04  d E =-.735762E-04  mag=     5.0000
       N       E                     dE             d eps       ncg     rms          rms(c)
DAV:   1    -0.230360887480E+04    0.24962E-05   -0.34002E-05  3136   0.634E-03    0.421E-03
RMM:   2    -0.230360887584E+04   -0.10358E-05   -0.74640E-06  2249   0.257E-03
 273 F= -.23242968E+04 E0= -.23242968E+04  d E =-.676595E-04  mag=     5.0000
       N       E                     dE             d eps       ncg     rms          rms(c)
DAV:   1    -0.230360860617E+04    0.26863E-03   -0.22507E-02  4460   0.151E-01    0.536E-02
RMM:   2    -0.230360899218E+04   -0.38601E-03   -0.39511E-03  5955   0.332E-02    0.506E-02
RMM:   3    -0.230360901815E+04   -0.25970E-04   -0.40971E-04  3104   0.136E-02    0.447E-02
RMM:   4    -0.230360899788E+04    0.20269E-04   -0.41793E-05  2900   0.419E-03    0.143E-02
RMM:   5    -0.230360899416E+04    0.37269E-05   -0.10681E-05  2839   0.262E-03
 274 F= -.23242968E+04 E0= -.23242968E+04  d E =-.496235E-04  mag=     5.0000
       N       E                     dE             d eps       ncg     rms          rms(c)
DAV:   1    -0.230360899477E+04    0.31099E-05   -0.73157E-06  3832   0.386E-03    0.108E-02
RMM:   2    -0.230360900291E+04   -0.81348E-05   -0.15983E-05  2446   0.235E-03
 275 F= -.23242969E+04 E0= -.23242969E+04  d E =-.578921E-04  mag=     5.0000
       N       E                     dE             d eps       ncg     rms          rms(c)
DAV:   1    -0.230360877789E+04    0.21688E-03   -0.20023E-02  4464   0.144E-01    0.503E-02
RMM:   2    -0.230360909835E+04   -0.32046E-03   -0.33132E-03  5934   0.313E-02    0.431E-02
RMM:   3    -0.230360912514E+04   -0.26791E-04   -0.35904E-04  3070   0.129E-02    0.411E-02
RMM:   4    -0.230360910841E+04    0.16727E-04   -0.36318E-05  2891   0.398E-03    0.151E-02
RMM:   5    -0.230360910632E+04    0.20869E-05   -0.78315E-06  2764   0.223E-03
 276 F= -.23242969E+04 E0= -.23242969E+04  d E =-.411798E-04  mag=     5.0000
       N       E                     dE             d eps       ncg     rms          rms(c)
DAV:   1    -0.230360910684E+04    0.15691E-05   -0.47178E-05  4648   0.754E-03    0.831E-03
RMM:   2    -0.230360911085E+04   -0.40119E-05   -0.14741E-05  2553   0.292E-03
 277 F= -.23242969E+04 E0= -.23242969E+04  d E =-.425482E-04  mag=     5.0000
       N       E                     dE             d eps       ncg     rms          rms(c)
DAV:   1    -0.230360889928E+04    0.20756E-03   -0.17386E-02  4464   0.134E-01    0.460E-02
RMM:   2    -0.230360918700E+04   -0.28772E-03   -0.29879E-03  5948   0.294E-02    0.370E-02
RMM:   3    -0.230360921396E+04   -0.26959E-04   -0.32259E-04  3046   0.125E-02    0.378E-02
RMM:   4    -0.230360920044E+04    0.13523E-04   -0.32664E-05  2891   0.372E-03    0.144E-02
RMM:   5    -0.230360919814E+04    0.22909E-05   -0.77283E-06  2795   0.219E-03
 278 F= -.23242969E+04 E0= -.23242969E+04  d E =-.472230E-04  mag=     5.0000
       N       E                     dE             d eps       ncg     rms          rms(c)
DAV:   1    -0.230360919858E+04    0.18559E-05   -0.32883E-05  4288   0.644E-03    0.936E-03
RMM:   2    -0.230360920428E+04   -0.57030E-05   -0.15356E-05  2521   0.331E-03
 279 F= -.23242969E+04 E0= -.23242969E+04  d E =-.515341E-04  mag=     5.0000
       N       E                     dE             d eps       ncg     rms          rms(c)
DAV:   1    -0.230360901492E+04    0.18366E-03   -0.16112E-02  4464   0.129E-01    0.459E-02
RMM:   2    -0.230360927914E+04   -0.26422E-03   -0.27931E-03  5916   0.285E-02    0.290E-02
RMM:   3    -0.230360930614E+04   -0.26998E-04   -0.30627E-04  3016   0.124E-02    0.317E-02
RMM:   4    -0.230360929771E+04    0.84258E-05   -0.30943E-05  2891   0.359E-03
 280 F= -.23242970E+04 E0= -.23242970E+04  d E =-.507968E-04  mag=     5.0000
       N       E                     dE             d eps       ncg     rms          rms(c)
DAV:   1    -0.230360929689E+04    0.92441E-05   -0.46440E-05  4440   0.736E-03    0.111E-02
RMM:   2    -0.230360930111E+04   -0.42190E-05   -0.16156E-05  2549   0.324E-03
 281 F= -.23242970E+04 E0= -.23242970E+04  d E =-.518805E-04  mag=     5.0000
       N       E                     dE             d eps       ncg     rms          rms(c)
DAV:   1    -0.230360922727E+04    0.69624E-04   -0.89515E-03  4464   0.950E-02    0.346E-02
RMM:   2    -0.230360937511E+04   -0.14784E-03   -0.15541E-03  5759   0.216E-02    0.233E-02
RMM:   3    -0.230360939078E+04   -0.15669E-04   -0.17546E-04  2932   0.998E-03    0.258E-02
RMM:   4    -0.230360938525E+04    0.55291E-05   -0.17719E-05  2869   0.279E-03
 282 F= -.23242970E+04 E0= -.23242970E+04  d E =-.392176E-04  mag=     5.0000
       N       E                     dE             d eps       ncg     rms          rms(c)
DAV:   1    -0.230360938610E+04    0.46823E-05   -0.28080E-05  4200   0.561E-03    0.983E-03
RMM:   2    -0.230360938970E+04   -0.36031E-05   -0.11742E-05  2457   0.281E-03
 283 F= -.23242970E+04 E0= -.23242970E+04  d E =-.411402E-04  mag=     5.0000
       N       E                     dE             d eps       ncg     rms          rms(c)
DAV:   1    -0.230360934605E+04    0.40049E-04   -0.67915E-03  4464   0.822E-02    0.306E-02
RMM:   2    -0.230360945319E+04   -0.10714E-03   -0.11334E-03  5619   0.185E-02    0.199E-02
RMM:   3    -0.230360946366E+04   -0.10462E-04   -0.12350E-04  2904   0.842E-03    0.213E-02
RMM:   4    -0.230360946009E+04    0.35642E-05   -0.13118E-05  2821   0.246E-03
 284 F= -.23242971E+04 E0= -.23242971E+04  d E =-.290171E-04  mag=     5.0000
       N       E                     dE             d eps       ncg     rms          rms(c)
DAV:   1    -0.230360945897E+04    0.46864E-05   -0.71176E-06  3684   0.290E-03    0.940E-03
RMM:   2    -0.230360946288E+04   -0.39110E-05   -0.91724E-06  2134   0.196E-03
 285 F= -.23242971E+04 E0= -.23242971E+04  d E =-.319535E-04  mag=     5.0000
       N       E                     dE             d eps       ncg     rms          rms(c)
DAV:   1    -0.230360941365E+04    0.45321E-04   -0.60516E-03  4464   0.777E-02    0.281E-02
RMM:   2    -0.230360950588E+04   -0.92230E-04   -0.96562E-04  5383   0.174E-02    0.196E-02
RMM:   3    -0.230360951428E+04   -0.84057E-05   -0.10383E-04  2892   0.755E-03    0.193E-02
RMM:   4    -0.230360951138E+04    0.29088E-05   -0.10733E-05  2770   0.227E-03
 286 F= -.23242971E+04 E0= -.23242971E+04  d E =-.246941E-04  mag=     5.0000
       N       E                     dE             d eps       ncg     rms          rms(c)
DAV:   1    -0.230360951288E+04    0.13998E-05   -0.38140E-05  4304   0.637E-03    0.915E-03
RMM:   2    -0.230360951843E+04   -0.55439E-05   -0.14135E-05  2416   0.294E-03
 287 F= -.23242971E+04 E0= -.23242971E+04  d E =-.298490E-04  mag=     5.0000
       N       E                     dE             d eps       ncg     rms          rms(c)
DAV:   1    -0.230360946108E+04    0.51807E-04   -0.59805E-03  4464   0.767E-02    0.279E-02
RMM:   2    -0.230360955441E+04   -0.93335E-04   -0.97543E-04  5417   0.174E-02    0.194E-02
RMM:   3    -0.230360956231E+04   -0.78985E-05   -0.10470E-04  2877   0.803E-03    0.187E-02
RMM:   4    -0.230360955968E+04    0.26338E-05   -0.10915E-05  2756   0.225E-03
 288 F= -.23242971E+04 E0= -.23242971E+04  d E =-.190614E-04  mag=     5.0000
       N       E                     dE             d eps       ncg     rms          rms(c)
DAV:   1    -0.230360955967E+04    0.26438E-05   -0.13192E-05  4008   0.405E-03    0.454E-03
RMM:   2    -0.230360956040E+04   -0.73430E-06   -0.39294E-06  2293   0.193E-03
 289 F= -.23242971E+04 E0= -.23242971E+04  d E =-.186297E-04  mag=     5.0000
       N       E                     dE             d eps       ncg     rms          rms(c)
DAV:   1    -0.230360952182E+04    0.37849E-04   -0.50408E-03  4448   0.663E-02    0.246E-02
RMM:   2    -0.230360961184E+04   -0.90024E-04   -0.94866E-04  5113   0.154E-02    0.141E-02
RMM:   3    -0.230360962022E+04   -0.83745E-05   -0.99384E-05  2855   0.697E-03
 290 F= -.23242971E+04 E0= -.23242971E+04  d E =-.236776E-04  mag=     5.0000
       N       E                     dE             d eps       ncg     rms          rms(c)
DAV:   1    -0.230360962197E+04   -0.10130E-04   -0.50413E-05  4248   0.667E-03    0.859E-03
RMM:   2    -0.230360962480E+04   -0.28271E-05   -0.14337E-05  2481   0.303E-03
 291 F= -.23242971E+04 E0= -.23242971E+04  d E =-.250414E-04  mag=     5.0000
       N       E                     dE             d eps       ncg     rms          rms(c)
DAV:   1    -0.230360958996E+04    0.32008E-04   -0.53331E-03  4464   0.682E-02    0.255E-02
RMM:   2    -0.230360968864E+04   -0.98679E-04   -0.10306E-03  5154   0.166E-02    0.171E-02
RMM:   3    -0.230360969824E+04   -0.96003E-05   -0.11163E-04  2866   0.765E-03    0.164E-02
RMM:   4    -0.230360969637E+04    0.18778E-05   -0.11462E-05  2691   0.220E-03
 292 F= -.23242972E+04 E0= -.23242972E+04  d E =-.251265E-04  mag=     5.0000
       N       E                     dE             d eps       ncg     rms          rms(c)
DAV:   1    -0.230360969719E+04    0.10531E-05   -0.10146E-05  3880   0.332E-03    0.670E-03
RMM:   2    -0.230360969880E+04   -0.16048E-05   -0.47411E-06  2127   0.180E-03
 293 F= -.23242972E+04 E0= -.23242972E+04  d E =-.256583E-04  mag=     5.0000
       N       E                     dE             d eps       ncg     rms          rms(c)
DAV:   1    -0.230360966775E+04    0.29438E-04   -0.37076E-03  4414   0.540E-02    0.213E-02
RMM:   2    -0.230360974444E+04   -0.76688E-04   -0.76960E-04  4448   0.133E-02    0.234E-02
RMM:   3    -0.230360974943E+04   -0.49939E-05   -0.87158E-05  2783   0.642E-03
 294 F= -.23242972E+04 E0= -.23242972E+04  d E =-.223453E-04  mag=     5.0000
       N       E                     dE             d eps       ncg     rms          rms(c)
DAV:   1    -0.230360974901E+04   -0.45652E-05   -0.33686E-04  4560   0.164E-02    0.904E-03
RMM:   2    -0.230360975680E+04   -0.77992E-05   -0.77598E-05  2938   0.454E-03
 295 F= -.23242972E+04 E0= -.23242972E+04  d E =-.212092E-04  mag=     5.0000
       N       E                     dE             d eps       ncg     rms          rms(c)
DAV:   1    -0.230360974153E+04    0.74740E-05   -0.32007E-03  4416   0.522E-02    0.196E-02
RMM:   2    -0.230360980500E+04   -0.63469E-04   -0.64503E-04  4287   0.137E-02    0.172E-02
RMM:   3    -0.230360981098E+04   -0.59781E-05   -0.79146E-05  2761   0.720E-03
 296 F= -.23242972E+04 E0= -.23242972E+04  d E =-.271316E-04  mag=     5.0000
       N       E                     dE             d eps       ncg     rms          rms(c)
DAV:   1    -0.230360980983E+04   -0.48325E-05   -0.76395E-04  4368   0.255E-02    0.110E-02
RMM:   2    -0.230360982465E+04   -0.14816E-04   -0.15808E-04  3228   0.684E-03    0.742E-03
RMM:   3    -0.230360982585E+04   -0.12006E-05   -0.20006E-05  2562   0.426E-03
 297 F= -.23242972E+04 E0= -.23242972E+04  d E =-.286954E-04  mag=     5.0000
       N       E                     dE             d eps       ncg     rms          rms(c)
DAV:   1    -0.230360982963E+04   -0.49775E-05   -0.26440E-03  4400   0.482E-02    0.202E-02
RMM:   2    -0.230360988581E+04   -0.56179E-04   -0.49780E-04  4178   0.117E-02    0.337E-02
RMM:   3    -0.230360988008E+04    0.57303E-05   -0.56285E-05  2759   0.620E-03
 298 F= -.23242972E+04 E0= -.23242972E+04  d E =-.224454E-04  mag=     5.0000
       N       E                     dE             d eps       ncg     rms          rms(c)
DAV:   1    -0.230360988513E+04    0.67991E-06   -0.50064E-04  4512   0.210E-02    0.943E-03
RMM:   2    -0.230360989454E+04   -0.94170E-05   -0.98138E-05  3099   0.563E-03
 299 F= -.23242972E+04 E0= -.23242972E+04  d E =-.229683E-04  mag=     5.0000
       N       E                     dE             d eps       ncg     rms          rms(c)
DAV:   1    -0.230360989589E+04   -0.10760E-04   -0.19074E-03  4352   0.408E-02    0.184E-02
RMM:   2    -0.230360994097E+04   -0.45080E-04   -0.37268E-04  3833   0.110E-02    0.357E-02
RMM:   3    -0.230360993220E+04    0.87622E-05   -0.44819E-05  2755   0.629E-03
 300 F= -.23242973E+04 E0= -.23242973E+04  d E =-.163479E-04  mag=     5.0000
       N       E                     dE             d eps       ncg     rms          rms(c)
DAV:   1    -0.230360993597E+04    0.49957E-05   -0.30997E-04  4808   0.164E-02    0.802E-03
RMM:   2    -0.230360994168E+04   -0.57059E-05   -0.58968E-05  2866   0.455E-03
 301 F= -.23242973E+04 E0= -.23242973E+04  d E =-.171298E-04  mag=     5.0000
