       N       E                     dE             d eps       ncg     rms          rms(c)
DAV:   1     0.127998778613E+05    0.12800E+05   -0.83132E+05  4440   0.144E+03
DAV:   2    -0.105739234994E+04   -0.13857E+05   -0.13278E+05  5304   0.331E+02
DAV:   3    -0.247176243037E+04   -0.14144E+04   -0.14013E+04  5352   0.111E+02
DAV:   4    -0.251730773068E+04   -0.45545E+02   -0.45309E+02  6632   0.296E+01
DAV:   5    -0.251821795605E+04   -0.91023E+00   -0.90862E+00  5544   0.328E+00    0.170E+02
RMM:   6    -0.147578416832E+04    0.10424E+04   -0.19227E+03  4403   0.385E+01    0.723E+01
RMM:   7    -0.164934039558E+04   -0.17356E+03   -0.27311E+02  4940   0.137E+01    0.473E+01
RMM:   8    -0.170726742221E+04   -0.57927E+02   -0.33235E+01  5209   0.666E+00    0.383E+01
RMM:   9    -0.181909997705E+04   -0.11183E+03   -0.62306E+01  4986   0.748E+00    0.359E+01
RMM:  10    -0.192715358245E+04   -0.10805E+03   -0.52093E+01  5219   0.683E+00    0.215E+01
RMM:  11    -0.203696977954E+04   -0.10982E+03   -0.45698E+01  4848   0.546E+00    0.144E+01
RMM:  12    -0.216122251928E+04   -0.12425E+03   -0.80170E+01  4424   0.667E+00    0.119E+01
RMM:  13    -0.226538291594E+04   -0.10416E+03   -0.95419E+01  4456   0.680E+00    0.976E+00
RMM:  14    -0.228080213201E+04   -0.15419E+02   -0.15430E+01  4493   0.399E+00    0.737E+00
RMM:  15    -0.229752703226E+04   -0.16725E+02   -0.17221E+01  4399   0.264E+00    0.326E+00
RMM:  16    -0.230568456881E+04   -0.81575E+01   -0.64829E+00  4406   0.195E+00    0.158E+00
RMM:  17    -0.230743114070E+04   -0.17466E+01   -0.25982E+00  4857   0.943E-01    0.437E+00
RMM:  18    -0.230736953823E+04    0.61602E-01   -0.23691E-01  5906   0.260E-01    0.421E+00
RMM:  19    -0.230743172352E+04   -0.62185E-01   -0.67061E-02  5028   0.111E-01    0.436E+00
RMM:  20    -0.230718300073E+04    0.24872E+00   -0.40605E-01  4425   0.294E-01    0.967E-01
RMM:  21    -0.230762222635E+04   -0.43923E+00   -0.19510E-01  4402   0.286E-01    0.712E-01
RMM:  22    -0.230767257998E+04   -0.50354E-01   -0.78167E-02  4469   0.199E-01    0.100E+00
RMM:  23    -0.230763033770E+04    0.42242E-01   -0.41418E-02  4454   0.132E-01    0.141E+00
RMM:  24    -0.230734253795E+04    0.28780E+00   -0.14696E-01  4410   0.195E-01    0.208E+00
RMM:  25    -0.230708148284E+04    0.26106E+00   -0.75416E-02  4723   0.143E-01    0.234E+00
RMM:  26    -0.230696046130E+04    0.12102E+00   -0.19770E-02  4715   0.705E-02    0.245E+00
RMM:  27    -0.230748393438E+04   -0.52347E+00   -0.19415E-01  4488   0.198E-01    0.187E+00
RMM:  28    -0.230771191751E+04   -0.22798E+00   -0.91575E-02  4494   0.134E-01    0.144E+00
RMM:  29    -0.230776560748E+04   -0.53690E-01   -0.15700E-02  4619   0.617E-02    0.139E+00
RMM:  30    -0.230773129890E+04    0.34309E-01   -0.26582E-03  4037   0.267E-02    0.147E+00
RMM:  31    -0.230780103711E+04   -0.69738E-01   -0.19686E-02  4389   0.697E-02    0.148E+00
RMM:  32    -0.230772851166E+04    0.72525E-01   -0.17094E-02  4408   0.676E-02    0.158E+00
RMM:  33    -0.230791654712E+04   -0.18804E+00   -0.11822E-01  4640   0.130E-01    0.154E+00
RMM:  34    -0.230796258451E+04   -0.46037E-01   -0.27844E-02  4680   0.713E-02    0.178E+00
RMM:  35    -0.230792677346E+04    0.35811E-01   -0.54947E-03  4083   0.310E-02    0.160E+00
RMM:  36    -0.230792361588E+04    0.31576E-02   -0.26822E-03  4135   0.276E-02    0.164E+00
RMM:  37    -0.230774956248E+04    0.17405E+00   -0.98418E-02  4511   0.135E-01    0.142E+00
RMM:  38    -0.230775908847E+04   -0.95260E-02   -0.89515E-03  4339   0.478E-02    0.142E+00
RMM:  39    -0.230767624859E+04    0.82840E-01   -0.26193E-02  4487   0.677E-02    0.147E+00
RMM:  40    -0.230773078924E+04   -0.54541E-01   -0.91639E-03  4224   0.406E-02    0.142E+00
RMM:  41    -0.230775369331E+04   -0.22904E-01   -0.51075E-03  4033   0.322E-02    0.143E+00
RMM:  42    -0.230787453582E+04   -0.12084E+00   -0.14801E-01  4475   0.151E-01    0.150E+00
RMM:  43    -0.230785572649E+04    0.18809E-01   -0.58693E-03  4101   0.461E-02    0.149E+00
RMM:  44    -0.230782228588E+04    0.33441E-01   -0.39412E-03  3870   0.279E-02    0.151E+00
RMM:  45    -0.230777339561E+04    0.48890E-01   -0.84418E-03  4099   0.394E-02    0.152E+00
RMM:  46    -0.230771455008E+04    0.58846E-01   -0.12871E-02  4365   0.483E-02    0.156E+00
RMM:  47    -0.230772099591E+04   -0.64458E-02   -0.51814E-04  3233   0.125E-02    0.157E+00
RMM:  48    -0.230777428191E+04   -0.53286E-01   -0.13227E-02  4183   0.460E-02    0.157E+00
RMM:  49    -0.230774712401E+04    0.27158E-01   -0.52678E-03  4031   0.305E-02    0.154E+00
RMM:  50    -0.230776092296E+04   -0.13799E-01   -0.91707E-04  3422   0.158E-02    0.151E+00
RMM:  51    -0.230776435591E+04   -0.34329E-02   -0.99808E-04  3834   0.158E-02    0.148E+00
RMM:  52    -0.230773511258E+04    0.29243E-01   -0.38749E-03  4110   0.272E-02    0.152E+00
RMM:  53    -0.230774063062E+04   -0.55180E-02   -0.15392E-04  3001   0.701E-03    0.152E+00
RMM:  54    -0.230777449932E+04   -0.33869E-01   -0.42367E-03  4006   0.277E-02    0.147E+00
RMM:  55    -0.230775968815E+04    0.14811E-01   -0.78243E-04  3336   0.120E-02    0.149E+00
RMM:  56    -0.230785103343E+04   -0.91345E-01   -0.59528E-02  4485   0.960E-02    0.144E+00
RMM:  57    -0.230782465547E+04    0.26378E-01   -0.38661E-03  4003   0.315E-02    0.145E+00
RMM:  58    -0.230788387292E+04   -0.59217E-01   -0.22414E-02  4447   0.599E-02    0.145E+00
RMM:  59    -0.230779272645E+04    0.91146E-01   -0.28906E-02  4460   0.701E-02    0.144E+00
RMM:  60    -0.230774721986E+04    0.45507E-01   -0.94002E-03  4289   0.432E-02    0.148E+00
RMM:  61    -0.230792202116E+04   -0.17480E+00   -0.24460E-01  4541   0.187E-01    0.144E+00
RMM:  62    -0.230792098134E+04    0.10398E-02   -0.92684E-03  4272   0.545E-02    0.149E+00
RMM:  63    -0.230797596150E+04   -0.54980E-01   -0.63301E-02  4621   0.101E-01    0.156E+00
RMM:  64    -0.230798424657E+04   -0.82851E-02   -0.50198E-03  4276   0.395E-02    0.156E+00
RMM:  65    -0.230798011506E+04    0.41315E-02   -0.71930E-04  3307   0.120E-02    0.156E+00
RMM:  66    -0.230796281026E+04    0.17305E-01   -0.79553E-03  4073   0.388E-02    0.149E+00
RMM:  67    -0.230754727526E+04    0.41553E+00   -0.69449E-01  4581   0.367E-01    0.242E+00
RMM:  68    -0.230754588697E+04    0.13883E-02   -0.36948E-02  5013   0.925E-02    0.242E+00
RMM:  69    -0.230759471805E+04   -0.48831E-01   -0.44378E-03  4262   0.280E-02    0.234E+00
RMM:  70    -0.230759205815E+04    0.26599E-02   -0.34528E-04  3169   0.872E-03    0.235E+00
RMM:  71    -0.230723105533E+04    0.36100E+00   -0.13647E-01  4632   0.150E-01    0.294E+00
RMM:  72    -0.230728971776E+04   -0.58662E-01   -0.42956E-03  4310   0.330E-02    0.285E+00
RMM:  73    -0.230726166852E+04    0.28049E-01   -0.11130E-03  3777   0.143E-02    0.289E+00
RMM:  74    -0.230738039744E+04   -0.11873E+00   -0.17280E-02  4188   0.500E-02    0.270E+00
RMM:  75    -0.230751066037E+04   -0.13026E+00   -0.28665E-02  4568   0.722E-02    0.242E+00
RMM:  76    -0.230462435019E+04    0.28863E+01   -0.21581E+00  4614   0.584E-01    0.547E+00
RMM:  77    -0.230476613662E+04   -0.14179E+00   -0.89343E-02  4950   0.132E-01    0.529E+00
RMM:  78    -0.230478118581E+04   -0.15049E-01   -0.33490E-03  5199   0.237E-02    0.528E+00
RMM:  79    -0.230462149444E+04    0.15969E+00   -0.50855E-03  4135   0.287E-02    0.540E+00
RMM:  80    -0.230457671918E+04    0.44775E-01   -0.89813E-04  3462   0.137E-02    0.543E+00
RMM:  81    -0.230336611100E+04    0.12106E+01   -0.41680E-01  4693   0.286E-01    0.691E+00
RMM:  82    -0.230373264061E+04   -0.36653E+00   -0.24479E-02  4563   0.768E-02    0.664E+00
RMM:  83    -0.230552224952E+04   -0.17896E+01   -0.31878E-01  4557   0.228E-01    0.528E+00
RMM:  84    -0.230732920450E+04   -0.18070E+01   -0.10954E+00  4703   0.407E-01    0.326E+00
RMM:  85    -0.230709528366E+04    0.23392E+00   -0.10483E-01  4988   0.145E-01    0.332E+00
RMM:  86    -0.230782463334E+04   -0.72935E+00   -0.59873E-01  4653   0.298E-01    0.189E+00
RMM:  87    -0.230770301310E+04    0.12162E+00   -0.39162E-02  4573   0.107E-01    0.201E+00
RMM:  88    -0.230778894003E+04   -0.85927E-01   -0.25652E-02  4844   0.641E-02    0.182E+00
RMM:  89    -0.230781202715E+04   -0.23087E-01   -0.61346E-03  4236   0.311E-02    0.177E+00
RMM:  90    -0.230783452053E+04   -0.22493E-01   -0.29925E-03  3655   0.229E-02    0.171E+00
RMM:  91    -0.230622886965E+04    0.16057E+01   -0.45252E+00  4566   0.807E-01    0.275E+00
RMM:  92    -0.230621557655E+04    0.13293E-01   -0.23980E-01  5246   0.232E-01    0.276E+00
RMM:  93    -0.230628198855E+04   -0.66412E-01   -0.42457E-02  5228   0.495E-02    0.275E+00
RMM:  94    -0.230623124523E+04    0.50743E-01   -0.29766E-03  4019   0.258E-02    0.278E+00
RMM:  95    -0.230646824030E+04   -0.23700E+00   -0.18917E-02  4080   0.584E-02    0.259E+00
RMM:  96    -0.230493805646E+04    0.15302E+01   -0.75296E-01  4479   0.347E-01    0.374E+00
RMM:  97    -0.230504516009E+04   -0.10710E+00   -0.19277E-02  4449   0.724E-02    0.365E+00
RMM:  98    -0.230500372641E+04    0.41434E-01   -0.29864E-03  4208   0.209E-02    0.367E+00
RMM:  99    -0.230501664467E+04   -0.12918E-01   -0.30877E-04  3308   0.867E-03    0.366E+00
RMM: 100    -0.230475085305E+04    0.26579E+00   -0.16683E-02  4087   0.507E-02    0.380E+00
RMM: 101    -0.230745351242E+04   -0.27027E+01   -0.21972E+00  4526   0.542E-01    0.147E+00
RMM: 102    -0.230730741602E+04    0.14610E+00   -0.73413E-02  4620   0.184E-01    0.162E+00
RMM: 103    -0.230732071857E+04   -0.13303E-01   -0.20859E-02  4462   0.602E-02    0.163E+00
RMM: 104    -0.230732351451E+04   -0.27959E-02   -0.15251E-03  3644   0.218E-02    0.162E+00
RMM: 105    -0.230731775644E+04    0.57581E-02   -0.52508E-04  3255   0.965E-03    0.163E+00
RMM: 106    -0.230804089273E+04   -0.72314E+00   -0.83691E-01  4590   0.338E-01    0.335E+00
RMM: 107    -0.230801034418E+04    0.30549E-01   -0.64897E-02  4602   0.144E-01    0.293E+00
RMM: 108    -0.230800483692E+04    0.55073E-02   -0.15709E-02  4341   0.352E-02    0.309E+00
RMM: 109    -0.230796737187E+04    0.37465E-01   -0.23746E-02  4031   0.494E-02    0.223E+00
RMM: 110    -0.230794926875E+04    0.18103E-01   -0.14530E-02  4268   0.435E-02    0.192E+00
RMM: 111    -0.230806749283E+04   -0.11822E+00   -0.16484E-01  4347   0.118E-01    0.311E+00
RMM: 112    -0.230810002397E+04   -0.32531E-01   -0.30517E-02  4588   0.792E-02    0.288E+00
RMM: 113    -0.230810128690E+04   -0.12629E-02   -0.48440E-03  4603   0.266E-02    0.287E+00
RMM: 114    -0.230810019814E+04    0.10888E-02   -0.55579E-04  3440   0.102E-02    0.299E+00
RMM: 115    -0.230808577948E+04    0.14419E-01   -0.15175E-02  4429   0.496E-02    0.369E+00
RMM: 116    -0.230799636457E+04    0.89415E-01   -0.84612E-02  4575   0.111E-01    0.281E+00
RMM: 117    -0.230797889543E+04    0.17469E-01   -0.11418E-02  4061   0.498E-02    0.256E+00
RMM: 118    -0.230801696350E+04   -0.38068E-01   -0.16490E-02  4261   0.507E-02    0.269E+00
RMM: 119    -0.230806959273E+04   -0.52629E-01   -0.40066E-02  4517   0.831E-02    0.253E+00
RMM: 120    -0.230808797028E+04   -0.18378E-01   -0.11581E-02  4405   0.499E-02    0.250E+00
RMM: 121    -0.230808490586E+04    0.30644E-02   -0.15032E-03  4029   0.196E-02    0.244E+00
RMM: 122    -0.230807689122E+04    0.80146E-02   -0.14981E-03  3799   0.165E-02    0.245E+00
RMM: 123    -0.230807014081E+04    0.67504E-02   -0.13629E-03  3565   0.142E-02    0.235E+00
RMM: 124    -0.230806875144E+04    0.13894E-02   -0.14431E-04  2980   0.681E-03    0.233E+00
RMM: 125    -0.230806621083E+04    0.25406E-02   -0.31596E-04  3146   0.860E-03    0.229E+00
RMM: 126    -0.230805067287E+04    0.15538E-01   -0.41349E-03  3782   0.254E-02    0.228E+00
RMM: 127    -0.230805347298E+04   -0.28001E-02   -0.26032E-04  3107   0.903E-03    0.225E+00
RMM: 128    -0.230806109035E+04   -0.76174E-02   -0.70764E-04  3335   0.106E-02    0.224E+00
RMM: 129    -0.230805991168E+04    0.11787E-02   -0.27919E-05  2718   0.396E-03    0.224E+00
RMM: 130    -0.230805693278E+04    0.29789E-02   -0.14031E-04  2668   0.393E-03    0.224E+00
RMM: 131    -0.230811592850E+04   -0.58996E-01   -0.49107E-02  4475   0.762E-02    0.210E+00
RMM: 132    -0.230812468402E+04   -0.87555E-02   -0.97963E-03  4121   0.407E-02    0.239E+00
RMM: 133    -0.230812618039E+04   -0.14964E-02   -0.98059E-04  3291   0.153E-02    0.244E+00
RMM: 134    -0.230812436103E+04    0.18194E-02   -0.18149E-04  2936   0.507E-03    0.242E+00
RMM: 135    -0.230811506191E+04    0.92991E-02   -0.42319E-03  3325   0.212E-02    0.230E+00
RMM: 136    -0.230805177789E+04    0.63284E-01   -0.61441E-02  4502   0.837E-02    0.186E+00
RMM: 137    -0.230806203485E+04   -0.10257E-01   -0.56486E-03  4211   0.355E-02    0.176E+00
RMM: 138    -0.230805089793E+04    0.11137E-01   -0.26325E-03  3944   0.225E-02    0.165E+00
RMM: 139    -0.230804756383E+04    0.33341E-02   -0.46844E-04  3159   0.917E-03    0.164E+00
RMM: 140    -0.230804632509E+04    0.12387E-02   -0.11994E-04  2970   0.531E-03    0.162E+00
RMM: 141    -0.230798116458E+04    0.65161E-01   -0.24459E-02  4538   0.553E-02    0.150E+00
RMM: 142    -0.230799133411E+04   -0.10170E-01   -0.86664E-04  3416   0.151E-02    0.155E+00
RMM: 143    -0.230799433034E+04   -0.29962E-02   -0.92183E-05  2900   0.467E-03    0.155E+00
RMM: 144    -0.230799852254E+04   -0.41922E-02   -0.33945E-04  3019   0.799E-03    0.154E+00
RMM: 145    -0.230798943268E+04    0.90899E-02   -0.12844E-03  3811   0.161E-02    0.143E+00
RMM: 146    -0.230797507153E+04    0.14361E-01   -0.26854E-02  4417   0.710E-02    0.177E+00
RMM: 147    -0.230798026669E+04   -0.51952E-02   -0.24804E-03  3925   0.303E-02    0.180E+00
RMM: 148    -0.230799239377E+04   -0.12127E-01   -0.19046E-03  3856   0.190E-02    0.172E+00
RMM: 149    -0.230801124191E+04   -0.18848E-01   -0.35619E-03  4012   0.249E-02    0.167E+00
RMM: 150    -0.230802160992E+04   -0.10368E-01   -0.18228E-03  3923   0.185E-02    0.165E+00
RMM: 151    -0.230805927592E+04   -0.37666E-01   -0.15142E-02  4425   0.485E-02    0.151E+00
RMM: 152    -0.230805988270E+04   -0.60678E-03   -0.48344E-03  4297   0.345E-02    0.142E+00
RMM: 153    -0.230806535608E+04   -0.54734E-02   -0.20603E-03  3979   0.199E-02    0.140E+00
RMM: 154    -0.230806628338E+04   -0.92730E-03   -0.68481E-04  3464   0.133E-02    0.138E+00
RMM: 155    -0.230806589547E+04    0.38792E-03   -0.39946E-04  3323   0.110E-02    0.136E+00
RMM: 156    -0.230806790901E+04   -0.20135E-02   -0.62584E-04  3673   0.133E-02    0.139E+00
RMM: 157    -0.230807960381E+04   -0.11695E-01   -0.14369E-03  3544   0.162E-02    0.140E+00
RMM: 158    -0.230807729044E+04    0.23134E-02   -0.83572E-05  2944   0.648E-03    0.139E+00
RMM: 159    -0.230806563122E+04    0.11659E-01   -0.12285E-03  3376   0.138E-02    0.138E+00
RMM: 160    -0.230807542617E+04   -0.97949E-02   -0.82832E-04  3240   0.111E-02    0.139E+00
RMM: 161    -0.230806823983E+04    0.71863E-02   -0.31856E-03  4182   0.247E-02    0.123E+00
RMM: 162    -0.230807732807E+04   -0.90882E-02   -0.93280E-04  3600   0.155E-02    0.122E+00
RMM: 163    -0.230807759183E+04   -0.26376E-03   -0.93512E-05  2946   0.502E-03    0.122E+00
RMM: 164    -0.230807017093E+04    0.74209E-02   -0.47880E-04  3093   0.924E-03    0.122E+00
RMM: 165    -0.230803414175E+04    0.36029E-01   -0.89710E-03  4124   0.373E-02    0.122E+00
RMM: 166    -0.230800748345E+04    0.26658E-01   -0.52214E-03  3986   0.315E-02    0.124E+00
RMM: 167    -0.230801052508E+04   -0.30416E-02   -0.45520E-04  3345   0.108E-02    0.125E+00
RMM: 168    -0.230805095474E+04   -0.40430E-01   -0.84313E-03  4063   0.342E-02    0.121E+00
RMM: 169    -0.230808070153E+04   -0.29747E-01   -0.75357E-03  4141   0.342E-02    0.121E+00
RMM: 170    -0.230807179885E+04    0.89027E-02   -0.52610E-04  3206   0.112E-02    0.120E+00
RMM: 171    -0.230802745403E+04    0.44345E-01   -0.10319E-02  4103   0.402E-02    0.119E+00
RMM: 172    -0.230796478598E+04    0.62668E-01   -0.21058E-02  4438   0.571E-02    0.121E+00
RMM: 173    -0.230792181489E+04    0.42971E-01   -0.98388E-03  4220   0.405E-02    0.125E+00
RMM: 174    -0.230794725809E+04   -0.25443E-01   -0.17646E-03  3620   0.173E-02    0.123E+00
RMM: 175    -0.230804280746E+04   -0.95549E-01   -0.46929E-02  4425   0.756E-02    0.115E+00
RMM: 176    -0.230823355958E+04   -0.19075E+00   -0.53173E-01  4572   0.247E-01    0.879E-01
RMM: 177    -0.230824051966E+04   -0.69601E-02   -0.80132E-02  4732   0.137E-01    0.111E+00
RMM: 178    -0.230824082776E+04   -0.30810E-03   -0.91036E-03  5189   0.296E-02    0.106E+00
RMM: 179    -0.230824021023E+04    0.61753E-03   -0.66153E-04  3925   0.117E-02    0.101E+00
RMM: 180    -0.230824294731E+04   -0.27371E-02   -0.24417E-03  4104   0.188E-02    0.111E+00
RMM: 181    -0.230824019314E+04    0.27542E-02   -0.10862E-03  3799   0.152E-02    0.120E+00
RMM: 182    -0.230824087800E+04   -0.68486E-03   -0.76715E-03  4534   0.349E-02    0.148E+00
RMM: 183    -0.230824253359E+04   -0.16556E-02   -0.15874E-03  3929   0.196E-02    0.150E+00
RMM: 184    -0.230824378500E+04   -0.12514E-02   -0.61869E-04  3531   0.108E-02    0.144E+00
RMM: 185    -0.230825230787E+04   -0.85229E-02   -0.37686E-02  4615   0.763E-02    0.699E-01
RMM: 186    -0.230826125901E+04   -0.89511E-02   -0.17815E-02  4524   0.593E-02    0.871E-01
RMM: 187    -0.230826254154E+04   -0.12825E-02   -0.12093E-03  3783   0.227E-02    0.798E-01
RMM: 188    -0.230826287460E+04   -0.33306E-03   -0.30817E-04  3238   0.641E-03    0.804E-01
RMM: 189    -0.230826282221E+04    0.52391E-04   -0.10148E-04  2862   0.551E-03    0.832E-01
RMM: 190    -0.230826489677E+04   -0.20746E-02   -0.17147E-03  4035   0.163E-02    0.634E-01
RMM: 191    -0.230826824923E+04   -0.33525E-02   -0.38860E-03  4106   0.245E-02    0.670E-01
RMM: 192    -0.230826944009E+04   -0.11909E-02   -0.91436E-04  3970   0.147E-02    0.522E-01
RMM: 193    -0.230827050285E+04   -0.10628E-02   -0.80859E-04  3888   0.118E-02    0.430E-01
RMM: 194    -0.230827147286E+04   -0.97001E-03   -0.10889E-03  4103   0.148E-02    0.291E-01
RMM: 195    -0.230827201027E+04   -0.53742E-03   -0.38068E-04  3271   0.925E-03    0.282E-01
RMM: 196    -0.230827234035E+04   -0.33008E-03   -0.54124E-04  3417   0.100E-02    0.283E-01
RMM: 197    -0.230827303636E+04   -0.69601E-03   -0.99296E-04  4017   0.134E-02    0.141E-01
RMM: 198    -0.230827320985E+04   -0.17349E-03   -0.30091E-04  3040   0.888E-03    0.126E-01
RMM: 199    -0.230827326370E+04   -0.53850E-04   -0.41550E-04  3298   0.858E-03    0.134E-01
RMM: 200    -0.230827340668E+04   -0.14297E-03   -0.13457E-04  2894   0.615E-03    0.808E-02
RMM: 201    -0.230827349918E+04   -0.92503E-04   -0.21312E-04  3109   0.638E-03    0.215E-02
RMM: 202    -0.230827349267E+04    0.65093E-05   -0.12642E-05  2745   0.348E-03
   1 F= -.23286719E+04 E0= -.23286719E+04  d E =-.232867E+04  mag=     4.0052
       N       E                     dE             d eps       ncg     rms          rms(c)
DAV:   1    -0.230693371250E+04    0.13398E+01   -0.28849E+02  4384   0.714E+00    0.515E+00
RMM:   2    -0.230921110487E+04   -0.22774E+01   -0.25697E+01  6260   0.234E+00    0.271E+00
RMM:   3    -0.230918123979E+04    0.29865E-01   -0.16644E+00  5746   0.574E-01    0.188E+00
RMM:   4    -0.230917991818E+04    0.13216E-02   -0.24144E-01  6047   0.179E-01    0.183E+00
RMM:   5    -0.230916000910E+04    0.19909E-01   -0.81295E-02  5594   0.120E-01    0.115E+00
RMM:   6    -0.230914872064E+04    0.11288E-01   -0.22208E-02  5601   0.691E-02    0.275E-01
RMM:   7    -0.230914916241E+04   -0.44177E-03   -0.61490E-03  4723   0.360E-02    0.218E-01
RMM:   8    -0.230914870109E+04    0.46132E-03   -0.86703E-04  4391   0.166E-02    0.690E-02
RMM:   9    -0.230914871396E+04   -0.12866E-04   -0.34953E-04  4013   0.107E-02    0.492E-02
RMM:  10    -0.230914871117E+04    0.27892E-05   -0.78434E-05  3246   0.773E-03
   2 F= -.23295546E+04 E0= -.23295546E+04  d E =-.882701E+00  mag=     4.0009
       N       E                     dE             d eps       ncg     rms          rms(c)
DAV:   1    -0.230908434012E+04    0.64374E-01   -0.32474E+01  4464   0.298E+00    0.134E+00
RMM:   2    -0.230925032459E+04   -0.16598E+00   -0.17331E+00  6319   0.624E-01    0.113E+00
RMM:   3    -0.230925291590E+04   -0.25913E-02   -0.13811E-01  5783   0.181E-01    0.971E-01
RMM:   4    -0.230924532577E+04    0.75901E-02   -0.22712E-02  5450   0.581E-02    0.404E-01
RMM:   5    -0.230924379731E+04    0.15285E-02   -0.70222E-03  4761   0.369E-02    0.157E-01
RMM:   6    -0.230924379430E+04    0.30065E-05   -0.11167E-03  4245   0.214E-02    0.650E-02
RMM:   7    -0.230924378003E+04    0.14268E-04   -0.23293E-04  3404   0.945E-03    0.293E-02
RMM:   8    -0.230924378283E+04   -0.27994E-05   -0.48252E-05  3045   0.587E-03
   3 F= -.23296471E+04 E0= -.23296471E+04  d E =-.975200E+00  mag=     4.0002
       N       E                     dE             d eps       ncg     rms          rms(c)
DAV:   1    -0.230901818375E+04    0.22560E+00   -0.40434E+01  4456   0.382E+00    0.153E+00
RMM:   2    -0.230922707684E+04   -0.20889E+00   -0.24773E+00  6202   0.809E-01    0.111E+00
RMM:   3    -0.230921074196E+04    0.16335E-01   -0.15141E-01  5390   0.209E-01    0.727E-01
RMM:   4    -0.230920579138E+04    0.49506E-02   -0.33774E-02  5762   0.819E-02    0.891E-01
RMM:   5    -0.230919866244E+04    0.71289E-02   -0.16850E-02  5557   0.608E-02    0.381E-01
RMM:   6    -0.230919711648E+04    0.15460E-02   -0.43366E-03  4846   0.289E-02    0.909E-02
RMM:   7    -0.230919740268E+04   -0.28620E-03   -0.61772E-04  3958   0.170E-02    0.563E-02
RMM:   8    -0.230919773222E+04   -0.32954E-03   -0.20506E-04  3873   0.844E-03    0.308E-02
RMM:   9    -0.230919806276E+04   -0.33054E-03   -0.95692E-05  3508   0.760E-03    0.234E-02
RMM:  10    -0.230919825704E+04   -0.19429E-03   -0.51911E-05  3158   0.550E-03    0.837E-03
RMM:  11    -0.230919847599E+04   -0.21895E-03   -0.49202E-05  3190   0.509E-03    0.614E-03
RMM:  12    -0.230919860348E+04   -0.12749E-03   -0.34553E-05  3073   0.456E-03    0.390E-03
RMM:  13    -0.230919863329E+04   -0.29808E-04   -0.12651E-05  2837   0.371E-03    0.190E-03
RMM:  14    -0.230919864125E+04   -0.79603E-05   -0.59746E-06  2648   0.262E-03
   4 F= -.23296003E+04 E0= -.23296003E+04  d E =0.468061E-01  mag=     4.0000
       N       E                     dE             d eps       ncg     rms          rms(c)
DAV:   1    -0.230929022829E+04   -0.91595E-01   -0.13436E+01  4464   0.210E+00    0.866E-01
RMM:   2    -0.230934846604E+04   -0.58238E-01   -0.69473E-01  6147   0.433E-01    0.584E-01
RMM:   3    -0.230934251759E+04    0.59485E-02   -0.45542E-02  5065   0.125E-01    0.360E-01
RMM:   4    -0.230934073994E+04    0.17777E-02   -0.11194E-02  4894   0.456E-02    0.358E-01
RMM:   5    -0.230933973667E+04    0.10033E-02   -0.41707E-03  5327   0.304E-02    0.270E-01
RMM:   6    -0.230933908621E+04    0.65046E-03   -0.99523E-04  4114   0.161E-02    0.524E-02
RMM:   7    -0.230933905574E+04    0.30467E-04   -0.22559E-04  3495   0.830E-03    0.306E-02
RMM:   8    -0.230933904805E+04    0.76918E-05   -0.49176E-05  3072   0.582E-03
   5 F= -.23297417E+04 E0= -.23297417E+04  d E =-.945823E-01  mag=     4.0000
       N       E                     dE             d eps       ncg     rms          rms(c)
DAV:   1    -0.230934707876E+04   -0.80230E-02   -0.39013E+00  4480   0.152E+00    0.489E-01
RMM:   2    -0.230937728675E+04   -0.30208E-01   -0.31673E-01  6181   0.295E-01    0.332E-01
RMM:   3    -0.230937837702E+04   -0.10903E-02   -0.25922E-02  5729   0.860E-02    0.265E-01
RMM:   4    -0.230937788998E+04    0.48704E-03   -0.26771E-03  4584   0.216E-02    0.169E-01
RMM:   5    -0.230937752713E+04    0.36285E-03   -0.94979E-04  4618   0.165E-02    0.799E-02
RMM:   6    -0.230937749230E+04    0.34830E-04   -0.47828E-04  4244   0.136E-02    0.537E-02
RMM:   7    -0.230937747113E+04    0.21172E-04   -0.68879E-05  3073   0.758E-03    0.140E-02
RMM:   8    -0.230937747142E+04   -0.29089E-06   -0.11291E-05  2837   0.324E-03
   6 F= -.23297802E+04 E0= -.23297802E+04  d E =-.385549E-01  mag=     4.0000
       N       E                     dE             d eps       ncg     rms          rms(c)
DAV:   1    -0.230930937829E+04    0.68093E-01   -0.12204E+01  4448   0.270E+00    0.858E-01
RMM:   2    -0.230940357389E+04   -0.94196E-01   -0.98807E-01  6155   0.519E-01    0.581E-01
RMM:   3    -0.230940727133E+04   -0.36974E-02   -0.81604E-02  5845   0.154E-01    0.493E-01
RMM:   4    -0.230940563046E+04    0.16409E-02   -0.83200E-03  5312   0.386E-02    0.305E-01
RMM:   5    -0.230940445002E+04    0.11804E-02   -0.26645E-03  5069   0.274E-02    0.140E-01
RMM:   6    -0.230940435788E+04    0.92136E-04   -0.14717E-03  4666   0.228E-02    0.981E-02
RMM:   7    -0.230940428742E+04    0.70462E-04   -0.21337E-04  3647   0.125E-02    0.232E-02
RMM:   8    -0.230940428742E+04    0.20373E-08   -0.35574E-05  2949   0.445E-03
   7 F= -.23298073E+04 E0= -.23298073E+04  d E =-.656114E-01  mag=     4.0000
       N       E                     dE             d eps       ncg     rms          rms(c)
DAV:   1    -0.230937220692E+04    0.32080E-01   -0.40486E+00  4448   0.183E+00    0.674E-01
RMM:   2    -0.230943090295E+04   -0.58696E-01   -0.57249E-01  6031   0.380E-01    0.875E-01
RMM:   3    -0.230942762497E+04    0.32780E-02   -0.40854E-02  5433   0.126E-01    0.448E-01
RMM:   4    -0.230942609529E+04    0.15297E-02   -0.49462E-03  4886   0.322E-02    0.162E-01
RMM:   5    -0.230942563595E+04    0.45934E-03   -0.11089E-03  5022   0.230E-02    0.113E-01
RMM:   6    -0.230942552403E+04    0.11192E-03   -0.62947E-04  4615   0.181E-02    0.280E-02
RMM:   7    -0.230942552272E+04    0.13075E-05   -0.69513E-05  3262   0.817E-03
   8 F= -.23298289E+04 E0= -.23298289E+04  d E =-.216698E-01  mag=     4.0000
       N       E                     dE             d eps       ncg     rms          rms(c)
DAV:   1    -0.230940381980E+04    0.21704E-01   -0.19485E+00  4560   0.126E+00    0.468E-01
RMM:   2    -0.230943207748E+04   -0.28258E-01   -0.27440E-01  6019   0.259E-01    0.622E-01
RMM:   3    -0.230943030796E+04    0.17695E-02   -0.19433E-02  5403   0.854E-02    0.308E-01
RMM:   4    -0.230942960335E+04    0.70460E-03   -0.23995E-03  4685   0.223E-02    0.113E-01
RMM:   5    -0.230942938021E+04    0.22314E-03   -0.52656E-04  4738   0.163E-02    0.796E-02
RMM:   6    -0.230942932421E+04    0.56007E-04   -0.30641E-04  4343   0.129E-02    0.198E-02
RMM:   7    -0.230942932303E+04    0.11819E-05   -0.33726E-05  2967   0.650E-03
   9 F= -.23298330E+04 E0= -.23298330E+04  d E =-.257412E-01  mag=     4.0000
       N       E                     dE             d eps       ncg     rms          rms(c)
DAV:   1    -0.230940213004E+04    0.27194E-01   -0.35913E+00  4448   0.173E+00    0.612E-01
RMM:   2    -0.230945067830E+04   -0.48548E-01   -0.46096E-01  6079   0.345E-01    0.915E-01
RMM:   3    -0.230944574313E+04    0.49352E-02   -0.32247E-02  5547   0.103E-01    0.374E-01
RMM:   4    -0.230944475301E+04    0.99012E-03   -0.39438E-03  4794   0.274E-02    0.136E-01
RMM:   5    -0.230944444915E+04    0.30387E-03   -0.62549E-04  4816   0.180E-02    0.106E-01
RMM:   6    -0.230944432160E+04    0.12755E-03   -0.58725E-04  4682   0.164E-02    0.218E-02
RMM:   7    -0.230944431791E+04    0.36873E-05   -0.58814E-05  3195   0.822E-03
  10 F= -.23298486E+04 E0= -.23298486E+04  d E =-.156165E-01  mag=     4.0000
       N       E                     dE             d eps       ncg     rms          rms(c)
DAV:   1    -0.230940829660E+04    0.36025E-01   -0.34030E+00  4448   0.169E+00    0.597E-01
RMM:   2    -0.230945444980E+04   -0.46153E-01   -0.43668E-01  6108   0.338E-01    0.905E-01
RMM:   3    -0.230944954562E+04    0.49042E-02   -0.30767E-02  5552   0.100E-01    0.361E-01
RMM:   4    -0.230944862621E+04    0.91941E-03   -0.37395E-03  4774   0.268E-02    0.133E-01
RMM:   5    -0.230944832908E+04    0.29713E-03   -0.60088E-04  4849   0.178E-02    0.105E-01
RMM:   6    -0.230944819568E+04    0.13341E-03   -0.58690E-04  4722   0.163E-02    0.219E-02
RMM:   7    -0.230944818960E+04    0.60759E-05   -0.55030E-05  3176   0.816E-03
  11 F= -.23298531E+04 E0= -.23298531E+04  d E =-.200514E-01  mag=     4.0000
       N       E                     dE             d eps       ncg     rms          rms(c)
DAV:   1    -0.230942823513E+04    0.19961E-01   -0.34234E+00  4464   0.170E+00    0.515E-01
RMM:   2    -0.230946396146E+04   -0.35726E-01   -0.34763E-01  6114   0.325E-01    0.679E-01
RMM:   3    -0.230946155439E+04    0.24071E-02   -0.23964E-02  5782   0.911E-02    0.353E-01
RMM:   4    -0.230946069456E+04    0.85984E-03   -0.29482E-03  4786   0.248E-02    0.124E-01
RMM:   5    -0.230946048310E+04    0.21146E-03   -0.46602E-04  4458   0.158E-02    0.811E-02
RMM:   6    -0.230946041889E+04    0.64208E-04   -0.30622E-04  4382   0.141E-02    0.208E-02
RMM:   7    -0.230946041975E+04   -0.86229E-06   -0.39845E-05  3074   0.717E-03
  12 F= -.23298656E+04 E0= -.23298656E+04  d E =-.125281E-01  mag=     4.0000
       N       E                     dE             d eps       ncg     rms          rms(c)
DAV:   1    -0.230941755847E+04    0.42860E-01   -0.49139E+00  4464   0.203E+00    0.614E-01
RMM:   2    -0.230946829939E+04   -0.50741E-01   -0.49647E-01  6083   0.388E-01    0.780E-01
RMM:   3    -0.230946543745E+04    0.28619E-02   -0.34099E-02  5776   0.109E-01    0.422E-01
RMM:   4    -0.230946416377E+04    0.12737E-02   -0.42023E-03  4919   0.296E-02    0.148E-01
RMM:   5    -0.230946384925E+04    0.31453E-03   -0.68675E-04  4634   0.187E-02    0.940E-02
RMM:   6    -0.230946375565E+04    0.93596E-04   -0.43128E-04  4542   0.164E-02    0.262E-02
RMM:   7    -0.230946375376E+04    0.18895E-05   -0.58568E-05  3310   0.802E-03
  13 F= -.23298693E+04 E0= -.23298693E+04  d E =-.161888E-01  mag=     4.0000
       N       E                     dE             d eps       ncg     rms          rms(c)
DAV:   1    -0.230943405653E+04    0.29699E-01   -0.45450E+00  4464   0.198E+00    0.564E-01
RMM:   2    -0.230947656931E+04   -0.42513E-01   -0.42571E-01  5991   0.365E-01    0.543E-01
RMM:   3    -0.230947711134E+04   -0.54203E-03   -0.30514E-02  5668   0.105E-01    0.423E-01
RMM:   4    -0.230947565061E+04    0.14607E-02   -0.35884E-03  5052   0.284E-02    0.138E-01
RMM:   5    -0.230947540579E+04    0.24482E-03   -0.68482E-04  4698   0.181E-02    0.748E-02
RMM:   6    -0.230947537631E+04    0.29483E-04   -0.33338E-04  4495   0.142E-02    0.359E-02
RMM:   7    -0.230947537134E+04    0.49676E-05   -0.44819E-05  3127   0.800E-03
  14 F= -.23298808E+04 E0= -.23298808E+04  d E =-.115063E-01  mag=     4.0000
       N       E                     dE             d eps       ncg     rms          rms(c)
DAV:   1    -0.230937472654E+04    0.10065E+00   -0.11861E+01  4448   0.321E+00    0.911E-01
RMM:   2    -0.230948580160E+04   -0.11108E+00   -0.11116E+00  6004   0.590E-01    0.876E-01
RMM:   3    -0.230948681344E+04   -0.10118E-02   -0.79780E-02  5734   0.174E-01    0.652E-01
RMM:   4    -0.230948341247E+04    0.34010E-02   -0.92251E-03  5206   0.457E-02    0.225E-01
RMM:   5    -0.230948275696E+04    0.65551E-03   -0.17678E-03  4973   0.286E-02    0.121E-01
RMM:   6    -0.230948267080E+04    0.86165E-04   -0.95877E-04  4679   0.226E-02    0.663E-02
RMM:   7    -0.230948264489E+04    0.25906E-04   -0.15199E-04  3908   0.135E-02    0.209E-02
RMM:   8    -0.230948264108E+04    0.38154E-05   -0.26476E-05  2923   0.444E-03
  15 F= -.23298878E+04 E0= -.23298878E+04  d E =-.185258E-01  mag=     4.0000
       N       E                     dE             d eps       ncg     rms          rms(c)
DAV:   1    -0.230946582197E+04    0.16823E-01   -0.37158E+00  4432   0.176E+00    0.499E-01
RMM:   2    -0.230949633847E+04   -0.30516E-01   -0.30634E-01  5982   0.315E-01    0.449E-01
RMM:   3    -0.230949664040E+04   -0.30193E-03   -0.21444E-02  5669   0.932E-02    0.368E-01
RMM:   4    -0.230949543744E+04    0.12030E-02   -0.25602E-03  5059   0.252E-02    0.130E-01
RMM:   5    -0.230949520711E+04    0.23033E-03   -0.71444E-04  4687   0.173E-02    0.650E-02
RMM:   6    -0.230949518410E+04    0.23011E-04   -0.30429E-04  4466   0.132E-02    0.303E-02
RMM:   7    -0.230949517768E+04    0.64137E-05   -0.36058E-05  3005   0.692E-03
  16 F= -.23298996E+04 E0= -.23298996E+04  d E =-.118485E-01  mag=     4.0000
       N       E                     dE             d eps       ncg     rms          rms(c)
DAV:   1    -0.230933523769E+04    0.15995E+00   -0.21301E+01  4416   0.419E+00    0.120E+00
RMM:   2    -0.230951238722E+04   -0.17715E+00   -0.17679E+00  5887   0.738E-01    0.115E+00
RMM:   3    -0.230951163711E+04    0.75011E-03   -0.12930E-01  5547   0.233E-01    0.846E-01
RMM:   4    -0.230950556048E+04    0.60766E-02   -0.15190E-02  5180   0.598E-02    0.309E-01
RMM:   5    -0.230950419740E+04    0.13631E-02   -0.34765E-03  5087   0.406E-02    0.161E-01
RMM:   6    -0.230950404019E+04    0.15722E-03   -0.18795E-03  4761   0.304E-02    0.786E-02
RMM:   7    -0.230950399042E+04    0.49770E-04   -0.25694E-04  4224   0.168E-02    0.288E-02
RMM:   8    -0.230950397378E+04    0.16641E-04   -0.47054E-05  3181   0.540E-03    0.135E-02
RMM:   9    -0.230950396931E+04    0.44644E-05   -0.18823E-05  2904   0.435E-03
  17 F= -.23299067E+04 E0= -.23299067E+04  d E =-.188802E-01  mag=     4.0000
       N       E                     dE             d eps       ncg     rms          rms(c)
DAV:   1    -0.230949305218E+04    0.10922E-01   -0.14441E+00  4544   0.108E+00    0.312E-01
RMM:   2    -0.230950474746E+04   -0.11695E-01   -0.11875E-01  5979   0.196E-01    0.248E-01
RMM:   3    -0.230950511199E+04   -0.36453E-03   -0.85746E-03  5493   0.577E-02    0.240E-01
RMM:   4    -0.230950461751E+04    0.49448E-03   -0.10320E-03  4308   0.158E-02    0.829E-02
RMM:   5    -0.230950452976E+04    0.87754E-04   -0.30111E-04  4097   0.114E-02    0.416E-02
RMM:   6    -0.230950452176E+04    0.79961E-05   -0.10868E-04  3731   0.896E-03    0.188E-02
RMM:   7    -0.230950452019E+04    0.15726E-05   -0.18678E-05  2888   0.564E-03
  18 F= -.23299077E+04 E0= -.23299077E+04  d E =-.199050E-01  mag=     4.0000
       N       E                     dE             d eps       ncg     rms          rms(c)
DAV:   1    -0.230948296794E+04    0.21554E-01   -0.35186E+00  4480   0.166E+00    0.487E-01
RMM:   2    -0.230951319367E+04   -0.30226E-01   -0.30270E-01  5898   0.299E-01    0.457E-01
RMM:   3    -0.230951345021E+04   -0.25654E-03   -0.23318E-02  5502   0.942E-02    0.349E-01
RMM:   4    -0.230951237660E+04    0.10736E-02   -0.27397E-03  4922   0.242E-02    0.126E-01
RMM:   5    -0.230951210244E+04    0.27416E-03   -0.60143E-04  4621   0.163E-02    0.659E-02
RMM:   6    -0.230951205761E+04    0.44831E-04   -0.38319E-04  4473   0.137E-02    0.299E-02
RMM:   7    -0.230951204822E+04    0.93867E-05   -0.40700E-05  3054   0.725E-03
  19 F= -.23299146E+04 E0= -.23299146E+04  d E =-.692949E-02  mag=     4.0000
       N       E                     dE             d eps       ncg     rms          rms(c)
DAV:   1    -0.230949299171E+04    0.19066E-01   -0.25214E+00  4464   0.141E+00    0.413E-01
RMM:   2    -0.230951469138E+04   -0.21700E-01   -0.21766E-01  5932   0.254E-01    0.383E-01
RMM:   3    -0.230951486844E+04   -0.17706E-03   -0.16171E-02  5516   0.772E-02    0.300E-01
RMM:   4    -0.230951412598E+04    0.74246E-03   -0.19922E-03  4742   0.205E-02    0.107E-01
RMM:   5    -0.230951393071E+04    0.19527E-03   -0.43245E-04  4411   0.140E-02    0.563E-02
RMM:   6    -0.230951389803E+04    0.32686E-04   -0.27255E-04  4298   0.119E-02    0.263E-02
RMM:   7    -0.230951389132E+04    0.67065E-05   -0.29516E-05  2984   0.669E-03
  20 F= -.23299159E+04 E0= -.23299159E+04  d E =-.824691E-02  mag=     4.0000
       N       E                     dE             d eps       ncg     rms          rms(c)
DAV:   1    -0.230947758566E+04    0.36312E-01   -0.39097E+00  4416   0.180E+00    0.541E-01
RMM:   2    -0.230952162220E+04   -0.44037E-01   -0.43731E-01  6034   0.342E-01    0.557E-01
RMM:   3    -0.230952213851E+04   -0.51632E-03   -0.36141E-02  5645   0.106E-01    0.369E-01
RMM:   4    -0.230952121470E+04    0.92381E-03   -0.40308E-03  4966   0.255E-02    0.136E-01
RMM:   5    -0.230952095297E+04    0.26173E-03   -0.45687E-04  4289   0.142E-02    0.826E-02
RMM:   6    -0.230952087526E+04    0.77705E-04   -0.45484E-04  4456   0.149E-02    0.480E-02
RMM:   7    -0.230952086410E+04    0.11161E-04   -0.76287E-05  3131   0.969E-03    0.143E-02
RMM:   8    -0.230952086412E+04   -0.20460E-07   -0.10523E-05  2851   0.314E-03
  21 F= -.23299223E+04 E0= -.23299223E+04  d E =-.640348E-02  mag=     4.0000
       N       E                     dE             d eps       ncg     rms          rms(c)
DAV:   1    -0.230945814174E+04    0.62722E-01   -0.59532E+00  4416   0.222E+00    0.669E-01
RMM:   2    -0.230952554208E+04   -0.67400E-01   -0.66702E-01  6049   0.420E-01    0.713E-01
RMM:   3    -0.230952594789E+04   -0.40581E-03   -0.55492E-02  5678   0.130E-01    0.452E-01
RMM:   4    -0.230952457856E+04    0.13693E-02   -0.60965E-03  5064   0.313E-02    0.167E-01
RMM:   5    -0.230952417736E+04    0.40120E-03   -0.68010E-04  4522   0.175E-02    0.102E-01
RMM:   6    -0.230952405688E+04    0.12048E-03   -0.69037E-04  4579   0.180E-02    0.586E-02
RMM:   7    -0.230952403943E+04    0.17454E-04   -0.11518E-04  3391   0.114E-02    0.176E-02
RMM:   8    -0.230952403928E+04    0.14898E-06   -0.15371E-05  2876   0.345E-03
  22 F= -.23299248E+04 E0= -.23299248E+04  d E =-.883801E-02  mag=     4.0000
       N       E                     dE             d eps       ncg     rms          rms(c)
DAV:   1    -0.230950307520E+04    0.20964E-01   -0.21421E+00  4464   0.134E+00    0.422E-01
RMM:   2    -0.230953044314E+04   -0.27368E-01   -0.27316E-01  6058   0.262E-01    0.416E-01
RMM:   3    -0.230953092805E+04   -0.48492E-03   -0.22058E-02  5583   0.820E-02    0.303E-01
RMM:   4    -0.230953028553E+04    0.64252E-03   -0.24611E-03  4599   0.199E-02    0.104E-01
RMM:   5    -0.230953014255E+04    0.14298E-03   -0.28526E-04  3930   0.110E-02    0.632E-02
RMM:   6    -0.230953009622E+04    0.46335E-04   -0.24304E-04  4165   0.113E-02    0.330E-02
RMM:   7    -0.230953009212E+04    0.40975E-05   -0.36943E-05  2953   0.769E-03
  23 F= -.23299307E+04 E0= -.23299307E+04  d E =-.589753E-02  mag=     4.0000
       N       E                     dE             d eps       ncg     rms          rms(c)
DAV:   1    -0.230940012261E+04    0.12997E+00   -0.10634E+01  4416   0.298E+00    0.944E-01
RMM:   2    -0.230953741835E+04   -0.13730E+00   -0.13641E+00  6025   0.581E-01    0.991E-01
RMM:   3    -0.230953874330E+04   -0.13250E-02   -0.11190E-01  5635   0.185E-01    0.659E-01
RMM:   4    -0.230953585323E+04    0.28901E-02   -0.11910E-02  5158   0.439E-02    0.229E-01
RMM:   5    -0.230953516207E+04    0.69116E-03   -0.13781E-03  4786   0.233E-02    0.141E-01
RMM:   6    -0.230953493396E+04    0.22812E-03   -0.11693E-03  4660   0.229E-02    0.724E-02
RMM:   7    -0.230953490756E+04    0.26393E-04   -0.19602E-04  4072   0.147E-02    0.222E-02
RMM:   8    -0.230953490717E+04    0.39054E-06   -0.29605E-05  2942   0.428E-03
  24 F= -.23299351E+04 E0= -.23299351E+04  d E =-.103086E-01  mag=     4.0000
       N       E                     dE             d eps       ncg     rms          rms(c)
DAV:   1    -0.230951570505E+04    0.19203E-01   -0.17292E+00  4464   0.124E+00    0.403E-01
RMM:   2    -0.230954010972E+04   -0.24405E-01   -0.24095E-01  6065   0.248E-01    0.449E-01
RMM:   3    -0.230953998700E+04    0.12272E-03   -0.17805E-02  5637   0.725E-02    0.285E-01
RMM:   4    -0.230953943385E+04    0.55315E-03   -0.20436E-03  4618   0.187E-02    0.944E-02
RMM:   5    -0.230953931739E+04    0.11646E-03   -0.23293E-04  3971   0.108E-02    0.587E-02
RMM:   6    -0.230953928745E+04    0.29936E-04   -0.19024E-04  4157   0.107E-02    0.302E-02
RMM:   7    -0.230953928642E+04    0.10312E-05   -0.33845E-05  2909   0.725E-03
  25 F= -.23299391E+04 E0= -.23299391E+04  d E =-.403830E-02  mag=     4.0000
       N       E                     dE             d eps       ncg     rms          rms(c)
DAV:   1    -0.230945950507E+04    0.79782E-01   -0.60449E+00  4416   0.230E+00    0.757E-01
RMM:   2    -0.230954537077E+04   -0.85866E-01   -0.84630E-01  6072   0.463E-01    0.867E-01
RMM:   3    -0.230954439107E+04    0.97971E-03   -0.63675E-02  5726   0.137E-01    0.524E-01
RMM:   4    -0.230954258626E+04    0.18048E-02   -0.71233E-03  5084   0.347E-02    0.175E-01
RMM:   5    -0.230954218079E+04    0.40547E-03   -0.77707E-04  4701   0.192E-02    0.110E-01
RMM:   6    -0.230954206543E+04    0.11536E-03   -0.65586E-04  4537   0.185E-02    0.556E-02
RMM:   7    -0.230954205725E+04    0.81788E-05   -0.12268E-04  3537   0.117E-02    0.176E-02
RMM:   8    -0.230954205851E+04   -0.12556E-05   -0.16354E-05  2875   0.369E-03
  26 F= -.23299412E+04 E0= -.23299412E+04  d E =-.612166E-02  mag=     4.0000
       N       E                     dE             d eps       ncg     rms          rms(c)
DAV:   1    -0.230950926775E+04    0.32790E-01   -0.32259E+00  4432   0.167E+00    0.530E-01
RMM:   2    -0.230955120290E+04   -0.41935E-01   -0.40551E-01  6042   0.323E-01    0.690E-01
RMM:   3    -0.230954932803E+04    0.18749E-02   -0.29445E-02  5654   0.955E-02    0.345E-01
RMM:   4    -0.230954849852E+04    0.82952E-03   -0.32427E-03  4758   0.237E-02    0.125E-01
RMM:   5    -0.230954826335E+04    0.23517E-03   -0.42827E-04  4445   0.147E-02    0.846E-02
RMM:   6    -0.230954820513E+04    0.58214E-04   -0.39530E-04  4334   0.144E-02    0.259E-02
RMM:   7    -0.230954820680E+04   -0.16644E-05   -0.49928E-05  3006   0.806E-03
  27 F= -.23299466E+04 E0= -.23299466E+04  d E =-.537769E-02  mag=     4.0000
       N       E                     dE             d eps       ncg     rms          rms(c)
DAV:   1    -0.230933034378E+04    0.21786E+00   -0.18445E+01  4416   0.400E+00    0.128E+00
RMM:   2    -0.230957582066E+04   -0.24548E+00   -0.23556E+00  6063   0.773E-01    0.180E+00
RMM:   3    -0.230956024290E+04    0.15578E-01   -0.17478E-01  5715   0.230E-01    0.808E-01
RMM:   4    -0.230955597620E+04    0.42667E-02   -0.18330E-02  4965   0.564E-02    0.298E-01
RMM:   5    -0.230955472443E+04    0.12518E-02   -0.24112E-03  4932   0.343E-02    0.214E-01
RMM:   6    -0.230955432863E+04    0.39580E-03   -0.22269E-03  4675   0.329E-02    0.572E-02
RMM:   7    -0.230955433988E+04   -0.11255E-04   -0.26540E-04  4081   0.169E-02    0.296E-02
RMM:   8    -0.230955433371E+04    0.61716E-05   -0.30598E-05  2946   0.461E-03
  28 F= -.23299507E+04 E0= -.23299507E+04  d E =-.949349E-02  mag=     4.0000
       N       E                     dE             d eps       ncg     rms          rms(c)
DAV:   1    -0.230950829990E+04    0.46040E-01   -0.48802E+00  4416   0.205E+00    0.653E-01
RMM:   2    -0.230956702647E+04   -0.58727E-01   -0.55737E-01  6040   0.393E-01    0.934E-01
RMM:   3    -0.230956240044E+04    0.46260E-02   -0.39793E-02  5688   0.112E-01    0.404E-01
RMM:   4    -0.230956124468E+04    0.11558E-02   -0.45365E-03  4765   0.292E-02    0.151E-01
RMM:   5    -0.230956088705E+04    0.35762E-03   -0.69903E-04  4794   0.193E-02    0.113E-01
RMM:   6    -0.230956077537E+04    0.11168E-03   -0.64455E-04  4542   0.181E-02    0.277E-02
RMM:   7    -0.230956077321E+04    0.21597E-05   -0.67965E-05  3120   0.910E-03
  29 F= -.23299557E+04 E0= -.23299557E+04  d E =-.505154E-02  mag=     4.0000
       N       E                     dE             d eps       ncg     rms          rms(c)
DAV:   1    -0.230955564739E+04    0.51280E-02   -0.54567E-01  4704   0.685E-01    0.220E-01
RMM:   2    -0.230956219242E+04   -0.65450E-02   -0.62418E-02  6031   0.132E-01    0.304E-01
RMM:   3    -0.230956171345E+04    0.47897E-03   -0.43556E-03  5100   0.375E-02    0.140E-01
RMM:   4    -0.230956157977E+04    0.13368E-03   -0.48378E-04  3451   0.103E-02    0.508E-02
RMM:   5    -0.230956153894E+04    0.40833E-04   -0.80374E-05  3341   0.716E-03    0.352E-02
RMM:   6    -0.230956152849E+04    0.10452E-04   -0.70143E-05  3344   0.729E-03    0.106E-02
RMM:   7    -0.230956152874E+04   -0.25664E-06   -0.10891E-05  2860   0.485E-03
  30 F= -.23299560E+04 E0= -.23299560E+04  d E =-.532912E-02  mag=     4.0000
       N       E                     dE             d eps       ncg     rms          rms(c)
DAV:   1    -0.230955606560E+04    0.54629E-02   -0.10403E+00  4480   0.945E-01    0.292E-01
RMM:   2    -0.230956606631E+04   -0.10001E-01   -0.95809E-02  5971   0.177E-01    0.381E-01
RMM:   3    -0.230956529397E+04    0.77233E-03   -0.66311E-03  5381   0.507E-02    0.199E-01
RMM:   4    -0.230956498275E+04    0.31123E-03   -0.78743E-04  4257   0.142E-02    0.681E-02
RMM:   5    -0.230956490483E+04    0.77919E-04   -0.20010E-04  4117   0.108E-02    0.437E-02
RMM:   6    -0.230956488988E+04    0.14949E-04   -0.91643E-05  3562   0.861E-03    0.116E-02
RMM:   7    -0.230956489007E+04   -0.18976E-06   -0.12345E-05  2873   0.518E-03
  31 F= -.23299591E+04 E0= -.23299591E+04  d E =-.304489E-02  mag=     4.0000
       N       E                     dE             d eps       ncg     rms          rms(c)
DAV:   1    -0.230955159522E+04    0.13295E-01   -0.16670E+00  4448   0.120E+00    0.368E-01
RMM:   2    -0.230956759587E+04   -0.16001E-01   -0.15348E-01  5944   0.224E-01    0.478E-01
RMM:   3    -0.230956638590E+04    0.12100E-02   -0.10606E-02  5455   0.643E-02    0.252E-01
RMM:   4    -0.230956588167E+04    0.50423E-03   -0.12550E-03  4524   0.179E-02    0.864E-02
RMM:   5    -0.230956575574E+04    0.12593E-03   -0.32191E-04  4453   0.134E-02    0.551E-02
RMM:   6    -0.230956573150E+04    0.24239E-04   -0.15042E-04  4045   0.103E-02    0.149E-02
RMM:   7    -0.230956573101E+04    0.48158E-06   -0.16763E-05  2902   0.556E-03
  32 F= -.23299595E+04 E0= -.23299595E+04  d E =-.346965E-02  mag=     4.0000
       N       E                     dE             d eps       ncg     rms          rms(c)
DAV:   1    -0.230956398518E+04    0.17463E-02   -0.22220E-01  4544   0.439E-01    0.134E-01
RMM:   2    -0.230956610670E+04   -0.21215E-02   -0.20445E-02  5974   0.823E-02    0.174E-01
RMM:   3    -0.230956594701E+04    0.15969E-03   -0.13938E-03  4167   0.246E-02    0.924E-02
RMM:   4    -0.230956588174E+04    0.65270E-04   -0.16475E-04  3022   0.732E-03    0.317E-02
RMM:   5    -0.230956586525E+04    0.16491E-04   -0.48752E-05  3088   0.557E-03    0.203E-02
RMM:   6    -0.230956586289E+04    0.23614E-05   -0.19830E-05  2915   0.514E-03
  33 F= -.23299598E+04 E0= -.23299598E+04  d E =-.375552E-02  mag=     4.0000
       N       E                     dE             d eps       ncg     rms          rms(c)
DAV:   1    -0.230956361015E+04    0.22551E-02   -0.63954E-01  4480   0.750E-01    0.212E-01
RMM:   2    -0.230956927116E+04   -0.56610E-02   -0.54601E-02  6086   0.139E-01    0.273E-01
RMM:   3    -0.230956887243E+04    0.39873E-03   -0.37962E-03  5221   0.400E-02    0.145E-01
RMM:   4    -0.230956871695E+04    0.15548E-03   -0.45109E-04  3520   0.108E-02    0.508E-02
RMM:   5    -0.230956867962E+04    0.37330E-04   -0.91064E-05  3568   0.792E-03    0.328E-02
RMM:   6    -0.230956867183E+04    0.77874E-05   -0.53444E-05  3180   0.736E-03
  34 F= -.23299623E+04 E0= -.23299623E+04  d E =-.252859E-02  mag=     4.0000
       N       E                     dE             d eps       ncg     rms          rms(c)
DAV:   1    -0.230952598705E+04    0.42693E-01   -0.57403E+00  4416   0.225E+00    0.637E-01
RMM:   2    -0.230957668420E+04   -0.50697E-01   -0.49191E-01  5983   0.411E-01    0.793E-01
RMM:   3    -0.230957336813E+04    0.33161E-02   -0.33618E-02  5633   0.115E-01    0.438E-01
RMM:   4    -0.230957193458E+04    0.14335E-02   -0.39755E-03  4891   0.308E-02    0.151E-01
RMM:   5    -0.230957161848E+04    0.31611E-03   -0.78723E-04  4856   0.208E-02    0.945E-02
RMM:   6    -0.230957155261E+04    0.65869E-04   -0.44489E-04  4568   0.171E-02    0.331E-02
RMM:   7    -0.230957154818E+04    0.44289E-05   -0.59859E-05  3158   0.849E-03
  35 F= -.23299643E+04 E0= -.23299643E+04  d E =-.453315E-02  mag=     4.0000
       N       E                     dE             d eps       ncg     rms          rms(c)
DAV:   1    -0.230956910564E+04    0.24470E-02   -0.31934E-01  4528   0.529E-01    0.149E-01
RMM:   2    -0.230957190805E+04   -0.28024E-02   -0.27198E-02  6029   0.983E-02    0.188E-01
RMM:   3    -0.230957172160E+04    0.18645E-03   -0.18433E-03  4598   0.282E-02    0.102E-01
RMM:   4    -0.230957164432E+04    0.77279E-04   -0.21693E-04  3097   0.798E-03    0.358E-02
RMM:   5    -0.230957162606E+04    0.18265E-04   -0.50911E-05  3094   0.587E-03    0.229E-02
RMM:   6    -0.230957162308E+04    0.29803E-05   -0.25247E-05  2910   0.569E-03
  36 F= -.23299646E+04 E0= -.23299646E+04  d E =-.481785E-02  mag=     4.0000
       N       E                     dE             d eps       ncg     rms          rms(c)
DAV:   1    -0.230956520966E+04    0.64164E-02   -0.11714E+00  4448   0.104E+00    0.287E-01
RMM:   2    -0.230957500926E+04   -0.97996E-02   -0.98790E-02  5966   0.191E-01    0.261E-01
RMM:   3    -0.230957512637E+04   -0.11711E-03   -0.69485E-03  5416   0.584E-02    0.224E-01
RMM:   4    -0.230957473491E+04    0.39146E-03   -0.84732E-04  4303   0.149E-02    0.697E-02
RMM:   5    -0.230957466074E+04    0.74164E-04   -0.20176E-04  4093   0.106E-02    0.360E-02
RMM:   6    -0.230957465191E+04    0.88316E-05   -0.85180E-05  3805   0.863E-03
  37 F= -.23299675E+04 E0= -.23299675E+04  d E =-.287071E-02  mag=     4.0000
       N       E                     dE             d eps       ncg     rms          rms(c)
DAV:   1    -0.230954738406E+04    0.27277E-01   -0.35401E+00  4432   0.181E+00    0.501E-01
RMM:   2    -0.230957704168E+04   -0.29658E-01   -0.29940E-01  5930   0.333E-01    0.446E-01
RMM:   3    -0.230957742877E+04   -0.38709E-03   -0.21097E-02  5535   0.100E-01    0.386E-01
RMM:   4    -0.230957626729E+04    0.11615E-02   -0.25763E-03  5009   0.256E-02    0.120E-01
RMM:   5    -0.230957605786E+04    0.20943E-03   -0.61498E-04  4746   0.173E-02    0.625E-02
RMM:   6    -0.230957603051E+04    0.27351E-04   -0.25172E-04  4578   0.133E-02    0.325E-02
RMM:   7    -0.230957602483E+04    0.56792E-05   -0.32426E-05  2989   0.737E-03
  38 F= -.23299686E+04 E0= -.23299686E+04  d E =-.395667E-02  mag=     4.0000
       N       E                     dE             d eps       ncg     rms          rms(c)
DAV:   1    -0.230957462670E+04    0.14038E-02   -0.18919E-01  4608   0.420E-01    0.114E-01
RMM:   2    -0.230957620280E+04   -0.15761E-02   -0.15966E-02  5980   0.774E-02    0.996E-02
RMM:   3    -0.230957622293E+04   -0.20130E-04   -0.11126E-03  4121   0.234E-02    0.903E-02
RMM:   4    -0.230957615922E+04    0.63711E-04   -0.13606E-04  2954   0.692E-03    0.284E-02
RMM:   5    -0.230957614695E+04    0.12266E-04   -0.37251E-05  2980   0.499E-03    0.143E-02
RMM:   6    -0.230957614628E+04    0.67189E-06   -0.15593E-05  2895   0.451E-03
  39 F= -.23299687E+04 E0= -.23299687E+04  d E =-.414576E-02  mag=     4.0000
       N       E                     dE             d eps       ncg     rms          rms(c)
DAV:   1    -0.230956786699E+04    0.82800E-02   -0.12127E+00  4416   0.108E+00    0.291E-01
RMM:   2    -0.230957873103E+04   -0.10864E-01   -0.11132E-01  5949   0.199E-01    0.195E-01
RMM:   3    -0.230957916690E+04   -0.43586E-03   -0.79324E-03  5413   0.608E-02    0.201E-01
RMM:   4    -0.230957889274E+04    0.27416E-03   -0.95773E-04  4322   0.149E-02    0.787E-02
RMM:   5    -0.230957881085E+04    0.81892E-04   -0.21443E-04  3994   0.107E-02    0.426E-02
RMM:   6    -0.230957879582E+04    0.15030E-04   -0.11792E-04  4068   0.895E-03    0.283E-02
RMM:   7    -0.230957879078E+04    0.50375E-05   -0.21572E-05  2876   0.630E-03
  40 F= -.23299712E+04 E0= -.23299712E+04  d E =-.250213E-02  mag=     4.0000
       N       E                     dE             d eps       ncg     rms          rms(c)
DAV:   1    -0.230956283595E+04    0.15960E-01   -0.18677E+00  4416   0.134E+00    0.363E-01
RMM:   2    -0.230957966364E+04   -0.16828E-01   -0.17240E-01  5845   0.247E-01    0.247E-01
RMM:   3    -0.230958032432E+04   -0.66067E-03   -0.12412E-02  5396   0.748E-02    0.251E-01
RMM:   4    -0.230957987876E+04    0.44555E-03   -0.14849E-03  4826   0.185E-02    0.972E-02
RMM:   5    -0.230957975726E+04    0.12150E-03   -0.32492E-04  4304   0.127E-02    0.531E-02
RMM:   6    -0.230957973392E+04    0.23341E-04   -0.17752E-04  4314   0.105E-02    0.346E-02
RMM:   7    -0.230957972657E+04    0.73480E-05   -0.30720E-05  2892   0.712E-03
  41 F= -.23299720E+04 E0= -.23299720E+04  d E =-.325623E-02  mag=     4.0000
       N       E                     dE             d eps       ncg     rms          rms(c)
DAV:   1    -0.230956574012E+04    0.13994E-01   -0.16442E+00  4416   0.126E+00    0.332E-01
RMM:   2    -0.230958174191E+04   -0.16002E-01   -0.16408E-01  5822   0.229E-01    0.208E-01
RMM:   3    -0.230958235639E+04   -0.61448E-03   -0.11671E-02  5320   0.702E-02    0.203E-01
RMM:   4    -0.230958209831E+04    0.25808E-03   -0.13072E-03  4396   0.163E-02    0.962E-02
RMM:   5    -0.230958197907E+04    0.11924E-03   -0.28663E-04  4061   0.113E-02    0.530E-02
RMM:   6    -0.230958195588E+04    0.23190E-04   -0.18422E-04  4181   0.100E-02    0.351E-02
RMM:   7    -0.230958194847E+04    0.74061E-05   -0.28685E-05  2878   0.691E-03
  42 F= -.23299741E+04 E0= -.23299741E+04  d E =-.211895E-02  mag=     4.0000
       N       E                     dE             d eps       ncg     rms          rms(c)
DAV:   1    -0.230957134499E+04    0.10611E-01   -0.11263E+00  4416   0.104E+00    0.275E-01
RMM:   2    -0.230958229574E+04   -0.10951E-01   -0.11237E-01  5809   0.189E-01    0.170E-01
RMM:   3    -0.230958272024E+04   -0.42450E-03   -0.79346E-03  5211   0.600E-02    0.168E-01
RMM:   4    -0.230958255188E+04    0.16836E-03   -0.90326E-04  3897   0.137E-02    0.798E-02
RMM:   5    -0.230958246870E+04    0.83184E-04   -0.19949E-04  3734   0.982E-03    0.439E-02
RMM:   6    -0.230958245264E+04    0.16054E-04   -0.12854E-04  3955   0.878E-03    0.295E-02
RMM:   7    -0.230958244721E+04    0.54328E-05   -0.21250E-05  2870   0.628E-03
  43 F= -.23299745E+04 E0= -.23299745E+04  d E =-.253045E-02  mag=     4.0000
       N       E                     dE             d eps       ncg     rms          rms(c)
DAV:   1    -0.230957271879E+04    0.97339E-02   -0.12160E+00  4416   0.111E+00    0.294E-01
RMM:   2    -0.230958464441E+04   -0.11926E-01   -0.12181E-01  5788   0.202E-01    0.214E-01
RMM:   3    -0.230958501966E+04   -0.37525E-03   -0.84107E-03  5233   0.659E-02    0.211E-01
RMM:   4    -0.230958470669E+04    0.31297E-03   -0.10775E-03  4545   0.158E-02    0.831E-02
RMM:   5    -0.230958460365E+04    0.10304E-03   -0.22757E-04  4008   0.108E-02    0.446E-02
RMM:   6    -0.230958458009E+04    0.23558E-04   -0.13729E-04  4129   0.950E-03    0.317E-02
RMM:   7    -0.230958457342E+04    0.66760E-05   -0.27408E-05  2891   0.704E-03
  44 F= -.23299764E+04 E0= -.23299764E+04  d E =-.189825E-02  mag=     4.0000
       N       E                     dE             d eps       ncg     rms          rms(c)
DAV:   1    -0.230958338199E+04    0.11981E-02   -0.13783E-01  4640   0.374E-01    0.100E-01
RMM:   2    -0.230958473822E+04   -0.13562E-02   -0.13880E-02  5833   0.687E-02    0.715E-02
RMM:   3    -0.230958478525E+04   -0.47036E-04   -0.96557E-04  3888   0.219E-02    0.734E-02
RMM:   4    -0.230958474706E+04    0.38193E-04   -0.12393E-04  2918   0.632E-03    0.280E-02
RMM:   5    -0.230958473540E+04    0.11658E-04   -0.28647E-05  2909   0.442E-03    0.151E-02
RMM:   6    -0.230958473319E+04    0.22133E-05   -0.16528E-05  2915   0.419E-03
  45 F= -.23299765E+04 E0= -.23299765E+04  d E =-.198038E-02  mag=     4.0000
       N       E                     dE             d eps       ncg     rms          rms(c)
DAV:   1    -0.230957392928E+04    0.10806E-01   -0.13688E+00  4416   0.118E+00    0.310E-01
RMM:   2    -0.230958669600E+04   -0.12767E-01   -0.13002E-01  5626   0.210E-01    0.235E-01
RMM:   3    -0.230958702784E+04   -0.33184E-03   -0.88091E-03  5029   0.744E-02    0.238E-01
RMM:   4    -0.230958660402E+04    0.42382E-03   -0.11452E-03  4621   0.169E-02    0.830E-02
RMM:   5    -0.230958649125E+04    0.11277E-03   -0.26097E-04  4164   0.115E-02    0.438E-02
RMM:   6    -0.230958646925E+04    0.21993E-04   -0.14820E-04  4145   0.997E-03    0.248E-02
RMM:   7    -0.230958646607E+04    0.31846E-05   -0.18836E-05  2902   0.672E-03
  46 F= -.23299782E+04 E0= -.23299782E+04  d E =-.167798E-02  mag=     4.0000
       N       E                     dE             d eps       ncg     rms          rms(c)
DAV:   1    -0.230958474007E+04    0.17292E-02   -0.18780E-01  4560   0.440E-01    0.115E-01
RMM:   2    -0.230958649342E+04   -0.17533E-02   -0.17912E-02  5756   0.789E-02    0.843E-02
RMM:   3    -0.230958654501E+04   -0.51596E-04   -0.12068E-03  4190   0.262E-02    0.885E-02
RMM:   4    -0.230958648778E+04    0.57236E-04   -0.15634E-04  2942   0.695E-03    0.313E-02
RMM:   5    -0.230958647235E+04    0.15425E-04   -0.38105E-05  2942   0.497E-03    0.167E-02
RMM:   6    -0.230958646955E+04    0.28019E-05   -0.22017E-05  2945   0.478E-03
  47 F= -.23299782E+04 E0= -.23299782E+04  d E =-.165978E-02  mag=     4.0000
       N       E                     dE             d eps       ncg     rms          rms(c)
DAV:   1    -0.230957801863E+04    0.84537E-02   -0.12168E+00  4416   0.112E+00    0.281E-01
RMM:   2    -0.230958858225E+04   -0.10564E-01   -0.10649E-01  5664   0.197E-01    0.252E-01
RMM:   3    -0.230958869216E+04   -0.10991E-03   -0.71706E-03  5093   0.663E-02    0.221E-01
RMM:   4    -0.230958833512E+04    0.35704E-03   -0.94086E-04  4567   0.156E-02    0.734E-02
RMM:   5    -0.230958825838E+04    0.76747E-04   -0.17517E-04  3954   0.102E-02    0.408E-02
RMM:   6    -0.230958824270E+04    0.15679E-04   -0.11316E-04  4082   0.923E-03    0.237E-02
RMM:   7    -0.230958824064E+04    0.20596E-05   -0.16559E-05  2890   0.643E-03
  48 F= -.23299797E+04 E0= -.23299797E+04  d E =-.149357E-02  mag=     4.0000
       N       E                     dE             d eps       ncg     rms          rms(c)
DAV:   1    -0.230958433517E+04    0.39075E-02   -0.50897E-01  4432   0.725E-01    0.183E-01
RMM:   2    -0.230958875750E+04   -0.44223E-02   -0.44623E-02  5761   0.128E-01    0.161E-01
RMM:   3    -0.230958881736E+04   -0.59868E-04   -0.30185E-03  4932   0.418E-02    0.144E-01
RMM:   4    -0.230958866383E+04    0.15353E-03   -0.38727E-04  3504   0.103E-02    0.478E-02
RMM:   5    -0.230958863169E+04    0.32137E-04   -0.76320E-05  3181   0.712E-03    0.265E-02
RMM:   6    -0.230958862505E+04    0.66440E-05   -0.51407E-05  3462   0.695E-03
  49 F= -.23299799E+04 E0= -.23299799E+04  d E =-.169580E-02  mag=     4.0000
       N       E                     dE             d eps       ncg     rms          rms(c)
DAV:   1    -0.230958642446E+04    0.22072E-02   -0.71575E-01  4464   0.863E-01    0.237E-01
RMM:   2    -0.230959107172E+04   -0.46473E-02   -0.47452E-02  5655   0.147E-01    0.186E-01
RMM:   3    -0.230959110355E+04   -0.31831E-04   -0.31707E-03  5125   0.495E-02    0.195E-01
RMM:   4    -0.230959078731E+04    0.31624E-03   -0.49707E-04  4417   0.132E-02    0.560E-02
RMM:   5    -0.230959074195E+04    0.45364E-04   -0.14559E-04  4040   0.997E-03    0.263E-02
RMM:   6    -0.230959073690E+04    0.50485E-05   -0.50719E-05  3507   0.737E-03
  50 F= -.23299817E+04 E0= -.23299817E+04  d E =-.179262E-02  mag=     4.0000
       N       E                     dE             d eps       ncg     rms          rms(c)
DAV:   1    -0.230958940220E+04    0.13397E-02   -0.29107E-01  4496   0.550E-01    0.151E-01
RMM:   2    -0.230959129573E+04   -0.18935E-02   -0.19374E-02  5967   0.958E-02    0.115E-01
RMM:   3    -0.230959132175E+04   -0.26023E-04   -0.12819E-03  4862   0.313E-02    0.125E-01
RMM:   4    -0.230959119340E+04    0.12835E-03   -0.19888E-04  3183   0.896E-03    0.364E-02
RMM:   5    -0.230959117410E+04    0.19299E-04   -0.61075E-05  3356   0.700E-03    0.170E-02
RMM:   6    -0.230959117185E+04    0.22483E-05   -0.21606E-05  2938   0.585E-03
  51 F= -.23299819E+04 E0= -.23299819E+04  d E =-.202225E-02  mag=     4.0000
       N       E                     dE             d eps       ncg     rms          rms(c)
DAV:   1    -0.230958920674E+04    0.19674E-02   -0.72640E-01  4432   0.837E-01    0.225E-01
RMM:   2    -0.230959290571E+04   -0.36990E-02   -0.38067E-02  5656   0.138E-01    0.174E-01
RMM:   3    -0.230959292355E+04   -0.17848E-04   -0.24072E-03  5044   0.477E-02    0.190E-01
RMM:   4    -0.230959261163E+04    0.31193E-03   -0.38935E-04  4464   0.126E-02    0.546E-02
RMM:   5    -0.230959256989E+04    0.41735E-04   -0.15339E-04  4090   0.102E-02    0.239E-02
RMM:   6    -0.230959256643E+04    0.34593E-05   -0.40851E-05  3165   0.707E-03
  52 F= -.23299830E+04 E0= -.23299830E+04  d E =-.110801E-02  mag=     4.0000
       N       E                     dE             d eps       ncg     rms          rms(c)
DAV:   1    -0.230959250073E+04    0.69167E-04   -0.24337E-02  5008   0.154E-01    0.423E-02
RMM:   2    -0.230959262885E+04   -0.12812E-03   -0.13269E-03  5843   0.283E-02    0.292E-02
RMM:   3    -0.230959263134E+04   -0.24972E-05   -0.81964E-05  3026   0.864E-03
  53 F= -.23299830E+04 E0= -.23299830E+04  d E =-.111998E-02  mag=     4.0000
       N       E                     dE             d eps       ncg     rms          rms(c)
DAV:   1    -0.230959191456E+04    0.71429E-03   -0.44459E-01  4448   0.662E-01    0.170E-01
RMM:   2    -0.230959412853E+04   -0.22140E-02   -0.22641E-02  5714   0.110E-01    0.155E-01
RMM:   3    -0.230959403134E+04    0.97185E-04   -0.13657E-03  4843   0.329E-02    0.138E-01
RMM:   4    -0.230959386857E+04    0.16278E-03   -0.24580E-04  3940   0.101E-02    0.500E-02
RMM:   5    -0.230959383426E+04    0.34303E-04   -0.91570E-05  3894   0.868E-03    0.205E-02
RMM:   6    -0.230959383210E+04    0.21625E-05   -0.29514E-05  2975   0.647E-03
  54 F= -.23299838E+04 E0= -.23299838E+04  d E =-.774832E-03  mag=     4.0000
       N       E                     dE             d eps       ncg     rms          rms(c)
DAV:   1    -0.230959384248E+04   -0.82154E-05   -0.44345E-03  5264   0.663E-02    0.187E-02
RMM:   2    -0.230959386508E+04   -0.22601E-04   -0.23148E-04  4348   0.130E-02    0.148E-02
RMM:   3    -0.230959386587E+04   -0.78868E-06   -0.22893E-05  2845   0.562E-03
  55 F= -.23299838E+04 E0= -.23299838E+04  d E =-.765511E-03  mag=     4.0000
       N       E                     dE             d eps       ncg     rms          rms(c)
DAV:   1    -0.230959343202E+04    0.43306E-03   -0.34992E-01  4448   0.583E-01    0.153E-01
RMM:   2    -0.230959509139E+04   -0.16594E-02   -0.17229E-02  5628   0.958E-02    0.110E-01
RMM:   3    -0.230959510567E+04   -0.14274E-04   -0.11364E-03  4644   0.322E-02    0.127E-01
RMM:   4    -0.230959497151E+04    0.13415E-03   -0.17484E-04  3360   0.884E-03    0.391E-02
RMM:   5    -0.230959495066E+04    0.20853E-04   -0.73221E-05  3485   0.753E-03    0.167E-02
RMM:   6    -0.230959494975E+04    0.90909E-06   -0.20687E-05  2917   0.584E-03
  56 F= -.23299846E+04 E0= -.23299846E+04  d E =-.782907E-03  mag=     4.0000
       N       E                     dE             d eps       ncg     rms          rms(c)
DAV:   1    -0.230959412652E+04    0.82415E-03   -0.25968E-01  4448   0.503E-01    0.132E-01
RMM:   2    -0.230959536783E+04   -0.12413E-02   -0.12867E-02  5692   0.837E-02    0.932E-02
RMM:   3    -0.230959538066E+04   -0.12828E-04   -0.81974E-04  4499   0.279E-02    0.109E-01
RMM:   4    -0.230959528098E+04    0.99681E-04   -0.12725E-04  3079   0.787E-03    0.331E-02
RMM:   5    -0.230959526602E+04    0.14964E-04   -0.55622E-05  3210   0.643E-03    0.146E-02
RMM:   6    -0.230959526457E+04    0.14422E-05   -0.15915E-05  2895   0.528E-03
  57 F= -.23299846E+04 E0= -.23299846E+04  d E =-.837284E-03  mag=     4.0000
       N       E                     dE             d eps       ncg     rms          rms(c)
DAV:   1    -0.230959453763E+04    0.72839E-03   -0.26472E-01  4432   0.519E-01    0.127E-01
RMM:   2    -0.230959602172E+04   -0.14841E-02   -0.15520E-02  5746   0.888E-02    0.700E-02
RMM:   3    -0.230959603300E+04   -0.11284E-04   -0.97343E-04  4478   0.304E-02    0.756E-02
RMM:   4    -0.230959599680E+04    0.36203E-04   -0.13567E-04  3049   0.751E-03    0.382E-02
RMM:   5    -0.230959597833E+04    0.18463E-04   -0.47732E-05  3110   0.645E-03    0.175E-02
RMM:   6    -0.230959597642E+04    0.19173E-05   -0.20849E-05  2933   0.555E-03
  58 F= -.23299852E+04 E0= -.23299852E+04  d E =-.569400E-03  mag=     4.0000
       N       E                     dE             d eps       ncg     rms          rms(c)
DAV:   1    -0.230959562346E+04    0.35487E-03   -0.85652E-02  4496   0.295E-01    0.729E-02
RMM:   2    -0.230959611096E+04   -0.48751E-03   -0.50906E-03  5944   0.517E-02    0.398E-02
RMM:   3    -0.230959611394E+04   -0.29778E-05   -0.32146E-04  3696   0.166E-02    0.446E-02
RMM:   4    -0.230959610100E+04    0.12944E-04   -0.44899E-05  2887   0.493E-03    0.216E-02
RMM:   5    -0.230959609491E+04    0.60837E-05   -0.16869E-05  2880   0.386E-03
  59 F= -.23299852E+04 E0= -.23299852E+04  d E =-.606580E-03  mag=     4.0000
       N       E                     dE             d eps       ncg     rms          rms(c)
DAV:   1    -0.230959499164E+04    0.11094E-02   -0.23374E-01  4432   0.505E-01    0.137E-01
RMM:   2    -0.230959671812E+04   -0.17265E-02   -0.18272E-02  5834   0.895E-02    0.644E-02
RMM:   3    -0.230959673368E+04   -0.15567E-04   -0.11419E-03  4401   0.283E-02    0.455E-02
RMM:   4    -0.230959674042E+04   -0.67418E-05   -0.16577E-04  3115   0.802E-03    0.564E-02
RMM:   5    -0.230959670879E+04    0.31632E-04   -0.45415E-05  2951   0.627E-03    0.184E-02
RMM:   6    -0.230959670746E+04    0.13338E-05   -0.20744E-05  2882   0.523E-03
  60 F= -.23299858E+04 E0= -.23299858E+04  d E =-.587151E-03  mag=     4.0000
       N       E                     dE             d eps       ncg     rms          rms(c)
DAV:   1    -0.230959649208E+04    0.21671E-03   -0.31359E-02  4736   0.185E-01    0.508E-02
RMM:   2    -0.230959672677E+04   -0.23469E-03   -0.24819E-03  6063   0.348E-02    0.231E-02
RMM:   3    -0.230959672926E+04   -0.24882E-05   -0.15799E-04  3098   0.103E-02    0.143E-02
RMM:   4    -0.230959672880E+04    0.45804E-06   -0.22392E-05  2877   0.355E-03
  61 F= -.23299858E+04 E0= -.23299858E+04  d E =-.599081E-03  mag=     4.0000
       N       E                     dE             d eps       ncg     rms          rms(c)
DAV:   1    -0.230959509422E+04    0.16350E-02   -0.21027E-01  4432   0.471E-01    0.123E-01
RMM:   2    -0.230959706027E+04   -0.19660E-02   -0.20371E-02  5753   0.847E-02    0.842E-02
RMM:   3    -0.230959716080E+04   -0.10053E-03   -0.16175E-03  4209   0.294E-02    0.909E-02
RMM:   4    -0.230959709336E+04    0.67443E-04   -0.18863E-04  3027   0.747E-03    0.388E-02
RMM:   5    -0.230959706831E+04    0.25048E-04   -0.55248E-05  3083   0.602E-03    0.167E-02
RMM:   6    -0.230959706581E+04    0.24965E-05   -0.22201E-05  2917   0.544E-03
  62 F= -.23299862E+04 E0= -.23299862E+04  d E =-.425115E-03  mag=     4.0000
       N       E                     dE             d eps       ncg     rms          rms(c)
DAV:   1    -0.230959675457E+04    0.31373E-03   -0.29251E-02  4640   0.176E-01    0.468E-02
RMM:   2    -0.230959703232E+04   -0.27774E-03   -0.28947E-03  6049   0.335E-02    0.270E-02
RMM:   3    -0.230959704411E+04   -0.11787E-04   -0.20607E-04  3057   0.106E-02    0.273E-02
RMM:   4    -0.230959703928E+04    0.48268E-05   -0.26193E-05  2877   0.348E-03
  63 F= -.23299862E+04 E0= -.23299862E+04  d E =-.431748E-03  mag=     4.0000
       N       E                     dE             d eps       ncg     rms          rms(c)
DAV:   1    -0.230959562938E+04    0.14147E-02   -0.17271E-01  4464   0.433E-01    0.119E-01
RMM:   2    -0.230959740014E+04   -0.17708E-02   -0.18399E-02  5744   0.798E-02    0.715E-02
RMM:   3    -0.230959752421E+04   -0.12406E-03   -0.17809E-03  4172   0.288E-02    0.758E-02
RMM:   4    -0.230959748350E+04    0.40705E-04   -0.18932E-04  2975   0.709E-03    0.375E-02
RMM:   5    -0.230959746326E+04    0.20244E-04   -0.42693E-05  2974   0.548E-03    0.158E-02
RMM:   6    -0.230959746082E+04    0.24413E-05   -0.17725E-05  2891   0.501E-03
  64 F= -.23299867E+04 E0= -.23299867E+04  d E =-.433025E-03  mag=     4.0000
       N       E                     dE             d eps       ncg     rms          rms(c)
DAV:   1    -0.230959659553E+04    0.86772E-03   -0.82928E-02  4480   0.300E-01    0.841E-02
RMM:   2    -0.230959745647E+04   -0.86094E-03   -0.89663E-03  5862   0.562E-02    0.480E-02
RMM:   3    -0.230959751099E+04   -0.54518E-04   -0.79301E-04  3788   0.212E-02    0.494E-02
RMM:   4    -0.230959749454E+04    0.16450E-04   -0.87577E-05  2917   0.518E-03    0.257E-02
RMM:   5    -0.230959748521E+04    0.93257E-05   -0.19741E-05  2889   0.381E-03
  65 F= -.23299867E+04 E0= -.23299867E+04  d E =-.465614E-03  mag=     4.0000
       N       E                     dE             d eps       ncg     rms          rms(c)
DAV:   1    -0.230959567703E+04    0.18175E-02   -0.20539E-01  4432   0.468E-01    0.127E-01
RMM:   2    -0.230959783291E+04   -0.21559E-02   -0.22400E-02  5919   0.877E-02    0.768E-02
RMM:   3    -0.230959796404E+04   -0.13113E-03   -0.18916E-03  4279   0.287E-02    0.785E-02
RMM:   4    -0.230959792303E+04    0.41006E-04   -0.21743E-04  2964   0.752E-03    0.402E-02
RMM:   5    -0.230959790146E+04    0.21569E-04   -0.45971E-05  2962   0.564E-03    0.188E-02
RMM:   6    -0.230959789820E+04    0.32596E-05   -0.22707E-05  2907   0.520E-03
  66 F= -.23299871E+04 E0= -.23299871E+04  d E =-.423559E-03  mag=     4.0000
       N       E                     dE             d eps       ncg     rms          rms(c)
DAV:   1    -0.230959742610E+04    0.47536E-03   -0.43816E-02  4544   0.216E-01    0.597E-02
RMM:   2    -0.230959789086E+04   -0.46476E-03   -0.48420E-03  6143   0.420E-02    0.358E-02
RMM:   3    -0.230959792054E+04   -0.29683E-04   -0.41800E-04  3181   0.132E-02    0.374E-02
RMM:   4    -0.230959791111E+04    0.94359E-05   -0.48310E-05  2898   0.413E-03
  67 F= -.23299872E+04 E0= -.23299872E+04  d E =-.441486E-03  mag=     4.0000
       N       E                     dE             d eps       ncg     rms          rms(c)
DAV:   1    -0.230959630753E+04    0.16130E-02   -0.20754E-01  4464   0.456E-01    0.123E-01
RMM:   2    -0.230959815697E+04   -0.18494E-02   -0.19359E-02  5747   0.829E-02    0.721E-02
RMM:   3    -0.230959826581E+04   -0.10884E-03   -0.17148E-03  4159   0.297E-02    0.754E-02
RMM:   4    -0.230959822635E+04    0.39456E-04   -0.18877E-04  3002   0.725E-03    0.424E-02
RMM:   5    -0.230959820094E+04    0.25413E-04   -0.55094E-05  3067   0.597E-03    0.167E-02
RMM:   6    -0.230959819854E+04    0.24018E-05   -0.20965E-05  2906   0.530E-03
  68 F= -.23299875E+04 E0= -.23299875E+04  d E =-.362082E-03  mag=     4.0000
       N       E                     dE             d eps       ncg     rms          rms(c)
DAV:   1    -0.230959796912E+04    0.23182E-03   -0.21272E-02  4688   0.147E-01    0.404E-02
RMM:   2    -0.230959816443E+04   -0.19531E-03   -0.20449E-03  5930   0.284E-02    0.232E-02
RMM:   3    -0.230959817710E+04   -0.12679E-04   -0.18100E-04  2993   0.967E-03    0.254E-02
RMM:   4    -0.230959817243E+04    0.46700E-05   -0.20511E-05  2867   0.313E-03
  69 F= -.23299875E+04 E0= -.23299875E+04  d E =-.360055E-03  mag=     4.0000
       N       E                     dE             d eps       ncg     rms          rms(c)
DAV:   1    -0.230959694021E+04    0.12369E-02   -0.20693E-01  4464   0.459E-01    0.119E-01
RMM:   2    -0.230959855618E+04   -0.16160E-02   -0.17041E-02  5743   0.823E-02    0.600E-02
RMM:   3    -0.230959860704E+04   -0.50862E-04   -0.13108E-03  4187   0.264E-02    0.393E-02
RMM:   4    -0.230959861556E+04   -0.85224E-05   -0.16091E-04  3056   0.731E-03    0.511E-02
RMM:   5    -0.230959859223E+04    0.23333E-04   -0.37404E-05  2891   0.530E-03    0.189E-02
RMM:   6    -0.230959859046E+04    0.17659E-05   -0.17970E-05  2884   0.445E-03
  70 F= -.23299879E+04 E0= -.23299879E+04  d E =-.396518E-03  mag=     4.0000
       N       E                     dE             d eps       ncg     rms          rms(c)
DAV:   1    -0.230959775900E+04    0.83323E-03   -0.10931E-01  4464   0.334E-01    0.880E-02
RMM:   2    -0.230959861842E+04   -0.85941E-03   -0.90697E-03  5826   0.606E-02    0.427E-02
RMM:   3    -0.230959864905E+04   -0.30633E-04   -0.70499E-04  3844   0.209E-02    0.282E-02
RMM:   4    -0.230959865204E+04   -0.29887E-05   -0.82420E-05  2932   0.538E-03
  71 F= -.23299880E+04 E0= -.23299880E+04  d E =-.442563E-03  mag=     4.0000
       N       E                     dE             d eps       ncg     rms          rms(c)
DAV:   1    -0.230959744371E+04    0.12053E-02   -0.25721E-01  4464   0.497E-01    0.130E-01
RMM:   2    -0.230959916425E+04   -0.17205E-02   -0.18259E-02  5847   0.877E-02    0.666E-02
RMM:   3    -0.230959918144E+04   -0.17187E-04   -0.12763E-03  4226   0.283E-02    0.419E-02
RMM:   4    -0.230959917429E+04    0.71537E-05   -0.15318E-04  3401   0.822E-03    0.297E-02
RMM:   5    -0.230959918571E+04   -0.11420E-04   -0.50087E-05  2910   0.620E-03    0.496E-02
RMM:   6    -0.230959916700E+04    0.18709E-04   -0.21674E-05  2874   0.461E-03    0.835E-03
RMM:   7    -0.230959916709E+04   -0.94034E-07   -0.60947E-06  2848   0.318E-03
  72 F= -.23299884E+04 E0= -.23299884E+04  d E =-.454559E-03  mag=     4.0000
       N       E                     dE             d eps       ncg     rms          rms(c)
DAV:   1    -0.230959884938E+04    0.31762E-03   -0.56552E-02  4480   0.233E-01    0.615E-02
RMM:   2    -0.230959923558E+04   -0.38620E-03   -0.40858E-03  5815   0.418E-02    0.313E-02
RMM:   3    -0.230959923867E+04   -0.30827E-05   -0.27263E-04  3192   0.129E-02    0.277E-02
RMM:   4    -0.230959923729E+04    0.13812E-05   -0.35962E-05  2878   0.407E-03
  73 F= -.23299885E+04 E0= -.23299885E+04  d E =-.496443E-03  mag=     4.0000
       N       E                     dE             d eps       ncg     rms          rms(c)
DAV:   1    -0.230959804111E+04    0.11976E-02   -0.25085E-01  4464   0.472E-01    0.129E-01
RMM:   2    -0.230959960514E+04   -0.15640E-02   -0.16585E-02  5716   0.830E-02    0.698E-02
RMM:   3    -0.230959960775E+04   -0.26145E-05   -0.10085E-03  4227   0.261E-02    0.753E-02
RMM:   4    -0.230959957616E+04    0.31594E-04   -0.14927E-04  2987   0.729E-03    0.416E-02
RMM:   5    -0.230959955182E+04    0.24340E-04   -0.66521E-05  3375   0.667E-03    0.168E-02
RMM:   6    -0.230959955039E+04    0.14337E-05   -0.16935E-05  2904   0.541E-03
  74 F= -.23299888E+04 E0= -.23299888E+04  d E =-.341829E-03  mag=     4.0000
       N       E                     dE             d eps       ncg     rms          rms(c)
DAV:   1    -0.230959954301E+04    0.88137E-05   -0.35321E-04  5104   0.182E-02    0.647E-03
RMM:   2    -0.230959954561E+04   -0.26000E-05   -0.28281E-05  2896   0.416E-03
  75 F= -.23299888E+04 E0= -.23299888E+04  d E =-.338166E-03  mag=     4.0000
       N       E                     dE             d eps       ncg     rms          rms(c)
DAV:   1    -0.230959954860E+04   -0.55884E-05   -0.29301E-04  4648   0.162E-02    0.447E-03
RMM:   2    -0.230959955036E+04   -0.17599E-05   -0.18400E-05  2590   0.347E-03
  76 F= -.23299888E+04 E0= -.23299888E+04  d E =-.341926E-03  mag=     4.0000
       N       E                     dE             d eps       ncg     rms          rms(c)
DAV:   1    -0.230959878270E+04    0.76589E-03   -0.16836E-01  4432   0.404E-01    0.113E-01
RMM:   2    -0.230959988353E+04   -0.11008E-02   -0.11718E-02  5707   0.719E-02    0.549E-02
RMM:   3    -0.230959987716E+04    0.63704E-05   -0.73657E-04  4061   0.232E-02    0.354E-02
RMM:   4    -0.230959987765E+04   -0.48694E-06   -0.10656E-04  3039   0.686E-03    0.390E-02
RMM:   5    -0.230959986740E+04    0.10245E-04   -0.35871E-05  2910   0.528E-03    0.221E-02
RMM:   6    -0.230959986330E+04    0.41038E-05   -0.12105E-05  2852   0.413E-03
  77 F= -.23299891E+04 E0= -.23299891E+04  d E =-.253718E-03  mag=     4.0000
       N       E                     dE             d eps       ncg     rms          rms(c)
DAV:   1    -0.230959984849E+04    0.18909E-04   -0.25834E-03  5168   0.503E-02    0.148E-02
RMM:   2    -0.230959986613E+04   -0.17640E-04   -0.18653E-04  3701   0.105E-02    0.748E-03
RMM:   3    -0.230959986676E+04   -0.62663E-06   -0.14856E-05  2727   0.518E-03
  78 F= -.23299890E+04 E0= -.23299890E+04  d E =-.249717E-03  mag=     4.0000
       N       E                     dE             d eps       ncg     rms          rms(c)
DAV:   1    -0.230959909117E+04    0.77496E-03   -0.15223E-01  4448   0.384E-01    0.108E-01
RMM:   2    -0.230960025931E+04   -0.11681E-02   -0.12260E-02  5797   0.690E-02    0.550E-02
RMM:   3    -0.230960026462E+04   -0.53106E-05   -0.71897E-04  3856   0.206E-02    0.361E-02
RMM:   4    -0.230960026713E+04   -0.25122E-05   -0.11466E-04  2962   0.660E-03    0.433E-02
RMM:   5    -0.230960025106E+04    0.16072E-04   -0.34294E-05  2907   0.499E-03    0.188E-02
RMM:   6    -0.230960024821E+04    0.28489E-05   -0.12201E-05  2861   0.408E-03
  79 F= -.23299893E+04 E0= -.23299893E+04  d E =-.286151E-03  mag=     4.0000
       N       E                     dE             d eps       ncg     rms          rms(c)
DAV:   1    -0.230960004510E+04    0.20596E-03   -0.32420E-02  4448   0.177E-01    0.505E-02
RMM:   2    -0.230960029687E+04   -0.25178E-03   -0.26456E-03  5974   0.329E-02    0.251E-02
RMM:   3    -0.230960029815E+04   -0.12767E-05   -0.16176E-04  3022   0.102E-02    0.167E-02
RMM:   4    -0.230960029913E+04   -0.97798E-06   -0.24203E-05  2884   0.348E-03
  80 F= -.23299893E+04 E0= -.23299893E+04  d E =-.292913E-03  mag=     4.0000
       N       E                     dE             d eps       ncg     rms          rms(c)
DAV:   1    -0.230959952614E+04    0.77201E-03   -0.12509E-01  4432   0.331E-01    0.933E-02
RMM:   2    -0.230960054241E+04   -0.10163E-02   -0.10578E-02  5868   0.600E-02    0.542E-02
RMM:   3    -0.230960059285E+04   -0.50440E-04   -0.89803E-04  3542   0.198E-02    0.533E-02
RMM:   4    -0.230960057697E+04    0.15881E-04   -0.10557E-04  2950   0.556E-03    0.355E-02
RMM:   5    -0.230960056226E+04    0.14713E-04   -0.27921E-05  2924   0.422E-03    0.138E-02
RMM:   6    -0.230960056057E+04    0.16932E-05   -0.13503E-05  2883   0.390E-03
  81 F= -.23299896E+04 E0= -.23299896E+04  d E =-.248060E-03  mag=     4.0000
       N       E                     dE             d eps       ncg     rms          rms(c)
DAV:   1    -0.230960019071E+04    0.37155E-03   -0.47034E-02  4448   0.203E-01    0.577E-02
RMM:   2    -0.230960058315E+04   -0.39245E-03   -0.40816E-03  5908   0.373E-02    0.312E-02
RMM:   3    -0.230960059377E+04   -0.10622E-04   -0.28693E-04  3181   0.134E-02    0.278E-02
RMM:   4    -0.230960059040E+04    0.33714E-05   -0.36608E-05  2898   0.371E-03
  82 F= -.23299896E+04 E0= -.23299896E+04  d E =-.269759E-03  mag=     4.0000
       N       E                     dE             d eps       ncg     rms          rms(c)
DAV:   1    -0.230959973378E+04    0.85999E-03   -0.12417E-01  4432   0.340E-01    0.100E-01
RMM:   2    -0.230960087714E+04   -0.11434E-02   -0.11881E-02  5888   0.631E-02    0.584E-02
RMM:   3    -0.230960093056E+04   -0.53423E-04   -0.10096E-03  3670   0.209E-02    0.546E-02
RMM:   4    -0.230960091728E+04    0.13284E-04   -0.12081E-04  2944   0.594E-03    0.392E-02
RMM:   5    -0.230960090201E+04    0.15263E-04   -0.26512E-05  2906   0.435E-03    0.147E-02
[...]
RMM:   3    -0.230961192991E+04   -0.10163E-03   -0.21550E-03  3660   0.231E-02    0.491E-02
RMM:   4    -0.230961193657E+04   -0.66594E-05   -0.27011E-04  3005   0.708E-03    0.537E-02
RMM:   5    -0.230961191521E+04    0.21360E-04   -0.51532E-05  2883   0.472E-03    0.294E-02
RMM:   6    -0.230961190818E+04    0.70296E-05   -0.23761E-05  2928   0.398E-03
 372 F= -.23300045E+04 E0= -.23300045E+04  d E =-.127177E-03  mag=     4.0000
       N       E                     dE             d eps       ncg     rms          rms(c)
DAV:   1    -0.230961176463E+04    0.15057E-03   -0.11622E-02  4496   0.863E-02    0.310E-02
RMM:   2    -0.230961189706E+04   -0.13242E-03   -0.13864E-03  5215   0.185E-02    0.160E-02
RMM:   3    -0.230961190291E+04   -0.58474E-05   -0.10016E-04  2911   0.624E-03    0.942E-03
RMM:   4    -0.230961190291E+04   -0.58499E-08   -0.12097E-05  2811   0.204E-03
 373 F= -.23300045E+04 E0= -.23300045E+04  d E =-.134336E-03  mag=     4.0000
       N       E                     dE             d eps       ncg     rms          rms(c)
DAV:   1    -0.230961168642E+04    0.21649E-03   -0.25483E-02  4464   0.128E-01    0.446E-02
RMM:   2    -0.230961197978E+04   -0.29336E-03   -0.30332E-03  5920   0.268E-02    0.239E-02
RMM:   3    -0.230961198938E+04   -0.96089E-05   -0.19826E-04  2968   0.791E-03    0.188E-02
RMM:   4    -0.230961198937E+04    0.13417E-07   -0.25879E-05  2823   0.261E-03
 374 F= -.23300046E+04 E0= -.23300046E+04  d E =-.725963E-04  mag=     4.0000
       N       E                     dE             d eps       ncg     rms          rms(c)
DAV:   1    -0.230960961113E+04    0.23783E-02   -0.20964E-01  4480   0.367E-01    0.128E-01
RMM:   2    -0.230961203641E+04   -0.24253E-02   -0.25071E-02  6144   0.762E-02    0.702E-02
RMM:   3    -0.230961210743E+04   -0.71012E-04   -0.16386E-03  3509   0.209E-02    0.408E-02
RMM:   4    -0.230961210004E+04    0.73851E-05   -0.19877E-04  2988   0.653E-03    0.265E-02
RMM:   5    -0.230961210481E+04   -0.47675E-05   -0.40218E-05  2899   0.478E-03
 375 F= -.23300047E+04 E0= -.23300047E+04  d E =-.148281E-03  mag=     4.0000
       N       E                     dE             d eps       ncg     rms          rms(c)
DAV:   1    -0.230961148250E+04    0.61754E-03   -0.61257E-02  4496   0.199E-01    0.705E-02
RMM:   2    -0.230961219049E+04   -0.70799E-03   -0.73220E-03  6163   0.427E-02    0.373E-02
RMM:   3    -0.230961222359E+04   -0.33103E-04   -0.55191E-04  3099   0.125E-02    0.240E-02
RMM:   4    -0.230961222616E+04   -0.25692E-05   -0.67345E-05  2886   0.380E-03
 376 F= -.23300048E+04 E0= -.23300048E+04  d E =-.992023E-04  mag=     4.0000
       N       E                     dE             d eps       ncg     rms          rms(c)
DAV:   1    -0.230961097701E+04    0.12466E-02   -0.11258E-01  4480   0.269E-01    0.942E-02
RMM:   2    -0.230961228610E+04   -0.13091E-02   -0.13478E-02  6156   0.559E-02    0.544E-02
RMM:   3    -0.230961232983E+04   -0.43725E-04   -0.90352E-04  3244   0.157E-02    0.446E-02
RMM:   4    -0.230961232940E+04    0.42267E-06   -0.12294E-04  2908   0.498E-03    0.389E-02
RMM:   5    -0.230961231419E+04    0.15211E-04   -0.25243E-05  2897   0.339E-03    0.155E-02
RMM:   6    -0.230961231327E+04    0.91939E-06   -0.11797E-05  2890   0.314E-03
 377 F= -.23300048E+04 E0= -.23300048E+04  d E =-.156540E-03  mag=     4.0000
       N       E                     dE             d eps       ncg     rms          rms(c)
DAV:   1    -0.230960688891E+04    0.54253E-02   -0.45173E-01  4480   0.539E-01    0.189E-01
RMM:   2    -0.230961208503E+04   -0.51961E-02   -0.53714E-02  6087   0.111E-01    0.105E-01
RMM:   3    -0.230961233199E+04   -0.24696E-03   -0.40312E-03  4315   0.343E-02    0.823E-02
RMM:   4    -0.230961232423E+04    0.77631E-05   -0.47155E-04  3085   0.881E-03    0.722E-02
RMM:   5    -0.230961227724E+04    0.46989E-04   -0.72963E-05  2979   0.576E-03    0.282E-02
RMM:   6    -0.230961227171E+04    0.55268E-05   -0.45325E-05  3013   0.530E-03
 378 F= -.23300047E+04 E0= -.23300047E+04  d E =-.560851E-04  mag=     4.0000
       N       E                     dE             d eps       ncg     rms          rms(c)
DAV:   1    -0.230961003483E+04    0.22424E-02   -0.19385E-01  4480   0.353E-01    0.122E-01
RMM:   2    -0.230961227683E+04   -0.22420E-02   -0.23153E-02  6287   0.745E-02    0.669E-02
RMM:   3    -0.230961235458E+04   -0.77751E-04   -0.15535E-03  3529   0.208E-02    0.467E-02
RMM:   4    -0.230961235687E+04   -0.22891E-05   -0.19035E-04  2973   0.622E-03    0.470E-02
RMM:   5    -0.230961233773E+04    0.19141E-04   -0.36444E-05  2891   0.414E-03    0.212E-02
RMM:   6    -0.230961233395E+04    0.37871E-05   -0.19243E-05  2901   0.355E-03
 379 F= -.23300048E+04 E0= -.23300048E+04  d E =-.156693E-03  mag=     4.0000
       N       E                     dE             d eps       ncg     rms          rms(c)
DAV:   1    -0.230961214050E+04    0.19723E-03   -0.15577E-02  4464   0.100E-01    0.359E-02
RMM:   2    -0.230961231963E+04   -0.17913E-03   -0.18669E-03  5466   0.213E-02    0.189E-02
RMM:   3    -0.230961232883E+04   -0.91986E-05   -0.14101E-04  2937   0.698E-03    0.132E-02
RMM:   4    -0.230961232966E+04   -0.83222E-06   -0.17304E-05  2797   0.227E-03
 380 F= -.23300048E+04 E0= -.23300048E+04  d E =-.163437E-03  mag=     4.0000
       N       E                     dE             d eps       ncg     rms          rms(c)
DAV:   1    -0.230961138980E+04    0.93903E-03   -0.91039E-02  4496   0.240E-01    0.858E-02
RMM:   2    -0.230961246018E+04   -0.10704E-02   -0.11088E-02  6164   0.507E-02    0.459E-02
RMM:   3    -0.230961250877E+04   -0.48587E-04   -0.79059E-04  3145   0.142E-02    0.347E-02
RMM:   4    -0.230961250756E+04    0.12101E-05   -0.94362E-05  2928   0.438E-03
 381 F= -.23300050E+04 E0= -.23300050E+04  d E =-.146415E-03  mag=     4.0000
       N       E                     dE             d eps       ncg     rms          rms(c)
DAV:   1    -0.230961010559E+04    0.24032E-02   -0.20625E-01  4480   0.362E-01    0.128E-01
RMM:   2    -0.230961253062E+04   -0.24250E-02   -0.24952E-02  6115   0.746E-02    0.815E-02
RMM:   3    -0.230961266254E+04   -0.13192E-03   -0.20196E-03  3531   0.229E-02    0.776E-02
RMM:   4    -0.230961263090E+04    0.31638E-04   -0.23168E-04  2983   0.675E-03    0.494E-02
RMM:   5    -0.230961260900E+04    0.21900E-04   -0.41687E-05  2951   0.438E-03    0.210E-02
RMM:   6    -0.230961260591E+04    0.30940E-05   -0.22924E-05  2923   0.419E-03
 382 F= -.23300050E+04 E0= -.23300050E+04  d E =-.197575E-03  mag=     4.0000
       N       E                     dE             d eps       ncg     rms          rms(c)
DAV:   1    -0.230961136920E+04    0.12398E-02   -0.11623E-01  4496   0.272E-01    0.965E-02
RMM:   2    -0.230961270406E+04   -0.13349E-02   -0.13802E-02  6021   0.560E-02    0.572E-02
RMM:   3    -0.230961277339E+04   -0.69329E-04   -0.10415E-03  3427   0.189E-02    0.523E-02
RMM:   4    -0.230961276016E+04    0.13233E-04   -0.12401E-04  2945   0.506E-03    0.328E-02
RMM:   5    -0.230961274993E+04    0.10233E-04   -0.20540E-05  2892   0.322E-03    0.141E-02
RMM:   6    -0.230961274864E+04    0.12896E-05   -0.10671E-05  2877   0.284E-03
 383 F= -.23300052E+04 E0= -.23300052E+04  d E =-.138858E-03  mag=     4.0000
       N       E                     dE             d eps       ncg     rms          rms(c)
DAV:   1    -0.230961146022E+04    0.12897E-02   -0.11297E-01  4496   0.268E-01    0.948E-02
RMM:   2    -0.230961275615E+04   -0.12959E-02   -0.13403E-02  6174   0.555E-02    0.544E-02
RMM:   3    -0.230961282055E+04   -0.64396E-04   -0.10070E-03  3253   0.167E-02    0.468E-02
RMM:   4    -0.230961281253E+04    0.80231E-05   -0.11869E-04  2939   0.496E-03    0.341E-02
RMM:   5    -0.230961280181E+04    0.10722E-04   -0.19564E-05  2868   0.312E-03    0.140E-02
RMM:   6    -0.230961280042E+04    0.13873E-05   -0.10709E-05  2884   0.281E-03
 384 F= -.23300052E+04 E0= -.23300052E+04  d E =-.187079E-03  mag=     4.0000
       N       E                     dE             d eps       ncg     rms          rms(c)
DAV:   1    -0.230961128422E+04    0.15176E-02   -0.14941E-01  4496   0.310E-01    0.109E-01
RMM:   2    -0.230961293464E+04   -0.16504E-02   -0.17106E-02  6117   0.636E-02    0.617E-02
RMM:   3    -0.230961301422E+04   -0.79578E-04   -0.12924E-03  3398   0.199E-02    0.517E-02
RMM:   4    -0.230961300572E+04    0.84997E-05   -0.15184E-04  2959   0.565E-03    0.399E-02
RMM:   5    -0.230961299076E+04    0.14959E-04   -0.26317E-05  2893   0.370E-03    0.158E-02
RMM:   6    -0.230961298895E+04    0.18103E-05   -0.14997E-05  2897   0.336E-03
 385 F= -.23300054E+04 E0= -.23300054E+04  d E =-.171014E-03  mag=     4.0000
       N       E                     dE             d eps       ncg     rms          rms(c)
DAV:   1    -0.230961205126E+04    0.93950E-03   -0.84622E-02  4512   0.234E-01    0.820E-02
RMM:   2    -0.230961298718E+04   -0.93592E-03   -0.97051E-03  6116   0.479E-02    0.466E-02
RMM:   3    -0.230961303263E+04   -0.45448E-04   -0.73469E-04  3208   0.154E-02    0.394E-02
RMM:   4    -0.230961302743E+04    0.52010E-05   -0.86769E-05  2921   0.441E-03
 386 F= -.23300054E+04 E0= -.23300054E+04  d E =-.196457E-03  mag=     4.0000
       N       E                     dE             d eps       ncg     rms          rms(c)
DAV:   1    -0.230961107657E+04    0.19561E-02   -0.19393E-01  4496   0.353E-01    0.120E-01
RMM:   2    -0.230961314891E+04   -0.20723E-02   -0.21425E-02  6143   0.713E-02    0.694E-02
RMM:   3    -0.230961321938E+04   -0.70469E-04   -0.15255E-03  3485   0.210E-02    0.475E-02
RMM:   4    -0.230961323011E+04   -0.10731E-04   -0.19102E-04  2977   0.637E-03    0.576E-02
RMM:   5    -0.230961320140E+04    0.28707E-04   -0.38311E-05  2893   0.438E-03    0.193E-02
RMM:   6    -0.230961320018E+04    0.12215E-05   -0.22124E-05  2913   0.385E-03
 387 F= -.23300055E+04 E0= -.23300055E+04  d E =-.136794E-03  mag=     4.0000
       N       E                     dE             d eps       ncg     rms          rms(c)
DAV:   1    -0.230961159415E+04    0.16072E-02   -0.15003E-01  4496   0.311E-01    0.107E-01
RMM:   2    -0.230961318983E+04   -0.15957E-02   -0.16557E-02  6073   0.629E-02    0.592E-02
RMM:   3    -0.230961326144E+04   -0.71615E-04   -0.12261E-03  3506   0.207E-02    0.455E-02
RMM:   4    -0.230961325949E+04    0.19501E-05   -0.14549E-04  2954   0.548E-03    0.408E-02
RMM:   5    -0.230961324434E+04    0.15154E-04   -0.26449E-05  2880   0.367E-03    0.161E-02
RMM:   6    -0.230961324275E+04    0.15918E-05   -0.14798E-05  2894   0.322E-03
 388 F= -.23300055E+04 E0= -.23300055E+04  d E =-.148098E-03  mag=     4.0000
       N       E                     dE             d eps       ncg     rms          rms(c)
DAV:   1    -0.230961171578E+04    0.15286E-02   -0.15233E-01  4496   0.310E-01    0.107E-01
RMM:   2    -0.230961336785E+04   -0.16521E-02   -0.17127E-02  6202   0.632E-02    0.600E-02
RMM:   3    -0.230961344717E+04   -0.79312E-04   -0.12972E-03  3349   0.189E-02    0.471E-02
RMM:   4    -0.230961344399E+04    0.31781E-05   -0.15049E-04  2957   0.552E-03    0.409E-02
RMM:   5    -0.230961342934E+04    0.14648E-04   -0.25404E-05  2888   0.350E-03    0.161E-02
RMM:   6    -0.230961342782E+04    0.15205E-05   -0.14407E-05  2889   0.313E-03
 389 F= -.23300057E+04 E0= -.23300057E+04  d E =-.164733E-03  mag=     4.0000
       N       E                     dE             d eps       ncg     rms          rms(c)
DAV:   1    -0.230960945207E+04    0.39773E-02   -0.36221E-01  4480   0.479E-01    0.165E-01
RMM:   2    -0.230961338168E+04   -0.39296E-02   -0.40716E-02  6162   0.973E-02    0.931E-02
RMM:   3    -0.230961356876E+04   -0.18708E-03   -0.30705E-03  3918   0.292E-02    0.733E-02
RMM:   4    -0.230961355999E+04    0.87663E-05   -0.35497E-04  3034   0.791E-03    0.628E-02
RMM:   5    -0.230961352456E+04    0.35434E-04   -0.59702E-05  2947   0.517E-03    0.246E-02
RMM:   6    -0.230961352019E+04    0.43699E-05   -0.34459E-05  2974   0.474E-03
 390 F= -.23300058E+04 E0= -.23300058E+04  d E =-.226377E-03  mag=     4.0000
       N       E                     dE             d eps       ncg     rms          rms(c)
DAV:   1    -0.230961107661E+04    0.24480E-02   -0.23716E-01  4496   0.390E-01    0.135E-01
RMM:   2    -0.230961367716E+04   -0.26006E-02   -0.26932E-02  6146   0.798E-02    0.793E-02
RMM:   3    -0.230961381426E+04   -0.13711E-03   -0.20697E-03  3741   0.248E-02    0.713E-02
RMM:   4    -0.230961379090E+04    0.23361E-04   -0.23969E-04  2983   0.690E-03    0.470E-02
RMM:   5    -0.230961377044E+04    0.20463E-04   -0.39873E-05  2939   0.437E-03    0.197E-02
RMM:   6    -0.230961376775E+04    0.26873E-05   -0.22239E-05  2926   0.402E-03
 391 F= -.23300060E+04 E0= -.23300060E+04  d E =-.244230E-03  mag=     4.0000
       N       E                     dE             d eps       ncg     rms          rms(c)
DAV:   1    -0.230961022010E+04    0.35503E-02   -0.31956E-01  4480   0.453E-01    0.156E-01
RMM:   2    -0.230961372359E+04   -0.35035E-02   -0.36269E-02  6204   0.926E-02    0.917E-02
RMM:   3    -0.230961390608E+04   -0.18249E-03   -0.27910E-03  3931   0.279E-02    0.814E-02
RMM:   4    -0.230961387664E+04    0.29442E-04   -0.32116E-04  3008   0.780E-03    0.551E-02
RMM:   5    -0.230961384823E+04    0.28404E-04   -0.53152E-05  2949   0.499E-03    0.230E-02
RMM:   6    -0.230961384387E+04    0.43610E-05   -0.30551E-05  2966   0.467E-03
 392 F= -.23300061E+04 E0= -.23300061E+04  d E =-.317161E-03  mag=     4.0000
       N       E                     dE             d eps       ncg     rms          rms(c)
DAV:   1    -0.230961034361E+04    0.35046E-02   -0.33300E-01  4496   0.467E-01    0.159E-01
RMM:   2    -0.230961397429E+04   -0.36307E-02   -0.37541E-02  6180   0.948E-02    0.957E-02
RMM:   3    -0.230961416744E+04   -0.19315E-03   -0.28958E-03  4023   0.287E-02    0.877E-02
RMM:   4    -0.230961412775E+04    0.39686E-04   -0.33260E-04  3018   0.799E-03    0.544E-02
RMM:   5    -0.230961410027E+04    0.27486E-04   -0.56398E-05  2962   0.506E-03    0.233E-02
RMM:   6    -0.230961409648E+04    0.37822E-05   -0.31108E-05  2966   0.473E-03
 393 F= -.23300063E+04 E0= -.23300063E+04  d E =-.260531E-03  mag=     4.0000
       N       E                     dE             d eps       ncg     rms          rms(c)
DAV:   1    -0.230961122696E+04    0.28733E-02   -0.25657E-01  4496   0.410E-01    0.140E-01
RMM:   2    -0.230961402956E+04   -0.28026E-02   -0.28977E-02  6210   0.835E-02    0.847E-02
RMM:   3    -0.230961417964E+04   -0.15008E-03   -0.22444E-03  3794   0.254E-02    0.784E-02
RMM:   4    -0.230961414671E+04    0.32935E-04   -0.25751E-04  2986   0.724E-03    0.475E-02
RMM:   5    -0.230961412556E+04    0.21147E-04   -0.43967E-05  2940   0.453E-03    0.204E-02
RMM:   6    -0.230961412262E+04    0.29405E-05   -0.23818E-05  2939   0.420E-03
 394 F= -.23300064E+04 E0= -.23300064E+04  d E =-.294217E-03  mag=     4.0000
       N       E                     dE             d eps       ncg     rms          rms(c)
DAV:   1    -0.230961089504E+04    0.32305E-02   -0.31854E-01  4496   0.462E-01    0.154E-01
RMM:   2    -0.230961426976E+04   -0.33747E-02   -0.34903E-02  6171   0.925E-02    0.923E-02
RMM:   3    -0.230961444126E+04   -0.17150E-03   -0.26460E-03  3962   0.284E-02    0.835E-02
RMM:   4    -0.230961440596E+04    0.35298E-04   -0.30807E-04  3010   0.782E-03    0.530E-02
RMM:   5    -0.230961437898E+04    0.26980E-04   -0.53353E-05  2968   0.505E-03    0.224E-02
RMM:   6    -0.230961437547E+04    0.35114E-05   -0.28795E-05  2957   0.462E-03
 395 F= -.23300066E+04 E0= -.23300066E+04  d E =-.259703E-03  mag=     4.0000
       N       E                     dE             d eps       ncg     rms          rms(c)
DAV:   1    -0.230961025976E+04    0.41192E-02   -0.38064E-01  4496   0.505E-01    0.169E-01
RMM:   2    -0.230961429105E+04   -0.40313E-02   -0.41691E-02  6174   0.101E-01    0.101E-01
RMM:   3    -0.230961449565E+04   -0.20460E-03   -0.31656E-03  4142   0.311E-02    0.907E-02
RMM:   4    -0.230961445475E+04    0.40900E-04   -0.36692E-04  3043   0.839E-03    0.582E-02
RMM:   5    -0.230961442205E+04    0.32697E-04   -0.64345E-05  2986   0.544E-03    0.245E-02
RMM:   6    -0.230961441750E+04    0.45548E-05   -0.34454E-05  2980   0.504E-03
 396 F= -.23300067E+04 E0= -.23300067E+04  d E =-.310142E-03  mag=     4.0000
       N       E                     dE             d eps       ncg     rms          rms(c)
DAV:   1    -0.230960998890E+04    0.44332E-02   -0.44110E-01  4496   0.545E-01    0.180E-01
RMM:   2    -0.230961455188E+04   -0.45630E-02   -0.47215E-02  6174   0.109E-01    0.108E-01
RMM:   3    -0.230961478087E+04   -0.22899E-03   -0.36083E-03  4354   0.332E-02    0.964E-02
RMM:   4    -0.230961473498E+04    0.45889E-04   -0.41486E-04  3078   0.887E-03    0.628E-02
RMM:   5    -0.230961469644E+04    0.38545E-04   -0.74058E-05  3020   0.588E-03    0.262E-02
RMM:   6    -0.230961469117E+04    0.52636E-05   -0.40585E-05  2997   0.545E-03
 397 F= -.23300070E+04 E0= -.23300070E+04  d E =-.286496E-03  mag=     4.0000
       N       E                     dE             d eps       ncg     rms          rms(c)
DAV:   1    -0.230961279951E+04    0.18969E-02   -0.17826E-01  4512   0.346E-01    0.115E-01
RMM:   2    -0.230961464775E+04   -0.18482E-02   -0.19125E-02  6228   0.699E-02    0.701E-02
RMM:   3    -0.230961474455E+04   -0.96799E-04   -0.14757E-03  3545   0.210E-02    0.650E-02
RMM:   4    -0.230961472120E+04    0.23348E-04   -0.17002E-04  2959   0.620E-03    0.390E-02
RMM:   5    -0.230961470623E+04    0.14969E-04   -0.30759E-05  2921   0.391E-03    0.167E-02
RMM:   6    -0.230961470412E+04    0.21168E-05   -0.16409E-05  2905   0.360E-03
 398 F= -.23300070E+04 E0= -.23300070E+04  d E =-.308168E-03  mag=     4.0000
       N       E                     dE             d eps       ncg     rms          rms(c)
DAV:   1    -0.230961143522E+04    0.32710E-02   -0.33954E-01  4496   0.483E-01    0.160E-01
RMM:   2    -0.230961490652E+04   -0.34713E-02   -0.36020E-02  6152   0.966E-02    0.937E-02
RMM:   3    -0.230961507411E+04   -0.16760E-03   -0.27416E-03  4066   0.295E-02    0.816E-02
RMM:   4    -0.230961504481E+04    0.29297E-04   -0.31855E-04  3029   0.812E-03    0.570E-02
RMM:   5    -0.230961501275E+04    0.32068E-04   -0.60584E-05  2985   0.553E-03    0.230E-02
RMM:   6    -0.230961500826E+04    0.44880E-05   -0.31506E-05  2972   0.513E-03
 399 F= -.23300073E+04 E0= -.23300073E+04  d E =-.300169E-03  mag=     4.0000
       N       E                     dE             d eps       ncg     rms          rms(c)
DAV:   1    -0.230961311263E+04    0.19001E-02   -0.18055E-01  4512   0.353E-01    0.117E-01
RMM:   2    -0.230961495979E+04   -0.18472E-02   -0.19173E-02  6177   0.709E-02    0.695E-02
RMM:   3    -0.230961505247E+04   -0.92674E-04   -0.14727E-03  3640   0.221E-02    0.625E-02
RMM:   4    -0.230961503328E+04    0.19188E-04   -0.17170E-04  2964   0.633E-03    0.409E-02
RMM:   5    -0.230961501661E+04    0.16674E-04   -0.32998E-05  2913   0.419E-03    0.168E-02
RMM:   6    -0.230961501415E+04    0.24547E-05   -0.17046E-05  2906   0.387E-03
 400 F= -.23300073E+04 E0= -.23300073E+04  d E =-.303572E-03  mag=     4.0000
       N       E                     dE             d eps       ncg     rms          rms(c)
DAV:   1    -0.230961239265E+04    0.26240E-02   -0.26996E-01  4496   0.427E-01    0.138E-01
RMM:   2    -0.230961513842E+04   -0.27458E-02   -0.28446E-02  6216   0.848E-02    0.832E-02
RMM:   3    -0.230961530060E+04   -0.16217E-03   -0.23758E-03  3773   0.263E-02    0.734E-02
RMM:   4    -0.230961527662E+04    0.23978E-04   -0.26407E-04  3004   0.727E-03    0.487E-02
RMM:   5    -0.230961525382E+04    0.22798E-04   -0.43843E-05  2949   0.461E-03    0.207E-02
RMM:   6    -0.230961525067E+04    0.31560E-05   -0.24213E-05  2932   0.425E-03
 401 F= -.23300075E+04 E0= -.23300075E+04  d E =-.212956E-03  mag=     4.0000
