       N       E                     dE             d eps       ncg     rms          rms(c)
DAV:   1     0.121256200765E+05    0.12126E+05   -0.83118E+05  4640   0.140E+03
DAV:   2    -0.128673004531E+04   -0.13412E+05   -0.12910E+05  5200   0.318E+02
DAV:   3    -0.248431949127E+04   -0.11976E+04   -0.11884E+04  5440   0.101E+02
DAV:   4    -0.250944987396E+04   -0.25130E+02   -0.25016E+02  5760   0.174E+01
DAV:   5    -0.251007584263E+04   -0.62597E+00   -0.62495E+00  5760   0.245E+00    0.170E+02
RMM:   6    -0.147953532333E+04    0.10305E+04   -0.18783E+03  4499   0.375E+01    0.749E+01
RMM:   7    -0.165181254440E+04   -0.17228E+03   -0.32046E+02  5069   0.139E+01    0.590E+01
RMM:   8    -0.167984065878E+04   -0.28028E+02   -0.70507E+01  5295   0.783E+00    0.385E+01
RMM:   9    -0.178184474604E+04   -0.10200E+03   -0.54035E+01  5026   0.636E+00    0.369E+01
RMM:  10    -0.189509374706E+04   -0.11325E+03   -0.55574E+01  5370   0.686E+00    0.294E+01
RMM:  11    -0.197025885479E+04   -0.75165E+02   -0.30560E+01  5495   0.474E+00    0.180E+01
RMM:  12    -0.207191345646E+04   -0.10165E+03   -0.44699E+01  4701   0.504E+00    0.133E+01
RMM:  13    -0.218825778899E+04   -0.11634E+03   -0.82929E+01  4699   0.643E+00    0.135E+01
RMM:  14    -0.225945701335E+04   -0.71199E+02   -0.59024E+01  4730   0.537E+00    0.883E+00
RMM:  15    -0.228511376525E+04   -0.25657E+02   -0.22647E+01  4811   0.365E+00    0.521E+00
RMM:  16    -0.229413630713E+04   -0.90225E+01   -0.89409E+00  4823   0.211E+00    0.271E+00
RMM:  17    -0.229752473192E+04   -0.33884E+01   -0.24093E+00  5012   0.127E+00    0.168E+00
RMM:  18    -0.229855035735E+04   -0.10256E+01   -0.57487E-01  5096   0.564E-01    0.113E+00
RMM:  19    -0.229895275920E+04   -0.40240E+00   -0.15382E-01  5004   0.280E-01    0.605E-01
RMM:  20    -0.229910966791E+04   -0.15691E+00   -0.56761E-02  4734   0.175E-01    0.549E-01
RMM:  21    -0.229914349073E+04   -0.33823E-01   -0.17917E-02  4731   0.111E-01    0.272E-01
RMM:  22    -0.229919016702E+04   -0.46676E-01   -0.22633E-02  4518   0.118E-01    0.199E-01
RMM:  23    -0.229919672926E+04   -0.65622E-02   -0.44940E-03  4535   0.794E-02    0.115E-01
RMM:  24    -0.229920523280E+04   -0.85035E-02   -0.25625E-03  4516   0.390E-02    0.619E-02
RMM:  25    -0.229921390066E+04   -0.86679E-02   -0.23686E-03  4487   0.415E-02    0.391E-02
RMM:  26    -0.229921830791E+04   -0.44073E-02   -0.13629E-03  4556   0.314E-02    0.301E-02
RMM:  27    -0.229922115964E+04   -0.28517E-02   -0.10751E-03  4253   0.245E-02    0.159E-02
RMM:  28    -0.229922181922E+04   -0.65958E-03   -0.33083E-04  4001   0.187E-02    0.876E-03
RMM:  29    -0.229922207289E+04   -0.25367E-03   -0.13474E-04  3725   0.931E-03    0.529E-03
RMM:  30    -0.229922220275E+04   -0.12986E-03   -0.43390E-05  3537   0.728E-03    0.318E-03
RMM:  31    -0.229922225812E+04   -0.55371E-04   -0.19074E-05  3186   0.380E-03    0.265E-03
RMM:  32    -0.229922228775E+04   -0.29632E-04   -0.78233E-06  2912   0.312E-03    0.139E-03
RMM:  33    -0.229922229586E+04   -0.81123E-05   -0.42504E-06  2508   0.223E-03
   1 F= -.23195020E+04 E0= -.23194989E+04  d E =-.630894E-02  mag=     3.9165
       N       E                     dE             d eps       ncg     rms          rms(c)
DAV:   1    -0.229922461231E+04   -0.23246E-02   -0.19086E+00  4480   0.534E-01    0.411E-01
RMM:   2    -0.229922701511E+04   -0.24028E-02   -0.15366E-02  4554   0.452E-02    0.294E-01
RMM:   3    -0.229922643738E+04    0.57773E-03   -0.28857E-03  4663   0.287E-02    0.241E-01
RMM:   4    -0.229922627734E+04    0.16004E-03   -0.11579E-03  4285   0.153E-02    0.240E-01
RMM:   5    -0.229922595350E+04    0.32383E-03   -0.84042E-04  4545   0.131E-02    0.138E-01
RMM:   6    -0.229922594194E+04    0.11565E-04   -0.20058E-04  3622   0.804E-03    0.433E-02
RMM:   7    -0.229922607765E+04   -0.13571E-03   -0.47670E-05  2957   0.443E-03    0.203E-02
RMM:   8    -0.229922616645E+04   -0.88800E-04   -0.17907E-05  2852   0.312E-03    0.129E-02
RMM:   9    -0.229922620236E+04   -0.35917E-04   -0.72550E-06  2673   0.229E-03    0.927E-03
RMM:  10    -0.229922622847E+04   -0.26110E-04   -0.46934E-06  2611   0.181E-03    0.530E-03
RMM:  11    -0.229922625255E+04   -0.24074E-04   -0.40343E-06  2688   0.175E-03    0.387E-03
RMM:  12    -0.229922626338E+04   -0.10835E-04   -0.20176E-06  2570   0.154E-03    0.224E-03
RMM:  13    -0.229922626950E+04   -0.61163E-05   -0.14907E-06  2440   0.128E-03
   2 F= -.23195051E+04 E0= -.23195045E+04  d E =-.113815E-02  mag=     3.9875
       N       E                     dE             d eps       ncg     rms          rms(c)
DAV:   1    -0.229920149894E+04    0.24764E-01   -0.77098E+00  4480   0.105E+00    0.831E-01
RMM:   2    -0.229921356465E+04   -0.12066E-01   -0.60362E-02  4581   0.917E-02    0.122E+00
RMM:   3    -0.229921035947E+04    0.32052E-02   -0.53425E-03  4492   0.471E-02    0.104E+00
RMM:   4    -0.229921348473E+04   -0.31253E-02   -0.77200E-03  4628   0.355E-02    0.179E+00
RMM:   5    -0.229921019534E+04    0.32894E-02   -0.88165E-03  4597   0.455E-02    0.799E-01
RMM:   6    -0.229920862217E+04    0.15732E-02   -0.71523E-03  5518   0.373E-02    0.693E-01
RMM:   7    -0.229920661570E+04    0.20065E-02   -0.32545E-03  4819   0.293E-02    0.396E-01
RMM:   8    -0.229920616600E+04    0.44970E-03   -0.21324E-03  4309   0.188E-02    0.380E-01
RMM:   9    -0.229920489221E+04    0.12738E-02   -0.11858E-03  3956   0.169E-02    0.429E-01
RMM:  10    -0.229920453609E+04    0.35612E-03   -0.30152E-04  3590   0.872E-03    0.454E-01
RMM:  11    -0.229920538272E+04   -0.84663E-03   -0.17452E-04  3246   0.674E-03    0.422E-01
RMM:  12    -0.229920795489E+04   -0.25722E-02   -0.41706E-03  4451   0.261E-02    0.436E-01
RMM:  13    -0.229920924585E+04   -0.12910E-02   -0.16382E-03  4065   0.180E-02    0.573E-01
RMM:  14    -0.229920665802E+04    0.25878E-02   -0.26507E-03  4153   0.223E-02    0.354E-01
RMM:  15    -0.229920465272E+04    0.20053E-02   -0.26811E-03  4193   0.216E-02    0.432E-01
RMM:  16    -0.229920266577E+04    0.19869E-02   -0.19676E-03  4407   0.180E-02    0.580E-01
RMM:  17    -0.229920284512E+04   -0.17934E-03   -0.12113E-04  3133   0.614E-03    0.569E-01
RMM:  18    -0.229920294127E+04   -0.96149E-04   -0.91878E-06  2841   0.283E-03    0.558E-01
RMM:  19    -0.229920355382E+04   -0.61255E-03   -0.17055E-04  3262   0.590E-03    0.488E-01
RMM:  20    -0.229920507579E+04   -0.15220E-02   -0.13827E-03  4454   0.153E-02    0.331E-01
RMM:  21    -0.229920665025E+04   -0.15745E-02   -0.21077E-03  4280   0.182E-02    0.246E-01
RMM:  22    -0.229920792624E+04   -0.12760E-02   -0.14827E-03  4330   0.153E-02    0.276E-01
RMM:  23    -0.229920881914E+04   -0.89290E-03   -0.67374E-04  3822   0.109E-02    0.336E-01
RMM:  24    -0.229920865228E+04    0.16686E-03   -0.47982E-05  2992   0.542E-03    0.320E-01
RMM:  25    -0.229920810018E+04    0.55210E-03   -0.12415E-04  3103   0.544E-03    0.286E-01
RMM:  26    -0.229920740702E+04    0.69316E-03   -0.32376E-04  3586   0.749E-03    0.263E-01
RMM:  27    -0.229920547194E+04    0.19351E-02   -0.26567E-03  4407   0.206E-02    0.315E-01
RMM:  28    -0.229920386872E+04    0.16032E-02   -0.19319E-03  4186   0.178E-02    0.438E-01
RMM:  29    -0.229920353053E+04    0.33819E-03   -0.32905E-04  3372   0.735E-03    0.468E-01
RMM:  30    -0.229920266362E+04    0.86690E-03   -0.26082E-04  3493   0.677E-03    0.537E-01
RMM:  31    -0.229920266123E+04    0.23870E-05   -0.21348E-05  2789   0.348E-03
   3 F= -.23194834E+04 E0= -.23194822E+04  d E =-.233063E-02  mag=     4.1675
       N       E                     dE             d eps       ncg     rms          rms(c)
DAV:   1    -0.229922185704E+04   -0.19193E-01   -0.35930E+00  4640   0.705E-01    0.629E-01
RMM:   2    -0.229922610936E+04   -0.42523E-02   -0.25037E-02  4872   0.650E-02    0.379E-01
RMM:   3    -0.229922525706E+04    0.85230E-03   -0.43936E-03  4910   0.376E-02    0.292E-01
RMM:   4    -0.229922458409E+04    0.67297E-03   -0.15246E-03  4609   0.182E-02    0.202E-01
RMM:   5    -0.229922506554E+04   -0.48145E-03   -0.14967E-03  4235   0.193E-02    0.256E-01
RMM:   6    -0.229922487809E+04    0.18745E-03   -0.61598E-04  4376   0.125E-02    0.920E-02
RMM:   7    -0.229922541647E+04   -0.53839E-03   -0.20587E-04  3796   0.795E-03    0.440E-02
RMM:   8    -0.229922583433E+04   -0.41786E-03   -0.50198E-05  3178   0.523E-03    0.302E-02
RMM:   9    -0.229922624951E+04   -0.41517E-03   -0.55145E-05  3346   0.480E-03    0.249E-02
RMM:  10    -0.229922652602E+04   -0.27651E-03   -0.35098E-05  3112   0.466E-03    0.160E-02
RMM:  11    -0.229922679381E+04   -0.26779E-03   -0.51825E-05  3358   0.469E-03    0.105E-02
RMM:  12    -0.229922691089E+04   -0.11708E-03   -0.26044E-05  3033   0.425E-03    0.620E-03
RMM:  13    -0.229922694784E+04   -0.36949E-04   -0.11315E-05  2807   0.322E-03    0.304E-03
RMM:  14    -0.229922696276E+04   -0.14921E-04   -0.43470E-06  2637   0.248E-03    0.179E-03
RMM:  15    -0.229922696926E+04   -0.64987E-05   -0.22092E-06  2587   0.180E-03
   4 F= -.23195080E+04 E0= -.23195049E+04  d E =-.627093E-02  mag=     3.9180
       N       E                     dE             d eps       ncg     rms          rms(c)
DAV:   1    -0.229921787068E+04    0.90921E-02   -0.66781E+00  4480   0.970E-01    0.560E-01
RMM:   2    -0.229922228593E+04   -0.44153E-02   -0.33803E-02  5126   0.720E-02    0.596E-01
RMM:   3    -0.229921903496E+04    0.32510E-02   -0.68235E-03  4985   0.426E-02    0.288E-01
RMM:   4    -0.229921968970E+04   -0.65474E-03   -0.29980E-03  4961   0.236E-02    0.367E-01
RMM:   5    -0.229921860439E+04    0.10853E-02   -0.10677E-03  4678   0.155E-02    0.102E-01
RMM:   6    -0.229921860594E+04   -0.15491E-05   -0.17322E-04  3299   0.720E-03    0.362E-02
RMM:   7    -0.229921860536E+04    0.58555E-06   -0.29976E-05  2939   0.406E-03
   5 F= -.23194971E+04 E0= -.23194939E+04  d E =-.628272E-02  mag=     3.9146
       N       E                     dE             d eps       ncg     rms          rms(c)
DAV:   1    -0.229922562829E+04   -0.70224E-02   -0.36099E+00  4480   0.659E-01    0.373E-01
RMM:   2    -0.229922823124E+04   -0.26030E-02   -0.14873E-02  4274   0.448E-02    0.493E-01
RMM:   3    -0.229922678259E+04    0.14487E-02   -0.24975E-03  4913   0.225E-02    0.271E-01
RMM:   4    -0.229922698878E+04   -0.20619E-03   -0.12791E-03  4615   0.158E-02    0.257E-01
RMM:   5    -0.229922709779E+04   -0.10901E-03   -0.79754E-04  4149   0.125E-02    0.398E-01
RMM:   6    -0.229922702700E+04    0.70789E-04   -0.45267E-04  3919   0.117E-02    0.326E-01
RMM:   7    -0.229922642018E+04    0.60683E-03   -0.11911E-03  4273   0.149E-02    0.182E-01
RMM:   8    -0.229922592480E+04    0.49538E-03   -0.11375E-03  4242   0.156E-02    0.185E-01
RMM:   9    -0.229922546517E+04    0.45963E-03   -0.66273E-04  3921   0.110E-02    0.218E-01
RMM:  10    -0.229922618635E+04   -0.72118E-03   -0.62242E-04  3901   0.111E-02    0.183E-01
RMM:  11    -0.229922652609E+04   -0.33974E-03   -0.63843E-04  3880   0.114E-02    0.172E-01
RMM:  12    -0.229922736276E+04   -0.83668E-03   -0.18730E-03  4335   0.170E-02    0.299E-01
RMM:  13    -0.229922631387E+04    0.10489E-02   -0.19118E-03  4208   0.198E-02    0.147E-01
RMM:  14    -0.229922577881E+04    0.53507E-03   -0.11600E-03  3942   0.148E-02    0.184E-01
RMM:  15    -0.229922537000E+04    0.40881E-03   -0.63669E-04  3895   0.105E-02    0.232E-01
RMM:  16    -0.229922532851E+04    0.41487E-04   -0.68047E-05  2995   0.495E-03    0.239E-01
RMM:  17    -0.229922532667E+04    0.18345E-05   -0.55648E-06  2764   0.234E-03
   6 F= -.23195034E+04 E0= -.23195010E+04  d E =-.478145E-02  mag=     4.0188
       N       E                     dE             d eps       ncg     rms          rms(c)
DAV:   1    -0.229921122813E+04    0.14100E-01   -0.71765E+00  4480   0.103E+00    0.717E-01
RMM:   2    -0.229921893692E+04   -0.77088E-02   -0.46237E-02  4505   0.749E-02    0.802E-01
RMM:   3    -0.229921500269E+04    0.39342E-02   -0.10296E-02  5220   0.468E-02    0.483E-01
RMM:   4    -0.229921356248E+04    0.14402E-02   -0.40361E-03  4988   0.301E-02    0.317E-01
RMM:   5    -0.229921299149E+04    0.57098E-03   -0.16947E-03  4985   0.181E-02    0.149E-01
RMM:   6    -0.229921315543E+04   -0.16394E-03   -0.59063E-04  4241   0.118E-02    0.851E-02
RMM:   7    -0.229921332375E+04   -0.16831E-03   -0.18651E-04  3813   0.744E-03    0.493E-02
RMM:   8    -0.229921339275E+04   -0.69003E-04   -0.48230E-05  3080   0.473E-03    0.206E-02
RMM:   9    -0.229921339853E+04   -0.57779E-05   -0.97308E-06  2856   0.306E-03
   7 F= -.23194949E+04 E0= -.23194936E+04  d E =-.264221E-02  mag=     3.9825
       N       E                     dE             d eps       ncg     rms          rms(c)
DAV:   1    -0.229920807160E+04    0.53212E-02   -0.65988E+00  4480   0.120E+00    0.536E-01
RMM:   2    -0.229921265871E+04   -0.45871E-02   -0.43961E-02  4409   0.812E-02    0.320E-01
RMM:   3    -0.229921265462E+04    0.40899E-05   -0.44394E-03  4630   0.399E-02    0.348E-01
RMM:   4    -0.229921213923E+04    0.51539E-03   -0.17718E-03  4735   0.201E-02    0.258E-01
RMM:   5    -0.229921185117E+04    0.28806E-03   -0.10499E-03  4794   0.150E-02    0.116E-01
RMM:   6    -0.229921177609E+04    0.75077E-04   -0.23671E-04  3683   0.793E-03    0.552E-02
RMM:   7    -0.229921174957E+04    0.26515E-04   -0.50111E-05  3055   0.457E-03    0.169E-02
RMM:   8    -0.229921175025E+04   -0.67079E-06   -0.94690E-06  2872   0.257E-03
   8 F= -.23194925E+04 E0= -.23194905E+04  d E =-.399775E-02  mag=     3.9611
       N       E                     dE             d eps       ncg     rms          rms(c)
DAV:   1    -0.229921417676E+04   -0.24272E-02   -0.19725E+01  4480   0.211E+00    0.720E-01
RMM:   2    -0.229922152707E+04   -0.73503E-02   -0.79677E-02  4369   0.119E-01    0.468E-01
RMM:   3    -0.229922271796E+04   -0.11909E-02   -0.80864E-03  5802   0.498E-02    0.623E-01
RMM:   4    -0.229921987007E+04    0.28479E-02   -0.32390E-03  5144   0.270E-02    0.218E-01
RMM:   5    -0.229921963226E+04    0.23781E-03   -0.12734E-03  4363   0.172E-02    0.110E-01
RMM:   6    -0.229921960835E+04    0.23914E-04   -0.44407E-04  4280   0.123E-02    0.986E-02
RMM:   7    -0.229921960343E+04    0.49229E-05   -0.82095E-05  3134   0.507E-03
   9 F= -.23194983E+04 E0= -.23194924E+04  d E =-.119237E-01  mag=     3.9091
       N       E                     dE             d eps       ncg     rms          rms(c)
DAV:   1    -0.229920261403E+04    0.16994E-01   -0.10077E+01  4480   0.148E+00    0.441E-01
RMM:   2    -0.229920624019E+04   -0.36262E-02   -0.36273E-02  4204   0.759E-02    0.280E-01
RMM:   3    -0.229920616701E+04    0.73180E-04   -0.22863E-03  4990   0.301E-02    0.410E-01
RMM:   4    -0.229920601079E+04    0.15622E-03   -0.25699E-04  3357   0.843E-03    0.411E-01
RMM:   5    -0.229920603270E+04   -0.21910E-04   -0.25312E-04  3449   0.819E-03    0.349E-01
RMM:   6    -0.229920602131E+04    0.11384E-04   -0.12917E-03  3992   0.154E-02    0.188E-01
RMM:   7    -0.229920600641E+04    0.14903E-04   -0.10174E-03  4352   0.158E-02    0.120E-01
RMM:   8    -0.229920591886E+04    0.87547E-04   -0.49901E-04  3964   0.106E-02    0.115E-01
RMM:   9    -0.229920570929E+04    0.20958E-03   -0.30429E-04  3730   0.846E-03    0.133E-01
RMM:  10    -0.229920574017E+04   -0.30886E-04   -0.26722E-05  2931   0.446E-03    0.131E-01
RMM:  11    -0.229920573871E+04    0.14606E-05   -0.21783E-05  2912   0.320E-03
  10 F= -.23194839E+04 E0= -.23194805E+04  d E =-.685421E-02  mag=     3.9064
       N       E                     dE             d eps       ncg     rms          rms(c)
DAV:   1    -0.229921863504E+04   -0.12895E-01   -0.19679E+01  4480   0.220E+00    0.740E-01
RMM:   2    -0.229922930161E+04   -0.10667E-01   -0.11933E-01  4464   0.151E-01    0.470E-01
RMM:   3    -0.229922840883E+04    0.89278E-03   -0.10045E-02  4841   0.689E-02    0.361E-01
RMM:   4    -0.229922823132E+04    0.17750E-03   -0.40221E-03  5389   0.286E-02    0.395E-01
RMM:   5    -0.229922712494E+04    0.11064E-02   -0.15195E-03  5107   0.189E-02    0.152E-01
RMM:   6    -0.229922699495E+04    0.12999E-03   -0.43945E-04  4269   0.112E-02    0.471E-02
RMM:   7    -0.229922700813E+04   -0.13187E-04   -0.55435E-05  3057   0.522E-03    0.278E-02
RMM:   8    -0.229922702276E+04   -0.14621E-04   -0.21697E-05  2982   0.374E-03    0.134E-02
RMM:   9    -0.229922703149E+04   -0.87398E-05   -0.63182E-06  2900   0.291E-03
  11 F= -.23195083E+04 E0= -.23195067E+04  d E =-.321659E-02  mag=     3.9488
       N       E                     dE             d eps       ncg     rms          rms(c)
DAV:   1    -0.229920946049E+04    0.17562E-01   -0.99821E+00  4480   0.146E+00    0.501E-01
RMM:   2    -0.229921438020E+04   -0.49197E-02   -0.43543E-02  4427   0.799E-02    0.282E-01
RMM:   3    -0.229921386816E+04    0.51204E-03   -0.32432E-03  4922   0.346E-02    0.209E-01
RMM:   4    -0.229921365726E+04    0.21090E-03   -0.99171E-04  4509   0.158E-02    0.149E-01
RMM:   5    -0.229921373038E+04   -0.73117E-04   -0.66782E-04  4290   0.125E-02    0.170E-01
RMM:   6    -0.229921352494E+04    0.20544E-03   -0.21952E-04  3578   0.828E-03    0.445E-02
RMM:   7    -0.229921353272E+04   -0.77811E-05   -0.32792E-05  2908   0.382E-03
  12 F= -.23194958E+04 E0= -.23194928E+04  d E =-.587132E-02  mag=     3.9352
       N       E                     dE             d eps       ncg     rms          rms(c)
DAV:   1    -0.229922943086E+04   -0.15906E-01   -0.19791E+01  4480   0.211E+00    0.726E-01
RMM:   2    -0.229924132833E+04   -0.11897E-01   -0.10361E-01  4861   0.129E-01    0.667E-01
RMM:   3    -0.229923728444E+04    0.40439E-02   -0.11182E-02  4991   0.706E-02    0.287E-01
RMM:   4    -0.229923775788E+04   -0.47344E-03   -0.30074E-03  5121   0.277E-02    0.388E-01
RMM:   5    -0.229923678500E+04    0.97288E-03   -0.16995E-03  4611   0.201E-02    0.174E-01
RMM:   6    -0.229923664582E+04    0.13918E-03   -0.35986E-04  3972   0.105E-02    0.453E-02
RMM:   7    -0.229923664791E+04   -0.20819E-05   -0.48882E-05  3002   0.567E-03
  13 F= -.23195140E+04 E0= -.23195107E+04  d E =-.648282E-02  mag=     3.9176
