       N       E                     dE             d eps       ncg     rms          rms(c)
DAV:   1     0.129839573820E+05    0.12984E+05   -0.83497E+05  4456   0.144E+03
DAV:   2    -0.103182385269E+04   -0.14016E+05   -0.13408E+05  5096   0.331E+02
DAV:   3    -0.247121069850E+04   -0.14394E+04   -0.14239E+04  5384   0.113E+02
DAV:   4    -0.251609553715E+04   -0.44885E+02   -0.44631E+02  6736   0.294E+01
DAV:   5    -0.251688271490E+04   -0.78718E+00   -0.78573E+00  5944   0.337E+00    0.170E+02
RMM:   6    -0.149112159492E+04    0.10258E+04   -0.19146E+03  4428   0.383E+01    0.722E+01
RMM:   7    -0.166326569986E+04   -0.17214E+03   -0.28764E+02  4976   0.139E+01    0.522E+01
RMM:   8    -0.171335279586E+04   -0.50087E+02   -0.75515E+01  5186   0.809E+00    0.431E+01
RMM:   9    -0.178225899408E+04   -0.68906E+02   -0.61845E+01  4901   0.739E+00    0.336E+01
RMM:  10    -0.188988850767E+04   -0.10763E+03   -0.59029E+01  5219   0.711E+00    0.321E+01
RMM:  11    -0.196771941803E+04   -0.77831E+02   -0.33651E+01  5138   0.509E+00    0.186E+01
RMM:  12    -0.206137124762E+04   -0.93652E+02   -0.38895E+01  4648   0.479E+00    0.155E+01
RMM:  13    -0.213149441674E+04   -0.70123E+02   -0.36935E+01  4649   0.442E+00    0.119E+01
RMM:  14    -0.223659427775E+04   -0.10510E+03   -0.80524E+01  4449   0.658E+00    0.896E+00
RMM:  15    -0.228309467180E+04   -0.46500E+02   -0.39662E+01  4421   0.479E+00    0.696E+00
RMM:  16    -0.230165506921E+04   -0.18560E+02   -0.19126E+01  4643   0.318E+00    0.434E+00
RMM:  17    -0.230613137392E+04   -0.44763E+01   -0.44383E+00  4928   0.173E+00    0.179E+00
RMM:  18    -0.230785283329E+04   -0.17215E+01   -0.11591E+00  5043   0.746E-01    0.113E+00
RMM:  19    -0.230825987383E+04   -0.40704E+00   -0.36459E-01  4959   0.395E-01    0.632E-01
RMM:  20    -0.230839518409E+04   -0.13531E+00   -0.14217E-01  4772   0.218E-01    0.356E-01
RMM:  21    -0.230843052016E+04   -0.35336E-01   -0.37087E-02  4639   0.131E-01    0.253E-01
RMM:  22    -0.230845924632E+04   -0.28726E-01   -0.13959E-02  4526   0.902E-02    0.131E-01
RMM:  23    -0.230847809054E+04   -0.18844E-01   -0.78940E-03  4482   0.706E-02    0.999E-02
RMM:  24    -0.230849130694E+04   -0.13216E-01   -0.46098E-03  4455   0.548E-02    0.569E-02
RMM:  25    -0.230849653650E+04   -0.52296E-02   -0.18588E-03  4622   0.392E-02    0.461E-02
RMM:  26    -0.230849989816E+04   -0.33617E-02   -0.10339E-03  4165   0.244E-02    0.254E-02
RMM:  27    -0.230850156001E+04   -0.16619E-02   -0.50152E-04  4085   0.197E-02    0.142E-02
RMM:  28    -0.230850220128E+04   -0.64127E-03   -0.22066E-04  3883   0.122E-02    0.913E-03
RMM:  29    -0.230850240656E+04   -0.20528E-03   -0.58949E-05  3518   0.815E-03    0.571E-03
RMM:  30    -0.230850250960E+04   -0.10304E-03   -0.26266E-05  3116   0.453E-03    0.303E-03
RMM:  31    -0.230850256786E+04   -0.58265E-04   -0.14806E-05  2918   0.413E-03    0.175E-03
RMM:  32    -0.230850258268E+04   -0.14819E-04   -0.67388E-06  2825   0.297E-03    0.127E-03
RMM:  33    -0.230850258715E+04   -0.44687E-05   -0.30090E-06  2402   0.202E-03
   1 F= -.23292591E+04 E0= -.23292591E+04  d E =-.232926E+04  mag=     5.9999
       N       E                     dE             d eps       ncg     rms          rms(c)
DAV:   1    -0.230797688417E+04    0.52570E+00   -0.78308E+01  4768   0.420E+00    0.241E+00
RMM:   2    -0.230835195039E+04   -0.37507E+00   -0.47337E+00  5998   0.926E-01    0.229E+00
RMM:   3    -0.230831850078E+04    0.33450E-01   -0.39532E-01  5707   0.296E-01    0.168E+00
RMM:   4    -0.230829777463E+04    0.20726E-01   -0.11954E-01  5899   0.131E-01    0.145E+00
RMM:   5    -0.230826302697E+04    0.34748E-01   -0.40103E-02  5298   0.884E-02    0.583E-01
RMM:   6    -0.230826492952E+04   -0.19025E-02   -0.19123E-02  5190   0.647E-02    0.661E-01
RMM:   7    -0.230826187968E+04    0.30498E-02   -0.51158E-03  5064   0.328E-02    0.170E-01
RMM:   8    -0.230826339110E+04   -0.15114E-02   -0.12037E-03  4164   0.183E-02    0.121E-01
RMM:   9    -0.230826500006E+04   -0.16090E-02   -0.73835E-04  4127   0.163E-02    0.521E-02
RMM:  10    -0.230826612549E+04   -0.11254E-02   -0.38073E-04  3896   0.126E-02    0.285E-02
RMM:  11    -0.230826679411E+04   -0.66861E-03   -0.22358E-04  3784   0.889E-03    0.156E-02
RMM:  12    -0.230826709910E+04   -0.30500E-03   -0.11437E-04  3599   0.770E-03    0.824E-03
RMM:  13    -0.230826719648E+04   -0.97373E-04   -0.45261E-05  3202   0.528E-03    0.539E-03
RMM:  14    -0.230826721939E+04   -0.22912E-04   -0.12623E-05  2858   0.413E-03    0.224E-03
RMM:  15    -0.230826722698E+04   -0.75884E-05   -0.56050E-06  2799   0.276E-03
   2 F= -.23290266E+04 E0= -.23290261E+04  d E =0.232453E+00  mag=     5.9895
       N       E                     dE             d eps       ncg     rms          rms(c)
DAV:   1    -0.230853736765E+04   -0.27015E+00   -0.32716E+01  4584   0.257E+00    0.155E+00
RMM:   2    -0.230869166921E+04   -0.15430E+00   -0.19230E+00  6065   0.603E-01    0.125E+00
RMM:   3    -0.230867388038E+04    0.17789E-01   -0.14994E-01  5126   0.209E-01    0.843E-01
RMM:   4    -0.230867114222E+04    0.27382E-02   -0.43862E-02  5487   0.882E-02    0.983E-01
RMM:   5    -0.230865821439E+04    0.12928E-01   -0.17403E-02  5515   0.635E-02    0.335E-01
RMM:   6    -0.230865729503E+04    0.91937E-03   -0.36932E-03  4611   0.323E-02    0.211E-01
RMM:   7    -0.230865699575E+04    0.29928E-03   -0.96259E-04  4085   0.167E-02    0.114E-01
RMM:   8    -0.230865684514E+04    0.15061E-03   -0.35423E-04  3825   0.106E-02    0.789E-02
RMM:   9    -0.230865675787E+04    0.87267E-04   -0.19010E-04  3763   0.100E-02    0.276E-02
RMM:  10    -0.230865673820E+04    0.19672E-04   -0.87981E-05  3383   0.755E-03    0.170E-02
RMM:  11    -0.230865673588E+04    0.23242E-05   -0.37579E-05  3199   0.557E-03
   3 F= -.23294143E+04 E0= -.23294143E+04  d E =-.155209E+00  mag=     5.9989
       N       E                     dE             d eps       ncg     rms          rms(c)
DAV:   1    -0.230863041980E+04    0.26318E-01   -0.55941E+00  4592   0.165E+00    0.863E-01
RMM:   2    -0.230874232412E+04   -0.11190E+00   -0.10965E+00  6334   0.412E-01    0.103E+00
RMM:   3    -0.230874070791E+04    0.16162E-02   -0.10824E-01  5934   0.144E-01    0.438E-01
RMM:   4    -0.230874002107E+04    0.68684E-03   -0.11675E-02  4971   0.353E-02    0.228E-01
RMM:   5    -0.230873943394E+04    0.58713E-03   -0.95490E-04  4432   0.177E-02    0.149E-01
RMM:   6    -0.230873955839E+04   -0.12446E-03   -0.12046E-03  4596   0.182E-02    0.170E-01
RMM:   7    -0.230873925555E+04    0.30285E-03   -0.41659E-04  3636   0.114E-02    0.365E-02
RMM:   8    -0.230873924681E+04    0.87392E-05   -0.53684E-05  2911   0.503E-03
   4 F= -.23294978E+04 E0= -.23294975E+04  d E =-.834910E-01  mag=     5.9954
       N       E                     dE             d eps       ncg     rms          rms(c)
DAV:   1    -0.230791399834E+04    0.82526E+00   -0.50125E+01  4488   0.496E+00    0.605E+00
RMM:   2    -0.231008389117E+04   -0.21699E+01   -0.13574E+01  6094   0.152E+00    0.114E+01
RMM:   3    -0.230879395903E+04    0.12899E+01   -0.18352E+00  5242   0.600E-01    0.285E+00
RMM:   4    -0.230873562795E+04    0.58331E-01   -0.29099E-01  4898   0.234E-01    0.270E+00
RMM:   5    -0.230868401261E+04    0.51615E-01   -0.11971E-01  5590   0.152E-01    0.228E+00
RMM:   6    -0.230869479395E+04   -0.10781E-01   -0.73359E-02  4587   0.138E-01    0.157E+00
RMM:   7    -0.230880587859E+04   -0.11108E+00   -0.63372E-02  4516   0.118E-01    0.536E-01
RMM:   8    -0.230885654804E+04   -0.50669E-01   -0.25925E-02  4553   0.815E-02    0.392E-01
RMM:   9    -0.230887983666E+04   -0.23289E-01   -0.10946E-02  4783   0.564E-02    0.241E-01
RMM:  10    -0.230889136000E+04   -0.11523E-01   -0.39008E-03  4615   0.341E-02    0.186E-01
RMM:  11    -0.230889609991E+04   -0.47399E-02   -0.12274E-03  4362   0.232E-02    0.147E-01
RMM:  12    -0.230889891511E+04   -0.28152E-02   -0.66166E-04  4266   0.151E-02    0.954E-02
RMM:  13    -0.230890139085E+04   -0.24757E-02   -0.41197E-04  3925   0.136E-02    0.611E-02
RMM:  14    -0.230890428833E+04   -0.28975E-02   -0.88206E-04  4124   0.188E-02    0.349E-02
RMM:  15    -0.230890462950E+04   -0.34116E-03   -0.12567E-04  3685   0.114E-02    0.262E-02
RMM:  16    -0.230890475664E+04   -0.12714E-03   -0.57160E-05  3355   0.502E-03    0.201E-02
RMM:  17    -0.230890481881E+04   -0.62176E-04   -0.16068E-05  2910   0.486E-03    0.951E-03
RMM:  18    -0.230890484418E+04   -0.25366E-04   -0.95841E-06  2846   0.276E-03    0.759E-03
RMM:  19    -0.230890485003E+04   -0.58545E-05   -0.28804E-06  2613   0.243E-03
   5 F= -.23296656E+04 E0= -.23296541E+04  d E =-.251302E+00  mag=     4.5211
       N       E                     dE             d eps       ncg     rms          rms(c)
DAV:   1    -0.230456927188E+04    0.43356E+01   -0.20164E+02  4432   0.997E+00    0.592E+00
RMM:   2    -0.231103954247E+04   -0.64703E+01   -0.56217E+01  6366   0.321E+00    0.120E+01
RMM:   3    -0.230879792505E+04    0.22416E+01   -0.50437E+00  5609   0.102E+00    0.351E+00
RMM:   4    -0.230881948020E+04   -0.21555E-01   -0.63510E-01  5729   0.287E-01    0.279E+00
RMM:   5    -0.230877072985E+04    0.48750E-01   -0.12552E-01  5875   0.158E-01    0.162E+00
RMM:   6    -0.230874529322E+04    0.25437E-01   -0.29940E-02  5263   0.865E-02    0.103E+00
RMM:   7    -0.230873807915E+04    0.72141E-02   -0.29994E-02  5176   0.939E-02    0.447E-01
RMM:   8    -0.230873997148E+04   -0.18923E-02   -0.69481E-03  5309   0.511E-02    0.278E-01
RMM:   9    -0.230874181453E+04   -0.18431E-02   -0.16780E-03  4505   0.238E-02    0.248E-01
RMM:  10    -0.230874293004E+04   -0.11155E-02   -0.63624E-04  4174   0.159E-02    0.242E-01
RMM:  11    -0.230874337957E+04   -0.44953E-03   -0.19686E-04  3411   0.825E-03    0.243E-01
RMM:  12    -0.230874327523E+04    0.10434E-03   -0.20937E-05  2869   0.433E-03    0.241E-01
RMM:  13    -0.230873958852E+04    0.36867E-02   -0.68703E-03  4202   0.367E-02    0.251E-01
RMM:  14    -0.230873439675E+04    0.51918E-02   -0.10204E-02  4341   0.477E-02    0.400E-01
RMM:  15    -0.230873937896E+04   -0.49822E-02   -0.46287E-03  4311   0.329E-02    0.326E-01
RMM:  16    -0.230874017505E+04   -0.79609E-03   -0.12410E-03  3906   0.189E-02    0.325E-01
RMM:  17    -0.230874558886E+04   -0.54138E-02   -0.31163E-02  4471   0.776E-02    0.411E-01
RMM:  18    -0.230874577278E+04   -0.18391E-03   -0.57112E-03  4123   0.458E-02    0.424E-01
RMM:  19    -0.230874581832E+04   -0.45544E-04   -0.99090E-04  3988   0.131E-02    0.430E-01
RMM:  20    -0.230874594415E+04   -0.12583E-03   -0.23363E-04  3232   0.914E-03    0.443E-01
RMM:  21    -0.230874524835E+04    0.69580E-03   -0.82991E-04  4065   0.144E-02    0.453E-01
RMM:  22    -0.230874494322E+04    0.30512E-03   -0.42179E-03  4096   0.291E-02    0.375E-01
RMM:  23    -0.230874470138E+04    0.24185E-03   -0.20117E-03  3795   0.225E-02    0.289E-01
RMM:  24    -0.230874544118E+04   -0.73980E-03   -0.83117E-04  3877   0.145E-02    0.141E-01
RMM:  25    -0.230874659285E+04   -0.11517E-02   -0.12985E-03  3793   0.170E-02    0.929E-02
RMM:  26    -0.230874750144E+04   -0.90859E-03   -0.14320E-03  3768   0.182E-02    0.943E-02
RMM:  27    -0.230874778709E+04   -0.28566E-03   -0.37804E-04  3275   0.109E-02    0.958E-02
RMM:  28    -0.230874806981E+04   -0.28272E-03   -0.25243E-04  3303   0.741E-03    0.961E-02
RMM:  29    -0.230874887148E+04   -0.80167E-03   -0.10176E-03  3835   0.149E-02    0.975E-02
RMM:  30    -0.230874898428E+04   -0.11280E-03   -0.15825E-04  2971   0.829E-03    0.966E-02
RMM:  31    -0.230874933042E+04   -0.34613E-03   -0.30820E-04  3321   0.772E-03    0.938E-02
RMM:  32    -0.230874998784E+04   -0.65742E-03   -0.78255E-04  3637   0.130E-02    0.930E-02
RMM:  33    -0.230875063582E+04   -0.64798E-03   -0.10408E-03  3762   0.149E-02    0.956E-02
RMM:  34    -0.230875051361E+04    0.12221E-03   -0.76398E-05  2894   0.629E-03    0.995E-02
RMM:  35    -0.230875081644E+04   -0.30283E-03   -0.18718E-04  3022   0.586E-03    0.967E-02
RMM:  36    -0.230875156029E+04   -0.74385E-03   -0.12179E-03  3906   0.152E-02    0.904E-02
RMM:  37    -0.230875184149E+04   -0.28120E-03   -0.43149E-04  3312   0.112E-02    0.857E-02
RMM:  38    -0.230875232377E+04   -0.48227E-03   -0.88060E-04  3832   0.130E-02    0.894E-02
RMM:  39    -0.230875232703E+04   -0.32672E-05   -0.80492E-05  2904   0.675E-03
   6 F= -.23295130E+04 E0= -.23295130E+04  d E =-.986541E-01  mag=     3.9994
       N       E                     dE             d eps       ncg     rms          rms(c)
DAV:   1    -0.230673022097E+04    0.20221E+01   -0.99169E+01  4488   0.750E+00    0.369E+00
RMM:   2    -0.230900284354E+04   -0.22726E+01   -0.22749E+01  6372   0.192E+00    0.406E+00
RMM:   3    -0.230909189321E+04   -0.89050E-01   -0.25594E+00  6008   0.715E-01    0.415E+00
RMM:   4    -0.230899294541E+04    0.98948E-01   -0.20297E-01  6131   0.169E-01    0.151E+00
RMM:   5    -0.230898966656E+04    0.32789E-02   -0.28062E-02  5551   0.703E-02    0.115E+00
RMM:   6    -0.230899351283E+04   -0.38463E-02   -0.24977E-02  5465   0.645E-02    0.142E+00
RMM:   7    -0.230898282527E+04    0.10688E-01   -0.13107E-02  5629   0.500E-02    0.671E-01
RMM:   8    -0.230898302878E+04   -0.20351E-03   -0.17206E-02  4979   0.595E-02    0.648E-01
RMM:   9    -0.230898219639E+04    0.83239E-03   -0.41338E-03  5017   0.353E-02    0.337E-01
RMM:  10    -0.230898283701E+04   -0.64062E-03   -0.22373E-03  4572   0.215E-02    0.268E-01
RMM:  11    -0.230898328391E+04   -0.44690E-03   -0.13898E-03  4126   0.187E-02    0.288E-01
RMM:  12    -0.230898333736E+04   -0.53447E-04   -0.11030E-03  4043   0.148E-02    0.176E-01
RMM:  13    -0.230898354215E+04   -0.20479E-03   -0.16060E-03  4041   0.180E-02    0.933E-02
RMM:  14    -0.230898361791E+04   -0.75768E-04   -0.70484E-04  3692   0.137E-02    0.794E-02
RMM:  15    -0.230898364826E+04   -0.30345E-04   -0.67658E-04  3720   0.120E-02    0.348E-02
RMM:  16    -0.230898364238E+04    0.58817E-05   -0.50385E-05  2889   0.585E-03
   7 F= -.23297450E+04 E0= -.23297446E+04  d E =-.330708E+00  mag=     4.0045
       N       E                     dE             d eps       ncg     rms          rms(c)
DAV:   1    -0.230886878202E+04    0.11487E+00   -0.65450E+00  4512   0.179E+00    0.953E-01
RMM:   2    -0.230901033248E+04   -0.14155E+00   -0.13112E+00  6286   0.470E-01    0.175E+00
RMM:   3    -0.230899401873E+04    0.16314E-01   -0.13526E-01  6004   0.154E-01    0.773E-01
RMM:   4    -0.230899255377E+04    0.14650E-02   -0.19517E-02  5593   0.477E-02    0.519E-01
RMM:   5    -0.230899032115E+04    0.22326E-02   -0.34281E-03  5038   0.247E-02    0.253E-01
RMM:   6    -0.230898974264E+04    0.57851E-03   -0.90925E-04  4757   0.159E-02    0.131E-01
RMM:   7    -0.230898965536E+04    0.87283E-04   -0.86718E-04  4544   0.176E-02    0.957E-02
RMM:   8    -0.230898961072E+04    0.44635E-04   -0.10680E-04  3037   0.738E-03    0.386E-02
RMM:   9    -0.230898960269E+04    0.80307E-05   -0.30122E-05  2911   0.441E-03
   8 F= -.23297511E+04 E0= -.23297510E+04  d E =-.336778E+00  mag=     4.0011
       N       E                     dE             d eps       ncg     rms          rms(c)
DAV:   1    -0.230900272843E+04   -0.13118E-01   -0.12347E+00  4576   0.794E-01    0.402E-01
RMM:   2    -0.230902565597E+04   -0.22928E-01   -0.21948E-01  6324   0.200E-01    0.588E-01
RMM:   3    -0.230902335337E+04    0.23026E-02   -0.17558E-02  5785   0.609E-02    0.260E-01
RMM:   4    -0.230902321729E+04    0.13608E-03   -0.26294E-03  4361   0.193E-02    0.218E-01
RMM:   5    -0.230902287371E+04    0.34358E-03   -0.49990E-04  3478   0.106E-02    0.965E-02
RMM:   6    -0.230902280849E+04    0.65219E-04   -0.17848E-04  3804   0.851E-03    0.552E-02
RMM:   7    -0.230902280942E+04   -0.92731E-06   -0.12572E-04  3189   0.826E-03    0.347E-02
RMM:   8    -0.230902281258E+04   -0.31632E-05   -0.30938E-05  2906   0.483E-03
   9 F= -.23297842E+04 E0= -.23297841E+04  d E =-.330755E-01  mag=     4.0002
       N       E                     dE             d eps       ncg     rms          rms(c)
DAV:   1    -0.230889707344E+04    0.12574E+00   -0.11083E+01  4496   0.239E+00    0.119E+00
RMM:   2    -0.230910085792E+04   -0.20378E+00   -0.19792E+00  6300   0.612E-01    0.159E+00
RMM:   3    -0.230908404510E+04    0.16813E-01   -0.17253E-01  6023   0.190E-01    0.699E-01
RMM:   4    -0.230908343377E+04    0.61133E-03   -0.24882E-02  5749   0.561E-02    0.583E-01
RMM:   5    -0.230908079175E+04    0.26420E-02   -0.42496E-03  5356   0.284E-02    0.303E-01
RMM:   6    -0.230908023206E+04    0.55969E-03   -0.14980E-03  4876   0.213E-02    0.199E-01
RMM:   7    -0.230908033045E+04   -0.98387E-04   -0.13584E-03  4482   0.223E-02    0.157E-01
RMM:   8    -0.230908043122E+04   -0.10078E-03   -0.32688E-04  3462   0.970E-03    0.149E-01
RMM:   9    -0.230908079389E+04   -0.36266E-03   -0.86659E-04  3793   0.135E-02    0.153E-01
RMM:  10    -0.230908061285E+04    0.18104E-03   -0.13585E-04  2959   0.722E-03    0.145E-01
RMM:  11    -0.230907960526E+04    0.10076E-02   -0.58232E-03  4197   0.320E-02    0.170E-01
RMM:  12    -0.230907870476E+04    0.90049E-03   -0.31896E-03  4005   0.276E-02    0.233E-01
RMM:  13    -0.230907929206E+04   -0.58729E-03   -0.10119E-03  3667   0.142E-02    0.204E-01
RMM:  14    -0.230907944491E+04   -0.15286E-03   -0.70030E-04  3519   0.117E-02    0.180E-01
RMM:  15    -0.230908097386E+04   -0.15290E-02   -0.12308E-02  4356   0.469E-02    0.180E-01
RMM:  16    -0.230908100746E+04   -0.33596E-04   -0.77585E-03  4305   0.430E-02    0.264E-01
RMM:  17    -0.230908073850E+04    0.26896E-03   -0.10612E-03  3906   0.159E-02    0.304E-01
RMM:  18    -0.230908113794E+04   -0.39944E-03   -0.20124E-04  3109   0.599E-03    0.259E-01
RMM:  19    -0.230908186655E+04   -0.72861E-03   -0.12033E-03  3929   0.150E-02    0.205E-01
RMM:  20    -0.230908204036E+04   -0.17381E-03   -0.18899E-04  2975   0.861E-03    0.181E-01
RMM:  21    -0.230908251997E+04   -0.47961E-03   -0.47570E-04  3505   0.945E-03    0.110E-01
RMM:  22    -0.230908278316E+04   -0.26319E-03   -0.38003E-04  3234   0.986E-03    0.744E-02
RMM:  23    -0.230908309791E+04   -0.31475E-03   -0.12562E-03  3838   0.155E-02    0.889E-02
RMM:  24    -0.230908349092E+04   -0.39301E-03   -0.24592E-03  4123   0.227E-02    0.915E-02
RMM:  25    -0.230908356627E+04   -0.75355E-04   -0.31801E-04  3150   0.107E-02    0.351E-02
RMM:  26    -0.230908362411E+04   -0.57836E-04   -0.25435E-03  4125   0.212E-02    0.143E-01
RMM:  27    -0.230908378953E+04   -0.16542E-03   -0.23260E-04  3092   0.960E-03    0.628E-02
RMM:  28    -0.230908383841E+04   -0.48882E-04   -0.32492E-04  3230   0.771E-03    0.880E-02
RMM:  29    -0.230908389969E+04   -0.61271E-04   -0.26693E-04  3103   0.766E-03    0.866E-02
RMM:  30    -0.230908400004E+04   -0.10035E-03   -0.12583E-04  2942   0.602E-03    0.548E-02
RMM:  31    -0.230908406091E+04   -0.60877E-04   -0.22226E-04  3210   0.717E-03    0.503E-02
RMM:  32    -0.230908409507E+04   -0.34161E-04   -0.61084E-05  2837   0.493E-03    0.344E-02
RMM:  33    -0.230908412981E+04   -0.34733E-04   -0.25200E-04  3276   0.734E-03    0.450E-02
RMM:  34    -0.230908415709E+04   -0.27286E-04   -0.49699E-05  2797   0.483E-03    0.228E-02
RMM:  35    -0.230908417424E+04   -0.17146E-04   -0.12939E-04  2993   0.532E-03    0.317E-02
RMM:  36    -0.230908419448E+04   -0.20240E-04   -0.51457E-05  2810   0.439E-03    0.129E-02
RMM:  37    -0.230908420507E+04   -0.10594E-04   -0.54959E-05  2823   0.388E-03    0.108E-02
RMM:  38    -0.230908420745E+04   -0.23727E-05   -0.12651E-05  2592   0.283E-03
  10 F= -.23298449E+04 E0= -.23298449E+04  d E =-.938351E-01  mag=     4.0000
       N       E                     dE             d eps       ncg     rms          rms(c)
DAV:   1    -0.230826943389E+04    0.81477E+00   -0.43950E+01  4448   0.483E+00    0.238E+00
RMM:   2    -0.230911669103E+04   -0.84726E+00   -0.82404E+00  6317   0.131E+00    0.304E+00
RMM:   3    -0.230904658302E+04    0.70108E-01   -0.74541E-01  6040   0.407E-01    0.122E+00
RMM:   4    -0.230904637619E+04    0.20682E-03   -0.90990E-02  5951   0.109E-01    0.992E-01
RMM:   5    -0.230904156506E+04    0.48111E-02   -0.15247E-02  5773   0.533E-02    0.768E-01
RMM:   6    -0.230904039350E+04    0.11716E-02   -0.81474E-03  5108   0.474E-02    0.582E-01
RMM:   7    -0.230904111605E+04   -0.72255E-03   -0.11880E-02  5040   0.575E-02    0.373E-01
RMM:   8    -0.230904166996E+04   -0.55391E-03   -0.34511E-03  4836   0.303E-02    0.285E-01
RMM:   9    -0.230904241765E+04   -0.74769E-03   -0.51979E-03  4604   0.324E-02    0.149E-01
RMM:  10    -0.230904254802E+04   -0.13038E-03   -0.10907E-03  3961   0.208E-02    0.962E-02
RMM:  11    -0.230904265851E+04   -0.11049E-03   -0.88564E-04  4200   0.134E-02    0.530E-02
RMM:  12    -0.230904270591E+04   -0.47401E-04   -0.28270E-04  3297   0.106E-02    0.273E-02
RMM:  13    -0.230904272866E+04   -0.22750E-04   -0.15133E-04  3061   0.658E-03    0.167E-02
RMM:  14    -0.230904273525E+04   -0.65840E-05   -0.61864E-05  2905   0.537E-03
  11 F= -.23298012E+04 E0= -.23298012E+04  d E =-.501435E-01  mag=     4.0000
       N       E                     dE             d eps       ncg     rms          rms(c)
DAV:   1    -0.230871239905E+04    0.33033E+00   -0.21592E+01  4448   0.338E+00    0.167E+00
RMM:   2    -0.230911908616E+04   -0.40669E+00   -0.40392E+00  6302   0.865E-01    0.200E+00
RMM:   3    -0.230910806897E+04    0.11017E-01   -0.38322E-01  6086   0.272E-01    0.958E-01
RMM:   4    -0.230910053716E+04    0.75318E-02   -0.39089E-02  5906   0.735E-02    0.497E-01
RMM:   5    -0.230909921690E+04    0.13203E-02   -0.59745E-03  5491   0.344E-02    0.428E-01
RMM:   6    -0.230909739613E+04    0.18208E-02   -0.38306E-03  5353   0.326E-02    0.195E-01
RMM:   7    -0.230909721358E+04    0.18255E-03   -0.18557E-03  4844   0.249E-02    0.896E-02
RMM:   8    -0.230909719589E+04    0.17686E-04   -0.24798E-04  3703   0.101E-02    0.723E-02
RMM:   9    -0.230909722735E+04   -0.31456E-04   -0.26058E-04  3701   0.985E-03    0.611E-02
RMM:  10    -0.230909726331E+04   -0.35959E-04   -0.16771E-04  3179   0.803E-03    0.511E-02
RMM:  11    -0.230909733077E+04   -0.67462E-04   -0.32764E-04  3625   0.963E-03    0.434E-02
RMM:  12    -0.230909741709E+04   -0.86326E-04   -0.84502E-04  3930   0.143E-02    0.358E-02
RMM:  13    -0.230909741728E+04   -0.18753E-06   -0.19001E-04  3012   0.890E-03    0.234E-02
RMM:  14    -0.230909741351E+04    0.37725E-05   -0.45865E-05  2930   0.427E-03
  12 F= -.23298576E+04 E0= -.23298576E+04  d E =-.106510E+00  mag=     4.0000
       N       E                     dE             d eps       ncg     rms          rms(c)
DAV:   1    -0.230913650762E+04   -0.39090E-01   -0.65140E-01  4536   0.657E-01    0.283E-01
RMM:   2    -0.230915226866E+04   -0.15761E-01   -0.17214E-01  6014   0.167E-01    0.205E-01
RMM:   3    -0.230915377864E+04   -0.15100E-02   -0.22511E-02  5475   0.824E-02    0.192E-01
RMM:   4    -0.230915349632E+04    0.28233E-03   -0.16659E-03  4104   0.157E-02    0.994E-02
RMM:   5    -0.230915334947E+04    0.14685E-03   -0.28206E-04  3662   0.102E-02    0.737E-02
RMM:   6    -0.230915331675E+04    0.32722E-04   -0.39142E-04  4529   0.108E-02    0.780E-02
RMM:   7    -0.230915325008E+04    0.66664E-04   -0.11929E-04  3130   0.840E-03    0.288E-02
RMM:   8    -0.230915324378E+04    0.63038E-05   -0.28822E-05  2904   0.500E-03
  13 F= -.23299130E+04 E0= -.23299130E+04  d E =-.554281E-01  mag=     4.0000
       N       E                     dE             d eps       ncg     rms          rms(c)
DAV:   1    -0.230910567585E+04    0.47574E-01   -0.58793E+00  4488   0.196E+00    0.841E-01
RMM:   2    -0.230924599270E+04   -0.14032E+00   -0.15201E+00  5955   0.487E-01    0.622E-01
RMM:   3    -0.230925992974E+04   -0.13937E-01   -0.20166E-01  5573   0.233E-01    0.629E-01
RMM:   4    -0.230925681655E+04    0.31132E-02   -0.14738E-02  5731   0.453E-02    0.313E-01
RMM:   5    -0.230925572309E+04    0.10935E-02   -0.23724E-03  5103   0.255E-02    0.245E-01
RMM:   6    -0.230925539578E+04    0.32731E-03   -0.38585E-03  5418   0.284E-02    0.250E-01
RMM:   7    -0.230925476079E+04    0.63499E-03   -0.15144E-03  5130   0.215E-02    0.950E-02
RMM:   8    -0.230925469375E+04    0.67042E-04   -0.23318E-04  3966   0.105E-02    0.727E-02
RMM:   9    -0.230925471065E+04   -0.16896E-04   -0.43759E-04  3895   0.115E-02    0.530E-02
RMM:  10    -0.230925475155E+04   -0.40897E-04   -0.24324E-04  3573   0.907E-03    0.400E-02
RMM:  11    -0.230925476314E+04   -0.11594E-04   -0.19959E-04  3398   0.892E-03    0.217E-02
RMM:  12    -0.230925477095E+04   -0.78131E-05   -0.12330E-04  2989   0.689E-03    0.103E-02
RMM:  13    -0.230925477125E+04   -0.29980E-06   -0.23128E-05  2874   0.427E-03
  14 F= -.23300133E+04 E0= -.23300133E+04  d E =-.155696E+00  mag=     4.0000
       N       E                     dE             d eps       ncg     rms          rms(c)
DAV:   1    -0.230858692440E+04    0.66785E+00   -0.23290E+01  4464   0.383E+00    0.169E+00
RMM:   2    -0.230915880100E+04   -0.57188E+00   -0.61777E+00  6109   0.956E-01    0.133E+00
RMM:   3    -0.230921504947E+04   -0.56248E-01   -0.78116E-01  5750   0.427E-01    0.142E+00
RMM:   4    -0.230919824228E+04    0.16807E-01   -0.60665E-02  6156   0.919E-02    0.647E-01
RMM:   5    -0.230919382297E+04    0.44193E-02   -0.96859E-03  5468   0.452E-02    0.497E-01
RMM:   6    -0.230919212631E+04    0.16967E-02   -0.14250E-02  5567   0.520E-02    0.518E-01
RMM:   7    -0.230918879382E+04    0.33325E-02   -0.83084E-03  5491   0.439E-02    0.126E-01
RMM:   8    -0.230918845511E+04    0.33872E-03   -0.61726E-04  4813   0.207E-02    0.873E-02
RMM:   9    -0.230918824897E+04    0.20614E-03   -0.63055E-04  4321   0.139E-02    0.373E-02
RMM:  10    -0.230918822200E+04    0.26972E-04   -0.24881E-04  3920   0.931E-03    0.230E-02
RMM:  11    -0.230918822104E+04    0.95146E-06   -0.40078E-05  3231   0.619E-03
  15 F= -.23299440E+04 E0= -.23299440E+04  d E =-.864411E-01  mag=     4.0000
       N       E                     dE             d eps       ncg     rms          rms(c)
DAV:   1    -0.230898714152E+04    0.20108E+00   -0.11090E+01  4464   0.262E+00    0.116E+00
RMM:   2    -0.230925959494E+04   -0.27245E+00   -0.29225E+00  6019   0.670E-01    0.938E-01
RMM:   3    -0.230927851623E+04   -0.18921E-01   -0.33252E-01  5792   0.288E-01    0.726E-01
RMM:   4    -0.230927486572E+04    0.36505E-02   -0.28559E-02  5662   0.623E-02    0.404E-01
RMM:   5    -0.230927211993E+04    0.27458E-02   -0.49267E-03  5294   0.357E-02    0.265E-01
RMM:   6    -0.230927150791E+04    0.61202E-03   -0.41285E-03  5295   0.339E-02    0.253E-01
RMM:   7    -0.230927096710E+04    0.54081E-03   -0.16584E-03  5285   0.241E-02    0.142E-01
RMM:   8    -0.230927072257E+04    0.24454E-03   -0.39295E-04  4485   0.123E-02    0.559E-02
RMM:   9    -0.230927064640E+04    0.76167E-04   -0.10140E-04  3285   0.841E-03    0.278E-02
RMM:  10    -0.230927062174E+04    0.24661E-04   -0.10429E-04  3479   0.697E-03    0.119E-02
RMM:  11    -0.230927061737E+04    0.43643E-05   -0.18139E-05  2910   0.475E-03
  16 F= -.23300283E+04 E0= -.23300283E+04  d E =-.170723E+00  mag=     4.0000
       N       E                     dE             d eps       ncg     rms          rms(c)
DAV:   1    -0.230928093966E+04   -0.10318E-01   -0.79595E-01  4496   0.829E-01    0.341E-01
RMM:   2    -0.230928849519E+04   -0.75555E-02   -0.80580E-02  5955   0.160E-01    0.261E-01
RMM:   3    -0.230928895993E+04   -0.46474E-03   -0.94730E-03  5503   0.643E-02    0.280E-01
RMM:   4    -0.230928808813E+04    0.87180E-03   -0.10685E-03  4802   0.183E-02    0.730E-02
RMM:   5    -0.230928802249E+04    0.65642E-04   -0.45655E-04  4419   0.139E-02    0.769E-02
RMM:   6    -0.230928795892E+04    0.63570E-04   -0.17838E-04  3686   0.883E-03    0.424E-02
RMM:   7    -0.230928793687E+04    0.22044E-04   -0.36220E-05  2966   0.616E-03    0.118E-02
RMM:   8    -0.230928793381E+04    0.30653E-05   -0.10961E-05  2890   0.379E-03
  17 F= -.23300454E+04 E0= -.23300454E+04  d E =-.170952E-01  mag=     4.0000
       N       E                     dE             d eps       ncg     rms          rms(c)
DAV:   1    -0.230928397226E+04    0.39646E-02   -0.12508E+00  4480   0.103E+00    0.428E-01
RMM:   2    -0.230929576059E+04   -0.11788E-01   -0.12599E-01  5897   0.200E-01    0.321E-01
RMM:   3    -0.230929658026E+04   -0.81967E-03   -0.14889E-02  5549   0.807E-02    0.355E-01
RMM:   4    -0.230929519632E+04    0.13839E-02   -0.16711E-03  5009   0.226E-02    0.904E-02
RMM:   5    -0.230929507261E+04    0.12371E-03   -0.70293E-04  4747   0.170E-02    0.869E-02
RMM:   6    -0.230929500387E+04    0.68743E-04   -0.26308E-04  4174   0.101E-02    0.593E-02
RMM:   7    -0.230929496164E+04    0.42230E-04   -0.58138E-05  3077   0.688E-03    0.163E-02
RMM:   8    -0.230929495705E+04    0.45895E-05   -0.17019E-05  2907   0.426E-03
  18 F= -.23300521E+04 E0= -.23300521E+04  d E =-.238393E-01  mag=     4.0000
       N       E                     dE             d eps       ncg     rms          rms(c)
DAV:   1    -0.230930027007E+04   -0.53084E-02   -0.77658E-01  4528   0.777E-01    0.284E-01
RMM:   2    -0.230930679649E+04   -0.65264E-02   -0.67596E-02  5984   0.152E-01    0.223E-01
RMM:   3    -0.230930709931E+04   -0.30282E-03   -0.62393E-03  5302   0.548E-02    0.221E-01
RMM:   4    -0.230930655429E+04    0.54502E-03   -0.83834E-04  4607   0.152E-02    0.653E-02
RMM:   5    -0.230930646653E+04    0.87755E-04   -0.20933E-04  4194   0.112E-02    0.319E-02
RMM:   6    -0.230930645417E+04    0.12360E-04   -0.99379E-05  3722   0.797E-03    0.183E-02
RMM:   7    -0.230930645183E+04    0.23399E-05   -0.18947E-05  2882   0.573E-03
  19 F= -.23300635E+04 E0= -.23300635E+04  d E =-.113688E-01  mag=     4.0000
       N       E                     dE             d eps       ncg     rms          rms(c)
DAV:   1    -0.230928002808E+04    0.26426E-01   -0.43051E+00  4464   0.184E+00    0.670E-01
RMM:   2    -0.230931619029E+04   -0.36162E-01   -0.37511E-01  5932   0.357E-01    0.519E-01
RMM:   3    -0.230931795332E+04   -0.17630E-02   -0.35509E-02  5651   0.129E-01    0.520E-01
RMM:   4    -0.230931493743E+04    0.30159E-02   -0.46178E-03  5221   0.350E-02    0.155E-01
RMM:   5    -0.230931448708E+04    0.45035E-03   -0.12167E-03  5090   0.244E-02    0.831E-02
RMM:   6    -0.230931445990E+04    0.27180E-04   -0.63611E-04  4769   0.161E-02    0.832E-02
RMM:   7    -0.230931438697E+04    0.72925E-04   -0.13884E-04  3354   0.999E-03    0.333E-02
RMM:   8    -0.230931436799E+04    0.18986E-04   -0.24122E-05  2929   0.389E-03    0.126E-02
RMM:   9    -0.230931435863E+04    0.93538E-05   -0.19103E-05  2891   0.388E-03
  20 F= -.23300711E+04 E0= -.23300711E+04  d E =-.189656E-01  mag=     4.0000
       N       E                     dE             d eps       ncg     rms          rms(c)
DAV:   1    -0.230931769940E+04   -0.33314E-02   -0.36802E-01  4816   0.454E-01    0.149E-01
RMM:   2    -0.230932155133E+04   -0.38519E-02   -0.38125E-02  6273   0.942E-02    0.177E-01
RMM:   3    -0.230932152269E+04    0.28649E-04   -0.32930E-03  4039   0.304E-02    0.971E-02
RMM:   4    -0.230932144813E+04    0.74552E-04   -0.39092E-04  3103   0.803E-03    0.440E-02
RMM:   5    -0.230932142078E+04    0.27352E-04   -0.53363E-05  3022   0.536E-03    0.237E-02
RMM:   6    -0.230932142494E+04   -0.41565E-05   -0.40996E-05  2938   0.507E-03
  21 F= -.23300782E+04 E0= -.23300782E+04  d E =-.711010E-02  mag=     4.0000
       N       E                     dE             d eps       ncg     rms          rms(c)
DAV:   1    -0.230930595623E+04    0.15465E-01   -0.33041E+00  4464   0.136E+00    0.450E-01
RMM:   2    -0.230934068814E+04   -0.34732E-01   -0.34584E-01  6188   0.281E-01    0.519E-01
RMM:   3    -0.230934050794E+04    0.18020E-03   -0.30515E-02  5653   0.940E-02    0.291E-01
RMM:   4    -0.230933986476E+04    0.64317E-03   -0.35957E-03  4605   0.215E-02    0.134E-01
RMM:   5    -0.230933969245E+04    0.17231E-03   -0.47007E-04  4088   0.135E-02    0.104E-01
RMM:   6    -0.230933967198E+04    0.20469E-04   -0.43300E-04  3955   0.120E-02    0.928E-02
RMM:   7    -0.230933959513E+04    0.76852E-04   -0.12507E-04  3237   0.839E-03    0.192E-02
RMM:   8    -0.230933959110E+04    0.40295E-05   -0.17721E-05  2907   0.441E-03
  22 F= -.23300965E+04 E0= -.23300965E+04  d E =-.254069E-01  mag=     4.0000
       N       E                     dE             d eps       ncg     rms          rms(c)
DAV:   1    -0.230922466352E+04    0.11493E+00   -0.13218E+01  4464   0.273E+00    0.914E-01
RMM:   2    -0.230936656061E+04   -0.14190E+00   -0.14091E+00  6209   0.575E-01    0.108E+00
RMM:   3    -0.230936455816E+04    0.20024E-02   -0.12747E-01  5863   0.193E-01    0.568E-01
RMM:   4    -0.230936213733E+04    0.24208E-02   -0.14527E-02  5098   0.432E-02    0.271E-01
RMM:   5    -0.230936140266E+04    0.73467E-03   -0.19679E-03  5003   0.268E-02    0.211E-01
RMM:   6    -0.230936131238E+04    0.90285E-04   -0.16557E-03  5061   0.216E-02    0.186E-01
RMM:   7    -0.230936099354E+04    0.31884E-03   -0.52199E-04  4265   0.144E-02    0.384E-02
RMM:   8    -0.230936097942E+04    0.14120E-04   -0.69460E-05  2978   0.629E-03    0.227E-02
RMM:   9    -0.230936097245E+04    0.69762E-05   -0.35632E-05  2928   0.463E-03
  23 F= -.23301182E+04 E0= -.23301182E+04  d E =-.470460E-01  mag=     4.0000
       N       E                     dE             d eps       ncg     rms          rms(c)
DAV:   1    -0.230932991783E+04    0.31062E-01   -0.33003E+00  4464   0.137E+00    0.454E-01
RMM:   2    -0.230936481912E+04   -0.34901E-01   -0.34647E-01  6190   0.284E-01    0.538E-01
RMM:   3    -0.230936430491E+04    0.51421E-03   -0.30295E-02  5725   0.935E-02    0.282E-01
RMM:   4    -0.230936370431E+04    0.60061E-03   -0.36140E-03  4641   0.215E-02    0.134E-01
RMM:   5    -0.230936358579E+04    0.11852E-03   -0.51531E-04  4122   0.136E-02    0.128E-01
RMM:   6    -0.230936346062E+04    0.12517E-03   -0.41694E-04  4081   0.118E-02    0.739E-02
RMM:   7    -0.230936341880E+04    0.41813E-04   -0.11229E-04  3236   0.846E-03    0.171E-02
RMM:   8    -0.230936341650E+04    0.23059E-05   -0.17345E-05  2909   0.453E-03
  24 F= -.23301207E+04 E0= -.23301207E+04  d E =-.496158E-01  mag=     4.0000
       N       E                     dE             d eps       ncg     rms          rms(c)
DAV:   1    -0.230936778542E+04   -0.43666E-02   -0.98348E-01  4480   0.975E-01    0.399E-01
RMM:   2    -0.230937668831E+04   -0.89029E-02   -0.96817E-02  5810   0.189E-01    0.210E-01
RMM:   3    -0.230937745126E+04   -0.76296E-03   -0.89986E-03  5290   0.754E-02    0.266E-01
RMM:   4    -0.230937663407E+04    0.81720E-03   -0.12300E-03  5080   0.205E-02    0.842E-02
RMM:   5    -0.230937651799E+04    0.11607E-03   -0.40343E-04  4554   0.152E-02    0.372E-02
RMM:   6    -0.230937651180E+04    0.61971E-05   -0.11105E-04  3949   0.887E-03    0.253E-02
RMM:   7    -0.230937650917E+04    0.26246E-05   -0.30733E-05  2904   0.617E-03
  25 F= -.23301340E+04 E0= -.23301340E+04  d E =-.132695E-01  mag=     4.0000
       N       E                     dE             d eps       ncg     rms          rms(c)
DAV:   1    -0.230936880560E+04    0.77062E-02   -0.14897E+00  4472   0.120E+00    0.492E-01
RMM:   2    -0.230938238839E+04   -0.13583E-01   -0.14746E-01  5795   0.233E-01    0.266E-01
RMM:   3    -0.230938356903E+04   -0.11806E-02   -0.13857E-02  5320   0.915E-02    0.335E-01
RMM:   4    -0.230938225430E+04    0.13147E-02   -0.18602E-03  5250   0.253E-02    0.103E-01
RMM:   5    -0.230938207757E+04    0.17673E-03   -0.65160E-04  4774   0.183E-02    0.454E-02
RMM:   6    -0.230938205761E+04    0.19957E-04   -0.15348E-04  4288   0.103E-02    0.166E-02
RMM:   7    -0.230938205291E+04    0.47051E-05   -0.24989E-05  3011   0.650E-03
  26 F= -.23301398E+04 E0= -.23301398E+04  d E =-.190242E-01  mag=     4.0000
       N       E                     dE             d eps       ncg     rms          rms(c)
DAV:   1    -0.230938208305E+04   -0.25444E-04   -0.43386E-01  4704   0.629E-01    0.219E-01
RMM:   2    -0.230938790284E+04   -0.58198E-02   -0.61653E-02  5858   0.130E-01    0.170E-01
RMM:   3    -0.230938823317E+04   -0.33033E-03   -0.61001E-03  4900   0.500E-02    0.133E-01
RMM:   4    -0.230938805766E+04    0.17551E-03   -0.63264E-04  3991   0.128E-02    0.689E-02
RMM:   5    -0.230938798874E+04    0.68925E-04   -0.22088E-04  4071   0.109E-02    0.325E-02
RMM:   6    -0.230938799191E+04   -0.31717E-05   -0.70451E-05  3184   0.707E-03
  27 F= -.23301458E+04 E0= -.23301458E+04  d E =-.604702E-02  mag=     4.0000
       N       E                     dE             d eps       ncg     rms          rms(c)
DAV:   1    -0.230938029734E+04    0.76914E-02   -0.74451E-01  4472   0.825E-01    0.288E-01
RMM:   2    -0.230939014639E+04   -0.98491E-02   -0.10546E-01  5875   0.171E-01    0.206E-01
RMM:   3    -0.230939083413E+04   -0.68773E-03   -0.11050E-02  5270   0.659E-02    0.165E-01
RMM:   4    -0.230939057105E+04    0.26307E-03   -0.11059E-03  4561   0.165E-02    0.987E-02
RMM:   5    -0.230939048520E+04    0.85855E-04   -0.34924E-04  4248   0.126E-02    0.826E-02
RMM:   6    -0.230939043168E+04    0.53519E-04   -0.22529E-04  3812   0.987E-03    0.472E-02
RMM:   7    -0.230939040704E+04    0.24643E-04   -0.41557E-05  2986   0.679E-03    0.143E-02
RMM:   8    -0.230939040199E+04    0.50428E-05   -0.12079E-05  2876   0.402E-03
  28 F= -.23301484E+04 E0= -.23301484E+04  d E =-.859940E-02  mag=     4.0000
       N       E                     dE             d eps       ncg     rms          rms(c)
DAV:   1    -0.230938761564E+04    0.27914E-02   -0.51965E-01  4480   0.680E-01    0.225E-01
RMM:   2    -0.230939327010E+04   -0.56545E-02   -0.59533E-02  5932   0.132E-01    0.170E-01
RMM:   3    -0.230939353992E+04   -0.26982E-03   -0.57095E-03  4913   0.508E-02    0.136E-01
RMM:   4    -0.230939332120E+04    0.21872E-03   -0.63208E-04  3943   0.125E-02    0.684E-02
RMM:   5    -0.230939325715E+04    0.64054E-04   -0.21695E-04  3784   0.103E-02    0.489E-02
RMM:   6    -0.230939324753E+04    0.96164E-05   -0.10647E-04  3150   0.737E-03    0.428E-02
RMM:   7    -0.230939323003E+04    0.17503E-04   -0.28590E-05  2890   0.543E-03    0.870E-03
RMM:   8    -0.230939322835E+04    0.16809E-05   -0.62137E-06  2860   0.314E-03
  29 F= -.23301511E+04 E0= -.23301511E+04  d E =-.277352E-02  mag=     4.0000
       N       E                     dE             d eps       ncg     rms          rms(c)
DAV:   1    -0.230939297519E+04    0.25484E-03   -0.34869E-02  4952   0.176E-01    0.585E-02
RMM:   2    -0.230939335864E+04   -0.38345E-03   -0.40269E-03  5916   0.351E-02    0.444E-02
RMM:   3    -0.230939337639E+04   -0.17748E-04   -0.39149E-04  3056   0.135E-02    0.350E-02
RMM:   4    -0.230939336205E+04    0.14343E-04   -0.44045E-05  2919   0.399E-03    0.179E-02
RMM:   5    -0.230939335651E+04    0.55345E-05   -0.15743E-05  2842   0.314E-03
  30 F= -.23301512E+04 E0= -.23301512E+04  d E =-.288754E-02  mag=     4.0000
       N       E                     dE             d eps       ncg     rms          rms(c)
DAV:   1    -0.230938969689E+04    0.36652E-02   -0.47248E-01  4480   0.661E-01    0.215E-01
RMM:   2    -0.230939615360E+04   -0.64567E-02   -0.67011E-02  5935   0.135E-01    0.194E-01
RMM:   3    -0.230939642628E+04   -0.27268E-03   -0.68498E-03  5059   0.522E-02    0.138E-01
RMM:   4    -0.230939621439E+04    0.21189E-03   -0.73265E-04  3913   0.124E-02    0.681E-02
RMM:   5    -0.230939614968E+04    0.64717E-04   -0.17391E-04  3592   0.940E-03    0.511E-02
RMM:   6    -0.230939614119E+04    0.84842E-05   -0.12886E-04  3139   0.806E-03    0.461E-02
RMM:   7    -0.230939612080E+04    0.20395E-04   -0.29989E-05  2960   0.580E-03    0.875E-03
RMM:   8    -0.230939611885E+04    0.19446E-05   -0.71546E-06  2859   0.347E-03
  31 F= -.23301539E+04 E0= -.23301539E+04  d E =-.262732E-02  mag=     4.0000
       N       E                     dE             d eps       ncg     rms          rms(c)
DAV:   1    -0.230939481462E+04    0.13062E-02   -0.11480E-01  4576   0.326E-01    0.107E-01
RMM:   2    -0.230939641062E+04   -0.15960E-02   -0.16405E-02  5992   0.677E-02    0.103E-01
RMM:   3    -0.230939645921E+04   -0.48589E-04   -0.16997E-03  3712   0.252E-02    0.687E-02
RMM:   4    -0.230939640534E+04    0.53864E-04   -0.17933E-04  3014   0.697E-03    0.336E-02
RMM:   5    -0.230939639014E+04    0.15204E-04   -0.44827E-05  2946   0.519E-03    0.287E-02
RMM:   6    -0.230939638506E+04    0.50750E-05   -0.37532E-05  2875   0.504E-03
  32 F= -.23301541E+04 E0= -.23301541E+04  d E =-.282507E-02  mag=     4.0000
       N       E                     dE             d eps       ncg     rms          rms(c)
DAV:   1    -0.230939072813E+04    0.56620E-02   -0.52912E-01  4480   0.689E-01    0.231E-01
RMM:   2    -0.230939907405E+04   -0.83459E-02   -0.83760E-02  6018   0.141E-01    0.238E-01
RMM:   3    -0.230939926359E+04   -0.18954E-03   -0.83526E-03  5115   0.566E-02    0.145E-01
RMM:   4    -0.230939903231E+04    0.23128E-03   -0.86606E-04  3775   0.122E-02    0.624E-02
RMM:   5    -0.230939899389E+04    0.38420E-04   -0.12106E-04  3078   0.759E-03    0.566E-02
RMM:   6    -0.230939896848E+04    0.25414E-04   -0.12159E-04  3204   0.763E-03    0.353E-02
RMM:   7    -0.230939895885E+04    0.96260E-05   -0.30226E-05  2915   0.575E-03
  33 F= -.23301563E+04 E0= -.23301563E+04  d E =-.221024E-02  mag=     4.0000
       N       E                     dE             d eps       ncg     rms          rms(c)
DAV:   1    -0.230938857836E+04    0.10390E-01   -0.74166E-01  4464   0.817E-01    0.274E-01
RMM:   2    -0.230940029281E+04   -0.11714E-01   -0.11694E-01  6151   0.168E-01    0.289E-01
RMM:   3    -0.230940053632E+04   -0.24351E-03   -0.12023E-02  5364   0.669E-02    0.167E-01
RMM:   4    -0.230940023877E+04    0.29756E-03   -0.13192E-03  4205   0.145E-02    0.731E-02
RMM:   5    -0.230940018328E+04    0.55486E-04   -0.16856E-04  3290   0.885E-03    0.669E-02
RMM:   6    -0.230940014766E+04    0.35619E-04   -0.16537E-04  3476   0.864E-03    0.427E-02
RMM:   7    -0.230940013319E+04    0.14475E-04   -0.41118E-05  2937   0.628E-03    0.926E-03
RMM:   8    -0.230940013157E+04    0.16213E-05   -0.80713E-06  2862   0.402E-03
  34 F= -.23301570E+04 E0= -.23301570E+04  d E =-.294428E-02  mag=     4.0000
       N       E                     dE             d eps       ncg     rms          rms(c)
DAV:   1    -0.230938956621E+04    0.10567E-01   -0.71359E-01  4464   0.775E-01    0.294E-01
RMM:   2    -0.230940366593E+04   -0.14100E-01   -0.13779E-01  6089   0.169E-01    0.336E-01
RMM:   3    -0.230940367463E+04   -0.86994E-05   -0.13997E-02  5505   0.634E-02    0.166E-01
RMM:   4    -0.230940334698E+04    0.32765E-03   -0.15759E-03  4268   0.146E-02    0.714E-02
RMM:   5    -0.230940328685E+04    0.60128E-04   -0.14925E-04  3247   0.870E-03    0.611E-02
RMM:   6    -0.230940326507E+04    0.21787E-04   -0.14878E-04  3295   0.823E-03    0.471E-02
RMM:   7    -0.230940324615E+04    0.18919E-04   -0.51936E-05  2959   0.663E-03    0.981E-03
RMM:   8    -0.230940324460E+04    0.15511E-05   -0.98312E-06  2866   0.423E-03
  35 F= -.23301597E+04 E0= -.23301597E+04  d E =-.272516E-02  mag=     4.0000
       N       E                     dE             d eps       ncg     rms          rms(c)
DAV:   1    -0.230938793836E+04    0.15308E-01   -0.87248E-01  4464   0.858E-01    0.326E-01
RMM:   2    -0.230940517966E+04   -0.17241E-01   -0.16862E-01  6090   0.188E-01    0.371E-01
RMM:   3    -0.230940520425E+04   -0.24588E-04   -0.17144E-02  5574   0.708E-02    0.183E-01
RMM:   4    -0.230940480550E+04    0.39875E-03   -0.19309E-03  4472   0.161E-02    0.790E-02
RMM:   5    -0.230940472501E+04    0.80481E-04   -0.18611E-04  3528   0.972E-03    0.638E-02
RMM:   6    -0.230940470813E+04    0.16882E-04   -0.18428E-04  3462   0.883E-03    0.559E-02
RMM:   7    -0.230940467993E+04    0.28207E-04   -0.61749E-05  2987   0.703E-03    0.113E-02
RMM:   8    -0.230940467767E+04    0.22555E-05   -0.11657E-05  2876   0.431E-03
  36 F= -.23301607E+04 E0= -.23301607E+04  d E =-.371828E-02  mag=     4.0000
       N       E                     dE             d eps       ncg     rms          rms(c)
DAV:   1    -0.230939447506E+04    0.10205E-01   -0.57945E-01  4480   0.650E-01    0.274E-01
RMM:   2    -0.230940780344E+04   -0.13328E-01   -0.13094E-01  6263   0.151E-01    0.308E-01
RMM:   3    -0.230940797847E+04   -0.17503E-03   -0.13539E-02  5364   0.572E-02    0.151E-01
RMM:   4    -0.230940771946E+04    0.25902E-03   -0.14861E-03  3603   0.129E-02    0.651E-02
RMM:   5    -0.230940766267E+04    0.56791E-04   -0.10837E-04  3006   0.707E-03    0.447E-02
RMM:   6    -0.230940766603E+04   -0.33648E-05   -0.12048E-04  3151   0.709E-03    0.514E-02
RMM:   7    -0.230940764420E+04    0.21829E-04   -0.46045E-05  2888   0.583E-03    0.106E-02
RMM:   8    -0.230940764344E+04    0.75866E-06   -0.73041E-06  2833   0.314E-03
  37 F= -.23301634E+04 E0= -.23301634E+04  d E =-.270255E-02  mag=     4.0000
       N       E                     dE             d eps       ncg     rms          rms(c)
DAV:   1    -0.230931268035E+04    0.94964E-01   -0.43232E+00  4464   0.178E+00    0.754E-01
RMM:   2    -0.230941327255E+04   -0.10059E+00   -0.98569E-01  6266   0.416E-01    0.871E-01
RMM:   3    -0.230941365099E+04   -0.37844E-03   -0.10197E-01  5925   0.156E-01    0.404E-01
RMM:   4    -0.230941198846E+04    0.16625E-02   -0.11050E-02  5163   0.340E-02    0.179E-01
RMM:   5    -0.230941159541E+04    0.39305E-03   -0.82149E-04  4467   0.172E-02    0.134E-01
RMM:   6    -0.230941154250E+04    0.52907E-04   -0.79779E-04  4580   0.150E-02    0.129E-01
RMM:   7    -0.230941140525E+04    0.13726E-03   -0.31489E-04  3833   0.118E-02    0.267E-02
RMM:   8    -0.230941139913E+04    0.61157E-05   -0.44957E-05  2925   0.525E-03
  38 F= -.23301664E+04 E0= -.23301664E+04  d E =-.569209E-02  mag=     4.0000
       N       E                     dE             d eps       ncg     rms          rms(c)
DAV:   1    -0.230940388198E+04    0.75233E-02   -0.40239E-01  4576   0.518E-01    0.229E-01
RMM:   2    -0.230941371143E+04   -0.98294E-02   -0.97195E-02  6406   0.125E-01    0.250E-01
RMM:   3    -0.230941395996E+04   -0.24853E-03   -0.99884E-03  5013   0.466E-02    0.127E-01
RMM:   4    -0.230941378549E+04    0.17447E-03   -0.11079E-03  3283   0.108E-02    0.560E-02
RMM:   5    -0.230941374373E+04    0.41761E-04   -0.65912E-05  2894   0.565E-03    0.350E-02
RMM:   6    -0.230941374186E+04    0.18764E-05   -0.95862E-05  3109   0.619E-03
  39 F= -.23301685E+04 E0= -.23301685E+04  d E =-.210245E-02  mag=     4.0000
       N       E                     dE             d eps       ncg     rms          rms(c)
DAV:   1    -0.230932975176E+04    0.83992E-01   -0.36082E+00  4464   0.155E+00    0.692E-01
RMM:   2    -0.230941811738E+04   -0.88366E-01   -0.87043E-01  6386   0.377E-01    0.782E-01
RMM:   3    -0.230942007444E+04   -0.19571E-02   -0.94364E-02  6016   0.143E-01    0.375E-01
RMM:   4    -0.230941869711E+04    0.13773E-02   -0.10193E-02  5182   0.308E-02    0.164E-01
RMM:   5    -0.230941840667E+04    0.29044E-03   -0.58753E-04  3924   0.136E-02    0.130E-01
RMM:   6    -0.230941832879E+04    0.77880E-04   -0.63492E-04  4199   0.131E-02    0.112E-01
RMM:   7    -0.230941822773E+04    0.10107E-03   -0.27656E-04  3605   0.106E-02    0.244E-02
RMM:   8    -0.230941822437E+04    0.33564E-05   -0.36606E-05  2936   0.549E-03
  40 F= -.23301722E+04 E0= -.23301722E+04  d E =-.582490E-02  mag=     4.0000
       N       E                     dE             d eps       ncg     rms          rms(c)
DAV:   1    -0.230939936901E+04    0.18859E-01   -0.80117E-01  4472   0.733E-01    0.323E-01
RMM:   2    -0.230941887422E+04   -0.19505E-01   -0.19266E-01  6389   0.177E-01    0.355E-01
RMM:   3    -0.230941940070E+04   -0.52649E-03   -0.20440E-02  5506   0.663E-02    0.176E-01
RMM:   4    -0.230941907432E+04    0.32638E-03   -0.22368E-03  3792   0.148E-02    0.774E-02
RMM:   5    -0.230941899300E+04    0.81321E-04   -0.12923E-04  3016   0.744E-03    0.496E-02
RMM:   6    -0.230941899751E+04   -0.45087E-05   -0.18245E-04  3405   0.816E-03    0.533E-02
RMM:   7    -0.230941897308E+04    0.24429E-04   -0.46178E-05  2890   0.569E-03    0.135E-02
RMM:   8    -0.230941897218E+04    0.90472E-06   -0.75531E-06  2810   0.254E-03
  41 F= -.23301726E+04 E0= -.23301726E+04  d E =-.619590E-02  mag=     4.0000
       N       E                     dE             d eps       ncg     rms          rms(c)
DAV:   1    -0.230940682580E+04    0.12147E-01   -0.60817E-01  4496   0.623E-01    0.282E-01
RMM:   2    -0.230942183581E+04   -0.15010E-01   -0.14900E-01  6349   0.152E-01    0.299E-01
RMM:   3    -0.230942238525E+04   -0.54944E-03   -0.15828E-02  5351   0.587E-02    0.158E-01
RMM:   4    -0.230942210640E+04    0.27884E-03   -0.17016E-03  3571   0.130E-02    0.677E-02
RMM:   5    -0.230942204115E+04    0.65250E-04   -0.10184E-04  2970   0.652E-03    0.424E-02
RMM:   6    -0.230942203455E+04    0.66005E-05   -0.15003E-04  3524   0.737E-03    0.381E-02
RMM:   7    -0.230942202217E+04    0.12387E-04   -0.27898E-05  2859   0.491E-03    0.114E-02
RMM:   8    -0.230942202095E+04    0.12128E-05   -0.47469E-06  2743   0.192E-03
  42 F= -.23301752E+04 E0= -.23301752E+04  d E =-.262441E-02  mag=     4.0000
       N       E                     dE             d eps       ncg     rms          rms(c)
DAV:   1    -0.230929059443E+04    0.13143E+00   -0.54651E+00  4464   0.187E+00    0.845E-01
RMM:   2    -0.230942568051E+04   -0.13509E+00   -0.13432E+00  6450   0.464E-01    0.893E-01
RMM:   3    -0.230943150109E+04   -0.58206E-02   -0.14852E-01  6111   0.176E-01    0.485E-01
RMM:   4    -0.230942905427E+04    0.24468E-02   -0.15569E-02  5420   0.383E-02    0.208E-01
RMM:   5    -0.230942857447E+04    0.47980E-03   -0.95397E-04  4145   0.161E-02    0.159E-01
RMM:   6    -0.230942842495E+04    0.14951E-03   -0.10617E-03  4712   0.162E-02    0.142E-01
RMM:   7    -0.230942825190E+04    0.17305E-03   -0.47364E-04  4200   0.130E-02    0.310E-02
RMM:   8    -0.230942824111E+04    0.10794E-04   -0.53872E-05  2960   0.579E-03    0.238E-02
RMM:   9    -0.230942823634E+04    0.47740E-05   -0.34466E-05  2871   0.464E-03
  43 F= -.23301801E+04 E0= -.23301801E+04  d E =-.751750E-02  mag=     4.0000
       N       E                     dE             d eps       ncg     rms          rms(c)
DAV:   1    -0.230886617289E+04    0.56207E+00   -0.21817E+01  4464   0.376E+00    0.170E+00
RMM:   2    -0.230941567879E+04   -0.54951E+00   -0.54783E+00  6507   0.962E-01    0.177E+00
RMM:   3    -0.230944197808E+04   -0.26299E-01   -0.60959E-01  6236   0.357E-01    0.101E+00
RMM:   4    -0.230943121673E+04    0.10761E-01   -0.61704E-02  5820   0.778E-02    0.440E-01
RMM:   5    -0.230942955811E+04    0.16586E-02   -0.39433E-03  5064   0.295E-02    0.363E-01
RMM:   6    -0.230942819176E+04    0.13664E-02   -0.39757E-03  5407   0.297E-02    0.235E-01
RMM:   7    -0.230942772574E+04    0.46602E-03   -0.21173E-03  5075   0.253E-02    0.661E-02
RMM:   8    -0.230942768951E+04    0.36226E-04   -0.26215E-04  3973   0.112E-02    0.482E-02
RMM:   9    -0.230942766351E+04    0.26002E-04   -0.12344E-04  3161   0.757E-03    0.255E-02
RMM:  10    -0.230942766330E+04    0.21256E-06   -0.33573E-05  2913   0.484E-03
  44 F= -.23301767E+04 E0= -.23301767E+04  d E =-.412195E-02  mag=     4.0000
       N       E                     dE             d eps       ncg     rms          rms(c)
DAV:   1    -0.230915522017E+04    0.27244E+00   -0.10784E+01  4464   0.265E+00    0.121E+00
RMM:   2    -0.230942732461E+04   -0.27210E+00   -0.26938E+00  6462   0.661E-01    0.136E+00
RMM:   3    -0.230943620087E+04   -0.88763E-02   -0.31034E-01  6158   0.261E-01    0.678E-01
RMM:   4    -0.230943153843E+04    0.46624E-02   -0.30857E-02  5564   0.551E-02    0.304E-01
RMM:   5    -0.230943076034E+04    0.77809E-03   -0.22753E-03  4782   0.225E-02    0.257E-01
RMM:   6    -0.230943015014E+04    0.61020E-03   -0.17614E-03  4965   0.198E-02    0.174E-01
RMM:   7    -0.230942987447E+04    0.27567E-03   -0.10343E-03  4904   0.191E-02    0.497E-02
RMM:   8    -0.230942986961E+04    0.48600E-05   -0.16846E-04  3337   0.810E-03    0.358E-02
RMM:   9    -0.230942986495E+04    0.46526E-05   -0.65915E-05  2913   0.618E-03
  45 F= -.23301809E+04 E0= -.23301809E+04  d E =-.832955E-02  mag=     4.0000
       N       E                     dE             d eps       ncg     rms          rms(c)
DAV:   1    -0.230937776668E+04    0.52103E-01   -0.22693E+00  4480   0.117E+00    0.548E-01
RMM:   2    -0.230943484185E+04   -0.57075E-01   -0.56961E-01  6495   0.291E-01    0.572E-01
RMM:   3    -0.230943759567E+04   -0.27538E-02   -0.63012E-02  6016   0.113E-01    0.321E-01
RMM:   4    -0.230943648845E+04    0.11072E-02   -0.65802E-03  4877   0.246E-02    0.132E-01
RMM:   5    -0.230943628900E+04    0.19945E-03   -0.37054E-04  3268   0.998E-03    0.993E-02
RMM:   6    -0.230943624485E+04    0.44151E-04   -0.42284E-04  3849   0.108E-02    0.943E-02
RMM:   7    -0.230943616484E+04    0.80007E-04   -0.18801E-04  3249   0.854E-03    0.160E-02
RMM:   8    -0.230943616170E+04    0.31459E-05   -0.21709E-05  2912   0.470E-03
  46 F= -.23301863E+04 E0= -.23301863E+04  d E =-.530359E-02  mag=     4.0000
       N       E                     dE             d eps       ncg     rms          rms(c)
DAV:   1    -0.230890792121E+04    0.52824E+00   -0.20393E+01  4464   0.351E+00    0.165E+00
RMM:   2    -0.230942982473E+04   -0.52190E+00   -0.52414E+00  6536   0.911E-01    0.165E+00
RMM:   3    -0.230946300500E+04   -0.33180E-01   -0.60031E-01  6218   0.345E-01    0.105E+00
RMM:   4    -0.230945160673E+04    0.11398E-01   -0.60018E-02  5874   0.758E-02    0.446E-01
RMM:   5    -0.230945009668E+04    0.15101E-02   -0.38271E-03  4865   0.260E-02    0.362E-01
RMM:   6    -0.230944864631E+04    0.14504E-02   -0.34250E-03  5332   0.270E-02    0.222E-01
RMM:   7    -0.230944820224E+04    0.44407E-03   -0.21269E-03  5114   0.240E-02    0.656E-02
RMM:   8    -0.230944817816E+04    0.24081E-04   -0.24066E-04  3645   0.108E-02    0.424E-02
RMM:   9    -0.230944815543E+04    0.22730E-04   -0.94175E-05  2954   0.660E-03    0.182E-02
RMM:  10    -0.230944815669E+04   -0.12534E-05   -0.22265E-05  2900   0.397E-03
  47 F= -.23301952E+04 E0= -.23301952E+04  d E =-.142193E-01  mag=     4.0000
       N       E                     dE             d eps       ncg     rms          rms(c)
DAV:   1    -0.230940713932E+04    0.41016E-01   -0.16423E+00  4512   0.995E-01    0.468E-01
RMM:   2    -0.230944859983E+04   -0.41461E-01   -0.41321E-01  6522   0.249E-01    0.494E-01
RMM:   3    -0.230945057672E+04   -0.19769E-02   -0.45787E-02  5964   0.959E-02    0.277E-01
RMM:   4    -0.230944976451E+04    0.81220E-03   -0.48086E-03  4529   0.211E-02    0.113E-01
RMM:   5    -0.230944962783E+04    0.13668E-03   -0.26275E-04  3133   0.863E-03    0.894E-02
RMM:   6    -0.230944957762E+04    0.50207E-04   -0.29415E-04  3561   0.924E-03    0.769E-02
RMM:   7    -0.230944952775E+04    0.49877E-04   -0.14456E-04  3173   0.777E-03    0.159E-02
RMM:   8    -0.230944952586E+04    0.18885E-05   -0.16689E-05  2908   0.448E-03
  48 F= -.23301956E+04 E0= -.23301956E+04  d E =-.146985E-01  mag=     4.0000
       N       E                     dE             d eps       ncg     rms          rms(c)
DAV:   1    -0.230931723992E+04    0.13229E+00   -0.54219E+00  4448   0.179E+00    0.862E-01
RMM:   2    -0.230945458437E+04   -0.13734E+00   -0.13748E+00  6481   0.450E-01    0.883E-01
RMM:   3    -0.230946213927E+04   -0.75549E-02   -0.15917E-01  6155   0.176E-01    0.521E-01
RMM:   4    -0.230945938150E+04    0.27578E-02   -0.16048E-02  5562   0.386E-02    0.230E-01
RMM:   5    -0.230945899378E+04    0.38772E-03   -0.10318E-03  3782   0.144E-02    0.191E-01
RMM:   6    -0.230945858846E+04    0.40532E-03   -0.95167E-04  4672   0.155E-02    0.108E-01
RMM:   7    -0.230945849013E+04    0.98330E-04   -0.52088E-04  4333   0.132E-02    0.289E-02
RMM:   8    -0.230945848358E+04    0.65442E-05   -0.53804E-05  3002   0.634E-03
  49 F= -.23302029E+04 E0= -.23302029E+04  d E =-.726319E-02  mag=     4.0000
       N       E                     dE             d eps       ncg     rms          rms(c)
DAV:   1    -0.230892202329E+04    0.53647E+00   -0.20363E+01  4448   0.347E+00    0.168E+00
RMM:   2    -0.230944840682E+04   -0.52638E+00   -0.52846E+00  6524   0.909E-01    0.169E+00
RMM:   3    -0.230947853824E+04   -0.30131E-01   -0.61248E-01  6217   0.347E-01    0.103E+00
RMM:   4    -0.230946831921E+04    0.10219E-01   -0.61247E-02  5959   0.758E-02    0.497E-01
RMM:   5    -0.230946654957E+04    0.17696E-02   -0.44846E-03  5004   0.278E-02    0.379E-01
RMM:   6    -0.230946474004E+04    0.18095E-02   -0.35432E-03  5433   0.284E-02    0.202E-01
RMM:   7    -0.230946437690E+04    0.36314E-03   -0.21711E-03  5078   0.243E-02    0.628E-02
RMM:   8    -0.230946434955E+04    0.27350E-04   -0.23769E-04  4080   0.113E-02    0.429E-02
RMM:   9    -0.230946432858E+04    0.20975E-04   -0.10087E-04  3154   0.700E-03    0.182E-02
RMM:  10    -0.230946433293E+04   -0.43509E-05   -0.24264E-05  2907   0.462E-03
  50 F= -.23302055E+04 E0= -.23302055E+04  d E =-.986099E-02  mag=     4.0000
       N       E                     dE             d eps       ncg     rms          rms(c)
DAV:   1    -0.230940466831E+04    0.59660E-01   -0.22821E+00  4488   0.116E+00    0.563E-01
RMM:   2    -0.230946292783E+04   -0.58260E-01   -0.57919E-01  6432   0.289E-01    0.609E-01
RMM:   3    -0.230946550051E+04   -0.25727E-02   -0.67610E-02  6035   0.119E-01    0.320E-01
RMM:   4    -0.230946447891E+04    0.10216E-02   -0.65924E-03  4937   0.249E-02    0.136E-01
RMM:   5    -0.230946424550E+04    0.23341E-03   -0.41212E-04  3465   0.110E-02    0.889E-02
RMM:   6    -0.230946423817E+04    0.73255E-05   -0.48235E-04  4188   0.116E-02    0.961E-02
RMM:   7    -0.230946414677E+04    0.91403E-04   -0.16244E-04  3160   0.859E-03    0.242E-02
RMM:   8    -0.230946414272E+04    0.40473E-05   -0.27015E-05  2920   0.405E-03
  51 F= -.23302064E+04 E0= -.23302064E+04  d E =-.107500E-01  mag=     4.0000
       N       E                     dE             d eps       ncg     rms          rms(c)
DAV:   1    -0.230930949598E+04    0.15465E+00   -0.62424E+00  4448   0.187E+00    0.936E-01
RMM:   2    -0.230946730285E+04   -0.15781E+00   -0.15883E+00  6495   0.476E-01    0.903E-01
RMM:   3    -0.230947648764E+04   -0.91848E-02   -0.18206E-01  6187   0.190E-01    0.548E-01
RMM:   4    -0.230947346811E+04    0.30195E-02   -0.18531E-02  5671   0.419E-02    0.261E-01
RMM:   5    -0.230947299533E+04    0.47278E-03   -0.13192E-03  3981   0.156E-02    0.204E-01
RMM:   6    -0.230947252067E+04    0.47466E-03   -0.10424E-03  4749   0.160E-02    0.110E-01
RMM:   7    -0.230947243014E+04    0.90535E-04   -0.57872E-04  4368   0.134E-02    0.356E-02
RMM:   8    -0.230947242417E+04    0.59613E-05   -0.60640E-05  3013   0.663E-03
  52 F= -.23302129E+04 E0= -.23302129E+04  d E =-.649370E-02  mag=     4.0000
       N       E                     dE             d eps       ncg     rms          rms(c)
DAV:   1    -0.230934994670E+04    0.12248E+00   -0.47814E+00  4456   0.164E+00    0.817E-01
RMM:   2    -0.230947059657E+04   -0.12065E+00   -0.12176E+00  6515   0.420E-01    0.773E-01
RMM:   3    -0.230947802448E+04   -0.74279E-02   -0.13935E-01  6170   0.163E-01    0.479E-01
RMM:   4    -0.230947574303E+04    0.22814E-02   -0.14238E-02  5622   0.366E-02    0.228E-01
RMM:   5    -0.230947538820E+04    0.35484E-03   -0.10256E-03  3713   0.139E-02    0.180E-01
RMM:   6    -0.230947503067E+04    0.35753E-03   -0.82693E-04  4606   0.145E-02    0.984E-02
RMM:   7    -0.230947496607E+04    0.64597E-04   -0.45041E-04  4204   0.120E-02    0.340E-02
RMM:   8    -0.230947496200E+04    0.40707E-05   -0.47578E-05  2986   0.624E-03
  53 F= -.23302139E+04 E0= -.23302139E+04  d E =-.749619E-02  mag=     4.0000
       N       E                     dE             d eps       ncg     rms          rms(c)
DAV:   1    -0.230931960461E+04    0.15536E+00   -0.58969E+00  4464   0.176E+00    0.905E-01
RMM:   2    -0.230947350255E+04   -0.15390E+00   -0.15618E+00  6584   0.467E-01    0.812E-01
RMM:   3    -0.230948448630E+04   -0.10984E-01   -0.17752E-01  6229   0.181E-01    0.540E-01
RMM:   4    -0.230948181041E+04    0.26759E-02   -0.18710E-02  5624   0.412E-02    0.258E-01
RMM:   5    -0.230948136264E+04    0.44777E-03   -0.12844E-03  3747   0.145E-02    0.199E-01
RMM:   6    -0.230948095731E+04    0.40533E-03   -0.91056E-04  4176   0.143E-02    0.112E-01
RMM:   7    -0.230948085286E+04    0.10445E-03   -0.56306E-04  4267   0.126E-02    0.355E-02
RMM:   8    -0.230948084907E+04    0.37971E-05   -0.62124E-05  3015   0.659E-03
  54 F= -.23302182E+04 E0= -.23302182E+04  d E =-.429813E-02  mag=     4.0000
       N       E                     dE             d eps       ncg     rms          rms(c)
DAV:   1    -0.230946407792E+04    0.16775E-01   -0.64168E-01  4704   0.580E-01    0.298E-01
RMM:   2    -0.230948079745E+04   -0.16720E-01   -0.16977E-01  6562   0.153E-01    0.265E-01
RMM:   3    -0.230948196439E+04   -0.11669E-02   -0.18619E-02  5462   0.587E-02    0.177E-01
RMM:   4    -0.230948166804E+04    0.29636E-03   -0.20348E-03  3531   0.137E-02    0.802E-02
RMM:   5    -0.230948162495E+04    0.43085E-04   -0.12253E-04  2896   0.584E-03    0.650E-02
RMM:   6    -0.230948158595E+04    0.39004E-04   -0.10487E-04  2935   0.546E-03    0.383E-02
RMM:   7    -0.230948157710E+04    0.88462E-05   -0.57878E-05  2947   0.501E-03
  55 F= -.23302184E+04 E0= -.23302184E+04  d E =-.451295E-02  mag=     4.0000
       N       E                     dE             d eps       ncg     rms          rms(c)
DAV:   1    -0.230938263882E+04    0.98947E-01   -0.39895E+00  4448   0.158E+00    0.749E-01
RMM:   2    -0.230948218211E+04   -0.99543E-01   -0.10206E+00  6498   0.408E-01    0.564E-01
RMM:   3    -0.230949085600E+04   -0.86739E-02   -0.11171E-01  6185   0.154E-01    0.461E-01
RMM:   4    -0.230948867921E+04    0.21768E-02   -0.11775E-02  5647   0.356E-02    0.197E-01
RMM:   5    -0.230948840582E+04    0.27340E-03   -0.86033E-04  3814   0.136E-02    0.153E-01
RMM:   6    -0.230948818776E+04    0.21805E-03   -0.65895E-04  4515   0.133E-02    0.999E-02
RMM:   7    -0.230948808981E+04    0.97958E-04   -0.36861E-04  4463   0.116E-02    0.268E-02
RMM:   8    -0.230948808281E+04    0.69980E-05   -0.33302E-05  2950   0.592E-03
  56 F= -.23302236E+04 E0= -.23302236E+04  d E =-.520967E-02  mag=     4.0000
       N       E                     dE             d eps       ncg     rms          rms(c)
DAV:   1    -0.230947289542E+04    0.15194E-01   -0.60664E-01  4560   0.618E-01    0.293E-01
RMM:   2    -0.230948803735E+04   -0.15142E-01   -0.15504E-01  6502   0.159E-01    0.223E-01
RMM:   3    -0.230948931121E+04   -0.12739E-02   -0.16758E-02  5479   0.595E-02    0.178E-01
RMM:   4    -0.230948897614E+04    0.33507E-03   -0.18009E-03  3656   0.141E-02    0.746E-02
RMM:   5    -0.230948893467E+04    0.41468E-04   -0.13062E-04  2936   0.648E-03    0.588E-02
RMM:   6    -0.230948890311E+04    0.31563E-04   -0.10191E-04  3081   0.604E-03    0.399E-02
RMM:   7    -0.230948888867E+04    0.14440E-04   -0.56679E-05  2998   0.580E-03    0.970E-03
RMM:   8    -0.230948888814E+04    0.53190E-06   -0.79757E-06  2868   0.379E-03
  57 F= -.23302239E+04 E0= -.23302239E+04  d E =-.551753E-02  mag=     4.0000
       N       E                     dE             d eps       ncg     rms          rms(c)
DAV:   1    -0.230942282985E+04    0.66059E-01   -0.25442E+00  4456   0.129E+00    0.597E-01
RMM:   2    -0.230948915379E+04   -0.66324E-01   -0.67850E-01  6514   0.335E-01    0.473E-01
RMM:   3    -0.230949504761E+04   -0.58938E-02   -0.74828E-02  6175   0.124E-01    0.391E-01
RMM:   4    -0.230949350307E+04    0.15445E-02   -0.78450E-03  5271   0.289E-02    0.149E-01
RMM:   5    -0.230949334505E+04    0.15802E-03   -0.51993E-04  3379   0.107E-02    0.120E-01
RMM:   6    -0.230949322686E+04    0.11818E-03   -0.39508E-04  3689   0.106E-02    0.834E-02
RMM:   7    -0.230949315593E+04    0.70934E-04   -0.23284E-04  4064   0.969E-03    0.198E-02
RMM:   8    -0.230949315234E+04    0.35870E-05   -0.22746E-05  2925   0.553E-03
  58 F= -.23302272E+04 E0= -.23302272E+04  d E =-.326909E-02  mag=     4.0000
       N       E                     dE             d eps       ncg     rms          rms(c)
DAV:   1    -0.230948037123E+04    0.12785E-01   -0.48525E-01  4464   0.561E-01    0.262E-01
RMM:   2    -0.230949306702E+04   -0.12696E-01   -0.12967E-01  6513   0.146E-01    0.212E-01
RMM:   3    -0.230949412679E+04   -0.10598E-02   -0.13998E-02  5362   0.538E-02    0.169E-01
RMM:   4    -0.230949382951E+04    0.29728E-03   -0.14966E-03  3465   0.130E-02    0.645E-02
RMM:   5    -0.230949379968E+04    0.29831E-04   -0.10250E-04  2920   0.575E-03    0.525E-02
RMM:   6    -0.230949377767E+04    0.22010E-04   -0.77171E-05  2943   0.527E-03    0.372E-02
RMM:   7    -0.230949376452E+04    0.13152E-04   -0.43858E-05  2946   0.513E-03    0.809E-03
RMM:   8    -0.230949376414E+04    0.37727E-06   -0.57931E-06  2858   0.337E-03
  59 F= -.23302274E+04 E0= -.23302274E+04  d E =-.345197E-02  mag=     4.0000
       N       E                     dE             d eps       ncg     rms          rms(c)
DAV:   1    -0.230946685668E+04    0.26908E-01   -0.13393E+00  4504   0.103E+00    0.422E-01
RMM:   2    -0.230949537842E+04   -0.28522E-01   -0.28936E-01  6284   0.237E-01    0.363E-01
RMM:   3    -0.230949739081E+04   -0.20124E-02   -0.31267E-02  5955   0.912E-02    0.275E-01
RMM:   4    -0.230949657661E+04    0.81420E-03   -0.34338E-03  4999   0.216E-02    0.100E-01
RMM:   5    -0.230949649825E+04    0.78354E-04   -0.30895E-04  3453   0.100E-02    0.837E-02
RMM:   6    -0.230949644153E+04    0.56723E-04   -0.23363E-04  3804   0.945E-03    0.597E-02
RMM:   7    -0.230949640782E+04    0.33707E-04   -0.98859E-05  3435   0.786E-03    0.159E-02
RMM:   8    -0.230949640568E+04    0.21416E-05   -0.15093E-05  2896   0.506E-03
  60 F= -.23302294E+04 E0= -.23302294E+04  d E =-.202230E-02  mag=     4.0000
       N       E                     dE             d eps       ncg     rms          rms(c)
DAV:   1    -0.230949539413E+04    0.10137E-02   -0.52203E-02  4832   0.204E-01    0.834E-02
RMM:   2    -0.230949651125E+04   -0.11171E-02   -0.11331E-02  6336   0.478E-02    0.712E-02
RMM:   3    -0.230949658912E+04   -0.77872E-04   -0.12139E-03  3304   0.183E-02    0.534E-02
RMM:   4    -0.230949655861E+04    0.30513E-04   -0.13625E-04  2943   0.552E-03    0.205E-02
RMM:   5    -0.230949655504E+04    0.35668E-05   -0.13158E-05  2795   0.274E-03
  61 F= -.23302294E+04 E0= -.23302294E+04  d E =-.205026E-02  mag=     4.0000
       N       E                     dE             d eps       ncg     rms          rms(c)
DAV:   1    -0.230947520179E+04    0.21357E-01   -0.12462E+00  4472   0.103E+00    0.376E-01
RMM:   2    -0.230949879102E+04   -0.23589E-01   -0.23570E-01  6258   0.220E-01    0.390E-01
RMM:   3    -0.230949979087E+04   -0.99985E-03   -0.26263E-02  5918   0.854E-02    0.232E-01
RMM:   4    -0.230949927139E+04    0.51948E-03   -0.28035E-03  4613   0.193E-02    0.921E-02
RMM:   5    -0.230949919756E+04    0.73833E-04   -0.21981E-04  3406   0.957E-03    0.750E-02
RMM:   6    -0.230949916752E+04    0.30039E-04   -0.20859E-04  3574   0.925E-03    0.608E-02
RMM:   7    -0.230949913636E+04    0.31161E-04   -0.74020E-05  3108   0.748E-03    0.129E-02
RMM:   8    -0.230949913552E+04    0.83252E-06   -0.12877E-05  2884   0.477E-03
  62 F= -.23302317E+04 E0= -.23302317E+04  d E =-.225669E-02  mag=     4.0000
       N       E                     dE             d eps       ncg     rms          rms(c)
DAV:   1    -0.230948231610E+04    0.16820E-01   -0.89011E-01  4472   0.872E-01    0.320E-01
RMM:   2    -0.230949919955E+04   -0.16883E-01   -0.16883E-01  6243   0.186E-01    0.330E-01
RMM:   3    -0.230949992749E+04   -0.72794E-03   -0.18726E-02  5771   0.707E-02    0.198E-01
RMM:   4    -0.230949954847E+04    0.37901E-03   -0.20019E-03  4175   0.164E-02    0.765E-02
RMM:   5    -0.230949949628E+04    0.52192E-04   -0.15354E-04  3137   0.815E-03    0.627E-02
RMM:   6    -0.230949947380E+04    0.22480E-04   -0.14769E-04  3210   0.815E-03    0.502E-02
RMM:   7    -0.230949945215E+04    0.21650E-04   -0.54664E-05  3018   0.679E-03    0.108E-02
RMM:   8    -0.230949945163E+04    0.52353E-06   -0.10084E-05  2883   0.443E-03
  63 F= -.23302317E+04 E0= -.23302317E+04  d E =-.230625E-02  mag=     4.0000
       N       E                     dE             d eps       ncg     rms          rms(c)
DAV:   1    -0.230949654988E+04    0.29023E-02   -0.15614E-01  4496   0.365E-01    0.134E-01
RMM:   2    -0.230949950323E+04   -0.29533E-02   -0.29510E-02  6264   0.779E-02    0.141E-01
RMM:   3    -0.230949962044E+04   -0.11721E-03   -0.32378E-03  4222   0.304E-02    0.838E-02
RMM:   4    -0.230949954844E+04    0.72001E-04   -0.34009E-04  3011   0.791E-03    0.309E-02
RMM:   5    -0.230949953483E+04    0.13605E-04   -0.29103E-05  2886   0.439E-03    0.173E-02
RMM:   6    -0.230949953154E+04    0.32936E-05   -0.22033E-05  2927   0.418E-03
  64 F= -.23302319E+04 E0= -.23302319E+04  d E =-.249696E-02  mag=     4.0000
       N       E                     dE             d eps       ncg     rms          rms(c)
DAV:   1    -0.230947770551E+04    0.21829E-01   -0.13978E+00  4456   0.112E+00    0.378E-01
RMM:   2    -0.230950089365E+04   -0.23188E-01   -0.23484E-01  6277   0.230E-01    0.350E-01
RMM:   3    -0.230950236757E+04   -0.14739E-02   -0.26313E-02  5922   0.888E-02    0.246E-01
RMM:   4    -0.230950174497E+04    0.62259E-03   -0.26274E-03  4753   0.201E-02    0.950E-02
RMM:   5    -0.230950164255E+04    0.10243E-03   -0.27910E-04  3730   0.106E-02    0.667E-02
RMM:   6    -0.230950163242E+04    0.10130E-04   -0.23145E-04  3846   0.989E-03    0.680E-02
RMM:   7    -0.230950158744E+04    0.44980E-04   -0.74218E-05  3043   0.742E-03    0.130E-02
RMM:   8    -0.230950158582E+04    0.16166E-05   -0.14529E-05  2893   0.436E-03
  65 F= -.23302337E+04 E0= -.23302337E+04  d E =-.177450E-02  mag=     4.0000
       N       E                     dE             d eps       ncg     rms          rms(c)
DAV:   1    -0.230950085087E+04    0.73657E-03   -0.46091E-02  4752   0.203E-01    0.689E-02
RMM:   2    -0.230950162049E+04   -0.76962E-03   -0.78044E-03  6230   0.428E-02    0.622E-02
RMM:   3    -0.230950167168E+04   -0.51198E-04   -0.86838E-04  3202   0.162E-02    0.446E-02
RMM:   4    -0.230950165182E+04    0.19863E-04   -0.89024E-05  2924   0.491E-03    0.178E-02
RMM:   5    -0.230950164788E+04    0.39447E-05   -0.10432E-05  2806   0.264E-03
  66 F= -.23302337E+04 E0= -.23302337E+04  d E =-.178669E-02  mag=     4.0000
       N       E                     dE             d eps       ncg     rms          rms(c)
DAV:   1    -0.230948798201E+04    0.13670E-01   -0.10189E+00  4440   0.991E-01    0.300E-01
RMM:   2    -0.230950260265E+04   -0.14621E-01   -0.15088E-01  6175   0.196E-01    0.238E-01
RMM:   3    -0.230950387359E+04   -0.12709E-02   -0.16704E-02  5719   0.763E-02    0.206E-01
RMM:   4    -0.230950344601E+04    0.42757E-03   -0.16217E-03  4325   0.170E-02    0.788E-02
RMM:   5    -0.230950336573E+04    0.80281E-04   -0.19489E-04  3685   0.971E-03    0.404E-02
RMM:   6    -0.230950335797E+04    0.77554E-05   -0.11545E-04  3849   0.912E-03    0.289E-02
RMM:   7    -0.230950335145E+04    0.65249E-05   -0.21303E-05  2886   0.573E-03
  67 F= -.23302353E+04 E0= -.23302353E+04  d E =-.158246E-02  mag=     4.0000
       N       E                     dE             d eps       ncg     rms          rms(c)
DAV:   1    -0.230949743722E+04    0.59208E-02   -0.40038E-01  4440   0.621E-01    0.191E-01
RMM:   2    -0.230950323348E+04   -0.57963E-02   -0.59639E-02  6161   0.124E-01    0.159E-01
RMM:   3    -0.230950370311E+04   -0.46963E-03   -0.65570E-03  5287   0.496E-02    0.132E-01
RMM:   4    -0.230950353244E+04    0.17066E-03   -0.64219E-04  3324   0.111E-02    0.490E-02
RMM:   5    -0.230950350156E+04    0.30885E-04   -0.74696E-05  3052   0.683E-03    0.262E-02
RMM:   6    -0.230950350165E+04   -0.95475E-07   -0.49481E-05  3123   0.641E-03
  68 F= -.23302354E+04 E0= -.23302354E+04  d E =-.165909E-02  mag=     4.0000
       N       E                     dE             d eps       ncg     rms          rms(c)
DAV:   1    -0.230949634485E+04    0.71567E-02   -0.60411E-01  4456   0.767E-01    0.217E-01
RMM:   2    -0.230950419822E+04   -0.78534E-02   -0.82278E-02  6122   0.149E-01    0.135E-01
RMM:   3    -0.230950492119E+04   -0.72297E-03   -0.85839E-03  5383   0.556E-02    0.132E-01
RMM:   4    -0.230950477568E+04    0.14550E-03   -0.86724E-04  3425   0.123E-02    0.606E-02
RMM:   5    -0.230950472814E+04    0.47542E-04   -0.97101E-05  3244   0.719E-03    0.321E-02
RMM:   6    -0.230950472426E+04    0.38836E-05   -0.72727E-05  3317   0.709E-03
  69 F= -.23302365E+04 E0= -.23302365E+04  d E =-.114416E-02  mag=     4.0000
       N       E                     dE             d eps       ncg     rms          rms(c)
DAV:   1    -0.230948652962E+04    0.18199E-01   -0.13516E+00  4456   0.115E+00    0.323E-01
RMM:   2    -0.230950405789E+04   -0.17528E-01   -0.18368E-01  6266   0.224E-01    0.201E-01
RMM:   3    -0.230950569854E+04   -0.16407E-02   -0.19260E-02  5656   0.866E-02    0.197E-01
RMM:   4    -0.230950537222E+04    0.32632E-03   -0.19519E-03  4302   0.184E-02    0.908E-02
RMM:   5    -0.230950526286E+04    0.10936E-03   -0.20738E-04  3864   0.101E-02    0.464E-02
RMM:   6    -0.230950524238E+04    0.20477E-04   -0.14931E-04  4029   0.985E-03    0.200E-02
RMM:   7    -0.230950524261E+04   -0.22825E-06   -0.25258E-05  2904   0.603E-03
  70 F= -.23302369E+04 E0= -.23302369E+04  d E =-.154897E-02  mag=     4.0000
       N       E                     dE             d eps       ncg     rms          rms(c)
DAV:   1    -0.230950031358E+04    0.49288E-02   -0.53031E-01  4536   0.727E-01    0.200E-01
RMM:   2    -0.230950610203E+04   -0.57885E-02   -0.61065E-02  6096   0.139E-01    0.115E-01
RMM:   3    -0.230950663206E+04   -0.53003E-03   -0.62735E-03  5296   0.539E-02    0.122E-01
RMM:   4    -0.230950651231E+04    0.11975E-03   -0.64300E-04  3400   0.117E-02    0.564E-02
RMM:   5    -0.230950646888E+04    0.43433E-04   -0.95022E-05  3393   0.798E-03    0.261E-02
RMM:   6    -0.230950646316E+04    0.57148E-05   -0.49953E-05  3279   0.691E-03
  71 F= -.23302381E+04 E0= -.23302381E+04  d E =-.122038E-02  mag=     4.0000
       N       E                     dE             d eps       ncg     rms          rms(c)
DAV:   1    -0.230950182995E+04    0.46389E-02   -0.41847E-01  4528   0.645E-01    0.178E-01
RMM:   2    -0.230950641652E+04   -0.45866E-02   -0.48333E-02  6073   0.124E-01    0.104E-01
RMM:   3    -0.230950684262E+04   -0.42610E-03   -0.50096E-03  5191   0.460E-02    0.109E-01
RMM:   4    -0.230950673723E+04    0.10539E-03   -0.50637E-04  3275   0.105E-02    0.507E-02
RMM:   5    -0.230950670154E+04    0.35690E-04   -0.75388E-05  3210   0.705E-03    0.233E-02
RMM:   6    -0.230950669733E+04    0.42044E-05   -0.39449E-05  3097   0.641E-03
  72 F= -.23302384E+04 E0= -.23302384E+04  d E =-.145578E-02  mag=     4.0000
       N       E                     dE             d eps       ncg     rms          rms(c)
DAV:   1    -0.230950418993E+04    0.25116E-02   -0.44016E-01  4504   0.647E-01    0.163E-01
RMM:   2    -0.230950763227E+04   -0.34423E-02   -0.36471E-02  6106   0.116E-01    0.817E-02
RMM:   3    -0.230950787597E+04   -0.24369E-03   -0.34655E-03  5021   0.442E-02    0.764E-02
RMM:   4    -0.230950785435E+04    0.21614E-04   -0.37854E-04  3192   0.983E-03    0.527E-02
RMM:   5    -0.230950781990E+04    0.34453E-04   -0.76005E-05  3236   0.726E-03    0.225E-02
RMM:   6    -0.230950781663E+04    0.32736E-05   -0.30760E-05  2993   0.607E-03
  73 F= -.23302394E+04 E0= -.23302394E+04  d E =-.103978E-02  mag=     4.0000
       N       E                     dE             d eps       ncg     rms          rms(c)
DAV:   1    -0.230950279259E+04    0.50273E-02   -0.65322E-01  4472   0.788E-01    0.198E-01
RMM:   2    -0.230950790379E+04   -0.51112E-02   -0.54087E-02  5931   0.140E-01    0.978E-02
RMM:   3    -0.230950825690E+04   -0.35311E-03   -0.50845E-03  5163   0.542E-02    0.845E-02
RMM:   4    -0.230950823614E+04    0.20755E-04   -0.55707E-04  3564   0.116E-02    0.678E-02
RMM:   5    -0.230950818125E+04    0.54895E-04   -0.12089E-04  3515   0.877E-03    0.287E-02
RMM:   6    -0.230950817904E+04    0.22083E-05   -0.53152E-05  3099   0.703E-03
  74 F= -.23302397E+04 E0= -.23302397E+04  d E =-.130725E-02  mag=     4.0000
       N       E                     dE             d eps       ncg     rms          rms(c)
DAV:   1    -0.230950677755E+04    0.14037E-02   -0.32326E-01  4480   0.548E-01    0.128E-01
RMM:   2    -0.230950901719E+04   -0.22396E-02   -0.23698E-02  6045   0.966E-02    0.747E-02
RMM:   3    -0.230950919117E+04   -0.17398E-03   -0.23784E-03  4645   0.369E-02    0.754E-02
RMM:   4    -0.230950915545E+04    0.35718E-04   -0.23911E-04  3063   0.842E-03    0.418E-02
RMM:   5    -0.230950913471E+04    0.20740E-04   -0.46472E-05  2999   0.573E-03    0.215E-02
RMM:   6    -0.230950913313E+04    0.15884E-05   -0.33240E-05  2960   0.568E-03
  75 F= -.23302405E+04 E0= -.23302405E+04  d E =-.850790E-03  mag=     4.0000
       N       E                     dE             d eps       ncg     rms          rms(c)
DAV:   1    -0.230950114538E+04    0.79893E-02   -0.11940E+00  4456   0.105E+00    0.243E-01
RMM:   2    -0.230950938287E+04   -0.82375E-02   -0.87258E-02  5918   0.183E-01    0.133E-01
RMM:   3    -0.230950997172E+04   -0.58885E-03   -0.84988E-03  5312   0.706E-02    0.119E-01
RMM:   4    -0.230950991316E+04    0.58559E-04   -0.86724E-04  3960   0.145E-02    0.848E-02
RMM:   5    -0.230950982749E+04    0.85673E-04   -0.17540E-04  3790   0.103E-02    0.401E-02
RMM:   6    -0.230950981705E+04    0.10444E-04   -0.10281E-04  3760   0.890E-03    0.201E-02
RMM:   7    -0.230950981649E+04    0.55667E-06   -0.19318E-05  2920   0.541E-03
  76 F= -.23302410E+04 E0= -.23302410E+04  d E =-.133904E-02  mag=     4.0000
       N       E                     dE             d eps       ncg     rms          rms(c)
DAV:   1    -0.230950730383E+04    0.25132E-02   -0.62677E-01  4472   0.745E-01    0.176E-01
RMM:   2    -0.230951093659E+04   -0.36328E-02   -0.38550E-02  5799   0.126E-01    0.903E-02
RMM:   3    -0.230951115236E+04   -0.21577E-03   -0.35368E-03  4923   0.515E-02    0.821E-02
RMM:   4    -0.230951111851E+04    0.33851E-04   -0.38120E-04  3513   0.108E-02    0.609E-02
RMM:   5    -0.230951107101E+04    0.47500E-04   -0.12212E-04  3605   0.887E-03    0.239E-02
RMM:   6    -0.230951106924E+04    0.17661E-05   -0.33027E-05  2958   0.644E-03
  77 F= -.23302421E+04 E0= -.23302421E+04  d E =-.105428E-02  mag=     4.0000
       N       E                     dE             d eps       ncg     rms          rms(c)
DAV:   1    -0.230950884222E+04    0.22288E-02   -0.42283E-01  4480   0.611E-01    0.145E-01
RMM:   2    -0.230951129148E+04   -0.24493E-02   -0.25983E-02  5725   0.103E-01    0.776E-02
RMM:   3    -0.230951143989E+04   -0.14841E-03   -0.24103E-03  4652   0.405E-02    0.762E-02
RMM:   4    -0.230951140541E+04    0.34478E-04   -0.26271E-04  3198   0.888E-03    0.471E-02
RMM:   5    -0.230951137526E+04    0.30150E-04   -0.73651E-05  3235   0.702E-03    0.197E-02
RMM:   6    -0.230951137297E+04    0.22935E-05   -0.23963E-05  2930   0.576E-03
  78 F= -.23302422E+04 E0= -.23302422E+04  d E =-.119610E-02  mag=     4.0000
       N       E                     dE             d eps       ncg     rms          rms(c)
[...]
RMM:   3    -0.230952915086E+04    0.13970E-05   -0.22427E-04  3187   0.121E-02    0.437E-02
RMM:   4    -0.230952913063E+04    0.20233E-04   -0.34068E-05  2933   0.468E-03    0.220E-02
RMM:   5    -0.230952912447E+04    0.61597E-05   -0.28593E-05  2986   0.418E-03
 165 F= -.23302625E+04 E0= -.23302625E+04  d E =-.170774E-03  mag=     4.0000
       N       E                     dE             d eps       ncg     rms          rms(c)
DAV:   1    -0.230952903574E+04    0.94889E-04   -0.18666E-02  4592   0.950E-02    0.268E-02
RMM:   2    -0.230952909723E+04   -0.61495E-04   -0.63978E-04  4752   0.168E-02    0.185E-02
RMM:   3    -0.230952909923E+04   -0.19949E-05   -0.52429E-05  2903   0.710E-03
 166 F= -.23302625E+04 E0= -.23302625E+04  d E =-.166461E-03  mag=     4.0000
       N       E                     dE             d eps       ncg     rms          rms(c)
DAV:   1    -0.230952902891E+04    0.68322E-04   -0.65738E-02  4472   0.173E-01    0.501E-02
RMM:   2    -0.230952923711E+04   -0.20820E-03   -0.21777E-03  5767   0.290E-02    0.384E-02
RMM:   3    -0.230952923917E+04   -0.20592E-05   -0.15818E-04  3057   0.993E-03    0.371E-02
RMM:   4    -0.230952922418E+04    0.14988E-04   -0.20989E-05  2903   0.373E-03    0.178E-02
RMM:   5    -0.230952922516E+04   -0.97882E-06   -0.17349E-05  2883   0.292E-03
 167 F= -.23302626E+04 E0= -.23302626E+04  d E =-.150576E-03  mag=     4.0000
       N       E                     dE             d eps       ncg     rms          rms(c)
DAV:   1    -0.230952856851E+04    0.65568E-03   -0.22052E-01  4472   0.316E-01    0.886E-02
RMM:   2    -0.230952924099E+04   -0.67249E-03   -0.70686E-03  5915   0.525E-02    0.588E-02
RMM:   3    -0.230952925559E+04   -0.14600E-04   -0.52759E-04  3596   0.179E-02    0.604E-02
RMM:   4    -0.230952921511E+04    0.40489E-04   -0.62317E-05  2979   0.591E-03    0.273E-02
RMM:   5    -0.230952920458E+04    0.10524E-04   -0.48412E-05  3079   0.517E-03    0.879E-03
RMM:   6    -0.230952920538E+04   -0.79951E-06   -0.75650E-06  2876   0.405E-03
 168 F= -.23302627E+04 E0= -.23302627E+04  d E =-.176500E-03  mag=     4.0000
       N       E                     dE             d eps       ncg     rms          rms(c)
DAV:   1    -0.230952919344E+04    0.11138E-04   -0.16884E-02  4624   0.871E-02    0.239E-02
RMM:   2    -0.230952924464E+04   -0.51201E-04   -0.54224E-04  4330   0.147E-02    0.168E-02
RMM:   3    -0.230952924489E+04   -0.24900E-06   -0.40684E-05  2838   0.678E-03
 169 F= -.23302627E+04 E0= -.23302627E+04  d E =-.203357E-03  mag=     4.0000
       N       E                     dE             d eps       ncg     rms          rms(c)
DAV:   1    -0.230952909369E+04    0.15095E-03   -0.93795E-02  4472   0.203E-01    0.595E-02
RMM:   2    -0.230952939129E+04   -0.29760E-03   -0.31293E-03  5800   0.336E-02    0.357E-02
RMM:   3    -0.230952940183E+04   -0.10531E-04   -0.23949E-04  3115   0.128E-02    0.391E-02
RMM:   4    -0.230952938511E+04    0.16717E-04   -0.27099E-05  2912   0.404E-03    0.170E-02
RMM:   5    -0.230952938231E+04    0.28005E-05   -0.18042E-05  2910   0.329E-03
 170 F= -.23302629E+04 E0= -.23302629E+04  d E =-.169674E-03  mag=     4.0000
       N       E                     dE             d eps       ncg     rms          rms(c)
DAV:   1    -0.230952901658E+04    0.36853E-03   -0.11607E-01  4472   0.225E-01    0.670E-02
RMM:   2    -0.230952938512E+04   -0.36854E-03   -0.38650E-03  5903   0.389E-02    0.446E-02
RMM:   3    -0.230952939396E+04   -0.88474E-05   -0.29770E-04  3285   0.141E-02    0.441E-02
RMM:   4    -0.230952937404E+04    0.19924E-04   -0.35758E-05  2935   0.467E-03    0.208E-02
RMM:   5    -0.230952936941E+04    0.46309E-05   -0.23143E-05  2940   0.378E-03
 171 F= -.23302629E+04 E0= -.23302629E+04  d E =-.193155E-03  mag=     4.0000
       N       E                     dE             d eps       ncg     rms          rms(c)
DAV:   1    -0.230952902939E+04    0.34465E-03   -0.13676E-01  4472   0.239E-01    0.695E-02
RMM:   2    -0.230952948456E+04   -0.45517E-03   -0.46079E-03  5996   0.407E-02    0.602E-02
RMM:   3    -0.230952948848E+04   -0.39197E-05   -0.38060E-04  3242   0.146E-02    0.527E-02
RMM:   4    -0.230952945952E+04    0.28960E-04   -0.41485E-05  2950   0.497E-03    0.221E-02
RMM:   5    -0.230952946098E+04   -0.14585E-05   -0.25587E-05  2921   0.360E-03
 172 F= -.23302630E+04 E0= -.23302630E+04  d E =-.164622E-03  mag=     4.0000
       N       E                     dE             d eps       ncg     rms          rms(c)
DAV:   1    -0.230952897261E+04    0.48691E-03   -0.13833E-01  4472   0.240E-01    0.688E-02
RMM:   2    -0.230952941088E+04   -0.43827E-03   -0.45664E-03  5962   0.411E-02    0.477E-02
RMM:   3    -0.230952942929E+04   -0.18409E-04   -0.41386E-04  3260   0.155E-02    0.473E-02
RMM:   4    -0.230952940577E+04    0.23514E-04   -0.42008E-05  2959   0.485E-03    0.217E-02
RMM:   5    -0.230952940031E+04    0.54626E-05   -0.27160E-05  2949   0.394E-03
 173 F= -.23302631E+04 E0= -.23302631E+04  d E =-.178086E-03  mag=     4.0000
       N       E                     dE             d eps       ncg     rms          rms(c)
DAV:   1    -0.230952902150E+04    0.38427E-03   -0.15265E-01  4472   0.257E-01    0.766E-02
RMM:   2    -0.230952954949E+04   -0.52798E-03   -0.55042E-03  6015   0.452E-02    0.533E-02
RMM:   3    -0.230952956198E+04   -0.12496E-04   -0.41039E-04  3389   0.154E-02    0.510E-02
RMM:   4    -0.230952953674E+04    0.25246E-04   -0.50284E-05  2945   0.512E-03    0.238E-02
RMM:   5    -0.230952953435E+04    0.23900E-05   -0.26192E-05  2945   0.398E-03
 174 F= -.23302633E+04 E0= -.23302633E+04  d E =-.202108E-03  mag=     4.0000
       N       E                     dE             d eps       ncg     rms          rms(c)
DAV:   1    -0.230952926794E+04    0.26879E-03   -0.69136E-02  4472   0.173E-01    0.534E-02
RMM:   2    -0.230952952308E+04   -0.25514E-03   -0.24994E-03  5781   0.307E-02    0.548E-02
RMM:   3    -0.230952951314E+04    0.99402E-05   -0.22450E-04  3066   0.117E-02    0.376E-02
RMM:   4    -0.230952949783E+04    0.15317E-04   -0.22697E-05  2906   0.405E-03    0.169E-02
RMM:   5    -0.230952949971E+04   -0.18813E-05   -0.15893E-05  2878   0.286E-03
 175 F= -.23302633E+04 E0= -.23302633E+04  d E =-.213739E-03  mag=     4.0000
       N       E                     dE             d eps       ncg     rms          rms(c)
DAV:   1    -0.230952914750E+04    0.35032E-03   -0.13243E-01  4456   0.244E-01    0.726E-02
RMM:   2    -0.230952962327E+04   -0.47577E-03   -0.49355E-03  5983   0.433E-02    0.500E-02
RMM:   3    -0.230952964451E+04   -0.21238E-04   -0.42126E-04  3308   0.154E-02    0.508E-02
RMM:   4    -0.230952961680E+04    0.27706E-04   -0.45242E-05  2974   0.491E-03    0.220E-02
RMM:   5    -0.230952961050E+04    0.62968E-05   -0.27433E-05  2943   0.410E-03
 176 F= -.23302634E+04 E0= -.23302634E+04  d E =-.160076E-03  mag=     4.0000
       N       E                     dE             d eps       ncg     rms          rms(c)
DAV:   1    -0.230952939406E+04    0.22274E-03   -0.55101E-02  4472   0.157E-01    0.488E-02
RMM:   2    -0.230952960143E+04   -0.20737E-03   -0.20896E-03  5702   0.287E-02    0.432E-02
RMM:   3    -0.230952959927E+04    0.21644E-05   -0.18322E-04  3008   0.105E-02    0.331E-02
RMM:   4    -0.230952958807E+04    0.11199E-04   -0.19578E-05  2904   0.371E-03    0.147E-02
RMM:   5    -0.230952958950E+04   -0.14349E-05   -0.11246E-05  2869   0.247E-03
 177 F= -.23302634E+04 E0= -.23302634E+04  d E =-.171128E-03  mag=     4.0000
       N       E                     dE             d eps       ncg     rms          rms(c)
DAV:   1    -0.230952915484E+04    0.43323E-03   -0.15362E-01  4456   0.267E-01    0.796E-02
RMM:   2    -0.230952970330E+04   -0.54847E-03   -0.57069E-03  5997   0.463E-02    0.561E-02
RMM:   3    -0.230952972562E+04   -0.22318E-04   -0.46155E-04  3407   0.162E-02    0.588E-02
RMM:   4    -0.230952968835E+04    0.37274E-04   -0.53843E-05  2978   0.533E-03    0.243E-02
RMM:   5    -0.230952968822E+04    0.12309E-06   -0.35054E-05  2942   0.437E-03
 178 F= -.23302636E+04 E0= -.23302636E+04  d E =-.171885E-03  mag=     4.0000
       N       E                     dE             d eps       ncg     rms          rms(c)
DAV:   1    -0.230952955855E+04    0.12980E-03   -0.24421E-02  4608   0.106E-01    0.329E-02
RMM:   2    -0.230952965117E+04   -0.92622E-04   -0.94331E-04  5122   0.198E-02    0.277E-02
RMM:   3    -0.230952965203E+04   -0.85904E-06   -0.91714E-05  2896   0.799E-03
 179 F= -.23302636E+04 E0= -.23302636E+04  d E =-.165236E-03  mag=     4.0000
       N       E                     dE             d eps       ncg     rms          rms(c)
DAV:   1    -0.230952912884E+04    0.52233E-03   -0.16955E-01  4456   0.281E-01    0.839E-02
RMM:   2    -0.230952977705E+04   -0.64821E-03   -0.66892E-03  5993   0.504E-02    0.635E-02
RMM:   3    -0.230952978909E+04   -0.12036E-04   -0.48465E-04  3443   0.158E-02    0.606E-02
RMM:   4    -0.230952975162E+04    0.37469E-04   -0.62076E-05  2969   0.545E-03    0.282E-02
RMM:   5    -0.230952975034E+04    0.12738E-05   -0.39226E-05  2955   0.457E-03
 180 F= -.23302638E+04 E0= -.23302638E+04  d E =-.157473E-03  mag=     4.0000
       N       E                     dE             d eps       ncg     rms          rms(c)
DAV:   1    -0.230952956421E+04    0.18741E-03   -0.36959E-02  4464   0.132E-01    0.400E-02
RMM:   2    -0.230952970645E+04   -0.14224E-03   -0.14137E-03  5513   0.243E-02    0.367E-02
RMM:   3    -0.230952970457E+04    0.18853E-05   -0.13336E-04  2947   0.928E-03    0.266E-02
RMM:   4    -0.230952969698E+04    0.75890E-05   -0.13306E-05  2901   0.329E-03
 181 F= -.23302637E+04 E0= -.23302637E+04  d E =-.132143E-03  mag=     4.0000
       N       E                     dE             d eps       ncg     rms          rms(c)
DAV:   1    -0.230952933124E+04    0.37333E-03   -0.13260E-01  4456   0.243E-01    0.682E-02
RMM:   2    -0.230952979099E+04   -0.45975E-03   -0.47956E-03  6041   0.421E-02    0.455E-02
RMM:   3    -0.230952980593E+04   -0.14940E-04   -0.38090E-04  3228   0.144E-02    0.451E-02
RMM:   4    -0.230952978720E+04    0.18728E-04   -0.43667E-05  2941   0.450E-03    0.218E-02
RMM:   5    -0.230952978229E+04    0.49063E-05   -0.21918E-05  2931   0.369E-03
 182 F= -.23302639E+04 E0= -.23302639E+04  d E =-.146216E-03  mag=     4.0000
       N       E                     dE             d eps       ncg     rms          rms(c)
DAV:   1    -0.230952910497E+04    0.68223E-03   -0.18247E-01  4456   0.285E-01    0.825E-02
RMM:   2    -0.230952978039E+04   -0.67542E-03   -0.66761E-03  6102   0.497E-02    0.807E-02
RMM:   3    -0.230952976554E+04    0.14850E-04   -0.58100E-04  3424   0.174E-02    0.591E-02
RMM:   4    -0.230952972935E+04    0.36185E-04   -0.58906E-05  2981   0.552E-03    0.258E-02
RMM:   5    -0.230952973263E+04   -0.32752E-05   -0.34365E-05  2929   0.410E-03
 183 F= -.23302639E+04 E0= -.23302639E+04  d E =-.168563E-03  mag=     4.0000
       N       E                     dE             d eps       ncg     rms          rms(c)
DAV:   1    -0.230952928475E+04    0.44461E-03   -0.16854E-01  4456   0.274E-01    0.784E-02
RMM:   2    -0.230952984896E+04   -0.56421E-03   -0.58636E-03  6024   0.480E-02    0.533E-02
RMM:   3    -0.230952987300E+04   -0.24040E-04   -0.50911E-04  3462   0.176E-02    0.564E-02
RMM:   4    -0.230952983964E+04    0.33366E-04   -0.52325E-05  2963   0.540E-03    0.242E-02
RMM:   5    -0.230952983200E+04    0.76335E-05   -0.34873E-05  2986   0.453E-03
 184 F= -.23302641E+04 E0= -.23302641E+04  d E =-.203872E-03  mag=     4.0000
       N       E                     dE             d eps       ncg     rms          rms(c)
DAV:   1    -0.230952944369E+04    0.39595E-03   -0.99275E-02  4456   0.210E-01    0.610E-02
RMM:   2    -0.230952978705E+04   -0.34336E-03   -0.35523E-03  6047   0.370E-02    0.428E-02
RMM:   3    -0.230952979404E+04   -0.69983E-05   -0.25584E-04  3172   0.124E-02    0.423E-02
RMM:   4    -0.230952977547E+04    0.18572E-04   -0.31260E-05  2920   0.438E-03    0.184E-02
RMM:   5    -0.230952977062E+04    0.48487E-05   -0.18846E-05  2932   0.346E-03
 185 F= -.23302641E+04 E0= -.23302641E+04  d E =-.223022E-03  mag=     4.0000
       N       E                     dE             d eps       ncg     rms          rms(c)
DAV:   1    -0.230952940521E+04    0.37026E-03   -0.15382E-01  4456   0.264E-01    0.790E-02
RMM:   2    -0.230952989938E+04   -0.49417E-03   -0.51009E-03  5930   0.450E-02    0.591E-02
RMM:   3    -0.230952991020E+04   -0.10816E-04   -0.40317E-04  3477   0.166E-02    0.627E-02
RMM:   4    -0.230952986798E+04    0.42212E-04   -0.48006E-05  2961   0.548E-03    0.225E-02
RMM:   5    -0.230952986381E+04    0.41687E-05   -0.33359E-05  3000   0.452E-03
 186 F= -.23302643E+04 E0= -.23302643E+04  d E =-.208639E-03  mag=     4.0000
       N       E                     dE             d eps       ncg     rms          rms(c)
DAV:   1    -0.230952963660E+04    0.23139E-03   -0.55647E-02  4496   0.159E-01    0.483E-02
RMM:   2    -0.230952981916E+04   -0.18256E-03   -0.18633E-03  5604   0.280E-02    0.378E-02
RMM:   3    -0.230952981805E+04    0.11124E-05   -0.15020E-04  3027   0.103E-02    0.342E-02
RMM:   4    -0.230952980442E+04    0.13622E-04   -0.17235E-05  2898   0.390E-03    0.135E-02
RMM:   5    -0.230952980162E+04    0.28039E-05   -0.13256E-05  2903   0.294E-03
 187 F= -.23302643E+04 E0= -.23302643E+04  d E =-.216276E-03  mag=     4.0000
       N       E                     dE             d eps       ncg     rms          rms(c)
DAV:   1    -0.230952942762E+04    0.37680E-03   -0.16579E-01  4448   0.276E-01    0.815E-02
RMM:   2    -0.230952991377E+04   -0.48615E-03   -0.51803E-03  5894   0.458E-02    0.451E-02
RMM:   3    -0.230952991613E+04   -0.23657E-05   -0.37517E-04  3529   0.169E-02    0.466E-02
RMM:   4    -0.230952989550E+04    0.20633E-04   -0.45138E-05  2975   0.514E-03    0.253E-02
RMM:   5    -0.230952988729E+04    0.82130E-05   -0.33844E-05  2972   0.470E-03
 188 F= -.23302645E+04 E0= -.23302645E+04  d E =-.172897E-03  mag=     4.0000
       N       E                     dE             d eps       ncg     rms          rms(c)
DAV:   1    -0.230952978047E+04    0.11503E-03   -0.24741E-02  4576   0.106E-01    0.330E-02
RMM:   2    -0.230952986208E+04   -0.81604E-04   -0.83229E-04  4850   0.190E-02    0.269E-02
RMM:   3    -0.230952985912E+04    0.29550E-05   -0.67982E-05  2906   0.766E-03
 189 F= -.23302645E+04 E0= -.23302645E+04  d E =-.178740E-03  mag=     4.0000
       N       E                     dE             d eps       ncg     rms          rms(c)
DAV:   1    -0.230952961124E+04    0.25084E-03   -0.15040E-01  4456   0.268E-01    0.801E-02
RMM:   2    -0.230953003561E+04   -0.42438E-03   -0.45664E-03  5815   0.442E-02    0.496E-02
RMM:   3    -0.230953003342E+04    0.21980E-05   -0.34796E-04  3426   0.159E-02    0.520E-02
RMM:   4    -0.230953000548E+04    0.27939E-04   -0.46907E-05  2955   0.535E-03    0.267E-02
RMM:   5    -0.230953000228E+04    0.31936E-05   -0.38627E-05  2952   0.470E-03
 190 F= -.23302647E+04 E0= -.23302647E+04  d E =-.157332E-03  mag=     4.0000
       N       E                     dE             d eps       ncg     rms          rms(c)
DAV:   1    -0.230952995135E+04    0.54130E-04   -0.12068E-02  4640   0.763E-02    0.246E-02
RMM:   2    -0.230952999271E+04   -0.41365E-04   -0.40003E-04  4212   0.140E-02    0.264E-02
RMM:   3    -0.230952998655E+04    0.61630E-05   -0.33534E-05  2891   0.626E-03
 191 F= -.23302647E+04 E0= -.23302647E+04  d E =-.145726E-03  mag=     4.0000
       N       E                     dE             d eps       ncg     rms          rms(c)
DAV:   1    -0.230952977622E+04    0.21649E-03   -0.13429E-01  4448   0.258E-01    0.798E-02
RMM:   2    -0.230953014758E+04   -0.37136E-03   -0.40077E-03  5766   0.423E-02    0.457E-02
RMM:   3    -0.230953014549E+04    0.20885E-05   -0.28116E-04  3506   0.157E-02    0.508E-02
RMM:   4    -0.230953011783E+04    0.27668E-04   -0.42722E-05  2934   0.523E-03    0.239E-02
RMM:   5    -0.230953011410E+04    0.37265E-05   -0.33365E-05  2952   0.460E-03
 192 F= -.23302648E+04 E0= -.23302648E+04  d E =-.122817E-03  mag=     4.0000
       N       E                     dE             d eps       ncg     rms          rms(c)
DAV:   1    -0.230953009681E+04    0.21013E-04   -0.29120E-03  4880   0.387E-02    0.148E-02
RMM:   2    -0.230953011031E+04   -0.13494E-04   -0.10428E-04  3251   0.745E-03    0.238E-02
RMM:   3    -0.230953010496E+04    0.53423E-05   -0.12730E-05  2763   0.414E-03
 193 F= -.23302648E+04 E0= -.23302648E+04  d E =-.113010E-03  mag=     4.0000
       N       E                     dE             d eps       ncg     rms          rms(c)
DAV:   1    -0.230953010485E+04    0.54591E-05   -0.11828E-03  4260   0.243E-02    0.699E-03
RMM:   2    -0.230953010838E+04   -0.35318E-05   -0.35738E-05  2728   0.447E-03
 194 F= -.23302648E+04 E0= -.23302648E+04  d E =-.116842E-03  mag=     4.0000
       N       E                     dE             d eps       ncg     rms          rms(c)
DAV:   1    -0.230953002336E+04    0.81487E-04   -0.62224E-02  4456   0.188E-01    0.582E-02
RMM:   2    -0.230953020411E+04   -0.18075E-03   -0.19327E-03  5690   0.313E-02    0.373E-02
RMM:   3    -0.230953019899E+04    0.51296E-05   -0.15835E-04  3355   0.135E-02    0.439E-02
RMM:   4    -0.230953017604E+04    0.22943E-04   -0.25611E-05  2925   0.450E-03    0.153E-02
RMM:   5    -0.230953017576E+04    0.28493E-06   -0.16804E-05  2888   0.366E-03
 195 F= -.23302649E+04 E0= -.23302649E+04  d E =-.113348E-03  mag=     4.0000
       N       E                     dE             d eps       ncg     rms          rms(c)
DAV:   1    -0.230953016252E+04    0.13520E-04   -0.82543E-04  4928   0.225E-02    0.816E-03
RMM:   2    -0.230953016560E+04   -0.30792E-05   -0.29150E-05  2913   0.461E-03
 196 F= -.23302649E+04 E0= -.23302649E+04  d E =-.108677E-03  mag=     4.0000
       N       E                     dE             d eps       ncg     rms          rms(c)
DAV:   1    -0.230953016872E+04   -0.61956E-05   -0.33733E-04  4360   0.144E-02    0.573E-03
RMM:   2    -0.230953017074E+04   -0.20195E-05   -0.12030E-05  2485   0.298E-03
 197 F= -.23302649E+04 E0= -.23302649E+04  d E =-.110393E-03  mag=     4.0000
       N       E                     dE             d eps       ncg     rms          rms(c)
DAV:   1    -0.230953010653E+04    0.62184E-04   -0.32867E-02  4472   0.145E-01    0.466E-02
RMM:   2    -0.230953019585E+04   -0.89314E-04   -0.99560E-04  5320   0.243E-02    0.240E-02
RMM:   3    -0.230953019554E+04    0.30485E-06   -0.75104E-05  3125   0.109E-02
 198 F= -.23302650E+04 E0= -.23302650E+04  d E =-.767112E-04  mag=     4.0000
       N       E                     dE             d eps       ncg     rms          rms(c)
DAV:   1    -0.230953017881E+04    0.17041E-04   -0.13662E-04  5112   0.120E-02    0.122E-02
RMM:   2    -0.230953017891E+04   -0.10191E-06   -0.10393E-05  2611   0.287E-03
 199 F= -.23302650E+04 E0= -.23302650E+04  d E =-.634484E-04  mag=     4.0000
       N       E                     dE             d eps       ncg     rms          rms(c)
DAV:   1    -0.230953013696E+04    0.41848E-04   -0.26336E-02  4472   0.127E-01    0.386E-02
RMM:   2    -0.230953020757E+04   -0.70607E-04   -0.78939E-04  5124   0.210E-02    0.190E-02
RMM:   3    -0.230953020383E+04    0.37331E-05   -0.46728E-05  2997   0.896E-03
 200 F= -.23302650E+04 E0= -.23302650E+04  d E =-.512532E-04  mag=     4.0000
       N       E                     dE             d eps       ncg     rms          rms(c)
DAV:   1    -0.230953018422E+04    0.23344E-04   -0.32487E-03  4888   0.450E-02    0.193E-02
RMM:   2    -0.230953019498E+04   -0.10758E-04   -0.10603E-04  3265   0.797E-03    0.224E-02
RMM:   3    -0.230953019060E+04    0.43831E-05   -0.15950E-05  2843   0.435E-03
 201 F= -.23302650E+04 E0= -.23302650E+04  d E =-.473736E-04  mag=     4.0000
