       N       E                     dE             d eps       ncg     rms          rms(c)
DAV:   1     0.130389769950E+05    0.13039E+05   -0.84451E+05  4520   0.144E+03
DAV:   2    -0.105595547081E+04   -0.14095E+05   -0.13481E+05  5120   0.332E+02
DAV:   3    -0.248860276119E+04   -0.14326E+04   -0.14172E+04  5432   0.113E+02
DAV:   4    -0.253322246306E+04   -0.44620E+02   -0.44371E+02  6768   0.293E+01
DAV:   5    -0.253401088979E+04   -0.78843E+00   -0.78696E+00  5984   0.335E+00    0.171E+02
RMM:   6    -0.149557176767E+04    0.10384E+04   -0.19542E+03  4460   0.387E+01    0.752E+01
RMM:   7    -0.170669296139E+04   -0.21112E+03   -0.35709E+02  5259   0.158E+01    0.654E+01
RMM:   8    -0.169447693878E+04    0.12216E+02   -0.99425E+01  5214   0.992E+00    0.414E+01
RMM:   9    -0.179788573871E+04   -0.10341E+03   -0.44431E+01  4918   0.710E+00    0.330E+01
RMM:  10    -0.191733985055E+04   -0.11945E+03   -0.50680E+01  5416   0.683E+00    0.257E+01
RMM:  11    -0.199928040208E+04   -0.81941E+02   -0.33709E+01  5315   0.498E+00    0.213E+01
RMM:  12    -0.207793361982E+04   -0.78653E+02   -0.32365E+01  5139   0.466E+00    0.156E+01
RMM:  13    -0.218668712958E+04   -0.10875E+03   -0.68355E+01  4601   0.614E+00    0.100E+01
RMM:  14    -0.227644567203E+04   -0.89759E+02   -0.76667E+01  4647   0.632E+00    0.774E+00
RMM:  15    -0.230919164123E+04   -0.32746E+02   -0.30143E+01  4728   0.421E+00    0.446E+00
RMM:  16    -0.231905904600E+04   -0.98674E+01   -0.10441E+01  4975   0.240E+00    0.266E+00
RMM:  17    -0.232226174672E+04   -0.32027E+01   -0.25286E+00  5000   0.115E+00    0.164E+00
RMM:  18    -0.232383006252E+04   -0.15683E+01   -0.75760E-01  4848   0.650E-01    0.114E+00
RMM:  19    -0.232427586910E+04   -0.44581E+00   -0.17905E-01  5151   0.353E-01    0.633E-01
RMM:  20    -0.232442144112E+04   -0.14557E+00   -0.59310E-02  4728   0.188E-01    0.257E-01
RMM:  21    -0.232446697946E+04   -0.45538E-01   -0.15780E-02  4611   0.124E-01    0.159E-01
RMM:  22    -0.232449739079E+04   -0.30411E-01   -0.10784E-02  4463   0.845E-02    0.900E-02
RMM:  23    -0.232451335414E+04   -0.15963E-01   -0.56596E-03  4508   0.682E-02    0.568E-02
RMM:  24    -0.232452308793E+04   -0.97338E-02   -0.38244E-03  4492   0.500E-02    0.384E-02
RMM:  25    -0.232452670532E+04   -0.36174E-02   -0.15315E-03  4556   0.383E-02    0.202E-02
RMM:  26    -0.232452833966E+04   -0.16343E-02   -0.72719E-04  4136   0.210E-02    0.127E-02
RMM:  27    -0.232452882361E+04   -0.48395E-03   -0.20936E-04  3848   0.163E-02    0.714E-03
RMM:  28    -0.232452904538E+04   -0.22177E-03   -0.94976E-05  3656   0.842E-03    0.410E-03
RMM:  29    -0.232452913830E+04   -0.92924E-04   -0.33593E-05  3303   0.647E-03    0.246E-03
RMM:  30    -0.232452918837E+04   -0.50072E-04   -0.20005E-05  3086   0.430E-03    0.146E-03
RMM:  31    -0.232452920068E+04   -0.12314E-04   -0.83935E-06  2863   0.342E-03    0.959E-04
RMM:  32    -0.232452920342E+04   -0.27337E-05   -0.31141E-06  2409   0.209E-03
   1 F= -.23455314E+04 E0= -.23455310E+04  d E =-.234553E+04  mag=     6.9923
       N       E                     dE             d eps       ncg     rms          rms(c)
DAV:   1    -0.232062162553E+04    0.39076E+01   -0.25115E+02  4720   0.144E+01    0.491E+00
RMM:   2    -0.232625056418E+04   -0.56289E+01   -0.57771E+01  6305   0.494E+00    0.547E+00
RMM:   3    -0.232551316027E+04    0.73740E+00   -0.31130E+00  5839   0.127E+00    0.242E+00
RMM:   4    -0.232548660542E+04    0.26555E-01   -0.35104E-01  5997   0.265E-01    0.141E+00
RMM:   5    -0.232546114973E+04    0.25456E-01   -0.61181E-02  5657   0.136E-01    0.124E+00
RMM:   6    -0.232545106922E+04    0.10081E-01   -0.45777E-02  5819   0.125E-01    0.917E-01
RMM:   7    -0.232544247365E+04    0.85956E-02   -0.20279E-02  5614   0.760E-02    0.174E-01
RMM:   8    -0.232544224370E+04    0.22995E-03   -0.16624E-03  4969   0.344E-02    0.944E-02
RMM:   9    -0.232544225281E+04   -0.91106E-05   -0.65412E-04  5075   0.159E-02    0.426E-02
RMM:  10    -0.232544233972E+04   -0.86908E-04   -0.22312E-04  4425   0.117E-02    0.216E-02
RMM:  11    -0.232544239668E+04   -0.56963E-04   -0.77969E-05  3950   0.676E-03    0.143E-02
RMM:  12    -0.232544245714E+04   -0.60457E-04   -0.56977E-05  3558   0.614E-03    0.754E-03
RMM:  13    -0.232544249201E+04   -0.34866E-04   -0.23960E-05  3014   0.487E-03    0.449E-03
RMM:  14    -0.232544251016E+04   -0.18156E-04   -0.11448E-05  2862   0.412E-03    0.254E-03
RMM:  15    -0.232544251805E+04   -0.78895E-05   -0.56429E-06  2832   0.308E-03
   2 F= -.23464334E+04 E0= -.23464334E+04  d E =-.902014E+00  mag=     6.9983
       N       E                     dE             d eps       ncg     rms          rms(c)
DAV:   1    -0.232523310240E+04    0.20941E+00   -0.15636E+01  4752   0.325E+00    0.110E+00
RMM:   2    -0.232549737007E+04   -0.26427E+00   -0.28100E+00  6537   0.999E-01    0.731E-01
RMM:   3    -0.232550686522E+04   -0.94951E-02   -0.20452E-01  6143   0.270E-01    0.554E-01
RMM:   4    -0.232550581348E+04    0.10517E-02   -0.21056E-02  5973   0.559E-02    0.319E-01
RMM:   5    -0.232550422312E+04    0.15904E-02   -0.36109E-03  5519   0.326E-02    0.217E-01
RMM:   6    -0.232550378254E+04    0.44058E-03   -0.22928E-03  5493   0.252E-02    0.161E-01
RMM:   7    -0.232550356879E+04    0.21375E-03   -0.56100E-04  4287   0.176E-02    0.601E-02
RMM:   8    -0.232550352079E+04    0.48006E-04   -0.13542E-04  3658   0.733E-03    0.254E-02
RMM:   9    -0.232550350236E+04    0.18431E-04   -0.40141E-05  3116   0.571E-03    0.108E-02
RMM:  10    -0.232550349763E+04    0.47219E-05   -0.14186E-05  2921   0.389E-03
   3 F= -.23464971E+04 E0= -.23464971E+04  d E =-.965736E+00  mag=     6.9997
       N       E                     dE             d eps       ncg     rms          rms(c)
DAV:   1    -0.232519769431E+04    0.30581E+00   -0.47197E+01  4592   0.598E+00    0.209E+00
RMM:   2    -0.232586491824E+04   -0.66722E+00   -0.71494E+00  6507   0.148E+00    0.140E+00
RMM:   3    -0.232589799354E+04   -0.33075E-01   -0.63514E-01  6074   0.450E-01    0.103E+00
RMM:   4    -0.232589054157E+04    0.74520E-02   -0.60457E-02  5959   0.101E-01    0.611E-01
RMM:   5    -0.232588480538E+04    0.57362E-02   -0.10491E-02  5763   0.618E-02    0.364E-01
RMM:   6    -0.232588333699E+04    0.14684E-02   -0.98212E-03  5721   0.555E-02    0.311E-01
RMM:   7    -0.232588265308E+04    0.68391E-03   -0.18806E-03  5524   0.298E-02    0.115E-01
RMM:   8    -0.232588247998E+04    0.17310E-03   -0.38172E-04  4677   0.123E-02    0.579E-02
RMM:   9    -0.232588242033E+04    0.59649E-04   -0.14945E-04  3593   0.963E-03    0.178E-02
RMM:  10    -0.232588241526E+04    0.50733E-05   -0.54522E-05  3258   0.522E-03
   4 F= -.23468735E+04 E0= -.23468735E+04  d E =-.376375E+00  mag=     6.9999
       N       E                     dE             d eps       ncg     rms          rms(c)
DAV:   1    -0.232515104856E+04    0.73137E+00   -0.61676E+01  4544   0.692E+00    0.236E+00
RMM:   2    -0.232600690979E+04   -0.85586E+00   -0.91025E+00  6526   0.170E+00    0.178E+00
RMM:   3    -0.232604898600E+04   -0.42076E-01   -0.84209E-01  6006   0.516E-01    0.135E+00
RMM:   4    -0.232603600142E+04    0.12985E-01   -0.79716E-02  6020   0.118E-01    0.714E-01
RMM:   5    -0.232602849507E+04    0.75064E-02   -0.14179E-02  5689   0.696E-02    0.474E-01
RMM:   6    -0.232602686422E+04    0.16309E-02   -0.12771E-02  5850   0.632E-02    0.487E-01
RMM:   7    -0.232602488641E+04    0.19778E-02   -0.43566E-03  5704   0.388E-02    0.129E-01
RMM:   8    -0.232602467188E+04    0.21453E-03   -0.60472E-04  4976   0.180E-02    0.675E-02
RMM:   9    -0.232602459919E+04    0.72690E-04   -0.22883E-04  4066   0.115E-02    0.216E-02
RMM:  10    -0.232602459723E+04    0.19569E-05   -0.66061E-05  3330   0.577E-03
   5 F= -.23470129E+04 E0= -.23470129E+04  d E =-.515756E+00  mag=     7.0000
       N       E                     dE             d eps       ncg     rms          rms(c)
DAV:   1    -0.232582835886E+04    0.19624E+00   -0.48855E+01  4528   0.601E+00    0.183E+00
RMM:   2    -0.232618085705E+04   -0.35250E+00   -0.38025E+00  6325   0.125E+00    0.135E+00
RMM:   3    -0.232618951979E+04   -0.86627E-02   -0.33745E-01  6025   0.391E-01    0.102E+00
RMM:   4    -0.232618082392E+04    0.86959E-02   -0.37282E-02  6176   0.102E-01    0.608E-01
RMM:   5    -0.232617508338E+04    0.57405E-02   -0.10058E-02  5675   0.680E-02    0.301E-01
RMM:   6    -0.232617412576E+04    0.95761E-03   -0.63891E-03  5113   0.492E-02    0.208E-01
RMM:   7    -0.232617383618E+04    0.28958E-03   -0.10679E-03  4990   0.273E-02    0.133E-01
RMM:   8    -0.232617367008E+04    0.16610E-03   -0.26286E-04  4111   0.956E-03    0.484E-02
RMM:   9    -0.232617362880E+04    0.41283E-04   -0.12934E-04  3733   0.894E-03    0.202E-02
RMM:  10    -0.232617362066E+04    0.81451E-05   -0.54651E-05  3501   0.586E-03
   6 F= -.23471600E+04 E0= -.23471600E+04  d E =-.147166E+00  mag=     7.0000
       N       E                     dE             d eps       ncg     rms          rms(c)
DAV:   1    -0.232617073728E+04    0.28915E-02   -0.83798E-01  4856   0.788E-01    0.234E-01
RMM:   2    -0.232617658823E+04   -0.58509E-02   -0.62646E-02  6328   0.158E-01    0.159E-01
RMM:   3    -0.232617672828E+04   -0.14005E-03   -0.51067E-03  5448   0.506E-02    0.121E-01
RMM:   4    -0.232617662573E+04    0.10255E-03   -0.58109E-04  4185   0.132E-02    0.762E-02
RMM:   5    -0.232617654357E+04    0.82166E-04   -0.18208E-04  4112   0.993E-03    0.379E-02
RMM:   6    -0.232617653239E+04    0.11178E-04   -0.83234E-05  3442   0.724E-03    0.242E-02
RMM:   7    -0.232617653057E+04    0.18127E-05   -0.17843E-05  2904   0.499E-03
   7 F= -.23471632E+04 E0= -.23471632E+04  d E =-.150318E+00  mag=     7.0000
       N       E                     dE             d eps       ncg     rms          rms(c)
DAV:   1    -0.232616498001E+04    0.11552E-01   -0.25643E+01  4528   0.414E+00    0.117E+00
RMM:   2    -0.232631321820E+04   -0.14824E+00   -0.15678E+00  6081   0.766E-01    0.810E-01
RMM:   3    -0.232631873748E+04   -0.55193E-02   -0.12803E-01  5866   0.257E-01    0.763E-01
RMM:   4    -0.232631442800E+04    0.43095E-02   -0.13646E-02  6142   0.630E-02    0.375E-01
RMM:   5    -0.232631261614E+04    0.18119E-02   -0.49542E-03  5150   0.444E-02    0.206E-01
RMM:   6    -0.232631264243E+04   -0.26289E-04   -0.24233E-03  5095   0.351E-02    0.229E-01
RMM:   7    -0.232631220972E+04    0.43271E-03   -0.75145E-04  5167   0.179E-02    0.474E-02
RMM:   8    -0.232631219112E+04    0.18601E-04   -0.10442E-04  3267   0.748E-03    0.285E-02
RMM:   9    -0.232631218765E+04    0.34671E-05   -0.47972E-05  3098   0.555E-03
   8 F= -.23472999E+04 E0= -.23472999E+04  d E =-.136677E+00  mag=     7.0000
       N       E                     dE             d eps       ncg     rms          rms(c)
DAV:   1    -0.232618025210E+04    0.13194E+00   -0.32658E+01  4504   0.465E+00    0.133E+00
RMM:   2    -0.232637151423E+04   -0.19126E+00   -0.20203E+00  6081   0.866E-01    0.942E-01
RMM:   3    -0.232637815166E+04   -0.66374E-02   -0.16358E-01  5879   0.287E-01    0.873E-01
RMM:   4    -0.232637239108E+04    0.57606E-02   -0.17557E-02  6108   0.714E-02    0.413E-01
RMM:   5    -0.232637002406E+04    0.23670E-02   -0.62883E-03  5182   0.506E-02    0.211E-01
RMM:   6    -0.232637009608E+04   -0.72016E-04   -0.28717E-03  5148   0.387E-02    0.240E-01
RMM:   7    -0.232636962988E+04    0.46619E-03   -0.87634E-04  5209   0.192E-02    0.557E-02
RMM:   8    -0.232636960827E+04    0.21615E-04   -0.13166E-04  3413   0.785E-03    0.325E-02
RMM:   9    -0.232636961168E+04   -0.34080E-05   -0.64319E-05  3270   0.627E-03
   9 F= -.23473584E+04 E0= -.23473584E+04  d E =-.195249E+00  mag=     7.0000
       N       E                     dE             d eps       ncg     rms          rms(c)
DAV:   1    -0.232631935232E+04    0.50256E-01   -0.23639E+01  4520   0.390E+00    0.123E+00
RMM:   2    -0.232649270049E+04   -0.17335E+00   -0.18422E+00  6160   0.770E-01    0.836E-01
RMM:   3    -0.232650016225E+04   -0.74618E-02   -0.15929E-01  5896   0.250E-01    0.705E-01
RMM:   4    -0.232649706476E+04    0.30975E-02   -0.16367E-02  6155   0.611E-02    0.377E-01
RMM:   5    -0.232649528170E+04    0.17831E-02   -0.42559E-03  5488   0.405E-02    0.219E-01
RMM:   6    -0.232649496958E+04    0.31212E-03   -0.27954E-03  5654   0.318E-02    0.178E-01
RMM:   7    -0.232649469562E+04    0.27396E-03   -0.71903E-04  5364   0.198E-02    0.886E-02
RMM:   8    -0.232649462035E+04    0.75271E-04   -0.12743E-04  3623   0.708E-03    0.331E-02
RMM:   9    -0.232649459989E+04    0.20467E-04   -0.54484E-05  3043   0.644E-03    0.153E-02
RMM:  10    -0.232649459655E+04    0.33355E-05   -0.27904E-05  3068   0.467E-03
  10 F= -.23474831E+04 E0= -.23474831E+04  d E =-.124702E+00  mag=     7.0000
       N       E                     dE             d eps       ncg     rms          rms(c)
DAV:   1    -0.232616191227E+04    0.33269E+00   -0.53016E+01  4496   0.586E+00    0.186E+00
RMM:   2    -0.232655794678E+04   -0.39603E+00   -0.41998E+00  6146   0.117E+00    0.130E+00
RMM:   3    -0.232657742300E+04   -0.19476E-01   -0.41796E-01  5904   0.397E-01    0.999E-01
RMM:   4    -0.232657131736E+04    0.61056E-02   -0.41203E-02  6146   0.926E-02    0.559E-01
RMM:   5    -0.232656744125E+04    0.38761E-02   -0.97383E-03  5593   0.621E-02    0.341E-01
RMM:   6    -0.232656659773E+04    0.84352E-03   -0.66515E-03  5713   0.478E-02    0.284E-01
RMM:   7    -0.232656589493E+04    0.70279E-03   -0.18213E-03  5634   0.314E-02    0.133E-01
RMM:   8    -0.232656570678E+04    0.18816E-03   -0.34063E-04  4660   0.110E-02    0.548E-02
RMM:   9    -0.232656564430E+04    0.62479E-04   -0.14166E-04  3663   0.102E-02    0.234E-02
RMM:  10    -0.232656563085E+04    0.13449E-04   -0.71025E-05  3726   0.600E-03    0.102E-02
RMM:  11    -0.232656562861E+04    0.22402E-05   -0.13989E-05  2886   0.513E-03
  11 F= -.23475535E+04 E0= -.23475535E+04  d E =-.195115E+00  mag=     7.0000
       N       E                     dE             d eps       ncg     rms          rms(c)
DAV:   1    -0.232645836493E+04    0.10727E+00   -0.21980E+01  4496   0.371E+00    0.122E+00
RMM:   2    -0.232664060228E+04   -0.18224E+00   -0.19491E+00  6223   0.769E-01    0.760E-01
RMM:   3    -0.232664985321E+04   -0.92509E-02   -0.17283E-01  5949   0.244E-01    0.582E-01
RMM:   4    -0.232664822998E+04    0.16232E-02   -0.17021E-02  6086   0.579E-02    0.390E-01
RMM:   5    -0.232664649774E+04    0.17322E-02   -0.39851E-03  5563   0.394E-02    0.236E-01
RMM:   6    -0.232664599845E+04    0.49929E-03   -0.31006E-03  5582   0.323E-02    0.168E-01
RMM:   7    -0.232664575766E+04    0.24079E-03   -0.68007E-04  5210   0.201E-02    0.908E-02
RMM:   8    -0.232664566228E+04    0.95379E-04   -0.14433E-04  3761   0.762E-03    0.323E-02
RMM:   9    -0.232664563158E+04    0.30704E-04   -0.65493E-05  3088   0.713E-03    0.178E-02
RMM:  10    -0.232664562151E+04    0.10069E-04   -0.32806E-05  3115   0.477E-03    0.725E-03
RMM:  11    -0.232664561843E+04    0.30755E-05   -0.10395E-05  2869   0.419E-03
  12 F= -.23476318E+04 E0= -.23476318E+04  d E =-.782497E-01  mag=     7.0000
       N       E                     dE             d eps       ncg     rms          rms(c)
DAV:   1    -0.232658544274E+04    0.60179E-01   -0.90566E+00  4528   0.237E+00    0.778E-01
RMM:   2    -0.232665800330E+04   -0.72561E-01   -0.77824E-01  6201   0.483E-01    0.460E-01
RMM:   3    -0.232666263237E+04   -0.46291E-02   -0.78207E-02  5855   0.163E-01    0.337E-01
RMM:   4    -0.232666221391E+04    0.41846E-03   -0.74672E-03  5914   0.367E-02    0.254E-01
RMM:   5    -0.232666150980E+04    0.70411E-03   -0.15301E-03  5399   0.250E-02    0.153E-01
RMM:   6    -0.232666125453E+04    0.25527E-03   -0.12857E-03  5367   0.211E-02    0.931E-02
RMM:   7    -0.232666118923E+04    0.65303E-04   -0.24905E-04  4101   0.130E-02    0.635E-02
RMM:   8    -0.232666114481E+04    0.44418E-04   -0.68225E-05  3282   0.577E-03    0.210E-02
RMM:   9    -0.232666113036E+04    0.14455E-04   -0.29179E-05  2932   0.484E-03    0.121E-02
RMM:  10    -0.232666112526E+04    0.50968E-05   -0.14545E-05  2921   0.366E-03
  13 F= -.23476461E+04 E0= -.23476461E+04  d E =-.925994E-01  mag=     7.0000
       N       E                     dE             d eps       ncg     rms          rms(c)
DAV:   1    -0.232650807643E+04    0.15305E+00   -0.29963E+01  4496   0.425E+00    0.130E+00
RMM:   2    -0.232671663364E+04   -0.20856E+00   -0.22140E+00  6319   0.829E-01    0.814E-01
RMM:   3    -0.232672900479E+04   -0.12371E-01   -0.21221E-01  6008   0.262E-01    0.643E-01
RMM:   4    -0.232672682752E+04    0.21773E-02   -0.21365E-02  6164   0.613E-02    0.435E-01
RMM:   5    -0.232672481213E+04    0.20154E-02   -0.47096E-03  5555   0.414E-02    0.262E-01
RMM:   6    -0.232672436874E+04    0.44339E-03   -0.41858E-03  5514   0.362E-02    0.215E-01
RMM:   7    -0.232672398213E+04    0.38661E-03   -0.86898E-04  4929   0.210E-02    0.893E-02
RMM:   8    -0.232672390385E+04    0.78287E-04   -0.17979E-04  3392   0.783E-03    0.347E-02
RMM:   9    -0.232672388671E+04    0.17133E-04   -0.68144E-05  3033   0.629E-03    0.158E-02
RMM:  10    -0.232672388592E+04    0.78906E-06   -0.22349E-05  2975   0.401E-03
  14 F= -.23477080E+04 E0= -.23477080E+04  d E =-.618610E-01  mag=     7.0000
       N       E                     dE             d eps       ncg     rms          rms(c)
DAV:   1    -0.232671885219E+04    0.50345E-02   -0.97728E-01  4784   0.763E-01    0.229E-01
RMM:   2    -0.232672541734E+04   -0.65652E-02   -0.69677E-02  6273   0.146E-01    0.132E-01
RMM:   3    -0.232672576153E+04   -0.34419E-03   -0.60442E-03  5312   0.458E-02    0.104E-01
RMM:   4    -0.232672570908E+04    0.52448E-04   -0.65498E-04  3662   0.113E-02    0.792E-02
RMM:   5    -0.232672562890E+04    0.80176E-04   -0.15748E-04  3602   0.884E-03    0.380E-02
RMM:   6    -0.232672562322E+04    0.56855E-05   -0.10693E-04  3522   0.756E-03    0.342E-02
RMM:   7    -0.232672561364E+04    0.95794E-05   -0.21395E-05  2933   0.498E-03
  15 F= -.23477096E+04 E0= -.23477096E+04  d E =-.634168E-01  mag=     7.0000
       N       E                     dE             d eps       ncg     rms          rms(c)
DAV:   1    -0.232663775400E+04    0.87869E-01   -0.25280E+01  4496   0.421E+00    0.129E+00
RMM:   2    -0.232677779717E+04   -0.14004E+00   -0.15009E+00  6137   0.763E-01    0.591E-01
RMM:   3    -0.232678287492E+04   -0.50778E-02   -0.12289E-01  5691   0.244E-01    0.427E-01
RMM:   4    -0.232678257214E+04    0.30279E-03   -0.13327E-02  6013   0.627E-02    0.430E-01
RMM:   5    -0.232678067426E+04    0.18979E-02   -0.36502E-03  5640   0.407E-02    0.182E-01
RMM:   6    -0.232678030314E+04    0.37112E-03   -0.20372E-03  4939   0.283E-02    0.620E-02
RMM:   7    -0.232678028562E+04    0.17516E-04   -0.24760E-04  4271   0.173E-02    0.603E-02
RMM:   8    -0.232678025483E+04    0.30789E-04   -0.84864E-05  3429   0.600E-03    0.369E-02
RMM:   9    -0.232678023849E+04    0.16342E-04   -0.33030E-05  2972   0.522E-03    0.121E-02
RMM:  10    -0.232678023593E+04    0.25558E-05   -0.16282E-05  2931   0.403E-03
  16 F= -.23477627E+04 E0= -.23477627E+04  d E =-.531221E-01  mag=     7.0000
       N       E                     dE             d eps       ncg     rms          rms(c)
DAV:   1    -0.232676882762E+04    0.11411E-01   -0.27854E+00  4664   0.140E+00    0.425E-01
RMM:   2    -0.232678377421E+04   -0.14947E-01   -0.16006E-01  6115   0.250E-01    0.195E-01
RMM:   3    -0.232678430833E+04   -0.53412E-03   -0.13316E-02  5580   0.802E-02    0.146E-01
RMM:   4    -0.232678426180E+04    0.46535E-04   -0.14554E-03  5262   0.207E-02    0.140E-01
RMM:   5    -0.232678403533E+04    0.22646E-03   -0.42421E-04  4861   0.145E-02    0.541E-02
RMM:   6    -0.232678400506E+04    0.30270E-04   -0.20267E-04  4420   0.105E-02    0.264E-02
RMM:   7    -0.232678400273E+04    0.23274E-05   -0.29784E-05  2981   0.639E-03
  17 F= -.23477660E+04 E0= -.23477660E+04  d E =-.564022E-01  mag=     7.0000
       N       E                     dE             d eps       ncg     rms          rms(c)
DAV:   1    -0.232674575301E+04    0.38252E-01   -0.16942E+01  4496   0.353E+00    0.935E-01
RMM:   2    -0.232682905110E+04   -0.83298E-01   -0.88861E-01  6128   0.610E-01    0.438E-01
RMM:   3    -0.232683099377E+04   -0.19427E-02   -0.63394E-02  5627   0.184E-01    0.282E-01
RMM:   4    -0.232683074459E+04    0.24918E-03   -0.76364E-03  5215   0.488E-02    0.298E-01
RMM:   5    -0.232683000550E+04    0.73909E-03   -0.21381E-03  5509   0.331E-02    0.161E-01
RMM:   6    -0.232682979115E+04    0.21435E-03   -0.81959E-04  4796   0.189E-02    0.392E-02
RMM:   7    -0.232682977409E+04    0.17060E-04   -0.84150E-05  3616   0.111E-02    0.226E-02
RMM:   8    -0.232682977529E+04   -0.12005E-05   -0.41388E-05  3074   0.486E-03
  18 F= -.23478111E+04 E0= -.23478111E+04  d E =-.451197E-01  mag=     7.0000
       N       E                     dE             d eps       ncg     rms          rms(c)
DAV:   1    -0.232677792468E+04    0.51849E-01   -0.12956E+01  4496   0.307E+00    0.817E-01
RMM:   2    -0.232684168037E+04   -0.63756E-01   -0.68067E-01  6111   0.530E-01    0.386E-01
RMM:   3    -0.232684299854E+04   -0.13182E-02   -0.47955E-02  5608   0.163E-01    0.248E-01
RMM:   4    -0.232684276555E+04    0.23299E-03   -0.57929E-03  5143   0.426E-02    0.259E-01
RMM:   5    -0.232684221023E+04    0.55532E-03   -0.16668E-03  5439   0.296E-02    0.143E-01
RMM:   6    -0.232684202781E+04    0.18242E-03   -0.64541E-04  4807   0.167E-02    0.364E-02
RMM:   7    -0.232684201188E+04    0.15935E-04   -0.65258E-05  3433   0.974E-03    0.198E-02
RMM:   8    -0.232684200962E+04    0.22577E-05   -0.33512E-05  3059   0.457E-03
  19 F= -.23478228E+04 E0= -.23478228E+04  d E =-.568094E-01  mag=     7.0000
       N       E                     dE             d eps       ncg     rms          rms(c)
DAV:   1    -0.232677876904E+04    0.63243E-01   -0.24553E+01  4496   0.412E+00    0.111E+00
RMM:   2    -0.232688046085E+04   -0.10169E+00   -0.10988E+00  6057   0.690E-01    0.638E-01
RMM:   3    -0.232688206320E+04   -0.16023E-02   -0.81904E-02  5666   0.222E-01    0.612E-01
RMM:   4    -0.232687925677E+04    0.28064E-02   -0.95553E-03  6325   0.561E-02    0.327E-01
RMM:   5    -0.232687758512E+04    0.16717E-02   -0.41169E-03  4831   0.411E-02    0.127E-01
RMM:   6    -0.232687748580E+04    0.99327E-04   -0.14094E-03  4616   0.309E-02    0.544E-02
RMM:   7    -0.232687747281E+04    0.12982E-04   -0.21247E-04  4052   0.120E-02    0.297E-02
RMM:   8    -0.232687746780E+04    0.50099E-05   -0.47587E-05  3166   0.662E-03
  20 F= -.23478586E+04 E0= -.23478586E+04  d E =-.357776E-01  mag=     7.0000
       N       E                     dE             d eps       ncg     rms          rms(c)
DAV:   1    -0.232687532250E+04    0.21503E-02   -0.75278E-01  4920   0.722E-01    0.191E-01
RMM:   2    -0.232687833863E+04   -0.30161E-02   -0.32396E-02  6097   0.120E-01    0.112E-01
RMM:   3    -0.232687841243E+04   -0.73801E-04   -0.26042E-03  5047   0.389E-02    0.114E-01
RMM:   4    -0.232687831015E+04    0.10228E-03   -0.28222E-04  3578   0.103E-02    0.558E-02
RMM:   5    -0.232687826074E+04    0.49409E-04   -0.14784E-04  3876   0.849E-03    0.231E-02
RMM:   6    -0.232687826179E+04   -0.10519E-05   -0.43978E-05  3047   0.718E-03
  21 F= -.23478594E+04 E0= -.23478594E+04  d E =-.366204E-01  mag=     7.0000
       N       E                     dE             d eps       ncg     rms          rms(c)
DAV:   1    -0.232683343743E+04    0.44823E-01   -0.19777E+01  4480   0.372E+00    0.952E-01
RMM:   2    -0.232691074656E+04   -0.77309E-01   -0.83941E-01  6060   0.615E-01    0.585E-01
RMM:   3    -0.232690984452E+04    0.90203E-03   -0.51727E-02  5694   0.178E-01    0.502E-01
RMM:   4    -0.232690817077E+04    0.16738E-02   -0.69891E-03  6170   0.509E-02    0.332E-01
RMM:   5    -0.232690665725E+04    0.15135E-02   -0.30424E-03  5003   0.373E-02    0.135E-01
RMM:   6    -0.232690660587E+04    0.51381E-04   -0.13646E-03  4901   0.291E-02    0.127E-01
RMM:   7    -0.232690648460E+04    0.12127E-03   -0.33621E-04  4520   0.127E-02    0.421E-02
RMM:   8    -0.232690646670E+04    0.17908E-04   -0.43000E-05  3065   0.568E-03    0.202E-02
RMM:   9    -0.232690646308E+04    0.36190E-05   -0.30493E-05  3073   0.460E-03
  22 F= -.23478878E+04 E0= -.23478878E+04  d E =-.284320E-01  mag=     7.0000
       N       E                     dE             d eps       ncg     rms          rms(c)
DAV:   1    -0.232690644946E+04    0.17233E-04   -0.63287E-03  5432   0.675E-02    0.165E-02
RMM:   2    -0.232690647502E+04   -0.25556E-04   -0.26881E-04  4619   0.127E-02    0.104E-02
RMM:   3    -0.232690647519E+04   -0.16604E-06   -0.16976E-05  2911   0.468E-03
  23 F= -.23478878E+04 E0= -.23478878E+04  d E =-.284485E-01  mag=     7.0000
       N       E                     dE             d eps       ncg     rms          rms(c)
DAV:   1    -0.232688246520E+04    0.24010E-01   -0.15324E+01  4496   0.330E+00    0.768E-01
RMM:   2    -0.232693760995E+04   -0.55145E-01   -0.58596E-01  5982   0.523E-01    0.426E-01
RMM:   3    -0.232693882109E+04   -0.12111E-02   -0.44745E-02  5460   0.175E-01    0.351E-01
RMM:   4    -0.232693826368E+04    0.55741E-03   -0.52722E-03  6089   0.422E-02    0.290E-01
RMM:   5    -0.232693726151E+04    0.10022E-02   -0.27250E-03  5140   0.357E-02    0.115E-01
RMM:   6    -0.232693726226E+04   -0.75280E-06   -0.78500E-04  4855   0.218E-02    0.894E-02
RMM:   7    -0.232693720794E+04    0.54318E-04   -0.17715E-04  3822   0.947E-03    0.426E-02
RMM:   8    -0.232693718951E+04    0.18432E-04   -0.37347E-05  3007   0.559E-03    0.165E-02
RMM:   9    -0.232693718694E+04    0.25682E-05   -0.26467E-05  3026   0.433E-03
  24 F= -.23479189E+04 E0= -.23479189E+04  d E =-.310669E-01  mag=     7.0000
       N       E                     dE             d eps       ncg     rms          rms(c)
DAV:   1    -0.232692733818E+04    0.98513E-02   -0.39397E+00  4512   0.167E+00    0.388E-01
RMM:   2    -0.232694129093E+04   -0.13953E-01   -0.14829E-01  5980   0.263E-01    0.215E-01
RMM:   3    -0.232694157576E+04   -0.28483E-03   -0.11082E-02  5435   0.874E-02    0.179E-01
RMM:   4    -0.232694142412E+04    0.15164E-03   -0.13427E-03  5664   0.213E-02    0.146E-01
RMM:   5    -0.232694115955E+04    0.26456E-03   -0.72593E-04  4769   0.187E-02    0.537E-02
RMM:   6    -0.232694116606E+04   -0.65080E-05   -0.17354E-04  3929   0.118E-02    0.459E-02
RMM:   7    -0.232694115092E+04    0.15141E-04   -0.42332E-05  3044   0.542E-03    0.181E-02
RMM:   8    -0.232694114761E+04    0.33109E-05   -0.83144E-06  2909   0.327E-03
  25 F= -.23479230E+04 E0= -.23479230E+04  d E =-.352059E-01  mag=     7.0000
       N       E                     dE             d eps       ncg     rms          rms(c)
DAV:   1    -0.232690689073E+04    0.34260E-01   -0.17120E+01  4480   0.345E+00    0.885E-01
RMM:   2    -0.232697440878E+04   -0.67518E-01   -0.72821E-01  6044   0.566E-01    0.517E-01
RMM:   3    -0.232697554501E+04   -0.11362E-02   -0.53323E-02  5499   0.174E-01    0.443E-01
RMM:   4    -0.232697433359E+04    0.12114E-02   -0.65916E-03  6218   0.459E-02    0.286E-01
RMM:   5    -0.232697333030E+04    0.10033E-02   -0.27229E-03  5035   0.352E-02    0.120E-01
RMM:   6    -0.232697327934E+04    0.50965E-04   -0.10822E-03  5157   0.242E-02    0.665E-02
RMM:   7    -0.232697326398E+04    0.15359E-04   -0.16018E-04  3807   0.100E-02    0.592E-02
RMM:   8    -0.232697323693E+04    0.27049E-04   -0.38831E-05  2989   0.525E-03    0.186E-02
RMM:   9    -0.232697323634E+04    0.58676E-06   -0.25491E-05  3015   0.391E-03
  26 F= -.23479545E+04 E0= -.23479545E+04  d E =-.314933E-01  mag=     7.0000
       N       E                     dE             d eps       ncg     rms          rms(c)
DAV:   1    -0.232692138399E+04    0.51853E-01   -0.16211E+01  4480   0.335E+00    0.863E-01
RMM:   2    -0.232698483497E+04   -0.63451E-01   -0.68498E-01  6027   0.546E-01    0.502E-01
RMM:   3    -0.232698609870E+04   -0.12637E-02   -0.51749E-02  5458   0.172E-01    0.428E-01
RMM:   4    -0.232698497349E+04    0.11252E-02   -0.62790E-03  6188   0.445E-02    0.279E-01
RMM:   5    -0.232698404007E+04    0.93342E-03   -0.25924E-03  5011   0.341E-02    0.120E-01
RMM:   6    -0.232698400045E+04    0.39620E-04   -0.10536E-03  5204   0.238E-02    0.803E-02
RMM:   7    -0.232698396396E+04    0.36486E-04   -0.17369E-04  3828   0.100E-02    0.550E-02
RMM:   8    -0.232698394083E+04    0.23133E-04   -0.34955E-05  2989   0.512E-03    0.180E-02
RMM:   9    -0.232698394098E+04   -0.15259E-06   -0.25259E-05  3023   0.394E-03
  27 F= -.23479646E+04 E0= -.23479646E+04  d E =-.415767E-01  mag=     7.0000
       N       E                     dE             d eps       ncg     rms          rms(c)
DAV:   1    -0.232692240305E+04    0.61538E-01   -0.19515E+01  4480   0.364E+00    0.962E-01
RMM:   2    -0.232700953639E+04   -0.87133E-01   -0.92815E-01  6045   0.624E-01    0.559E-01
RMM:   3    -0.232701301158E+04   -0.34752E-02   -0.78166E-02  5508   0.204E-01    0.495E-01
RMM:   4    -0.232701157817E+04    0.14334E-02   -0.86201E-03  6165   0.496E-02    0.304E-01
RMM:   5    -0.232701057856E+04    0.99961E-03   -0.29725E-03  5005   0.352E-02    0.166E-01
RMM:   6    -0.232701054338E+04    0.35182E-04   -0.15288E-03  5350   0.278E-02    0.147E-01
RMM:   7    -0.232701038596E+04    0.15742E-03   -0.39181E-04  4953   0.133E-02    0.593E-02
RMM:   8    -0.232701035110E+04    0.34854E-04   -0.60631E-05  3064   0.566E-03    0.209E-02
RMM:   9    -0.232701034466E+04    0.64484E-05   -0.26966E-05  2997   0.440E-03
  28 F= -.23479901E+04 E0= -.23479901E+04  d E =-.255229E-01  mag=     7.0000
       N       E                     dE             d eps       ncg     rms          rms(c)
DAV:   1    -0.232699963728E+04    0.10714E-01   -0.31005E+00  4544   0.146E+00    0.378E-01
RMM:   2    -0.232701301477E+04   -0.13377E-01   -0.14264E-01  6010   0.245E-01    0.214E-01
RMM:   3    -0.232701356426E+04   -0.54949E-03   -0.11811E-02  5415   0.826E-02    0.193E-01
RMM:   4    -0.232701334612E+04    0.21814E-03   -0.13475E-03  5291   0.199E-02    0.121E-01
RMM:   5    -0.232701318118E+04    0.16493E-03   -0.48532E-04  4458   0.150E-02    0.619E-02
RMM:   6    -0.232701318117E+04    0.18059E-07   -0.21791E-04  4140   0.119E-02    0.571E-02
RMM:   7    -0.232701315545E+04    0.25715E-04   -0.57708E-05  3304   0.623E-03    0.201E-02
RMM:   8    -0.232701315130E+04    0.41548E-05   -0.93323E-06  2907   0.349E-03
  29 F= -.23479926E+04 E0= -.23479926E+04  d E =-.279727E-01  mag=     7.0000
       N       E                     dE             d eps       ncg     rms          rms(c)
DAV:   1    -0.232694269189E+04    0.70464E-01   -0.15615E+01  4496   0.322E+00    0.845E-01
RMM:   2    -0.232702520460E+04   -0.82513E-01   -0.87687E-01  6048   0.574E-01    0.518E-01
RMM:   3    -0.232702871102E+04   -0.35064E-02   -0.77430E-02  5483   0.198E-01    0.388E-01
RMM:   4    -0.232702816996E+04    0.54105E-03   -0.85524E-03  5757   0.458E-02    0.309E-01
RMM:   5    -0.232702724498E+04    0.92498E-03   -0.28908E-03  5319   0.337E-02    0.204E-01
RMM:   6    -0.232702696557E+04    0.27941E-03   -0.14656E-03  5332   0.249E-02    0.113E-01
RMM:   7    -0.232702690434E+04    0.61236E-04   -0.32574E-04  4456   0.127E-02    0.727E-02
RMM:   8    -0.232702685878E+04    0.45554E-04   -0.77585E-05  3131   0.610E-03    0.244E-02
RMM:   9    -0.232702685219E+04    0.65967E-05   -0.25493E-05  2977   0.426E-03
  30 F= -.23480059E+04 E0= -.23480059E+04  d E =-.132735E-01  mag=     7.0000
       N       E                     dE             d eps       ncg     rms          rms(c)
DAV:   1    -0.232702394645E+04    0.29123E-02   -0.73582E-01  4672   0.699E-01    0.180E-01
RMM:   2    -0.232702768345E+04   -0.37370E-02   -0.39814E-02  6044   0.122E-01    0.105E-01
RMM:   3    -0.232702788198E+04   -0.19852E-03   -0.37639E-03  4853   0.465E-02    0.789E-02
RMM:   4    -0.232702786993E+04    0.12048E-04   -0.41189E-04  3451   0.105E-02    0.719E-02
RMM:   5    -0.232702781333E+04    0.56604E-04   -0.13865E-04  3551   0.840E-03    0.336E-02
RMM:   6    -0.232702780936E+04    0.39695E-05   -0.52576E-05  3060   0.656E-03
  31 F= -.23480069E+04 E0= -.23480069E+04  d E =-.143269E-01  mag=     7.0000
       N       E                     dE             d eps       ncg     rms          rms(c)
DAV:   1    -0.232699977989E+04    0.28033E-01   -0.64235E+00  4496   0.224E+00    0.657E-01
RMM:   2    -0.232703965789E+04   -0.39878E-01   -0.42885E-01  5991   0.412E-01    0.383E-01
RMM:   3    -0.232704230696E+04   -0.26491E-02   -0.45315E-02  5607   0.163E-01    0.319E-01
RMM:   4    -0.232704173477E+04    0.57219E-03   -0.46182E-03  5809   0.347E-02    0.186E-01
RMM:   5    -0.232704136438E+04    0.37039E-03   -0.11903E-03  5022   0.235E-02    0.118E-01
RMM:   6    -0.232704131204E+04    0.52338E-04   -0.63126E-04  5127   0.176E-02    0.101E-01
RMM:   7    -0.232704123953E+04    0.72504E-04   -0.17777E-04  4270   0.104E-02    0.447E-02
RMM:   8    -0.232704121814E+04    0.21398E-04   -0.31330E-05  2972   0.493E-03    0.134E-02
RMM:   9    -0.232704121242E+04    0.57196E-05   -0.13736E-05  2931   0.346E-03
  32 F= -.23480197E+04 E0= -.23480197E+04  d E =-.127372E-01  mag=     7.0000
       N       E                     dE             d eps       ncg     rms          rms(c)
DAV:   1    -0.232703681104E+04    0.44071E-02   -0.91633E-01  4576   0.846E-01    0.246E-01
RMM:   2    -0.232704242424E+04   -0.56132E-02   -0.60608E-02  5995   0.155E-01    0.135E-01
RMM:   3    -0.232704281228E+04   -0.38804E-03   -0.64288E-03  5345   0.608E-02    0.109E-01
RMM:   4    -0.232704276234E+04    0.49941E-04   -0.65420E-04  4286   0.131E-02    0.727E-02
RMM:   5    -0.232704270910E+04    0.53236E-04   -0.17728E-04  4001   0.991E-03    0.469E-02
RMM:   6    -0.232704269793E+04    0.11175E-04   -0.88244E-05  3486   0.780E-03    0.348E-02
RMM:   7    -0.232704268993E+04    0.80010E-05   -0.27673E-05  3031   0.563E-03
  33 F= -.23480209E+04 E0= -.23480209E+04  d E =-.139614E-01  mag=     7.0000
       N       E                     dE             d eps       ncg     rms          rms(c)
DAV:   1    -0.232701733154E+04    0.25366E-01   -0.63333E+00  4480   0.228E+00    0.615E-01
RMM:   2    -0.232705631897E+04   -0.38987E-01   -0.41525E-01  6002   0.414E-01    0.376E-01
RMM:   3    -0.232705874366E+04   -0.24247E-02   -0.41891E-02  5566   0.157E-01    0.308E-01
RMM:   4    -0.232705818229E+04    0.56138E-03   -0.43873E-03  5998   0.331E-02    0.178E-01
RMM:   5    -0.232705779486E+04    0.38743E-03   -0.10808E-03  4940   0.223E-02    0.892E-02
RMM:   6    -0.232705774927E+04    0.45588E-04   -0.49770E-04  5126   0.162E-02    0.472E-02
RMM:   7    -0.232705773032E+04    0.18947E-04   -0.60816E-05  3285   0.748E-03    0.155E-02
RMM:   8    -0.232705772890E+04    0.14251E-05   -0.16377E-05  2954   0.402E-03
  34 F= -.23480351E+04 E0= -.23480351E+04  d E =-.141767E-01  mag=     7.0000
       N       E                     dE             d eps       ncg     rms          rms(c)
DAV:   1    -0.232702107553E+04    0.36655E-01   -0.66458E+00  4480   0.233E+00    0.630E-01
RMM:   2    -0.232706209121E+04   -0.41016E-01   -0.43632E-01  6016   0.425E-01    0.388E-01
RMM:   3    -0.232706459569E+04   -0.25045E-02   -0.43780E-02  5581   0.161E-01    0.317E-01
RMM:   4    -0.232706399342E+04    0.60226E-03   -0.46048E-03  6042   0.339E-02    0.182E-01
RMM:   5    -0.232706358738E+04    0.40605E-03   -0.11441E-03  4970   0.228E-02    0.975E-02
RMM:   6    -0.232706355707E+04    0.30311E-04   -0.56315E-04  5257   0.172E-02    0.777E-02
RMM:   7    -0.232706351928E+04    0.37785E-04   -0.12886E-04  3555   0.863E-03    0.469E-02
RMM:   8    -0.232706350104E+04    0.18246E-04   -0.28702E-05  2961   0.470E-03    0.137E-02
RMM:   9    -0.232706349773E+04    0.33066E-05   -0.14412E-05  2943   0.328E-03
  35 F= -.23480399E+04 E0= -.23480399E+04  d E =-.190517E-01  mag=     7.0000
       N       E                     dE             d eps       ncg     rms          rms(c)
DAV:   1    -0.232703871026E+04    0.24791E-01   -0.57644E+00  4496   0.223E+00    0.560E-01
RMM:   2    -0.232707441246E+04   -0.35702E-01   -0.37665E-01  6041   0.401E-01    0.328E-01
RMM:   3    -0.232707648628E+04   -0.20738E-02   -0.34588E-02  5573   0.143E-01    0.279E-01
RMM:   4    -0.232707605771E+04    0.42857E-03   -0.37506E-03  6055   0.309E-02    0.177E-01
RMM:   5    -0.232707569370E+04    0.36401E-03   -0.92741E-04  4850   0.214E-02    0.780E-02
RMM:   6    -0.232707567737E+04    0.16332E-04   -0.41126E-04  4801   0.154E-02    0.348E-02
RMM:   7    -0.232707567184E+04    0.55347E-05   -0.50322E-05  3154   0.712E-03
  36 F= -.23480514E+04 E0= -.23480514E+04  d E =-.114584E-01  mag=     7.0000
       N       E                     dE             d eps       ncg     rms          rms(c)
DAV:   1    -0.232705080454E+04    0.24873E-01   -0.43315E+00  4504   0.194E+00    0.489E-01
RMM:   2    -0.232707766425E+04   -0.26860E-01   -0.28334E-01  6074   0.349E-01    0.285E-01
RMM:   3    -0.232707926098E+04   -0.15967E-02   -0.25974E-02  5604   0.122E-01    0.246E-01
RMM:   4    -0.232707892260E+04    0.33838E-03   -0.28351E-03  5914   0.269E-02    0.153E-01
RMM:   5    -0.232707865483E+04    0.26777E-03   -0.66986E-04  4669   0.185E-02    0.681E-02
RMM:   6    -0.232707865033E+04    0.44965E-05   -0.31504E-04  4628   0.143E-02    0.445E-02
RMM:   7    -0.232707864330E+04    0.70360E-05   -0.52258E-05  3097   0.658E-03
  37 F= -.23480537E+04 E0= -.23480537E+04  d E =-.138113E-01  mag=     7.0000
       N       E                     dE             d eps       ncg     rms          rms(c)
DAV:   1    -0.232705676370E+04    0.21887E-01   -0.49944E+00  4496   0.204E+00    0.529E-01
RMM:   2    -0.232708682776E+04   -0.30064E-01   -0.31772E-01  6104   0.368E-01    0.313E-01
RMM:   3    -0.232708870416E+04   -0.18764E-02   -0.29559E-02  5703   0.122E-01    0.286E-01
RMM:   4    -0.232708814817E+04    0.55599E-03   -0.32596E-03  6025   0.286E-02    0.159E-01
RMM:   5    -0.232708784859E+04    0.29958E-03   -0.73851E-04  4727   0.189E-02    0.712E-02
RMM:   6    -0.232708783545E+04    0.13135E-04   -0.37249E-04  4767   0.150E-02    0.398E-02
RMM:   7    -0.232708782768E+04    0.77736E-05   -0.62412E-05  3174   0.720E-03
  38 F= -.23480622E+04 E0= -.23480622E+04  d E =-.841049E-02  mag=     7.0000
       N       E                     dE             d eps       ncg     rms          rms(c)
DAV:   1    -0.232706056182E+04    0.27274E-01   -0.46846E+00  4504   0.197E+00    0.513E-01
RMM:   2    -0.232708864753E+04   -0.28086E-01   -0.29673E-01  6115   0.356E-01    0.304E-01
RMM:   3    -0.232709052949E+04   -0.18820E-02   -0.28848E-02  5710   0.120E-01    0.278E-01
RMM:   4    -0.232709000153E+04    0.52796E-03   -0.31114E-03  5970   0.277E-02    0.154E-01
RMM:   5    -0.232708972130E+04    0.28022E-03   -0.66929E-04  4665   0.182E-02    0.699E-02
RMM:   6    -0.232708969750E+04    0.23808E-04   -0.37777E-04  4781   0.148E-02    0.257E-02
RMM:   7    -0.232708969171E+04    0.57874E-05   -0.37695E-05  3061   0.678E-03
  39 F= -.23480633E+04 E0= -.23480633E+04  d E =-.954884E-02  mag=     7.0000
       N       E                     dE             d eps       ncg     rms          rms(c)
DAV:   1    -0.232705471583E+04    0.34982E-01   -0.73471E+00  4496   0.239E+00    0.649E-01
RMM:   2    -0.232709812526E+04   -0.43409E-01   -0.45697E-01  6117   0.432E-01    0.393E-01
RMM:   3    -0.232710109977E+04   -0.29745E-02   -0.44015E-02  5737   0.143E-01    0.370E-01
RMM:   4    -0.232710007055E+04    0.10292E-02   -0.46256E-03  6183   0.338E-02    0.189E-01
RMM:   5    -0.232709965959E+04    0.41096E-03   -0.10748E-03  4769   0.220E-02    0.867E-02
RMM:   6    -0.232709965679E+04    0.27990E-05   -0.62957E-04  4876   0.181E-02    0.597E-02
RMM:   7    -0.232709963373E+04    0.23064E-04   -0.10500E-04  3500   0.837E-03    0.379E-02
RMM:   8    -0.232709961999E+04    0.13738E-04   -0.20437E-05  2922   0.439E-03    0.134E-02
RMM:   9    -0.232709961700E+04    0.29940E-05   -0.19842E-05  2983   0.323E-03
  40 F= -.23480723E+04 E0= -.23480723E+04  d E =-.899706E-02  mag=     7.0000
       N       E                     dE             d eps       ncg     rms          rms(c)
DAV:   1    -0.232707385655E+04    0.25763E-01   -0.46727E+00  4504   0.191E+00    0.513E-01
RMM:   2    -0.232710115368E+04   -0.27297E-01   -0.28741E-01  6094   0.342E-01    0.304E-01
RMM:   3    -0.232710305871E+04   -0.19050E-02   -0.28539E-02  5686   0.117E-01    0.278E-01
RMM:   4    -0.232710249290E+04    0.56580E-03   -0.29116E-03  5997   0.267E-02    0.152E-01
RMM:   5    -0.232710222063E+04    0.27227E-03   -0.69756E-04  4615   0.179E-02    0.682E-02
RMM:   6    -0.232710222017E+04    0.45629E-06   -0.38194E-04  4648   0.146E-02    0.552E-02
RMM:   7    -0.232710219712E+04    0.23054E-04   -0.68743E-05  3224   0.719E-03    0.264E-02
RMM:   8    -0.232710219007E+04    0.70455E-05   -0.12360E-05  2911   0.393E-03
  41 F= -.23480741E+04 E0= -.23480741E+04  d E =-.108388E-01  mag=     7.0000
       N       E                     dE             d eps       ncg     rms          rms(c)
DAV:   1    -0.232709133302E+04    0.10864E-01   -0.29793E+00  4544   0.155E+00    0.432E-01
RMM:   2    -0.232711065517E+04   -0.19322E-01   -0.20229E-01  6098   0.289E-01    0.249E-01
RMM:   3    -0.232711185668E+04   -0.12015E-02   -0.20086E-02  5691   0.100E-01    0.218E-01
RMM:   4    -0.232711150632E+04    0.35036E-03   -0.20884E-03  5790   0.225E-02    0.135E-01
RMM:   5    -0.232711126930E+04    0.23702E-03   -0.51818E-04  4600   0.164E-02    0.513E-02
RMM:   6    -0.232711125686E+04    0.12438E-04   -0.19464E-04  4189   0.121E-02    0.169E-02
RMM:   7    -0.232711125599E+04    0.86948E-06   -0.24434E-05  2984   0.551E-03
  42 F= -.23480829E+04 E0= -.23480829E+04  d E =-.874441E-02  mag=     7.0000
       N       E                     dE             d eps       ncg     rms          rms(c)
DAV:   1    -0.232710387351E+04    0.73834E-02   -0.13454E+00  4544   0.104E+00    0.292E-01
RMM:   2    -0.232711261649E+04   -0.87430E-02   -0.91675E-02  6106   0.195E-01    0.169E-01
RMM:   3    -0.232711314102E+04   -0.52452E-03   -0.88805E-03  5579   0.657E-02    0.150E-01
RMM:   4    -0.232711297310E+04    0.16792E-03   -0.93601E-04  4862   0.154E-02    0.905E-02
RMM:   5    -0.232711286590E+04    0.10720E-03   -0.23427E-04  4193   0.116E-02    0.347E-02
RMM:   6    -0.232711285947E+04    0.64313E-05   -0.85605E-05  3565   0.887E-03
  43 F= -.23480843E+04 E0= -.23480843E+04  d E =-.101348E-01  mag=     7.0000
       N       E                     dE             d eps       ncg     rms          rms(c)
DAV:   1    -0.232709758361E+04    0.15282E-01   -0.29179E+00  4512   0.156E+00    0.455E-01
RMM:   2    -0.232711954435E+04   -0.21961E-01   -0.22820E-01  6162   0.299E-01    0.297E-01
RMM:   3    -0.232712093902E+04   -0.13947E-02   -0.22225E-02  5808   0.990E-02    0.260E-01
RMM:   4    -0.232712040580E+04    0.53322E-03   -0.23604E-03  5625   0.232E-02    0.123E-01
RMM:   5    -0.232712022557E+04    0.18023E-03   -0.43582E-04  4415   0.148E-02    0.568E-02
RMM:   6    -0.232712021199E+04    0.13581E-04   -0.20120E-04  4277   0.121E-02    0.212E-02
RMM:   7    -0.232712021310E+04   -0.11080E-05   -0.29810E-05  2991   0.620E-03
  44 F= -.23480917E+04 E0= -.23480917E+04  d E =-.745511E-02  mag=     7.0000
       N       E                     dE             d eps       ncg     rms          rms(c)
DAV:   1    -0.232708085509E+04    0.39357E-01   -0.50208E+00  4496   0.204E+00    0.597E-01
RMM:   2    -0.232711878453E+04   -0.37929E-01   -0.39408E-01  6154   0.394E-01    0.390E-01
RMM:   3    -0.232712114857E+04   -0.23640E-02   -0.38048E-02  5867   0.129E-01    0.340E-01
RMM:   4    -0.232712022783E+04    0.92075E-03   -0.40564E-03  5982   0.304E-02    0.161E-01
RMM:   5    -0.232711991849E+04    0.30934E-03   -0.74694E-04  4654   0.189E-02    0.762E-02
RMM:   6    -0.232711989005E+04    0.28435E-04   -0.38745E-04  4680   0.156E-02    0.250E-02
RMM:   7    -0.232711988666E+04    0.33939E-05   -0.43157E-05  3084   0.717E-03
  45 F= -.23480915E+04 E0= -.23480915E+04  d E =-.727700E-02  mag=     7.0000
       N       E                     dE             d eps       ncg     rms          rms(c)
DAV:   1    -0.232711216364E+04    0.77264E-02   -0.12175E+00  4544   0.101E+00    0.287E-01
RMM:   2    -0.232712113755E+04   -0.89739E-02   -0.93289E-02  6100   0.189E-01    0.182E-01
RMM:   3    -0.232712176216E+04   -0.62461E-03   -0.96825E-03  5511   0.706E-02    0.159E-01
RMM:   4    -0.232712156270E+04    0.19946E-03   -0.98816E-04  4669   0.152E-02    0.810E-02
RMM:   5    -0.232712149336E+04    0.69347E-04   -0.19499E-04  4064   0.104E-02    0.531E-02
RMM:   6    -0.232712149149E+04    0.18703E-05   -0.12578E-04  3426   0.878E-03    0.477E-02
RMM:   7    -0.232712147303E+04    0.18453E-04   -0.34667E-05  3007   0.604E-03    0.103E-02
RMM:   8    -0.232712147263E+04    0.40772E-06   -0.57566E-06  2877   0.334E-03
  46 F= -.23480931E+04 E0= -.23480931E+04  d E =-.878785E-02  mag=     7.0000
       N       E                     dE             d eps       ncg     rms          rms(c)
DAV:   1    -0.232709703282E+04    0.24440E-01   -0.38053E+00  4496   0.178E+00    0.541E-01
RMM:   2    -0.232712802422E+04   -0.30991E-01   -0.32302E-01  6189   0.353E-01    0.354E-01
RMM:   3    -0.232713015481E+04   -0.21306E-02   -0.31926E-02  5847   0.121E-01    0.312E-01
RMM:   4    -0.232712934835E+04    0.80646E-03   -0.33553E-03  5935   0.276E-02    0.139E-01
RMM:   5    -0.232712912793E+04    0.22042E-03   -0.58550E-04  4603   0.166E-02    0.747E-02
RMM:   6    -0.232712915275E+04   -0.24821E-04   -0.37846E-04  4624   0.146E-02    0.881E-02
RMM:   7    -0.232712908624E+04    0.66507E-04   -0.10452E-04  3462   0.815E-03    0.181E-02
RMM:   8    -0.232712908470E+04    0.15449E-05   -0.15632E-05  2947   0.418E-03
  47 F= -.23481012E+04 E0= -.23481012E+04  d E =-.812495E-02  mag=     7.0000
       N       E                     dE             d eps       ncg     rms          rms(c)
DAV:   1    -0.232711496826E+04    0.14118E-01   -0.17959E+00  4544   0.122E+00    0.372E-01
RMM:   2    -0.232712958228E+04   -0.14614E-01   -0.15228E-01  6175   0.243E-01    0.240E-01
RMM:   3    -0.232713060110E+04   -0.10188E-02   -0.15023E-02  5718   0.852E-02    0.212E-01
RMM:   4    -0.232713023146E+04    0.36964E-03   -0.15897E-03  5408   0.190E-02    0.950E-02
RMM:   5    -0.232713012880E+04    0.10266E-03   -0.27403E-04  4233   0.119E-02    0.514E-02
RMM:   6    -0.232713014367E+04   -0.14862E-04   -0.17721E-04  3994   0.104E-02    0.624E-02
RMM:   7    -0.232713011040E+04    0.33266E-04   -0.51020E-05  3104   0.650E-03    0.118E-02
RMM:   8    -0.232713011015E+04    0.25307E-06   -0.85798E-06  2901   0.348E-03
  48 F= -.23481026E+04 E0= -.23481026E+04  d E =-.950230E-02  mag=     7.0000
       N       E                     dE             d eps       ncg     rms          rms(c)
DAV:   1    -0.232711077838E+04    0.19332E-01   -0.26581E+00  4504   0.153E+00    0.454E-01
RMM:   2    -0.232713561747E+04   -0.24839E-01   -0.25644E-01  6190   0.315E-01    0.255E-01
RMM:   3    -0.232713737818E+04   -0.17607E-02   -0.25263E-02  5787   0.111E-01    0.227E-01
RMM:   4    -0.232713704697E+04    0.33121E-03   -0.26445E-03  5721   0.233E-02    0.123E-01
RMM:   5    -0.232713686906E+04    0.17791E-03   -0.39401E-04  4455   0.146E-02    0.614E-02
RMM:   6    -0.232713687239E+04   -0.33316E-05   -0.25803E-04  4556   0.126E-02    0.626E-02
RMM:   7    -0.232713683825E+04    0.34142E-04   -0.60535E-05  3122   0.702E-03    0.183E-02
RMM:   8    -0.232713683549E+04    0.27620E-05   -0.10358E-05  2925   0.365E-03
  49 F= -.23481096E+04 E0= -.23481096E+04  d E =-.700004E-02  mag=     7.0000
       N       E                     dE             d eps       ncg     rms          rms(c)
DAV:   1    -0.232702722275E+04    0.10962E+00   -0.11154E+01  4496   0.313E+00    0.931E-01
RMM:   2    -0.232713196913E+04   -0.10475E+00   -0.10822E+00  6224   0.650E-01    0.526E-01
RMM:   3    -0.232713958131E+04   -0.76122E-02   -0.10884E-01  5935   0.220E-01    0.476E-01
RMM:   4    -0.232713807485E+04    0.15065E-02   -0.11217E-02  6301   0.471E-02    0.255E-01
RMM:   5    -0.232713734984E+04    0.72501E-03   -0.16771E-03  4943   0.282E-02    0.132E-01
RMM:   6    -0.232713727998E+04    0.69860E-04   -0.13273E-03  5405   0.251E-02    0.106E-01
RMM:   7    -0.232713718902E+04    0.90957E-04   -0.23114E-04  4504   0.126E-02    0.505E-02
RMM:   8    -0.232713716360E+04    0.25419E-04   -0.49480E-05  3112   0.502E-03    0.187E-02
RMM:   9    -0.232713715821E+04    0.53973E-05   -0.29371E-05  2942   0.436E-03
  50 F= -.23481104E+04 E0= -.23481104E+04  d E =-.786744E-02  mag=     7.0000
       N       E                     dE             d eps       ncg     rms          rms(c)
DAV:   1    -0.232711726482E+04    0.19899E-01   -0.22475E+00  4512   0.140E+00    0.415E-01
RMM:   2    -0.232713805173E+04   -0.20787E-01   -0.21476E-01  6163   0.286E-01    0.226E-01
RMM:   3    -0.232713963088E+04   -0.15792E-02   -0.22741E-02  5715   0.108E-01    0.190E-01
RMM:   4    -0.232713944043E+04    0.19046E-03   -0.22343E-03  5531   0.214E-02    0.118E-01
RMM:   5    -0.232713930670E+04    0.13372E-03   -0.34992E-04  4363   0.133E-02    0.651E-02
RMM:   6    -0.232713930810E+04   -0.13986E-05   -0.24189E-04  4488   0.114E-02    0.654E-02
RMM:   7    -0.232713927199E+04    0.36110E-04   -0.66073E-05  3093   0.726E-03    0.187E-02
RMM:   8    -0.232713926982E+04    0.21720E-05   -0.10376E-05  2910   0.368E-03
  51 F= -.23481123E+04 E0= -.23481123E+04  d E =-.973778E-02  mag=     7.0000
       N       E                     dE             d eps       ncg     rms          rms(c)
DAV:   1    -0.232712930761E+04    0.99644E-02   -0.15931E+00  4512   0.115E+00    0.340E-01
RMM:   2    -0.232714424675E+04   -0.14939E-01   -0.15411E-01  6245   0.236E-01    0.186E-01
RMM:   3    -0.232714528838E+04   -0.10416E-02   -0.15210E-02  5706   0.821E-02    0.151E-01
RMM:   4    -0.232714520596E+04    0.82426E-04   -0.15601E-03  4446   0.171E-02    0.102E-01
RMM:   5    -0.232714509863E+04    0.10733E-03   -0.22408E-04  3942   0.109E-02    0.517E-02
RMM:   6    -0.232714509662E+04    0.20125E-05   -0.17087E-04  4148   0.984E-03    0.460E-02
RMM:   7    -0.232714507904E+04    0.17580E-04   -0.36203E-05  3010   0.608E-03    0.165E-02
RMM:   8    -0.232714507745E+04    0.15871E-05   -0.64799E-06  2899   0.274E-03
  52 F= -.23481182E+04 E0= -.23481182E+04  d E =-.588713E-02  mag=     7.0000
       N       E                     dE             d eps       ncg     rms          rms(c)
DAV:   1    -0.232709060317E+04    0.54476E-01   -0.58795E+00  4480   0.220E+00    0.655E-01
RMM:   2    -0.232714609854E+04   -0.55495E-01   -0.57297E-01  6277   0.456E-01    0.357E-01
RMM:   3    -0.232715007023E+04   -0.39717E-02   -0.57114E-02  5908   0.152E-01    0.292E-01
RMM:   4    -0.232714976342E+04    0.30681E-03   -0.58267E-03  5967   0.322E-02    0.197E-01
RMM:   5    -0.232714938285E+04    0.38057E-03   -0.82933E-04  4684   0.188E-02    0.101E-01
RMM:   6    -0.232714933527E+04    0.47582E-04   -0.67257E-04  5244   0.175E-02    0.621E-02
RMM:   7    -0.232714931167E+04    0.23599E-04   -0.10614E-04  3280   0.905E-03    0.421E-02
RMM:   8    -0.232714929848E+04    0.13195E-04   -0.27377E-05  3001   0.437E-03    0.136E-02
RMM:   9    -0.232714929821E+04    0.26992E-06   -0.14984E-05  2912   0.298E-03
  53 F= -.23481226E+04 E0= -.23481226E+04  d E =-.102753E-01  mag=     7.0000
       N       E                     dE             d eps       ncg     rms          rms(c)
DAV:   1    -0.232713569385E+04    0.13605E-01   -0.21690E+00  4504   0.127E+00    0.381E-01
RMM:   2    -0.232715468623E+04   -0.18992E-01   -0.19674E-01  6320   0.262E-01    0.192E-01
RMM:   3    -0.232715604862E+04   -0.13624E-02   -0.18953E-02  5695   0.876E-02    0.146E-01
RMM:   4    -0.232715604414E+04    0.44821E-05   -0.19408E-03  4613   0.186E-02    0.120E-01
RMM:   5    -0.232715590702E+04    0.13711E-03   -0.28108E-04  4009   0.115E-02    0.615E-02
RMM:   6    -0.232715589084E+04    0.16183E-04   -0.21856E-04  4402   0.107E-02    0.416E-02
RMM:   7    -0.232715588073E+04    0.10114E-04   -0.46821E-05  3048   0.656E-03    0.264E-02
RMM:   8    -0.232715587581E+04    0.49136E-05   -0.92168E-06  2923   0.307E-03
  54 F= -.23481293E+04 E0= -.23481293E+04  d E =-.671879E-02  mag=     7.0000
       N       E                     dE             d eps       ncg     rms          rms(c)
DAV:   1    -0.232698110357E+04    0.17478E+00   -0.19507E+01  4480   0.381E+00    0.115E+00
RMM:   2    -0.232715326228E+04   -0.17216E+00   -0.17885E+00  6342   0.798E-01    0.567E-01
RMM:   3    -0.232716645389E+04   -0.13192E-01   -0.18152E-01  5910   0.256E-01    0.433E-01
RMM:   4    -0.232716642369E+04    0.30200E-04   -0.17742E-02  6197   0.543E-02    0.356E-01
RMM:   5    -0.232716536746E+04    0.10562E-02   -0.25266E-03  5322   0.295E-02    0.209E-01
RMM:   6    -0.232716499996E+04    0.36750E-03   -0.24772E-03  5233   0.299E-02    0.827E-02
RMM:   7    -0.232716498884E+04    0.11116E-04   -0.33383E-04  4504   0.167E-02    0.846E-02
RMM:   8    -0.232716493528E+04    0.53560E-04   -0.11054E-04  3282   0.656E-03    0.340E-02
RMM:   9    -0.232716492425E+04    0.11028E-04   -0.60219E-05  2987   0.574E-03    0.124E-02
RMM:  10    -0.232716492685E+04   -0.26026E-05   -0.17629E-05  2948   0.347E-03
  55 F= -.23481387E+04 E0= -.23481387E+04  d E =-.161716E-01  mag=     7.0000
       N       E                     dE             d eps       ncg     rms          rms(c)
DAV:   1    -0.232713022082E+04    0.34703E-01   -0.48680E+00  4480   0.183E+00    0.567E-01
RMM:   2    -0.232717224600E+04   -0.42025E-01   -0.43309E-01  6315   0.386E-01    0.273E-01
RMM:   3    -0.232717507255E+04   -0.28266E-02   -0.41433E-02  5867   0.126E-01    0.197E-01
RMM:   4    -0.232717518994E+04   -0.11738E-03   -0.42755E-03  5254   0.264E-02    0.178E-01
RMM:   5    -0.232717491631E+04    0.27363E-03   -0.64172E-04  4682   0.155E-02    0.988E-02
RMM:   6    -0.232717483708E+04    0.79228E-04   -0.46156E-04  4917   0.138E-02    0.314E-02
RMM:   7    -0.232717483391E+04    0.31739E-05   -0.51386E-05  3112   0.797E-03
  56 F= -.23481492E+04 E0= -.23481492E+04  d E =-.104189E-01  mag=     7.0000
       N       E                     dE             d eps       ncg     rms          rms(c)
DAV:   1    -0.232679612821E+04    0.37871E+00   -0.41278E+01  4480   0.532E+00    0.167E+00
RMM:   2    -0.232715974626E+04   -0.36362E+00   -0.37624E+00  6358   0.115E+00    0.795E-01
RMM:   3    -0.232718604500E+04   -0.26299E-01   -0.37759E-01  6025   0.360E-01    0.584E-01
RMM:   4    -0.232718638812E+04   -0.34313E-03   -0.37155E-02  5924   0.763E-02    0.475E-01
RMM:   5    -0.232718493759E+04    0.14505E-02   -0.55962E-03  5717   0.421E-02    0.359E-01
RMM:   6    -0.232718387036E+04    0.10672E-02   -0.49968E-03  5238   0.411E-02    0.129E-01
RMM:   7    -0.232718378409E+04    0.86266E-04   -0.65031E-04  4756   0.225E-02    0.768E-02
RMM:   8    -0.232718376850E+04    0.15592E-04   -0.25718E-04  3920   0.991E-03    0.767E-02
RMM:   9    -0.232718372149E+04    0.47009E-04   -0.13316E-04  3230   0.774E-03    0.221E-02
RMM:  10    -0.232718372660E+04   -0.51115E-05   -0.31629E-05  2994   0.447E-03
  57 F= -.23481594E+04 E0= -.23481594E+04  d E =-.206535E-01  mag=     7.0000
       N       E                     dE             d eps       ncg     rms          rms(c)
DAV:   1    -0.232716930226E+04    0.14419E-01   -0.21318E+00  4656   0.117E+00    0.365E-01
RMM:   2    -0.232718773723E+04   -0.18435E-01   -0.18904E-01  6337   0.249E-01    0.179E-01
RMM:   3    -0.232718893874E+04   -0.12015E-02   -0.18111E-02  5643   0.870E-02    0.112E-01
RMM:   4    -0.232718898669E+04   -0.47947E-04   -0.18040E-03  3942   0.168E-02    0.919E-02
RMM:   5    -0.232718896167E+04    0.25013E-04   -0.26801E-04  3549   0.103E-02    0.851E-02
RMM:   6    -0.232718890732E+04    0.54356E-04   -0.16564E-04  3848   0.915E-03    0.218E-02
RMM:   7    -0.232718891071E+04   -0.33969E-05   -0.24098E-05  3008   0.529E-03
  58 F= -.23481649E+04 E0= -.23481649E+04  d E =-.548244E-02  mag=     7.0000
       N       E                     dE             d eps       ncg     rms          rms(c)
DAV:   1    -0.232702011418E+04    0.16879E+00   -0.19157E+01  4480   0.350E+00    0.111E+00
RMM:   2    -0.232718861696E+04   -0.16850E+00   -0.17340E+00  6392   0.758E-01    0.540E-01
RMM:   3    -0.232720002265E+04   -0.11406E-01   -0.16769E-01  5963   0.239E-01    0.360E-01
RMM:   4    -0.232720017525E+04   -0.15260E-03   -0.16542E-02  5526   0.494E-02    0.261E-01
RMM:   5    -0.232720007091E+04    0.10435E-03   -0.27682E-03  5441   0.297E-02    0.265E-01
RMM:   6    -0.232719957734E+04    0.49357E-03   -0.15458E-03  5552   0.232E-02    0.110E-01
RMM:   7    -0.232719951292E+04    0.64419E-04   -0.24681E-04  3812   0.109E-02    0.377E-02
RMM:   8    -0.232719951838E+04   -0.54667E-05   -0.87488E-05  3070   0.680E-03
  59 F= -.23481763E+04 E0= -.23481763E+04  d E =-.168961E-01  mag=     7.0000
       N       E                     dE             d eps       ncg     rms          rms(c)
DAV:   1    -0.232645009025E+04    0.74942E+00   -0.76548E+01  4480   0.700E+00    0.223E+00
RMM:   2    -0.232714358609E+04   -0.69350E+00   -0.71678E+00  6453   0.156E+00    0.111E+00
RMM:   3    -0.232719565644E+04   -0.52070E-01   -0.74046E-01  6102   0.477E-01    0.813E-01
RMM:   4    -0.232719551609E+04    0.14035E-03   -0.71411E-02  6030   0.102E-01    0.600E-01
RMM:   5    -0.232719343477E+04    0.20813E-02   -0.10375E-02  5881   0.544E-02    0.487E-01
RMM:   6    -0.232719207787E+04    0.13569E-02   -0.82479E-03  5290   0.511E-02    0.230E-01
RMM:   7    -0.232719179791E+04    0.27996E-03   -0.14017E-03  4982   0.282E-02    0.121E-01
RMM:   8    -0.232719177641E+04    0.21507E-04   -0.49590E-04  3900   0.129E-02    0.117E-01
RMM:   9    -0.232719167602E+04    0.10038E-03   -0.32597E-04  3332   0.109E-02    0.295E-02
RMM:  10    -0.232719170035E+04   -0.24330E-04   -0.70271E-05  3030   0.506E-03    0.153E-02
RMM:  11    -0.232719172344E+04   -0.23083E-04   -0.11143E-05  2913   0.362E-03    0.805E-03
RMM:  12    -0.232719173768E+04   -0.14248E-04   -0.52006E-06  2845   0.271E-03    0.446E-03
RMM:  13    -0.232719174589E+04   -0.82100E-05   -0.23792E-06  2755   0.210E-03
  60 F= -.23481697E+04 E0= -.23481697E+04  d E =-.103240E-01  mag=     7.0000
       N       E                     dE             d eps       ncg     rms          rms(c)
DAV:   1    -0.232686364906E+04    0.32809E+00   -0.36293E+01  4480   0.481E+00    0.151E+00
RMM:   2    -0.232717928416E+04   -0.31564E+00   -0.32533E+00  6265   0.101E+00    0.781E-01
RMM:   3    -0.232720300110E+04   -0.23717E-01   -0.37728E-01  5749   0.420E-01    0.518E-01
RMM:   4    -0.232720359808E+04   -0.59698E-03   -0.31258E-02  6102   0.714E-02    0.425E-01
RMM:   5    -0.232720253175E+04    0.10663E-02   -0.40737E-03  5718   0.344E-02    0.313E-01
RMM:   6    -0.232720186476E+04    0.66699E-03   -0.31236E-03  5009   0.334E-02    0.112E-01
RMM:   7    -0.232720186590E+04   -0.11352E-05   -0.51269E-04  4231   0.191E-02    0.101E-01
RMM:   8    -0.232720179229E+04    0.73605E-04   -0.15998E-04  3288   0.714E-03    0.395E-02
RMM:   9    -0.232720179138E+04    0.91511E-06   -0.67448E-05  3032   0.564E-03
  61 F= -.23481790E+04 E0= -.23481790E+04  d E =-.196024E-01  mag=     7.0000
       N       E                     dE             d eps       ncg     rms          rms(c)
DAV:   1    -0.232720324438E+04   -0.14521E-02   -0.17457E+00  4536   0.109E+00    0.368E-01
RMM:   2    -0.232721537762E+04   -0.12133E-01   -0.12662E-01  6095   0.226E-01    0.166E-01
RMM:   3    -0.232721585709E+04   -0.47947E-03   -0.11112E-02  5559   0.825E-02    0.126E-01
RMM:   4    -0.232721583635E+04    0.20740E-04   -0.12909E-03  4689   0.183E-02    0.106E-01
RMM:   5    -0.232721572257E+04    0.11378E-03   -0.33577E-04  4540   0.130E-02    0.591E-02
RMM:   6    -0.232721569276E+04    0.29812E-04   -0.13707E-04  4130   0.940E-03    0.340E-02
RMM:   7    -0.232721568320E+04    0.95630E-05   -0.29854E-05  2972   0.595E-03
  62 F= -.23481929E+04 E0= -.23481929E+04  d E =-.139138E-01  mag=     7.0000
       N       E                     dE             d eps       ncg     rms          rms(c)
DAV:   1    -0.232715072764E+04    0.64965E-01   -0.10983E+01  4496   0.273E+00    0.926E-01
RMM:   2    -0.232722789589E+04   -0.77168E-01   -0.80718E-01  6147   0.573E-01    0.413E-01
RMM:   3    -0.232723087765E+04   -0.29818E-02   -0.68336E-02  5666   0.193E-01    0.320E-01
RMM:   4    -0.232723069800E+04    0.17965E-03   -0.81377E-03  5784   0.457E-02    0.274E-01
RMM:   5    -0.232722994149E+04    0.75650E-03   -0.21001E-03  5275   0.295E-02    0.143E-01
RMM:   6    -0.232722974079E+04    0.20070E-03   -0.92766E-04  5281   0.212E-02    0.728E-02
RMM:   7    -0.232722970247E+04    0.38317E-04   -0.16400E-04  3930   0.119E-02    0.483E-02
RMM:   8    -0.232722967288E+04    0.29591E-04   -0.52253E-05  3082   0.518E-03    0.187E-02
RMM:   9    -0.232722966241E+04    0.10469E-04   -0.27350E-05  2963   0.445E-03    0.904E-03
RMM:  10    -0.232722965922E+04    0.31924E-05   -0.11554E-05  2894   0.394E-03
  63 F= -.23482069E+04 E0= -.23482069E+04  d E =-.278813E-01  mag=     7.0000
       N       E                     dE             d eps       ncg     rms          rms(c)
DAV:   1    -0.232722996899E+04   -0.30657E-03   -0.17679E+00  4640   0.106E+00    0.325E-01
RMM:   2    -0.232724068641E+04   -0.10717E-01   -0.11107E-01  6145   0.211E-01    0.168E-01
RMM:   3    -0.232724115867E+04   -0.47226E-03   -0.10300E-02  5619   0.794E-02    0.149E-01
RMM:   4    -0.232724106371E+04    0.94955E-04   -0.11182E-03  4280   0.167E-02    0.902E-02
RMM:   5    -0.232724098503E+04    0.78678E-04   -0.26980E-04  4174   0.116E-02    0.618E-02
RMM:   6    -0.232724096954E+04    0.15493E-04   -0.14929E-04  3793   0.944E-03    0.480E-02
RMM:   7    -0.232724095257E+04    0.16975E-04   -0.36841E-05  3030   0.610E-03    0.167E-02
RMM:   8    -0.232724095132E+04    0.12491E-05   -0.70785E-06  2885   0.314E-03
  64 F= -.23482181E+04 E0= -.23482181E+04  d E =-.112063E-01  mag=     7.0000
       N       E                     dE             d eps       ncg     rms          rms(c)
DAV:   1    -0.232715730399E+04    0.83649E-01   -0.15906E+01  4496   0.318E+00    0.978E-01
RMM:   2    -0.232725545089E+04   -0.98147E-01   -0.10183E+00  6171   0.649E-01    0.516E-01
RMM:   3    -0.232725960004E+04   -0.41492E-02   -0.87658E-02  5806   0.226E-01    0.493E-01
RMM:   4    -0.232725820408E+04    0.13960E-02   -0.10071E-02  6073   0.500E-02    0.270E-01
RMM:   5    -0.232725741975E+04    0.78434E-03   -0.23928E-03  5128   0.316E-02    0.157E-01
RMM:   6    -0.232725741331E+04    0.64322E-05   -0.13357E-03  5420   0.254E-02    0.149E-01
RMM:   7    -0.232725723665E+04    0.17666E-03   -0.31343E-04  4461   0.123E-02    0.425E-02
RMM:   8    -0.232725722010E+04    0.16553E-04   -0.61246E-05  3033   0.574E-03    0.185E-02
RMM:   9    -0.232725722271E+04   -0.26112E-05   -0.22468E-05  2952   0.408E-03
  65 F= -.23482341E+04 E0= -.23482341E+04  d E =-.271974E-01  mag=     7.0000
       N       E                     dE             d eps       ncg     rms          rms(c)
DAV:   1    -0.232724767427E+04    0.95458E-02   -0.42786E+00  4480   0.171E+00    0.496E-01
RMM:   2    -0.232727243618E+04   -0.24762E-01   -0.25874E-01  6219   0.330E-01    0.319E-01
RMM:   3    -0.232727287837E+04   -0.44218E-03   -0.19783E-02  5839   0.107E-01    0.272E-01
RMM:   4    -0.232727241525E+04    0.46312E-03   -0.23920E-03  5489   0.261E-02    0.152E-01
RMM:   5    -0.232727216686E+04    0.24839E-03   -0.81728E-04  4706   0.185E-02    0.756E-02
RMM:   6    -0.232727218229E+04   -0.15430E-04   -0.33958E-04  4499   0.144E-02    0.781E-02
RMM:   7    -0.232727213579E+04    0.46498E-04   -0.83627E-05  3168   0.695E-03    0.249E-02
RMM:   8    -0.232727213336E+04    0.24317E-05   -0.16430E-05  2967   0.405E-03
  66 F= -.23482490E+04 E0= -.23482490E+04  d E =-.149203E-01  mag=     7.0000
       N       E                     dE             d eps       ncg     rms          rms(c)
DAV:   1    -0.232726273713E+04    0.93987E-02   -0.21871E+00  4512   0.122E+00    0.356E-01
RMM:   2    -0.232727542571E+04   -0.12689E-01   -0.13239E-01  6201   0.232E-01    0.234E-01
RMM:   3    -0.232727563648E+04   -0.21076E-03   -0.10226E-02  5741   0.766E-02    0.198E-01
RMM:   4    -0.232727538203E+04    0.25444E-03   -0.12368E-03  4885   0.187E-02    0.108E-01
RMM:   5    -0.232727525586E+04    0.12618E-03   -0.42147E-04  4342   0.138E-02    0.540E-02
RMM:   6    -0.232727526465E+04   -0.87868E-05   -0.17984E-04  3859   0.110E-02    0.579E-02
RMM:   7    -0.232727523885E+04    0.25796E-04   -0.46657E-05  3054   0.594E-03    0.179E-02
RMM:   8    -0.232727523763E+04    0.12239E-05   -0.94755E-06  2927   0.336E-03
  67 F= -.23482521E+04 E0= -.23482521E+04  d E =-.180460E-01  mag=     7.0000
       N       E                     dE             d eps       ncg     rms          rms(c)
DAV:   1    -0.232725877459E+04    0.16464E-01   -0.57343E+00  4496   0.201E+00    0.550E-01
RMM:   2    -0.232728903150E+04   -0.30257E-01   -0.31407E-01  6166   0.368E-01    0.367E-01
RMM:   3    -0.232728968042E+04   -0.64891E-03   -0.24260E-02  5853   0.117E-01    0.318E-01
RMM:   4    -0.232728894463E+04    0.73579E-03   -0.29744E-03  5645   0.291E-02    0.152E-01
RMM:   5    -0.232728860622E+04    0.33841E-03   -0.10203E-03  4885   0.218E-02    0.710E-02
RMM:   6    -0.232728859215E+04    0.14071E-04   -0.30227E-04  4632   0.148E-02    0.330E-02
RMM:   7    -0.232728859270E+04   -0.55597E-06   -0.55335E-05  3132   0.633E-03
  68 F= -.23482649E+04 E0= -.23482649E+04  d E =-.128074E-01  mag=     7.0000
       N       E                     dE             d eps       ncg     rms          rms(c)
DAV:   1    -0.232727570196E+04    0.12890E-01   -0.29471E+00  4528   0.144E+00    0.397E-01
RMM:   2    -0.232729130526E+04   -0.15603E-01   -0.16210E-01  6185   0.264E-01    0.267E-01
RMM:   3    -0.232729161788E+04   -0.31263E-03   -0.12466E-02  5877   0.814E-02    0.233E-01
RMM:   4    -0.232729121821E+04    0.39967E-03   -0.15197E-03  5263   0.209E-02    0.108E-01
RMM:   5    -0.232729105468E+04    0.16353E-03   -0.53975E-04  4517   0.158E-02    0.524E-02
RMM:   6    -0.232729105786E+04   -0.31764E-05   -0.17451E-04  4184   0.118E-02    0.459E-02
RMM:   7    -0.232729104384E+04    0.14014E-04   -0.41808E-05  3030   0.559E-03    0.205E-02
RMM:   8    -0.232729104102E+04    0.28225E-05   -0.97520E-06  2925   0.346E-03
  69 F= -.23482670E+04 E0= -.23482670E+04  d E =-.148830E-01  mag=     7.0000
       N       E                     dE             d eps       ncg     rms          rms(c)
DAV:   1    -0.232727129353E+04    0.19750E-01   -0.51867E+00  4496   0.200E+00    0.570E-01
RMM:   2    -0.232730295793E+04   -0.31664E-01   -0.33009E-01  6091   0.374E-01    0.388E-01
RMM:   3    -0.232730411373E+04   -0.11558E-02   -0.28305E-02  5776   0.126E-01    0.326E-01
RMM:   4    -0.232730332995E+04    0.78378E-03   -0.32291E-03  5659   0.300E-02    0.150E-01
RMM:   5    -0.232730303520E+04    0.29476E-03   -0.88902E-04  4930   0.205E-02    0.759E-02
RMM:   6    -0.232730305541E+04   -0.20212E-04   -0.38815E-04  4652   0.157E-02    0.849E-02
RMM:   7    -0.232730299703E+04    0.58378E-04   -0.92084E-05  3334   0.734E-03    0.267E-02
RMM:   8    -0.232730299165E+04    0.53794E-05   -0.17224E-05  2961   0.422E-03
  70 F= -.23482781E+04 E0= -.23482781E+04  d E =-.111385E-01  mag=     7.0000
       N       E                     dE             d eps       ncg     rms          rms(c)
DAV:   1    -0.232729452158E+04    0.84755E-02   -0.17136E+00  4576   0.115E+00    0.328E-01
RMM:   2    -0.232730495642E+04   -0.10435E-01   -0.10893E-01  6085   0.215E-01    0.222E-01
RMM:   3    -0.232730533075E+04   -0.37432E-03   -0.92767E-03  5691   0.746E-02    0.187E-01
RMM:   4    -0.232730507129E+04    0.25946E-03   -0.10628E-03  4877   0.175E-02    0.861E-02
RMM:   5    -0.232730497208E+04    0.99210E-04   -0.29102E-04  4320   0.125E-02    0.435E-02
RMM:   6    -0.232730497876E+04   -0.66880E-05   -0.12854E-04  3685   0.990E-03    0.489E-02
RMM:   7    -0.232730495991E+04    0.18859E-04   -0.32650E-05  3000   0.574E-03    0.158E-02
RMM:   8    -0.232730495880E+04    0.11101E-05   -0.72505E-06  2903   0.308E-03
  71 F= -.23482797E+04 E0= -.23482797E+04  d E =-.126621E-01  mag=     7.0000
       N       E                     dE             d eps       ncg     rms          rms(c)
DAV:   1    -0.232729827208E+04    0.66878E-02   -0.13123E+00  4512   0.113E+00    0.356E-01
RMM:   2    -0.232731031890E+04   -0.12047E-01   -0.12710E-01  6008   0.226E-01    0.206E-01
RMM:   3    -0.232731105636E+04   -0.73746E-03   -0.12284E-02  5594   0.865E-02    0.168E-01
RMM:   4    -0.232731087695E+04    0.17941E-03   -0.13535E-03  5129   0.196E-02    0.103E-01
RMM:   5    -0.232731075143E+04    0.12552E-03   -0.34881E-04  4640   0.140E-02    0.523E-02
RMM:   6    -0.232731075272E+04   -0.12894E-05   -0.17079E-04  3878   0.107E-02    0.590E-02
RMM:   7    -0.232731072326E+04    0.29463E-04   -0.42352E-05  3066   0.626E-03    0.166E-02
RMM:   8    -0.232731072145E+04    0.18106E-05   -0.90853E-06  2909   0.335E-03
  72 F= -.23482854E+04 E0= -.23482854E+04  d E =-.575424E-02  mag=     7.0000
       N       E                     dE             d eps       ncg     rms          rms(c)
DAV:   1    -0.232730930944E+04    0.14138E-02   -0.18854E-01  4720   0.428E-01    0.135E-01
RMM:   2    -0.232731104074E+04   -0.17313E-02   -0.18263E-02  6060   0.862E-02    0.800E-02
RMM:   3    -0.232731114796E+04   -0.10723E-03   -0.18008E-03  4559   0.325E-02    0.656E-02
RMM:   4    -0.232731111837E+04    0.29595E-04   -0.19591E-04  3203   0.817E-03    0.386E-02
RMM:   5    -0.232731109946E+04    0.18909E-04   -0.50214E-05  3099   0.637E-03    0.214E-02
RMM:   6    -0.232731109941E+04    0.52343E-07   -0.29522E-05  2949   0.572E-03
  73 F= -.23482858E+04 E0= -.23482858E+04  d E =-.613350E-02  mag=     7.0000
       N       E                     dE             d eps       ncg     rms          rms(c)
DAV:   1    -0.232730156411E+04    0.95353E-02   -0.12986E+00  4512   0.112E+00    0.323E-01
RMM:   2    -0.232731472723E+04   -0.13163E-01   -0.13847E-01  6002   0.223E-01    0.179E-01
RMM:   3    -0.232731564405E+04   -0.91682E-03   -0.13132E-02  5557   0.833E-02    0.131E-01
RMM:   4    -0.232731558118E+04    0.62873E-04   -0.13955E-03  4801   0.173E-02    0.946E-02
RMM:   5    -0.232731547830E+04    0.10287E-03   -0.23825E-04  4177   0.119E-02    0.515E-02
RMM:   6    -0.232731545229E+04    0.26017E-04   -0.14265E-04  4211   0.927E-03    0.276E-02
RMM:   7    -0.232731544845E+04    0.38390E-05   -0.23097E-05  2934   0.603E-03
  74 F= -.23482903E+04 E0= -.23482903E+04  d E =-.452803E-02  mag=     7.0000
       N       E                     dE             d eps       ncg     rms          rms(c)
DAV:   1    -0.232731238372E+04    0.30686E-02   -0.29817E-01  4624   0.536E-01    0.156E-01
RMM:   2    -0.232731540497E+04   -0.30212E-02   -0.31750E-02  6004   0.107E-01    0.928E-02
RMM:   3    -0.232731563218E+04   -0.22721E-03   -0.31504E-03  4944   0.439E-02    0.739E-02
RMM:   4    -0.232731560142E+04    0.30759E-04   -0.32986E-04  3271   0.917E-03    0.449E-02
RMM:   5    -0.232731557732E+04    0.24098E-04   -0.53178E-05  3048   0.646E-03    0.264E-02
RMM:   6    -0.232731557499E+04    0.23296E-05   -0.39922E-05  3047   0.588E-03
  75 F= -.23482906E+04 E0= -.23482906E+04  d E =-.474599E-02  mag=     7.0000
       N       E                     dE             d eps       ncg     rms          rms(c)
DAV:   1    -0.232730231693E+04    0.13260E-01   -0.15027E+00  4504   0.128E+00    0.366E-01
RMM:   2    -0.232731841357E+04   -0.16097E-01   -0.16890E-01  5955   0.250E-01    0.206E-01
RMM:   3    -0.232731959699E+04   -0.11834E-02   -0.16226E-02  5560   0.908E-02    0.158E-01
RMM:   4    -0.232731946194E+04    0.13505E-03   -0.17229E-03  5205   0.196E-02    0.996E-02
RMM:   5    -0.232731933574E+04    0.12620E-03   -0.28146E-04  4397   0.130E-02    0.486E-02
RMM:   6    -0.232731930808E+04    0.27656E-04   -0.17912E-04  4508   0.103E-02    0.295E-02
RMM:   7    -0.232731930310E+04    0.49787E-05   -0.31937E-05  2950   0.726E-03
  76 F= -.23482947E+04 E0= -.23482947E+04  d E =-.418167E-02  mag=     7.0000
       N       E                     dE             d eps       ncg     rms          rms(c)
DAV:   1    -0.232731359279E+04    0.57153E-02   -0.53645E-01  4528   0.762E-01    0.221E-01
RMM:   2    -0.232731935172E+04   -0.57589E-02   -0.60366E-02  6004   0.150E-01    0.134E-01
RMM:   3    -0.232731979661E+04   -0.44489E-03   -0.60391E-03  5435   0.566E-02    0.108E-01
RMM:   4    -0.232731971246E+04    0.84151E-04   -0.62752E-04  3919   0.123E-02    0.587E-02
RMM:   5    -0.232731966679E+04    0.45676E-04   -0.97303E-05  3452   0.838E-03    0.337E-02
RMM:   6    -0.232731966146E+04    0.53295E-05   -0.83198E-05  3563   0.779E-03
  77 F= -.23482954E+04 E0= -.23482954E+04  d E =-.481233E-02  mag=     7.0000
       N       E                     dE             d eps       ncg     rms          rms(c)
DAV:   1    -0.232731173271E+04    0.79341E-02   -0.10214E+00  4504   0.106E+00    0.314E-01
RMM:   2    -0.232732294859E+04   -0.11216E-01   -0.11817E-01  5995   0.209E-01    0.200E-01
RMM:   3    -0.232732376014E+04   -0.81156E-03   -0.11905E-02  5471   0.813E-02    0.153E-01
RMM:   4    -0.232732361215E+04    0.14800E-03   -0.13121E-03  5162   0.176E-02    0.838E-02
RMM:   5    -0.232732350813E+04    0.10402E-03   -0.24362E-04  4298   0.123E-02    0.438E-02
RMM:   6    -0.232732349763E+04    0.10503E-04   -0.15515E-04  4161   0.989E-03    0.373E-02
RMM:   7    -0.232732348775E+04    0.98729E-05   -0.29467E-05  2966   0.628E-03
  78 F= -.23482994E+04 E0= -.23482994E+04  d E =-.398672E-02  mag=     7.0000
       N       E                     dE             d eps       ncg     rms          rms(c)
DAV:   1    -0.232732022602E+04    0.32716E-02   -0.30102E-01  4576   0.576E-01    0.172E-01
RMM:   2    -0.232732354074E+04   -0.33147E-02   -0.34824E-02  5992   0.113E-01    0.120E-01
RMM:   3    -0.232732378508E+04   -0.24434E-03   -0.36755E-03  5044   0.461E-02    0.915E-02
RMM:   4    -0.232732372070E+04    0.64378E-04   -0.39507E-04  3573   0.101E-02    0.455E-02
RMM:   5    -0.232732368983E+04    0.30871E-04   -0.75201E-05  3297   0.747E-03    0.275E-02
RMM:   6    -0.232732368749E+04    0.23340E-05   -0.45222E-05  3045   0.642E-03
  79 F= -.23482996E+04 E0= -.23482996E+04  d E =-.427289E-02  mag=     7.0000
       N       E                     dE             d eps       ncg     rms          rms(c)
DAV:   1    -0.232731480165E+04    0.88882E-02   -0.89867E-01  4504   0.984E-01    0.285E-01
RMM:   2    -0.232732543891E+04   -0.10637E-01   -0.11167E-01  6050   0.195E-01    0.208E-01
RMM:   3    -0.232732628491E+04   -0.84599E-03   -0.12301E-02  5498   0.778E-02    0.146E-01
RMM:   4    -0.232732616000E+04    0.12491E-03   -0.12742E-03  4518   0.157E-02    0.788E-02
RMM:   5    -0.232732610309E+04    0.56910E-04   -0.17309E-04  3630   0.947E-03    0.670E-02
RMM:   6    -0.232732606362E+04    0.39469E-04   -0.14771E-04  3765   0.889E-03    0.398E-02
RMM:   7    -0.232732605226E+04    0.11361E-04   -0.48736E-05  3107   0.663E-03    0.143E-02
RMM:   8    -0.232732604996E+04    0.22986E-05   -0.91509E-06  2908   0.438E-03
  80 F= -.23483020E+04 E0= -.23483020E+04  d E =-.237678E-02  mag=     7.0000
       N       E                     dE             d eps       ncg     rms          rms(c)
DAV:   1    -0.232732427385E+04    0.17784E-02   -0.14454E-01  4688   0.395E-01    0.114E-01
RMM:   2    -0.232732600359E+04   -0.17297E-02   -0.18110E-02  6115   0.789E-02    0.857E-02
RMM:   3    -0.232732612950E+04   -0.12591E-03   -0.18984E-03  4188   0.314E-02    0.597E-02
RMM:   4    -0.232732610778E+04    0.21717E-04   -0.20245E-04  3102   0.721E-03    0.309E-02
RMM:   5    -0.232732609743E+04    0.10347E-04   -0.30199E-05  2956   0.480E-03    0.249E-02
RMM:   6    -0.232732609297E+04    0.44650E-05   -0.24599E-05  2938   0.440E-03
  81 F= -.23483021E+04 E0= -.23483021E+04  d E =-.242563E-02  mag=     7.0000
       N       E                     dE             d eps       ncg     rms          rms(c)
DAV:   1    -0.232731780454E+04    0.82929E-02   -0.95522E-01  4504   0.101E+00    0.297E-01
RMM:   2    -0.232732821218E+04   -0.10408E-01   -0.10965E-01  5807   0.196E-01    0.206E-01
RMM:   3    -0.232732904039E+04   -0.82821E-03   -0.12224E-02  5184   0.896E-02    0.150E-01
RMM:   4    -0.232732888631E+04    0.15408E-03   -0.12499E-03  5064   0.168E-02    0.809E-02
RMM:   5    -0.232732881689E+04    0.69426E-04   -0.20762E-04  3993   0.108E-02    0.652E-02
RMM:   6    -0.232732878081E+04    0.36073E-04   -0.16996E-04  4070   0.929E-03    0.423E-02
RMM:   7    -0.232732876496E+04    0.15855E-04   -0.42168E-05  3122   0.668E-03    0.143E-02
RMM:   8    -0.232732876188E+04    0.30773E-05   -0.10269E-05  2902   0.418E-03
  82 F= -.23483049E+04 E0= -.23483049E+04  d E =-.281323E-02  mag=     7.0000
       N       E                     dE             d eps       ncg     rms          rms(c)
DAV:   1    -0.232731291400E+04    0.15851E-01   -0.13280E+00  4504   0.119E+00    0.351E-01
RMM:   2    -0.232732749808E+04   -0.14584E-01   -0.15314E-01  5952   0.232E-01    0.252E-01
RMM:   3    -0.232732858624E+04   -0.10882E-02   -0.16767E-02  5350   0.972E-02    0.181E-01
RMM:   4    -0.232732834983E+04    0.23641E-03   -0.17250E-03  5323   0.195E-02    0.947E-02
RMM:   5    -0.232732824980E+04    0.10003E-03   -0.29504E-04  4377   0.125E-02    0.774E-02
RMM:   6    -0.232732819704E+04    0.52762E-04   -0.23782E-04  4324   0.105E-02    0.510E-02
RMM:   7    -0.232732817218E+04    0.24859E-04   -0.59114E-05  3317   0.758E-03    0.163E-02
RMM:   8    -0.232732816719E+04    0.49952E-05   -0.13710E-05  2919   0.465E-03
  83 F= -.23483044E+04 E0= -.23483044E+04  d E =-.238344E-02  mag=     7.0000
       N       E                     dE             d eps       ncg     rms          rms(c)
DAV:   1    -0.232732395541E+04    0.42168E-02   -0.44118E-01  4512   0.688E-01    0.201E-01
RMM:   2    -0.232732876690E+04   -0.48115E-02   -0.50453E-02  5989   0.133E-01    0.142E-01
RMM:   3    -0.232732913970E+04   -0.37280E-03   -0.54243E-03  5143   0.566E-02    0.108E-01
RMM:   4    -0.232732905056E+04    0.89135E-04   -0.56044E-04  3800   0.116E-02    0.530E-02
RMM:   5    -0.232732900943E+04    0.41131E-04   -0.10274E-04  3589   0.829E-03    0.317E-02
RMM:   6    -0.232732900913E+04    0.30335E-06   -0.63772E-05  3097   0.707E-03
  84 F= -.23483052E+04 E0= -.23483052E+04  d E =-.313103E-02  mag=     7.0000
       N       E                     dE             d eps       ncg     rms          rms(c)
DAV:   1    -0.232732587154E+04    0.31379E-02   -0.50642E-01  4488   0.718E-01    0.205E-01
RMM:   2    -0.232733077109E+04   -0.48995E-02   -0.51502E-02  6111   0.140E-01    0.137E-01
RMM:   3    -0.232733111608E+04   -0.34499E-03   -0.53709E-03  5385   0.600E-02    0.102E-01
RMM:   4    -0.232733104398E+04    0.72102E-04   -0.53267E-04  3913   0.121E-02    0.615E-02
RMM:   5    -0.232733098743E+04    0.56548E-04   -0.12913E-04  3797   0.942E-03    0.297E-02
RMM:   6    -0.232733098157E+04    0.58624E-05   -0.69415E-05  3470   0.734E-03
  85 F= -.23483072E+04 E0= -.23483072E+04  d E =-.204264E-02  mag=     7.0000
       N       E                     dE             d eps       ncg     rms          rms(c)
[...]
RMM:   2    -0.232741704069E+04   -0.79800E-03   -0.83081E-03  6181   0.653E-02    0.659E-02
RMM:   3    -0.232741707288E+04   -0.32194E-04   -0.69334E-04  3969   0.211E-02    0.624E-02
RMM:   4    -0.232741704256E+04    0.30329E-04   -0.82939E-05  3052   0.650E-03    0.283E-02
RMM:   5    -0.232741703651E+04    0.60438E-05   -0.32779E-05  3010   0.509E-03
 171 F= -.23484036E+04 E0= -.23484036E+04  d E =-.135476E-02  mag=     7.0000
       N       E                     dE             d eps       ncg     rms          rms(c)
DAV:   1    -0.232741456995E+04    0.24726E-02   -0.64274E-01  4480   0.762E-01    0.220E-01
RMM:   2    -0.232741845222E+04   -0.38823E-02   -0.40418E-02  6046   0.141E-01    0.160E-01
RMM:   3    -0.232741856093E+04   -0.10871E-03   -0.34381E-03  5345   0.497E-02    0.140E-01
RMM:   4    -0.232741840013E+04    0.16080E-03   -0.41142E-04  4501   0.126E-02    0.586E-02
RMM:   5    -0.232741835866E+04    0.41476E-04   -0.14275E-04  4189   0.101E-02    0.265E-02
RMM:   6    -0.232741836369E+04   -0.50386E-05   -0.51302E-05  3030   0.735E-03
 172 F= -.23484047E+04 E0= -.23484047E+04  d E =-.111561E-02  mag=     7.0000
       N       E                     dE             d eps       ncg     rms          rms(c)
DAV:   1    -0.232741814930E+04    0.20936E-03   -0.36802E-02  4888   0.183E-01    0.544E-02
RMM:   2    -0.232741837367E+04   -0.22437E-03   -0.23754E-03  6296   0.364E-02    0.322E-02
RMM:   3    -0.232741838624E+04   -0.12571E-04   -0.22794E-04  3192   0.118E-02    0.308E-02
RMM:   4    -0.232741838001E+04    0.62297E-05   -0.26639E-05  2967   0.405E-03
 173 F= -.23484047E+04 E0= -.23484047E+04  d E =-.108191E-02  mag=     7.0000
       N       E                     dE             d eps       ncg     rms          rms(c)
DAV:   1    -0.232741743143E+04    0.95481E-03   -0.41289E-01  4512   0.593E-01    0.164E-01
RMM:   2    -0.232741955556E+04   -0.21241E-02   -0.21956E-02  5863   0.104E-01    0.111E-01
RMM:   3    -0.232741960379E+04   -0.48228E-04   -0.16219E-03  4775   0.388E-02    0.101E-01
RMM:   4    -0.232741952388E+04    0.79913E-04   -0.22327E-04  3524   0.943E-03    0.465E-02
RMM:   5    -0.232741950085E+04    0.23027E-04   -0.89280E-05  3635   0.801E-03    0.163E-02
RMM:   6    -0.232741950215E+04   -0.12998E-05   -0.19591E-05  2950   0.565E-03
 174 F= -.23484057E+04 E0= -.23484057E+04  d E =-.998492E-03  mag=     7.0000
       N       E                     dE             d eps       ncg     rms          rms(c)
DAV:   1    -0.232741653543E+04    0.29654E-02   -0.67288E-01  4512   0.757E-01    0.211E-01
RMM:   2    -0.232742006268E+04   -0.35273E-02   -0.36182E-02  5853   0.134E-01    0.155E-01
RMM:   3    -0.232742011959E+04   -0.56913E-04   -0.26527E-03  5065   0.449E-02    0.137E-01
RMM:   4    -0.232741996595E+04    0.15364E-03   -0.36548E-04  4101   0.116E-02    0.574E-02
RMM:   5    -0.232741994293E+04    0.23019E-04   -0.14094E-04  3938   0.931E-03    0.439E-02
RMM:   6    -0.232741993784E+04    0.50950E-05   -0.69747E-05  3118   0.720E-03
 175 F= -.23484060E+04 E0= -.23484060E+04  d E =-.128011E-02  mag=     7.0000
       N       E                     dE             d eps       ncg     rms          rms(c)
DAV:   1    -0.232741859850E+04    0.13444E-02   -0.52072E-01  4512   0.660E-01    0.192E-01
RMM:   2    -0.232742133291E+04   -0.27344E-02   -0.28679E-02  5965   0.120E-01    0.120E-01
RMM:   3    -0.232742142298E+04   -0.90080E-04   -0.23084E-03  5045   0.426E-02    0.106E-01
RMM:   4    -0.232742134353E+04    0.79459E-04   -0.30682E-04  3710   0.105E-02    0.546E-02
RMM:   5    -0.232742132280E+04    0.20724E-04   -0.99173E-05  3536   0.842E-03    0.354E-02
RMM:   6    -0.232742132468E+04   -0.18786E-05   -0.57072E-05  3057   0.705E-03
 176 F= -.23484073E+04 E0= -.23484073E+04  d E =-.137142E-02  mag=     7.0000
       N       E                     dE             d eps       ncg     rms          rms(c)
DAV:   1    -0.232741918791E+04    0.21349E-02   -0.47032E-01  4512   0.627E-01    0.182E-01
RMM:   2    -0.232742165883E+04   -0.24709E-02   -0.25929E-02  6037   0.114E-01    0.110E-01
RMM:   3    -0.232742174441E+04   -0.85586E-04   -0.20736E-03  5043   0.389E-02    0.989E-02
RMM:   4    -0.232742167747E+04    0.66941E-04   -0.27457E-04  3496   0.992E-03    0.532E-02
RMM:   5    -0.232742165753E+04    0.19948E-04   -0.91843E-05  3446   0.801E-03    0.347E-02
RMM:   6    -0.232742165772E+04   -0.19462E-06   -0.52332E-05  3040   0.689E-03
 177 F= -.23484076E+04 E0= -.23484076E+04  d E =-.169278E-02  mag=     7.0000
       N       E                     dE             d eps       ncg     rms          rms(c)
DAV:   1    -0.232742073526E+04    0.92227E-03   -0.33652E-01  4576   0.547E-01    0.167E-01
RMM:   2    -0.232742263232E+04   -0.18971E-02   -0.20259E-02  6014   0.102E-01    0.891E-02
RMM:   3    -0.232742271063E+04   -0.78309E-04   -0.17917E-03  4882   0.380E-02    0.709E-02
RMM:   4    -0.232742268996E+04    0.20670E-04   -0.21692E-04  3464   0.919E-03    0.501E-02
RMM:   5    -0.232742267270E+04    0.17257E-04   -0.76047E-05  3157   0.774E-03    0.290E-02
RMM:   6    -0.232742267143E+04    0.12770E-05   -0.33836E-05  2987   0.619E-03
 178 F= -.23484088E+04 E0= -.23484088E+04  d E =-.110754E-02  mag=     7.0000
       N       E                     dE             d eps       ncg     rms          rms(c)
DAV:   1    -0.232742207161E+04    0.60109E-03   -0.11551E-01  4656   0.321E-01    0.983E-02
RMM:   2    -0.232742272999E+04   -0.65838E-03   -0.70386E-03  6145   0.606E-02    0.503E-02
RMM:   3    -0.232742275738E+04   -0.27390E-04   -0.61765E-04  3996   0.211E-02    0.402E-02
RMM:   4    -0.232742275320E+04    0.41791E-05   -0.77879E-05  3024   0.588E-03
 179 F= -.23484089E+04 E0= -.23484089E+04  d E =-.124538E-02  mag=     7.0000
       N       E                     dE             d eps       ncg     rms          rms(c)
DAV:   1    -0.232742241322E+04    0.34416E-03   -0.30060E-01  4496   0.509E-01    0.156E-01
RMM:   2    -0.232742380201E+04   -0.13888E-02   -0.14829E-02  5896   0.894E-02    0.904E-02
RMM:   3    -0.232742383806E+04   -0.36059E-04   -0.12839E-03  4715   0.344E-02    0.828E-02
RMM:   4    -0.232742379143E+04    0.46638E-04   -0.17686E-04  3523   0.919E-03    0.512E-02
RMM:   5    -0.232742377082E+04    0.20607E-04   -0.80752E-05  3513   0.787E-03    0.267E-02
RMM:   6    -0.232742377158E+04   -0.75721E-06   -0.34593E-05  2965   0.617E-03
 180 F= -.23484098E+04 E0= -.23484098E+04  d E =-.941188E-03  mag=     7.0000
       N       E                     dE             d eps       ncg     rms          rms(c)
DAV:   1    -0.232742267429E+04    0.10965E-02   -0.22653E-01  4496   0.443E-01    0.135E-01
RMM:   2    -0.232742374786E+04   -0.10736E-02   -0.11468E-02  5966   0.792E-02    0.772E-02
RMM:   3    -0.232742375960E+04   -0.11739E-04   -0.82792E-04  4461   0.276E-02    0.685E-02
RMM:   4    -0.232742372708E+04    0.32518E-04   -0.12056E-04  3244   0.786E-03    0.408E-02
RMM:   5    -0.232742371206E+04    0.15014E-04   -0.57887E-05  3145   0.683E-03    0.221E-02
RMM:   6    -0.232742371208E+04   -0.20867E-07   -0.24942E-05  2947   0.562E-03
 181 F= -.23484097E+04 E0= -.23484097E+04  d E =-.815778E-03  mag=     7.0000
       N       E                     dE             d eps       ncg     rms          rms(c)
DAV:   1    -0.232742353868E+04    0.17338E-03   -0.70199E-02  4560   0.246E-01    0.743E-02
RMM:   2    -0.232742386280E+04   -0.32412E-03   -0.34744E-03  6113   0.445E-02    0.478E-02
RMM:   3    -0.232742386643E+04   -0.36271E-05   -0.28633E-04  3612   0.162E-02    0.424E-02
RMM:   4    -0.232742385092E+04    0.15507E-04   -0.37932E-05  3000   0.524E-03    0.211E-02
RMM:   5    -0.232742384667E+04    0.42441E-05   -0.19785E-05  2948   0.432E-03
 182 F= -.23484099E+04 E0= -.23484099E+04  d E =-.986717E-03  mag=     7.0000
       N       E                     dE             d eps       ncg     rms          rms(c)
DAV:   1    -0.232742373616E+04    0.11476E-03   -0.30734E-01  4480   0.516E-01    0.157E-01
RMM:   2    -0.232742501247E+04   -0.12763E-02   -0.13707E-02  5903   0.891E-02    0.876E-02
RMM:   3    -0.232742500906E+04    0.34184E-05   -0.91135E-04  4687   0.326E-02    0.821E-02
RMM:   4    -0.232742495430E+04    0.54759E-04   -0.14126E-04  3487   0.869E-03    0.420E-02
RMM:   5    -0.232742493536E+04    0.18941E-04   -0.71653E-05  3604   0.763E-03    0.159E-02
RMM:   6    -0.232742493647E+04   -0.11090E-05   -0.19952E-05  2927   0.560E-03
 183 F= -.23484108E+04 E0= -.23484108E+04  d E =-.905823E-03  mag=     7.0000
       N       E                     dE             d eps       ncg     rms          rms(c)
DAV:   1    -0.232742454146E+04    0.39390E-03   -0.15364E-01  4512   0.365E-01    0.112E-01
RMM:   2    -0.232742518946E+04   -0.64800E-03   -0.69467E-03  5939   0.642E-02    0.601E-02
RMM:   3    -0.232742519065E+04   -0.11883E-05   -0.44466E-04  4156   0.222E-02    0.572E-02
RMM:   4    -0.232742516712E+04    0.23525E-04   -0.70000E-05  3099   0.661E-03    0.311E-02
RMM:   5    -0.232742515661E+04    0.10509E-04   -0.37258E-05  3059   0.574E-03    0.108E-02
RMM:   6    -0.232742515635E+04    0.26450E-06   -0.10119E-05  2894   0.453E-03
 184 F= -.23484109E+04 E0= -.23484109E+04  d E =-.995844E-03  mag=     7.0000
       N       E                     dE             d eps       ncg     rms          rms(c)
DAV:   1    -0.232742479278E+04    0.36383E-03   -0.35334E-01  4496   0.545E-01    0.164E-01
RMM:   2    -0.232742643935E+04   -0.16466E-02   -0.17303E-02  5796   0.960E-02    0.105E-01
RMM:   3    -0.232742646552E+04   -0.26167E-04   -0.12354E-03  4753   0.362E-02    0.103E-01
RMM:   4    -0.232742637872E+04    0.86800E-04   -0.17993E-04  3729   0.942E-03    0.444E-02
RMM:   5    -0.232742636556E+04    0.13153E-04   -0.85641E-05  3528   0.790E-03    0.284E-02
RMM:   6    -0.232742636635E+04   -0.78310E-06   -0.35382E-05  2973   0.613E-03
 185 F= -.23484118E+04 E0= -.23484118E+04  d E =-.920085E-03  mag=     7.0000
       N       E                     dE             d eps       ncg     rms          rms(c)
DAV:   1    -0.232742623566E+04    0.12991E-03   -0.69404E-02  4672   0.242E-01    0.739E-02
RMM:   2    -0.232742656511E+04   -0.32945E-03   -0.34670E-03  6141   0.447E-02    0.445E-02
RMM:   3    -0.232742657215E+04   -0.70400E-05   -0.24973E-04  3464   0.140E-02    0.442E-02
RMM:   4    -0.232742655800E+04    0.14151E-04   -0.36752E-05  2990   0.502E-03    0.209E-02
RMM:   5    -0.232742655531E+04    0.26855E-05   -0.17874E-05  2940   0.388E-03
 186 F= -.23484119E+04 E0= -.23484119E+04  d E =-.980697E-03  mag=     7.0000
       N       E                     dE             d eps       ncg     rms          rms(c)
DAV:   1    -0.232742610413E+04    0.45387E-03   -0.30297E-01  4512   0.512E-01    0.166E-01
RMM:   2    -0.232742767000E+04   -0.15659E-02   -0.16403E-02  6050   0.935E-02    0.113E-01
RMM:   3    -0.232742768295E+04   -0.12952E-04   -0.12514E-03  4764   0.328E-02    0.108E-01
RMM:   4    -0.232742757532E+04    0.10763E-03   -0.18133E-04  3787   0.957E-03    0.412E-02
RMM:   5    -0.232742755282E+04    0.22505E-04   -0.86567E-05  3851   0.808E-03    0.154E-02
RMM:   6    -0.232742755289E+04   -0.71886E-07   -0.19319E-05  2947   0.566E-03
 187 F= -.23484126E+04 E0= -.23484126E+04  d E =-.775449E-03  mag=     7.0000
       N       E                     dE             d eps       ncg     rms          rms(c)
DAV:   1    -0.232742755313E+04   -0.31303E-06   -0.34432E-03  5336   0.550E-02    0.200E-02
RMM:   2    -0.232742757240E+04   -0.19269E-04   -0.19841E-04  4262   0.116E-02    0.165E-02
RMM:   3    -0.232742757269E+04   -0.29156E-06   -0.23025E-05  2882   0.577E-03
 188 F= -.23484126E+04 E0= -.23484126E+04  d E =-.771392E-03  mag=     7.0000
       N       E                     dE             d eps       ncg     rms          rms(c)
DAV:   1    -0.232742696089E+04    0.61151E-03   -0.24707E-01  4512   0.456E-01    0.152E-01
RMM:   2    -0.232742834590E+04   -0.13850E-02   -0.14433E-02  5917   0.830E-02    0.101E-01
RMM:   3    -0.232742837633E+04   -0.30430E-04   -0.11471E-03  4414   0.304E-02    0.959E-02
RMM:   4    -0.232742829770E+04    0.78635E-04   -0.15802E-04  3364   0.870E-03    0.372E-02
RMM:   5    -0.232742828483E+04    0.12867E-04   -0.71021E-05  3456   0.729E-03    0.209E-02
RMM:   6    -0.232742828747E+04   -0.26419E-05   -0.25441E-05  2958   0.567E-03
 189 F= -.23484133E+04 E0= -.23484133E+04  d E =-.665725E-03  mag=     7.0000
       N       E                     dE             d eps       ncg     rms          rms(c)
DAV:   1    -0.232742811604E+04    0.16878E-03   -0.37544E-02  4648   0.178E-01    0.599E-02
RMM:   2    -0.232742832876E+04   -0.21271E-03   -0.22280E-03  6093   0.341E-02    0.347E-02
RMM:   3    -0.232742833713E+04   -0.83781E-05   -0.18494E-04  3156   0.116E-02    0.349E-02
RMM:   4    -0.232742832823E+04    0.88993E-05   -0.24649E-05  2953   0.406E-03
 190 F= -.23484133E+04 E0= -.23484133E+04  d E =-.687566E-03  mag=     7.0000
       N       E                     dE             d eps       ncg     rms          rms(c)
DAV:   1    -0.232742809359E+04    0.24355E-03   -0.18616E-01  4496   0.388E-01    0.129E-01
RMM:   2    -0.232742917035E+04   -0.10768E-02   -0.11016E-02  5841   0.705E-02    0.957E-02
RMM:   3    -0.232742921110E+04   -0.40747E-04   -0.10799E-03  4154   0.309E-02    0.838E-02
RMM:   4    -0.232742915145E+04    0.59651E-04   -0.12720E-04  3203   0.771E-03    0.345E-02
RMM:   5    -0.232742914800E+04    0.34413E-05   -0.52059E-05  3104   0.602E-03
 191 F= -.23484140E+04 E0= -.23484140E+04  d E =-.727668E-03  mag=     7.0000
       N       E                     dE             d eps       ncg     rms          rms(c)
DAV:   1    -0.232742803054E+04    0.11209E-02   -0.24857E-01  4496   0.449E-01    0.148E-01
RMM:   2    -0.232742948506E+04   -0.14545E-02   -0.14987E-02  6147   0.839E-02    0.108E-01
RMM:   3    -0.232742953038E+04   -0.45314E-04   -0.13894E-03  4425   0.314E-02    0.957E-02
RMM:   4    -0.232742945003E+04    0.80350E-04   -0.15703E-04  3298   0.881E-03    0.373E-02
RMM:   5    -0.232742943808E+04    0.11942E-04   -0.69137E-05  3539   0.695E-03    0.218E-02
RMM:   6    -0.232742944004E+04   -0.19584E-05   -0.27132E-05  2936   0.585E-03
 192 F= -.23484142E+04 E0= -.23484142E+04  d E =-.913919E-03  mag=     7.0000
       N       E                     dE             d eps       ncg     rms          rms(c)
DAV:   1    -0.232742905630E+04    0.38179E-03   -0.20077E-01  4496   0.405E-01    0.131E-01
RMM:   2    -0.232743025426E+04   -0.11980E-02   -0.12289E-02  6012   0.749E-02    0.922E-02
RMM:   3    -0.232743028560E+04   -0.31339E-04   -0.94087E-04  4252   0.253E-02    0.831E-02
RMM:   4    -0.232743023003E+04    0.55567E-04   -0.12422E-04  3166   0.768E-03    0.326E-02
RMM:   5    -0.232743022102E+04    0.90153E-05   -0.44471E-05  3089   0.612E-03
 193 F= -.23484149E+04 E0= -.23484149E+04  d E =-.673750E-03  mag=     7.0000
       N       E                     dE             d eps       ncg     rms          rms(c)
DAV:   1    -0.232742932401E+04    0.90602E-03   -0.20200E-01  4528   0.406E-01    0.131E-01
RMM:   2    -0.232743050606E+04   -0.11820E-02   -0.12169E-02  6173   0.763E-02    0.874E-02
RMM:   3    -0.232743055877E+04   -0.52707E-04   -0.11012E-03  4227   0.279E-02    0.798E-02
RMM:   4    -0.232743050590E+04    0.52867E-04   -0.12892E-04  3169   0.793E-03    0.333E-02
RMM:   5    -0.232743049633E+04    0.95697E-05   -0.47145E-05  3134   0.624E-03
 194 F= -.23484151E+04 E0= -.23484151E+04  d E =-.841836E-03  mag=     7.0000
       N       E                     dE             d eps       ncg     rms          rms(c)
DAV:   1    -0.232743006634E+04    0.43956E-03   -0.23588E-01  4512   0.441E-01    0.143E-01
RMM:   2    -0.232743145513E+04   -0.13888E-02   -0.14143E-02  6169   0.834E-02    0.105E-01
RMM:   3    -0.232743150789E+04   -0.52763E-04   -0.12612E-03  4509   0.302E-02    0.964E-02
RMM:   4    -0.232743142327E+04    0.84619E-04   -0.15374E-04  3285   0.874E-03    0.352E-02
RMM:   5    -0.232743141910E+04    0.41715E-05   -0.59432E-05  3200   0.661E-03
 195 F= -.23484159E+04 E0= -.23484159E+04  d E =-.871006E-03  mag=     7.0000
       N       E                     dE             d eps       ncg     rms          rms(c)
DAV:   1    -0.232743057967E+04    0.84360E-03   -0.18452E-01  4528   0.390E-01    0.127E-01
RMM:   2    -0.232743166385E+04   -0.10842E-02   -0.11103E-02  6227   0.737E-02    0.903E-02
RMM:   3    -0.232743169864E+04   -0.34796E-04   -0.95541E-04  4219   0.256E-02    0.808E-02
RMM:   4    -0.232743164191E+04    0.56730E-04   -0.11423E-04  3151   0.794E-03    0.313E-02
RMM:   5    -0.232743163469E+04    0.72247E-05   -0.49355E-05  3181   0.623E-03
 196 F= -.23484161E+04 E0= -.23484161E+04  d E =-.104147E-02  mag=     7.0000
       N       E                     dE             d eps       ncg     rms          rms(c)
DAV:   1    -0.232743084098E+04    0.80093E-03   -0.31265E-01  4512   0.498E-01    0.165E-01
RMM:   2    -0.232743275369E+04   -0.19127E-02   -0.19495E-02  6216   0.945E-02    0.125E-01
RMM:   3    -0.232743279795E+04   -0.44251E-04   -0.15587E-03  4832   0.321E-02    0.112E-01
RMM:   4    -0.232743268187E+04    0.11608E-03   -0.20691E-04  3457   0.956E-03    0.399E-02
RMM:   5    -0.232743267274E+04    0.91295E-05   -0.77026E-05  3570   0.721E-03
 197 F= -.23484170E+04 E0= -.23484170E+04  d E =-.857314E-03  mag=     7.0000
       N       E                     dE             d eps       ncg     rms          rms(c)
DAV:   1    -0.232743203184E+04    0.65003E-03   -0.14966E-01  4608   0.345E-01    0.116E-01
RMM:   2    -0.232743294003E+04   -0.90819E-03   -0.93092E-03  6323   0.660E-02    0.888E-02
RMM:   3    -0.232743295852E+04   -0.18492E-04   -0.81129E-04  3947   0.222E-02    0.733E-02
RMM:   4    -0.232743291245E+04    0.46069E-04   -0.97527E-05  3115   0.727E-03    0.285E-02
RMM:   5    -0.232743290449E+04    0.79600E-05   -0.41323E-05  3128   0.572E-03
 198 F= -.23484171E+04 E0= -.23484171E+04  d E =-.964340E-03  mag=     7.0000
       N       E                     dE             d eps       ncg     rms          rms(c)
DAV:   1    -0.232743230472E+04    0.60774E-03   -0.28409E-01  4512   0.480E-01    0.167E-01
RMM:   2    -0.232743402266E+04   -0.17179E-02   -0.17560E-02  6153   0.919E-02    0.124E-01
RMM:   3    -0.232743405230E+04   -0.29635E-04   -0.14150E-03  4888   0.325E-02    0.114E-01
RMM:   4    -0.232743393215E+04    0.12015E-03   -0.19733E-04  3599   0.962E-03    0.390E-02
RMM:   5    -0.232743392317E+04    0.89795E-05   -0.75828E-05  3551   0.745E-03
 199 F= -.23484179E+04 E0= -.23484179E+04  d E =-.791906E-03  mag=     7.0000
       N       E                     dE             d eps       ncg     rms          rms(c)
DAV:   1    -0.232743379922E+04    0.13293E-03   -0.40685E-02  4752   0.182E-01    0.665E-02
RMM:   2    -0.232743405089E+04   -0.25166E-03   -0.25170E-03  6244   0.367E-02    0.583E-02
RMM:   3    -0.232743404994E+04    0.94615E-06   -0.29924E-04  3298   0.138E-02    0.393E-02
RMM:   4    -0.232743403687E+04    0.13072E-04   -0.31890E-05  2985   0.481E-03    0.174E-02
RMM:   5    -0.232743403825E+04   -0.13871E-05   -0.16153E-05  2946   0.343E-03
 200 F= -.23484179E+04 E0= -.23484179E+04  d E =-.820743E-03  mag=     7.0000
       N       E                     dE             d eps       ncg     rms          rms(c)
DAV:   1    -0.232743329913E+04    0.73774E-03   -0.22328E-01  4496   0.425E-01    0.149E-01
RMM:   2    -0.232743464942E+04   -0.13503E-02   -0.14102E-02  6109   0.820E-02    0.955E-02
RMM:   3    -0.232743471006E+04   -0.60646E-04   -0.12738E-03  4487   0.289E-02    0.934E-02
RMM:   4    -0.232743463265E+04    0.77413E-04   -0.16240E-04  3366   0.875E-03    0.385E-02
RMM:   5    -0.232743462425E+04    0.84015E-05   -0.64966E-05  3281   0.701E-03
 201 F= -.23484185E+04 E0= -.23484185E+04  d E =-.574809E-03  mag=     7.0000
