       N       E                     dE             d eps       ncg     rms          rms(c)
DAV:   1     0.129802350189E+05    0.12980E+05   -0.84051E+05  4512   0.144E+03
DAV:   2    -0.104928934860E+04   -0.14030E+05   -0.13414E+05  5144   0.331E+02
DAV:   3    -0.248205342917E+04   -0.14328E+04   -0.14173E+04  5416   0.112E+02
DAV:   4    -0.252723810972E+04   -0.45185E+02   -0.44934E+02  6760   0.296E+01
DAV:   5    -0.252804755142E+04   -0.80944E+00   -0.80796E+00  6056   0.339E+00    0.171E+02
RMM:   6    -0.148975934568E+04    0.10383E+04   -0.19569E+03  4451   0.385E+01    0.735E+01
RMM:   7    -0.166206439173E+04   -0.17231E+03   -0.30584E+02  5186   0.146E+01    0.545E+01
RMM:   8    -0.171163327302E+04   -0.49569E+02   -0.78873E+01  5286   0.860E+00    0.462E+01
RMM:   9    -0.177025671930E+04   -0.58623E+02   -0.68891E+01  4939   0.754E+00    0.376E+01
RMM:  10    -0.188789963378E+04   -0.11764E+03   -0.62740E+01  5416   0.772E+00    0.344E+01
RMM:  11    -0.196354954881E+04   -0.75650E+02   -0.35727E+01  5490   0.548E+00    0.231E+01
RMM:  12    -0.204947828682E+04   -0.85929E+02   -0.36638E+01  5138   0.476E+00    0.184E+01
RMM:  13    -0.210333581182E+04   -0.53858E+02   -0.20884E+01  5301   0.356E+00    0.136E+01
RMM:  14    -0.222636224640E+04   -0.12303E+03   -0.95003E+01  4540   0.708E+00    0.984E+00
RMM:  15    -0.228699233650E+04   -0.60630E+02   -0.52196E+01  4504   0.515E+00    0.719E+00
RMM:  16    -0.230942110372E+04   -0.22429E+02   -0.24697E+01  4889   0.370E+00    0.468E+00
RMM:  17    -0.231387119921E+04   -0.44501E+01   -0.53867E+00  5090   0.178E+00    0.518E+00
RMM:  18    -0.231398243574E+04   -0.11124E+00   -0.65589E-01  5781   0.515E-01    0.500E+00
RMM:  19    -0.231356155267E+04    0.42088E+00   -0.18251E-01  4657   0.295E-01    0.432E+00
RMM:  20    -0.231215956513E+04    0.14020E+01   -0.19886E+00  4658   0.669E-01    0.410E+00
RMM:  21    -0.231141646127E+04    0.74310E+00   -0.15910E+00  4815   0.554E-01    0.429E+00
RMM:  22    -0.231056753728E+04    0.84892E+00   -0.34653E-01  4977   0.268E-01    0.471E+00
RMM:  23    -0.231639121731E+04   -0.58237E+01   -0.74031E+00  4497   0.108E+00    0.519E+00
RMM:  24    -0.231695045537E+04   -0.55924E+00   -0.15259E+00  4741   0.662E-01    0.257E+00
RMM:  25    -0.231743150803E+04   -0.48105E+00   -0.52989E-01  5258   0.431E-01    0.110E+00
RMM:  26    -0.231760443358E+04   -0.17293E+00   -0.12725E-01  5172   0.235E-01    0.821E-01
RMM:  27    -0.231772138768E+04   -0.11695E+00   -0.86135E-02  4892   0.188E-01    0.113E+00
RMM:  28    -0.231773071166E+04   -0.93240E-02   -0.11434E-02  5359   0.903E-02    0.109E+00
RMM:  29    -0.231774849472E+04   -0.17783E-01   -0.28809E-02  4766   0.932E-02    0.255E-01
RMM:  30    -0.231777284720E+04   -0.24352E-01   -0.77653E-03  4569   0.681E-02    0.151E-01
RMM:  31    -0.231779251226E+04   -0.19665E-01   -0.50052E-03  4570   0.513E-02    0.123E-01
RMM:  32    -0.231780621358E+04   -0.13701E-01   -0.37077E-03  4513   0.445E-02    0.907E-02
RMM:  33    -0.231781103559E+04   -0.48220E-02   -0.18648E-03  5117   0.321E-02    0.671E-02
RMM:  34    -0.231781388984E+04   -0.28542E-02   -0.10797E-03  4412   0.201E-02    0.791E-02
RMM:  35    -0.231781454751E+04   -0.65768E-03   -0.23785E-04  3961   0.137E-02    0.317E-02
RMM:  36    -0.231781482165E+04   -0.27414E-03   -0.10253E-04  3761   0.732E-03    0.181E-02
RMM:  37    -0.231781491237E+04   -0.90721E-04   -0.28224E-05  3156   0.604E-03    0.642E-03
RMM:  38    -0.231781496405E+04   -0.51679E-04   -0.14216E-05  2943   0.369E-03    0.412E-03
RMM:  39    -0.231781498725E+04   -0.23194E-04   -0.62800E-06  2834   0.313E-03    0.186E-03
RMM:  40    -0.231781499803E+04   -0.10781E-04   -0.37904E-06  2651   0.225E-03    0.143E-03
RMM:  41    -0.231781500254E+04   -0.45167E-05   -0.19746E-06  2439   0.181E-03
   1 F= -.23387083E+04 E0= -.23387083E+04  d E =-.233871E+04  mag=     0.9999
       N       E                     dE             d eps       ncg     rms          rms(c)
DAV:   1    -0.231764381864E+04    0.17118E+00   -0.21475E+01  4928   0.384E+00    0.158E+00
RMM:   2    -0.231803852811E+04   -0.39471E+00   -0.40033E+00  6409   0.991E-01    0.193E+00
RMM:   3    -0.231804811531E+04   -0.95872E-02   -0.43179E-01  6161   0.367E-01    0.146E+00
RMM:   4    -0.231802253975E+04    0.25576E-01   -0.41700E-02  6219   0.901E-02    0.484E-01
RMM:   5    -0.231802078694E+04    0.17528E-02   -0.96082E-03  5844   0.495E-02    0.446E-01
RMM:   6    -0.231801931084E+04    0.14761E-02   -0.73644E-03  5921   0.445E-02    0.315E-01
RMM:   7    -0.231801811320E+04    0.11976E-02   -0.24519E-03  5755   0.273E-02    0.986E-02
RMM:   8    -0.231801799395E+04    0.11925E-03   -0.29891E-04  4331   0.990E-03    0.402E-02
RMM:   9    -0.231801795377E+04    0.40178E-04   -0.10310E-04  3189   0.765E-03    0.192E-02
RMM:  10    -0.231801794981E+04    0.39530E-05   -0.43871E-05  3103   0.493E-03
   2 F= -.23389095E+04 E0= -.23389095E+04  d E =-.201168E+00  mag=     1.0000
       N       E                     dE             d eps       ncg     rms          rms(c)
DAV:   1    -0.231781949815E+04    0.19846E+00   -0.14540E+01  4688   0.308E+00    0.129E+00
RMM:   2    -0.231807803485E+04   -0.25854E+00   -0.26070E+00  6392   0.786E-01    0.158E+00
RMM:   3    -0.231808609565E+04   -0.80608E-02   -0.31091E-01  6121   0.309E-01    0.118E+00
RMM:   4    -0.231806965215E+04    0.16444E-01   -0.30016E-02  6121   0.733E-02    0.394E-01
RMM:   5    -0.231806858404E+04    0.10681E-02   -0.67136E-03  5773   0.400E-02    0.378E-01
RMM:   6    -0.231806740171E+04    0.11823E-02   -0.50826E-03  5866   0.370E-02    0.256E-01
RMM:   7    -0.231806661328E+04    0.78843E-03   -0.18105E-03  5647   0.228E-02    0.835E-02
RMM:   8    -0.231806652695E+04    0.86330E-04   -0.19811E-04  3941   0.847E-03    0.350E-02
RMM:   9    -0.231806649650E+04    0.30455E-04   -0.76838E-05  3051   0.677E-03    0.168E-02
RMM:  10    -0.231806649418E+04    0.23160E-05   -0.33899E-05  3044   0.440E-03
   3 F= -.23389567E+04 E0= -.23389567E+04  d E =-.248421E+00  mag=     1.0000
       N       E                     dE             d eps       ncg     rms          rms(c)
DAV:   1    -0.231802942063E+04    0.37076E-01   -0.20559E+01  4560   0.345E+00    0.129E+00
RMM:   2    -0.231820607834E+04   -0.17666E+00   -0.19061E+00  6266   0.741E-01    0.952E-01
RMM:   3    -0.231822788492E+04   -0.21807E-01   -0.21880E-01  6095   0.278E-01    0.121E+00
RMM:   4    -0.231821018725E+04    0.17698E-01   -0.23929E-02  6201   0.753E-02    0.360E-01
RMM:   5    -0.231821089028E+04   -0.70303E-03   -0.73763E-03  5665   0.384E-02    0.454E-01
RMM:   6    -0.231820846297E+04    0.24273E-02   -0.51599E-03  5695   0.393E-02    0.141E-01
RMM:   7    -0.231820828600E+04    0.17697E-03   -0.78730E-04  4777   0.172E-02    0.503E-02
RMM:   8    -0.231820824471E+04    0.41292E-04   -0.10267E-04  3334   0.879E-03    0.281E-02
RMM:   9    -0.231820822664E+04    0.18072E-04   -0.63770E-05  3457   0.575E-03    0.124E-02
RMM:  10    -0.231820822259E+04    0.40413E-05   -0.18929E-05  2936   0.473E-03
   4 F= -.23390980E+04 E0= -.23390980E+04  d E =-.141272E+00  mag=     1.0000
       N       E                     dE             d eps       ncg     rms          rms(c)
DAV:   1    -0.231788502362E+04    0.32320E+00   -0.45567E+01  4524   0.512E+00    0.191E+00
RMM:   2    -0.231828594333E+04   -0.40092E+00   -0.43390E+00  6286   0.111E+00    0.140E+00
RMM:   3    -0.231833423914E+04   -0.48296E-01   -0.48372E-01  6100   0.410E-01    0.181E+00
RMM:   4    -0.231829407971E+04    0.40159E-01   -0.52275E-02  6322   0.112E-01    0.534E-01
RMM:   5    -0.231829517322E+04   -0.10935E-02   -0.16757E-02  5757   0.572E-02    0.645E-01
RMM:   6    -0.231829056788E+04    0.46053E-02   -0.11209E-02  5803   0.576E-02    0.239E-01
RMM:   7    -0.231829001286E+04    0.55502E-03   -0.18817E-03  5578   0.268E-02    0.858E-02
RMM:   8    -0.231828994253E+04    0.70333E-04   -0.34889E-04  4776   0.117E-02    0.560E-02
RMM:   9    -0.231828988390E+04    0.58631E-04   -0.16708E-04  3540   0.928E-03    0.251E-02
RMM:  10    -0.231828987581E+04    0.80925E-05   -0.71912E-05  3345   0.614E-03
   5 F= -.23391792E+04 E0= -.23391792E+04  d E =-.222431E+00  mag=     1.0000
       N       E                     dE             d eps       ncg     rms          rms(c)
DAV:   1    -0.231819470636E+04    0.95178E-01   -0.27409E+01  4528   0.376E+00    0.139E+00
RMM:   2    -0.231841649613E+04   -0.22179E+00   -0.23542E+00  6450   0.837E-01    0.103E+00
RMM:   3    -0.231842959557E+04   -0.13099E-01   -0.20856E-01  6263   0.255E-01    0.104E+00
RMM:   4    -0.231841537755E+04    0.14218E-01   -0.22432E-02  6038   0.693E-02    0.376E-01
RMM:   5    -0.231841510405E+04    0.27350E-03   -0.70215E-03  5668   0.439E-02    0.321E-01
RMM:   6    -0.231841494342E+04    0.16063E-03   -0.38207E-03  5934   0.352E-02    0.280E-01
RMM:   7    -0.231841404564E+04    0.89778E-03   -0.97978E-04  5224   0.189E-02    0.553E-02
RMM:   8    -0.231841399756E+04    0.48076E-04   -0.15943E-04  3384   0.741E-03    0.322E-02
RMM:   9    -0.231841397940E+04    0.18165E-04   -0.59514E-05  3169   0.539E-03    0.159E-02
RMM:  10    -0.231841397629E+04    0.31022E-05   -0.23046E-05  2930   0.484E-03
   6 F= -.23393043E+04 E0= -.23393043E+04  d E =-.125109E+00  mag=     1.0000
       N       E                     dE             d eps       ncg     rms          rms(c)
DAV:   1    -0.231805390243E+04    0.36008E+00   -0.51721E+01  4488   0.530E+00    0.188E+00
RMM:   2    -0.231848343196E+04   -0.42953E+00   -0.45761E+00  6446   0.120E+00    0.131E+00
RMM:   3    -0.231850758021E+04   -0.24148E-01   -0.38944E-01  6268   0.349E-01    0.132E+00
RMM:   4    -0.231848399467E+04    0.23586E-01   -0.41086E-02  6127   0.944E-02    0.515E-01
RMM:   5    -0.231848165501E+04    0.23397E-02   -0.13390E-02  5344   0.637E-02    0.263E-01
RMM:   6    -0.231848317474E+04   -0.15197E-02   -0.52761E-03  5577   0.463E-02    0.380E-01
RMM:   7    -0.231848132554E+04    0.18492E-02   -0.16137E-03  5404   0.242E-02    0.724E-02
RMM:   8    -0.231848124953E+04    0.76010E-04   -0.28857E-04  3558   0.846E-03    0.418E-02
RMM:   9    -0.231848122386E+04    0.25670E-04   -0.10481E-04  3557   0.778E-03    0.142E-02
RMM:  10    -0.231848122528E+04   -0.14231E-05   -0.34090E-05  3079   0.540E-03
   7 F= -.23393730E+04 E0= -.23393730E+04  d E =-.193797E+00  mag=     1.0000
       N       E                     dE             d eps       ncg     rms          rms(c)
DAV:   1    -0.231842732955E+04    0.53894E-01   -0.14580E+01  4560   0.288E+00    0.110E+00
RMM:   2    -0.231855469418E+04   -0.12736E+00   -0.12514E+00  6302   0.621E-01    0.113E+00
RMM:   3    -0.231855243624E+04    0.22579E-02   -0.11421E-01  6167   0.195E-01    0.833E-01
RMM:   4    -0.231854467344E+04    0.77628E-02   -0.13225E-02  5932   0.567E-02    0.281E-01
RMM:   5    -0.231854571250E+04   -0.10391E-02   -0.40803E-03  5806   0.351E-02    0.380E-01
RMM:   6    -0.231854377489E+04    0.19376E-02   -0.26427E-03  5737   0.306E-02    0.875E-02
RMM:   7    -0.231854377937E+04   -0.44761E-05   -0.50183E-04  5004   0.143E-02    0.391E-02
RMM:   8    -0.231854376086E+04    0.18506E-04   -0.62620E-05  3401   0.548E-03    0.235E-02
RMM:   9    -0.231854375364E+04    0.72171E-05   -0.30628E-05  2938   0.488E-03
   8 F= -.23394363E+04 E0= -.23394363E+04  d E =-.633588E-01  mag=     1.0000
       N       E                     dE             d eps       ncg     rms          rms(c)
DAV:   1    -0.231842835685E+04    0.11540E+00   -0.17714E+01  4512   0.317E+00    0.122E+00
RMM:   2    -0.231858298009E+04   -0.15462E+00   -0.15199E+00  6286   0.687E-01    0.125E+00
RMM:   3    -0.231858070171E+04    0.22784E-02   -0.14152E-01  6172   0.215E-01    0.926E-01
RMM:   4    -0.231857114785E+04    0.95539E-02   -0.16126E-02  5946   0.624E-02    0.305E-01
RMM:   5    -0.231857227006E+04   -0.11222E-02   -0.48211E-03  5854   0.384E-02    0.404E-01
RMM:   6    -0.231857008431E+04    0.21857E-02   -0.31726E-03  5793   0.329E-02    0.108E-01
RMM:   7    -0.231857006042E+04    0.23898E-04   -0.65258E-04  5268   0.163E-02    0.456E-02
RMM:   8    -0.231857003430E+04    0.26120E-04   -0.84383E-05  3511   0.611E-03    0.263E-02
RMM:   9    -0.231857002612E+04    0.81715E-05   -0.38473E-05  2976   0.545E-03
   9 F= -.23394634E+04 E0= -.23394634E+04  d E =-.904189E-01  mag=     1.0000
       N       E                     dE             d eps       ncg     rms          rms(c)
DAV:   1    -0.231849204793E+04    0.77986E-01   -0.14299E+01  4480   0.275E+00    0.109E+00
RMM:   2    -0.231863129995E+04   -0.13925E+00   -0.13488E+00  6484   0.625E-01    0.121E+00
RMM:   3    -0.231862833216E+04    0.29678E-02   -0.12865E-01  6322   0.188E-01    0.797E-01
RMM:   4    -0.231862127098E+04    0.70612E-02   -0.12944E-02  5941   0.516E-02    0.265E-01
RMM:   5    -0.231862135764E+04   -0.86665E-04   -0.29045E-03  5662   0.292E-02    0.260E-01
RMM:   6    -0.231862090292E+04    0.45472E-03   -0.21885E-03  5524   0.255E-02    0.171E-01
RMM:   7    -0.231862057899E+04    0.32393E-03   -0.71598E-04  5281   0.165E-02    0.476E-02
RMM:   8    -0.231862055816E+04    0.20832E-04   -0.77029E-05  3221   0.571E-03    0.232E-02
RMM:   9    -0.231862055825E+04   -0.85842E-07   -0.29951E-05  2928   0.464E-03
  10 F= -.23395147E+04 E0= -.23395147E+04  d E =-.512664E-01  mag=     1.0000
       N       E                     dE             d eps       ncg     rms          rms(c)
DAV:   1    -0.231838405569E+04    0.23650E+00   -0.29306E+01  4456   0.392E+00    0.155E+00
RMM:   2    -0.231867036799E+04   -0.28631E+00   -0.27967E+00  6487   0.889E-01    0.168E+00
RMM:   3    -0.231866828831E+04    0.20797E-02   -0.27488E-01  6335   0.272E-01    0.115E+00
RMM:   4    -0.231865380140E+04    0.14487E-01   -0.28372E-02  6060   0.738E-02    0.377E-01
RMM:   5    -0.231865297182E+04    0.82958E-03   -0.53203E-03  5828   0.406E-02    0.279E-01
RMM:   6    -0.231865289235E+04    0.79469E-04   -0.35761E-03  5761   0.343E-02    0.229E-01
RMM:   7    -0.231865234453E+04    0.54782E-03   -0.12729E-03  5313   0.217E-02    0.976E-02
RMM:   8    -0.231865222391E+04    0.12063E-03   -0.15559E-04  3754   0.768E-03    0.340E-02
RMM:   9    -0.231865222514E+04   -0.12315E-05   -0.73844E-05  3075   0.635E-03
  11 F= -.23395471E+04 E0= -.23395471E+04  d E =-.836809E-01  mag=     1.0000
       N       E                     dE             d eps       ncg     rms          rms(c)
DAV:   1    -0.231859047160E+04    0.61752E-01   -0.12977E+01  4512   0.265E+00    0.980E-01
RMM:   2    -0.231869690259E+04   -0.10643E+00   -0.10474E+00  6382   0.574E-01    0.102E+00
RMM:   3    -0.231869493565E+04    0.19669E-02   -0.94175E-02  6230   0.181E-01    0.714E-01
RMM:   4    -0.231868898173E+04    0.59539E-02   -0.10093E-02  5951   0.499E-02    0.229E-01
RMM:   5    -0.231868851019E+04    0.47153E-03   -0.24284E-03  5538   0.290E-02    0.137E-01
RMM:   6    -0.231868843165E+04    0.78539E-04   -0.98782E-04  5515   0.212E-02    0.530E-02
RMM:   7    -0.231868843464E+04   -0.29839E-05   -0.13365E-04  3431   0.960E-03    0.445E-02
RMM:   8    -0.231868841873E+04    0.15908E-04   -0.50581E-05  2987   0.536E-03    0.275E-02
RMM:   9    -0.231868841470E+04    0.40316E-05   -0.21776E-05  2929   0.395E-03
  12 F= -.23395841E+04 E0= -.23395841E+04  d E =-.370360E-01  mag=     1.0000
       N       E                     dE             d eps       ncg     rms          rms(c)
DAV:   1    -0.231860410849E+04    0.84310E-01   -0.12973E+01  4496   0.267E+00    0.966E-01
RMM:   2    -0.231870832754E+04   -0.10422E+00   -0.10326E+00  6354   0.577E-01    0.968E-01
RMM:   3    -0.231870824161E+04    0.85932E-04   -0.98212E-02  6210   0.184E-01    0.693E-01
RMM:   4    -0.231870267063E+04    0.55710E-02   -0.10846E-02  5991   0.495E-02    0.227E-01
RMM:   5    -0.231870217916E+04    0.49147E-03   -0.22721E-03  5569   0.288E-02    0.139E-01
RMM:   6    -0.231870217668E+04    0.24842E-05   -0.11471E-03  5719   0.220E-02    0.101E-01
RMM:   7    -0.231870208991E+04    0.86767E-04   -0.28884E-04  3620   0.112E-02    0.569E-02
RMM:   8    -0.231870204788E+04    0.42029E-04   -0.55033E-05  3162   0.546E-03    0.213E-02
RMM:   9    -0.231870204706E+04    0.82326E-06   -0.25072E-05  2932   0.409E-03
  13 F= -.23395985E+04 E0= -.23395985E+04  d E =-.514023E-01  mag=     1.0000
       N       E                     dE             d eps       ncg     rms          rms(c)
DAV:   1    -0.231861638474E+04    0.85663E-01   -0.17728E+01  4472   0.318E+00    0.102E+00
RMM:   2    -0.231873676316E+04   -0.12038E+00   -0.12318E+00  6327   0.648E-01    0.803E-01
RMM:   3    -0.231874340443E+04   -0.66413E-02   -0.12241E-01  6217   0.209E-01    0.760E-01
RMM:   4    -0.231873674680E+04    0.66576E-02   -0.12966E-02  6106   0.551E-02    0.249E-01
RMM:   5    -0.231873632358E+04    0.42323E-03   -0.30260E-03  5686   0.306E-02    0.185E-01
RMM:   6    -0.231873632238E+04    0.11934E-05   -0.18510E-03  5789   0.251E-02    0.160E-01
RMM:   7    -0.231873600942E+04    0.31296E-03   -0.50300E-04  4293   0.144E-02    0.473E-02
RMM:   8    -0.231873598437E+04    0.25055E-04   -0.71905E-05  3223   0.537E-03    0.226E-02
RMM:   9    -0.231873598037E+04    0.39983E-05   -0.20097E-05  2912   0.401E-03
  14 F= -.23396331E+04 E0= -.23396331E+04  d E =-.345915E-01  mag=     1.0000
       N       E                     dE             d eps       ncg     rms          rms(c)
DAV:   1    -0.231862941332E+04    0.10657E+00   -0.17695E+01  4488   0.319E+00    0.101E+00
RMM:   2    -0.231874883871E+04   -0.11943E+00   -0.12264E+00  6325   0.646E-01    0.775E-01
RMM:   3    -0.231875589108E+04   -0.70524E-02   -0.12149E-01  6231   0.208E-01    0.743E-01
RMM:   4    -0.231874951898E+04    0.63721E-02   -0.12918E-02  6137   0.546E-02    0.249E-01
RMM:   5    -0.231874910710E+04    0.41188E-03   -0.30125E-03  5639   0.301E-02    0.188E-01
RMM:   6    -0.231874908811E+04    0.18982E-04   -0.18729E-03  5767   0.250E-02    0.164E-01
RMM:   7    -0.231874875443E+04    0.33369E-03   -0.50813E-04  4418   0.144E-02    0.448E-02
RMM:   8    -0.231874873217E+04    0.22260E-04   -0.77179E-05  3277   0.549E-03    0.228E-02
RMM:   9    -0.231874872719E+04    0.49755E-05   -0.20953E-05  2908   0.406E-03
  15 F= -.23396464E+04 E0= -.23396464E+04  d E =-.478912E-01  mag=     1.0000
       N       E                     dE             d eps       ncg     rms          rms(c)
DAV:   1    -0.231868937247E+04    0.59360E-01   -0.14203E+01  4456   0.286E+00    0.833E-01
RMM:   2    -0.231877692688E+04   -0.87554E-01   -0.92640E-01  6394   0.560E-01    0.402E-01
RMM:   3    -0.231878264012E+04   -0.57132E-02   -0.82903E-02  6038   0.163E-01    0.416E-01
RMM:   4    -0.231878137939E+04    0.12607E-02   -0.92911E-03  5955   0.396E-02    0.235E-01
RMM:   5    -0.231878077614E+04    0.60325E-03   -0.17096E-03  5052   0.244E-02    0.133E-01
RMM:   6    -0.231878067364E+04    0.10249E-03   -0.10380E-03  5507   0.201E-02    0.679E-02
RMM:   7    -0.231878066316E+04    0.10477E-04   -0.22496E-04  3473   0.112E-02    0.577E-02
RMM:   8    -0.231878061634E+04    0.46823E-04   -0.49950E-05  3109   0.551E-03    0.214E-02
RMM:   9    -0.231878060935E+04    0.69895E-05   -0.21420E-05  2912   0.373E-03
  16 F= -.23396785E+04 E0= -.23396785E+04  d E =-.321469E-01  mag=     1.0000
       N       E                     dE             d eps       ncg     rms          rms(c)
DAV:   1    -0.231843681373E+04    0.34380E+00   -0.57220E+01  4472   0.573E+00    0.169E+00
RMM:   2    -0.231880772535E+04   -0.37091E+00   -0.39299E+00  6413   0.113E+00    0.849E-01
RMM:   3    -0.231882841059E+04   -0.20685E-01   -0.35649E-01  6079   0.334E-01    0.810E-01
RMM:   4    -0.231882398850E+04    0.44221E-02   -0.38538E-02  6361   0.803E-02    0.502E-01
RMM:   5    -0.231882159510E+04    0.23934E-02   -0.71682E-03  5558   0.475E-02    0.310E-01
RMM:   6    -0.231882088873E+04    0.70637E-03   -0.49708E-03  5799   0.407E-02    0.172E-01
RMM:   7    -0.231882079841E+04    0.90316E-04   -0.13303E-03  5103   0.254E-02    0.138E-01
RMM:   8    -0.231882052188E+04    0.27654E-03   -0.27748E-04  4268   0.101E-02    0.464E-02
RMM:   9    -0.231882049108E+04    0.30791E-04   -0.90190E-05  3084   0.692E-03    0.221E-02
RMM:  10    -0.231882048528E+04    0.58088E-05   -0.37586E-05  3065   0.502E-03
  17 F= -.23397187E+04 E0= -.23397187E+04  d E =-.723195E-01  mag=     1.0000
       N       E                     dE             d eps       ncg     rms          rms(c)
DAV:   1    -0.231703224188E+04    0.17882E+01   -0.22481E+02  4488   0.113E+01    0.360E+00
RMM:   2    -0.231877755714E+04   -0.17453E+01   -0.18518E+01  6437   0.231E+00    0.198E+00
RMM:   3    -0.231882886106E+04   -0.51304E-01   -0.15963E+00  6148   0.695E-01    0.164E+00
RMM:   4    -0.231881065824E+04    0.18203E-01   -0.16809E-01  6555   0.167E-01    0.115E+00
RMM:   5    -0.231880017219E+04    0.10486E-01   -0.31351E-02  5791   0.899E-02    0.749E-01
RMM:   6    -0.231879467595E+04    0.54962E-02   -0.23956E-02  5860   0.854E-02    0.380E-01
RMM:   7    -0.231879483392E+04   -0.15798E-03   -0.69848E-03  5755   0.529E-02    0.338E-01
RMM:   8    -0.231879317674E+04    0.16572E-02   -0.18557E-03  5641   0.246E-02    0.111E-01
RMM:   9    -0.231879303312E+04    0.14362E-03   -0.46729E-04  4432   0.144E-02    0.505E-02
RMM:  10    -0.231879301112E+04    0.22001E-04   -0.15381E-04  3856   0.890E-03    0.203E-02
RMM:  11    -0.231879301448E+04   -0.33580E-05   -0.59131E-05  3491   0.628E-03
  18 F= -.23396905E+04 E0= -.23396905E+04  d E =-.441641E-01  mag=     1.0000
       N       E                     dE             d eps       ncg     rms          rms(c)
DAV:   1    -0.231802729426E+04    0.76572E+00   -0.11098E+02  4472   0.777E+00    0.240E+00
RMM:   2    -0.231879136866E+04   -0.76407E+00   -0.80951E+00  6407   0.157E+00    0.112E+00
RMM:   3    -0.231883505723E+04   -0.43689E-01   -0.72241E-01  6142   0.463E-01    0.776E-01
RMM:   4    -0.231883410050E+04    0.95673E-03   -0.63432E-02  6341   0.107E-01    0.637E-01
RMM:   5    -0.231883156668E+04    0.25338E-02   -0.13411E-02  5702   0.599E-02    0.510E-01
RMM:   6    -0.231882879365E+04    0.27730E-02   -0.78534E-03  5384   0.480E-02    0.212E-01
RMM:   7    -0.231882877715E+04    0.16501E-04   -0.21884E-03  4990   0.370E-02    0.194E-01
RMM:   8    -0.231882834308E+04    0.43406E-03   -0.58017E-04  4969   0.146E-02    0.783E-02
RMM:   9    -0.231882827289E+04    0.70189E-04   -0.17126E-04  3768   0.893E-03    0.368E-02
RMM:  10    -0.231882826009E+04    0.12805E-04   -0.71115E-05  3109   0.631E-03    0.163E-02
RMM:  11    -0.231882825887E+04    0.12181E-05   -0.31089E-05  2986   0.515E-03
  19 F= -.23397264E+04 E0= -.23397264E+04  d E =-.800849E-01  mag=     1.0000
       N       E                     dE             d eps       ncg     rms          rms(c)
DAV:   1    -0.231869637942E+04    0.13188E+00   -0.29080E+01  4456   0.408E+00    0.120E+00
RMM:   2    -0.231885519529E+04   -0.15882E+00   -0.16813E+00  6327   0.774E-01    0.605E-01
RMM:   3    -0.231886501134E+04   -0.98160E-02   -0.14650E-01  6090   0.231E-01    0.648E-01
RMM:   4    -0.231886039233E+04    0.46190E-02   -0.16312E-02  6309   0.577E-02    0.316E-01
RMM:   5    -0.231885944190E+04    0.95043E-03   -0.39083E-03  5351   0.370E-02    0.218E-01
RMM:   6    -0.231885941041E+04    0.31485E-04   -0.22256E-03  5773   0.287E-02    0.198E-01
RMM:   7    -0.231885901686E+04    0.39355E-03   -0.77864E-04  5075   0.179E-02    0.652E-02
RMM:   8    -0.231885896673E+04    0.50124E-04   -0.13225E-04  3677   0.718E-03    0.301E-02
RMM:   9    -0.231885895663E+04    0.10105E-04   -0.34310E-05  2944   0.501E-03    0.144E-02
RMM:  10    -0.231885895547E+04    0.11601E-05   -0.16332E-05  2941   0.365E-03
  20 F= -.23397575E+04 E0= -.23397575E+04  d E =-.310099E-01  mag=     1.0000
       N       E                     dE             d eps       ncg     rms          rms(c)
DAV:   1    -0.231883032676E+04    0.28630E-01   -0.59407E+00  4528   0.184E+00    0.535E-01
RMM:   2    -0.231886175624E+04   -0.31429E-01   -0.33236E-01  6310   0.347E-01    0.265E-01
RMM:   3    -0.231886356138E+04   -0.18051E-02   -0.25952E-02  6027   0.991E-02    0.292E-01
RMM:   4    -0.231886258626E+04    0.97512E-03   -0.31104E-03  5545   0.259E-02    0.137E-01
RMM:   5    -0.231886242576E+04    0.16049E-03   -0.77829E-04  4689   0.177E-02    0.107E-01
RMM:   6    -0.231886238318E+04    0.42580E-04   -0.44962E-04  4860   0.141E-02    0.849E-02
RMM:   7    -0.231886230856E+04    0.74623E-04   -0.11515E-04  3439   0.825E-03    0.188E-02
RMM:   8    -0.231886230613E+04    0.24311E-05   -0.22210E-05  2988   0.441E-03
  21 F= -.23397609E+04 E0= -.23397609E+04  d E =-.344254E-01  mag=     1.0000
       N       E                     dE             d eps       ncg     rms          rms(c)
DAV:   1    -0.231882766202E+04    0.34647E-01   -0.11840E+01  4496   0.260E+00    0.735E-01
RMM:   2    -0.231888773780E+04   -0.60076E-01   -0.60902E-01  6373   0.496E-01    0.589E-01
RMM:   3    -0.231888773783E+04   -0.28827E-07   -0.47893E-02  6245   0.138E-01    0.480E-01
RMM:   4    -0.231888460832E+04    0.31295E-02   -0.51071E-03  5951   0.382E-02    0.200E-01
RMM:   5    -0.231888472314E+04   -0.11482E-03   -0.17974E-03  5383   0.238E-02    0.236E-01
RMM:   6    -0.231888413759E+04    0.58555E-03   -0.12217E-03  5600   0.215E-02    0.858E-02
RMM:   7    -0.231888409478E+04    0.42807E-04   -0.17010E-04  3566   0.103E-02    0.228E-02
RMM:   8    -0.231888409284E+04    0.19361E-05   -0.26131E-05  2954   0.447E-03
  22 F= -.23397835E+04 E0= -.23397835E+04  d E =-.225815E-01  mag=     1.0000
       N       E                     dE             d eps       ncg     rms          rms(c)
DAV:   1    -0.231880294787E+04    0.81147E-01   -0.18877E+01  4472   0.330E+00    0.925E-01
RMM:   2    -0.231889921580E+04   -0.96268E-01   -0.97906E-01  6366   0.637E-01    0.735E-01
RMM:   3    -0.231889920293E+04    0.12869E-04   -0.76864E-02  6255   0.177E-01    0.601E-01
RMM:   4    -0.231889438892E+04    0.48140E-02   -0.81917E-03  6058   0.482E-02    0.263E-01
RMM:   5    -0.231889457670E+04   -0.18778E-03   -0.27528E-03  5590   0.286E-02    0.305E-01
RMM:   6    -0.231889355224E+04    0.10245E-02   -0.20092E-03  5635   0.278E-02    0.101E-01
RMM:   7    -0.231889350642E+04    0.45825E-04   -0.28090E-04  4099   0.134E-02    0.291E-02
RMM:   8    -0.231889350338E+04    0.30443E-05   -0.41838E-05  3008   0.527E-03
  23 F= -.23397937E+04 E0= -.23397937E+04  d E =-.328771E-01  mag=     1.0000
       N       E                     dE             d eps       ncg     rms          rms(c)
DAV:   1    -0.231886349393E+04    0.30012E-01   -0.98119E+00  4476   0.256E+00    0.735E-01
RMM:   2    -0.231891236877E+04   -0.48875E-01   -0.50929E-01  6216   0.499E-01    0.490E-01
RMM:   3    -0.231891383073E+04   -0.14620E-02   -0.35004E-02  6038   0.138E-01    0.582E-01
RMM:   4    -0.231891005272E+04    0.37780E-02   -0.48161E-03  6172   0.420E-02    0.209E-01
RMM:   5    -0.231891007047E+04   -0.17753E-04   -0.17052E-03  5473   0.232E-02    0.218E-01
RMM:   6    -0.231890942826E+04    0.64221E-03   -0.13036E-03  5306   0.236E-02    0.599E-02
RMM:   7    -0.231890941615E+04    0.12104E-04   -0.17010E-04  3979   0.121E-02    0.219E-02
RMM:   8    -0.231890941436E+04    0.17937E-05   -0.27575E-05  3010   0.449E-03
  24 F= -.23398102E+04 E0= -.23398102E+04  d E =-.164514E-01  mag=     1.0000
       N       E                     dE             d eps       ncg     rms          rms(c)
DAV:   1    -0.231889665392E+04    0.12762E-01   -0.32517E+00  4528   0.148E+00    0.423E-01
RMM:   2    -0.231891271025E+04   -0.16056E-01   -0.16709E-01  6219   0.288E-01    0.285E-01
RMM:   3    -0.231891322352E+04   -0.51327E-03   -0.11405E-02  5951   0.779E-02    0.343E-01
RMM:   4    -0.231891192540E+04    0.12981E-02   -0.15946E-03  5726   0.243E-02    0.121E-01
RMM:   5    -0.231891192310E+04    0.23085E-05   -0.56463E-04  4862   0.142E-02    0.123E-01
RMM:   6    -0.231891171215E+04    0.21095E-03   -0.44100E-04  4895   0.142E-02    0.340E-02
RMM:   7    -0.231891170870E+04    0.34487E-05   -0.57170E-05  3106   0.820E-03
  25 F= -.23398128E+04 E0= -.23398128E+04  d E =-.190284E-01  mag=     1.0000
       N       E                     dE             d eps       ncg     rms          rms(c)
DAV:   1    -0.231887039184E+04    0.41320E-01   -0.94775E+00  4492   0.258E+00    0.727E-01
RMM:   2    -0.231892809465E+04   -0.57703E-01   -0.59344E-01  6299   0.513E-01    0.587E-01
RMM:   3    -0.231893064339E+04   -0.25487E-02   -0.47062E-02  6096   0.141E-01    0.694E-01
RMM:   4    -0.231892589791E+04    0.47455E-02   -0.58824E-03  6062   0.423E-02    0.190E-01
RMM:   5    -0.231892583806E+04    0.59850E-04   -0.19249E-03  5552   0.239E-02    0.186E-01
RMM:   6    -0.231892538235E+04    0.45571E-03   -0.11274E-03  5472   0.211E-02    0.775E-02
RMM:   7    -0.231892533512E+04    0.47234E-04   -0.18229E-04  4200   0.104E-02    0.229E-02
RMM:   8    -0.231892533308E+04    0.20310E-05   -0.28824E-05  2979   0.505E-03
  26 F= -.23398270E+04 E0= -.23398270E+04  d E =-.141852E-01  mag=     1.0000
       N       E                     dE             d eps       ncg     rms          rms(c)
DAV:   1    -0.231890222446E+04    0.23111E-01   -0.44334E+00  4528   0.176E+00    0.496E-01
RMM:   2    -0.231892908426E+04   -0.26860E-01   -0.27585E-01  6307   0.349E-01    0.406E-01
RMM:   3    -0.231893024290E+04   -0.11586E-02   -0.21558E-02  6017   0.949E-02    0.474E-01
RMM:   4    -0.231892802562E+04    0.22173E-02   -0.27258E-03  5735   0.289E-02    0.129E-01
RMM:   5    -0.231892799255E+04    0.33073E-04   -0.90079E-04  5207   0.170E-02    0.125E-01
RMM:   6    -0.231892778886E+04    0.20369E-03   -0.53775E-04  5012   0.149E-02    0.545E-02
RMM:   7    -0.231892776383E+04    0.25022E-04   -0.83529E-05  3369   0.779E-03    0.158E-02
RMM:   8    -0.231892776276E+04    0.10728E-05   -0.15023E-05  2920   0.440E-03
  27 F= -.23398297E+04 E0= -.23398297E+04  d E =-.169638E-01  mag=     1.0000
       N       E                     dE             d eps       ncg     rms          rms(c)
DAV:   1    -0.231891266952E+04    0.15094E-01   -0.49977E+00  4512   0.187E+00    0.503E-01
RMM:   2    -0.231893558621E+04   -0.22917E-01   -0.24483E-01  6033   0.346E-01    0.235E-01
RMM:   3    -0.231893595386E+04   -0.36765E-03   -0.17090E-02  5796   0.100E-01    0.199E-01
RMM:   4    -0.231893570902E+04    0.24484E-03   -0.22353E-03  5835   0.279E-02    0.147E-01
RMM:   5    -0.231893539775E+04    0.31127E-03   -0.86035E-04  5070   0.219E-02    0.630E-02
RMM:   6    -0.231893545588E+04   -0.58127E-04   -0.26249E-04  4135   0.130E-02    0.877E-02
RMM:   7    -0.231893537983E+04    0.76041E-04   -0.81930E-05  3115   0.605E-03    0.207E-02
RMM:   8    -0.231893537665E+04    0.31822E-05   -0.17750E-05  2999   0.394E-03
  28 F= -.23398377E+04 E0= -.23398377E+04  d E =-.793338E-02  mag=     1.0000
       N       E                     dE             d eps       ncg     rms          rms(c)
DAV:   1    -0.231893415646E+04    0.12234E-02   -0.33916E-01  4784   0.487E-01    0.131E-01
RMM:   2    -0.231893570904E+04   -0.15526E-02   -0.16572E-02  6064   0.897E-02    0.617E-02
RMM:   3    -0.231893573350E+04   -0.24458E-04   -0.11303E-03  4656   0.244E-02    0.521E-02
RMM:   4    -0.231893571599E+04    0.17516E-04   -0.15081E-04  3243   0.801E-03    0.388E-02
RMM:   5    -0.231893569435E+04    0.21638E-04   -0.63446E-05  3378   0.691E-03    0.162E-02
RMM:   6    -0.231893569856E+04   -0.42157E-05   -0.20592E-05  2905   0.518E-03
  29 F= -.23398381E+04 E0= -.23398381E+04  d E =-.833294E-02  mag=     1.0000
       N       E                     dE             d eps       ncg     rms          rms(c)
DAV:   1    -0.231892650588E+04    0.91885E-02   -0.28833E+00  4480   0.146E+00    0.380E-01
RMM:   2    -0.231894381061E+04   -0.17305E-01   -0.16724E-01  6097   0.264E-01    0.461E-01
RMM:   3    -0.231894312101E+04    0.68960E-03   -0.13727E-02  5989   0.779E-02    0.300E-01
RMM:   4    -0.231894214814E+04    0.97287E-03   -0.14528E-03  5295   0.213E-02    0.102E-01
RMM:   5    -0.231894210310E+04    0.45044E-04   -0.57486E-04  5205   0.159E-02    0.101E-01
RMM:   6    -0.231894197264E+04    0.13046E-03   -0.34703E-04  4698   0.122E-02    0.421E-02
RMM:   7    -0.231894195997E+04    0.12672E-04   -0.51642E-05  3254   0.666E-03    0.188E-02
RMM:   8    -0.231894195714E+04    0.28253E-05   -0.11527E-05  2918   0.373E-03
  30 F= -.23398442E+04 E0= -.23398442E+04  d E =-.612250E-02  mag=     1.0000
       N       E                     dE             d eps       ncg     rms          rms(c)
DAV:   1    -0.231892684271E+04    0.15117E-01   -0.31386E+00  4460   0.152E+00    0.396E-01
RMM:   2    -0.231894579015E+04   -0.18947E-01   -0.18187E-01  6136   0.277E-01    0.499E-01
RMM:   3    -0.231894488989E+04    0.90026E-03   -0.15087E-02  6017   0.812E-02    0.312E-01
RMM:   4    -0.231894384491E+04    0.10450E-02   -0.15789E-03  5345   0.223E-02    0.107E-01
RMM:   5    -0.231894378726E+04    0.57648E-04   -0.63983E-04  5258   0.167E-02    0.105E-01
RMM:   6    -0.231894364904E+04    0.13822E-03   -0.36997E-04  4766   0.127E-02    0.444E-02
RMM:   7    -0.231894363387E+04    0.15161E-04   -0.54953E-05  3279   0.673E-03    0.198E-02
RMM:   8    -0.231894363045E+04    0.34218E-05   -0.13085E-05  2920   0.387E-03
  31 F= -.23398457E+04 E0= -.23398457E+04  d E =-.764479E-02  mag=     1.0000
       N       E                     dE             d eps       ncg     rms          rms(c)
DAV:   1    -0.231893674842E+04    0.68854E-02   -0.20434E+00  4496   0.123E+00    0.318E-01
RMM:   2    -0.231894843564E+04   -0.11687E-01   -0.11521E-01  6140   0.225E-01    0.336E-01
RMM:   3    -0.231894862335E+04   -0.18772E-03   -0.10134E-02  5961   0.672E-02    0.276E-01
RMM:   4    -0.231894781438E+04    0.80897E-03   -0.11064E-03  5196   0.187E-02    0.853E-02
RMM:   5    -0.231894770827E+04    0.10611E-03   -0.37055E-04  4314   0.132E-02    0.423E-02
RMM:   6    -0.231894771139E+04   -0.31158E-05   -0.11398E-04  3829   0.105E-02    0.295E-02
RMM:   7    -0.231894770520E+04    0.61856E-05   -0.26556E-05  2934   0.515E-03
  32 F= -.23398495E+04 E0= -.23398495E+04  d E =-.379054E-02  mag=     1.0000
       N       E                     dE             d eps       ncg     rms          rms(c)
DAV:   1    -0.231893778917E+04    0.99222E-02   -0.21349E+00  4476   0.126E+00    0.327E-01
RMM:   2    -0.231894996346E+04   -0.12174E-01   -0.12033E-01  6110   0.230E-01    0.340E-01
RMM:   3    -0.231895023118E+04   -0.26772E-03   -0.10613E-02  5977   0.701E-02    0.288E-01
RMM:   4    -0.231894936200E+04    0.86918E-03   -0.11708E-03  5233   0.193E-02    0.878E-02
RMM:   5    -0.231894925413E+04    0.10787E-03   -0.38042E-04  4279   0.135E-02    0.446E-02
RMM:   6    -0.231894926469E+04   -0.10559E-04   -0.13296E-04  3798   0.109E-02    0.386E-02
RMM:   7    -0.231894924840E+04    0.16294E-04   -0.32952E-05  2960   0.554E-03    0.166E-02
RMM:   8    -0.231894924638E+04    0.20164E-05   -0.85184E-06  2891   0.336E-03
  33 F= -.23398508E+04 E0= -.23398508E+04  d E =-.503438E-02  mag=     1.0000
       N       E                     dE             d eps       ncg     rms          rms(c)
DAV:   1    -0.231894413235E+04    0.51161E-02   -0.10059E+00  4528   0.904E-01    0.252E-01
RMM:   2    -0.231895301820E+04   -0.88859E-02   -0.93856E-02  6271   0.191E-01    0.122E-01
RMM:   3    -0.231895347871E+04   -0.46051E-03   -0.83321E-03  5733   0.572E-02    0.103E-01
RMM:   4    -0.231895342283E+04    0.55875E-04   -0.87174E-04  3964   0.136E-02    0.718E-02
RMM:   5    -0.231895339255E+04    0.30278E-04   -0.18638E-04  3895   0.918E-03    0.770E-02
RMM:   6    -0.231895334725E+04    0.45303E-04   -0.11488E-04  3111   0.824E-03    0.374E-02
RMM:   7    -0.231895333351E+04    0.13744E-04   -0.36142E-05  3236   0.583E-03    0.109E-02
RMM:   8    -0.231895333295E+04    0.55859E-06   -0.77895E-06  2889   0.392E-03
  34 F= -.23398547E+04 E0= -.23398547E+04  d E =-.394461E-02  mag=     1.0000
       N       E                     dE             d eps       ncg     rms          rms(c)
DAV:   1    -0.231893014526E+04    0.23188E-01   -0.28165E+00  4472   0.151E+00    0.423E-01
RMM:   2    -0.231895498056E+04   -0.24835E-01   -0.26245E-01  6289   0.318E-01    0.209E-01
RMM:   3    -0.231895634121E+04   -0.13607E-02   -0.24193E-02  5956   0.997E-02    0.176E-01
RMM:   4    -0.231895615171E+04    0.18951E-03   -0.24571E-03  5443   0.228E-02    0.119E-01
RMM:   5    -0.231895606955E+04    0.82154E-04   -0.51582E-04  4906   0.136E-02    0.127E-01
RMM:   6    -0.231895594932E+04    0.12023E-03   -0.31971E-04  3826   0.121E-02    0.649E-02
RMM:   7    -0.231895590660E+04    0.42728E-04   -0.10191E-04  4166   0.780E-03    0.196E-02
RMM:   8    -0.231895590314E+04    0.34601E-05   -0.18031E-05  2977   0.468E-03
  35 F= -.23398570E+04 E0= -.23398570E+04  d E =-.626543E-02  mag=     1.0000
       N       E                     dE             d eps       ncg     rms          rms(c)
DAV:   1    -0.231895014737E+04    0.57592E-02   -0.97113E-01  4528   0.887E-01    0.252E-01
RMM:   2    -0.231895873622E+04   -0.85889E-02   -0.91295E-02  6292   0.183E-01    0.114E-01
RMM:   3    -0.231895921168E+04   -0.47546E-03   -0.81268E-03  5706   0.569E-02    0.907E-02
RMM:   4    -0.231895919126E+04    0.20418E-04   -0.83494E-04  3912   0.132E-02    0.752E-02
RMM:   5    -0.231895914031E+04    0.50956E-04   -0.17533E-04  3577   0.967E-03    0.541E-02
RMM:   6    -0.231895913028E+04    0.10024E-04   -0.94292E-05  3239   0.696E-03    0.440E-02
RMM:   7    -0.231895911136E+04    0.18921E-04   -0.32558E-05  2942   0.562E-03    0.943E-03
RMM:   8    -0.231895911143E+04   -0.71392E-07   -0.76406E-06  2889   0.341E-03
  36 F= -.23398601E+04 E0= -.23398601E+04  d E =-.312236E-02  mag=     1.0000
       N       E                     dE             d eps       ncg     rms          rms(c)
DAV:   1    -0.231892551758E+04    0.33594E-01   -0.39087E+00  4488   0.178E+00    0.505E-01
RMM:   2    -0.231896004753E+04   -0.34530E-01   -0.36669E-01  6263   0.367E-01    0.233E-01
RMM:   3    -0.231896202462E+04   -0.19771E-02   -0.33773E-02  5952   0.116E-01    0.190E-01
RMM:   4    -0.231896190803E+04    0.11659E-03   -0.33796E-03  5745   0.262E-02    0.158E-01
RMM:   5    -0.231896173062E+04    0.17741E-03   -0.68827E-04  4739   0.162E-02    0.121E-01
RMM:   6    -0.231896163239E+04    0.98225E-04   -0.40518E-04  4883   0.120E-02    0.777E-02
RMM:   7    -0.231896156844E+04    0.63954E-04   -0.11745E-04  3633   0.818E-03    0.216E-02
RMM:   8    -0.231896156554E+04    0.28968E-05   -0.25337E-05  2971   0.488E-03
  37 F= -.23398624E+04 E0= -.23398624E+04  d E =-.538971E-02  mag=     1.0000
       N       E                     dE             d eps       ncg     rms          rms(c)
DAV:   1    -0.231894991780E+04    0.11651E-01   -0.16794E+00  4496   0.115E+00    0.312E-01
RMM:   2    -0.231896530196E+04   -0.15384E-01   -0.16149E-01  6390   0.234E-01    0.216E-01
RMM:   3    -0.231896652556E+04   -0.12236E-02   -0.14570E-02  5948   0.708E-02    0.260E-01
RMM:   4    -0.231896588932E+04    0.63624E-03   -0.15891E-03  4816   0.186E-02    0.903E-02
RMM:   5    -0.231896578901E+04    0.10031E-03   -0.28243E-04  4292   0.110E-02    0.521E-02
RMM:   6    -0.231896578993E+04   -0.91204E-06   -0.17350E-04  4085   0.960E-03    0.448E-02
RMM:   7    -0.231896576264E+04    0.27285E-04   -0.47426E-05  2974   0.644E-03    0.161E-02
RMM:   8    -0.231896576130E+04    0.13437E-05   -0.10418E-05  2908   0.383E-03
  38 F= -.23398664E+04 E0= -.23398664E+04  d E =-.400215E-02  mag=     1.0000
       N       E                     dE             d eps       ncg     rms          rms(c)
DAV:   1    -0.231892910247E+04    0.36660E-01   -0.41628E+00  4488   0.180E+00    0.491E-01
RMM:   2    -0.231896717592E+04   -0.38073E-01   -0.40009E-01  6328   0.369E-01    0.335E-01
RMM:   3    -0.231897031146E+04   -0.31355E-02   -0.36964E-02  6115   0.112E-01    0.411E-01
RMM:   4    -0.231896872158E+04    0.15899E-02   -0.39360E-03  5796   0.288E-02    0.141E-01
RMM:   5    -0.231896846557E+04    0.25601E-03   -0.67908E-04  4744   0.161E-02    0.806E-02
RMM:   6    -0.231896845664E+04    0.89362E-05   -0.40391E-04  4965   0.139E-02    0.652E-02
RMM:   7    -0.231896840316E+04    0.53476E-04   -0.11424E-04  3303   0.849E-03    0.283E-02
RMM:   8    -0.231896839656E+04    0.66014E-05   -0.25013E-05  3082   0.486E-03
  39 F= -.23398687E+04 E0= -.23398687E+04  d E =-.632475E-02  mag=     1.0000
       N       E                     dE             d eps       ncg     rms          rms(c)
DAV:   1    -0.231895420744E+04    0.14196E-01   -0.16583E+00  4496   0.117E+00    0.345E-01
RMM:   2    -0.231897125471E+04   -0.17047E-01   -0.18045E-01  6231   0.244E-01    0.234E-01
RMM:   3    -0.231897263241E+04   -0.13777E-02   -0.17528E-02  5981   0.842E-02    0.270E-01
RMM:   4    -0.231897193988E+04    0.69253E-03   -0.18892E-03  5330   0.202E-02    0.104E-01
RMM:   5    -0.231897188719E+04    0.52695E-04   -0.36135E-04  4514   0.117E-02    0.898E-02
RMM:   6    -0.231897176584E+04    0.12135E-03   -0.29562E-04  4963   0.111E-02    0.378E-02
RMM:   7    -0.231897175367E+04    0.12168E-04   -0.68435E-05  3441   0.723E-03    0.162E-02
RMM:   8    -0.231897175182E+04    0.18500E-05   -0.11496E-05  2925   0.414E-03
  40 F= -.23398716E+04 E0= -.23398716E+04  d E =-.286222E-02  mag=     1.0000
       N       E                     dE             d eps       ncg     rms          rms(c)
DAV:   1    -0.231896644738E+04    0.53063E-02   -0.54763E-01  4592   0.672E-01    0.199E-01
RMM:   2    -0.231897214103E+04   -0.56936E-02   -0.59974E-02  6191   0.140E-01    0.144E-01
RMM:   3    -0.231897255579E+04   -0.41477E-03   -0.55829E-03  5716   0.471E-02    0.161E-01
RMM:   4    -0.231897230950E+04    0.24629E-03   -0.62510E-04  3641   0.119E-02    0.606E-02
RMM:   5    -0.231897228974E+04    0.19759E-04   -0.11684E-04  3355   0.771E-03    0.517E-02
RMM:   6    -0.231897224756E+04    0.42181E-04   -0.10908E-04  3818   0.760E-03    0.209E-02
RMM:   7    -0.231897224402E+04    0.35380E-05   -0.27445E-05  3035   0.519E-03
  41 F= -.23398718E+04 E0= -.23398718E+04  d E =-.307213E-02  mag=     1.0000
       N       E                     dE             d eps       ncg     rms          rms(c)
DAV:   1    -0.231895140749E+04    0.20840E-01   -0.17252E+00  4492   0.116E+00    0.342E-01
RMM:   2    -0.231897374898E+04   -0.22341E-01   -0.23963E-01  6425   0.259E-01    0.177E-01
RMM:   3    -0.231897543683E+04   -0.16878E-02   -0.23682E-02  5834   0.865E-02    0.150E-01
RMM:   4    -0.231897534552E+04    0.91307E-04   -0.23146E-03  4825   0.195E-02    0.104E-01
RMM:   5    -0.231897526122E+04    0.84297E-04   -0.34094E-04  4531   0.109E-02    0.106E-01
RMM:   6    -0.231897516717E+04    0.94051E-04   -0.26578E-04  3654   0.986E-03    0.580E-02
RMM:   7    -0.231897513631E+04    0.30864E-04   -0.10616E-04  3917   0.739E-03    0.171E-02
RMM:   8    -0.231897513352E+04    0.27865E-05   -0.13074E-05  2943   0.452E-03
  42 F= -.23398741E+04 E0= -.23398741E+04  d E =-.225575E-02  mag=     1.0000
       N       E                     dE             d eps       ncg     rms          rms(c)
DAV:   1    -0.231895950622E+04    0.15630E-01   -0.11817E+00  4496   0.959E-01    0.283E-01
RMM:   2    -0.231897483230E+04   -0.15326E-01   -0.16434E-01  6388   0.213E-01    0.148E-01
RMM:   3    -0.231897596812E+04   -0.11358E-02   -0.16111E-02  5668   0.708E-02    0.123E-01
RMM:   4    -0.231897590009E+04    0.68026E-04   -0.15910E-03  4297   0.160E-02    0.844E-02
RMM:   5    -0.231897583099E+04    0.69101E-04   -0.23130E-04  4128   0.967E-03    0.822E-02
RMM:   6    -0.231897578318E+04    0.47805E-04   -0.17645E-04  3325   0.846E-03    0.530E-02
RMM:   7    -0.231897575714E+04    0.26041E-04   -0.72342E-05  3546   0.663E-03    0.147E-02
RMM:   8    -0.231897575510E+04    0.20432E-05   -0.10372E-05  2914   0.422E-03
  43 F= -.23398742E+04 E0= -.23398742E+04  d E =-.235924E-02  mag=     1.0000
       N       E                     dE             d eps       ncg     rms          rms(c)
DAV:   1    -0.231895414469E+04    0.21612E-01   -0.16493E+00  4492   0.112E+00    0.342E-01
RMM:   2    -0.231897696577E+04   -0.22821E-01   -0.24367E-01  6429   0.256E-01    0.200E-01
RMM:   3    -0.231897902089E+04   -0.20551E-02   -0.24198E-02  5701   0.830E-02    0.267E-01
RMM:   4    -0.231897854627E+04    0.47461E-03   -0.24974E-03  4638   0.199E-02    0.109E-01
RMM:   5    -0.231897842605E+04    0.12022E-03   -0.37296E-04  4376   0.104E-02    0.794E-02
RMM:   6    -0.231897836283E+04    0.63219E-04   -0.24012E-04  3866   0.961E-03    0.528E-02
RMM:   7    -0.231897833249E+04    0.30344E-04   -0.94791E-05  3602   0.732E-03    0.195E-02
RMM:   8    -0.231897833030E+04    0.21933E-05   -0.14730E-05  2942   0.474E-03
  44 F= -.23398764E+04 E0= -.23398764E+04  d E =-.221380E-02  mag=     1.0000
       N       E                     dE             d eps       ncg     rms          rms(c)
DAV:   1    -0.231895818511E+04    0.20147E-01   -0.14318E+00  4492   0.105E+00    0.320E-01
RMM:   2    -0.231897809021E+04   -0.19905E-01   -0.21257E-01  6381   0.238E-01    0.189E-01
RMM:   3    -0.231897989344E+04   -0.18032E-02   -0.21005E-02  5620   0.770E-02    0.255E-01
RMM:   4    -0.231897944974E+04    0.44369E-03   -0.21755E-03  4509   0.186E-02    0.101E-01
RMM:   5    -0.231897934735E+04    0.10239E-03   -0.32607E-04  4215   0.985E-03    0.749E-02
RMM:   6    -0.231897929018E+04    0.57173E-04   -0.21328E-04  3780   0.915E-03    0.493E-02
RMM:   7    -0.231897926430E+04    0.25883E-04   -0.83583E-05  3511   0.702E-03    0.187E-02
RMM:   8    -0.231897926248E+04    0.18197E-05   -0.13556E-05  2941   0.461E-03
  45 F= -.23398770E+04 E0= -.23398770E+04  d E =-.281375E-02  mag=     1.0000
       N       E                     dE             d eps       ncg     rms          rms(c)
DAV:   1    -0.231896346025E+04    0.15804E-01   -0.11572E+00  4512   0.949E-01    0.302E-01
RMM:   2    -0.231898057637E+04   -0.17116E-01   -0.18391E-01  6338   0.223E-01    0.177E-01
RMM:   3    -0.231898192128E+04   -0.13449E-02   -0.17669E-02  5853   0.725E-02    0.208E-01
RMM:   4    -0.231898169225E+04    0.22902E-03   -0.18790E-03  4345   0.170E-02    0.108E-01
RMM:   5    -0.231898154215E+04    0.15010E-03   -0.28965E-04  4367   0.105E-02    0.615E-02
RMM:   6    -0.231898153363E+04    0.85209E-05   -0.21639E-04  4118   0.973E-03    0.513E-02
RMM:   7    -0.231898150490E+04    0.28725E-04   -0.69756E-05  3141   0.674E-03    0.233E-02
RMM:   8    -0.231898150131E+04    0.35889E-05   -0.13388E-05  2926   0.407E-03
  46 F= -.23398794E+04 E0= -.23398794E+04  d E =-.237525E-02  mag=     1.0000
       N       E                     dE             d eps       ncg     rms          rms(c)
DAV:   1    -0.231897965034E+04    0.18546E-02   -0.12451E-01  4704   0.312E-01    0.994E-02
RMM:   2    -0.231898150263E+04   -0.18523E-02   -0.19901E-02  6296   0.728E-02    0.585E-02
RMM:   3    -0.231898164794E+04   -0.14531E-03   -0.18552E-03  3903   0.245E-02    0.718E-02
RMM:   4    -0.231898161741E+04    0.30529E-04   -0.20308E-04  3035   0.687E-03    0.350E-02
RMM:   5    -0.231898160162E+04    0.15796E-04   -0.34517E-05  2981   0.433E-03    0.197E-02
RMM:   6    -0.231898160183E+04   -0.21297E-06   -0.23916E-05  2981   0.423E-03
  47 F= -.23398795E+04 E0= -.23398795E+04  d E =-.252029E-02  mag=     1.0000
       N       E                     dE             d eps       ncg     rms          rms(c)
DAV:   1    -0.231897166683E+04    0.99348E-02   -0.78908E-01  4512   0.820E-01    0.250E-01
RMM:   2    -0.231898266975E+04   -0.11003E-01   -0.11847E-01  6383   0.186E-01    0.127E-01
RMM:   3    -0.231898340880E+04   -0.73905E-03   -0.11358E-02  5797   0.623E-02    0.917E-02
RMM:   4    -0.231898342482E+04   -0.16027E-04   -0.10988E-03  3701   0.134E-02    0.871E-02
RMM:   5    -0.231898336544E+04    0.59381E-04   -0.19154E-04  3541   0.935E-03    0.720E-02
RMM:   6    -0.231898333352E+04    0.31926E-04   -0.15408E-04  3493   0.794E-03    0.423E-02
RMM:   7    -0.231898331734E+04    0.16171E-04   -0.47800E-05  3106   0.603E-03    0.150E-02
RMM:   8    -0.231898331627E+04    0.10764E-05   -0.81350E-06  2898   0.367E-03
  48 F= -.23398812E+04 E0= -.23398812E+04  d E =-.174766E-02  mag=     1.0000
       N       E                     dE             d eps       ncg     rms          rms(c)
DAV:   1    -0.231897716829E+04    0.61491E-02   -0.43966E-01  4528   0.613E-01    0.186E-01
RMM:   2    -0.231898335118E+04   -0.61829E-02   -0.66367E-02  6379   0.140E-01    0.963E-02
RMM:   3    -0.231898373271E+04   -0.38153E-03   -0.60119E-03  5479   0.436E-02    0.722E-02
RMM:   4    -0.231898372621E+04    0.64972E-05   -0.60282E-04  3291   0.102E-02    0.620E-02
RMM:   5    -0.231898369250E+04    0.33711E-04   -0.11255E-04  3236   0.756E-03    0.533E-02
RMM:   6    -0.231898367567E+04    0.16835E-04   -0.78959E-05  3039   0.618E-03    0.325E-02
RMM:   7    -0.231898366750E+04    0.81700E-05   -0.26423E-05  2951   0.509E-03
  49 F= -.23398816E+04 E0= -.23398816E+04  d E =-.212130E-02  mag=     1.0000
       N       E                     dE             d eps       ncg     rms          rms(c)
DAV:   1    -0.231897629589E+04    0.73798E-02   -0.64728E-01  4492   0.750E-01    0.213E-01
RMM:   2    -0.231898494974E+04   -0.86538E-02   -0.92641E-02  6486   0.168E-01    0.120E-01
RMM:   3    -0.231898559151E+04   -0.64176E-03   -0.87700E-03  5690   0.540E-02    0.123E-01
RMM:   4    -0.231898551220E+04    0.79309E-04   -0.88953E-04  3415   0.125E-02    0.757E-02
RMM:   5    -0.231898546836E+04    0.43838E-04   -0.13501E-04  3237   0.774E-03    0.587E-02
RMM:   6    -0.231898543227E+04    0.36090E-04   -0.12376E-04  3488   0.769E-03    0.318E-02
RMM:   7    -0.231898542135E+04    0.10917E-04   -0.39521E-05  3128   0.567E-03    0.950E-03
RMM:   8    -0.231898542059E+04    0.75663E-06   -0.62249E-06  2872   0.369E-03
  50 F= -.23398832E+04 E0= -.23398832E+04  d E =-.156647E-02  mag=     1.0000
       N       E                     dE             d eps       ncg     rms          rms(c)
DAV:   1    -0.231896721384E+04    0.18208E-01   -0.13659E+00  4492   0.109E+00    0.309E-01
RMM:   2    -0.231898550005E+04   -0.18286E-01   -0.19556E-01  6429   0.244E-01    0.173E-01
RMM:   3    -0.231898684682E+04   -0.13468E-02   -0.18854E-02  5959   0.760E-02    0.170E-01
RMM:   4    -0.231898672274E+04    0.12408E-03   -0.18766E-03  4196   0.175E-02    0.114E-01
RMM:   5    -0.231898661690E+04    0.10583E-03   -0.27089E-04  3916   0.102E-02    0.839E-02
RMM:   6    -0.231898654674E+04    0.70163E-04   -0.27151E-04  4429   0.104E-02    0.494E-02
RMM:   7    -0.231898651758E+04    0.29162E-04   -0.84301E-05  3539   0.689E-03    0.148E-02
RMM:   8    -0.231898651497E+04    0.26113E-05   -0.11371E-05  2927   0.445E-03
  51 F= -.23398840E+04 E0= -.23398840E+04  d E =-.238729E-02  mag=     1.0000
       N       E                     dE             d eps       ncg     rms          rms(c)
DAV:   1    -0.231897536279E+04    0.11155E-01   -0.83928E-01  4496   0.860E-01    0.249E-01
RMM:   2    -0.231898768391E+04   -0.12321E-01   -0.13170E-01  6414   0.197E-01    0.140E-01
RMM:   3    -0.231898866781E+04   -0.98390E-03   -0.12617E-02  5798   0.617E-02    0.150E-01
RMM:   4    -0.231898855246E+04    0.11535E-03   -0.12750E-03  3612   0.142E-02    0.901E-02
RMM:   5    -0.231898846850E+04    0.83962E-04   -0.16293E-04  3550   0.842E-03    0.553E-02
RMM:   6    -0.231898845407E+04    0.14426E-04   -0.17097E-04  4041   0.873E-03    0.442E-02
RMM:   7    -0.231898843259E+04    0.21484E-04   -0.49583E-05  3121   0.585E-03    0.152E-02
RMM:   8    -0.231898843100E+04    0.15859E-05   -0.86163E-06  2905   0.370E-03
  52 F= -.23398856E+04 E0= -.23398856E+04  d E =-.158482E-02  mag=     1.0000
       N       E                     dE             d eps       ncg     rms          rms(c)
DAV:   1    -0.231897238451E+04    0.16048E-01   -0.10952E+00  4492   0.982E-01    0.284E-01
RMM:   2    -0.231898842636E+04   -0.16042E-01   -0.17140E-01  6401   0.224E-01    0.159E-01
RMM:   3    -0.231898970064E+04   -0.12743E-02   -0.16477E-02  5900   0.711E-02    0.168E-01
RMM:   4    -0.231898956817E+04    0.13248E-03   -0.16616E-03  3900   0.161E-02    0.105E-01
RMM:   5    -0.231898945655E+04    0.11161E-03   -0.21254E-04  3827   0.937E-03    0.637E-02
RMM:   6    -0.231898943786E+04    0.18691E-04   -0.22600E-04  4321   0.975E-03    0.511E-02
RMM:   7    -0.231898940945E+04    0.28414E-04   -0.64988E-05  3246   0.638E-03    0.181E-02
RMM:   8    -0.231898940720E+04    0.22547E-05   -0.11102E-05  2927   0.397E-03
  53 F= -.23398862E+04 E0= -.23398862E+04  d E =-.218339E-02  mag=     1.0000
       N       E                     dE             d eps       ncg     rms          rms(c)
DAV:   1    -0.231897678022E+04    0.12629E-01   -0.81169E-01  4492   0.856E-01    0.262E-01
RMM:   2    -0.231899018831E+04   -0.13408E-01   -0.14420E-01  6392   0.200E-01    0.141E-01
RMM:   3    -0.231899132334E+04   -0.11350E-02   -0.14127E-02  5863   0.649E-02    0.151E-01
RMM:   4    -0.231899122442E+04    0.98925E-04   -0.14415E-03  3661   0.146E-02    0.921E-02
RMM:   5    -0.231899111990E+04    0.10452E-03   -0.17179E-04  3630   0.889E-03    0.474E-02
RMM:   6    -0.231899110023E+04    0.19666E-04   -0.13967E-04  4191   0.844E-03    0.252E-02
RMM:   7    -0.231899109822E+04    0.20090E-05   -0.28988E-05  2938   0.564E-03
  54 F= -.23398875E+04 E0= -.23398875E+04  d E =-.134845E-02  mag=     1.0000
       N       E                     dE             d eps       ncg     rms          rms(c)
DAV:   1    -0.231898138935E+04    0.97109E-02   -0.58026E-01  4528   0.724E-01    0.223E-01
RMM:   2    -0.231899098433E+04   -0.95950E-02   -0.10338E-01  6408   0.169E-01    0.118E-01
RMM:   3    -0.231899176979E+04   -0.78546E-03   -0.98885E-03  5752   0.570E-02    0.121E-01
RMM:   4    -0.231899171765E+04    0.52146E-04   -0.10198E-03  3373   0.125E-02    0.791E-02
RMM:   5    -0.231899164325E+04    0.74396E-04   -0.12529E-04  3297   0.800E-03    0.412E-02
RMM:   6    -0.231899163973E+04    0.35237E-05   -0.10673E-04  3686   0.751E-03    0.346E-02
RMM:   7    -0.231899162600E+04    0.13730E-04   -0.32305E-05  2921   0.551E-03    0.122E-02
RMM:   8    -0.231899162441E+04    0.15891E-05   -0.62708E-06  2883   0.310E-03
  55 F= -.23398878E+04 E0= -.23398878E+04  d E =-.158458E-02  mag=     1.0000
       N       E                     dE             d eps       ncg     rms          rms(c)
DAV:   1    -0.231898039957E+04    0.11226E-01   -0.62539E-01  4492   0.742E-01    0.238E-01
RMM:   2    -0.231899221745E+04   -0.11818E-01   -0.12742E-01  6442   0.181E-01    0.123E-01
RMM:   3    -0.231899327000E+04   -0.10525E-02   -0.12557E-02  5673   0.589E-02    0.122E-01
RMM:   4    -0.231899324181E+04    0.28190E-04   -0.12853E-03  3368   0.127E-02    0.818E-02
RMM:   5    -0.231899316116E+04    0.80656E-04   -0.12008E-04  3159   0.742E-03    0.442E-02
RMM:   6    -0.231899314244E+04    0.18721E-04   -0.11524E-04  3775   0.715E-03    0.219E-02
RMM:   7    -0.231899314108E+04    0.13595E-05   -0.24049E-05  2929   0.521E-03
  56 F= -.23398889E+04 E0= -.23398889E+04  d E =-.117209E-02  mag=     1.0000
       N       E                     dE             d eps       ncg     rms          rms(c)
DAV:   1    -0.231890781582E+04    0.85327E-01   -0.42547E+00  4488   0.194E+00    0.623E-01
RMM:   2    -0.231898787850E+04   -0.80063E-01   -0.86489E-01  6537   0.478E-01    0.315E-01
RMM:   3    -0.231899567730E+04   -0.77988E-02   -0.95332E-02  6099   0.159E-01    0.291E-01
RMM:   4    -0.231899574953E+04   -0.72224E-04   -0.90164E-03  5608   0.326E-02    0.228E-01
RMM:   5    -0.231899522703E+04    0.52250E-03   -0.84303E-04  4694   0.154E-02    0.134E-01
RMM:   6    -0.231899501172E+04    0.21532E-03   -0.71291E-04  5390   0.150E-02    0.675E-02
RMM:   7    -0.231899500407E+04    0.76462E-05   -0.22346E-04  4262   0.106E-02    0.522E-02
RMM:   8    -0.231899497137E+04    0.32704E-04   -0.64242E-05  3108   0.609E-03    0.280E-02
RMM:   9    -0.231899496313E+04    0.82382E-05   -0.19959E-05  2920   0.456E-03
  57 F= -.23398899E+04 E0= -.23398899E+04  d E =-.209003E-02  mag=     1.0000
       N       E                     dE             d eps       ncg     rms          rms(c)
DAV:   1    -0.231898236159E+04    0.12610E-01   -0.63101E-01  4560   0.732E-01    0.245E-01
RMM:   2    -0.231899539631E+04   -0.13035E-01   -0.14039E-01  6534   0.187E-01    0.121E-01
RMM:   3    -0.231899656698E+04   -0.11707E-02   -0.13947E-02  5635   0.614E-02    0.946E-02
RMM:   4    -0.231899661934E+04   -0.52358E-04   -0.13926E-03  3378   0.129E-02    0.897E-02
RMM:   5    -0.231899654440E+04    0.74939E-04   -0.13943E-04  3083   0.751E-03    0.548E-02
RMM:   6    -0.231899652526E+04    0.19139E-04   -0.12604E-04  3546   0.685E-03    0.384E-02
RMM:   7    -0.231899651082E+04    0.14440E-04   -0.43224E-05  2988   0.542E-03    0.157E-02
RMM:   8    -0.231899650930E+04    0.15172E-05   -0.79227E-06  2887   0.320E-03
  58 F= -.23398911E+04 E0= -.23398911E+04  d E =-.119694E-02  mag=     1.0000
       N       E                     dE             d eps       ncg     rms          rms(c)
DAV:   1    -0.231888018803E+04    0.11632E+00   -0.52430E+00  4488   0.211E+00    0.708E-01
RMM:   2    -0.231898849893E+04   -0.10831E+00   -0.11669E+00  6552   0.546E-01    0.354E-01
RMM:   3    -0.231899911854E+04   -0.10620E-01   -0.13076E-01  6140   0.181E-01    0.255E-01
RMM:   4    -0.231899948633E+04   -0.36780E-03   -0.11819E-02  5672   0.369E-02    0.228E-01
RMM:   5    -0.231899916157E+04    0.32476E-03   -0.10419E-03  4660   0.164E-02    0.189E-01
RMM:   6    -0.231899879691E+04    0.36466E-03   -0.85421E-04  5398   0.152E-02    0.995E-02
RMM:   7    -0.231899876050E+04    0.36414E-04   -0.36738E-04  4599   0.115E-02    0.715E-02
RMM:   8    -0.231899870785E+04    0.52647E-04   -0.11609E-04  3308   0.718E-03    0.369E-02
RMM:   9    -0.231899869819E+04    0.96581E-05   -0.32285E-05  2986   0.526E-03
  59 F= -.23398922E+04 E0= -.23398922E+04  d E =-.237558E-02  mag=     1.0000
       N       E                     dE             d eps       ncg     rms          rms(c)
DAV:   1    -0.231896913063E+04    0.29577E-01   -0.13623E+00  4492   0.108E+00    0.368E-01
RMM:   2    -0.231899821829E+04   -0.29088E-01   -0.31266E-01  6548   0.281E-01    0.179E-01
RMM:   3    -0.231900081196E+04   -0.25937E-02   -0.32010E-02  5989   0.925E-02    0.122E-01
RMM:   4    -0.231900092203E+04   -0.11008E-03   -0.29991E-03  4229   0.191E-02    0.108E-01
RMM:   5    -0.231900080537E+04    0.11666E-03   -0.32235E-04  3886   0.101E-02    0.782E-02
RMM:   6    -0.231900077696E+04    0.28411E-04   -0.24329E-04  3815   0.938E-03    0.707E-02
RMM:   7    -0.231900073951E+04    0.37452E-04   -0.84421E-05  3318   0.673E-03    0.295E-02
RMM:   8    -0.231900073231E+04    0.72049E-05   -0.20398E-05  2962   0.448E-03
  60 F= -.23398939E+04 E0= -.23398939E+04  d E =-.169433E-02  mag=     1.0000
       N       E                     dE             d eps       ncg     rms          rms(c)
DAV:   1    -0.231895304426E+04    0.47695E-01   -0.21024E+00  4488   0.134E+00    0.457E-01
RMM:   2    -0.231899779316E+04   -0.44749E-01   -0.48138E-01  6565   0.350E-01    0.224E-01
RMM:   3    -0.231900189279E+04   -0.40996E-02   -0.50731E-02  6008   0.114E-01    0.155E-01
RMM:   4    -0.231900204524E+04   -0.15245E-03   -0.46600E-03  4854   0.237E-02    0.133E-01
RMM:   5    -0.231900187338E+04    0.17186E-03   -0.49931E-04  4485   0.118E-02    0.985E-02
RMM:   6    -0.231900181603E+04    0.57351E-04   -0.36243E-04  4208   0.109E-02    0.853E-02
RMM:   7    -0.231900176681E+04    0.49221E-04   -0.13484E-04  3723   0.775E-03    0.406E-02
RMM:   8    -0.231900175046E+04    0.16347E-04   -0.34177E-05  3039   0.512E-03    0.221E-02
RMM:   9    -0.231900174746E+04    0.29997E-05   -0.12679E-05  2882   0.351E-03
  61 F= -.23398945E+04 E0= -.23398945E+04  d E =-.228870E-02  mag=     1.0000
       N       E                     dE             d eps       ncg     rms          rms(c)
DAV:   1    -0.231897333282E+04    0.28418E-01   -0.12927E+00  4488   0.105E+00    0.362E-01
RMM:   2    -0.231900113125E+04   -0.27798E-01   -0.29890E-01  6526   0.274E-01    0.173E-01
RMM:   3    -0.231900363879E+04   -0.25075E-02   -0.31240E-02  5891   0.915E-02    0.116E-01
RMM:   4    -0.231900376258E+04   -0.12379E-03   -0.28756E-03  4335   0.185E-02    0.108E-01
RMM:   5    -0.231900367723E+04    0.85351E-04   -0.30116E-04  3879   0.955E-03    0.912E-02
RMM:   6    -0.231900360250E+04    0.74731E-04   -0.25884E-04  4092   0.992E-03    0.501E-02
RMM:   7    -0.231900358692E+04    0.15575E-04   -0.75631E-05  3259   0.648E-03    0.288E-02
RMM:   8    -0.231900357718E+04    0.97433E-05   -0.19516E-05  2929   0.448E-03
  62 F= -.23398961E+04 E0= -.23398961E+04  d E =-.158668E-02  mag=     1.0000
       N       E                     dE             d eps       ncg     rms          rms(c)
DAV:   1    -0.231899025555E+04    0.13331E-01   -0.58748E-01  4560   0.706E-01    0.245E-01
RMM:   2    -0.231900288205E+04   -0.12627E-01   -0.13603E-01  6536   0.185E-01    0.116E-01
RMM:   3    -0.231900399594E+04   -0.11139E-02   -0.13838E-02  5604   0.609E-02    0.748E-02
RMM:   4    -0.231900403980E+04   -0.43861E-04   -0.12766E-03  3465   0.124E-02    0.639E-02
RMM:   5    -0.231900400077E+04    0.39035E-04   -0.16077E-04  3384   0.838E-03    0.462E-02
RMM:   6    -0.231900397449E+04    0.26277E-04   -0.87716E-05  3402   0.661E-03    0.203E-02
RMM:   7    -0.231900397288E+04    0.16123E-05   -0.17298E-05  2913   0.473E-03
  63 F= -.23398963E+04 E0= -.23398963E+04  d E =-.181959E-02  mag=     1.0000
       N       E                     dE             d eps       ncg     rms          rms(c)
DAV:   1    -0.231898416076E+04    0.19814E-01   -0.94697E-01  4492   0.894E-01    0.306E-01
RMM:   2    -0.231900384119E+04   -0.19680E-01   -0.21221E-01  6549   0.230E-01    0.149E-01
RMM:   3    -0.231900558842E+04   -0.17472E-02   -0.21537E-02  5863   0.747E-02    0.113E-01
RMM:   4    -0.231900569371E+04   -0.10529E-03   -0.20921E-03  3793   0.160E-02    0.119E-01
RMM:   5    -0.231900555207E+04    0.14164E-03   -0.21639E-04  3357   0.898E-03    0.657E-02
RMM:   6    -0.231900552513E+04    0.26938E-04   -0.22452E-04  4122   0.912E-03    0.455E-02
RMM:   7    -0.231900550476E+04    0.20366E-04   -0.61058E-05  3093   0.609E-03    0.200E-02
RMM:   8    -0.231900550136E+04    0.34008E-05   -0.10977E-05  2895   0.358E-03
  64 F= -.23398977E+04 E0= -.23398977E+04  d E =-.138451E-02  mag=     1.0000
       N       E                     dE             d eps       ncg     rms          rms(c)
DAV:   1    -0.231899554493E+04    0.99598E-02   -0.45765E-01  4528   0.621E-01    0.212E-01
RMM:   2    -0.231900508403E+04   -0.95391E-02   -0.10284E-01  6510   0.159E-01    0.100E-01
RMM:   3    -0.231900587219E+04   -0.78816E-03   -0.99558E-03  5431   0.498E-02    0.656E-02
RMM:   4    -0.231900591782E+04   -0.45627E-04   -0.94153E-04  3253   0.107E-02    0.700E-02
RMM:   5    -0.231900587950E+04    0.38313E-04   -0.11184E-04  3087   0.712E-03    0.499E-02
RMM:   6    -0.231900585871E+04    0.20796E-04   -0.92891E-05  3261   0.599E-03    0.253E-02
RMM:   7    -0.231900585524E+04    0.34682E-05   -0.23781E-05  2895   0.486E-03
  65 F= -.23398980E+04 E0= -.23398980E+04  d E =-.163807E-02  mag=     1.0000
       N       E                     dE             d eps       ncg     rms          rms(c)
DAV:   1    -0.231899230272E+04    0.13556E-01   -0.71102E-01  4496   0.802E-01    0.268E-01
RMM:   2    -0.231900595140E+04   -0.13649E-01   -0.14708E-01  6462   0.200E-01    0.136E-01
RMM:   3    -0.231900701758E+04   -0.10662E-02   -0.14475E-02  5887   0.654E-02    0.107E-01
RMM:   4    -0.231900703152E+04   -0.13937E-04   -0.14418E-03  3864   0.149E-02    0.972E-02
RMM:   5    -0.231900695114E+04    0.80381E-04   -0.18940E-04  3438   0.919E-03    0.705E-02
RMM:   6    -0.231900691125E+04    0.39893E-04   -0.17949E-04  3683   0.855E-03    0.415E-02
RMM:   7    -0.231900689380E+04    0.17445E-04   -0.52737E-05  3078   0.610E-03    0.138E-02
RMM:   8    -0.231900689285E+04    0.94976E-06   -0.80027E-06  2885   0.396E-03
  66 F= -.23398990E+04 E0= -.23398990E+04  d E =-.984658E-03  mag=     1.0000
       N       E                     dE             d eps       ncg     rms          rms(c)
DAV:   1    -0.231900605864E+04    0.83516E-03   -0.41112E-02  4832   0.193E-01    0.649E-02
RMM:   2    -0.231900685473E+04   -0.79609E-03   -0.85588E-03  6393   0.486E-02    0.334E-02
RMM:   3    -0.231900691858E+04   -0.63852E-04   -0.83430E-04  3421   0.160E-02    0.289E-02
RMM:   4    -0.231900691825E+04    0.33354E-06   -0.86967E-05  2956   0.482E-03
  67 F= -.23398990E+04 E0= -.23398990E+04  d E =-.997313E-03  mag=     1.0000
       N       E                     dE             d eps       ncg     rms          rms(c)
DAV:   1    -0.231899531028E+04    0.11608E-01   -0.60735E-01  4496   0.762E-01    0.238E-01
RMM:   2    -0.231900701556E+04   -0.11705E-01   -0.12417E-01  6517   0.189E-01    0.141E-01
RMM:   3    -0.231900797818E+04   -0.96262E-03   -0.12866E-02  5825   0.614E-02    0.123E-01
RMM:   4    -0.231900790680E+04    0.71376E-04   -0.12739E-03  3705   0.143E-02    0.897E-02
RMM:   5    -0.231900785727E+04    0.49535E-04   -0.15643E-04  3189   0.780E-03    0.731E-02
RMM:   6    -0.231900779957E+04    0.57699E-04   -0.17438E-04  3618   0.852E-03    0.340E-02
RMM:   7    -0.231900779079E+04    0.87841E-05   -0.59149E-05  3197   0.602E-03
  68 F= -.23398997E+04 E0= -.23398997E+04  d E =-.749669E-03  mag=     1.0000
       N       E                     dE             d eps       ncg     rms          rms(c)
DAV:   1    -0.231900480878E+04    0.29908E-02   -0.15011E-01  4528   0.379E-01    0.123E-01
RMM:   2    -0.231900771469E+04   -0.29059E-02   -0.31022E-02  6541   0.946E-02    0.748E-02
RMM:   3    -0.231900795631E+04   -0.24162E-03   -0.31664E-03  4782   0.324E-02    0.655E-02
RMM:   4    -0.231900792395E+04    0.32357E-04   -0.31914E-04  3131   0.829E-03    0.422E-02
RMM:   5    -0.231900791686E+04    0.70956E-05   -0.39718E-05  2915   0.459E-03
  69 F= -.23398998E+04 E0= -.23398998E+04  d E =-.814826E-03  mag=     1.0000
       N       E                     dE             d eps       ncg     rms          rms(c)
DAV:   1    -0.231899790002E+04    0.10024E-01   -0.60883E-01  4488   0.803E-01    0.250E-01
RMM:   2    -0.231900820779E+04   -0.10308E-01   -0.10855E-01  6320   0.189E-01    0.162E-01
RMM:   3    -0.231900898816E+04   -0.78036E-03   -0.11155E-02  5888   0.671E-02    0.147E-01
RMM:   4    -0.231900875687E+04    0.23129E-03   -0.11182E-03  4429   0.159E-02    0.814E-02
RMM:   5    -0.231900874152E+04    0.15346E-04   -0.20436E-04  3349   0.901E-03    0.816E-02
RMM:   6    -0.231900866154E+04    0.79984E-04   -0.17484E-04  4244   0.905E-03    0.292E-02
RMM:   7    -0.231900865594E+04    0.55971E-05   -0.41756E-05  3093   0.614E-03
  70 F= -.23399004E+04 E0= -.23399004E+04  d E =-.600079E-03  mag=     1.0000
       N       E                     dE             d eps       ncg     rms          rms(c)
DAV:   1    -0.231900857152E+04    0.90014E-04   -0.48056E-03  5160   0.715E-02    0.217E-02
RMM:   2    -0.231900864916E+04   -0.77641E-04   -0.81791E-04  5576   0.177E-02    0.124E-02
RMM:   3    -0.231900865489E+04   -0.57281E-05   -0.86342E-05  2894   0.676E-03
  71 F= -.23399004E+04 E0= -.23399004E+04  d E =-.611228E-03  mag=     1.0000
       N       E                     dE             d eps       ncg     rms          rms(c)
DAV:   1    -0.231900375480E+04    0.48944E-02   -0.33264E-01  4496   0.597E-01    0.185E-01
RMM:   2    -0.231900900647E+04   -0.52517E-02   -0.55063E-02  6343   0.136E-01    0.127E-01
RMM:   3    -0.231900948740E+04   -0.48093E-03   -0.59233E-03  5677   0.483E-02    0.135E-01
RMM:   4    -0.231900928995E+04    0.19746E-03   -0.59485E-04  3591   0.120E-02    0.572E-02
RMM:   5    -0.231900927627E+04    0.13674E-04   -0.98297E-05  3021   0.684E-03    0.490E-02
RMM:   6    -0.231900924201E+04    0.34261E-04   -0.78769E-05  3188   0.692E-03    0.190E-02
RMM:   7    -0.231900923912E+04    0.28880E-05   -0.24469E-05  2981   0.525E-03
  72 F= -.23399009E+04 E0= -.23399009E+04  d E =-.514759E-03  mag=     1.0000
       N       E                     dE             d eps       ncg     rms          rms(c)
DAV:   1    -0.231900892637E+04    0.31564E-03   -0.19967E-02  4776   0.146E-01    0.466E-02
RMM:   2    -0.231900924901E+04   -0.32265E-03   -0.33943E-03  6284   0.349E-02    0.321E-02
RMM:   3    -0.231900927819E+04   -0.29179E-04   -0.35743E-04  3267   0.126E-02    0.337E-02
RMM:   4    -0.231900926614E+04    0.12052E-04   -0.38451E-05  2926   0.455E-03    0.147E-02
RMM:   5    -0.231900926544E+04    0.69854E-06   -0.70845E-06  2811   0.208E-03
  73 F= -.23399009E+04 E0= -.23399009E+04  d E =-.523870E-03  mag=     1.0000
       N       E                     dE             d eps       ncg     rms          rms(c)
DAV:   1    -0.231900516688E+04    0.40993E-02   -0.31525E-01  4496   0.585E-01    0.171E-01
RMM:   2    -0.231900976135E+04   -0.45945E-02   -0.48036E-02  6258   0.128E-01    0.125E-01
RMM:   3    -0.231901019435E+04   -0.43300E-03   -0.51037E-03  5621   0.454E-02    0.136E-01
RMM:   4    -0.231900999397E+04    0.20038E-03   -0.52301E-04  3459   0.113E-02    0.499E-02
RMM:   5    -0.231900998056E+04    0.13404E-04   -0.86178E-05  3088   0.698E-03    0.430E-02
RMM:   6    -0.231900995864E+04    0.21922E-04   -0.67794E-05  3067   0.675E-03    0.223E-02
RMM:   7    -0.231900995421E+04    0.44278E-05   -0.20553E-05  2921   0.534E-03
  74 F= -.23399015E+04 E0= -.23399015E+04  d E =-.546254E-03  mag=     1.0000
       N       E                     dE             d eps       ncg     rms          rms(c)
DAV:   1    -0.231900853078E+04    0.14279E-02   -0.10014E-01  4528   0.330E-01    0.984E-02
RMM:   2    -0.231901000772E+04   -0.14769E-02   -0.15420E-02  6429   0.731E-02    0.746E-02
RMM:   3    -0.231901014632E+04   -0.13860E-03   -0.16166E-03  4482   0.261E-02    0.814E-02
RMM:   4    -0.231901007457E+04    0.71752E-04   -0.16825E-04  3049   0.752E-03    0.277E-02
RMM:   5    -0.231901007120E+04    0.33698E-05   -0.28470E-05  2925   0.429E-03
  75 F= -.23399015E+04 E0= -.23399015E+04  d E =-.582412E-03  mag=     1.0000
       N       E                     dE             d eps       ncg     rms          rms(c)
DAV:   1    -0.231900729210E+04    0.27825E-02   -0.22717E-01  4492   0.497E-01    0.138E-01
RMM:   2    -0.231901048228E+04   -0.31902E-02   -0.33245E-02  6375   0.107E-01    0.107E-01
RMM:   3    -0.231901076319E+04   -0.28090E-03   -0.34034E-03  5320   0.372E-02    0.112E-01
RMM:   4    -0.231901062674E+04    0.13644E-03   -0.34366E-04  3246   0.967E-03    0.413E-02
RMM:   5    -0.231901061479E+04    0.11958E-04   -0.63660E-05  3023   0.638E-03    0.326E-02
RMM:   6    -0.231901060635E+04    0.84392E-05   -0.42921E-05  2949   0.576E-03
  76 F= -.23399019E+04 E0= -.23399019E+04  d E =-.427518E-03  mag=     1.0000
       N       E                     dE             d eps       ncg     rms          rms(c)
DAV:   1    -0.231900680613E+04    0.38087E-02   -0.27236E-01  4492   0.545E-01    0.154E-01
RMM:   2    -0.231901061124E+04   -0.38051E-02   -0.39950E-02  6368   0.118E-01    0.110E-01
RMM:   3    -0.231901099155E+04   -0.38030E-03   -0.42480E-03  5486   0.388E-02    0.127E-01
RMM:   4    -0.231901082401E+04    0.16754E-03   -0.42481E-04  3280   0.101E-02    0.443E-02
RMM:   5    -0.231901080846E+04    0.15548E-04   -0.65874E-05  3060   0.615E-03    0.341E-02
RMM:   6    -0.231901080043E+04    0.80319E-05   -0.54939E-05  2954   0.623E-03
  77 F= -.23399020E+04 E0= -.23399020E+04  d E =-.503030E-03  mag=     1.0000
       N       E                     dE             d eps       ncg     rms          rms(c)
DAV:   1    -0.231900790096E+04    0.29075E-02   -0.22997E-01  4492   0.505E-01    0.144E-01
RMM:   2    -0.231901099468E+04   -0.30937E-02   -0.32628E-02  6376   0.111E-01    0.907E-02
RMM:   3    -0.231901128488E+04   -0.29020E-03   -0.33967E-03  5429   0.381E-02    0.102E-01
RMM:   4    -0.231901117920E+04    0.10568E-03   -0.34698E-04  3231   0.960E-03    0.464E-02
RMM:   5    -0.231901116961E+04    0.95873E-05   -0.58938E-05  2986   0.593E-03
  78 F= -.23399024E+04 E0= -.23399024E+04  d E =-.394712E-03  mag=     1.0000
       N       E                     dE             d eps       ncg     rms          rms(c)
DAV:   1    -0.231901055257E+04    0.62663E-03   -0.42576E-02  4736   0.218E-01    0.628E-02
RMM:   2    -0.231901114326E+04   -0.59069E-03   -0.61215E-03  6429   0.478E-02    0.514E-02
RMM:   3    -0.231901118276E+04   -0.39500E-04   -0.68066E-04  3674   0.173E-02    0.435E-02
RMM:   4    -0.231901116048E+04    0.22285E-04   -0.61128E-05  2960   0.577E-03    0.195E-02
RMM:   5    -0.231901115670E+04    0.37798E-05   -0.20025E-05  2904   0.407E-03
  79 F= -.23399024E+04 E0= -.23399024E+04  d E =-.392657E-03  mag=     1.0000
       N       E                     dE             d eps       ncg     rms          rms(c)
DAV:   1    -0.231900937756E+04    0.17829E-02   -0.15545E-01  4496   0.420E-01    0.124E-01
RMM:   2    -0.231901138331E+04   -0.20057E-02   -0.21119E-02  6350   0.932E-02    0.755E-02
RMM:   3    -0.231901152356E+04   -0.14026E-03   -0.20974E-03  4986   0.322E-02    0.694E-02
RMM:   4    -0.231901146556E+04    0.58006E-04   -0.20880E-04  3074   0.839E-03    0.341E-02
RMM:   5    -0.231901146978E+04   -0.42199E-05   -0.51753E-05  3041   0.568E-03
  80 F= -.23399028E+04 E0= -.23399028E+04  d E =-.372067E-03  mag=     1.0000
       N       E                     dE             d eps       ncg     rms          rms(c)
DAV:   1    -0.231901122572E+04    0.23984E-03   -0.15666E-02  4912   0.133E-01    0.414E-02
RMM:   2    -0.231901143932E+04   -0.21360E-03   -0.21636E-03  6234   0.311E-02    0.401E-02
RMM:   3    -0.231901145234E+04   -0.13017E-04   -0.26615E-04  3151   0.116E-02    0.361E-02
RMM:   4    -0.231901144035E+04    0.11989E-04   -0.26930E-05  2912   0.434E-03    0.169E-02
RMM:   5    -0.231901143875E+04    0.16024E-05   -0.79768E-06  2833   0.223E-03
  81 F= -.23399028E+04 E0= -.23399028E+04  d E =-.359894E-03  mag=     1.0000
       N       E                     dE             d eps       ncg     rms          rms(c)
DAV:   1    -0.231901027305E+04    0.11673E-02   -0.11835E-01  4496   0.368E-01    0.105E-01
RMM:   2    -0.231901166068E+04   -0.13876E-02   -0.14569E-02  6221   0.787E-02    0.679E-02
RMM:   3    -0.231901174503E+04   -0.84352E-04   -0.13734E-03  4638   0.270E-02    0.657E-02
RMM:   4    -0.231901168961E+04    0.55419E-04   -0.14721E-04  3113   0.773E-03    0.328E-02
RMM:   5    -0.231901168935E+04    0.26010E-06   -0.38885E-05  2902   0.515E-03
  82 F= -.23399031E+04 E0= -.23399031E+04  d E =-.290279E-03  mag=     1.0000
       N       E                     dE             d eps       ncg     rms          rms(c)
DAV:   1    -0.231901139116E+04    0.29846E-03   -0.22236E-02  4688   0.160E-01    0.463E-02
RMM:   2    -0.231901165601E+04   -0.26485E-03   -0.27939E-03  6393   0.353E-02    0.329E-02
RMM:   3    -0.231901167267E+04   -0.16658E-04   -0.28708E-04  3205   0.120E-02    0.315E-02
RMM:   4    -0.231901166069E+04    0.11981E-04   -0.28777E-05  2916   0.461E-03    0.141E-02
RMM:   5    -0.231901166249E+04   -0.18049E-05   -0.11352E-05  2866   0.254E-03
  83 F= -.23399031E+04 E0= -.23399030E+04  d E =-.280750E-03  mag=     1.0000
       N       E                     dE             d eps       ncg     rms          rms(c)
DAV:   1    -0.231901065960E+04    0.10011E-02   -0.10261E-01  4492   0.342E-01    0.902E-02
RMM:   2    -0.231901176779E+04   -0.11082E-02   -0.11640E-02  6261   0.719E-02    0.591E-02
RMM:   3    -0.231901184055E+04   -0.72757E-04   -0.11426E-03  4245   0.242E-02    0.561E-02
RMM:   4    -0.231901180416E+04    0.36394E-04   -0.12033E-04  3063   0.725E-03    0.314E-02
RMM:   5    -0.231901180179E+04    0.23612E-05   -0.28420E-05  2899   0.427E-03
  84 F= -.23399033E+04 E0= -.23399033E+04  d E =-.226365E-03  mag=     1.0000
       N       E                     dE             d eps       ncg     rms          rms(c)
DAV:   1    -0.231901134310E+04    0.46105E-03   -0.36874E-02  4512   0.205E-01    0.544E-02
RMM:   2    -0.231901174403E+04   -0.40093E-03   -0.42166E-03  6368   0.430E-02    0.387E-02
RMM:   3    -0.231901176915E+04   -0.25114E-04   -0.43311E-04  3388   0.150E-02    0.345E-02
RMM:   4    -0.231901175431E+04    0.14839E-04   -0.42978E-05  2942   0.520E-03    0.161E-02
RMM:   5    -0.231901175543E+04   -0.11254E-05   -0.14889E-05  2902   0.308E-03
  85 F= -.23399033E+04 E0= -.23399033E+04  d E =-.232720E-03  mag=     1.0000
       N       E                     dE             d eps       ncg     rms          rms(c)
DAV:   1    -0.231901088666E+04    0.86764E-03   -0.10020E-01  4492   0.338E-01    0.932E-02
RMM:   2    -0.231901188396E+04   -0.99730E-03   -0.10515E-02  6206   0.694E-02    0.622E-02
RMM:   3    -0.231901195961E+04   -0.75651E-04   -0.10588E-03  4293   0.246E-02    0.673E-02
RMM:   4    -0.231901190813E+04    0.51477E-04   -0.11888E-04  3062   0.747E-03    0.322E-02
RMM:   5    -0.231901190554E+04    0.25985E-05   -0.33034E-05  2919   0.459E-03
  86 F= -.23399035E+04 E0= -.23399035E+04  d E =-.232032E-03  mag=     1.0000
       N       E                     dE             d eps       ncg     rms          rms(c)
DAV:   1    -0.231901180043E+04    0.10770E-03   -0.67689E-03  5120   0.884E-02    0.256E-02
RMM:   2    -0.231901187059E+04   -0.70155E-04   -0.74540E-04  5788   0.189E-02    0.190E-02
RMM:   3    -0.231901187481E+04   -0.42271E-05   -0.75306E-05  2895   0.687E-03
  87 F= -.23399035E+04 E0= -.23399035E+04  d E =-.223199E-03  mag=     1.0000
       N       E                     dE             d eps       ncg     rms          rms(c)
DAV:   1    -0.231901137157E+04    0.49901E-03   -0.61550E-02  4496   0.267E-01    0.779E-02
RMM:   2    -0.231901203264E+04   -0.66106E-03   -0.68190E-03  6152   0.562E-02    0.639E-02
RMM:   3    -0.231901207119E+04   -0.38550E-04   -0.68212E-04  3865   0.189E-02    0.619E-02
RMM:   4    -0.231901202700E+04    0.44188E-04   -0.82405E-05  2966   0.642E-03    0.268E-02
RMM:   5    -0.231901202537E+04    0.16236E-05   -0.27824E-05  2920   0.426E-03
  88 F= -.23399037E+04 E0= -.23399037E+04  d E =-.156724E-03  mag=     1.0000
       N       E                     dE             d eps       ncg     rms          rms(c)
DAV:   1    -0.231901200054E+04    0.26460E-04   -0.11194E-03  5528   0.371E-02    0.129E-02
RMM:   2    -0.231901201403E+04   -0.13494E-04   -0.14005E-04  4058   0.867E-03    0.120E-02
RMM:   3    -0.231901201364E+04    0.39286E-06   -0.15510E-05  2637   0.457E-03
  89 F= -.23399037E+04 E0= -.23399036E+04  d E =-.145862E-03  mag=     1.0000
       N       E                     dE             d eps       ncg     rms          rms(c)
DAV:   1    -0.231901167114E+04    0.34290E-03   -0.43936E-02  4480   0.228E-01    0.697E-02
RMM:   2    -0.231901217603E+04   -0.50490E-03   -0.51349E-03  6175   0.487E-02    0.601E-02
RMM:   3    -0.231901219780E+04   -0.21767E-04   -0.50556E-04  3673   0.170E-02    0.537E-02
RMM:   4    -0.231901216218E+04    0.35625E-04   -0.58299E-05  2939   0.574E-03    0.228E-02
RMM:   5    -0.231901216121E+04    0.97023E-06   -0.21167E-05  2879   0.382E-03
  90 F= -.23399038E+04 E0= -.23399038E+04  d E =-.138103E-03  mag=     1.0000
       N       E                     dE             d eps       ncg     rms          rms(c)
DAV:   1    -0.231901212035E+04    0.41822E-04   -0.29824E-03  5184   0.601E-02    0.195E-02
[...]
RMM:   3    -0.231901396665E+04   -0.18315E-05   -0.36894E-05  2852   0.578E-03
 152 F= -.23399056E+04 E0= -.23399056E+04  d E =-.231105E-04  mag=     1.0000
       N       E                     dE             d eps       ncg     rms          rms(c)
DAV:   1    -0.231901396352E+04    0.13005E-05   -0.11494E-04  5064   0.967E-03    0.101E-02
RMM:   2    -0.231901396888E+04   -0.53602E-05   -0.20478E-05  2588   0.304E-03
 153 F= -.23399056E+04 E0= -.23399056E+04  d E =-.284018E-04  mag=     1.0000
       N       E                     dE             d eps       ncg     rms          rms(c)
DAV:   1    -0.231901394712E+04    0.16402E-04   -0.35546E-03  4440   0.499E-02    0.199E-02
RMM:   2    -0.231901398165E+04   -0.34536E-04   -0.35614E-04  4628   0.118E-02    0.154E-02
RMM:   3    -0.231901398337E+04   -0.17119E-05   -0.32850E-05  2604   0.518E-03
 154 F= -.23399056E+04 E0= -.23399056E+04  d E =-.191394E-04  mag=     1.0000
       N       E                     dE             d eps       ncg     rms          rms(c)
DAV:   1    -0.231901397582E+04    0.58393E-05   -0.71897E-04  4368   0.225E-02    0.128E-02
RMM:   2    -0.231901398696E+04   -0.11143E-04   -0.79944E-05  3219   0.578E-03    0.209E-02
RMM:   3    -0.231901398286E+04    0.40939E-05   -0.11487E-05  2493   0.373E-03
 155 F= -.23399056E+04 E0= -.23399056E+04  d E =-.207429E-04  mag=     1.0000
       N       E                     dE             d eps       ncg     rms          rms(c)
DAV:   1    -0.231901399575E+04   -0.87887E-05   -0.31138E-03  4462   0.483E-02    0.201E-02
RMM:   2    -0.231901402831E+04   -0.32561E-04   -0.31792E-04  4597   0.112E-02    0.192E-02
RMM:   3    -0.231901402616E+04    0.21521E-05   -0.31771E-05  2762   0.518E-03
 156 F= -.23399057E+04 E0= -.23399057E+04  d E =-.294179E-04  mag=     1.0000
       N       E                     dE             d eps       ncg     rms          rms(c)
DAV:   1    -0.231901402111E+04    0.72012E-05   -0.24114E-03  4432   0.425E-02    0.181E-02
RMM:   2    -0.231901404446E+04   -0.23349E-04   -0.24779E-04  4252   0.102E-02    0.123E-02
RMM:   3    -0.231901404659E+04   -0.21378E-05   -0.25353E-05  2862   0.478E-03
 157 F= -.23399057E+04 E0= -.23399057E+04  d E =-.376115E-04  mag=     1.0000
       N       E                     dE             d eps       ncg     rms          rms(c)
DAV:   1    -0.231901404677E+04   -0.23132E-05   -0.39722E-03  4454   0.524E-02    0.215E-02
RMM:   2    -0.231901409046E+04   -0.43693E-04   -0.44494E-04  4786   0.131E-02    0.176E-02
RMM:   3    -0.231901409143E+04   -0.97096E-06   -0.43938E-05  2857   0.534E-03
 158 F= -.23399057E+04 E0= -.23399057E+04  d E =-.248057E-04  mag=     1.0000
       N       E                     dE             d eps       ncg     rms          rms(c)
DAV:   1    -0.231901409419E+04   -0.37322E-05   -0.60714E-04  4696   0.207E-02    0.130E-02
RMM:   2    -0.231901410669E+04   -0.12498E-04   -0.78707E-05  3314   0.552E-03    0.249E-02
RMM:   3    -0.231901410059E+04    0.61061E-05   -0.12064E-05  2441   0.359E-03
 159 F= -.23399057E+04 E0= -.23399057E+04  d E =-.261217E-04  mag=     1.0000
       N       E                     dE             d eps       ncg     rms          rms(c)
DAV:   1    -0.231901408602E+04    0.20672E-04   -0.44953E-03  4480   0.568E-02    0.235E-02
RMM:   2    -0.231901413492E+04   -0.48897E-04   -0.48468E-04  5029   0.135E-02    0.219E-02
RMM:   3    -0.231901413385E+04    0.10708E-05   -0.46120E-05  2823   0.565E-03
 160 F= -.23399057E+04 E0= -.23399057E+04  d E =-.267725E-04  mag=     1.0000
       N       E                     dE             d eps       ncg     rms          rms(c)
DAV:   1    -0.231901412487E+04    0.10048E-04   -0.13914E-03  4352   0.317E-02    0.158E-02
RMM:   2    -0.231901414189E+04   -0.17017E-04   -0.15741E-04  3850   0.796E-03    0.180E-02
RMM:   3    -0.231901413994E+04    0.19502E-05   -0.17268E-05  2748   0.405E-03
 161 F= -.23399057E+04 E0= -.23399057E+04  d E =-.292483E-04  mag=     1.0000
       N       E                     dE             d eps       ncg     rms          rms(c)
DAV:   1    -0.231901411758E+04    0.24303E-04   -0.43928E-03  4464   0.544E-02    0.239E-02
RMM:   2    -0.231901417122E+04   -0.53640E-04   -0.50033E-04  4942   0.134E-02    0.275E-02
RMM:   3    -0.231901416707E+04    0.41486E-05   -0.57100E-05  2884   0.584E-03
 162 F= -.23399057E+04 E0= -.23399057E+04  d E =-.247991E-04  mag=     1.0000
       N       E                     dE             d eps       ncg     rms          rms(c)
DAV:   1    -0.231901416450E+04    0.67243E-05   -0.31255E-04  5056   0.147E-02    0.137E-02
RMM:   2    -0.231901417607E+04   -0.11570E-04   -0.52953E-05  2933   0.424E-03    0.287E-02
RMM:   3    -0.231901416681E+04    0.92542E-05   -0.11610E-05  2366   0.326E-03
 163 F= -.23399057E+04 E0= -.23399057E+04  d E =-.239325E-04  mag=     1.0000
       N       E                     dE             d eps       ncg     rms          rms(c)
DAV:   1    -0.231901415764E+04    0.18428E-04   -0.43378E-03  4496   0.561E-02    0.237E-02
RMM:   2    -0.231901420668E+04   -0.49044E-04   -0.47574E-04  5031   0.132E-02    0.234E-02
RMM:   3    -0.231901420463E+04    0.20517E-05   -0.49440E-05  2788   0.575E-03
 164 F= -.23399058E+04 E0= -.23399058E+04  d E =-.307092E-04  mag=     1.0000
       N       E                     dE             d eps       ncg     rms          rms(c)
DAV:   1    -0.231901420165E+04    0.50386E-05   -0.58801E-04  4376   0.208E-02    0.140E-02
RMM:   2    -0.231901421503E+04   -0.13387E-04   -0.82412E-05  3246   0.551E-03    0.266E-02
RMM:   3    -0.231901420751E+04    0.75184E-05   -0.12196E-05  2503   0.355E-03
 165 F= -.23399058E+04 E0= -.23399058E+04  d E =-.309906E-04  mag=     1.0000
       N       E                     dE             d eps       ncg     rms          rms(c)
DAV:   1    -0.231901419999E+04    0.15044E-04   -0.43626E-03  4496   0.564E-02    0.235E-02
RMM:   2    -0.231901424560E+04   -0.45615E-04   -0.46309E-04  4974   0.131E-02    0.191E-02
RMM:   3    -0.231901424588E+04   -0.27791E-06   -0.47791E-05  2869   0.584E-03
 166 F= -.23399058E+04 E0= -.23399058E+04  d E =-.265903E-04  mag=     1.0000
       N       E                     dE             d eps       ncg     rms          rms(c)
DAV:   1    -0.231901424321E+04    0.23941E-05   -0.62947E-04  4736   0.217E-02    0.120E-02
RMM:   2    -0.231901425217E+04   -0.89613E-05   -0.75866E-05  3205   0.544E-03
 167 F= -.23399058E+04 E0= -.23399058E+04  d E =-.283923E-04  mag=     1.0000
       N       E                     dE             d eps       ncg     rms          rms(c)
DAV:   1    -0.231901422815E+04    0.15059E-04   -0.39226E-03  4480   0.511E-02    0.213E-02
RMM:   2    -0.231901426980E+04   -0.41651E-04   -0.42128E-04  4651   0.123E-02    0.187E-02
RMM:   3    -0.231901427352E+04   -0.37162E-05   -0.52635E-05  2778   0.570E-03
 168 F= -.23399058E+04 E0= -.23399058E+04  d E =-.205190E-04  mag=     1.0000
       N       E                     dE             d eps       ncg     rms          rms(c)
DAV:   1    -0.231901426770E+04    0.21065E-05   -0.47964E-04  4536   0.182E-02    0.105E-02
RMM:   2    -0.231901427380E+04   -0.61002E-05   -0.57291E-05  2972   0.466E-03
 169 F= -.23399058E+04 E0= -.23399058E+04  d E =-.205094E-04  mag=     1.0000
       N       E                     dE             d eps       ncg     rms          rms(c)
DAV:   1    -0.231901425510E+04    0.12593E-04   -0.32280E-03  4448   0.487E-02    0.204E-02
RMM:   2    -0.231901428722E+04   -0.32119E-04   -0.31867E-04  4464   0.116E-02    0.185E-02
RMM:   3    -0.231901428971E+04   -0.24899E-05   -0.42027E-05  2754   0.583E-03
 170 F= -.23399059E+04 E0= -.23399058E+04  d E =-.250872E-04  mag=     1.0000
       N       E                     dE             d eps       ncg     rms          rms(c)
DAV:   1    -0.231901428017E+04    0.70546E-05   -0.49908E-04  4512   0.192E-02    0.111E-02
RMM:   2    -0.231901428656E+04   -0.63980E-05   -0.54789E-05  3004   0.495E-03
 171 F= -.23399059E+04 E0= -.23399058E+04  d E =-.255514E-04  mag=     1.0000
       N       E                     dE             d eps       ncg     rms          rms(c)
DAV:   1    -0.231901427281E+04    0.73572E-05   -0.25472E-03  4384   0.413E-02    0.182E-02
RMM:   2    -0.231901430001E+04   -0.27203E-04   -0.26247E-04  4112   0.101E-02    0.192E-02
RMM:   3    -0.231901430032E+04   -0.30523E-06   -0.32115E-05  2676   0.508E-03
 172 F= -.23399059E+04 E0= -.23399059E+04  d E =-.149539E-04  mag=     1.0000
       N       E                     dE             d eps       ncg     rms          rms(c)
DAV:   1    -0.231901429374E+04    0.62716E-05   -0.77345E-04  4296   0.228E-02    0.115E-02
RMM:   2    -0.231901430222E+04   -0.84827E-05   -0.83414E-05  3128   0.575E-03
 173 F= -.23399059E+04 E0= -.23399059E+04  d E =-.175317E-04  mag=     1.0000
       N       E                     dE             d eps       ncg     rms          rms(c)
DAV:   1    -0.231901430823E+04   -0.14484E-04   -0.20987E-03  4376   0.391E-02    0.170E-02
RMM:   2    -0.231901433054E+04   -0.22318E-04   -0.21763E-04  4037   0.969E-03    0.157E-02
RMM:   3    -0.231901433067E+04   -0.13044E-06   -0.28007E-05  2604   0.528E-03
 174 F= -.23399059E+04 E0= -.23399059E+04  d E =-.207028E-04  mag=     1.0000
       N       E                     dE             d eps       ncg     rms          rms(c)
DAV:   1    -0.231901433073E+04   -0.19072E-06   -0.79366E-04  4312   0.240E-02    0.132E-02
RMM:   2    -0.231901434245E+04   -0.11712E-04   -0.87627E-05  3282   0.620E-03    0.211E-02
RMM:   3    -0.231901433836E+04    0.40912E-05   -0.11403E-05  2512   0.377E-03
 175 F= -.23399059E+04 E0= -.23399059E+04  d E =-.236017E-04  mag=     1.0000
       N       E                     dE             d eps       ncg     rms          rms(c)
DAV:   1    -0.231901433344E+04    0.90084E-05   -0.21031E-03  4382   0.397E-02    0.170E-02
RMM:   2    -0.231901435544E+04   -0.22000E-04   -0.22190E-04  4170   0.963E-03    0.146E-02
RMM:   3    -0.231901435494E+04    0.49883E-06   -0.24210E-05  2673   0.491E-03
 176 F= -.23399059E+04 E0= -.23399059E+04  d E =-.154803E-04  mag=     1.0000
       N       E                     dE             d eps       ncg     rms          rms(c)
DAV:   1    -0.231901435355E+04    0.18868E-05   -0.34485E-05  4312   0.586E-03    0.534E-03
RMM:   2    -0.231901435425E+04   -0.69427E-06   -0.58735E-06  2336   0.245E-03
 177 F= -.23399059E+04 E0= -.23399059E+04  d E =-.146452E-04  mag=     1.0000
       N       E                     dE             d eps       ncg     rms          rms(c)
DAV:   1    -0.231901434846E+04    0.50882E-05   -0.20494E-03  4400   0.386E-02    0.157E-02
RMM:   2    -0.231901437037E+04   -0.21911E-04   -0.22951E-04  4188   0.940E-03    0.124E-02
RMM:   3    -0.231901437220E+04   -0.18302E-05   -0.24336E-05  2425   0.456E-03
 178 F= -.23399059E+04 E0= -.23399059E+04  d E =-.138094E-04  mag=     1.0000
       N       E                     dE             d eps       ncg     rms          rms(c)
DAV:   1    -0.231901437087E+04   -0.49453E-06   -0.13837E-04  4992   0.103E-02    0.735E-03
RMM:   2    -0.231901437361E+04   -0.27457E-05   -0.18993E-05  2509   0.294E-03
 179 F= -.23399059E+04 E0= -.23399059E+04  d E =-.141633E-04  mag=     1.0000
       N       E                     dE             d eps       ncg     rms          rms(c)
DAV:   1    -0.231901438070E+04   -0.98301E-05   -0.13829E-03  4320   0.332E-02    0.136E-02
RMM:   2    -0.231901439375E+04   -0.13048E-04   -0.13492E-04  3636   0.801E-03    0.107E-02
RMM:   3    -0.231901439522E+04   -0.14693E-05   -0.17168E-05  2410   0.462E-03
 180 F= -.23399059E+04 E0= -.23399059E+04  d E =-.122863E-04  mag=     1.0000
       N       E                     dE             d eps       ncg     rms          rms(c)
DAV:   1    -0.231901439454E+04   -0.79801E-06   -0.19055E-05  3192   0.431E-03    0.494E-03
RMM:   2    -0.231901439531E+04   -0.76924E-06   -0.35408E-06  2225   0.222E-03
 181 F= -.23399059E+04 E0= -.23399059E+04  d E =-.115001E-04  mag=     1.0000
       N       E                     dE             d eps       ncg     rms          rms(c)
DAV:   1    -0.231901440479E+04   -0.10246E-04   -0.14173E-03  4336   0.330E-02    0.130E-02
RMM:   2    -0.231901441683E+04   -0.12036E-04   -0.13195E-04  3518   0.736E-03    0.722E-03
RMM:   3    -0.231901441778E+04   -0.95098E-06   -0.14944E-05  2408   0.427E-03
 182 F= -.23399059E+04 E0= -.23399059E+04  d E =-.106932E-04  mag=     1.0000
       N       E                     dE             d eps       ncg     rms          rms(c)
DAV:   1    -0.231901441966E+04   -0.28297E-05   -0.60757E-05  4672   0.713E-03    0.581E-03
RMM:   2    -0.231901442143E+04   -0.17706E-05   -0.87068E-06  2351   0.222E-03
 183 F= -.23399059E+04 E0= -.23399059E+04  d E =-.119013E-04  mag=     1.0000
       N       E                     dE             d eps       ncg     rms          rms(c)
DAV:   1    -0.231901442210E+04   -0.24478E-05   -0.12904E-03  4264   0.296E-02    0.121E-02
RMM:   2    -0.231901443500E+04   -0.12896E-04   -0.13047E-04  3424   0.718E-03    0.108E-02
RMM:   3    -0.231901443582E+04   -0.82221E-06   -0.16902E-05  2341   0.426E-03
 184 F= -.23399060E+04 E0= -.23399059E+04  d E =-.912047E-05  mag=     1.0000
       N       E                     dE             d eps       ncg     rms          rms(c)
DAV:   1    -0.231901443612E+04   -0.11195E-05   -0.17655E-04  4408   0.111E-02    0.683E-03
RMM:   2    -0.231901443869E+04   -0.25740E-05   -0.20471E-05  2492   0.303E-03
 185 F= -.23399060E+04 E0= -.23399060E+04  d E =-.100423E-04  mag=     1.0000
       N       E                     dE             d eps       ncg     rms          rms(c)
DAV:   1    -0.231901443486E+04    0.12620E-05   -0.13259E-03  4264   0.303E-02    0.121E-02
RMM:   2    -0.231901444664E+04   -0.11780E-04   -0.12536E-04  3476   0.734E-03    0.755E-03
RMM:   3    -0.231901444760E+04   -0.95800E-06   -0.14730E-05  2337   0.426E-03
 186 F= -.23399060E+04 E0= -.23399060E+04  d E =-.132753E-04  mag=     1.0000
       N       E                     dE             d eps       ncg     rms          rms(c)
DAV:   1    -0.231901444266E+04    0.39810E-05   -0.46743E-04  4216   0.180E-02    0.926E-03
RMM:   2    -0.231901444869E+04   -0.60339E-05   -0.47685E-05  2852   0.451E-03
 187 F= -.23399060E+04 E0= -.23399060E+04  d E =-.169971E-04  mag=     1.0000
       N       E                     dE             d eps       ncg     rms          rms(c)
DAV:   1    -0.231901444596E+04   -0.33035E-05   -0.14875E-03  4272   0.316E-02    0.139E-02
RMM:   2    -0.231901446199E+04   -0.16024E-04   -0.14827E-04  3660   0.784E-03    0.167E-02
RMM:   3    -0.231901446101E+04    0.97556E-06   -0.17943E-05  2513   0.449E-03
 188 F= -.23399060E+04 E0= -.23399060E+04  d E =-.101222E-04  mag=     1.0000
       N       E                     dE             d eps       ncg     rms          rms(c)
DAV:   1    -0.231901446064E+04    0.13418E-05   -0.24502E-04  4840   0.129E-02    0.738E-03
RMM:   2    -0.231901446324E+04   -0.25989E-05   -0.24799E-05  2566   0.338E-03
 189 F= -.23399060E+04 E0= -.23399060E+04  d E =-.114616E-04  mag=     1.0000
       N       E                     dE             d eps       ncg     rms          rms(c)
DAV:   1    -0.231901447448E+04   -0.13839E-04   -0.16844E-03  4320   0.338E-02    0.140E-02
RMM:   2    -0.231901449090E+04   -0.16419E-04   -0.16773E-04  3741   0.845E-03    0.109E-02
RMM:   3    -0.231901449127E+04   -0.36464E-06   -0.17885E-05  2398   0.446E-03
 190 F= -.23399060E+04 E0= -.23399060E+04  d E =-.142693E-04  mag=     1.0000
       N       E                     dE             d eps       ncg     rms          rms(c)
DAV:   1    -0.231901449564E+04   -0.47378E-05   -0.79187E-04  4224   0.232E-02    0.102E-02
RMM:   2    -0.231901450285E+04   -0.72111E-05   -0.78301E-05  3166   0.584E-03
 191 F= -.23399060E+04 E0= -.23399060E+04  d E =-.163742E-04  mag=     1.0000
       N       E                     dE             d eps       ncg     rms          rms(c)
DAV:   1    -0.231901450949E+04   -0.13851E-04   -0.14994E-03  4256   0.317E-02    0.142E-02
RMM:   2    -0.231901452800E+04   -0.18508E-04   -0.16176E-04  3853   0.802E-03    0.201E-02
RMM:   3    -0.231901452538E+04    0.26236E-05   -0.19459E-05  2559   0.442E-03
 192 F= -.23399060E+04 E0= -.23399060E+04  d E =-.126492E-04  mag=     1.0000
       N       E                     dE             d eps       ncg     rms          rms(c)
DAV:   1    -0.231901452825E+04   -0.25368E-06   -0.56591E-04  4360   0.195E-02    0.947E-03
RMM:   2    -0.231901453417E+04   -0.59221E-05   -0.59236E-05  3003   0.493E-03
 193 F= -.23399060E+04 E0= -.23399060E+04  d E =-.153502E-04  mag=     1.0000
       N       E                     dE             d eps       ncg     rms          rms(c)
DAV:   1    -0.231901453806E+04   -0.98123E-05   -0.13294E-03  4256   0.300E-02    0.136E-02
RMM:   2    -0.231901455336E+04   -0.15292E-04   -0.14625E-04  3793   0.789E-03    0.136E-02
RMM:   3    -0.231901455227E+04    0.10852E-05   -0.17483E-05  2446   0.443E-03
 194 F= -.23399060E+04 E0= -.23399060E+04  d E =-.155707E-04  mag=     1.0000
       N       E                     dE             d eps       ncg     rms          rms(c)
DAV:   1    -0.231901455136E+04    0.19978E-05   -0.60058E-04  4216   0.201E-02    0.962E-03
RMM:   2    -0.231901455779E+04   -0.64351E-05   -0.63615E-05  3054   0.527E-03
 195 F= -.23399060E+04 E0= -.23399060E+04  d E =-.193866E-04  mag=     1.0000
       N       E                     dE             d eps       ncg     rms          rms(c)
DAV:   1    -0.231901456100E+04   -0.96436E-05   -0.94070E-04  4240   0.264E-02    0.128E-02
RMM:   2    -0.231901457440E+04   -0.13396E-04   -0.10881E-04  3498   0.684E-03    0.196E-02
RMM:   3    -0.231901457129E+04    0.31102E-05   -0.13991E-05  2409   0.415E-03
 196 F= -.23399060E+04 E0= -.23399060E+04  d E =-.111467E-04  mag=     1.0000
       N       E                     dE             d eps       ncg     rms          rms(c)
DAV:   1    -0.231901457198E+04    0.24191E-05   -0.92330E-05  4744   0.847E-03    0.607E-03
RMM:   2    -0.231901457373E+04   -0.17484E-05   -0.12942E-05  2449   0.260E-03
 197 F= -.23399060E+04 E0= -.23399060E+04  d E =-.128442E-04  mag=     1.0000
       N       E                     dE             d eps       ncg     rms          rms(c)
DAV:   1    -0.231901457150E+04    0.47902E-06   -0.37408E-04  4176   0.168E-02    0.785E-03
RMM:   2    -0.231901457547E+04   -0.39681E-05   -0.40216E-05  2643   0.437E-03
 198 F= -.23399060E+04 E0= -.23399060E+04  d E =-.131058E-04  mag=     1.0000
       N       E                     dE             d eps       ncg     rms          rms(c)
DAV:   1    -0.231901457069E+04    0.80804E-06   -0.10283E-03  4208   0.269E-02    0.127E-02
RMM:   2    -0.231901458564E+04   -0.14949E-04   -0.12678E-04  3489   0.726E-03    0.185E-02
RMM:   3    -0.231901458289E+04    0.27538E-05   -0.16682E-05  2383   0.426E-03
 199 F= -.23399061E+04 E0= -.23399061E+04  d E =-.100729E-04  mag=     1.0000
       N       E                     dE             d eps       ncg     rms          rms(c)
DAV:   1    -0.231901456738E+04    0.18257E-04   -0.16529E-03  4352   0.336E-02    0.147E-02
RMM:   2    -0.231901458562E+04   -0.18234E-04   -0.18378E-04  3766   0.820E-03    0.127E-02
RMM:   3    -0.231901458585E+04   -0.23174E-06   -0.21682E-05  2580   0.454E-03
 200 F= -.23399061E+04 E0= -.23399061E+04  d E =-.164135E-04  mag=     1.0000
       N       E                     dE             d eps       ncg     rms          rms(c)
DAV:   1    -0.231901458724E+04   -0.16201E-05   -0.11388E-03  4288   0.284E-02    0.127E-02
RMM:   2    -0.231901460204E+04   -0.14802E-04   -0.13695E-04  3630   0.734E-03    0.154E-02
RMM:   3    -0.231901460138E+04    0.66326E-06   -0.18656E-05  2465   0.427E-03
 201 F= -.23399061E+04 E0= -.23399061E+04  d E =-.154523E-04  mag=     1.0000
