       N       E                     dE             d eps       ncg     rms          rms(c)
DAV:   1     0.124535427208E+05    0.12454E+05   -0.83999E+05  4640   0.142E+03
DAV:   2    -0.124850995942E+04   -0.13702E+05   -0.13163E+05  5040   0.322E+02
DAV:   3    -0.249133706210E+04   -0.12428E+04   -0.12322E+04  5440   0.104E+02
DAV:   4    -0.251956190012E+04   -0.28225E+02   -0.28042E+02  5600   0.195E+01
DAV:   5    -0.252048930023E+04   -0.92740E+00   -0.92574E+00  5840   0.295E+00    0.170E+02
RMM:   6    -0.148864650478E+04    0.10318E+04   -0.19040E+03  4503   0.376E+01    0.725E+01
RMM:   7    -0.166593390072E+04   -0.17729E+03   -0.27993E+02  5131   0.141E+01    0.543E+01
RMM:   8    -0.171106640746E+04   -0.45133E+02   -0.88116E+01  5368   0.834E+00    0.426E+01
RMM:   9    -0.178589188445E+04   -0.74825E+02   -0.61713E+01  5121   0.760E+00    0.317E+01
RMM:  10    -0.190653218000E+04   -0.12064E+03   -0.56595E+01  5534   0.695E+00    0.303E+01
RMM:  11    -0.197893721341E+04   -0.72405E+02   -0.30032E+01  5486   0.467E+00    0.181E+01
RMM:  12    -0.208379818941E+04   -0.10486E+03   -0.49470E+01  4738   0.521E+00    0.137E+01
RMM:  13    -0.220584856341E+04   -0.12205E+03   -0.89484E+01  4527   0.687E+00    0.979E+00
RMM:  14    -0.226212363033E+04   -0.56275E+02   -0.41416E+01  4820   0.498E+00    0.611E+00
RMM:  15    -0.230430740941E+04   -0.42184E+02   -0.42993E+01  4544   0.435E+00    0.593E+00
RMM:  16    -0.230649911051E+04   -0.21917E+01   -0.44032E+00  4691   0.247E+00    0.464E+00
RMM:  17    -0.230964826775E+04   -0.31492E+01   -0.29274E+00  4551   0.963E-01    0.290E+00
RMM:  18    -0.231252966591E+04   -0.28814E+01   -0.18651E+00  4523   0.103E+00    0.154E+00
RMM:  19    -0.231319087246E+04   -0.66121E+00   -0.52889E-01  5038   0.478E-01    0.967E-01
RMM:  20    -0.231340051204E+04   -0.20964E+00   -0.18917E-01  4806   0.200E-01    0.634E-01
RMM:  21    -0.231355049003E+04   -0.14998E+00   -0.11745E-01  4604   0.187E-01    0.472E-01
RMM:  22    -0.231358250610E+04   -0.32016E-01   -0.26364E-02  4980   0.112E-01    0.291E-01
RMM:  23    -0.231359891806E+04   -0.16412E-01   -0.63324E-03  5110   0.467E-02    0.197E-01
RMM:  24    -0.231362855610E+04   -0.29638E-01   -0.67749E-03  4493   0.553E-02    0.123E-01
RMM:  25    -0.231364456202E+04   -0.16006E-01   -0.39445E-03  4639   0.440E-02    0.835E-02
RMM:  26    -0.231365579936E+04   -0.11237E-01   -0.22729E-03  4582   0.366E-02    0.606E-02
RMM:  27    -0.231366348816E+04   -0.76888E-02   -0.19995E-03  4540   0.307E-02    0.379E-02
RMM:  28    -0.231366628680E+04   -0.27986E-02   -0.82194E-04  4391   0.234E-02    0.210E-02
RMM:  29    -0.231366744908E+04   -0.11623E-02   -0.37949E-04  4239   0.120E-02    0.104E-02
RMM:  30    -0.231366777929E+04   -0.33021E-03   -0.85172E-05  3760   0.930E-03    0.710E-03
RMM:  31    -0.231366791604E+04   -0.13675E-03   -0.35376E-05  3358   0.417E-03    0.389E-03
RMM:  32    -0.231366797313E+04   -0.57084E-04   -0.10849E-05  2962   0.367E-03    0.193E-03
RMM:  33    -0.231366799441E+04   -0.21287E-04   -0.58551E-06  2849   0.248E-03    0.137E-03
RMM:  34    -0.231366800492E+04   -0.10507E-04   -0.34573E-06  2533   0.210E-03    0.725E-04
RMM:  35    -0.231366800746E+04   -0.25380E-05   -0.18504E-06  2397   0.162E-03
   1 F= -.23344855E+04 E0= -.23344854E+04  d E =-.159163E-03  mag=     4.0000
       N       E                     dE             d eps       ncg     rms          rms(c)
DAV:   1    -0.231363928503E+04    0.28720E-01   -0.20642E+00  4480   0.760E-01    0.416E-01
RMM:   2    -0.231364054968E+04   -0.12647E-02   -0.12974E-02  4705   0.540E-02    0.379E-01
RMM:   3    -0.231363977517E+04    0.77451E-03   -0.40631E-03  5484   0.312E-02    0.332E-01
RMM:   4    -0.231363870570E+04    0.10695E-02   -0.16566E-03  4765   0.176E-02    0.105E-01
RMM:   5    -0.231363873082E+04   -0.25118E-04   -0.55303E-04  4145   0.116E-02    0.751E-02
RMM:   6    -0.231363876118E+04   -0.30357E-04   -0.12245E-04  3046   0.595E-03    0.535E-02
RMM:   7    -0.231363878301E+04   -0.21829E-04   -0.86439E-05  2873   0.447E-03    0.713E-02
RMM:   8    -0.231363873538E+04    0.47623E-04   -0.58580E-05  2851   0.399E-03    0.165E-02
RMM:   9    -0.231363873675E+04   -0.13688E-05   -0.71246E-06  2682   0.218E-03
   2 F= -.23344564E+04 E0= -.23344563E+04  d E =-.271673E-03  mag=     4.0000
       N       E                     dE             d eps       ncg     rms          rms(c)
DAV:   1    -0.231367876276E+04   -0.40027E-01   -0.81895E+00  4480   0.150E+00    0.829E-01
RMM:   2    -0.231368356516E+04   -0.48024E-02   -0.48646E-02  4755   0.109E-01    0.754E-01
RMM:   3    -0.231368046554E+04    0.30996E-02   -0.15951E-02  5848   0.636E-02    0.643E-01
RMM:   4    -0.231367617073E+04    0.42948E-02   -0.64155E-03  5430   0.352E-02    0.191E-01
RMM:   5    -0.231367659385E+04   -0.42312E-03   -0.20698E-03  4942   0.215E-02    0.192E-01
RMM:   6    -0.231367652918E+04    0.64676E-04   -0.90709E-04  3953   0.123E-02    0.144E-01
RMM:   7    -0.231367634135E+04    0.18783E-03   -0.20057E-04  3265   0.735E-03    0.614E-02
RMM:   8    -0.231367633121E+04    0.10136E-04   -0.14242E-04  3107   0.566E-03    0.398E-02
RMM:   9    -0.231367632333E+04    0.78796E-05   -0.20169E-05  2860   0.370E-03
   3 F= -.23344936E+04 E0= -.23344936E+04  d E =-.768080E-04  mag=     4.0000
       N       E                     dE             d eps       ncg     rms          rms(c)
DAV:   1    -0.231364711750E+04    0.29214E-01   -0.38025E+00  4480   0.114E+00    0.598E-01
RMM:   2    -0.231365037067E+04   -0.32532E-02   -0.27536E-02  4950   0.884E-02    0.567E-01
RMM:   3    -0.231364837828E+04    0.19924E-02   -0.72866E-03  5584   0.457E-02    0.460E-01
RMM:   4    -0.231364630681E+04    0.20715E-02   -0.42008E-03  5294   0.285E-02    0.180E-01
RMM:   5    -0.231364651496E+04   -0.20816E-03   -0.16638E-03  4782   0.188E-02    0.196E-01
RMM:   6    -0.231364651628E+04   -0.13155E-05   -0.83593E-04  3766   0.115E-02    0.132E-01
RMM:   7    -0.231364639311E+04    0.12316E-03   -0.19949E-04  3135   0.684E-03    0.677E-02
RMM:   8    -0.231364636687E+04    0.26242E-04   -0.16117E-04  3113   0.604E-03    0.275E-02
RMM:   9    -0.231364636719E+04   -0.31726E-06   -0.17686E-05  2882   0.364E-03
   4 F= -.23344638E+04 E0= -.23344637E+04  d E =-.209438E-03  mag=     4.0000
       N       E                     dE             d eps       ncg     rms          rms(c)
DAV:   1    -0.231367143987E+04   -0.25073E-01   -0.75787E+00  4480   0.159E+00    0.668E-01
RMM:   2    -0.231367391482E+04   -0.24750E-02   -0.45219E-02  4649   0.117E-01    0.512E-01
RMM:   3    -0.231367375203E+04    0.16278E-03   -0.93773E-03  5475   0.613E-02    0.563E-01
RMM:   4    -0.231367069274E+04    0.30593E-02   -0.66491E-03  5738   0.375E-02    0.237E-01
RMM:   5    -0.231367091688E+04   -0.22415E-03   -0.21542E-03  4934   0.224E-02    0.241E-01
RMM:   6    -0.231367059436E+04    0.32252E-03   -0.91508E-04  3783   0.122E-02    0.131E-01
RMM:   7    -0.231367048647E+04    0.10789E-03   -0.19571E-04  3143   0.736E-03    0.657E-02
RMM:   8    -0.231367045062E+04    0.35847E-04   -0.12111E-04  3077   0.597E-03    0.190E-02
RMM:   9    -0.231367045359E+04   -0.29627E-05   -0.16697E-05  2895   0.393E-03
   5 F= -.23344880E+04 E0= -.23344879E+04  d E =-.104477E-03  mag=     4.0000
       N       E                     dE             d eps       ncg     rms          rms(c)
DAV:   1    -0.231370542913E+04   -0.34979E-01   -0.39505E+00  4480   0.111E+00    0.449E-01
RMM:   2    -0.231370682952E+04   -0.14004E-02   -0.23533E-02  4544   0.814E-02    0.463E-01
RMM:   3    -0.231370516175E+04    0.16678E-02   -0.49677E-03  5631   0.395E-02    0.328E-01
RMM:   4    -0.231370426560E+04    0.89615E-03   -0.22253E-03  5177   0.221E-02    0.168E-01
RMM:   5    -0.231370412680E+04    0.13880E-03   -0.78280E-04  3682   0.141E-02    0.116E-01
RMM:   6    -0.231370401689E+04    0.10991E-03   -0.12886E-04  3115   0.653E-03    0.328E-02
RMM:   7    -0.231370401466E+04    0.22252E-05   -0.30328E-05  2900   0.377E-03
   6 F= -.23345214E+04 E0= -.23345213E+04  d E =-.188898E-03  mag=     4.0000
       N       E                     dE             d eps       ncg     rms          rms(c)
DAV:   1    -0.231360793652E+04    0.96080E-01   -0.79186E+00  4480   0.160E+00    0.696E-01
RMM:   2    -0.231360972192E+04   -0.17854E-02   -0.42661E-02  4655   0.108E-01    0.647E-01
RMM:   3    -0.231360747853E+04    0.22434E-02   -0.11734E-02  6112   0.551E-02    0.535E-01
RMM:   4    -0.231360474474E+04    0.27338E-02   -0.50378E-03  5369   0.318E-02    0.201E-01
RMM:   5    -0.231360502423E+04   -0.27950E-03   -0.17661E-03  4521   0.201E-02    0.243E-01
RMM:   6    -0.231360453466E+04    0.48957E-03   -0.70080E-04  4144   0.115E-02    0.743E-02
RMM:   7    -0.231360451541E+04    0.19253E-04   -0.10463E-04  3085   0.551E-03    0.479E-02
RMM:   8    -0.231360449159E+04    0.23817E-04   -0.70333E-05  3038   0.423E-03    0.168E-02
RMM:   9    -0.231360449889E+04   -0.72971E-05   -0.10552E-05  2810   0.281E-03
   7 F= -.23344221E+04 E0= -.23344221E+04  d E =-.135960E-03  mag=     4.0000
       N       E                     dE             d eps       ncg     rms          rms(c)
DAV:   1    -0.231364361782E+04   -0.39126E-01   -0.70730E+00  4480   0.150E+00    0.538E-01
RMM:   2    -0.231364498894E+04   -0.13711E-02   -0.38938E-02  4449   0.109E-01    0.336E-01
RMM:   3    -0.231364527955E+04   -0.29060E-03   -0.53936E-03  5324   0.455E-02    0.436E-01
RMM:   4    -0.231364356207E+04    0.17175E-02   -0.33844E-03  5287   0.254E-02    0.177E-01
RMM:   5    -0.231364338044E+04    0.18163E-03   -0.66371E-04  4215   0.133E-02    0.785E-02
RMM:   6    -0.231364341190E+04   -0.31462E-04   -0.20134E-04  3141   0.785E-03    0.830E-02
RMM:   7    -0.231364336843E+04    0.43475E-04   -0.54718E-05  2944   0.452E-03    0.430E-02
RMM:   8    -0.231364335404E+04    0.14384E-04   -0.51646E-05  2931   0.363E-03    0.181E-02
RMM:   9    -0.231364335486E+04   -0.81680E-06   -0.10456E-05  2805   0.271E-03
   8 F= -.23344612E+04 E0= -.23344612E+04  d E =-.167458E-03  mag=     4.0000
       N       E                     dE             d eps       ncg     rms          rms(c)
DAV:   1    -0.231367251972E+04   -0.29166E-01   -0.20425E+01  4480   0.252E+00    0.856E-01
RMM:   2    -0.231367367748E+04   -0.11578E-02   -0.95428E-02  4625   0.155E-01    0.543E-01
RMM:   3    -0.231367538022E+04   -0.17027E-02   -0.17112E-02  5528   0.836E-02    0.707E-01
RMM:   4    -0.231366983734E+04    0.55429E-02   -0.63102E-03  5752   0.385E-02    0.201E-01
RMM:   5    -0.231366993819E+04   -0.10085E-03   -0.17120E-03  4770   0.212E-02    0.154E-01
RMM:   6    -0.231366987692E+04    0.61269E-04   -0.53055E-04  3415   0.113E-02    0.102E-01
RMM:   7    -0.231366980796E+04    0.68955E-04   -0.98266E-05  3132   0.608E-03    0.533E-02
RMM:   8    -0.231366979205E+04    0.15909E-04   -0.77762E-05  2970   0.442E-03    0.300E-02
RMM:   9    -0.231366978822E+04    0.38355E-05   -0.24108E-05  2893   0.368E-03
   9 F= -.23344869E+04 E0= -.23344868E+04  d E =-.151608E-03  mag=     4.0000
       N       E                     dE             d eps       ncg     rms          rms(c)
DAV:   1    -0.231366067994E+04    0.91121E-02   -0.10125E+01  4480   0.177E+00    0.587E-01
RMM:   2    -0.231366172599E+04   -0.10461E-02   -0.46419E-02  4657   0.116E-01    0.415E-01
RMM:   3    -0.231366220965E+04   -0.48366E-03   -0.87101E-03  5966   0.503E-02    0.511E-01
RMM:   4    -0.231365928149E+04    0.29282E-02   -0.38710E-03  5520   0.302E-02    0.128E-01
RMM:   5    -0.231365944279E+04   -0.16130E-03   -0.95657E-04  4466   0.161E-02    0.150E-01
RMM:   6    -0.231365924076E+04    0.20203E-03   -0.31262E-04  3152   0.830E-03    0.503E-02
RMM:   7    -0.231365922326E+04    0.17506E-04   -0.49477E-05  2986   0.468E-03    0.234E-02
RMM:   8    -0.231365922018E+04    0.30713E-05   -0.19891E-05  2929   0.323E-03
  10 F= -.23344762E+04 E0= -.23344761E+04  d E =-.149197E-03  mag=     4.0000
       N       E                     dE             d eps       ncg     rms          rms(c)
DAV:   1    -0.231365016734E+04    0.90559E-02   -0.19995E+01  4640   0.245E+00    0.847E-01
RMM:   2    -0.231365581004E+04   -0.56427E-02   -0.12985E-01  4612   0.210E-01    0.467E-01
RMM:   3    -0.231365610265E+04   -0.29262E-03   -0.17187E-02  5731   0.104E-01    0.648E-01
RMM:   4    -0.231365138440E+04    0.47183E-02   -0.75789E-03  5999   0.434E-02    0.175E-01
RMM:   5    -0.231365126444E+04    0.11996E-03   -0.98500E-04  4782   0.186E-02    0.116E-01
RMM:   6    -0.231365120318E+04    0.61260E-04   -0.35840E-04  3306   0.961E-03    0.922E-02
RMM:   7    -0.231365112697E+04    0.76212E-04   -0.10364E-04  3195   0.681E-03    0.278E-02
RMM:   8    -0.231365112052E+04    0.64496E-05   -0.41573E-05  3068   0.479E-03
  11 F= -.23344691E+04 E0= -.23344690E+04  d E =-.175475E-03  mag=     4.0000
       N       E                     dE             d eps       ncg     rms          rms(c)
DAV:   1    -0.231364971719E+04    0.14098E-02   -0.10333E+01  4480   0.180E+00    0.443E-01
RMM:   2    -0.231365262086E+04   -0.29037E-02   -0.42647E-02  4460   0.118E-01    0.274E-01
RMM:   3    -0.231365292583E+04   -0.30497E-03   -0.46863E-03  5993   0.445E-02    0.402E-01
RMM:   4    -0.231365115875E+04    0.17671E-02   -0.22526E-03  5427   0.233E-02    0.119E-01
RMM:   5    -0.231365120333E+04   -0.44580E-04   -0.57885E-04  4034   0.128E-02    0.118E-01
RMM:   6    -0.231365106950E+04    0.13384E-03   -0.18367E-04  3093   0.780E-03    0.351E-02
RMM:   7    -0.231365105939E+04    0.10112E-04   -0.23964E-05  2944   0.407E-03    0.134E-02
RMM:   8    -0.231365105782E+04    0.15638E-05   -0.93184E-06  2899   0.275E-03
  12 F= -.23344685E+04 E0= -.23344684E+04  d E =-.214223E-03  mag=     4.0000
       N       E                     dE             d eps       ncg     rms          rms(c)
DAV:   1    -0.231367454223E+04   -0.23483E-01   -0.20452E+01  4480   0.260E+00    0.617E-01
RMM:   2    -0.231367848840E+04   -0.39462E-02   -0.78669E-02  4451   0.164E-01    0.377E-01
RMM:   3    -0.231367947660E+04   -0.98820E-03   -0.10059E-02  5544   0.691E-02    0.553E-01
RMM:   4    -0.231367645070E+04    0.30259E-02   -0.48306E-03  5594   0.330E-02    0.158E-01
RMM:   5    -0.231367639933E+04    0.51372E-04   -0.58204E-04  3700   0.151E-02    0.652E-02
RMM:   6    -0.231367640877E+04   -0.94331E-05   -0.16027E-04  3173   0.821E-03    0.584E-02
RMM:   7    -0.231367637790E+04    0.30862E-04   -0.55476E-05  2961   0.471E-03    0.322E-02
RMM:   8    -0.231367637092E+04    0.69803E-05   -0.28306E-05  2938   0.349E-03
  13 F= -.23344939E+04 E0= -.23344939E+04  d E =-.118288E-03  mag=     4.0000
       N       E                     dE             d eps       ncg     rms          rms(c)
DAV:   1    -0.231366812342E+04    0.82545E-02   -0.54442E+00  4480   0.137E+00    0.403E-01
RMM:   2    -0.231366809351E+04    0.29913E-04   -0.22420E-02  4387   0.889E-02    0.259E-01
RMM:   3    -0.231366880850E+04   -0.71499E-03   -0.39386E-03  5671   0.345E-02    0.386E-01
RMM:   4    -0.231366722692E+04    0.15816E-02   -0.20672E-03  5179   0.207E-02    0.101E-01
RMM:   5    -0.231366728389E+04   -0.56970E-04   -0.47440E-04  4016   0.106E-02    0.109E-01
RMM:   6    -0.231366717089E+04    0.11300E-03   -0.15485E-04  2941   0.648E-03    0.290E-02
RMM:   7    -0.231366716473E+04    0.61660E-05   -0.21716E-05  2893   0.296E-03
  14 F= -.23344849E+04 E0= -.23344849E+04  d E =-.107130E-03  mag=     4.0000
       N       E                     dE             d eps       ncg     rms          rms(c)
DAV:   1    -0.231366040084E+04    0.67701E-02   -0.12586E+00  4800   0.579E-01    0.527E-01
RMM:   2    -0.231365779500E+04    0.26058E-02   -0.13359E-02  5114   0.541E-02    0.359E-01
RMM:   3    -0.231365846516E+04   -0.67016E-03   -0.56695E-03  5514   0.381E-02    0.433E-01
RMM:   4    -0.231365654545E+04    0.19197E-02   -0.24319E-03  5253   0.226E-02    0.149E-01
RMM:   5    -0.231365642778E+04    0.11767E-03   -0.56256E-04  4463   0.122E-02    0.102E-01
RMM:   6    -0.231365636606E+04    0.61725E-04   -0.22865E-04  2979   0.734E-03    0.636E-02
RMM:   7    -0.231365633390E+04    0.32158E-04   -0.29679E-05  2811   0.387E-03    0.213E-02
RMM:   8    -0.231365633080E+04    0.31017E-05   -0.16120E-05  2760   0.228E-03
  15 F= -.23344735E+04 E0= -.23344734E+04  d E =-.238528E-03  mag=     4.0000
       N       E                     dE             d eps       ncg     rms          rms(c)
DAV:   1    -0.231368900001E+04   -0.32666E-01   -0.62494E-01  4720   0.388E-01    0.328E-01
RMM:   2    -0.231368846224E+04    0.53777E-03   -0.57145E-03  4804   0.340E-02    0.223E-01
RMM:   3    -0.231368876423E+04   -0.30200E-03   -0.20493E-03  5058   0.235E-02    0.286E-01
RMM:   4    -0.231368798797E+04    0.77626E-03   -0.10564E-03  4724   0.152E-02    0.106E-01
RMM:   5    -0.231368796820E+04    0.19775E-04   -0.31865E-04  3820   0.873E-03    0.887E-02
RMM:   6    -0.231368789989E+04    0.68304E-04   -0.92060E-05  2860   0.534E-03    0.283E-02
RMM:   7    -0.231368789634E+04    0.35514E-05   -0.13359E-05  2721   0.245E-03
  16 F= -.23345052E+04 E0= -.23345051E+04  d E =-.162976E-03  mag=     4.0000
       N       E                     dE             d eps       ncg     rms          rms(c)
DAV:   1    -0.231364447696E+04    0.43423E-01   -0.12278E+00  4640   0.542E-01    0.374E-01
RMM:   2    -0.231364466830E+04   -0.19133E-03   -0.60226E-03  4180   0.361E-02    0.243E-01
RMM:   3    -0.231364524774E+04   -0.57945E-03   -0.26714E-03  5234   0.261E-02    0.301E-01
RMM:   4    -0.231364428792E+04    0.95983E-03   -0.13701E-03  5010   0.165E-02    0.104E-01
RMM:   5    -0.231364431170E+04   -0.23777E-04   -0.18369E-04  3316   0.689E-03    0.798E-02
RMM:   6    -0.231364428987E+04    0.21822E-04   -0.61732E-05  2846   0.453E-03    0.485E-02
RMM:   7    -0.231364428683E+04    0.30383E-05   -0.31064E-05  2792   0.290E-03
  17 F= -.23344619E+04 E0= -.23344619E+04  d E =-.149869E-03  mag=     4.0000
       N       E                     dE             d eps       ncg     rms          rms(c)
DAV:   1    -0.231365405925E+04   -0.97694E-02   -0.63168E-01  4960   0.414E-01    0.357E-01
RMM:   2    -0.231365301409E+04    0.10452E-02   -0.59075E-03  4750   0.359E-02    0.218E-01
RMM:   3    -0.231365325260E+04   -0.23851E-03   -0.20321E-03  4715   0.239E-02    0.259E-01
RMM:   4    -0.231365267972E+04    0.57288E-03   -0.11047E-03  4865   0.152E-02    0.128E-01
RMM:   5    -0.231365254702E+04    0.13269E-03   -0.31763E-04  3778   0.896E-03    0.685E-02
RMM:   6    -0.231365254033E+04    0.66980E-05   -0.10141E-04  2893   0.579E-03    0.495E-02
RMM:   7    -0.231365252359E+04    0.16733E-04   -0.24946E-05  2765   0.318E-03    0.273E-02
RMM:   8    -0.231365251735E+04    0.62396E-05   -0.17788E-05  2737   0.240E-03
  18 F= -.23344698E+04 E0= -.23344697E+04  d E =-.114437E-03  mag=     4.0000
       N       E                     dE             d eps       ncg     rms          rms(c)
DAV:   1    -0.231367201447E+04   -0.19491E-01   -0.12682E+00  4880   0.571E-01    0.566E-01
RMM:   2    -0.231366805008E+04    0.39644E-02   -0.18501E-02  4998   0.620E-02    0.327E-01
RMM:   3    -0.231366784840E+04    0.20167E-03   -0.45885E-03  5133   0.383E-02    0.333E-01
RMM:   4    -0.231366720734E+04    0.64106E-03   -0.25203E-03  5359   0.224E-02    0.226E-01
RMM:   5    -0.231366665907E+04    0.54828E-03   -0.74534E-04  4657   0.139E-02    0.801E-02
RMM:   6    -0.231366668447E+04   -0.25405E-04   -0.24177E-04  3061   0.773E-03    0.850E-02
RMM:   7    -0.231366661416E+04    0.70313E-04   -0.65233E-05  2870   0.463E-03    0.233E-02
RMM:   8    -0.231366661072E+04    0.34408E-05   -0.15933E-05  2760   0.237E-03
  19 F= -.23344843E+04 E0= -.23344842E+04  d E =-.218222E-03  mag=     4.0000
       N       E                     dE             d eps       ncg     rms          rms(c)
DAV:   1    -0.231368034718E+04   -0.13733E-01   -0.58893E-01  5040   0.429E-01    0.367E-01
RMM:   2    -0.231367936938E+04    0.97781E-03   -0.10623E-02  4622   0.506E-02    0.198E-01
RMM:   3    -0.231367887428E+04    0.49509E-03   -0.11647E-03  4150   0.251E-02    0.114E-01
RMM:   4    -0.231367888090E+04   -0.66234E-05   -0.52060E-04  4362   0.114E-02    0.897E-02
RMM:   5    -0.231367881220E+04    0.68704E-04   -0.20738E-04  3181   0.908E-03    0.472E-02
RMM:   6    -0.231367879306E+04    0.19137E-04   -0.32158E-05  2890   0.394E-03    0.198E-02
RMM:   7    -0.231367879163E+04    0.14299E-05   -0.11542E-05  2720   0.245E-03
  20 F= -.23344962E+04 E0= -.23344961E+04  d E =-.160723E-03  mag=     4.0000
       N       E                     dE             d eps       ncg     rms          rms(c)
DAV:   1    -0.231364032256E+04    0.38471E-01   -0.10668E+00  4960   0.536E-01    0.494E-01
RMM:   2    -0.231363903055E+04    0.12920E-02   -0.24227E-02  4654   0.737E-02    0.268E-01
RMM:   3    -0.231363916405E+04   -0.13350E-03   -0.32764E-03  4506   0.447E-02    0.300E-01
RMM:   4    -0.231363838807E+04    0.77597E-03   -0.13441E-03  4790   0.175E-02    0.157E-01
RMM:   5    -0.231363834970E+04    0.38372E-04   -0.56447E-04  4379   0.125E-02    0.117E-01
RMM:   6    -0.231363825701E+04    0.92695E-04   -0.22537E-04  3070   0.789E-03    0.561E-02
RMM:   7    -0.231363822609E+04    0.30913E-04   -0.36144E-05  2943   0.437E-03    0.219E-02
RMM:   8    -0.231363822303E+04    0.30644E-05   -0.22492E-05  2881   0.303E-03
  21 F= -.23344558E+04 E0= -.23344557E+04  d E =-.155548E-03  mag=     4.0000
       N       E                     dE             d eps       ncg     rms          rms(c)
DAV:   1    -0.231366149637E+04   -0.23270E-01   -0.52117E-01  4800   0.351E-01    0.250E-01
RMM:   2    -0.231366135453E+04    0.14184E-03   -0.57562E-03  4390   0.371E-02    0.138E-01
RMM:   3    -0.231366141155E+04   -0.57016E-04   -0.66916E-04  3960   0.192E-02    0.135E-01
RMM:   4    -0.231366134493E+04    0.66619E-04   -0.40742E-04  3754   0.102E-02    0.979E-02
RMM:   5    -0.231366129452E+04    0.50406E-04   -0.14959E-04  3301   0.764E-03    0.430E-02
RMM:   6    -0.231366129023E+04    0.42867E-05   -0.50289E-05  2881   0.471E-03
  22 F= -.23344784E+04 E0= -.23344783E+04  d E =-.173973E-03  mag=     4.0000
       N       E                     dE             d eps       ncg     rms          rms(c)
DAV:   1    -0.231366946881E+04   -0.81743E-02   -0.10342E+00  4480   0.479E-01    0.240E-01
RMM:   2    -0.231366982451E+04   -0.35569E-03   -0.36092E-03  4247   0.307E-02    0.148E-01
RMM:   3    -0.231367004119E+04   -0.21668E-03   -0.82835E-04  4942   0.167E-02    0.128E-01
RMM:   4    -0.231366995627E+04    0.84913E-04   -0.42933E-04  3982   0.107E-02    0.797E-02
RMM:   5    -0.231366989509E+04    0.61183E-04   -0.77683E-05  3249   0.621E-03    0.180E-02
RMM:   6    -0.231366989895E+04   -0.38606E-05   -0.28364E-05  2939   0.391E-03
  23 F= -.23344877E+04 E0= -.23344877E+04  d E =-.158423E-03  mag=     4.0000
       N       E                     dE             d eps       ncg     rms          rms(c)
DAV:   1    -0.231366732581E+04    0.25693E-02   -0.51447E-01  4480   0.343E-01    0.199E-01
RMM:   2    -0.231366751387E+04   -0.18805E-03   -0.30212E-03  4270   0.295E-02    0.121E-01
RMM:   3    -0.231366779688E+04   -0.28301E-03   -0.69353E-04  4508   0.151E-02    0.177E-01
RMM:   4    -0.231366749587E+04    0.30101E-03   -0.38277E-04  3806   0.986E-03    0.520E-02
RMM:   5    -0.231366752404E+04   -0.28168E-04   -0.85325E-05  2983   0.599E-03    0.566E-02
RMM:   6    -0.231366749798E+04    0.26061E-04   -0.31584E-05  2864   0.409E-03    0.196E-02
RMM:   7    -0.231366749489E+04    0.30861E-05   -0.10291E-05  2792   0.236E-03
  24 F= -.23344850E+04 E0= -.23344849E+04  d E =-.156942E-03  mag=     4.0000
       N       E                     dE             d eps       ncg     rms          rms(c)
DAV:   1    -0.231366318047E+04    0.43175E-02   -0.10353E+00  4640   0.509E-01    0.326E-01
RMM:   2    -0.231366358482E+04   -0.40435E-03   -0.72407E-03  4490   0.460E-02    0.205E-01
RMM:   3    -0.231366421779E+04   -0.63297E-03   -0.18531E-03  4757   0.251E-02    0.283E-01
RMM:   4    -0.231366350054E+04    0.71724E-03   -0.90834E-04  4403   0.142E-02    0.100E-01
RMM:   5    -0.231366354066E+04   -0.40121E-04   -0.23173E-04  3471   0.883E-03    0.793E-02
RMM:   6    -0.231366349664E+04    0.44027E-04   -0.83280E-05  2955   0.581E-03    0.361E-02
RMM:   7    -0.231366348960E+04    0.70413E-05   -0.14225E-05  2842   0.293E-03
  25 F= -.23344809E+04 E0= -.23344809E+04  d E =-.163047E-03  mag=     4.0000
