       N       E                     dE             d eps       ncg     rms          rms(c)
DAV:   1     0.129277591469E+05    0.12928E+05   -0.83794E+05  4512   0.144E+03
DAV:   2    -0.105083377395E+04   -0.13979E+05   -0.13369E+05  5112   0.330E+02
DAV:   3    -0.247903260583E+04   -0.14282E+04   -0.14133E+04  5424   0.112E+02
DAV:   4    -0.252260638860E+04   -0.43574E+02   -0.43339E+02  6752   0.287E+01
DAV:   5    -0.252339464893E+04   -0.78826E+00   -0.78678E+00  6016   0.336E+00    0.171E+02
RMM:   6    -0.148958115883E+04    0.10338E+04   -0.19660E+03  4448   0.386E+01    0.732E+01
RMM:   7    -0.166827060335E+04   -0.17869E+03   -0.31254E+02  5119   0.146E+01    0.569E+01
RMM:   8    -0.170062614457E+04   -0.32356E+02   -0.85553E+01  5192   0.859E+00    0.445E+01
RMM:   9    -0.176461726249E+04   -0.63991E+02   -0.63651E+01  4872   0.741E+00    0.364E+01
RMM:  10    -0.187199049580E+04   -0.10737E+03   -0.57502E+01  5326   0.714E+00    0.362E+01
RMM:  11    -0.195439484310E+04   -0.82404E+02   -0.37874E+01  5363   0.538E+00    0.228E+01
RMM:  12    -0.203047955254E+04   -0.76085E+02   -0.26612E+01  4731   0.411E+00    0.173E+01
RMM:  13    -0.215482067227E+04   -0.12434E+03   -0.88849E+01  4764   0.674E+00    0.155E+01
RMM:  14    -0.223156715988E+04   -0.76746E+02   -0.52518E+01  4758   0.550E+00    0.123E+01
RMM:  15    -0.228011576161E+04   -0.48549E+02   -0.37915E+01  4592   0.460E+00    0.804E+00
RMM:  16    -0.230145969440E+04   -0.21344E+02   -0.17436E+01  4826   0.333E+00    0.493E+00
RMM:  17    -0.231186444182E+04   -0.10405E+02   -0.87715E+00  4656   0.209E+00    0.263E+00
RMM:  18    -0.231431695063E+04   -0.24525E+01   -0.16817E+00  4923   0.114E+00    0.189E+00
RMM:  19    -0.231617502997E+04   -0.18581E+01   -0.11513E+00  4639   0.589E-01    0.189E+00
RMM:  20    -0.231632620382E+04   -0.15117E+00   -0.14870E-01  4792   0.395E-01    0.160E+00
RMM:  21    -0.231644364243E+04   -0.11744E+00   -0.83988E-02  4886   0.138E-01    0.109E+00
RMM:  22    -0.231662493470E+04   -0.18129E+00   -0.12043E-01  4486   0.197E-01    0.533E-01
RMM:  23    -0.231668116878E+04   -0.56234E-01   -0.32507E-02  4752   0.127E-01    0.322E-01
RMM:  24    -0.231670695758E+04   -0.25789E-01   -0.16582E-02  4503   0.869E-02    0.218E-01
RMM:  25    -0.231672434021E+04   -0.17383E-01   -0.61902E-03  4573   0.711E-02    0.183E-01
RMM:  26    -0.231673153870E+04   -0.71985E-02   -0.25994E-03  4742   0.389E-02    0.138E-01
RMM:  27    -0.231673669734E+04   -0.51586E-02   -0.10929E-03  4319   0.288E-02    0.967E-02
RMM:  28    -0.231674558056E+04   -0.88832E-02   -0.21893E-03  4440   0.339E-02    0.893E-02
RMM:  29    -0.231674979495E+04   -0.42144E-02   -0.11390E-03  4499   0.274E-02    0.567E-02
RMM:  30    -0.231675312901E+04   -0.33341E-02   -0.87131E-04  4165   0.235E-02    0.337E-02
RMM:  31    -0.231675475284E+04   -0.16238E-02   -0.49257E-04  4156   0.193E-02    0.164E-02
RMM:  32    -0.231675537711E+04   -0.62427E-03   -0.21728E-04  3927   0.139E-02    0.112E-02
RMM:  33    -0.231675560659E+04   -0.22948E-03   -0.74629E-05  3634   0.922E-03    0.562E-03
RMM:  34    -0.231675573272E+04   -0.12613E-03   -0.38956E-05  3348   0.658E-03    0.285E-03
RMM:  35    -0.231675578625E+04   -0.53533E-04   -0.20397E-05  3036   0.552E-03    0.190E-03
RMM:  36    -0.231675581372E+04   -0.27467E-04   -0.12589E-05  2930   0.397E-03    0.107E-03
RMM:  37    -0.231675582065E+04   -0.69360E-05   -0.52265E-06  2561   0.284E-03
   1 F= -.23377165E+04 E0= -.23377142E+04  d E =-.233772E+04  mag=     6.0000
       N       E                     dE             d eps       ncg     rms          rms(c)
DAV:   1    -0.231474748670E+04    0.20083E+01   -0.87547E+02  4544   0.169E+01    0.944E+00
RMM:   2    -0.232238579506E+04   -0.76383E+01   -0.73310E+01  5608   0.473E+00    0.124E+01
RMM:   3    -0.232055512067E+04    0.18307E+01   -0.48429E+00  5325   0.180E+00    0.104E+01
RMM:   4    -0.231953260071E+04    0.10225E+01   -0.83905E-01  6355   0.562E-01    0.393E+00
RMM:   5    -0.231946905153E+04    0.63549E-01   -0.13512E-01  5058   0.212E-01    0.323E+00
RMM:   6    -0.231957677223E+04   -0.10772E+00   -0.19591E-01  5373   0.234E-01    0.587E+00
RMM:   7    -0.231937528587E+04    0.20149E+00   -0.27644E-01  5036   0.291E-01    0.153E+00
RMM:   8    -0.231940339989E+04   -0.28114E-01   -0.58439E-02  4969   0.205E-01    0.348E+00
RMM:   9    -0.231939635672E+04    0.70432E-02   -0.12937E-02  5233   0.673E-02    0.315E+00
RMM:  10    -0.231934988520E+04    0.46472E-01   -0.44490E-02  4795   0.105E-01    0.951E-01
RMM:  11    -0.231934841486E+04    0.14703E-02   -0.14945E-02  4655   0.768E-02    0.324E-01
RMM:  12    -0.231936054908E+04   -0.12134E-01   -0.48089E-03  4545   0.405E-02    0.270E-01
RMM:  13    -0.231937425367E+04   -0.13705E-01   -0.31383E-03  4421   0.326E-02    0.281E-01
RMM:  14    -0.231938033816E+04   -0.60845E-02   -0.14295E-03  4356   0.230E-02    0.134E-01
RMM:  15    -0.231938683829E+04   -0.65001E-02   -0.14486E-03  4257   0.216E-02    0.966E-02
RMM:  16    -0.231938997786E+04   -0.31396E-02   -0.10559E-03  4339   0.222E-02    0.585E-02
RMM:  17    -0.231939144804E+04   -0.14702E-02   -0.50467E-04  4242   0.149E-02    0.296E-02
RMM:  18    -0.231939216548E+04   -0.71744E-03   -0.17722E-04  3942   0.950E-03    0.172E-02
RMM:  19    -0.231939243341E+04   -0.26793E-03   -0.57165E-05  3473   0.644E-03    0.888E-03
RMM:  20    -0.231939252675E+04   -0.93344E-04   -0.15272E-05  2948   0.409E-03    0.520E-03
RMM:  21    -0.231939256177E+04   -0.35017E-04   -0.74466E-06  2836   0.310E-03    0.292E-03
RMM:  22    -0.231939257710E+04   -0.15326E-04   -0.50106E-06  2732   0.258E-03    0.191E-03
RMM:  23    -0.231939257889E+04   -0.17932E-05   -0.21926E-06  2484   0.203E-03
   2 F= -.23403576E+04 E0= -.23403469E+04  d E =-.264104E+01  mag=     4.4524
       N       E                     dE             d eps       ncg     rms          rms(c)
DAV:   1    -0.231949405591E+04   -0.10148E+00   -0.80010E+01  4616   0.669E+00    0.368E+00
RMM:   2    -0.231981039115E+04   -0.31634E+00   -0.28540E+00  4828   0.122E+00    0.596E+00
RMM:   3    -0.231975529852E+04    0.55093E-01   -0.51105E-01  5564   0.478E-01    0.414E+00
RMM:   4    -0.231962503968E+04    0.13026E+00   -0.69719E-02  5516   0.155E-01    0.227E+00
RMM:   5    -0.231961184373E+04    0.13196E-01   -0.18968E-02  4893   0.796E-02    0.203E+00
RMM:   6    -0.231960805154E+04    0.37922E-02   -0.21354E-02  5488   0.689E-02    0.213E+00
RMM:   7    -0.231959948351E+04    0.85680E-02   -0.48226E-03  4988   0.435E-02    0.173E+00
RMM:   8    -0.231960836028E+04   -0.88768E-02   -0.31664E-02  4878   0.869E-02    0.126E+00
RMM:   9    -0.231959512707E+04    0.13233E-01   -0.30384E-02  5122   0.932E-02    0.140E+00
RMM:  10    -0.231959060211E+04    0.45250E-02   -0.12178E-02  4736   0.625E-02    0.797E-01
RMM:  11    -0.231960558146E+04   -0.14979E-01   -0.13336E-02  4509   0.581E-02    0.313E-01
RMM:  12    -0.231961791117E+04   -0.12330E-01   -0.38651E-03  4504   0.335E-02    0.251E-01
RMM:  13    -0.231963082197E+04   -0.12911E-01   -0.39856E-03  4444   0.336E-02    0.210E-01
RMM:  14    -0.231963122351E+04   -0.40153E-03   -0.43875E-04  3804   0.189E-02    0.201E-01
RMM:  15    -0.231963092648E+04    0.29703E-03   -0.12537E-04  3371   0.524E-03    0.174E-01
RMM:  16    -0.231963720507E+04   -0.62786E-02   -0.14691E-03  4221   0.214E-02    0.983E-02
RMM:  17    -0.231964057724E+04   -0.33722E-02   -0.96981E-04  4068   0.184E-02    0.560E-02
RMM:  18    -0.231964207082E+04   -0.14936E-02   -0.35731E-04  4148   0.126E-02    0.613E-02
RMM:  19    -0.231964274816E+04   -0.67734E-03   -0.13059E-04  3838   0.839E-03    0.223E-02
RMM:  20    -0.231964318015E+04   -0.43198E-03   -0.72181E-05  3570   0.634E-03    0.135E-02
RMM:  21    -0.231964330494E+04   -0.12479E-03   -0.18889E-05  2992   0.474E-03    0.420E-03
RMM:  22    -0.231964335733E+04   -0.52388E-04   -0.10498E-05  2855   0.317E-03    0.424E-03
RMM:  23    -0.231964337260E+04   -0.15271E-04   -0.48098E-06  2677   0.281E-03    0.116E-03
RMM:  24    -0.231964337556E+04   -0.29617E-05   -0.24260E-06  2485   0.188E-03
   3 F= -.23406058E+04 E0= -.23405919E+04  d E =-.288932E+01  mag=     5.9869
       N       E                     dE             d eps       ncg     rms          rms(c)
DAV:   1    -0.231941067158E+04    0.23270E+00   -0.90159E+01  4480   0.800E+00    0.276E+00
RMM:   2    -0.232043724006E+04   -0.10266E+01   -0.11551E+01  6355   0.221E+00    0.234E+00
RMM:   3    -0.232044568984E+04   -0.84498E-02   -0.95493E-01  6217   0.573E-01    0.252E+00
RMM:   4    -0.232040807406E+04    0.37616E-01   -0.10914E-01  6221   0.159E-01    0.102E+00
RMM:   5    -0.232040089131E+04    0.71828E-02   -0.22733E-02  5527   0.780E-02    0.109E+00
RMM:   6    -0.232039954573E+04    0.13456E-02   -0.83036E-03  4973   0.572E-02    0.941E-01
RMM:   7    -0.232039986831E+04   -0.32258E-03   -0.53071E-03  5155   0.349E-02    0.104E+00
RMM:   8    -0.232039474288E+04    0.51254E-02   -0.67024E-03  4814   0.381E-02    0.588E-01
RMM:   9    -0.232039013438E+04    0.46085E-02   -0.12732E-02  5269   0.669E-02    0.620E-01
RMM:  10    -0.232038945264E+04    0.68174E-03   -0.70186E-03  5063   0.533E-02    0.179E-01
RMM:  11    -0.232038934173E+04    0.11091E-03   -0.12722E-03  4957   0.235E-02    0.810E-02
RMM:  12    -0.232038921737E+04    0.12436E-03   -0.37568E-04  4562   0.134E-02    0.660E-02
RMM:  13    -0.232038917032E+04    0.47042E-04   -0.18925E-04  4198   0.998E-03    0.520E-02
RMM:  14    -0.232038917521E+04   -0.48882E-05   -0.26076E-05  2960   0.569E-03
   4 F= -.23413534E+04 E0= -.23413399E+04  d E =-.747555E+00  mag=     5.9961
       N       E                     dE             d eps       ncg     rms          rms(c)
DAV:   1    -0.232034472300E+04    0.44447E-01   -0.79498E+00  4608   0.244E+00    0.881E-01
RMM:   2    -0.232043513512E+04   -0.90412E-01   -0.10153E+00  6308   0.584E-01    0.865E-01
RMM:   3    -0.232043330113E+04    0.18340E-02   -0.87011E-02  6088   0.172E-01    0.728E-01
RMM:   4    -0.232042917519E+04    0.41259E-02   -0.94615E-03  5824   0.484E-02    0.367E-01
RMM:   5    -0.232042831863E+04    0.85656E-03   -0.33036E-03  5509   0.288E-02    0.355E-01
RMM:   6    -0.232042760872E+04    0.70991E-03   -0.27591E-03  5164   0.307E-02    0.301E-01
RMM:   7    -0.232042806408E+04   -0.45537E-03   -0.61927E-04  4161   0.154E-02    0.363E-01
RMM:   8    -0.232042801872E+04    0.45369E-04   -0.12505E-04  3242   0.813E-03    0.405E-01
RMM:   9    -0.232042746558E+04    0.55313E-03   -0.12866E-03  4314   0.187E-02    0.832E-02
RMM:  10    -0.232042744080E+04    0.24788E-04   -0.39422E-04  4108   0.134E-02    0.497E-02
RMM:  11    -0.232042741989E+04    0.20908E-04   -0.65587E-05  3263   0.602E-03    0.490E-02
RMM:  12    -0.232042741125E+04    0.86392E-05   -0.12832E-05  2900   0.433E-03
   5 F= -.23413922E+04 E0= -.23413791E+04  d E =-.786339E+00  mag=     5.9991
       N       E                     dE             d eps       ncg     rms          rms(c)
DAV:   1    -0.232048750198E+04   -0.60082E-01   -0.52851E+01  4480   0.667E+00    0.183E+00
RMM:   2    -0.232074823968E+04   -0.26074E+00   -0.27997E+00  5752   0.114E+00    0.109E+00
RMM:   3    -0.232076126817E+04   -0.13028E-01   -0.22241E-01  5424   0.464E-01    0.137E+00
RMM:   4    -0.232073934679E+04    0.21921E-01   -0.28727E-02  5895   0.113E-01    0.512E-01
RMM:   5    -0.232073710729E+04    0.22395E-02   -0.14128E-02  5520   0.782E-02    0.471E-01
RMM:   6    -0.232073590711E+04    0.12002E-02   -0.57051E-03  5476   0.477E-02    0.395E-01
RMM:   7    -0.232073568787E+04    0.21924E-03   -0.73010E-04  4506   0.174E-02    0.371E-01
RMM:   8    -0.232073568484E+04    0.30306E-05   -0.17881E-04  3639   0.936E-03    0.391E-01
RMM:   9    -0.232073532946E+04    0.35538E-03   -0.71762E-04  4138   0.140E-02    0.170E-01
RMM:  10    -0.232073520209E+04    0.12737E-03   -0.39448E-04  4204   0.122E-02    0.732E-02
RMM:  11    -0.232073517507E+04    0.27021E-04   -0.21556E-04  3966   0.103E-02    0.969E-02
RMM:  12    -0.232073515576E+04    0.19307E-04   -0.11305E-04  3170   0.761E-03    0.842E-02
RMM:  13    -0.232073516188E+04   -0.61220E-05   -0.39826E-05  2910   0.550E-03
   6 F= -.23416979E+04 E0= -.23416846E+04  d E =-.305715E+00  mag=     5.9997
       N       E                     dE             d eps       ncg     rms          rms(c)
DAV:   1    -0.232069966577E+04    0.35490E-01   -0.19561E+01  4496   0.413E+00    0.113E+00
RMM:   2    -0.232079345473E+04   -0.93789E-01   -0.10053E+00  5782   0.686E-01    0.716E-01
RMM:   3    -0.232079836526E+04   -0.49105E-02   -0.81459E-02  5449   0.278E-01    0.893E-01
RMM:   4    -0.232078917303E+04    0.91922E-02   -0.10851E-02  5780   0.692E-02    0.326E-01
RMM:   5    -0.232078853851E+04    0.63452E-03   -0.53215E-03  5470   0.473E-02    0.340E-01
RMM:   6    -0.232078760489E+04    0.93362E-03   -0.27193E-03  5316   0.326E-02    0.182E-01
RMM:   7    -0.232078767528E+04   -0.70387E-04   -0.34208E-04  4198   0.149E-02    0.213E-01
RMM:   8    -0.232078764922E+04    0.26059E-04   -0.39337E-05  2997   0.572E-03    0.203E-01
RMM:   9    -0.232078764654E+04    0.26793E-05   -0.83790E-06  2891   0.330E-03
   7 F= -.23417492E+04 E0= -.23417356E+04  d E =-.357030E+00  mag=     5.9999
       N       E                     dE             d eps       ncg     rms          rms(c)
DAV:   1    -0.232077610045E+04    0.11549E-01   -0.61116E+01  4480   0.687E+00    0.234E+00
RMM:   2    -0.232114642316E+04   -0.37032E+00   -0.35902E+00  6061   0.134E+00    0.324E+00
RMM:   3    -0.232104005957E+04    0.10636E+00   -0.31279E-01  6000   0.421E-01    0.201E+00
RMM:   4    -0.232099725443E+04    0.42805E-01   -0.48997E-02  6245   0.134E-01    0.745E-01
RMM:   5    -0.232099424534E+04    0.30091E-02   -0.18143E-02  5469   0.747E-02    0.802E-01
RMM:   6    -0.232098756374E+04    0.66816E-02   -0.13330E-02  5254   0.698E-02    0.340E-01
RMM:   7    -0.232098819246E+04   -0.62871E-03   -0.35396E-03  5062   0.449E-02    0.496E-01
RMM:   8    -0.232098829082E+04   -0.98358E-04   -0.33278E-04  4039   0.156E-02    0.478E-01
RMM:   9    -0.232098801037E+04    0.28044E-03   -0.13547E-03  4329   0.198E-02    0.224E-01
RMM:  10    -0.232098793969E+04    0.70685E-04   -0.52266E-04  4292   0.138E-02    0.126E-01
RMM:  11    -0.232098796731E+04   -0.27626E-04   -0.15962E-04  3383   0.903E-03    0.173E-01
RMM:  12    -0.232098795865E+04    0.86663E-05   -0.27487E-05  2916   0.476E-03
   8 F= -.23419495E+04 E0= -.23419367E+04  d E =-.200282E+00  mag=     6.0000
       N       E                     dE             d eps       ncg     rms          rms(c)
DAV:   1    -0.232098796577E+04    0.15447E-05   -0.16376E-01  4992   0.364E-01    0.150E-01
RMM:   2    -0.232098908560E+04   -0.11198E-02   -0.89004E-03  6070   0.677E-02    0.260E-01
RMM:   3    -0.232098873821E+04    0.34738E-03   -0.51690E-04  4054   0.191E-02    0.212E-01
RMM:   4    -0.232098874124E+04   -0.30306E-05   -0.75506E-05  3022   0.541E-03
   9 F= -.23419503E+04 E0= -.23419376E+04  d E =-.201057E+00  mag=     6.0000
       N       E                     dE             d eps       ncg     rms          rms(c)
DAV:   1    -0.232100957938E+04   -0.20841E-01   -0.24147E+01  4512   0.488E+00    0.149E+00
RMM:   2    -0.232115025577E+04   -0.14068E+00   -0.14700E+00  6075   0.892E-01    0.108E+00
RMM:   3    -0.232115604630E+04   -0.57905E-02   -0.11382E-01  5664   0.308E-01    0.124E+00
RMM:   4    -0.232113848807E+04    0.17558E-01   -0.18594E-02  6074   0.850E-02    0.438E-01
RMM:   5    -0.232113730074E+04    0.11873E-02   -0.90983E-03  5103   0.605E-02    0.489E-01
RMM:   6    -0.232113775160E+04   -0.45086E-03   -0.26109E-03  4977   0.374E-02    0.522E-01
RMM:   7    -0.232113783537E+04   -0.83779E-04   -0.40587E-04  3830   0.111E-02    0.491E-01
RMM:   8    -0.232113778438E+04    0.50992E-04   -0.63361E-05  2958   0.554E-03    0.468E-01
RMM:   9    -0.232113701169E+04    0.77269E-03   -0.28983E-03  4506   0.275E-02    0.900E-02
RMM:  10    -0.232113697539E+04    0.36292E-04   -0.24560E-04  4082   0.140E-02    0.675E-02
RMM:  11    -0.232113700093E+04   -0.25537E-04   -0.71461E-05  3149   0.587E-03    0.861E-02
RMM:  12    -0.232113700003E+04    0.90254E-06   -0.72482E-06  2845   0.390E-03
  10 F= -.23420991E+04 E0= -.23420871E+04  d E =-.148795E+00  mag=     6.0000
       N       E                     dE             d eps       ncg     rms          rms(c)
DAV:   1    -0.232101611666E+04    0.12088E+00   -0.35050E+01  4480   0.583E+00    0.179E+00
RMM:   2    -0.232121891607E+04   -0.20280E+00   -0.21499E+00  6092   0.106E+00    0.115E+00
RMM:   3    -0.232122751884E+04   -0.86028E-02   -0.15498E-01  5691   0.344E-01    0.143E+00
RMM:   4    -0.232120341388E+04    0.24105E-01   -0.25506E-02  6081   0.990E-02    0.432E-01
RMM:   5    -0.232120179015E+04    0.16237E-02   -0.11258E-02  5094   0.677E-02    0.441E-01
RMM:   6    -0.232120105068E+04    0.73948E-03   -0.35421E-03  5221   0.437E-02    0.342E-01
RMM:   7    -0.232120101717E+04    0.33509E-04   -0.49168E-04  4235   0.131E-02    0.320E-01
RMM:   8    -0.232120106401E+04   -0.46837E-04   -0.71188E-05  3130   0.690E-03    0.349E-01
RMM:   9    -0.232120045687E+04    0.60714E-03   -0.11889E-03  4522   0.186E-02    0.955E-02
RMM:  10    -0.232120037484E+04    0.82033E-04   -0.16571E-04  3943   0.110E-02    0.417E-02
RMM:  11    -0.232120035676E+04    0.18073E-04   -0.66094E-05  3628   0.620E-03    0.603E-02
RMM:  12    -0.232120035566E+04    0.11055E-05   -0.79780E-06  2860   0.479E-03
  11 F= -.23421630E+04 E0= -.23421529E+04  d E =-.212730E+00  mag=     6.0000
       N       E                     dE             d eps       ncg     rms          rms(c)
DAV:   1    -0.232125904631E+04   -0.58690E-01   -0.10313E+01  4544   0.300E+00    0.794E-01
RMM:   2    -0.232131567357E+04   -0.56627E-01   -0.58073E-01  6088   0.534E-01    0.680E-01
RMM:   3    -0.232131575832E+04   -0.84745E-04   -0.37241E-02  5716   0.162E-01    0.657E-01
RMM:   4    -0.232131075158E+04    0.50067E-02   -0.56798E-03  5632   0.465E-02    0.232E-01
RMM:   5    -0.232131029251E+04    0.45907E-03   -0.32533E-03  4976   0.378E-02    0.228E-01
RMM:   6    -0.232131018529E+04    0.10722E-03   -0.92435E-04  4814   0.241E-02    0.185E-01
RMM:   7    -0.232131015207E+04    0.33214E-04   -0.14307E-04  3278   0.717E-03    0.161E-01
RMM:   8    -0.232131012680E+04    0.25269E-04   -0.27851E-05  2934   0.435E-03    0.144E-01
RMM:   9    -0.232131001962E+04    0.10718E-03   -0.20079E-04  3846   0.859E-03    0.395E-02
RMM:  10    -0.232131000820E+04    0.11424E-04   -0.31283E-05  2941   0.574E-03    0.226E-02
RMM:  11    -0.232131000024E+04    0.79544E-05   -0.23271E-05  2948   0.367E-03
  12 F= -.23422727E+04 E0= -.23422633E+04  d E =-.109722E+00  mag=     6.0000
       N       E                     dE             d eps       ncg     rms          rms(c)
DAV:   1    -0.232098719405E+04    0.32281E+00   -0.92395E+01  4480   0.904E+00    0.246E+00
RMM:   2    -0.232151400702E+04   -0.52681E+00   -0.53942E+00  6137   0.169E+00    0.212E+00
RMM:   3    -0.232150705212E+04    0.69549E-02   -0.38608E-01  5669   0.505E-01    0.185E+00
RMM:   4    -0.232146436027E+04    0.42692E-01   -0.52470E-02  5749   0.147E-01    0.673E-01
RMM:   5    -0.232146160672E+04    0.27536E-02   -0.26780E-02  5447   0.107E-01    0.738E-01
RMM:   6    -0.232145703041E+04    0.45763E-02   -0.13331E-02  5692   0.761E-02    0.290E-01
RMM:   7    -0.232145624489E+04    0.78553E-03   -0.17547E-03  5471   0.302E-02    0.113E-01
RMM:   8    -0.232145603027E+04    0.21462E-03   -0.56363E-04  4773   0.150E-02    0.649E-02
RMM:   9    -0.232145607560E+04   -0.45326E-04   -0.11944E-04  3987   0.105E-02    0.792E-02
RMM:  10    -0.232145607552E+04    0.74186E-07   -0.41134E-05  3038   0.526E-03
  13 F= -.23424191E+04 E0= -.23424130E+04  d E =-.256115E+00  mag=     6.0000
       N       E                     dE             d eps       ncg     rms          rms(c)
DAV:   1    -0.232147030674E+04   -0.14231E-01   -0.10329E+01  4624   0.298E+00    0.877E-01
RMM:   2    -0.232154173014E+04   -0.71423E-01   -0.71812E-01  5938   0.532E-01    0.930E-01
RMM:   3    -0.232154046951E+04    0.12606E-02   -0.65615E-02  5418   0.214E-01    0.700E-01
RMM:   4    -0.232153501280E+04    0.54567E-02   -0.71732E-03  5811   0.506E-02    0.237E-01
RMM:   5    -0.232153419443E+04    0.81836E-03   -0.26735E-03  5143   0.323E-02    0.131E-01
RMM:   6    -0.232153428625E+04   -0.91819E-04   -0.13435E-03  5184   0.251E-02    0.160E-01
RMM:   7    -0.232153408155E+04    0.20470E-03   -0.36180E-04  4293   0.128E-02    0.540E-02
RMM:   8    -0.232153410018E+04   -0.18627E-04   -0.40937E-05  2987   0.483E-03    0.623E-02
RMM:   9    -0.232153409960E+04    0.58020E-06   -0.39211E-06  2852   0.255E-03
  14 F= -.23424970E+04 E0= -.23424912E+04  d E =-.779238E-01  mag=     6.0000
       N       E                     dE             d eps       ncg     rms          rms(c)
DAV:   1    -0.232131895259E+04    0.21515E+00   -0.43915E+01  4464   0.615E+00    0.184E+00
RMM:   2    -0.232162659625E+04   -0.30764E+00   -0.31309E+00  5918   0.110E+00    0.192E+00
RMM:   3    -0.232163149516E+04   -0.48989E-02   -0.29280E-01  5383   0.460E-01    0.168E+00
RMM:   4    -0.232160067966E+04    0.30815E-01   -0.33081E-02  6047   0.108E-01    0.510E-01
RMM:   5    -0.232159726790E+04    0.34118E-02   -0.11710E-02  5324   0.664E-02    0.336E-01
RMM:   6    -0.232159770960E+04   -0.44169E-03   -0.69015E-03  5514   0.507E-02    0.419E-01
RMM:   7    -0.232159627499E+04    0.14346E-02   -0.21183E-03  5582   0.284E-02    0.105E-01
RMM:   8    -0.232159630762E+04   -0.32638E-04   -0.31630E-04  3843   0.108E-02    0.101E-01
RMM:   9    -0.232159627743E+04    0.30193E-04   -0.69801E-05  2966   0.644E-03    0.729E-02
RMM:  10    -0.232159625768E+04    0.19753E-04   -0.11255E-04  3270   0.653E-03    0.470E-02
RMM:  11    -0.232159627396E+04   -0.16286E-04   -0.30443E-05  2897   0.502E-03    0.404E-02
RMM:  12    -0.232159627385E+04    0.11102E-06   -0.25633E-05  2860   0.362E-03
  15 F= -.23425590E+04 E0= -.23425541E+04  d E =-.139909E+00  mag=     6.0000
       N       E                     dE             d eps       ncg     rms          rms(c)
DAV:   1    -0.232160343927E+04   -0.71653E-02   -0.12347E+01  4544   0.333E+00    0.907E-01
RMM:   2    -0.232167625661E+04   -0.72817E-01   -0.74730E-01  5898   0.577E-01    0.857E-01
RMM:   3    -0.232167765908E+04   -0.14025E-02   -0.62649E-02  5270   0.208E-01    0.729E-01
RMM:   4    -0.232167243749E+04    0.52216E-02   -0.76832E-03  5777   0.540E-02    0.330E-01
RMM:   5    -0.232167256789E+04   -0.13040E-03   -0.37095E-03  5623   0.366E-02    0.391E-01
RMM:   6    -0.232167110702E+04    0.14609E-02   -0.24844E-03  5293   0.310E-02    0.120E-01
RMM:   7    -0.232167115076E+04   -0.43745E-04   -0.37409E-04  4296   0.171E-02    0.111E-01
RMM:   8    -0.232167113037E+04    0.20397E-04   -0.84879E-05  3239   0.628E-03    0.912E-02
RMM:   9    -0.232167106623E+04    0.64139E-04   -0.16226E-04  3564   0.788E-03    0.394E-02
RMM:  10    -0.232167108071E+04   -0.14482E-04   -0.30354E-05  2920   0.531E-03    0.407E-02
RMM:  11    -0.232167107605E+04    0.46587E-05   -0.28991E-05  2889   0.433E-03
  16 F= -.23426341E+04 E0= -.23426297E+04  d E =-.750581E-01  mag=     6.0000
       N       E                     dE             d eps       ncg     rms          rms(c)
DAV:   1    -0.232156486597E+04    0.10621E+00   -0.25405E+01  4480   0.476E+00    0.131E+00
RMM:   2    -0.232171577914E+04   -0.15091E+00   -0.15407E+00  5858   0.825E-01    0.127E+00
RMM:   3    -0.232172086452E+04   -0.50854E-02   -0.13588E-01  5220   0.309E-01    0.112E+00
RMM:   4    -0.232170879376E+04    0.12071E-01   -0.16933E-02  5837   0.789E-02    0.491E-01
RMM:   5    -0.232170880962E+04   -0.15862E-04   -0.75258E-03  5652   0.511E-02    0.555E-01
RMM:   6    -0.232170589759E+04    0.29120E-02   -0.49390E-03  5308   0.431E-02    0.178E-01
RMM:   7    -0.232170588255E+04    0.15041E-04   -0.96852E-04  4842   0.252E-02    0.136E-01
RMM:   8    -0.232170582050E+04    0.62049E-04   -0.29724E-04  4108   0.107E-02    0.991E-02
RMM:   9    -0.232170572899E+04    0.91508E-04   -0.21622E-04  3929   0.106E-02    0.482E-02
RMM:  10    -0.232170575637E+04   -0.27380E-04   -0.52614E-05  3166   0.628E-03    0.491E-02
RMM:  11    -0.232170574906E+04    0.73196E-05   -0.41693E-05  2918   0.538E-03
  17 F= -.23426692E+04 E0= -.23426655E+04  d E =-.110139E+00  mag=     6.0000
       N       E                     dE             d eps       ncg     rms          rms(c)
DAV:   1    -0.232167461370E+04    0.31143E-01   -0.17412E+01  4480   0.400E+00    0.125E+00
RMM:   2    -0.232181326494E+04   -0.13865E+00   -0.13907E+00  5887   0.752E-01    0.133E+00
RMM:   3    -0.232180763551E+04    0.56294E-02   -0.11006E-01  5432   0.256E-01    0.849E-01
RMM:   4    -0.232180126228E+04    0.63732E-02   -0.14115E-02  5537   0.687E-02    0.447E-01
RMM:   5    -0.232180096143E+04    0.30086E-03   -0.54516E-03  5594   0.445E-02    0.443E-01
RMM:   6    -0.232179898731E+04    0.19741E-02   -0.35082E-03  4830   0.376E-02    0.165E-01
RMM:   7    -0.232179882908E+04    0.15823E-03   -0.93969E-04  4610   0.270E-02    0.548E-02
RMM:   8    -0.232179881059E+04    0.18488E-04   -0.14394E-04  3767   0.811E-03    0.280E-02
RMM:   9    -0.232179880947E+04    0.11214E-05   -0.35480E-05  3005   0.657E-03
  18 F= -.23427630E+04 E0= -.23427610E+04  d E =-.938629E-01  mag=     6.0000
       N       E                     dE             d eps       ncg     rms          rms(c)
DAV:   1    -0.232169718939E+04    0.10162E+00   -0.18806E+01  4480   0.418E+00    0.130E+00
RMM:   2    -0.232184632203E+04   -0.14913E+00   -0.15184E+00  5878   0.797E-01    0.127E+00
RMM:   3    -0.232184211026E+04    0.42118E-02   -0.11725E-01  5440   0.270E-01    0.864E-01
RMM:   4    -0.232183512522E+04    0.69850E-02   -0.14922E-02  5545   0.719E-02    0.415E-01
RMM:   5    -0.232183547406E+04   -0.34885E-03   -0.59119E-03  5603   0.476E-02    0.483E-01
RMM:   6    -0.232183314911E+04    0.23250E-02   -0.38261E-03  5080   0.393E-02    0.178E-01
RMM:   7    -0.232183293788E+04    0.21123E-03   -0.93452E-04  4787   0.259E-02    0.491E-02
RMM:   8    -0.232183291666E+04    0.21221E-04   -0.13452E-04  3750   0.792E-03    0.275E-02
RMM:   9    -0.232183291411E+04    0.25576E-05   -0.40409E-05  3053   0.667E-03
  19 F= -.23427980E+04 E0= -.23427970E+04  d E =-.128827E+00  mag=     6.0000
       N       E                     dE             d eps       ncg     rms          rms(c)
DAV:   1    -0.232173684617E+04    0.96070E-01   -0.18516E+01  4512   0.421E+00    0.132E+00
RMM:   2    -0.232191651945E+04   -0.17967E+00   -0.18531E+00  5957   0.849E-01    0.124E+00
RMM:   3    -0.232191435311E+04    0.21663E-02   -0.15416E-01  5537   0.286E-01    0.803E-01
RMM:   4    -0.232190856310E+04    0.57900E-02   -0.17575E-02  5456   0.710E-02    0.359E-01
RMM:   5    -0.232190893912E+04   -0.37602E-03   -0.56340E-03  5709   0.495E-02    0.465E-01
RMM:   6    -0.232190702779E+04    0.19113E-02   -0.35808E-03  5653   0.367E-02    0.201E-01
RMM:   7    -0.232190664139E+04    0.38641E-03   -0.83003E-04  5089   0.221E-02    0.459E-02
RMM:   8    -0.232190660544E+04    0.35948E-04   -0.12174E-04  3717   0.827E-03    0.284E-02
RMM:   9    -0.232190658872E+04    0.16716E-04   -0.58968E-05  3357   0.697E-03    0.149E-02
RMM:  10    -0.232190658493E+04    0.37889E-05   -0.16151E-05  2930   0.449E-03
  20 F= -.23428726E+04 E0= -.23428724E+04  d E =-.746429E-01  mag=     6.0000
       N       E                     dE             d eps       ncg     rms          rms(c)
DAV:   1    -0.232186207596E+04    0.44513E-01   -0.62033E+00  4672   0.243E+00    0.760E-01
RMM:   2    -0.232192083732E+04   -0.58761E-01   -0.61216E-01  5947   0.493E-01    0.662E-01
RMM:   3    -0.232192080557E+04    0.31749E-04   -0.51607E-02  5586   0.163E-01    0.442E-01
RMM:   4    -0.232191905401E+04    0.17516E-02   -0.57203E-03  5358   0.404E-02    0.196E-01
RMM:   5    -0.232191867421E+04    0.37980E-03   -0.17541E-03  5584   0.295E-02    0.154E-01
RMM:   6    -0.232191872091E+04   -0.46704E-04   -0.94994E-04  5382   0.202E-02    0.161E-01
RMM:   7    -0.232191843611E+04    0.28480E-03   -0.24306E-04  4311   0.108E-02    0.243E-02
RMM:   8    -0.232191842085E+04    0.15262E-04   -0.37131E-05  3003   0.503E-03    0.160E-02
RMM:   9    -0.232191841292E+04    0.79303E-05   -0.26324E-05  2966   0.457E-03
  21 F= -.23428850E+04 E0= -.23428849E+04  d E =-.869709E-01  mag=     6.0000
       N       E                     dE             d eps       ncg     rms          rms(c)
DAV:   1    -0.232177108889E+04    0.14733E+00   -0.19264E+01  4464   0.434E+00    0.139E+00
RMM:   2    -0.232199191341E+04   -0.22082E+00   -0.22963E+00  5983   0.908E-01    0.106E+00
RMM:   3    -0.232200141671E+04   -0.95033E-02   -0.20868E-01  5659   0.306E-01    0.877E-01
RMM:   4    -0.232199458615E+04    0.68306E-02   -0.21430E-02  5703   0.751E-02    0.378E-01
RMM:   5    -0.232199446842E+04    0.11773E-03   -0.57082E-03  5650   0.494E-02    0.419E-01
RMM:   6    -0.232199308950E+04    0.13789E-02   -0.32071E-03  5727   0.341E-02    0.203E-01
RMM:   7    -0.232199280722E+04    0.28227E-03   -0.79404E-04  5000   0.203E-02    0.525E-02
RMM:   8    -0.232199277755E+04    0.29676E-04   -0.13133E-04  3525   0.993E-03    0.296E-02
RMM:   9    -0.232199277323E+04    0.43143E-05   -0.43512E-05  3074   0.578E-03
  22 F= -.23429598E+04 E0= -.23429597E+04  d E =-.747912E-01  mag=     6.0000
       N       E                     dE             d eps       ncg     rms          rms(c)
DAV:   1    -0.232192069149E+04    0.72086E-01   -0.75602E+00  4512   0.272E+00    0.864E-01
RMM:   2    -0.232200454527E+04   -0.83854E-01   -0.87389E-01  5936   0.562E-01    0.644E-01
RMM:   3    -0.232200925920E+04   -0.47139E-02   -0.85407E-02  5572   0.210E-01    0.539E-01
RMM:   4    -0.232200680509E+04    0.24541E-02   -0.86912E-03  5634   0.473E-02    0.232E-01
RMM:   5    -0.232200663124E+04    0.17385E-03   -0.21207E-03  5588   0.310E-02    0.232E-01
RMM:   6    -0.232200629913E+04    0.33212E-03   -0.11961E-03  5374   0.214E-02    0.144E-01
RMM:   7    -0.232200613122E+04    0.16791E-03   -0.30126E-04  4626   0.127E-02    0.294E-02
RMM:   8    -0.232200612174E+04    0.94772E-05   -0.46927E-05  3018   0.654E-03
  23 F= -.23429733E+04 E0= -.23429733E+04  d E =-.882960E-01  mag=     6.0000
       N       E                     dE             d eps       ncg     rms          rms(c)
DAV:   1    -0.232170315731E+04    0.30297E+00   -0.26903E+01  4480   0.503E+00    0.174E+00
RMM:   2    -0.232207894741E+04   -0.37579E+00   -0.38953E+00  6082   0.112E+00    0.145E+00
RMM:   3    -0.232209095086E+04   -0.12003E-01   -0.37638E-01  5759   0.387E-01    0.111E+00
RMM:   4    -0.232208002401E+04    0.10927E-01   -0.37427E-02  5896   0.929E-02    0.475E-01
RMM:   5    -0.232207939275E+04    0.63126E-03   -0.78323E-03  5713   0.525E-02    0.508E-01
RMM:   6    -0.232207726666E+04    0.21261E-02   -0.46680E-03  5698   0.387E-02    0.233E-01
RMM:   7    -0.232207687232E+04    0.39433E-03   -0.15354E-03  5014   0.265E-02    0.672E-02
RMM:   8    -0.232207683043E+04    0.41898E-04   -0.20532E-04  4187   0.138E-02    0.403E-02
RMM:   9    -0.232207680713E+04    0.23296E-04   -0.71304E-05  3305   0.727E-03    0.175E-02
RMM:  10    -0.232207680295E+04    0.41785E-05   -0.23216E-05  2950   0.477E-03
  24 F= -.23430430E+04 E0= -.23430430E+04  d E =-.697191E-01  mag=     6.0000
       N       E                     dE             d eps       ncg     rms          rms(c)
DAV:   1    -0.232196747019E+04    0.10934E+00   -0.88016E+00  4496   0.289E+00    0.987E-01
RMM:   2    -0.232208641017E+04   -0.11894E+00   -0.12439E+00  6060   0.638E-01    0.756E-01
RMM:   3    -0.232209306606E+04   -0.66559E-02   -0.12593E-01  5715   0.239E-01    0.631E-01
RMM:   4    -0.232208962095E+04    0.34451E-02   -0.12170E-02  5924   0.534E-02    0.264E-01
RMM:   5    -0.232208916834E+04    0.45261E-03   -0.23332E-03  5562   0.301E-02    0.233E-01
RMM:   6    -0.232208891589E+04    0.25245E-03   -0.14734E-03  5368   0.222E-02    0.179E-01
RMM:   7    -0.232208863328E+04    0.28261E-03   -0.52280E-04  4948   0.157E-02    0.386E-02
RMM:   8    -0.232208861374E+04    0.19542E-04   -0.73062E-05  3200   0.797E-03    0.231E-02
RMM:   9    -0.232208860349E+04    0.10252E-04   -0.23683E-05  2898   0.464E-03    0.919E-03
RMM:  10    -0.232208860063E+04    0.28604E-05   -0.12097E-05  2896   0.340E-03
  25 F= -.23430541E+04 E0= -.23430541E+04  d E =-.808160E-01  mag=     6.0000
       N       E                     dE             d eps       ncg     rms          rms(c)
DAV:   1    -0.232194539076E+04    0.14321E+00   -0.10859E+01  4480   0.319E+00    0.113E+00
RMM:   2    -0.232213770417E+04   -0.19231E+00   -0.19948E+00  6207   0.762E-01    0.963E-01
RMM:   3    -0.232214677028E+04   -0.90661E-02   -0.20426E-01  5759   0.281E-01    0.651E-01
RMM:   4    -0.232214380252E+04    0.29678E-02   -0.18562E-02  5786   0.574E-02    0.286E-01
RMM:   5    -0.232214289831E+04    0.90421E-03   -0.20000E-03  5363   0.290E-02    0.157E-01
RMM:   6    -0.232214278918E+04    0.10913E-03   -0.15133E-03  5139   0.253E-02    0.104E-01
RMM:   7    -0.232214275230E+04    0.36884E-04   -0.34248E-04  4292   0.149E-02    0.815E-02
RMM:   8    -0.232214269011E+04    0.62187E-04   -0.63148E-05  3005   0.539E-03    0.287E-02
RMM:   9    -0.232214267847E+04    0.11639E-04   -0.36890E-05  2896   0.487E-03    0.130E-02
RMM:  10    -0.232214267594E+04    0.25311E-05   -0.11820E-05  2869   0.272E-03
  26 F= -.23431073E+04 E0= -.23431073E+04  d E =-.531721E-01  mag=     6.0000
       N       E                     dE             d eps       ncg     rms          rms(c)
DAV:   1    -0.232037813434E+04    0.17645E+01   -0.97530E+01  4480   0.958E+00    0.359E+00
RMM:   2    -0.232235542783E+04   -0.19773E+01   -0.19905E+01  6337   0.245E+00    0.401E+00
RMM:   3    -0.232225719152E+04    0.98236E-01   -0.19583E+00  5752   0.827E-01    0.158E+00
RMM:   4    -0.232224529419E+04    0.11897E-01   -0.17543E-01  5455   0.167E-01    0.891E-01
RMM:   5    -0.232224475227E+04    0.54192E-03   -0.20434E-02  5641   0.882E-02    0.940E-01
RMM:   6    -0.232223853998E+04    0.62123E-02   -0.16316E-02  5731   0.722E-02    0.612E-01
RMM:   7    -0.232223564671E+04    0.28933E-02   -0.10522E-02  5625   0.628E-02    0.229E-01
RMM:   8    -0.232223532369E+04    0.32301E-03   -0.85314E-04  5085   0.224E-02    0.953E-02
RMM:   9    -0.232223525051E+04    0.73179E-04   -0.25944E-04  4154   0.102E-02    0.619E-02
RMM:  10    -0.232223521091E+04    0.39605E-04   -0.18372E-04  3466   0.967E-03    0.240E-02
RMM:  11    -0.232223520400E+04    0.69087E-05   -0.35330E-05  3104   0.481E-03
  27 F= -.23431965E+04 E0= -.23431965E+04  d E =-.142383E+00  mag=     6.0000
       N       E                     dE             d eps       ncg     rms          rms(c)
DAV:   1    -0.232181072166E+04    0.42449E+00   -0.24896E+01  4480   0.468E+00    0.178E+00
RMM:   2    -0.232231809032E+04   -0.50737E+00   -0.52942E+00  6219   0.121E+00    0.157E+00
RMM:   3    -0.232234005417E+04   -0.21964E-01   -0.58471E-01  5740   0.461E-01    0.884E-01
RMM:   4    -0.232233660637E+04    0.34478E-02   -0.48431E-02  5738   0.842E-02    0.484E-01
RMM:   5    -0.232233594971E+04    0.65665E-03   -0.59758E-03  5719   0.430E-02    0.486E-01
RMM:   6    -0.232233354472E+04    0.24050E-02   -0.47555E-03  5624   0.385E-02    0.225E-01
RMM:   7    -0.232233316864E+04    0.37608E-03   -0.19127E-03  5359   0.273E-02    0.609E-02
RMM:   8    -0.232233312686E+04    0.41776E-04   -0.17772E-04  3923   0.117E-02    0.456E-02
RMM:   9    -0.232233309867E+04    0.28197E-04   -0.12998E-04  3207   0.806E-03    0.270E-02
RMM:  10    -0.232233308707E+04    0.11600E-04   -0.21505E-05  2960   0.433E-03    0.103E-02
RMM:  11    -0.232233308479E+04    0.22747E-05   -0.89729E-06  2870   0.334E-03
  28 F= -.23432932E+04 E0= -.23432932E+04  d E =-.967485E-01  mag=     6.0000
       N       E                     dE             d eps       ncg     rms          rms(c)
DAV:   1    -0.232157421737E+04    0.75887E+00   -0.39103E+01  4464   0.584E+00    0.223E+00
RMM:   2    -0.232237539856E+04   -0.80118E+00   -0.83226E+00  6239   0.152E+00    0.210E+00
RMM:   3    -0.232239414982E+04   -0.18751E-01   -0.88220E-01  5728   0.571E-01    0.105E+00
RMM:   4    -0.232239045636E+04    0.36935E-02   -0.77121E-02  5683   0.105E-01    0.618E-01
RMM:   5    -0.232238953784E+04    0.91852E-03   -0.93338E-03  5782   0.541E-02    0.623E-01
RMM:   6    -0.232238537381E+04    0.41640E-02   -0.70243E-03  5552   0.482E-02    0.272E-01
RMM:   7    -0.232238490030E+04    0.47351E-03   -0.31768E-03  5454   0.356E-02    0.694E-02
RMM:   8    -0.232238484046E+04    0.59847E-04   -0.24291E-04  4246   0.138E-02    0.448E-02
RMM:   9    -0.232238479702E+04    0.43433E-04   -0.15690E-04  3662   0.863E-03    0.163E-02
RMM:  10    -0.232238479303E+04    0.39949E-05   -0.30918E-05  2965   0.519E-03
  29 F= -.23433433E+04 E0= -.23433433E+04  d E =-.146818E+00  mag=     6.0000
       N       E                     dE             d eps       ncg     rms          rms(c)
DAV:   1    -0.232180576618E+04    0.57903E+00   -0.34736E+01  4480   0.531E+00    0.195E+00
RMM:   2    -0.232246924701E+04   -0.66348E+00   -0.69419E+00  6353   0.134E+00    0.179E+00
RMM:   3    -0.232249431035E+04   -0.25063E-01   -0.76407E-01  5836   0.516E-01    0.889E-01
RMM:   4    -0.232249242364E+04    0.18867E-02   -0.69575E-02  5763   0.931E-02    0.533E-01
RMM:   5    -0.232249107221E+04    0.13514E-02   -0.70193E-03  5722   0.460E-02    0.515E-01
RMM:   6    -0.232248867324E+04    0.23990E-02   -0.55468E-03  5698   0.398E-02    0.299E-01
RMM:   7    -0.232248795172E+04    0.72151E-03   -0.25674E-03  5608   0.300E-02    0.755E-02
RMM:   8    -0.232248789450E+04    0.57219E-04   -0.27056E-04  4230   0.128E-02    0.644E-02
RMM:   9    -0.232248784691E+04    0.47597E-04   -0.14946E-04  3170   0.845E-03    0.286E-02
RMM:  10    -0.232248782944E+04    0.17467E-04   -0.41236E-05  3065   0.477E-03    0.105E-02
RMM:  11    -0.232248782706E+04    0.23827E-05   -0.10755E-05  2880   0.406E-03
  30 F= -.23434445E+04 E0= -.23434445E+04  d E =-.101253E+00  mag=     6.0000
       N       E                     dE             d eps       ncg     rms          rms(c)
DAV:   1    -0.232021941734E+04    0.22684E+01   -0.11455E+02  4480   0.970E+00    0.371E+00
RMM:   2    -0.232265859666E+04   -0.24392E+01   -0.25050E+01  6437   0.258E+00    0.414E+00
RMM:   3    -0.232257985657E+04    0.78740E-01   -0.25247E+00  5859   0.918E-01    0.144E+00
RMM:   4    -0.232257973905E+04    0.11752E-03   -0.23135E-01  5677   0.168E-01    0.965E-01
RMM:   5    -0.232257722337E+04    0.25157E-02   -0.24421E-02  5633   0.878E-02    0.103E+00
RMM:   6    -0.232256773613E+04    0.94872E-02   -0.18854E-02  5691   0.721E-02    0.594E-01
RMM:   7    -0.232256520496E+04    0.25312E-02   -0.10432E-02  5728   0.616E-02    0.233E-01
RMM:   8    -0.232256472052E+04    0.48444E-03   -0.10342E-03  5045   0.242E-02    0.865E-02
RMM:   9    -0.232256463976E+04    0.80757E-04   -0.32020E-04  4695   0.106E-02    0.815E-02
RMM:  10    -0.232256455725E+04    0.82507E-04   -0.21282E-04  3666   0.100E-02    0.227E-02
RMM:  11    -0.232256454645E+04    0.10801E-04   -0.50849E-05  3313   0.527E-03    0.104E-02
RMM:  12    -0.232256454497E+04    0.14808E-05   -0.13707E-05  2889   0.473E-03
  31 F= -.23435175E+04 E0= -.23435175E+04  d E =-.174175E+00  mag=     6.0000
       N       E                     dE             d eps       ncg     rms          rms(c)
DAV:   1    -0.232160521475E+04    0.95933E+00   -0.70838E+01  4480   0.763E+00    0.252E+00
RMM:   2    -0.232269040565E+04   -0.10852E+01   -0.11337E+01  6294   0.180E+00    0.234E+00
RMM:   3    -0.232271235277E+04   -0.21947E-01   -0.11911E+00  5704   0.729E-01    0.126E+00
RMM:   4    -0.232270877256E+04    0.35802E-02   -0.11307E-01  5983   0.129E-01    0.862E-01
RMM:   5    -0.232270566218E+04    0.31104E-02   -0.13815E-02  5789   0.608E-02    0.704E-01
RMM:   6    -0.232270015370E+04    0.55085E-02   -0.11061E-02  5396   0.586E-02    0.325E-01
RMM:   7    -0.232269948697E+04    0.66673E-03   -0.43124E-03  5669   0.425E-02    0.113E-01
RMM:   8    -0.232269940155E+04    0.85419E-04   -0.52621E-04  4855   0.169E-02    0.969E-02
RMM:   9    -0.232269930552E+04    0.96029E-04   -0.24754E-04  3466   0.102E-02    0.318E-02
RMM:  10    -0.232269928701E+04    0.18510E-04   -0.62494E-05  3093   0.561E-03    0.114E-02
RMM:  11    -0.232269928447E+04    0.25361E-05   -0.11837E-05  2890   0.420E-03
  32 F= -.23436508E+04 E0= -.23436508E+04  d E =-.133330E+00  mag=     6.0000
       N       E                     dE             d eps       ncg     rms          rms(c)
DAV:   1    -0.232174409635E+04    0.95519E+00   -0.64804E+01  4480   0.729E+00    0.240E+00
RMM:   2    -0.232272525993E+04   -0.98116E+00   -0.10302E+01  6303   0.171E+00    0.211E+00
RMM:   3    -0.232275928509E+04   -0.34025E-01   -0.11079E+00  5700   0.706E-01    0.126E+00
RMM:   4    -0.232275542564E+04    0.38595E-02   -0.10666E-01  6037   0.124E-01    0.850E-01
RMM:   5    -0.232275199735E+04    0.34283E-02   -0.13163E-02  5868   0.576E-02    0.659E-01
RMM:   6    -0.232274725881E+04    0.47385E-02   -0.10736E-02  5444   0.564E-02    0.325E-01
RMM:   7    -0.232274654316E+04    0.71565E-03   -0.41485E-03  5758   0.403E-02    0.132E-01
RMM:   8    -0.232274641133E+04    0.13183E-03   -0.56722E-04  4873   0.166E-02    0.993E-02
RMM:   9    -0.232274629950E+04    0.11183E-03   -0.22515E-04  3438   0.100E-02    0.288E-02
RMM:  10    -0.232274628213E+04    0.17369E-04   -0.78407E-05  3132   0.610E-03    0.109E-02
RMM:  11    -0.232274628019E+04    0.19371E-05   -0.12221E-05  2896   0.434E-03
  33 F= -.23436962E+04 E0= -.23436962E+04  d E =-.178771E+00  mag=     6.0000
       N       E                     dE             d eps       ncg     rms          rms(c)
DAV:   1    -0.232166835070E+04    0.10779E+01   -0.10740E+02  4472   0.916E+00    0.273E+00
RMM:   2    -0.232291176884E+04   -0.12434E+01   -0.12916E+01  6260   0.202E+00    0.250E+00
RMM:   3    -0.232292285596E+04   -0.11087E-01   -0.13098E+00  5809   0.783E-01    0.169E+00
RMM:   4    -0.232291142972E+04    0.11426E-01   -0.13077E-01  6139   0.152E-01    0.101E+00
RMM:   5    -0.232290545406E+04    0.59757E-02   -0.21401E-02  5865   0.772E-02    0.777E-01
RMM:   6    -0.232289862998E+04    0.68241E-02   -0.17442E-02  5347   0.748E-02    0.363E-01
RMM:   7    -0.232289760898E+04    0.10210E-02   -0.51428E-03  5701   0.506E-02    0.151E-01
RMM:   8    -0.232289742586E+04    0.18312E-03   -0.73546E-04  5141   0.182E-02    0.107E-01
RMM:   9    -0.232289729570E+04    0.13015E-03   -0.32636E-04  4232   0.124E-02    0.335E-02
RMM:  10    -0.232289727604E+04    0.19666E-04   -0.94314E-05  3564   0.689E-03    0.137E-02
RMM:  11    -0.232289727377E+04    0.22686E-05   -0.19209E-05  2944   0.516E-03
  34 F= -.23438499E+04 E0= -.23438499E+04  d E =-.153685E+00  mag=     6.0000
       N       E                     dE             d eps       ncg     rms          rms(c)
DAV:   1    -0.232265101438E+04    0.24626E+00   -0.23905E+01  4512   0.431E+00    0.126E+00
RMM:   2    -0.232290969260E+04   -0.25868E+00   -0.27136E+00  6278   0.956E-01    0.989E-01
RMM:   3    -0.232292091446E+04   -0.11222E-01   -0.26028E-01  5989   0.297E-01    0.881E-01
RMM:   4    -0.232291684396E+04    0.40705E-02   -0.27211E-02  6209   0.680E-02    0.422E-01
RMM:   5    -0.232291543052E+04    0.14134E-02   -0.44445E-03  5456   0.359E-02    0.307E-01
RMM:   6    -0.232291476457E+04    0.66596E-03   -0.37328E-03  5648   0.349E-02    0.219E-01
RMM:   7    -0.232291428961E+04    0.47496E-03   -0.11019E-03  5545   0.226E-02    0.833E-02
RMM:   8    -0.232291423267E+04    0.56935E-04   -0.16994E-04  3717   0.847E-03    0.398E-02
RMM:   9    -0.232291421495E+04    0.17720E-04   -0.47297E-05  3013   0.614E-03    0.145E-02
RMM:  10    -0.232291421371E+04    0.12409E-05   -0.27537E-05  2942   0.460E-03
  35 F= -.23438681E+04 E0= -.23438681E+04  d E =-.171826E+00  mag=     6.0000
       N       E                     dE             d eps       ncg     rms          rms(c)
DAV:   1    -0.232263093442E+04    0.28328E+00   -0.40883E+01  4480   0.580E+00    0.171E+00
RMM:   2    -0.232298660061E+04   -0.35567E+00   -0.37377E+00  6132   0.124E+00    0.121E+00
RMM:   3    -0.232299021563E+04   -0.36150E-02   -0.33057E-01  5916   0.390E-01    0.117E+00
RMM:   4    -0.232298195392E+04    0.82617E-02   -0.38114E-02  6235   0.961E-02    0.555E-01
RMM:   5    -0.232297916869E+04    0.27852E-02   -0.88798E-03  5311   0.579E-02    0.384E-01
RMM:   6    -0.232297819452E+04    0.97417E-03   -0.62529E-03  5815   0.499E-02    0.265E-01
RMM:   7    -0.232297742808E+04    0.76644E-03   -0.15718E-03  5760   0.291E-02    0.105E-01
RMM:   8    -0.232297733036E+04    0.97724E-04   -0.27369E-04  4341   0.101E-02    0.464E-02
RMM:   9    -0.232297730037E+04    0.29986E-04   -0.78559E-05  3467   0.775E-03    0.180E-02
RMM:  10    -0.232297729281E+04    0.75594E-05   -0.46127E-05  3383   0.606E-03
  36 F= -.23439334E+04 E0= -.23439334E+04  d E =-.653321E-01  mag=     6.0000
       N       E                     dE             d eps       ncg     rms          rms(c)
DAV:   1    -0.232297655271E+04    0.74766E-03   -0.94396E-02  5376   0.278E-01    0.820E-02
RMM:   2    -0.232297734703E+04   -0.79432E-03   -0.84227E-03  6291   0.630E-02    0.543E-02
RMM:   3    -0.232297737386E+04   -0.26836E-04   -0.72257E-04  3737   0.181E-02    0.604E-02
RMM:   4    -0.232297734907E+04    0.24794E-04   -0.91992E-05  2978   0.593E-03    0.254E-02
RMM:   5    -0.232297734045E+04    0.86175E-05   -0.23018E-05  2942   0.422E-03
  37 F= -.23439335E+04 E0= -.23439335E+04  d E =-.654850E-01  mag=     6.0000
       N       E                     dE             d eps       ncg     rms          rms(c)
DAV:   1    -0.232292969469E+04    0.47654E-01   -0.10799E+01  4480   0.326E+00    0.895E-01
RMM:   2    -0.232301097271E+04   -0.81278E-01   -0.86057E-01  6020   0.665E-01    0.435E-01
RMM:   3    -0.232301271159E+04   -0.17389E-02   -0.70454E-02  5642   0.204E-01    0.345E-01
RMM:   4    -0.232301262326E+04    0.88331E-04   -0.83288E-03  5762   0.483E-02    0.315E-01
RMM:   5    -0.232301182731E+04    0.79595E-03   -0.22487E-03  5257   0.318E-02    0.186E-01
RMM:   6    -0.232301161766E+04    0.20965E-03   -0.11731E-03  5357   0.242E-02    0.111E-01
RMM:   7    -0.232301148879E+04    0.12887E-03   -0.28914E-04  4816   0.147E-02    0.504E-02
RMM:   8    -0.232301146206E+04    0.26733E-04   -0.57647E-05  3099   0.525E-03    0.179E-02
RMM:   9    -0.232301145594E+04    0.61218E-05   -0.14992E-05  2916   0.394E-03
  38 F= -.23439676E+04 E0= -.23439676E+04  d E =-.340808E-01  mag=     6.0000
       N       E                     dE             d eps       ncg     rms          rms(c)
DAV:   1    -0.232298895411E+04    0.22508E-01   -0.37000E+00  4528   0.190E+00    0.523E-01
RMM:   2    -0.232301676879E+04   -0.27815E-01   -0.29492E-01  6036   0.389E-01    0.252E-01
RMM:   3    -0.232301738576E+04   -0.61697E-03   -0.23936E-02  5610   0.118E-01    0.205E-01
RMM:   4    -0.232301736910E+04    0.16656E-04   -0.28707E-03  5477   0.282E-02    0.188E-01
RMM:   5    -0.232301705103E+04    0.31807E-03   -0.80365E-04  4971   0.194E-02    0.100E-01
RMM:   6    -0.232301697996E+04    0.71064E-04   -0.37082E-04  4896   0.145E-02    0.562E-02
RMM:   7    -0.232301694894E+04    0.31025E-04   -0.89699E-05  3527   0.893E-03    0.313E-02
RMM:   8    -0.232301693847E+04    0.10465E-04   -0.21761E-05  2934   0.422E-03    0.108E-02
RMM:   9    -0.232301693611E+04    0.23631E-05   -0.74771E-06  2882   0.283E-03
  39 F= -.23439731E+04 E0= -.23439731E+04  d E =-.395354E-01  mag=     6.0000
       N       E                     dE             d eps       ncg     rms          rms(c)
DAV:   1    -0.232295912876E+04    0.57810E-01   -0.10385E+01  4464   0.342E+00    0.851E-01
RMM:   2    -0.232304479372E+04   -0.85665E-01   -0.90343E-01  6041   0.663E-01    0.427E-01
RMM:   3    -0.232304844221E+04   -0.36485E-02   -0.78688E-02  5733   0.219E-01    0.326E-01
RMM:   4    -0.232304814148E+04    0.30073E-03   -0.85109E-03  5730   0.489E-02    0.293E-01
RMM:   5    -0.232304744793E+04    0.69355E-03   -0.21177E-03  5403   0.301E-02    0.223E-01
RMM:   6    -0.232304712311E+04    0.32482E-03   -0.15635E-03  5278   0.264E-02    0.129E-01
RMM:   7    -0.232304695931E+04    0.16380E-03   -0.33427E-04  4987   0.158E-02    0.403E-02
RMM:   8    -0.232304693591E+04    0.23402E-04   -0.53819E-05  3138   0.582E-03    0.184E-02
RMM:   9    -0.232304692712E+04    0.87893E-05   -0.19279E-05  2936   0.458E-03
  40 F= -.23440020E+04 E0= -.23440020E+04  d E =-.289061E-01  mag=     6.0000
       N       E                     dE             d eps       ncg     rms          rms(c)
DAV:   1    -0.232302927203E+04    0.17664E-01   -0.25906E+00  4592   0.170E+00    0.425E-01
RMM:   2    -0.232305061887E+04   -0.21347E-01   -0.22521E-01  6032   0.331E-01    0.213E-01
RMM:   3    -0.232305152183E+04   -0.90296E-03   -0.19317E-02  5666   0.110E-01    0.168E-01
RMM:   4    -0.232305145099E+04    0.70843E-04   -0.21425E-03  5429   0.247E-02    0.152E-01
RMM:   5    -0.232305125481E+04    0.19618E-03   -0.54150E-04  4860   0.156E-02    0.109E-01
RMM:   6    -0.232305116916E+04    0.85648E-04   -0.40384E-04  4845   0.141E-02    0.622E-02
RMM:   7    -0.232305112829E+04    0.40872E-04   -0.82661E-05  3701   0.863E-03    0.197E-02
RMM:   8    -0.232305112167E+04    0.66161E-05   -0.15502E-05  2897   0.417E-03
  41 F= -.23440056E+04 E0= -.23440056E+04  d E =-.325662E-01  mag=     6.0000
       N       E                     dE             d eps       ncg     rms          rms(c)
DAV:   1    -0.232301241083E+04    0.38717E-01   -0.73797E+00  4480   0.294E+00    0.710E-01
RMM:   2    -0.232307386315E+04   -0.61452E-01   -0.64027E-01  6047   0.540E-01    0.432E-01
RMM:   3    -0.232307742349E+04   -0.35603E-02   -0.56670E-02  5706   0.194E-01    0.420E-01
RMM:   4    -0.232307590783E+04    0.15157E-02   -0.66276E-03  6128   0.431E-02    0.224E-01
RMM:   5    -0.232307563922E+04    0.26861E-03   -0.13463E-03  5108   0.223E-02    0.217E-01
RMM:   6    -0.232307518846E+04    0.45076E-03   -0.13228E-03  5354   0.243E-02    0.923E-02
RMM:   7    -0.232307513225E+04    0.56210E-04   -0.27480E-04  4639   0.144E-02    0.274E-02
RMM:   8    -0.232307512351E+04    0.87361E-05   -0.31686E-05  2996   0.628E-03
  42 F= -.23440286E+04 E0= -.23440286E+04  d E =-.229567E-01  mag=     6.0000
       N       E                     dE             d eps       ncg     rms          rms(c)
DAV:   1    -0.232301312485E+04    0.62007E-01   -0.81872E+00  4480   0.309E+00    0.748E-01
RMM:   2    -0.232308129465E+04   -0.68170E-01   -0.71029E-01  6050   0.566E-01    0.455E-01
RMM:   3    -0.232308530608E+04   -0.40114E-02   -0.63087E-02  5713   0.203E-01    0.443E-01
RMM:   4    -0.232308360825E+04    0.16978E-02   -0.73780E-03  6110   0.451E-02    0.237E-01
RMM:   5    -0.232308330792E+04    0.30033E-03   -0.15046E-03  5122   0.234E-02    0.230E-01
RMM:   6    -0.232308280511E+04    0.50282E-03   -0.14891E-03  5380   0.256E-02    0.998E-02
RMM:   7    -0.232308273553E+04    0.69581E-04   -0.30732E-04  4738   0.151E-02    0.294E-02
RMM:   8    -0.232308272407E+04    0.11457E-04   -0.37543E-05  3047   0.664E-03    0.139E-02
RMM:   9    -0.232308272119E+04    0.28796E-05   -0.15799E-05  2924   0.421E-03
  43 F= -.23440351E+04 E0= -.23440351E+04  d E =-.294662E-01  mag=     6.0000
       N       E                     dE             d eps       ncg     rms          rms(c)
DAV:   1    -0.232306687047E+04    0.15854E-01   -0.32648E+00  4528   0.195E+00    0.448E-01
RMM:   2    -0.232309670396E+04   -0.29833E-01   -0.30735E-01  5960   0.356E-01    0.300E-01
RMM:   3    -0.232309846691E+04   -0.17630E-02   -0.29213E-02  5528   0.144E-01    0.238E-01
RMM:   4    -0.232309798436E+04    0.48255E-03   -0.30048E-03  5849   0.278E-02    0.142E-01
RMM:   5    -0.232309787605E+04    0.10830E-03   -0.53373E-04  4690   0.148E-02    0.149E-01
RMM:   6    -0.232309766758E+04    0.20847E-03   -0.57089E-04  5078   0.160E-02    0.645E-02
RMM:   7    -0.232309764414E+04    0.23441E-04   -0.12098E-04  4056   0.103E-02    0.181E-02
RMM:   8    -0.232309764050E+04    0.36403E-05   -0.16166E-05  2910   0.475E-03
  44 F= -.23440499E+04 E0= -.23440499E+04  d E =-.147885E-01  mag=     6.0000
       N       E                     dE             d eps       ncg     rms          rms(c)
DAV:   1    -0.232283685860E+04    0.26079E+00   -0.29347E+01  4464   0.584E+00    0.134E+00
RMM:   2    -0.232310745659E+04   -0.27060E+00   -0.27970E+00  6110   0.108E+00    0.869E-01
RMM:   3    -0.232312432508E+04   -0.16868E-01   -0.26977E-01  5652   0.397E-01    0.682E-01
RMM:   4    -0.232312043983E+04    0.38853E-02   -0.26226E-02  6103   0.812E-02    0.400E-01
RMM:   5    -0.232311884025E+04    0.15996E-02   -0.49145E-03  5154   0.457E-02    0.347E-01
RMM:   6    -0.232311828505E+04    0.55520E-03   -0.48452E-03  5661   0.440E-02    0.310E-01
RMM:   7    -0.232311753324E+04    0.75181E-03   -0.12422E-03  5368   0.272E-02    0.755E-02
RMM:   8    -0.232311747096E+04    0.62276E-04   -0.17852E-04  4077   0.109E-02    0.325E-02
RMM:   9    -0.232311745659E+04    0.14370E-04   -0.67292E-05  3146   0.765E-03    0.152E-02
RMM:  10    -0.232311745672E+04   -0.12451E-06   -0.18644E-05  2916   0.453E-03
  45 F= -.23440693E+04 E0= -.23440693E+04  d E =-.342383E-01  mag=     6.0000
       N       E                     dE             d eps       ncg     rms          rms(c)
DAV:   1    -0.232310449636E+04    0.12960E-01   -0.22181E+00  4592   0.159E+00    0.454E-01
RMM:   2    -0.232313228762E+04   -0.27791E-01   -0.29069E-01  5948   0.321E-01    0.346E-01
RMM:   3    -0.232313389742E+04   -0.16098E-02   -0.30344E-02  5542   0.131E-01    0.237E-01
RMM:   4    -0.232313347402E+04    0.42340E-03   -0.28573E-03  5451   0.258E-02    0.128E-01
RMM:   5    -0.232313340058E+04    0.73439E-04   -0.57064E-04  4919   0.161E-02    0.141E-01
RMM:   6    -0.232313320821E+04    0.19237E-03   -0.41691E-04  4750   0.132E-02    0.566E-02
RMM:   7    -0.232313318878E+04    0.19434E-04   -0.11249E-04  3988   0.924E-03    0.209E-02
RMM:   8    -0.232313318439E+04    0.43897E-05   -0.18331E-05  2926   0.528E-03
  46 F= -.23440854E+04 E0= -.23440854E+04  d E =-.160417E-01  mag=     6.0000
       N       E                     dE             d eps       ncg     rms          rms(c)
DAV:   1    -0.232304651619E+04    0.86673E-01   -0.74803E+00  4464   0.291E+00    0.836E-01
RMM:   2    -0.232314097529E+04   -0.94459E-01   -0.98840E-01  6012   0.594E-01    0.644E-01
RMM:   3    -0.232314621215E+04   -0.52369E-02   -0.10316E-01  5633   0.232E-01    0.432E-01
RMM:   4    -0.232314482577E+04    0.13864E-02   -0.95950E-03  5670   0.469E-02    0.232E-01
RMM:   5    -0.232314449829E+04    0.32747E-03   -0.19249E-03  5459   0.289E-02    0.243E-01
RMM:   6    -0.232314393570E+04    0.56259E-03   -0.12912E-03  5512   0.224E-02    0.114E-01
RMM:   7    -0.232314384170E+04    0.93997E-04   -0.36384E-04  4781   0.149E-02    0.408E-02
RMM:   8    -0.232314382024E+04    0.21462E-04   -0.58383E-05  3232   0.772E-03    0.250E-02
RMM:   9    -0.232314380965E+04    0.10589E-04   -0.36132E-05  2924   0.551E-03    0.972E-03
RMM:  10    -0.232314380748E+04    0.21718E-05   -0.90572E-06  2889   0.366E-03
  47 F= -.23440966E+04 E0= -.23440966E+04  d E =-.272505E-01  mag=     6.0000
       N       E                     dE             d eps       ncg     rms          rms(c)
DAV:   1    -0.232312219578E+04    0.21614E-01   -0.25259E+00  4496   0.168E+00    0.486E-01
RMM:   2    -0.232315634221E+04   -0.34146E-01   -0.35427E-01  6055   0.346E-01    0.405E-01
RMM:   3    -0.232315827266E+04   -0.19305E-02   -0.36902E-02  5608   0.135E-01    0.268E-01
RMM:   4    -0.232315780464E+04    0.46801E-03   -0.35833E-03  5504   0.273E-02    0.143E-01
RMM:   5    -0.232315770681E+04    0.97830E-04   -0.53144E-04  4747   0.147E-02    0.138E-01
RMM:   6    -0.232315747916E+04    0.22766E-03   -0.47181E-04  4815   0.142E-02    0.530E-02
RMM:   7    -0.232315746488E+04    0.14278E-04   -0.16154E-04  4149   0.106E-02    0.204E-02
RMM:   8    -0.232315746031E+04    0.45630E-05   -0.17545E-05  2938   0.491E-03
  48 F= -.23441104E+04 E0= -.23441104E+04  d E =-.137723E-01  mag=     6.0000
       N       E                     dE             d eps       ncg     rms          rms(c)
DAV:   1    -0.232302420598E+04    0.13326E+00   -0.10202E+01  4464   0.337E+00    0.980E-01
RMM:   2    -0.232316307000E+04   -0.13886E+00   -0.14417E+00  6098   0.703E-01    0.820E-01
RMM:   3    -0.232317093040E+04   -0.78604E-02   -0.15355E-01  5730   0.264E-01    0.531E-01
RMM:   4    -0.232316903832E+04    0.18921E-02   -0.14430E-02  5735   0.541E-02    0.276E-01
RMM:   5    -0.232316862516E+04    0.41315E-03   -0.21523E-03  5543   0.286E-02    0.271E-01
RMM:   6    -0.232316778958E+04    0.83558E-03   -0.17920E-03  5435   0.263E-02    0.119E-01
RMM:   7    -0.232316769148E+04    0.98102E-04   -0.64589E-04  4935   0.187E-02    0.413E-02
RMM:   8    -0.232316766769E+04    0.23791E-04   -0.68755E-05  3388   0.851E-03    0.255E-02
RMM:   9    -0.232316765789E+04    0.97935E-05   -0.40579E-05  2947   0.568E-03
  49 F= -.23441208E+04 E0= -.23441208E+04  d E =-.242062E-01  mag=     6.0000
       N       E                     dE             d eps       ncg     rms          rms(c)
DAV:   1    -0.232312225494E+04    0.45413E-01   -0.46771E+00  4480   0.228E+00    0.627E-01
RMM:   2    -0.232318290302E+04   -0.60648E-01   -0.62206E-01  6188   0.466E-01    0.547E-01
RMM:   3    -0.232318640404E+04   -0.35010E-02   -0.63309E-02  5801   0.168E-01    0.379E-01
RMM:   4    -0.232318548755E+04    0.91649E-03   -0.65312E-03  5647   0.361E-02    0.185E-01
RMM:   5    -0.232318527756E+04    0.21000E-03   -0.88782E-04  5171   0.180E-02    0.174E-01
RMM:   6    -0.232318489988E+04    0.37768E-03   -0.79328E-04  5045   0.184E-02    0.735E-02
RMM:   7    -0.232318485879E+04    0.41085E-04   -0.33526E-04  4719   0.140E-02    0.243E-02
RMM:   8    -0.232318484978E+04    0.90160E-05   -0.28242E-05  2997   0.632E-03
  50 F= -.23441374E+04 E0= -.23441374E+04  d E =-.165924E-01  mag=     6.0000
       N       E                     dE             d eps       ncg     rms          rms(c)
DAV:   1    -0.232305589256E+04    0.12897E+00   -0.10355E+01  4480   0.339E+00    0.931E-01
RMM:   2    -0.232319042636E+04   -0.13453E+00   -0.13840E+00  6214   0.694E-01    0.794E-01
RMM:   3    -0.232319907789E+04   -0.86515E-02   -0.14449E-01  5826   0.246E-01    0.579E-01
RMM:   4    -0.232319682622E+04    0.22517E-02   -0.14481E-02  5723   0.535E-02    0.271E-01
RMM:   5    -0.232319632762E+04    0.49860E-03   -0.19351E-03  5532   0.265E-02    0.254E-01
RMM:   6    -0.232319556582E+04    0.76180E-03   -0.17180E-03  5301   0.261E-02    0.121E-01
RMM:   7    -0.232319543246E+04    0.13336E-03   -0.76378E-04  5057   0.199E-02    0.406E-02
RMM:   8    -0.232319540585E+04    0.26608E-04   -0.77192E-05  3474   0.972E-03    0.244E-02
RMM:   9    -0.232319539475E+04    0.11100E-04   -0.39464E-05  2959   0.543E-03    0.883E-03
RMM:  10    -0.232319539359E+04    0.11599E-05   -0.88593E-06  2884   0.356E-03
  51 F= -.23441470E+04 E0= -.23441470E+04  d E =-.262114E-01  mag=     6.0000
       N       E                     dE             d eps       ncg     rms          rms(c)
DAV:   1    -0.232316361680E+04    0.31778E-01   -0.35082E+00  4512   0.198E+00    0.608E-01
RMM:   2    -0.232320713598E+04   -0.43519E-01   -0.44911E-01  6131   0.411E-01    0.480E-01
RMM:   3    -0.232320934256E+04   -0.22066E-02   -0.40961E-02  5799   0.143E-01    0.394E-01
RMM:   4    -0.232320802436E+04    0.13182E-02   -0.46686E-03  5628   0.347E-02    0.171E-01
RMM:   5    -0.232320791899E+04    0.10537E-03   -0.10551E-03  5362   0.207E-02    0.179E-01
RMM:   6    -0.232320754374E+04    0.37525E-03   -0.74529E-04  5189   0.180E-02    0.634E-02
RMM:   7    -0.232320750981E+04    0.33929E-04   -0.19522E-04  4449   0.119E-02    0.211E-02
RMM:   8    -0.232320750105E+04    0.87554E-05   -0.24432E-05  2947   0.553E-03
  52 F= -.23441578E+04 E0= -.23441578E+04  d E =-.108061E-01  mag=     6.0000
       N       E                     dE             d eps       ncg     rms          rms(c)
DAV:   1    -0.232320681250E+04    0.69731E-03   -0.85865E-02  5128   0.311E-01    0.961E-02
RMM:   2    -0.232320789708E+04   -0.10846E-02   -0.11163E-02  6257   0.665E-02    0.797E-02
RMM:   3    -0.232320794025E+04   -0.43176E-04   -0.98111E-04  4020   0.221E-02    0.609E-02
RMM:   4    -0.232320791068E+04    0.29572E-04   -0.11692E-04  3002   0.661E-03    0.279E-02
RMM:   5    -0.232320790711E+04    0.35753E-05   -0.28171E-05  2916   0.447E-03
  53 F= -.23441580E+04 E0= -.23441580E+04  d E =-.110075E-01  mag=     6.0000
       N       E                     dE             d eps       ncg     rms          rms(c)
DAV:   1    -0.232320074880E+04    0.71619E-02   -0.12469E+00  4496   0.118E+00    0.327E-01
RMM:   2    -0.232321444625E+04   -0.13697E-01   -0.14092E-01  6142   0.234E-01    0.289E-01
RMM:   3    -0.232321498009E+04   -0.53384E-03   -0.12833E-02  5745   0.815E-02    0.214E-01
RMM:   4    -0.232321461482E+04    0.36526E-03   -0.13953E-03  5018   0.193E-02    0.995E-02
RMM:   5    -0.232321457853E+04    0.36296E-04   -0.33696E-04  4391   0.126E-02    0.102E-01
RMM:   6    -0.232321444762E+04    0.13091E-03   -0.27932E-04  4535   0.117E-02    0.344E-02
RMM:   7    -0.232321443951E+04    0.81114E-05   -0.56622E-05  3132   0.811E-03
  54 F= -.23441639E+04 E0= -.23441639E+04  d E =-.590245E-02  mag=     6.0000
       N       E                     dE             d eps       ncg     rms          rms(c)
DAV:   1    -0.232317759111E+04    0.36857E-01   -0.34970E+00  4464   0.197E+00    0.553E-01
RMM:   2    -0.232321621708E+04   -0.38626E-01   -0.39730E-01  6120   0.393E-01    0.494E-01
RMM:   3    -0.232321777880E+04   -0.15617E-02   -0.36986E-02  5782   0.140E-01    0.372E-01
RMM:   4    -0.232321668058E+04    0.10982E-02   -0.39760E-03  5463   0.326E-02    0.169E-01
RMM:   5    -0.232321655639E+04    0.12419E-03   -0.91097E-04  5288   0.193E-02    0.168E-01
RMM:   6    -0.232321618637E+04    0.37002E-03   -0.75886E-04  4981   0.184E-02    0.567E-02
RMM:   7    -0.232321615687E+04    0.29495E-04   -0.18192E-04  4242   0.123E-02    0.180E-02
RMM:   8    -0.232321614926E+04    0.76088E-05   -0.23839E-05  3002   0.497E-03
  55 F= -.23441646E+04 E0= -.23441646E+04  d E =-.655136E-02  mag=     6.0000
       N       E                     dE             d eps       ncg     rms          rms(c)
DAV:   1    -0.232321002044E+04    0.61364E-02   -0.62017E-01  4528   0.828E-01    0.231E-01
RMM:   2    -0.232321679614E+04   -0.67757E-02   -0.69716E-02  6101   0.164E-01    0.203E-01
RMM:   3    -0.232321708566E+04   -0.28952E-03   -0.64772E-03  5529   0.619E-02    0.154E-01
RMM:   4    -0.232321690276E+04    0.18290E-03   -0.69358E-04  4483   0.139E-02    0.716E-02
RMM:   5    -0.232321687975E+04    0.23007E-04   -0.15676E-04  3328   0.908E-03    0.698E-02
RMM:   6    -0.232321681849E+04    0.61263E-04   -0.14558E-04  4035   0.929E-03    0.220E-02
RMM:   7    -0.232321681572E+04    0.27693E-05   -0.31506E-05  2995   0.642E-03
  56 F= -.23441657E+04 E0= -.23441657E+04  d E =-.766557E-02  mag=     6.0000
       N       E                     dE             d eps       ncg     rms          rms(c)
DAV:   1    -0.232321193481E+04    0.48837E-02   -0.10226E+00  4496   0.106E+00    0.272E-01
RMM:   2    -0.232322215732E+04   -0.10223E-01   -0.10508E-01  6057   0.201E-01    0.261E-01
RMM:   3    -0.232322245241E+04   -0.29508E-03   -0.96942E-03  5564   0.727E-02    0.166E-01
RMM:   4    -0.232322223924E+04    0.21317E-03   -0.10207E-03  4746   0.159E-02    0.867E-02
RMM:   5    -0.232322220146E+04    0.37776E-04   -0.19097E-04  3345   0.983E-03    0.808E-02
RMM:   6    -0.232322211306E+04    0.88403E-04   -0.20936E-04  4286   0.107E-02    0.288E-02
RMM:   7    -0.232322211034E+04    0.27214E-05   -0.45388E-05  3017   0.780E-03
  57 F= -.23441706E+04 E0= -.23441706E+04  d E =-.495156E-02  mag=     6.0000
       N       E                     dE             d eps       ncg     rms          rms(c)
DAV:   1    -0.232313636783E+04    0.85745E-01   -0.91796E+00  4464   0.319E+00    0.824E-01
RMM:   2    -0.232322884761E+04   -0.92480E-01   -0.95133E-01  6111   0.609E-01    0.789E-01
RMM:   3    -0.232323156190E+04   -0.27143E-02   -0.90710E-02  5735   0.218E-01    0.502E-01
RMM:   4    -0.232322966340E+04    0.18985E-02   -0.92709E-03  5518   0.473E-02    0.263E-01
RMM:   5    -0.232322933567E+04    0.32773E-03   -0.17571E-03  5435   0.263E-02    0.241E-01
RMM:   6    -0.232322857192E+04    0.76375E-03   -0.17471E-03  4892   0.274E-02    0.917E-02
RMM:   7    -0.232322853250E+04    0.39420E-04   -0.41997E-04  4451   0.189E-02    0.274E-02
RMM:   8    -0.232322852302E+04    0.94860E-05   -0.51819E-05  3306   0.649E-03
  58 F= -.23441760E+04 E0= -.23441760E+04  d E =-.103222E-01  mag=     6.0000
       N       E                     dE             d eps       ncg     rms          rms(c)
DAV:   1    -0.232322414825E+04    0.43843E-02   -0.82595E-01  4576   0.950E-01    0.244E-01
RMM:   2    -0.232323275042E+04   -0.86022E-02   -0.87194E-02  6080   0.182E-01    0.261E-01
RMM:   3    -0.232323291879E+04   -0.16837E-03   -0.82693E-03  5543   0.643E-02    0.152E-01
RMM:   4    -0.232323276369E+04    0.15510E-03   -0.86496E-04  4485   0.142E-02    0.766E-02
RMM:   5    -0.232323273124E+04    0.32457E-04   -0.14210E-04  3178   0.862E-03    0.706E-02
RMM:   6    -0.232323266694E+04    0.64299E-04   -0.16516E-04  4095   0.959E-03    0.291E-02
RMM:   7    -0.232323266543E+04    0.15090E-05   -0.43555E-05  3018   0.746E-03
  59 F= -.23441799E+04 E0= -.23441799E+04  d E =-.391459E-02  mag=     6.0000
       N       E                     dE             d eps       ncg     rms          rms(c)
DAV:   1    -0.232316315359E+04    0.69513E-01   -0.74116E+00  4464   0.285E+00    0.727E-01
RMM:   2    -0.232323961039E+04   -0.76457E-01   -0.77973E-01  6075   0.546E-01    0.737E-01
RMM:   3    -0.232324179020E+04   -0.21798E-02   -0.75553E-02  5704   0.200E-01    0.452E-01
RMM:   4    -0.232324035790E+04    0.14323E-02   -0.76250E-03  5580   0.424E-02    0.231E-01
RMM:   5    -0.232324006615E+04    0.29175E-03   -0.13326E-03  5336   0.225E-02    0.208E-01
RMM:   6    -0.232323949199E+04    0.57416E-03   -0.13725E-03  4896   0.244E-02    0.846E-02
RMM:   7    -0.232323946127E+04    0.30719E-04   -0.36708E-04  4404   0.175E-02    0.254E-02
RMM:   8    -0.232323945285E+04    0.84179E-05   -0.42068E-05  3164   0.581E-03
  60 F= -.23441860E+04 E0= -.23441860E+04  d E =-.100099E-01  mag=     6.0000
       N       E                     dE             d eps       ncg     rms          rms(c)
DAV:   1    -0.232323628372E+04    0.31775E-02   -0.34305E-01  4768   0.615E-01    0.158E-01
RMM:   2    -0.232323987784E+04   -0.35941E-02   -0.36319E-02  6114   0.119E-01    0.173E-01
RMM:   3    -0.232323993086E+04   -0.53021E-04   -0.33989E-03  5135   0.411E-02    0.978E-02
RMM:   4    -0.232323986648E+04    0.64381E-04   -0.35902E-04  3357   0.946E-03    0.498E-02
RMM:   5    -0.232323985289E+04    0.13590E-04   -0.61564E-05  2980   0.624E-03    0.458E-02
RMM:   6    -0.232323982545E+04    0.27444E-04   -0.71594E-05  3400   0.676E-03    0.193E-02
RMM:   7    -0.232323982467E+04    0.77815E-06   -0.20667E-05  2918   0.539E-03
  61 F= -.23441862E+04 E0= -.23441862E+04  d E =-.102315E-01  mag=     6.0000
       N       E                     dE             d eps       ncg     rms          rms(c)
DAV:   1    -0.232323663567E+04    0.31898E-02   -0.74810E-01  4496   0.906E-01    0.256E-01
RMM:   2    -0.232324499034E+04   -0.83547E-02   -0.84279E-02  6021   0.179E-01    0.257E-01
RMM:   3    -0.232324526795E+04   -0.27761E-03   -0.85027E-03  5600   0.693E-02    0.176E-01
RMM:   4    -0.232324504757E+04    0.22038E-03   -0.85213E-04  4779   0.154E-02    0.712E-02
RMM:   5    -0.232324502282E+04    0.24753E-04   -0.18232E-04  3619   0.960E-03    0.718E-02
RMM:   6    -0.232324496061E+04    0.62205E-04   -0.15749E-04  4103   0.938E-03    0.276E-02
RMM:   7    -0.232324495530E+04    0.53175E-05   -0.34487E-05  2986   0.666E-03
  62 F= -.23441913E+04 E0= -.23441913E+04  d E =-.508857E-02  mag=     6.0000
       N       E                     dE             d eps       ncg     rms          rms(c)
DAV:   1    -0.232321112785E+04    0.33833E-01   -0.34147E+00  4480   0.193E+00    0.546E-01
RMM:   2    -0.232324916418E+04   -0.38036E-01   -0.38383E-01  5966   0.382E-01    0.543E-01
RMM:   3    -0.232325058284E+04   -0.14187E-02   -0.39723E-02  5665   0.153E-01    0.378E-01
RMM:   4    -0.232324953953E+04    0.10433E-02   -0.39142E-03  5642   0.329E-02    0.151E-01
RMM:   5    -0.232324942287E+04    0.11666E-03   -0.83077E-04  5291   0.186E-02    0.154E-01
RMM:   6    -0.232324913426E+04    0.28860E-03   -0.68479E-04  5078   0.172E-02    0.594E-02
RMM:   7    -0.232324910371E+04    0.30546E-04   -0.15497E-04  4184   0.114E-02    0.178E-02
RMM:   8    -0.232324909744E+04    0.62793E-05   -0.20716E-05  2941   0.491E-03
  63 F= -.23441954E+04 E0= -.23441954E+04  d E =-.914401E-02  mag=     6.0000
       N       E                     dE             d eps       ncg     rms          rms(c)
DAV:   1    -0.232323906999E+04    0.10034E-01   -0.13100E+00  4512   0.120E+00    0.343E-01
RMM:   2    -0.232325373771E+04   -0.14668E-01   -0.14840E-01  6079   0.237E-01    0.334E-01
RMM:   3    -0.232325434601E+04   -0.60830E-03   -0.15654E-02  5704   0.907E-02    0.233E-01
RMM:   4    -0.232325394332E+04    0.40269E-03   -0.15314E-03  5183   0.199E-02    0.924E-02
RMM:   5    -0.232325389227E+04    0.51045E-04   -0.30663E-04  4385   0.119E-02    0.910E-02
RMM:   6    -0.232325379544E+04    0.96839E-04   -0.25419E-04  4511   0.109E-02    0.390E-02
RMM:   7    -0.232325378376E+04    0.11680E-04   -0.62676E-05  3291   0.790E-03    0.126E-02
RMM:   8    -0.232325378217E+04    0.15846E-05   -0.10439E-05  2891   0.446E-03
  64 F= -.23442001E+04 E0= -.23442001E+04  d E =-.469059E-02  mag=     6.0000
       N       E                     dE             d eps       ncg     rms          rms(c)
DAV:   1    -0.232324138227E+04    0.12401E-01   -0.12303E+00  4480   0.116E+00    0.332E-01
RMM:   2    -0.232325514175E+04   -0.13759E-01   -0.13937E-01  6067   0.230E-01    0.322E-01
RMM:   3    -0.232325572768E+04   -0.58593E-03   -0.14679E-02  5737   0.869E-02    0.226E-01
RMM:   4    -0.232325534406E+04    0.38362E-03   -0.14385E-03  5181   0.193E-02    0.894E-02
RMM:   5    -0.232325529381E+04    0.50250E-04   -0.28872E-04  4345   0.115E-02    0.878E-02
RMM:   6    -0.232325520229E+04    0.91516E-04   -0.23878E-04  4467   0.106E-02    0.382E-02
RMM:   7    -0.232325518936E+04    0.12930E-04   -0.59867E-05  3286   0.770E-03    0.124E-02
RMM:   8    -0.232325518724E+04    0.21147E-05   -0.10363E-05  2888   0.444E-03
  65 F= -.23442015E+04 E0= -.23442015E+04  d E =-.610279E-02  mag=     6.0000
       N       E                     dE             d eps       ncg     rms          rms(c)
DAV:   1    -0.232325249932E+04    0.26900E-02   -0.72235E-01  4512   0.884E-01    0.250E-01
RMM:   2    -0.232325897801E+04   -0.64787E-02   -0.67483E-02  6000   0.169E-01    0.217E-01
RMM:   3    -0.232325931013E+04   -0.33212E-03   -0.68607E-03  5594   0.634E-02    0.180E-01
RMM:   4    -0.232325904840E+04    0.26174E-03   -0.72265E-04  4780   0.150E-02    0.710E-02
RMM:   5    -0.232325901776E+04    0.30636E-04   -0.21449E-04  4197   0.107E-02    0.689E-02
RMM:   6    -0.232325896931E+04    0.48447E-04   -0.15292E-04  3899   0.906E-03    0.294E-02
RMM:   7    -0.232325896265E+04    0.66610E-05   -0.27399E-05  2977   0.617E-03
  66 F= -.23442052E+04 E0= -.23442052E+04  d E =-.368090E-02  mag=     6.0000
       N       E                     dE             d eps       ncg     rms          rms(c)
DAV:   1    -0.232323830234E+04    0.20667E-01   -0.23576E+00  4480   0.160E+00    0.453E-01
RMM:   2    -0.232325953589E+04   -0.21234E-01   -0.22079E-01  5964   0.303E-01    0.400E-01
RMM:   3    -0.232326058258E+04   -0.10467E-02   -0.22581E-02  5652   0.115E-01    0.330E-01
RMM:   4    -0.232325969546E+04    0.88712E-03   -0.23491E-03  5469   0.272E-02    0.129E-01
RMM:   5    -0.232325960915E+04    0.86310E-04   -0.71381E-04  5252   0.182E-02    0.128E-01
RMM:   6    -0.232325943928E+04    0.16988E-03   -0.48687E-04  4969   0.147E-02    0.515E-02
RMM:   7    -0.232325941850E+04    0.20774E-04   -0.86256E-05  3640   0.881E-03    0.165E-02
RMM:   8    -0.232325941517E+04    0.33330E-05   -0.13671E-05  2910   0.450E-03
  67 F= -.23442054E+04 E0= -.23442054E+04  d E =-.395979E-02  mag=     6.0000
       N       E                     dE             d eps       ncg     rms          rms(c)
DAV:   1    -0.232325591294E+04    0.35056E-02   -0.48494E-01  4512   0.724E-01    0.204E-01
RMM:   2    -0.232326024908E+04   -0.43361E-02   -0.45097E-02  5988   0.138E-01    0.182E-01
RMM:   3    -0.232326045989E+04   -0.21081E-03   -0.45924E-03  5477   0.502E-02    0.150E-01
RMM:   4    -0.232326027790E+04    0.18199E-03   -0.47466E-04  4278   0.123E-02    0.577E-02
RMM:   5    -0.232326026079E+04    0.17109E-04   -0.14959E-04  3685   0.912E-03    0.573E-02
RMM:   6    -0.232326022795E+04    0.32840E-04   -0.10479E-04  3503   0.808E-03    0.230E-02
RMM:   7    -0.232326022473E+04    0.32167E-05   -0.19578E-05  2935   0.563E-03
  68 F= -.23442063E+04 E0= -.23442063E+04  d E =-.484852E-02  mag=     6.0000
       N       E                     dE             d eps       ncg     rms          rms(c)
DAV:   1    -0.232325703036E+04    0.31976E-02   -0.89743E-01  4464   0.989E-01    0.255E-01
RMM:   2    -0.232326376237E+04   -0.67320E-02   -0.70988E-02  5979   0.180E-01    0.193E-01
RMM:   3    -0.232326416108E+04   -0.39871E-03   -0.70297E-03  5557   0.653E-02    0.178E-01
RMM:   4    -0.232326391038E+04    0.25070E-03   -0.73483E-04  4788   0.152E-02    0.787E-02
RMM:   5    -0.232326387205E+04    0.38336E-04   -0.24751E-04  4325   0.113E-02    0.703E-02
RMM:   6    -0.232326382536E+04    0.46688E-04   -0.16854E-04  4078   0.933E-03    0.334E-02
RMM:   7    -0.232326381550E+04    0.98574E-05   -0.28354E-05  2985   0.620E-03
  69 F= -.23442098E+04 E0= -.23442098E+04  d E =-.344069E-02  mag=     6.0000
       N       E                     dE             d eps       ncg     rms          rms(c)
DAV:   1    -0.232325663207E+04    0.71933E-02   -0.11013E+00  4464   0.110E+00    0.286E-01
RMM:   2    -0.232326498530E+04   -0.83532E-02   -0.87925E-02  5989   0.200E-01    0.222E-01
RMM:   3    -0.232326547748E+04   -0.49218E-03   -0.87449E-03  5607   0.721E-02    0.204E-01
RMM:   4    -0.232326515018E+04    0.32730E-03   -0.92057E-04  5009   0.170E-02    0.869E-02
RMM:   5    -0.232326511030E+04    0.39884E-04   -0.30242E-04  4523   0.123E-02    0.797E-02
RMM:   6    -0.232326504939E+04    0.60908E-04   -0.20877E-04  4306   0.101E-02    0.360E-02
RMM:   7    -0.232326503790E+04    0.11491E-04   -0.33840E-05  3026   0.656E-03    0.107E-02
RMM:   8    -0.232326503636E+04    0.15410E-05   -0.69244E-06  2891   0.349E-03
  70 F= -.23442108E+04 E0= -.23442108E+04  d E =-.449445E-02  mag=     6.0000
       N       E                     dE             d eps       ncg     rms          rms(c)
DAV:   1    -0.232326448532E+04    0.55258E-03   -0.45668E-01  4544   0.700E-01    0.166E-01
RMM:   2    -0.232326757310E+04   -0.30878E-02   -0.32288E-02  5997   0.123E-01    0.135E-01
RMM:   3    -0.232326773213E+04   -0.15903E-03   -0.29867E-03  5274   0.439E-02    0.121E-01
RMM:   4    -0.232326761845E+04    0.11368E-03   -0.32804E-04  3615   0.104E-02    0.521E-02
RMM:   5    -0.232326760067E+04    0.17783E-04   -0.11099E-04  3414   0.829E-03    0.449E-02
RMM:   6    -0.232326758444E+04    0.16231E-04   -0.73702E-05  3171   0.732E-03    0.233E-02
RMM:   7    -0.232326758088E+04    0.35606E-05   -0.15763E-05  2911   0.522E-03
  71 F= -.23442133E+04 E0= -.23442133E+04  d E =-.251166E-02  mag=     6.0000
       N       E                     dE             d eps       ncg     rms          rms(c)
DAV:   1    -0.232324344578E+04    0.24139E-01   -0.41049E+00  4480   0.210E+00    0.498E-01
RMM:   2    -0.232327126319E+04   -0.27817E-01   -0.29034E-01  5956   0.367E-01    0.418E-01
RMM:   3    -0.232327257572E+04   -0.13125E-02   -0.27406E-02  5635   0.135E-01    0.361E-01
RMM:   4    -0.232327157809E+04    0.99763E-03   -0.29972E-03  5601   0.306E-02    0.157E-01
RMM:   5    -0.232327144072E+04    0.13737E-03   -0.10013E-03  5286   0.208E-02    0.142E-01
RMM:   6    -0.232327125526E+04    0.18546E-03   -0.65373E-04  5201   0.169E-02    0.655E-02
RMM:   7    -0.232327122474E+04    0.30514E-04   -0.99106E-05  3656   0.931E-03    0.200E-02
RMM:   8    -0.232327122089E+04    0.38553E-05   -0.15393E-05  2931   0.442E-03
  72 F= -.23442169E+04 E0= -.23442169E+04  d E =-.605034E-02  mag=     6.0000
       N       E                     dE             d eps       ncg     rms          rms(c)
DAV:   1    -0.232327167347E+04   -0.44873E-03   -0.30030E-01  4624   0.577E-01    0.160E-01
RMM:   2    -0.232327353844E+04   -0.18650E-02   -0.19796E-02  5959   0.103E-01    0.116E-01
RMM:   3    -0.232327363203E+04   -0.93587E-04   -0.18384E-03  5059   0.390E-02    0.122E-01
RMM:   4    -0.232327350883E+04    0.12320E-03   -0.23170E-04  3804   0.101E-02    0.430E-02
RMM:   5    -0.232327349028E+04    0.18544E-04   -0.96952E-05  3583   0.837E-03    0.324E-02
RMM:   6    -0.232327348491E+04    0.53690E-05   -0.48634E-05  2976   0.657E-03
  73 F= -.23442193E+04 E0= -.23442193E+04  d E =-.242547E-02  mag=     6.0000
       N       E                     dE             d eps       ncg     rms          rms(c)
DAV:   1    -0.232327051880E+04    0.29715E-02   -0.63446E-01  4480   0.838E-01    0.233E-01
RMM:   2    -0.232327443300E+04   -0.39142E-02   -0.41870E-02  5889   0.149E-01    0.158E-01
RMM:   3    -0.232327463722E+04   -0.20422E-03   -0.38286E-03  5408   0.535E-02    0.174E-01
RMM:   4    -0.232327439236E+04    0.24486E-03   -0.49088E-04  4760   0.142E-02    0.648E-02
RMM:   5    -0.232327435148E+04    0.40881E-04   -0.20819E-04  4372   0.111E-02    0.491E-02
RMM:   6    -0.232327433557E+04    0.15907E-04   -0.98804E-05  3309   0.822E-03    0.310E-02
RMM:   7    -0.232327432512E+04    0.10453E-04   -0.20835E-05  2903   0.555E-03    0.103E-02
RMM:   8    -0.232327432377E+04    0.13461E-05   -0.62329E-06  2873   0.321E-03
  74 F= -.23442204E+04 E0= -.23442204E+04  d E =-.349817E-02  mag=     6.0000
       N       E                     dE             d eps       ncg     rms          rms(c)
DAV:   1    -0.232327387795E+04    0.44717E-03   -0.32533E-01  4512   0.608E-01    0.150E-01
RMM:   2    -0.232327607993E+04   -0.22020E-02   -0.22842E-02  5932   0.107E-01    0.119E-01
RMM:   3    -0.232327618245E+04   -0.10252E-03   -0.21227E-03  4928   0.393E-02    0.109E-01
RMM:   4    -0.232327608967E+04    0.92781E-04   -0.24233E-04  3534   0.963E-03    0.427E-02
RMM:   5    -0.232327607780E+04    0.11871E-04   -0.81737E-05  3227   0.757E-03    0.388E-02
RMM:   6    -0.232327606472E+04    0.13076E-04   -0.53808E-05  3078   0.672E-03    0.205E-02
RMM:   7    -0.232327606166E+04    0.30665E-05   -0.13180E-05  2883   0.501E-03
  75 F= -.23442222E+04 E0= -.23442222E+04  d E =-.185170E-02  mag=     6.0000
       N       E                     dE             d eps       ncg     rms          rms(c)
DAV:   1    -0.232326619298E+04    0.98717E-02   -0.16467E+00  4480   0.137E+00    0.337E-01
[...]
RMM:   5    -0.232343046112E+04    0.39989E-05   -0.16372E-05  2890   0.327E-03
 177 F= -.23444120E+04 E0= -.23444120E+04  d E =-.164882E-02  mag=     6.0000
       N       E                     dE             d eps       ncg     rms          rms(c)
DAV:   1    -0.232342480828E+04    0.56568E-02   -0.62716E-01  4480   0.666E-01    0.234E-01
RMM:   2    -0.232343152679E+04   -0.67185E-02   -0.69413E-02  6366   0.156E-01    0.150E-01
RMM:   3    -0.232343184275E+04   -0.31596E-03   -0.59393E-03  5634   0.449E-02    0.157E-01
RMM:   4    -0.232343167163E+04    0.17112E-03   -0.68751E-04  3431   0.120E-02    0.682E-02
RMM:   5    -0.232343163274E+04    0.38895E-04   -0.12935E-04  3366   0.798E-03    0.461E-02
RMM:   6    -0.232343163387E+04   -0.11283E-05   -0.11385E-04  3202   0.767E-03    0.432E-02
RMM:   7    -0.232343161596E+04    0.17905E-04   -0.30353E-05  2979   0.562E-03    0.116E-02
RMM:   8    -0.232343161489E+04    0.10733E-05   -0.67791E-06  2883   0.332E-03
 178 F= -.23444133E+04 E0= -.23444133E+04  d E =-.132153E-02  mag=     6.0000
       N       E                     dE             d eps       ncg     rms          rms(c)
DAV:   1    -0.232342220652E+04    0.94094E-02   -0.88653E-01  4480   0.792E-01    0.279E-01
RMM:   2    -0.232343176785E+04   -0.95613E-02   -0.98712E-02  6333   0.186E-01    0.178E-01
RMM:   3    -0.232343217646E+04   -0.40861E-03   -0.80098E-03  5818   0.518E-02    0.182E-01
RMM:   4    -0.232343193732E+04    0.23914E-03   -0.97109E-04  3790   0.142E-02    0.827E-02
RMM:   5    -0.232343189152E+04    0.45795E-04   -0.20293E-04  3716   0.947E-03    0.610E-02
RMM:   6    -0.232343188429E+04    0.72359E-05   -0.16265E-04  3419   0.847E-03    0.523E-02
RMM:   7    -0.232343186108E+04    0.23204E-04   -0.41483E-05  3010   0.614E-03    0.139E-02
RMM:   8    -0.232343185937E+04    0.17090E-05   -0.95377E-06  2898   0.374E-03
 179 F= -.23444137E+04 E0= -.23444137E+04  d E =-.176765E-02  mag=     6.0000
       N       E                     dE             d eps       ncg     rms          rms(c)
DAV:   1    -0.232342734445E+04    0.45166E-02   -0.49684E-01  4480   0.588E-01    0.204E-01
RMM:   2    -0.232343276391E+04   -0.54195E-02   -0.55783E-02  6349   0.138E-01    0.131E-01
RMM:   3    -0.232343303301E+04   -0.26910E-03   -0.47628E-03  5434   0.393E-02    0.131E-01
RMM:   4    -0.232343291249E+04    0.12052E-03   -0.55020E-04  3265   0.105E-02    0.610E-02
RMM:   5    -0.232343288887E+04    0.23615E-04   -0.10234E-04  3139   0.700E-03    0.458E-02
RMM:   6    -0.232343288399E+04    0.48760E-05   -0.90262E-05  3117   0.667E-03
 180 F= -.23444149E+04 E0= -.23444149E+04  d E =-.119711E-02  mag=     6.0000
       N       E                     dE             d eps       ncg     rms          rms(c)
DAV:   1    -0.232338344099E+04    0.49448E-01   -0.44550E+00  4480   0.176E+00    0.611E-01
RMM:   2    -0.232343217372E+04   -0.48733E-01   -0.50348E-01  6327   0.417E-01    0.371E-01
RMM:   3    -0.232343452135E+04   -0.23476E-02   -0.40656E-02  5968   0.118E-01    0.378E-01
RMM:   4    -0.232343359114E+04    0.93020E-03   -0.49094E-03  5675   0.303E-02    0.187E-01
RMM:   5    -0.232343334742E+04    0.24372E-03   -0.91650E-04  4779   0.179E-02    0.131E-01
RMM:   6    -0.232343334121E+04    0.62067E-05   -0.79966E-04  5008   0.161E-02    0.118E-01
RMM:   7    -0.232343322382E+04    0.11739E-03   -0.20635E-04  4185   0.990E-03    0.353E-02
RMM:   8    -0.232343321307E+04    0.10753E-04   -0.41577E-05  2969   0.509E-03    0.138E-02
RMM:   9    -0.232343321044E+04    0.26324E-05   -0.85522E-06  2884   0.295E-03
 181 F= -.23444158E+04 E0= -.23444158E+04  d E =-.204752E-02  mag=     6.0000
       N       E                     dE             d eps       ncg     rms          rms(c)
DAV:   1    -0.232342930750E+04    0.39056E-02   -0.38096E-01  4480   0.516E-01    0.178E-01
RMM:   2    -0.232343344094E+04   -0.41334E-02   -0.42576E-02  6392   0.120E-01    0.112E-01
RMM:   3    -0.232343364689E+04   -0.20595E-03   -0.37980E-03  5135   0.356E-02    0.108E-01
RMM:   4    -0.232343356586E+04    0.81030E-04   -0.41616E-04  3154   0.939E-03    0.546E-02
RMM:   5    -0.232343354863E+04    0.17230E-04   -0.79701E-05  3059   0.625E-03    0.415E-02
RMM:   6    -0.232343354291E+04    0.57188E-05   -0.67029E-05  3043   0.594E-03
 182 F= -.23444160E+04 E0= -.23444160E+04  d E =-.222575E-02  mag=     6.0000
       N       E                     dE             d eps       ncg     rms          rms(c)
DAV:   1    -0.232342456402E+04    0.89846E-02   -0.97071E-01  4480   0.803E-01    0.285E-01
RMM:   2    -0.232343492209E+04   -0.10358E-01   -0.10636E-01  6423   0.191E-01    0.203E-01
RMM:   3    -0.232343529867E+04   -0.37658E-03   -0.84622E-03  5852   0.548E-02    0.199E-01
RMM:   4    -0.232343498927E+04    0.30940E-03   -0.10451E-03  3992   0.149E-02    0.826E-02
RMM:   5    -0.232343494250E+04    0.46770E-04   -0.23058E-04  3878   0.980E-03    0.678E-02
RMM:   6    -0.232343491942E+04    0.23081E-04   -0.17650E-04  3554   0.864E-03    0.509E-02
RMM:   7    -0.232343489849E+04    0.20932E-04   -0.45164E-05  3067   0.616E-03    0.144E-02
RMM:   8    -0.232343489657E+04    0.19244E-05   -0.10366E-05  2897   0.391E-03
 183 F= -.23444176E+04 E0= -.23444176E+04  d E =-.160113E-02  mag=     6.0000
       N       E                     dE             d eps       ncg     rms          rms(c)
DAV:   1    -0.232343278964E+04    0.21089E-02   -0.20955E-01  4512   0.373E-01    0.133E-01
RMM:   2    -0.232343503175E+04   -0.22421E-02   -0.23111E-02  6333   0.886E-02    0.887E-02
RMM:   3    -0.232343512002E+04   -0.88268E-04   -0.18473E-03  4351   0.246E-02    0.881E-02
RMM:   4    -0.232343506248E+04    0.57532E-04   -0.22641E-04  3054   0.750E-03    0.398E-02
RMM:   5    -0.232343505194E+04    0.10545E-04   -0.48159E-05  2978   0.503E-03    0.313E-02
RMM:   6    -0.232343504766E+04    0.42823E-05   -0.40116E-05  2956   0.485E-03
 184 F= -.23444178E+04 E0= -.23444178E+04  d E =-.186822E-02  mag=     6.0000
       N       E                     dE             d eps       ncg     rms          rms(c)
DAV:   1    -0.232342545762E+04    0.95943E-02   -0.83473E-01  4480   0.745E-01    0.265E-01
RMM:   2    -0.232343433934E+04   -0.88817E-02   -0.91940E-02  6323   0.177E-01    0.165E-01
RMM:   3    -0.232343471572E+04   -0.37638E-03   -0.74441E-03  5682   0.509E-02    0.164E-01
RMM:   4    -0.232343452576E+04    0.18996E-03   -0.89958E-04  3653   0.135E-02    0.820E-02
RMM:   5    -0.232343448108E+04    0.44683E-04   -0.18755E-04  3591   0.890E-03    0.612E-02
RMM:   6    -0.232343446769E+04    0.13387E-04   -0.15576E-04  3461   0.835E-03    0.473E-02
RMM:   7    -0.232343444763E+04    0.20064E-04   -0.41026E-05  3034   0.598E-03    0.130E-02
RMM:   8    -0.232343444607E+04    0.15596E-05   -0.93279E-06  2897   0.376E-03
 185 F= -.23444175E+04 E0= -.23444175E+04  d E =-.150018E-02  mag=     6.0000
       N       E                     dE             d eps       ncg     rms          rms(c)
DAV:   1    -0.232343015474E+04    0.42929E-02   -0.45348E-01  4480   0.549E-01    0.194E-01
RMM:   2    -0.232343494012E+04   -0.47854E-02   -0.49323E-02  6374   0.129E-01    0.129E-01
RMM:   3    -0.232343515934E+04   -0.21922E-03   -0.44595E-03  5398   0.395E-02    0.124E-01
RMM:   4    -0.232343504201E+04    0.11733E-03   -0.49362E-04  3267   0.103E-02    0.593E-02
RMM:   5    -0.232343502077E+04    0.21245E-04   -0.10202E-04  3177   0.695E-03    0.475E-02
RMM:   6    -0.232343500984E+04    0.10930E-04   -0.84000E-05  3112   0.662E-03    0.328E-02
RMM:   7    -0.232343500154E+04    0.82997E-05   -0.23391E-05  2971   0.499E-03
 186 F= -.23444178E+04 E0= -.23444178E+04  d E =-.188360E-02  mag=     6.0000
       N       E                     dE             d eps       ncg     rms          rms(c)
DAV:   1    -0.232342546336E+04    0.95465E-02   -0.97889E-01  4480   0.802E-01    0.288E-01
RMM:   2    -0.232343610999E+04   -0.10647E-01   -0.10973E-01  6330   0.191E-01    0.194E-01
RMM:   3    -0.232343652299E+04   -0.41301E-03   -0.87753E-03  5787   0.530E-02    0.193E-01
RMM:   4    -0.232343624391E+04    0.27908E-03   -0.10761E-03  3865   0.146E-02    0.842E-02
RMM:   5    -0.232343619729E+04    0.46624E-04   -0.21146E-04  3674   0.932E-03    0.670E-02
RMM:   6    -0.232343617853E+04    0.18762E-04   -0.17712E-04  3523   0.855E-03    0.509E-02
RMM:   7    -0.232343615715E+04    0.21381E-04   -0.45021E-05  3052   0.618E-03    0.142E-02
RMM:   8    -0.232343615560E+04    0.15446E-05   -0.94207E-06  2896   0.382E-03
 187 F= -.23444192E+04 E0= -.23444192E+04  d E =-.136284E-02  mag=     6.0000
       N       E                     dE             d eps       ncg     rms          rms(c)
DAV:   1    -0.232343295605E+04    0.32011E-02   -0.30612E-01  4480   0.448E-01    0.162E-01
RMM:   2    -0.232343630912E+04   -0.33531E-02   -0.34506E-02  6356   0.107E-01    0.112E-01
RMM:   3    -0.232343643566E+04   -0.12654E-03   -0.27518E-03  4902   0.295E-02    0.111E-01
RMM:   4    -0.232343634356E+04    0.92101E-04   -0.33951E-04  3118   0.862E-03    0.470E-02
RMM:   5    -0.232343633062E+04    0.12937E-04   -0.66369E-05  3013   0.570E-03    0.385E-02
RMM:   6    -0.232343632412E+04    0.65013E-05   -0.56740E-05  3004   0.548E-03
 188 F= -.23444195E+04 E0= -.23444195E+04  d E =-.164900E-02  mag=     6.0000
       N       E                     dE             d eps       ncg     rms          rms(c)
DAV:   1    -0.232342224206E+04    0.14089E-01   -0.12199E+00  4480   0.896E-01    0.323E-01
RMM:   2    -0.232343553377E+04   -0.13292E-01   -0.13740E-01  6340   0.214E-01    0.208E-01
RMM:   3    -0.232343607980E+04   -0.54602E-03   -0.11073E-02  5833   0.600E-02    0.209E-01
RMM:   4    -0.232343576509E+04    0.31471E-03   -0.13597E-03  4098   0.163E-02    0.962E-02
RMM:   5    -0.232343570848E+04    0.56609E-04   -0.25577E-04  3860   0.100E-02    0.746E-02
RMM:   6    -0.232343568859E+04    0.19887E-04   -0.21957E-04  3702   0.930E-03    0.568E-02
RMM:   7    -0.232343566119E+04    0.27401E-04   -0.55444E-05  3117   0.653E-03    0.156E-02
RMM:   8    -0.232343565933E+04    0.18636E-05   -0.11537E-05  2903   0.404E-03
 189 F= -.23444191E+04 E0= -.23444191E+04  d E =-.122131E-02  mag=     6.0000
       N       E                     dE             d eps       ncg     rms          rms(c)
DAV:   1    -0.232342892493E+04    0.67363E-02   -0.67413E-01  4480   0.666E-01    0.239E-01
RMM:   2    -0.232343620460E+04   -0.72797E-02   -0.74917E-02  6384   0.157E-01    0.164E-01
RMM:   3    -0.232343652234E+04   -0.31774E-03   -0.67878E-03  5650   0.475E-02    0.156E-01
RMM:   4    -0.232343633475E+04    0.18759E-03   -0.75586E-04  3495   0.124E-02    0.709E-02
RMM:   5    -0.232343630737E+04    0.27377E-04   -0.14282E-04  3305   0.797E-03    0.587E-02
RMM:   6    -0.232343628948E+04    0.17887E-04   -0.12194E-04  3292   0.756E-03    0.393E-02
RMM:   7    -0.232343627774E+04    0.11739E-04   -0.32482E-05  3012   0.559E-03    0.979E-03
RMM:   8    -0.232343627705E+04    0.69742E-06   -0.58399E-06  2874   0.335E-03
 190 F= -.23444195E+04 E0= -.23444195E+04  d E =-.166286E-02  mag=     6.0000
       N       E                     dE             d eps       ncg     rms          rms(c)
DAV:   1    -0.232342380427E+04    0.12473E-01   -0.11516E+00  4480   0.880E-01    0.323E-01
RMM:   2    -0.232343732733E+04   -0.13523E-01   -0.13921E-01  6357   0.216E-01    0.211E-01
RMM:   3    -0.232343812440E+04   -0.79707E-03   -0.12913E-02  5891   0.655E-02    0.216E-01
RMM:   4    -0.232343778054E+04    0.34386E-03   -0.14121E-03  4217   0.164E-02    0.924E-02
RMM:   5    -0.232343771694E+04    0.63601E-04   -0.24964E-04  3842   0.102E-02    0.664E-02
RMM:   6    -0.232343770916E+04    0.77769E-05   -0.20953E-04  3673   0.921E-03    0.602E-02
RMM:   7    -0.232343767766E+04    0.31495E-04   -0.55551E-05  3075   0.660E-03    0.165E-02
RMM:   8    -0.232343767532E+04    0.23464E-05   -0.13161E-05  2906   0.408E-03
 191 F= -.23444210E+04 E0= -.23444210E+04  d E =-.147114E-02  mag=     6.0000
       N       E                     dE             d eps       ncg     rms          rms(c)
DAV:   1    -0.232343374076E+04    0.39369E-02   -0.33786E-01  4496   0.477E-01    0.176E-01
RMM:   2    -0.232343772573E+04   -0.39850E-02   -0.40979E-02  6323   0.117E-01    0.116E-01
RMM:   3    -0.232343795362E+04   -0.22789E-03   -0.37865E-03  5092   0.341E-02    0.117E-01
RMM:   4    -0.232343785306E+04    0.10056E-03   -0.41382E-04  3174   0.919E-03    0.501E-02
RMM:   5    -0.232343783522E+04    0.17838E-04   -0.72945E-05  3004   0.609E-03    0.370E-02
RMM:   6    -0.232343783212E+04    0.30961E-05   -0.63342E-05  3023   0.582E-03
 192 F= -.23444212E+04 E0= -.23444212E+04  d E =-.166846E-02  mag=     6.0000
       N       E                     dE             d eps       ncg     rms          rms(c)
DAV:   1    -0.232342356723E+04    0.14268E-01   -0.13577E+00  4480   0.958E-01    0.348E-01
RMM:   2    -0.232343901503E+04   -0.15448E-01   -0.15908E-01  6327   0.232E-01    0.222E-01
RMM:   3    -0.232343988394E+04   -0.86891E-03   -0.14706E-02  5883   0.684E-02    0.226E-01
RMM:   4    -0.232343950919E+04    0.37475E-03   -0.16192E-03  4402   0.176E-02    0.101E-01
RMM:   5    -0.232343943642E+04    0.72777E-04   -0.28978E-04  3952   0.107E-02    0.726E-02
RMM:   6    -0.232343942604E+04    0.10377E-04   -0.24517E-04  3875   0.975E-03    0.636E-02
RMM:   7    -0.232343939115E+04    0.34888E-04   -0.64777E-05  3140   0.680E-03    0.176E-02
RMM:   8    -0.232343938890E+04    0.22498E-05   -0.14377E-05  2914   0.420E-03
 193 F= -.23444228E+04 E0= -.23444228E+04  d E =-.161389E-02  mag=     6.0000
       N       E                     dE             d eps       ncg     rms          rms(c)
DAV:   1    -0.232343236707E+04    0.70241E-02   -0.61439E-01  4480   0.644E-01    0.235E-01
RMM:   2    -0.232343940642E+04   -0.70393E-02   -0.72092E-02  6365   0.156E-01    0.163E-01
RMM:   3    -0.232343976719E+04   -0.36078E-03   -0.65615E-03  5601   0.450E-02    0.162E-01
RMM:   4    -0.232343956696E+04    0.20023E-03   -0.73120E-04  3473   0.120E-02    0.660E-02
RMM:   5    -0.232343953581E+04    0.31147E-04   -0.12964E-04  3251   0.786E-03    0.502E-02
RMM:   6    -0.232343952861E+04    0.72070E-05   -0.11155E-04  3240   0.736E-03    0.428E-02
RMM:   7    -0.232343951380E+04    0.14807E-04   -0.32325E-05  2986   0.563E-03    0.120E-02
RMM:   8    -0.232343951278E+04    0.10145E-05   -0.79210E-06  2888   0.345E-03
 194 F= -.23444230E+04 E0= -.23444230E+04  d E =-.177757E-02  mag=     6.0000
       N       E                     dE             d eps       ncg     rms          rms(c)
DAV:   1    -0.232343203129E+04    0.74825E-02   -0.71303E-01  4480   0.674E-01    0.244E-01
RMM:   2    -0.232344035737E+04   -0.83261E-02   -0.84886E-02  6383   0.164E-01    0.183E-01
RMM:   3    -0.232344069545E+04   -0.33809E-03   -0.71436E-03  5665   0.458E-02    0.173E-01
RMM:   4    -0.232344047155E+04    0.22390E-03   -0.83974E-04  3512   0.124E-02    0.692E-02
RMM:   5    -0.232344044198E+04    0.29570E-04   -0.13626E-04  3221   0.755E-03    0.561E-02
RMM:   6    -0.232344042936E+04    0.12620E-04   -0.12305E-04  3261   0.726E-03    0.436E-02
RMM:   7    -0.232344041516E+04    0.14203E-04   -0.35445E-05  3016   0.556E-03    0.121E-02
RMM:   8    -0.232344041425E+04    0.91131E-06   -0.72788E-06  2877   0.337E-03
 195 F= -.23444240E+04 E0= -.23444240E+04  d E =-.100876E-02  mag=     6.0000
       N       E                     dE             d eps       ncg     rms          rms(c)
DAV:   1    -0.232342071408E+04    0.19701E-01   -0.17185E+00  4480   0.105E+00    0.379E-01
RMM:   2    -0.232344085583E+04   -0.20142E-01   -0.20543E-01  6387   0.255E-01    0.284E-01
RMM:   3    -0.232344161103E+04   -0.75519E-03   -0.16386E-02  5967   0.695E-02    0.271E-01
RMM:   4    -0.232344106181E+04    0.54921E-03   -0.20117E-03  4550   0.190E-02    0.107E-01
RMM:   5    -0.232344098864E+04    0.73171E-04   -0.32997E-04  3954   0.109E-02    0.860E-02
RMM:   6    -0.232344096171E+04    0.26936E-04   -0.29254E-04  3946   0.101E-02    0.685E-02
RMM:   7    -0.232344092494E+04    0.36765E-04   -0.78196E-05  3253   0.710E-03    0.189E-02
RMM:   8    -0.232344092232E+04    0.26199E-05   -0.15069E-05  2917   0.427E-03
 196 F= -.23444246E+04 E0= -.23444246E+04  d E =-.168564E-02  mag=     6.0000
       N       E                     dE             d eps       ncg     rms          rms(c)
DAV:   1    -0.232343695722E+04    0.39677E-02   -0.47571E-01  4480   0.579E-01    0.218E-01
RMM:   2    -0.232344235666E+04   -0.53994E-02   -0.55491E-02  6259   0.139E-01    0.158E-01
RMM:   3    -0.232344259607E+04   -0.23941E-03   -0.47825E-03  5632   0.411E-02    0.158E-01
RMM:   4    -0.232344239367E+04    0.20240E-03   -0.58133E-04  3571   0.117E-02    0.586E-02
RMM:   5    -0.232344237228E+04    0.21395E-04   -0.11705E-04  3372   0.798E-03    0.487E-02
RMM:   6    -0.232344236110E+04    0.11178E-04   -0.90638E-05  3127   0.725E-03    0.363E-02
RMM:   7    -0.232344235012E+04    0.10977E-04   -0.24273E-05  2949   0.546E-03    0.103E-02
RMM:   8    -0.232344234929E+04    0.83103E-06   -0.67562E-06  2872   0.347E-03
 197 F= -.23444262E+04 E0= -.23444262E+04  d E =-.153242E-02  mag=     6.0000
       N       E                     dE             d eps       ncg     rms          rms(c)
DAV:   1    -0.232343985989E+04    0.24902E-02   -0.24021E-01  4512   0.412E-01    0.155E-01
RMM:   2    -0.232344258983E+04   -0.27299E-02   -0.28027E-02  6228   0.990E-02    0.113E-01
RMM:   3    -0.232344270708E+04   -0.11725E-03   -0.24116E-03  4978   0.293E-02    0.112E-01
RMM:   4    -0.232344260434E+04    0.10274E-03   -0.29196E-04  3157   0.864E-03    0.418E-02
RMM:   5    -0.232344259365E+04    0.10696E-04   -0.59339E-05  3019   0.595E-03    0.354E-02
RMM:   6    -0.232344258693E+04    0.67194E-05   -0.47561E-05  2973   0.570E-03
 198 F= -.23444265E+04 E0= -.23444265E+04  d E =-.184527E-02  mag=     6.0000
       N       E                     dE             d eps       ncg     rms          rms(c)
DAV:   1    -0.232344096005E+04    0.16336E-02   -0.23567E-01  4480   0.416E-01    0.149E-01
RMM:   2    -0.232344340698E+04   -0.24469E-02   -0.25232E-02  6260   0.957E-02    0.104E-01
RMM:   3    -0.232344351908E+04   -0.11210E-03   -0.22150E-03  5001   0.291E-02    0.104E-01
RMM:   4    -0.232344342997E+04    0.89109E-04   -0.26402E-04  3122   0.835E-03    0.426E-02
RMM:   5    -0.232344342098E+04    0.89841E-05   -0.57265E-05  3002   0.568E-03
 199 F= -.23444274E+04 E0= -.23444274E+04  d E =-.884992E-03  mag=     6.0000
       N       E                     dE             d eps       ncg     rms          rms(c)
DAV:   1    -0.232344115675E+04    0.22732E-02   -0.23846E-01  4480   0.418E-01    0.151E-01
RMM:   2    -0.232344367943E+04   -0.25227E-02   -0.25692E-02  6378   0.965E-02    0.125E-01
RMM:   3    -0.232344372789E+04   -0.48462E-04   -0.21066E-03  4989   0.293E-02    0.105E-01
RMM:   4    -0.232344362766E+04    0.10023E-03   -0.26846E-04  3181   0.888E-03    0.425E-02
RMM:   5    -0.232344362055E+04    0.71137E-05   -0.75748E-05  3085   0.665E-03
 200 F= -.23444276E+04 E0= -.23444276E+04  d E =-.113612E-02  mag=     6.0000
       N       E                     dE             d eps       ncg     rms          rms(c)
DAV:   1    -0.232344094645E+04    0.26812E-02   -0.34445E-01  4480   0.536E-01    0.179E-01
RMM:   2    -0.232344439228E+04   -0.34458E-02   -0.35654E-02  6300   0.119E-01    0.115E-01
RMM:   3    -0.232344456506E+04   -0.17277E-03   -0.31744E-03  5434   0.388E-02    0.113E-01
RMM:   4    -0.232344445081E+04    0.11425E-03   -0.37803E-04  3270   0.103E-02    0.492E-02
RMM:   5    -0.232344442866E+04    0.22152E-04   -0.88085E-05  3224   0.763E-03    0.336E-02
RMM:   6    -0.232344443198E+04   -0.33229E-05   -0.57803E-05  3021   0.647E-03
 201 F= -.23444285E+04 E0= -.23444285E+04  d E =-.886181E-03  mag=     6.0000
