       N       E                     dE             d eps       ncg     rms          rms(c)
DAV:   1     0.127573798519E+05    0.12757E+05   -0.82822E+05  4424   0.144E+03
DAV:   2    -0.105828213194E+04   -0.13816E+05   -0.13228E+05  5272   0.330E+02
DAV:   3    -0.246690518233E+04   -0.14086E+04   -0.13955E+04  5336   0.111E+02
DAV:   4    -0.251256551746E+04   -0.45660E+02   -0.45432E+02  6656   0.298E+01
DAV:   5    -0.251341059539E+04   -0.84508E+00   -0.84351E+00  5528   0.324E+00    0.170E+02
RMM:   6    -0.147701163232E+04    0.10364E+04   -0.19260E+03  4393   0.386E+01    0.723E+01
RMM:   7    -0.164301504830E+04   -0.16600E+03   -0.27758E+02  4919   0.138E+01    0.478E+01
RMM:   8    -0.169947869084E+04   -0.56464E+02   -0.31988E+01  5170   0.655E+00    0.340E+01
RMM:   9    -0.187123967972E+04   -0.17176E+03   -0.96546E+01  4834   0.936E+00    0.346E+01
RMM:  10    -0.192748503399E+04   -0.56245E+02   -0.28938E+01  4972   0.514E+00    0.201E+01
RMM:  11    -0.204605804237E+04   -0.11857E+03   -0.54287E+01  4512   0.567E+00    0.160E+01
RMM:  12    -0.212913807036E+04   -0.83080E+02   -0.41293E+01  4626   0.501E+00    0.120E+01
RMM:  13    -0.225591168015E+04   -0.12677E+03   -0.11744E+02  4390   0.759E+00    0.737E+00
RMM:  14    -0.229314220712E+04   -0.37231E+02   -0.38557E+01  4479   0.493E+00    0.524E+00
RMM:  15    -0.230153835684E+04   -0.83961E+01   -0.10797E+01  4783   0.241E+00    0.649E+00
RMM:  16    -0.230243465165E+04   -0.89629E+00   -0.15847E+00  5283   0.102E+00    0.522E+00
RMM:  17    -0.230279646273E+04   -0.36181E+00   -0.36566E-01  4681   0.370E-01    0.447E+00
RMM:  18    -0.230473602026E+04   -0.19396E+01   -0.20957E+00  4561   0.762E-01    0.215E+00
RMM:  19    -0.230521573262E+04   -0.47971E+00   -0.43669E-01  4639   0.442E-01    0.111E+00
RMM:  20    -0.230542264120E+04   -0.20691E+00   -0.25018E-01  4676   0.277E-01    0.730E-01
RMM:  21    -0.230552409906E+04   -0.10146E+00   -0.76272E-02  4722   0.194E-01    0.410E-01
RMM:  22    -0.230557253539E+04   -0.48436E-01   -0.19705E-02  4632   0.943E-02    0.255E-01
RMM:  23    -0.230560358155E+04   -0.31046E-01   -0.92163E-03  4588   0.647E-02    0.146E-01
RMM:  24    -0.230563486476E+04   -0.31283E-01   -0.79372E-03  4388   0.630E-02    0.994E-02
RMM:  25    -0.230564605463E+04   -0.11190E-01   -0.26235E-03  4632   0.412E-02    0.699E-02
RMM:  26    -0.230565556134E+04   -0.95067E-02   -0.24657E-03  4399   0.318E-02    0.481E-02
RMM:  27    -0.230565925846E+04   -0.36971E-02   -0.93124E-04  4120   0.272E-02    0.303E-02
RMM:  28    -0.230566061814E+04   -0.13597E-02   -0.44786E-04  4156   0.136E-02    0.197E-02
RMM:  29    -0.230566110925E+04   -0.49111E-03   -0.14610E-04  3695   0.126E-02    0.852E-03
RMM:  30    -0.230566121854E+04   -0.10928E-03   -0.49492E-05  3338   0.512E-03    0.390E-03
RMM:  31    -0.230566127262E+04   -0.54088E-04   -0.14202E-05  2903   0.484E-03    0.276E-03
RMM:  32    -0.230566129081E+04   -0.18183E-04   -0.70025E-06  2809   0.275E-03    0.217E-03
RMM:  33    -0.230566129852E+04   -0.77168E-05   -0.31170E-06  2533   0.226E-03
   1 F= -.23259917E+04 E0= -.23259917E+04  d E =-.232599E+04  mag=     3.0000
       N       E                     dE             d eps       ncg     rms          rms(c)
DAV:   1    -0.230566976293E+04   -0.84721E-02   -0.14899E+00  5268   0.123E+00    0.386E-01
RMM:   2    -0.230567500649E+04   -0.52436E-02   -0.64761E-02  5167   0.209E-01    0.210E-01
RMM:   3    -0.230567469102E+04    0.31547E-03   -0.54473E-03  4821   0.935E-02    0.226E-01
RMM:   4    -0.230567429406E+04    0.39696E-03   -0.11590E-03  4982   0.253E-02    0.136E-01
RMM:   5    -0.230567398910E+04    0.30496E-03   -0.85108E-04  5093   0.245E-02    0.326E-02
RMM:   6    -0.230567396161E+04    0.27486E-04   -0.91825E-05  4215   0.962E-03    0.174E-02
RMM:   7    -0.230567395193E+04    0.96844E-05   -0.25682E-05  3092   0.402E-03
   2 F= -.23260042E+04 E0= -.23260042E+04  d E =-.125195E-01  mag=     3.0000
       N       E                     dE             d eps       ncg     rms          rms(c)
DAV:   1    -0.230567399363E+04   -0.32018E-04   -0.95422E-03  5312   0.996E-02    0.310E-02
RMM:   2    -0.230567402889E+04   -0.35254E-04   -0.44220E-04  5070   0.191E-02    0.195E-02
RMM:   3    -0.230567402822E+04    0.66738E-06   -0.43006E-05  2902   0.856E-03
   3 F= -.23260043E+04 E0= -.23260043E+04  d E =-.125848E-01  mag=     3.0000
       N       E                     dE             d eps       ncg     rms          rms(c)
DAV:   1    -0.230567626921E+04   -0.22403E-02   -0.16180E+00  4608   0.127E+00    0.344E-01
RMM:   2    -0.230568255266E+04   -0.62835E-02   -0.70738E-02  5408   0.200E-01    0.148E-01
RMM:   3    -0.230568252223E+04    0.30432E-04   -0.57711E-03  4945   0.810E-02    0.143E-01
RMM:   4    -0.230568242973E+04    0.92508E-04   -0.77295E-04  4870   0.181E-02    0.104E-01
RMM:   5    -0.230568229351E+04    0.13621E-03   -0.45425E-04  4743   0.163E-02    0.458E-02
RMM:   6    -0.230568227511E+04    0.18399E-04   -0.69958E-05  3650   0.836E-03    0.131E-02
RMM:   7    -0.230568227389E+04    0.12256E-05   -0.11391E-05  2868   0.373E-03
   4 F= -.23260124E+04 E0= -.23260124E+04  d E =-.813781E-02  mag=     3.0000
       N       E                     dE             d eps       ncg     rms          rms(c)
DAV:   1    -0.230568046324E+04    0.18119E-02   -0.10361E+00  4576   0.102E+00    0.276E-01
RMM:   2    -0.230568451331E+04   -0.40501E-02   -0.45560E-02  5467   0.161E-01    0.124E-01
RMM:   3    -0.230568455024E+04   -0.36929E-04   -0.37992E-03  4997   0.662E-02    0.141E-01
RMM:   4    -0.230568442110E+04    0.12914E-03   -0.49194E-04  4567   0.147E-02    0.753E-02
RMM:   5    -0.230568433383E+04    0.87269E-04   -0.27851E-04  4430   0.132E-02    0.330E-02
RMM:   6    -0.230568432479E+04    0.90430E-05   -0.48704E-05  3232   0.771E-03
   5 F= -.23260143E+04 E0= -.23260143E+04  d E =-.100933E-01  mag=     3.0000
       N       E                     dE             d eps       ncg     rms          rms(c)
DAV:   1    -0.230568230741E+04    0.20264E-02   -0.15678E+00  4512   0.126E+00    0.282E-01
RMM:   2    -0.230569075446E+04   -0.84470E-02   -0.91850E-02  5612   0.207E-01    0.163E-01
RMM:   3    -0.230569098460E+04   -0.23014E-03   -0.71882E-03  5088   0.748E-02    0.148E-01
RMM:   4    -0.230569089035E+04    0.94254E-04   -0.90459E-04  4880   0.171E-02    0.101E-01
RMM:   5    -0.230569076184E+04    0.12851E-03   -0.42139E-04  4688   0.157E-02    0.513E-02
RMM:   6    -0.230569073769E+04    0.24147E-04   -0.10144E-04  4015   0.963E-03    0.185E-02
RMM:   7    -0.230569073560E+04    0.20873E-05   -0.14382E-05  2868   0.439E-03
   6 F= -.23260207E+04 E0= -.23260207E+04  d E =-.639838E-02  mag=     3.0000
       N       E                     dE             d eps       ncg     rms          rms(c)
DAV:   1    -0.230566957289E+04    0.21165E-01   -0.40689E+00  4480   0.204E+00    0.455E-01
RMM:   2    -0.230569155843E+04   -0.21986E-01   -0.23850E-01  5567   0.335E-01    0.275E-01
RMM:   3    -0.230569218900E+04   -0.63057E-03   -0.19310E-02  5077   0.128E-01    0.260E-01
RMM:   4    -0.230569182895E+04    0.36005E-03   -0.23976E-03  5476   0.282E-02    0.159E-01
RMM:   5    -0.230569149518E+04    0.33376E-03   -0.10512E-03  5021   0.241E-02    0.835E-02
RMM:   6    -0.230569142645E+04    0.68728E-04   -0.28492E-04  4649   0.146E-02    0.310E-02
RMM:   7    -0.230569141896E+04    0.74905E-05   -0.36482E-05  3178   0.583E-03
   7 F= -.23260214E+04 E0= -.23260214E+04  d E =-.703702E-02  mag=     3.0000
       N       E                     dE             d eps       ncg     rms          rms(c)
DAV:   1    -0.230568847451E+04    0.29519E-02   -0.76058E-01  4496   0.882E-01    0.195E-01
RMM:   2    -0.230569253905E+04   -0.40645E-02   -0.44423E-02  5729   0.146E-01    0.103E-01
RMM:   3    -0.230569262601E+04   -0.86960E-04   -0.33054E-03  4964   0.513E-02    0.790E-02
RMM:   4    -0.230569262394E+04    0.20709E-05   -0.43569E-04  4118   0.125E-02    0.789E-02
RMM:   5    -0.230569255773E+04    0.66208E-04   -0.22164E-04  4250   0.118E-02    0.366E-02
RMM:   6    -0.230569254653E+04    0.11200E-04   -0.36504E-05  3036   0.711E-03    0.116E-02
RMM:   7    -0.230569254669E+04   -0.16438E-06   -0.91868E-06  2846   0.394E-03
   8 F= -.23260225E+04 E0= -.23260225E+04  d E =-.818778E-02  mag=     3.0000
       N       E                     dE             d eps       ncg     rms          rms(c)
DAV:   1    -0.230568124189E+04    0.11305E-01   -0.18811E+00  4448   0.142E+00    0.357E-01
RMM:   2    -0.230569749327E+04   -0.16251E-01   -0.17448E-01  5741   0.248E-01    0.185E-01
RMM:   3    -0.230569843264E+04   -0.93937E-03   -0.16433E-02  5120   0.933E-02    0.144E-01
RMM:   4    -0.230569843214E+04    0.50044E-06   -0.17965E-03  5012   0.193E-02    0.117E-01
RMM:   5    -0.230569827620E+04    0.15594E-03   -0.43215E-04  4566   0.145E-02    0.692E-02
RMM:   6    -0.230569822815E+04    0.48052E-04   -0.20882E-04  4398   0.107E-02    0.322E-02
RMM:   7    -0.230569822043E+04    0.77201E-05   -0.26943E-05  2910   0.721E-03
   9 F= -.23260281E+04 E0= -.23260281E+04  d E =-.557282E-02  mag=     3.0000
       N       E                     dE             d eps       ncg     rms          rms(c)
DAV:   1    -0.230566006053E+04    0.38168E-01   -0.44007E+00  4432   0.217E+00    0.547E-01
RMM:   2    -0.230569820258E+04   -0.38142E-01   -0.40916E-01  5731   0.378E-01    0.288E-01
RMM:   3    -0.230570044078E+04   -0.22382E-02   -0.38347E-02  5134   0.145E-01    0.231E-01
RMM:   4    -0.230570040667E+04    0.34111E-04   -0.42310E-03  5486   0.296E-02    0.179E-01
RMM:   5    -0.230570004332E+04    0.36335E-03   -0.99374E-04  4931   0.207E-02    0.105E-01
RMM:   6    -0.230569993251E+04    0.11082E-03   -0.48877E-04  4825   0.157E-02    0.480E-02
RMM:   7    -0.230569991587E+04    0.16640E-04   -0.57708E-05  3265   0.952E-03    0.144E-02
RMM:   8    -0.230569991443E+04    0.14349E-05   -0.12961E-05  2862   0.350E-03
  10 F= -.23260296E+04 E0= -.23260296E+04  d E =-.709165E-02  mag=     3.0000
       N       E                     dE             d eps       ncg     rms          rms(c)
DAV:   1    -0.230569656689E+04    0.33490E-02   -0.41198E-01  4480   0.663E-01    0.167E-01
RMM:   2    -0.230570015454E+04   -0.35877E-02   -0.38588E-02  5859   0.116E-01    0.798E-02
RMM:   3    -0.230570031855E+04   -0.16401E-03   -0.31949E-03  4758   0.409E-02    0.554E-02
RMM:   4    -0.230570031802E+04    0.53656E-06   -0.35397E-04  3547   0.979E-03    0.503E-02
RMM:   5    -0.230570029911E+04    0.18907E-04   -0.88581E-05  3111   0.766E-03    0.379E-02
RMM:   6    -0.230570028690E+04    0.12212E-04   -0.36509E-05  2996   0.592E-03    0.134E-02
RMM:   7    -0.230570028673E+04    0.16697E-06   -0.98192E-06  2851   0.454E-03
  11 F= -.23260301E+04 E0= -.23260301E+04  d E =-.752017E-02  mag=     3.0000
       N       E                     dE             d eps       ncg     rms          rms(c)
DAV:   1    -0.230569056795E+04    0.97189E-02   -0.12355E+00  4448   0.113E+00    0.292E-01
RMM:   2    -0.230570370627E+04   -0.13138E-01   -0.14043E-01  5818   0.204E-01    0.155E-01
RMM:   3    -0.230570458766E+04   -0.88139E-03   -0.13831E-02  5188   0.756E-02    0.109E-01
RMM:   4    -0.230570461769E+04   -0.30023E-04   -0.14393E-03  4500   0.157E-02    0.947E-02
RMM:   5    -0.230570453110E+04    0.86590E-04   -0.29383E-04  4119   0.119E-02    0.664E-02
RMM:   6    -0.230570448944E+04    0.41663E-04   -0.15567E-04  4199   0.897E-03    0.318E-02
RMM:   7    -0.230570448210E+04    0.73393E-05   -0.23382E-05  2865   0.640E-03
  12 F= -.23260342E+04 E0= -.23260342E+04  d E =-.418007E-02  mag=     3.0000
       N       E                     dE             d eps       ncg     rms          rms(c)
DAV:   1    -0.230568148433E+04    0.23005E-01   -0.21869E+00  4416   0.151E+00    0.390E-01
RMM:   2    -0.230570480902E+04   -0.23325E-01   -0.24946E-01  5788   0.272E-01    0.210E-01
RMM:   3    -0.230570638651E+04   -0.15775E-02   -0.24494E-02  5221   0.102E-01    0.150E-01
RMM:   4    -0.230570644044E+04   -0.53934E-04   -0.25628E-03  4994   0.207E-02    0.128E-01
RMM:   5    -0.230570627773E+04    0.16272E-03   -0.51164E-04  4557   0.148E-02    0.861E-02
RMM:   6    -0.230570620702E+04    0.70702E-04   -0.27881E-04  4540   0.114E-02    0.417E-02
RMM:   7    -0.230570619426E+04    0.12766E-04   -0.38116E-05  2936   0.773E-03    0.130E-02
RMM:   8    -0.230570619298E+04    0.12729E-05   -0.10202E-05  2858   0.323E-03
  13 F= -.23260359E+04 E0= -.23260359E+04  d E =-.586503E-02  mag=     3.0000
       N       E                     dE             d eps       ncg     rms          rms(c)
DAV:   1    -0.230569956385E+04    0.66304E-02   -0.85794E-01  4448   0.947E-01    0.245E-01
RMM:   2    -0.230570854223E+04   -0.89784E-02   -0.95294E-02  5773   0.170E-01    0.147E-01
RMM:   3    -0.230570914849E+04   -0.60626E-03   -0.94913E-03  5191   0.628E-02    0.123E-01
RMM:   4    -0.230570911506E+04    0.33427E-04   -0.10121E-03  4099   0.132E-02    0.818E-02
RMM:   5    -0.230570903635E+04    0.78710E-04   -0.18603E-04  3739   0.100E-02    0.476E-02
RMM:   6    -0.230570901936E+04    0.16988E-04   -0.12986E-04  4024   0.867E-03    0.266E-02
RMM:   7    -0.230570901493E+04    0.44387E-05   -0.17868E-05  2845   0.626E-03
  14 F= -.23260386E+04 E0= -.23260386E+04  d E =-.272302E-02  mag=     3.0000
       N       E                     dE             d eps       ncg     rms          rms(c)
DAV:   1    -0.230569032699E+04    0.18692E-01   -0.18366E+00  4416   0.138E+00    0.360E-01
RMM:   2    -0.230570952199E+04   -0.19195E-01   -0.20394E-01  5767   0.249E-01    0.215E-01
RMM:   3    -0.230571080882E+04   -0.12868E-02   -0.20236E-02  5234   0.921E-02    0.175E-01
RMM:   4    -0.230571075733E+04    0.51487E-04   -0.21566E-03  5054   0.192E-02    0.120E-01
RMM:   5    -0.230571059340E+04    0.16393E-03   -0.40714E-04  4454   0.135E-02    0.711E-02
RMM:   6    -0.230571055091E+04    0.42491E-04   -0.26056E-04  4490   0.114E-02    0.385E-02
RMM:   7    -0.230571054122E+04    0.96867E-05   -0.34502E-05  2888   0.764E-03
  15 F= -.23260400E+04 E0= -.23260400E+04  d E =-.409976E-02  mag=     3.0000
       N       E                     dE             d eps       ncg     rms          rms(c)
DAV:   1    -0.230570356565E+04    0.69853E-02   -0.10885E+00  4448   0.106E+00    0.263E-01
RMM:   2    -0.230571343342E+04   -0.98678E-02   -0.10483E-01  5766   0.186E-01    0.161E-01
RMM:   3    -0.230571401861E+04   -0.58519E-03   -0.99128E-03  5172   0.637E-02    0.138E-01
RMM:   4    -0.230571396445E+04    0.54158E-04   -0.10994E-03  4329   0.142E-02    0.874E-02
RMM:   5    -0.230571387612E+04    0.88338E-04   -0.21592E-04  3969   0.106E-02    0.523E-02
RMM:   6    -0.230571385360E+04    0.22518E-04   -0.14805E-04  4131   0.918E-03    0.269E-02
RMM:   7    -0.230571384874E+04    0.48560E-05   -0.18132E-05  2844   0.643E-03
  16 F= -.23260432E+04 E0= -.23260432E+04  d E =-.320599E-02  mag=     3.0000
       N       E                     dE             d eps       ncg     rms          rms(c)
DAV:   1    -0.230568205783E+04    0.31796E-01   -0.36075E+00  4408   0.193E+00    0.478E-01
RMM:   2    -0.230571477334E+04   -0.32716E-01   -0.34688E-01  5697   0.337E-01    0.300E-01
RMM:   3    -0.230571663303E+04   -0.18597E-02   -0.32705E-02  5189   0.123E-01    0.253E-01
RMM:   4    -0.230571643180E+04    0.20123E-03   -0.36048E-03  5500   0.261E-02    0.159E-01
RMM:   5    -0.230571614086E+04    0.29093E-03   -0.72452E-04  4818   0.176E-02    0.974E-02
RMM:   6    -0.230571605096E+04    0.89903E-04   -0.47823E-04  4906   0.149E-02    0.476E-02
RMM:   7    -0.230571603393E+04    0.17036E-04   -0.51067E-05  3074   0.888E-03    0.135E-02
RMM:   8    -0.230571603218E+04    0.17454E-05   -0.14171E-05  2852   0.341E-03
  17 F= -.23260452E+04 E0= -.23260452E+04  d E =-.519624E-02  mag=     3.0000
       N       E                     dE             d eps       ncg     rms          rms(c)
DAV:   1    -0.230571075023E+04    0.52837E-02   -0.84837E-01  4496   0.923E-01    0.213E-01
RMM:   2    -0.230571834494E+04   -0.75947E-02   -0.80300E-02  5738   0.160E-01    0.133E-01
RMM:   3    -0.230571878882E+04   -0.44388E-03   -0.75999E-03  5112   0.567E-02    0.105E-01
RMM:   4    -0.230571878134E+04    0.74820E-05   -0.81141E-04  3807   0.118E-02    0.774E-02
RMM:   5    -0.230571871530E+04    0.66032E-04   -0.15751E-04  3470   0.911E-03    0.476E-02
RMM:   6    -0.230571869644E+04    0.18861E-04   -0.12138E-04  3954   0.842E-03    0.222E-02
RMM:   7    -0.230571869373E+04    0.27141E-05   -0.14453E-05  2847   0.596E-03
  18 F= -.23260478E+04 E0= -.23260478E+04  d E =-.255249E-02  mag=     3.0000
       N       E                     dE             d eps       ncg     rms          rms(c)
DAV:   1    -0.230565118952E+04    0.67507E-01   -0.76253E+00  4400   0.277E+00    0.641E-01
RMM:   2    -0.230571980597E+04   -0.68616E-01   -0.72400E-01  5700   0.477E-01    0.432E-01
RMM:   3    -0.230572358331E+04   -0.37773E-02   -0.68147E-02  5217   0.174E-01    0.341E-01
RMM:   4    -0.230572331146E+04    0.27185E-03   -0.72462E-03  5692   0.357E-02    0.228E-01
RMM:   5    -0.230572274342E+04    0.56804E-03   -0.14241E-03  4995   0.231E-02    0.146E-01
RMM:   6    -0.230572254189E+04    0.20153E-03   -0.10346E-03  5013   0.208E-02    0.652E-02
RMM:   7    -0.230572251466E+04    0.27234E-04   -0.11446E-04  3849   0.123E-02    0.211E-02
RMM:   8    -0.230572251020E+04    0.44537E-05   -0.24680E-05  2867   0.384E-03
  19 F= -.23260512E+04 E0= -.23260512E+04  d E =-.603675E-02  mag=     3.0000
       N       E                     dE             d eps       ncg     rms          rms(c)
DAV:   1    -0.230571916838E+04    0.33463E-02   -0.61881E-01  4592   0.799E-01    0.213E-01
RMM:   2    -0.230572496516E+04   -0.57968E-02   -0.61623E-02  5739   0.144E-01    0.108E-01
RMM:   3    -0.230572526375E+04   -0.29859E-03   -0.57773E-03  5010   0.512E-02    0.677E-02
RMM:   4    -0.230572525790E+04    0.58532E-05   -0.62796E-04  4239   0.131E-02    0.529E-02
RMM:   5    -0.230572526531E+04   -0.74095E-05   -0.13177E-04  3063   0.925E-03    0.683E-02
RMM:   6    -0.230572522631E+04    0.38993E-04   -0.65679E-05  3152   0.631E-03    0.108E-02
RMM:   7    -0.230572522622E+04    0.88388E-07   -0.11363E-05  2851   0.449E-03
  20 F= -.23260538E+04 E0= -.23260538E+04  d E =-.257652E-02  mag=     3.0000
       N       E                     dE             d eps       ncg     rms          rms(c)
DAV:   1    -0.230571840478E+04    0.68215E-02   -0.80661E-01  4464   0.912E-01    0.243E-01
RMM:   2    -0.230572595154E+04   -0.75468E-02   -0.80317E-02  5714   0.164E-01    0.123E-01
RMM:   3    -0.230572633149E+04   -0.37995E-03   -0.74693E-03  5032   0.574E-02    0.775E-02
RMM:   4    -0.230572633701E+04   -0.55199E-05   -0.84749E-04  4355   0.150E-02    0.721E-02
RMM:   5    -0.230572631018E+04    0.26830E-04   -0.16368E-04  3211   0.102E-02    0.635E-02
RMM:   6    -0.230572627741E+04    0.32768E-04   -0.77343E-05  3610   0.685E-03    0.127E-02
RMM:   7    -0.230572627655E+04    0.86380E-06   -0.11998E-05  2848   0.512E-03
  21 F= -.23260547E+04 E0= -.23260547E+04  d E =-.346730E-02  mag=     3.0000
       N       E                     dE             d eps       ncg     rms          rms(c)
DAV:   1    -0.230572065395E+04    0.56235E-02   -0.76393E-01  4448   0.885E-01    0.219E-01
RMM:   2    -0.230572857332E+04   -0.79194E-02   -0.83284E-02  5735   0.158E-01    0.115E-01
RMM:   3    -0.230572878745E+04   -0.21413E-03   -0.50746E-03  5010   0.515E-02    0.842E-02
RMM:   4    -0.230572881584E+04   -0.28391E-04   -0.64449E-04  3876   0.122E-02    0.917E-02
RMM:   5    -0.230572872451E+04    0.91329E-04   -0.14478E-04  3472   0.881E-03    0.357E-02
RMM:   6    -0.230572871853E+04    0.59883E-05   -0.73827E-05  3644   0.755E-03
  22 F= -.23260570E+04 E0= -.23260570E+04  d E =-.231328E-02  mag=     3.0000
       N       E                     dE             d eps       ncg     rms          rms(c)
DAV:   1    -0.230567532918E+04    0.53395E-01   -0.52734E+00  4432   0.232E+00    0.577E-01
RMM:   2    -0.230572826590E+04   -0.52937E-01   -0.55810E-01  5737   0.411E-01    0.306E-01
RMM:   3    -0.230573139654E+04   -0.31306E-02   -0.51493E-02  5158   0.139E-01    0.217E-01
RMM:   4    -0.230573178127E+04   -0.38473E-03   -0.57836E-03  5354   0.316E-02    0.251E-01
RMM:   5    -0.230573115612E+04    0.62515E-03   -0.89007E-04  4857   0.179E-02    0.106E-01
RMM:   6    -0.230573105349E+04    0.10263E-03   -0.61643E-04  4592   0.167E-02    0.320E-02
RMM:   7    -0.230573105221E+04    0.12824E-05   -0.48060E-05  3096   0.100E-02
  23 F= -.23260590E+04 E0= -.23260590E+04  d E =-.431057E-02  mag=     3.0000
       N       E                     dE             d eps       ncg     rms          rms(c)
DAV:   1    -0.230572531029E+04    0.57432E-02   -0.77432E-01  4496   0.885E-01    0.217E-01
RMM:   2    -0.230573314251E+04   -0.78322E-02   -0.82465E-02  5787   0.159E-01    0.120E-01
RMM:   3    -0.230573347771E+04   -0.33520E-03   -0.64641E-03  4998   0.530E-02    0.812E-02
RMM:   4    -0.230573349101E+04   -0.13295E-04   -0.71150E-04  3893   0.118E-02    0.748E-02
RMM:   5    -0.230573344391E+04    0.47094E-04   -0.16075E-04  3278   0.897E-03    0.513E-02
RMM:   6    -0.230573342237E+04    0.21546E-04   -0.83377E-05  3546   0.742E-03    0.184E-02
RMM:   7    -0.230573342112E+04    0.12486E-05   -0.13120E-05  2866   0.531E-03
  24 F= -.23260613E+04 E0= -.23260613E+04  d E =-.224659E-02  mag=     3.0000
       N       E                     dE             d eps       ncg     rms          rms(c)
DAV:   1    -0.230567311273E+04    0.60310E-01   -0.60631E+00  4432   0.247E+00    0.605E-01
RMM:   2    -0.230573342216E+04   -0.60309E-01   -0.63475E-01  5717   0.441E-01    0.342E-01
RMM:   3    -0.230573666712E+04   -0.32450E-02   -0.57912E-02  5081   0.162E-01    0.215E-01
RMM:   4    -0.230573666535E+04    0.17631E-05   -0.58100E-03  4911   0.331E-02    0.163E-01
RMM:   5    -0.230573656923E+04    0.96122E-04   -0.13859E-03  4956   0.249E-02    0.172E-01
RMM:   6    -0.230573629443E+04    0.27480E-03   -0.58626E-04  4858   0.149E-02    0.648E-02
RMM:   7    -0.230573627030E+04    0.24136E-04   -0.73394E-05  3134   0.897E-03    0.191E-02
RMM:   8    -0.230573626838E+04    0.19167E-05   -0.17094E-05  2869   0.381E-03
  25 F= -.23260638E+04 E0= -.23260638E+04  d E =-.475768E-02  mag=     3.0000
       N       E                     dE             d eps       ncg     rms          rms(c)
DAV:   1    -0.230572832556E+04    0.79447E-02   -0.11438E+00  4448   0.105E+00    0.273E-01
RMM:   2    -0.230573875707E+04   -0.10432E-01   -0.11014E-01  5833   0.191E-01    0.157E-01
RMM:   3    -0.230573934102E+04   -0.58394E-03   -0.10363E-02  5175   0.679E-02    0.129E-01
RMM:   4    -0.230573932104E+04    0.19980E-04   -0.11237E-03  4271   0.144E-02    0.927E-02
RMM:   5    -0.230573922124E+04    0.99795E-04   -0.23651E-04  3940   0.108E-02    0.523E-02
RMM:   6    -0.230573919665E+04    0.24587E-04   -0.13487E-04  4052   0.895E-03    0.244E-02
RMM:   7    -0.230573919338E+04    0.32764E-05   -0.17666E-05  2855   0.618E-03
  26 F= -.23260665E+04 E0= -.23260665E+04  d E =-.274688E-02  mag=     3.0000
       N       E                     dE             d eps       ncg     rms          rms(c)
DAV:   1    -0.230572013524E+04    0.19061E-01   -0.21548E+00  4432   0.145E+00    0.376E-01
RMM:   2    -0.230573978633E+04   -0.19651E-01   -0.20778E-01  5788   0.263E-01    0.210E-01
RMM:   3    -0.230574083627E+04   -0.10499E-02   -0.19358E-02  5206   0.918E-02    0.163E-01
RMM:   4    -0.230574084025E+04   -0.39817E-05   -0.20849E-03  5086   0.195E-02    0.129E-01
RMM:   5    -0.230574065858E+04    0.18167E-03   -0.45794E-04  4416   0.138E-02    0.751E-02
RMM:   6    -0.230574060362E+04    0.54963E-04   -0.23926E-04  4445   0.112E-02    0.325E-02
RMM:   7    -0.230574059725E+04    0.63673E-05   -0.29458E-05  2886   0.721E-03
  27 F= -.23260677E+04 E0= -.23260677E+04  d E =-.390826E-02  mag=     3.0000
       N       E                     dE             d eps       ncg     rms          rms(c)
DAV:   1    -0.230572948516E+04    0.11118E-01   -0.15306E+00  4424   0.119E+00    0.296E-01
RMM:   2    -0.230574292694E+04   -0.13442E-01   -0.14200E-01  5859   0.216E-01    0.167E-01
RMM:   3    -0.230574368089E+04   -0.75394E-03   -0.13290E-02  5249   0.709E-02    0.127E-01
RMM:   4    -0.230574371037E+04   -0.29477E-04   -0.13960E-03  4372   0.155E-02    0.105E-01
RMM:   5    -0.230574359462E+04    0.11575E-03   -0.30501E-04  4056   0.115E-02    0.636E-02
RMM:   6    -0.230574356052E+04    0.34098E-04   -0.15804E-04  4106   0.937E-03    0.273E-02
RMM:   7    -0.230574355671E+04    0.38046E-05   -0.21603E-05  2872   0.616E-03
  28 F= -.23260705E+04 E0= -.23260705E+04  d E =-.278757E-02  mag=     3.0000
       N       E                     dE             d eps       ncg     rms          rms(c)
DAV:   1    -0.230572011023E+04    0.23450E-01   -0.27130E+00  4400   0.158E+00    0.393E-01
RMM:   2    -0.230574392057E+04   -0.23810E-01   -0.25152E-01  5825   0.287E-01    0.224E-01
RMM:   3    -0.230574522717E+04   -0.13066E-02   -0.23456E-02  5291   0.970E-02    0.170E-01
RMM:   4    -0.230574527249E+04   -0.45322E-04   -0.24579E-03  5065   0.205E-02    0.140E-01
RMM:   5    -0.230574506978E+04    0.20271E-03   -0.53848E-04  4458   0.146E-02    0.862E-02
RMM:   6    -0.230574500132E+04    0.68460E-04   -0.28478E-04  4530   0.119E-02    0.349E-02
RMM:   7    -0.230574499449E+04    0.68280E-05   -0.33624E-05  2913   0.732E-03
  29 F= -.23260717E+04 E0= -.23260717E+04  d E =-.400063E-02  mag=     3.0000
       N       E                     dE             d eps       ncg     rms          rms(c)
DAV:   1    -0.230573600131E+04    0.90000E-02   -0.12934E+00  4448   0.111E+00    0.294E-01
RMM:   2    -0.230574731844E+04   -0.11317E-01   -0.11985E-01  5846   0.202E-01    0.147E-01
RMM:   3    -0.230574792118E+04   -0.60274E-03   -0.11274E-02  5181   0.659E-02    0.909E-02
RMM:   4    -0.230574789150E+04    0.29680E-04   -0.11444E-03  4372   0.168E-02    0.606E-02
RMM:   5    -0.230574792032E+04   -0.28816E-04   -0.24676E-04  3786   0.115E-02    0.874E-02
RMM:   6    -0.230574785269E+04    0.67623E-04   -0.87460E-05  3053   0.693E-03    0.135E-02
RMM:   7    -0.230574785341E+04   -0.71581E-06   -0.19118E-05  2895   0.471E-03
  30 F= -.23260744E+04 E0= -.23260744E+04  d E =-.270486E-02  mag=     3.0000
       N       E                     dE             d eps       ncg     rms          rms(c)
DAV:   1    -0.230573844220E+04    0.94105E-02   -0.11307E+00  4416   0.103E+00    0.275E-01
RMM:   2    -0.230574832730E+04   -0.98851E-02   -0.10457E-01  5815   0.188E-01    0.138E-01
RMM:   3    -0.230574885172E+04   -0.52442E-03   -0.98733E-03  5128   0.620E-02    0.863E-02
RMM:   4    -0.230574886051E+04   -0.87945E-05   -0.10394E-03  4402   0.159E-02    0.843E-02
RMM:   5    -0.230574881589E+04    0.44617E-04   -0.21182E-04  3311   0.107E-02    0.650E-02
RMM:   6    -0.230574878449E+04    0.31400E-04   -0.83384E-05  3621   0.707E-03    0.132E-02
RMM:   7    -0.230574878418E+04    0.31682E-06   -0.13512E-05  2862   0.537E-03
  31 F= -.23260752E+04 E0= -.23260752E+04  d E =-.349360E-02  mag=     3.0000
       N       E                     dE             d eps       ncg     rms          rms(c)
DAV:   1    -0.230574203514E+04    0.67493E-02   -0.97687E-01  4432   0.958E-01    0.242E-01
RMM:   2    -0.230575107373E+04   -0.90386E-02   -0.94732E-02  5809   0.174E-01    0.132E-01
RMM:   3    -0.230575154284E+04   -0.46911E-03   -0.80061E-03  5118   0.550E-02    0.111E-01
RMM:   4    -0.230575152741E+04    0.15435E-04   -0.85166E-04  3711   0.128E-02    0.889E-02
RMM:   5    -0.230575142821E+04    0.99198E-04   -0.18954E-04  3828   0.974E-03    0.370E-02
RMM:   6    -0.230575142158E+04    0.66269E-05   -0.83635E-05  3534   0.802E-03
  32 F= -.23260778E+04 E0= -.23260778E+04  d E =-.259475E-02  mag=     3.0000
       N       E                     dE             d eps       ncg     rms          rms(c)
DAV:   1    -0.230567535001E+04    0.76078E-01   -0.81397E+00  4400   0.277E+00    0.697E-01
RMM:   2    -0.230574988052E+04   -0.74531E-01   -0.78275E-01  5784   0.497E-01    0.378E-01
RMM:   3    -0.230575450562E+04   -0.46251E-02   -0.74696E-02  5269   0.165E-01    0.305E-01
RMM:   4    -0.230575458467E+04   -0.79046E-04   -0.78189E-03  5665   0.363E-02    0.274E-01
RMM:   5    -0.230575376783E+04    0.81683E-03   -0.13716E-03  4780   0.220E-02    0.121E-01
RMM:   6    -0.230575363480E+04    0.13303E-03   -0.97938E-04  4995   0.207E-02    0.307E-02
RMM:   7    -0.230575362918E+04    0.56154E-05   -0.66099E-05  3385   0.106E-02
  33 F= -.23260799E+04 E0= -.23260799E+04  d E =-.469593E-02  mag=     3.0000
       N       E                     dE             d eps       ncg     rms          rms(c)
DAV:   1    -0.230575101908E+04    0.26157E-02   -0.29478E-01  4544   0.526E-01    0.132E-01
RMM:   2    -0.230575368919E+04   -0.26701E-02   -0.27871E-02  5860   0.965E-02    0.814E-02
RMM:   3    -0.230575387667E+04   -0.18748E-03   -0.28584E-03  4402   0.319E-02    0.791E-02
RMM:   4    -0.230575384247E+04    0.34196E-04   -0.28656E-04  2985   0.792E-03    0.439E-02
RMM:   5    -0.230575381357E+04    0.28904E-04   -0.59621E-05  2978   0.589E-03    0.198E-02
RMM:   6    -0.230575381134E+04    0.22295E-05   -0.28308E-05  2901   0.543E-03
  34 F= -.23260801E+04 E0= -.23260801E+04  d E =-.489636E-02  mag=     3.0000
       N       E                     dE             d eps       ncg     rms          rms(c)
DAV:   1    -0.230573983504E+04    0.13979E-01   -0.15734E+00  4408   0.120E+00    0.309E-01
RMM:   2    -0.230575568051E+04   -0.15845E-01   -0.16588E-01  5919   0.223E-01    0.171E-01
RMM:   3    -0.230575658213E+04   -0.90162E-03   -0.14401E-02  5346   0.747E-02    0.144E-01
RMM:   4    -0.230575655985E+04    0.22283E-04   -0.15238E-03  4175   0.163E-02    0.113E-01
RMM:   5    -0.230575639897E+04    0.16088E-03   -0.28175E-04  4013   0.112E-02    0.492E-02
RMM:   6    -0.230575638064E+04    0.18333E-04   -0.14663E-04  4025   0.979E-03    0.122E-02
RMM:   7    -0.230575638135E+04   -0.70862E-06   -0.16092E-05  2867   0.600E-03
  35 F= -.23260827E+04 E0= -.23260827E+04  d E =-.262760E-02  mag=     3.0000
       N       E                     dE             d eps       ncg     rms          rms(c)
DAV:   1    -0.230568670628E+04    0.69674E-01   -0.66740E+00  4400   0.247E+00    0.641E-01
RMM:   2    -0.230575370085E+04   -0.66995E-01   -0.70315E-01  5842   0.455E-01    0.351E-01
RMM:   3    -0.230575817560E+04   -0.44747E-02   -0.68443E-02  5361   0.150E-01    0.285E-01
RMM:   4    -0.230575824774E+04   -0.72134E-04   -0.71409E-03  5634   0.326E-02    0.246E-01
RMM:   5    -0.230575759271E+04    0.65503E-03   -0.10600E-03  4694   0.190E-02    0.113E-01
RMM:   6    -0.230575746961E+04    0.12311E-03   -0.81540E-04  4879   0.185E-02    0.282E-02
RMM:   7    -0.230575746738E+04    0.22209E-05   -0.65667E-05  3268   0.104E-02
  36 F= -.23260839E+04 E0= -.23260839E+04  d E =-.385140E-02  mag=     3.0000
       N       E                     dE             d eps       ncg     rms          rms(c)
DAV:   1    -0.230574341926E+04    0.14050E-01   -0.13940E+00  4424   0.111E+00    0.295E-01
RMM:   2    -0.230575867643E+04   -0.15257E-01   -0.16024E-01  5919   0.209E-01    0.160E-01
RMM:   3    -0.230575948636E+04   -0.80993E-03   -0.13641E-02  5258   0.640E-02    0.101E-01
RMM:   4    -0.230575952778E+04   -0.41417E-04   -0.14208E-03  4265   0.155E-02    0.998E-02
RMM:   5    -0.230575945497E+04    0.72811E-04   -0.24167E-04  3277   0.956E-03    0.698E-02
RMM:   6    -0.230575941851E+04    0.36456E-04   -0.12000E-04  3699   0.784E-03    0.171E-02
RMM:   7    -0.230575941904E+04   -0.52128E-06   -0.23133E-05  2885   0.601E-03
  37 F= -.23260859E+04 E0= -.23260859E+04  d E =-.194828E-02  mag=     3.0000
       N       E                     dE             d eps       ncg     rms          rms(c)
DAV:   1    -0.230570099422E+04    0.58424E-01   -0.52306E+00  4400   0.214E+00    0.570E-01
RMM:   2    -0.230575757051E+04   -0.56576E-01   -0.59391E-01  5879   0.403E-01    0.315E-01
RMM:   3    -0.230576105399E+04   -0.34835E-02   -0.56358E-02  5353   0.133E-01    0.198E-01
RMM:   4    -0.230576130635E+04   -0.25235E-03   -0.57479E-03  4940   0.294E-02    0.209E-01
RMM:   5    -0.230576095016E+04    0.35619E-03   -0.88265E-04  4698   0.167E-02    0.130E-01
RMM:   6    -0.230576079190E+04    0.15826E-03   -0.56229E-04  4399   0.146E-02    0.306E-02
RMM:   7    -0.230576079462E+04   -0.27210E-05   -0.63553E-05  3026   0.100E-02
  38 F= -.23260873E+04 E0= -.23260873E+04  d E =-.333235E-02  mag=     3.0000
       N       E                     dE             d eps       ncg     rms          rms(c)
DAV:   1    -0.230575936526E+04    0.14266E-02   -0.33087E-01  4544   0.551E-01    0.169E-01
RMM:   2    -0.230576282053E+04   -0.34553E-02   -0.36921E-02  5853   0.106E-01    0.905E-02
RMM:   3    -0.230576300615E+04   -0.18562E-03   -0.34741E-03  4700   0.357E-02    0.701E-02
RMM:   4    -0.230576301519E+04   -0.90422E-05   -0.40342E-04  3111   0.910E-03    0.627E-02
RMM:   5    -0.230576297202E+04    0.43171E-04   -0.94657E-05  3158   0.733E-03    0.289E-02
RMM:   6    -0.230576296530E+04    0.67198E-05   -0.35417E-05  2938   0.628E-03
  39 F= -.23260894E+04 E0= -.23260894E+04  d E =-.208561E-02  mag=     3.0000
       N       E                     dE             d eps       ncg     rms          rms(c)
DAV:   1    -0.230575677753E+04    0.61945E-02   -0.67690E-01  4432   0.789E-01    0.240E-01
RMM:   2    -0.230576380949E+04   -0.70320E-02   -0.75054E-02  5846   0.152E-01    0.128E-01
RMM:   3    -0.230576415966E+04   -0.35017E-03   -0.69705E-03  5182   0.526E-02    0.945E-02
RMM:   4    -0.230576418587E+04   -0.26206E-04   -0.80567E-04  3826   0.127E-02    0.921E-02
RMM:   5    -0.230576409434E+04    0.91533E-04   -0.19628E-04  3881   0.101E-02    0.425E-02
RMM:   6    -0.230576407600E+04    0.18331E-04   -0.75432E-05  3422   0.765E-03    0.125E-02
RMM:   7    -0.230576407524E+04    0.76080E-06   -0.11614E-05  2852   0.539E-03
  40 F= -.23260903E+04 E0= -.23260903E+04  d E =-.307511E-02  mag=     3.0000
       N       E                     dE             d eps       ncg     rms          rms(c)
DAV:   1    -0.230576171068E+04    0.23653E-02   -0.47225E-01  4448   0.674E-01    0.187E-01
RMM:   2    -0.230576565628E+04   -0.39456E-02   -0.42417E-02  5784   0.122E-01    0.914E-02
RMM:   3    -0.230576585314E+04   -0.19686E-03   -0.40296E-03  4867   0.426E-02    0.575E-02
RMM:   4    -0.230576585212E+04    0.10220E-05   -0.44607E-04  3990   0.113E-02    0.529E-02
RMM:   5    -0.230576584026E+04    0.11862E-04   -0.96729E-05  2965   0.800E-03    0.452E-02
RMM:   6    -0.230576582440E+04    0.15853E-04   -0.33077E-05  2887   0.527E-03    0.841E-03
RMM:   7    -0.230576582469E+04   -0.28266E-06   -0.73710E-06  2845   0.395E-03
  41 F= -.23260921E+04 E0= -.23260921E+04  d E =-.171504E-02  mag=     3.0000
       N       E                     dE             d eps       ncg     rms          rms(c)
DAV:   1    -0.230576228937E+04    0.35350E-02   -0.46721E-01  4416   0.671E-01    0.186E-01
RMM:   2    -0.230576619513E+04   -0.39058E-02   -0.41971E-02  5745   0.121E-01    0.911E-02
RMM:   3    -0.230576638570E+04   -0.19057E-03   -0.39660E-03  4845   0.396E-02    0.576E-02
RMM:   4    -0.230576638812E+04   -0.24237E-05   -0.44454E-04  4020   0.111E-02    0.571E-02
RMM:   5    -0.230576636751E+04    0.20609E-04   -0.96394E-05  2974   0.780E-03    0.416E-02
RMM:   6    -0.230576635428E+04    0.13228E-04   -0.32922E-05  2895   0.525E-03    0.854E-03
RMM:   7    -0.230576635422E+04    0.63941E-07   -0.75896E-06  2846   0.406E-03
  42 F= -.23260926E+04 E0= -.23260926E+04  d E =-.221101E-02  mag=     3.0000
       N       E                     dE             d eps       ncg     rms          rms(c)
DAV:   1    -0.230576334487E+04    0.30094E-02   -0.56577E-01  4408   0.744E-01    0.191E-01
RMM:   2    -0.230576808375E+04   -0.47389E-02   -0.50261E-02  5722   0.132E-01    0.117E-01
RMM:   3    -0.230576832595E+04   -0.24220E-03   -0.43068E-03  5017   0.426E-02    0.112E-01
RMM:   4    -0.230576825453E+04    0.71415E-04   -0.48330E-04  3374   0.107E-02    0.652E-02
RMM:   5    -0.230576820183E+04    0.52707E-04   -0.13135E-04  3797   0.881E-03    0.274E-02
RMM:   6    -0.230576819833E+04    0.34935E-05   -0.47415E-05  3094   0.712E-03
  43 F= -.23260944E+04 E0= -.23260944E+04  d E =-.182589E-02  mag=     3.0000
       N       E                     dE             d eps       ncg     rms          rms(c)
DAV:   1    -0.230576240881E+04    0.57930E-02   -0.73614E-01  4408   0.849E-01    0.219E-01
RMM:   2    -0.230576858828E+04   -0.61795E-02   -0.65626E-02  5706   0.151E-01    0.134E-01
RMM:   3    -0.230576891624E+04   -0.32797E-03   -0.57102E-03  5106   0.529E-02    0.129E-01
RMM:   4    -0.230576882076E+04    0.95485E-04   -0.63523E-04  3724   0.121E-02    0.742E-02
RMM:   5    -0.230576875294E+04    0.67812E-04   -0.16944E-04  4009   0.987E-03    0.314E-02
RMM:   6    -0.230576874799E+04    0.49551E-05   -0.62695E-05  3387   0.772E-03
  44 F= -.23260949E+04 E0= -.23260949E+04  d E =-.235628E-02  mag=     3.0000
       N       E                     dE             d eps       ncg     rms          rms(c)
DAV:   1    -0.230576414077E+04    0.46122E-02   -0.57002E-01  4440   0.758E-01    0.209E-01
RMM:   2    -0.230576990772E+04   -0.57670E-02   -0.60752E-02  5866   0.139E-01    0.135E-01
RMM:   3    -0.230577024754E+04   -0.33982E-03   -0.54154E-03  5206   0.514E-02    0.134E-01
RMM:   4    -0.230577012532E+04    0.12222E-03   -0.60644E-04  3446   0.116E-02    0.633E-02
RMM:   5    -0.230577007528E+04    0.50045E-04   -0.12231E-04  3563   0.836E-03    0.312E-02
RMM:   6    -0.230577006696E+04    0.83119E-05   -0.70731E-05  3586   0.757E-03
  45 F= -.23260963E+04 E0= -.23260963E+04  d E =-.142671E-02  mag=     3.0000
       N       E                     dE             d eps       ncg     rms          rms(c)
DAV:   1    -0.230576313304E+04    0.69422E-02   -0.69936E-01  4400   0.841E-01    0.231E-01
RMM:   2    -0.230577020882E+04   -0.70758E-02   -0.74509E-02  5880   0.154E-01    0.149E-01
RMM:   3    -0.230577062852E+04   -0.41970E-03   -0.66136E-03  5252   0.550E-02    0.148E-01
RMM:   4    -0.230577047934E+04    0.14918E-03   -0.74616E-04  3704   0.127E-02    0.706E-02
RMM:   5    -0.230577041740E+04    0.61947E-04   -0.15151E-04  3792   0.903E-03    0.349E-02
RMM:   6    -0.230577040584E+04    0.11559E-04   -0.87966E-05  3821   0.803E-03    0.107E-02
RMM:   7    -0.230577040584E+04   -0.69849E-09   -0.92373E-06  2844   0.539E-03
  46 F= -.23260968E+04 E0= -.23260968E+04  d E =-.188636E-02  mag=     3.0000
       N       E                     dE             d eps       ncg     rms          rms(c)
DAV:   1    -0.230576659463E+04    0.38112E-02   -0.39726E-01  4448   0.617E-01    0.191E-01
RMM:   2    -0.230577144207E+04   -0.48474E-02   -0.50819E-02  5810   0.120E-01    0.135E-01
RMM:   3    -0.230577172566E+04   -0.28359E-03   -0.45303E-03  4955   0.417E-02    0.129E-01
RMM:   4    -0.230577160367E+04    0.12199E-03   -0.52208E-04  3378   0.106E-02    0.581E-02
RMM:   5    -0.230577156053E+04    0.43137E-04   -0.11129E-04  3314   0.804E-03    0.281E-02
RMM:   6    -0.230577155224E+04    0.82865E-05   -0.60755E-05  3428   0.723E-03
  47 F= -.23260980E+04 E0= -.23260980E+04  d E =-.123823E-02  mag=     3.0000
       N       E                     dE             d eps       ncg     rms          rms(c)
DAV:   1    -0.230576361668E+04    0.79438E-02   -0.60022E-01  4400   0.758E-01    0.237E-01
RMM:   2    -0.230577089463E+04   -0.72779E-02   -0.76476E-02  5808   0.148E-01    0.164E-01
RMM:   3    -0.230577137373E+04   -0.47910E-03   -0.73013E-03  5224   0.545E-02    0.157E-01
RMM:   4    -0.230577120512E+04    0.16861E-03   -0.80817E-04  3902   0.131E-02    0.718E-02
RMM:   5    -0.230577113787E+04    0.67247E-04   -0.17107E-04  3942   0.961E-03    0.349E-02
RMM:   6    -0.230577112486E+04    0.13006E-04   -0.81670E-05  3714   0.795E-03    0.152E-02
RMM:   7    -0.230577112297E+04    0.18963E-05   -0.11402E-05  2844   0.547E-03
  48 F= -.23260977E+04 E0= -.23260977E+04  d E =-.923418E-03  mag=     3.0000
       N       E                     dE             d eps       ncg     rms          rms(c)
DAV:   1    -0.230576875239E+04    0.23725E-02   -0.23111E-01  4448   0.470E-01    0.146E-01
RMM:   2    -0.230577153885E+04   -0.27865E-02   -0.29154E-02  5847   0.918E-02    0.106E-01
RMM:   3    -0.230577172328E+04   -0.18442E-03   -0.29513E-03  4498   0.331E-02    0.989E-02
RMM:   4    -0.230577165322E+04    0.70060E-04   -0.32930E-04  3023   0.867E-03    0.442E-02
RMM:   5    -0.230577162708E+04    0.26142E-04   -0.64675E-05  2979   0.638E-03    0.207E-02
RMM:   6    -0.230577162371E+04    0.33622E-05   -0.31720E-05  2945   0.605E-03
  49 F= -.23260981E+04 E0= -.23260981E+04  d E =-.135304E-02  mag=     3.0000
       N       E                     dE             d eps       ncg     rms          rms(c)
DAV:   1    -0.230576700283E+04    0.46242E-02   -0.48700E-01  4416   0.669E-01    0.201E-01
RMM:   2    -0.230577264904E+04   -0.56462E-02   -0.58832E-02  6021   0.129E-01    0.148E-01
RMM:   3    -0.230577298465E+04   -0.33561E-03   -0.54316E-03  5165   0.471E-02    0.136E-01
RMM:   4    -0.230577284493E+04    0.13972E-03   -0.59318E-04  3357   0.113E-02    0.612E-02
RMM:   5    -0.230577279682E+04    0.48110E-04   -0.11918E-04  3386   0.805E-03    0.301E-02
RMM:   6    -0.230577278778E+04    0.90401E-05   -0.67106E-05  3334   0.736E-03
  50 F= -.23260994E+04 E0= -.23260994E+04  d E =-.124907E-02  mag=     3.0000
       N       E                     dE             d eps       ncg     rms          rms(c)
DAV:   1    -0.230576685557E+04    0.59413E-02   -0.50799E-01  4400   0.683E-01    0.209E-01
RMM:   2    -0.230577279539E+04   -0.59398E-02   -0.62081E-02  5953   0.132E-01    0.153E-01
RMM:   3    -0.230577316381E+04   -0.36842E-03   -0.57733E-03  5228   0.464E-02    0.144E-01
RMM:   4    -0.230577300666E+04    0.15715E-03   -0.63174E-04  3314   0.115E-02    0.622E-02
RMM:   5    -0.230577295950E+04    0.47157E-04   -0.12661E-04  3483   0.808E-03    0.304E-02
RMM:   6    -0.230577295112E+04    0.83800E-05   -0.62663E-05  3358   0.735E-03
  51 F= -.23260996E+04 E0= -.23260996E+04  d E =-.149970E-02  mag=     3.0000
       N       E                     dE             d eps       ncg     rms          rms(c)
DAV:   1    -0.230577058697E+04    0.23725E-02   -0.27185E-01  4448   0.493E-01    0.142E-01
RMM:   2    -0.230577367648E+04   -0.30895E-02   -0.32391E-02  6187   0.948E-02    0.105E-01
RMM:   3    -0.230577386381E+04   -0.18733E-03   -0.30204E-03  4548   0.315E-02    0.945E-02
RMM:   4    -0.230577380226E+04    0.61555E-04   -0.32375E-04  2968   0.852E-03    0.445E-02
RMM:   5    -0.230577378024E+04    0.22021E-04   -0.50474E-05  2926   0.549E-03    0.230E-02
RMM:   6    -0.230577377701E+04    0.32272E-05   -0.34936E-05  2975   0.545E-03
  52 F= -.23261006E+04 E0= -.23261006E+04  d E =-.967277E-03  mag=     3.0000
       N       E                     dE             d eps       ncg     rms          rms(c)
DAV:   1    -0.230574597417E+04    0.27806E-01   -0.24504E+00  4400   0.148E+00    0.421E-01
RMM:   2    -0.230577363265E+04   -0.27658E-01   -0.29000E-01  5858   0.277E-01    0.304E-01
RMM:   3    -0.230577529449E+04   -0.16618E-02   -0.26620E-02  5461   0.957E-02    0.268E-01
RMM:   4    -0.230577482489E+04    0.46961E-03   -0.28593E-03  5084   0.220E-02    0.136E-01
RMM:   5    -0.230577462326E+04    0.20163E-03   -0.45251E-04  4301   0.133E-02    0.726E-02
RMM:   6    -0.230577457431E+04    0.48943E-04   -0.33508E-04  4568   0.126E-02    0.254E-02
RMM:   7    -0.230577457183E+04    0.24792E-05   -0.27840E-05  2911   0.753E-03
  53 F= -.23261018E+04 E0= -.23261018E+04  d E =-.218810E-02  mag=     3.0000
       N       E                     dE             d eps       ncg     rms          rms(c)
DAV:   1    -0.230577166946E+04    0.29049E-02   -0.33109E-01  4472   0.545E-01    0.171E-01
RMM:   2    -0.230577540483E+04   -0.37354E-02   -0.39704E-02  5880   0.106E-01    0.109E-01
RMM:   3    -0.230577564517E+04   -0.24035E-03   -0.39703E-03  4807   0.370E-02    0.948E-02
RMM:   4    -0.230577559275E+04    0.52422E-04   -0.43892E-04  3065   0.929E-03    0.550E-02
RMM:   5    -0.230577555756E+04    0.35189E-04   -0.76470E-05  2990   0.692E-03    0.273E-02
RMM:   6    -0.230577554964E+04    0.79181E-05   -0.54420E-05  3218   0.674E-03
  54 F= -.23261031E+04 E0= -.23261031E+04  d E =-.121797E-02  mag=     3.0000
       N       E                     dE             d eps       ncg     rms          rms(c)
DAV:   1    -0.230577237688E+04    0.31807E-02   -0.27990E-01  4464   0.502E-01    0.158E-01
RMM:   2    -0.230577552571E+04   -0.31488E-02   -0.33517E-02  5942   0.994E-02    0.981E-02
RMM:   3    -0.230577573418E+04   -0.20847E-03   -0.33807E-03  4815   0.362E-02    0.868E-02
RMM:   4    -0.230577569084E+04    0.43344E-04   -0.36956E-04  3001   0.882E-03    0.515E-02
RMM:   5    -0.230577565888E+04    0.31956E-04   -0.67974E-05  2978   0.650E-03    0.241E-02
RMM:   6    -0.230577565168E+04    0.71996E-05   -0.42446E-05  3065   0.627E-03
  55 F= -.23261034E+04 E0= -.23261034E+04  d E =-.154156E-02  mag=     3.0000
       N       E                     dE             d eps       ncg     rms          rms(c)
DAV:   1    -0.230577253014E+04    0.31287E-02   -0.37121E-01  4408   0.582E-01    0.177E-01
RMM:   2    -0.230577644342E+04   -0.39133E-02   -0.41220E-02  6107   0.113E-01    0.117E-01
RMM:   3    -0.230577669662E+04   -0.25320E-03   -0.41192E-03  5183   0.392E-02    0.108E-01
RMM:   4    -0.230577661356E+04    0.83057E-04   -0.45326E-04  3070   0.987E-03    0.542E-02
RMM:   5    -0.230577657913E+04    0.34430E-04   -0.82823E-05  3090   0.707E-03    0.257E-02
RMM:   6    -0.230577657346E+04    0.56735E-05   -0.49665E-05  3131   0.669E-03
  56 F= -.23261045E+04 E0= -.23261045E+04  d E =-.109980E-02  mag=     3.0000
       N       E                     dE             d eps       ncg     rms          rms(c)
DAV:   1    -0.230577128190E+04    0.52972E-02   -0.49770E-01  4400   0.675E-01    0.205E-01
RMM:   2    -0.230577653342E+04   -0.52515E-02   -0.55264E-02  5961   0.130E-01    0.137E-01
RMM:   3    -0.230577687875E+04   -0.34533E-03   -0.55522E-03  5242   0.460E-02    0.128E-01
RMM:   4    -0.230577676072E+04    0.11803E-03   -0.61081E-04  3239   0.112E-02    0.625E-02
RMM:   5    -0.230577671364E+04    0.47082E-04   -0.11136E-04  3391   0.804E-03    0.298E-02
RMM:   6    -0.230577670451E+04    0.91303E-05   -0.66589E-05  3401   0.739E-03
  57 F= -.23261048E+04 E0= -.23261048E+04  d E =-.143715E-02  mag=     3.0000
       N       E                     dE             d eps       ncg     rms          rms(c)
DAV:   1    -0.230577362563E+04    0.30880E-02   -0.36039E-01  4424   0.567E-01    0.162E-01
RMM:   2    -0.230577751486E+04   -0.38892E-02   -0.40132E-02  6118   0.109E-01    0.141E-01
RMM:   3    -0.230577768715E+04   -0.17229E-03   -0.37156E-03  4928   0.363E-02    0.115E-01
RMM:   4    -0.230577758135E+04    0.10580E-03   -0.40624E-04  3048   0.955E-03    0.484E-02
RMM:   5    -0.230577755346E+04    0.27889E-04   -0.69585E-05  2990   0.640E-03    0.248E-02
RMM:   6    -0.230577754915E+04    0.43079E-05   -0.43011E-05  3021   0.633E-03
  58 F= -.23261058E+04 E0= -.23261058E+04  d E =-.102555E-02  mag=     3.0000
       N       E                     dE             d eps       ncg     rms          rms(c)
DAV:   1    -0.230576585023E+04    0.11703E-01   -0.10970E+00  4400   0.989E-01    0.282E-01
RMM:   2    -0.230577762214E+04   -0.11772E-01   -0.12135E-01  5924   0.188E-01    0.247E-01
RMM:   3    -0.230577820021E+04   -0.57807E-03   -0.11895E-02  5473   0.643E-02    0.201E-01
RMM:   4    -0.230577787792E+04    0.32228E-03   -0.13243E-03  4242   0.156E-02    0.844E-02
RMM:   5    -0.230577779237E+04    0.85551E-04   -0.19590E-04  3829   0.997E-03    0.448E-02
RMM:   6    -0.230577777526E+04    0.17108E-04   -0.13787E-04  3979   0.942E-03    0.128E-02
RMM:   7    -0.230577777489E+04    0.36805E-06   -0.14417E-05  2856   0.562E-03
  59 F= -.23261064E+04 E0= -.23261064E+04  d E =-.156820E-02  mag=     3.0000
       N       E                     dE             d eps       ncg     rms          rms(c)
DAV:   1    -0.230577323448E+04    0.45408E-02   -0.43858E-01  4440   0.631E-01    0.190E-01
RMM:   2    -0.230577850095E+04   -0.52665E-02   -0.54110E-02  5895   0.122E-01    0.170E-01
RMM:   3    -0.230577867928E+04   -0.17833E-03   -0.46745E-03  4945   0.410E-02    0.133E-01
RMM:   4    -0.230577853147E+04    0.14781E-03   -0.54471E-04  3174   0.105E-02    0.542E-02
RMM:   5    -0.230577849385E+04    0.37613E-04   -0.75950E-05  3015   0.699E-03    0.292E-02
RMM:   6    -0.230577848769E+04    0.61578E-05   -0.68256E-05  3238   0.714E-03
  60 F= -.23261075E+04 E0= -.23261075E+04  d E =-.107229E-02  mag=     3.0000
       N       E                     dE             d eps       ncg     rms          rms(c)
DAV:   1    -0.230576378226E+04    0.14712E-01   -0.12214E+00  4400   0.105E+00    0.317E-01
RMM:   2    -0.230577832113E+04   -0.14539E-01   -0.14925E-01  5830   0.203E-01    0.289E-01
RMM:   3    -0.230577890190E+04   -0.58077E-03   -0.14101E-02  5461   0.672E-02    0.224E-01
RMM:   4    -0.230577849398E+04    0.40792E-03   -0.16173E-03  4507   0.168E-02    0.900E-02
RMM:   5    -0.230577839388E+04    0.10010E-03   -0.22315E-04  3881   0.104E-02    0.493E-02
RMM:   6    -0.230577837353E+04    0.20341E-04   -0.17349E-04  4140   0.993E-03    0.157E-02
RMM:   7    -0.230577837294E+04    0.59322E-06   -0.19470E-05  2869   0.627E-03
  61 F= -.23261079E+04 E0= -.23261079E+04  d E =-.155859E-02  mag=     3.0000
       N       E                     dE             d eps       ncg     rms          rms(c)
DAV:   1    -0.230577119511E+04    0.71784E-02   -0.61411E-01  4432   0.734E-01    0.231E-01
RMM:   2    -0.230577910254E+04   -0.79074E-02   -0.81276E-02  5894   0.145E-01    0.204E-01
RMM:   3    -0.230577944548E+04   -0.34294E-03   -0.76965E-03  5153   0.501E-02    0.154E-01
RMM:   4    -0.230577926571E+04    0.17977E-03   -0.88811E-04  3436   0.122E-02    0.676E-02
RMM:   5    -0.230577920764E+04    0.58069E-04   -0.10976E-04  3045   0.775E-03    0.378E-02
RMM:   6    -0.230577919426E+04    0.13383E-04   -0.11329E-04  3709   0.818E-03    0.171E-02
RMM:   7    -0.230577919226E+04    0.20022E-05   -0.13235E-05  2854   0.534E-03
  62 F= -.23261092E+04 E0= -.23261092E+04  d E =-.127200E-02  mag=     3.0000
       N       E                     dE             d eps       ncg     rms          rms(c)
DAV:   1    -0.230576879242E+04    0.10402E-01   -0.79518E-01  4432   0.836E-01    0.263E-01
RMM:   2    -0.230577902188E+04   -0.10229E-01   -0.10502E-01  5871   0.165E-01    0.235E-01
RMM:   3    -0.230577945918E+04   -0.43730E-03   -0.99836E-03  5307   0.590E-02    0.176E-01
RMM:   4    -0.230577922438E+04    0.23479E-03   -0.11543E-03  3849   0.139E-02    0.769E-02
RMM:   5    -0.230577914755E+04    0.76833E-04   -0.13215E-04  3261   0.866E-03    0.430E-02
RMM:   6    -0.230577912911E+04    0.18439E-04   -0.14584E-04  3958   0.894E-03    0.192E-02
RMM:   7    -0.230577912622E+04    0.28961E-05   -0.16117E-05  2864   0.582E-03
  63 F= -.23261097E+04 E0= -.23261097E+04  d E =-.172221E-02  mag=     3.0000
       N       E                     dE             d eps       ncg     rms          rms(c)
DAV:   1    -0.230577377817E+04    0.53509E-02   -0.53442E-01  4456   0.679E-01    0.224E-01
RMM:   2    -0.230578000856E+04   -0.62304E-02   -0.63927E-02  5881   0.133E-01    0.191E-01
RMM:   3    -0.230578025737E+04   -0.24881E-03   -0.60487E-03  5102   0.469E-02    0.151E-01
RMM:   4    -0.230578006704E+04    0.19033E-03   -0.71779E-04  3560   0.119E-02    0.626E-02
RMM:   5    -0.230578001936E+04    0.47682E-04   -0.10775E-04  3154   0.796E-03    0.326E-02
RMM:   6    -0.230578001132E+04    0.80414E-05   -0.83909E-05  3589   0.772E-03
  64 F= -.23261109E+04 E0= -.23261109E+04  d E =-.123249E-02  mag=     3.0000
       N       E                     dE             d eps       ncg     rms          rms(c)
DAV:   1    -0.230577504639E+04    0.49730E-02   -0.42360E-01  4472   0.605E-01    0.201E-01
RMM:   2    -0.230577999501E+04   -0.49486E-02   -0.50718E-02  5925   0.120E-01    0.175E-01
RMM:   3    -0.230578019165E+04   -0.19664E-03   -0.48839E-03  5077   0.428E-02    0.138E-01
RMM:   4    -0.230578003079E+04    0.16085E-03   -0.57282E-04  3278   0.109E-02    0.555E-02
RMM:   5    -0.230577999448E+04    0.36319E-04   -0.90328E-05  3082   0.716E-03    0.289E-02
RMM:   6    -0.230577998763E+04    0.68482E-05   -0.60422E-05  3248   0.704E-03
  65 F= -.23261112E+04 E0= -.23261112E+04  d E =-.151886E-02  mag=     3.0000
       N       E                     dE             d eps       ncg     rms          rms(c)
DAV:   1    -0.230577360708E+04    0.63874E-02   -0.66124E-01  4400   0.731E-01    0.234E-01
RMM:   2    -0.230578087165E+04   -0.72646E-02   -0.73977E-02  6107   0.143E-01    0.223E-01
RMM:   3    -0.230578104802E+04   -0.17638E-03   -0.68201E-03  5402   0.486E-02    0.159E-01
RMM:   4    -0.230578083295E+04    0.21507E-03   -0.81234E-04  3534   0.126E-02    0.689E-02
RMM:   5    -0.230578077917E+04    0.53782E-04   -0.11653E-04  3339   0.816E-03    0.368E-02
RMM:   6    -0.230578076770E+04    0.11468E-04   -0.96763E-05  3507   0.799E-03    0.114E-02
RMM:   7    -0.230578076750E+04    0.19910E-06   -0.12953E-05  2855   0.519E-03
  66 F= -.23261124E+04 E0= -.23261124E+04  d E =-.120715E-02  mag=     3.0000
       N       E                     dE             d eps       ncg     rms          rms(c)
DAV:   1    -0.230577568765E+04    0.50800E-02   -0.46309E-01  4408   0.611E-01    0.195E-01
RMM:   2    -0.230578075470E+04   -0.50670E-02   -0.51720E-02  5902   0.119E-01    0.179E-01
RMM:   3    -0.230578090236E+04   -0.14767E-03   -0.48066E-03  4910   0.417E-02    0.129E-01
RMM:   4    -0.230578076482E+04    0.13755E-03   -0.57018E-04  3221   0.105E-02    0.579E-02
RMM:   5    -0.230578072419E+04    0.40625E-04   -0.80279E-05  3011   0.709E-03    0.308E-02
RMM:   6    -0.230578071598E+04    0.82106E-05   -0.71724E-05  3257   0.717E-03
  67 F= -.23261127E+04 E0= -.23261127E+04  d E =-.151320E-02  mag=     3.0000
       N       E                     dE             d eps       ncg     rms          rms(c)
DAV:   1    -0.230577298331E+04    0.77409E-02   -0.83520E-01  4400   0.828E-01    0.269E-01
RMM:   2    -0.230578174328E+04   -0.87600E-02   -0.89238E-02  5853   0.160E-01    0.253E-01
RMM:   3    -0.230578190705E+04   -0.16377E-03   -0.80914E-03  5342   0.541E-02    0.183E-01
RMM:   4    -0.230578161671E+04    0.29034E-03   -0.99218E-04  4012   0.139E-02    0.774E-02
RMM:   5    -0.230578154780E+04    0.68910E-04   -0.15037E-04  3604   0.923E-03    0.409E-02
RMM:   6    -0.230578153378E+04    0.14011E-04   -0.12634E-04  3837   0.855E-03    0.152E-02
RMM:   7    -0.230578153269E+04    0.10986E-05   -0.14611E-05  2858   0.567E-03
  68 F= -.23261141E+04 E0= -.23261141E+04  d E =-.136280E-02  mag=     3.0000
       N       E                     dE             d eps       ncg     rms          rms(c)
DAV:   1    -0.230577864097E+04    0.28928E-02   -0.26933E-01  4480   0.470E-01    0.152E-01
RMM:   2    -0.230578146835E+04   -0.28274E-02   -0.28847E-02  5873   0.908E-02    0.140E-01
RMM:   3    -0.230578152913E+04   -0.60779E-04   -0.26174E-03  4306   0.307E-02    0.101E-01
RMM:   4    -0.230578144290E+04    0.86233E-04   -0.32245E-04  3063   0.855E-03    0.443E-02
RMM:   5    -0.230578141850E+04    0.24402E-04   -0.48646E-05  2902   0.575E-03    0.234E-02
RMM:   6    -0.230578141413E+04    0.43696E-05   -0.42059E-05  2980   0.578E-03
  69 F= -.23261143E+04 E0= -.23261143E+04  d E =-.155417E-02  mag=     3.0000
       N       E                     dE             d eps       ncg     rms          rms(c)
DAV:   1    -0.230577244672E+04    0.89718E-02   -0.98074E-01  4400   0.902E-01    0.294E-01
RMM:   2    -0.230578255570E+04   -0.10109E-01   -0.10194E-01  5779   0.172E-01    0.298E-01
RMM:   3    -0.230578257663E+04   -0.20929E-04   -0.93506E-03  5307   0.598E-02    0.196E-01
RMM:   4    -0.230578224137E+04    0.33526E-03   -0.11404E-03  4388   0.151E-02    0.825E-02
RMM:   5    -0.230578215222E+04    0.89151E-04   -0.18833E-04  3873   0.104E-02    0.436E-02
RMM:   6    -0.230578213402E+04    0.18197E-04   -0.15097E-04  4021   0.908E-03    0.181E-02
RMM:   7    -0.230578213107E+04    0.29507E-05   -0.18396E-05  2863   0.625E-03
  70 F= -.23261156E+04 E0= -.23261156E+04  d E =-.129970E-02  mag=     3.0000
       N       E                     dE             d eps       ncg     rms          rms(c)
DAV:   1    -0.230578027357E+04    0.18604E-02   -0.16504E-01  4528   0.371E-01    0.120E-01
RMM:   2    -0.230578198061E+04   -0.17070E-02   -0.17300E-02  5875   0.715E-02    0.118E-01
RMM:   3    -0.230578199309E+04   -0.12478E-04   -0.15652E-03  3902   0.250E-02    0.798E-02
RMM:   4    -0.230578193739E+04    0.55705E-04   -0.19663E-04  2992   0.728E-03    0.344E-02
RMM:   5    -0.230578192040E+04    0.16985E-04   -0.34223E-05  2867   0.497E-03    0.179E-02
RMM:   6    -0.230578191700E+04    0.33999E-05   -0.26871E-05  2921   0.490E-03
  71 F= -.23261156E+04 E0= -.23261156E+04  d E =-.132455E-02  mag=     3.0000
       N       E                     dE             d eps       ncg     rms          rms(c)
DAV:   1    -0.230577531414E+04    0.66063E-02   -0.70297E-01  4400   0.742E-01    0.243E-01
RMM:   2    -0.230578288374E+04   -0.75696E-02   -0.74784E-02  5791   0.142E-01    0.280E-01
RMM:   3    -0.230578273513E+04    0.14861E-03   -0.68502E-03  5075   0.483E-02    0.153E-01
RMM:   4    -0.230578254237E+04    0.19276E-03   -0.80700E-04  3675   0.121E-02    0.681E-02
RMM:   5    -0.230578248742E+04    0.54950E-04   -0.11974E-04  3216   0.825E-03    0.380E-02
RMM:   6    -0.230578247755E+04    0.98709E-05   -0.10741E-04  3500   0.792E-03    0.131E-02
RMM:   7    -0.230578247677E+04    0.77253E-06   -0.15046E-05  2859   0.522E-03
  72 F= -.23261167E+04 E0= -.23261167E+04  d E =-.107899E-02  mag=     3.0000
       N       E                     dE             d eps       ncg     rms          rms(c)
DAV:   1    -0.230577166193E+04    0.10816E-01   -0.10351E+00  4400   0.900E-01    0.293E-01
RMM:   2    -0.230578278603E+04   -0.11124E-01   -0.11026E-01  5906   0.173E-01    0.331E-01
RMM:   3    -0.230578263395E+04    0.15208E-03   -0.10087E-02  5308   0.578E-02    0.186E-01
RMM:   4    -0.230578234565E+04    0.28830E-03   -0.11871E-03  4157   0.145E-02    0.832E-02
RMM:   5    -0.230578226266E+04    0.82997E-04   -0.17537E-04  3639   0.988E-03    0.459E-02
RMM:   6    -0.230578224913E+04    0.13530E-04   -0.15678E-04  3835   0.896E-03    0.168E-02
RMM:   7    -0.230578224731E+04    0.18199E-05   -0.20824E-05  2869   0.584E-03
  73 F= -.23261171E+04 E0= -.23261171E+04  d E =-.147812E-02  mag=     3.0000
       N       E                     dE             d eps       ncg     rms          rms(c)
DAV:   1    -0.230577207520E+04    0.10174E-01   -0.10244E+00  4400   0.873E-01    0.301E-01
RMM:   2    -0.230578365321E+04   -0.11578E-01   -0.11507E-01  5891   0.173E-01    0.336E-01
RMM:   3    -0.230578351999E+04    0.13322E-03   -0.10518E-02  5323   0.587E-02    0.192E-01
RMM:   4    -0.230578320487E+04    0.31512E-03   -0.12590E-03  4283   0.149E-02    0.852E-02
RMM:   5    -0.230578311986E+04    0.85009E-04   -0.18719E-04  3745   0.103E-02    0.475E-02
RMM:   6    -0.230578310460E+04    0.15254E-04   -0.16432E-04  3946   0.911E-03    0.163E-02
RMM:   7    -0.230578310275E+04    0.18534E-05   -0.22969E-05  2868   0.606E-03
  74 F= -.23261186E+04 E0= -.23261186E+04  d E =-.149670E-02  mag=     3.0000
       N       E                     dE             d eps       ncg     rms          rms(c)
DAV:   1    -0.230577965221E+04    0.34524E-02   -0.30353E-01  4432   0.476E-01    0.164E-01
RMM:   2    -0.230578307908E+04   -0.34269E-02   -0.34164E-02  5899   0.949E-02    0.179E-01
RMM:   3    -0.230578305521E+04    0.23870E-04   -0.31325E-03  4431   0.324E-02    0.104E-01
RMM:   4    -0.230578296495E+04    0.90261E-04   -0.38360E-04  3096   0.886E-03    0.468E-02
RMM:   5    -0.230578293787E+04    0.27071E-04   -0.57643E-05  2935   0.610E-03    0.254E-02
RMM:   6    -0.230578293326E+04    0.46097E-05   -0.48262E-05  2992   0.605E-03
  75 F= -.23261187E+04 E0= -.23261187E+04  d E =-.167558E-02  mag=     3.0000
       N       E                     dE             d eps       ncg     rms          rms(c)
DAV:   1    -0.230577163248E+04    0.11305E-01   -0.10491E+00  4432   0.876E-01    0.313E-01
RMM:   2    -0.230578433260E+04   -0.12700E-01   -0.12733E-01  5842   0.174E-01    0.335E-01
RMM:   3    -0.230578432754E+04    0.50635E-05   -0.11839E-02  5385   0.587E-02    0.202E-01
RMM:   4    -0.230578398755E+04    0.33999E-03   -0.14188E-03  4168   0.152E-02    0.903E-02
RMM:   5    -0.230578389513E+04    0.92419E-04   -0.18366E-04  3568   0.977E-03    0.498E-02
RMM:   6    -0.230578387684E+04    0.18293E-04   -0.18182E-04  3946   0.929E-03    0.183E-02
RMM:   7    -0.230578387458E+04    0.22540E-05   -0.22345E-05  2871   0.596E-03
  76 F= -.23261203E+04 E0= -.23261203E+04  d E =-.154740E-02  mag=     3.0000
       N       E                     dE             d eps       ncg     rms          rms(c)
DAV:   1    -0.230577837758E+04    0.54993E-02   -0.45886E-01  4440   0.580E-01    0.206E-01
RMM:   2    -0.230578390849E+04   -0.55309E-02   -0.55694E-02  5948   0.116E-01    0.213E-01
RMM:   3    -0.230578395136E+04   -0.42872E-04   -0.51596E-03  4833   0.394E-02    0.131E-01
RMM:   4    -0.230578381175E+04    0.13961E-03   -0.63339E-04  3236   0.104E-02    0.601E-02
RMM:   5    -0.230578376859E+04    0.43159E-04   -0.80837E-05  2976   0.688E-03    0.330E-02
RMM:   6    -0.230578376022E+04    0.83683E-05   -0.82511E-05  3223   0.704E-03
  77 F= -.23261206E+04 E0= -.23261206E+04  d E =-.183325E-02  mag=     3.0000
       N       E                     dE             d eps       ncg     rms          rms(c)
DAV:   1    -0.230576821069E+04    0.15558E-01   -0.13602E+00  4400   0.101E+00    0.363E-01
RMM:   2    -0.230578504196E+04   -0.16831E-01   -0.16957E-01  5872   0.201E-01    0.375E-01
RMM:   3    -0.230578518056E+04   -0.13860E-03   -0.15843E-02  5523   0.681E-02    0.235E-01
RMM:   4    -0.230578471188E+04    0.46868E-03   -0.19066E-03  4439   0.175E-02    0.103E-01
RMM:   5    -0.230578459152E+04    0.12036E-03   -0.24380E-04  3912   0.109E-02    0.568E-02
RMM:   6    -0.230578456831E+04    0.23203E-04   -0.23436E-04  4165   0.102E-02    0.214E-02
RMM:   7    -0.230578456556E+04    0.27546E-05   -0.27069E-05  2876   0.678E-03
  78 F= -.23261222E+04 E0= -.23261222E+04  d E =-.161104E-02  mag=     3.0000
       N       E                     dE             d eps       ncg     rms          rms(c)
DAV:   1    -0.230577580852E+04    0.87598E-02   -0.67486E-01  4448   0.713E-01    0.255E-01
RMM:   2    -0.230578412927E+04   -0.83207E-02   -0.84070E-02  5931   0.142E-01    0.256E-01
RMM:   3    -0.230578424275E+04   -0.11348E-03   -0.79040E-03  5217   0.487E-02    0.162E-01
RMM:   4    -0.230578402762E+04    0.21513E-03   -0.95499E-04  3564   0.125E-02    0.729E-02
RMM:   5    -0.230578396478E+04    0.62844E-04   -0.11899E-04  3095   0.816E-03    0.401E-02
RMM:   6    -0.230578395374E+04    0.11036E-04   -0.12368E-04  3681   0.828E-03    0.185E-02
RMM:   7    -0.230578395143E+04    0.23084E-05   -0.16572E-05  2857   0.543E-03
  79 F= -.23261221E+04 E0= -.23261221E+04  d E =-.156363E-02  mag=     3.0000
       N       E                     dE             d eps       ncg     rms          rms(c)
DAV:   1    -0.230578254043E+04    0.14133E-02   -0.15414E-01  4480   0.340E-01    0.122E-01
RMM:   2    -0.230578444107E+04   -0.19006E-02   -0.19007E-02  5872   0.680E-02    0.132E-01
RMM:   3    -0.230578443747E+04    0.35960E-05   -0.17634E-03  3619   0.224E-02    0.771E-02
RMM:   4    -0.230578438527E+04    0.52204E-04   -0.21430E-04  3003   0.703E-03    0.345E-02
RMM:   5    -0.230578437042E+04    0.14843E-04   -0.32556E-05  2870   0.438E-03    0.187E-02
RMM:   6    -0.230578436815E+04    0.22711E-05   -0.26062E-05  2911   0.440E-03
  80 F= -.23261223E+04 E0= -.23261223E+04  d E =-.170977E-02  mag=     3.0000
       N       E                     dE             d eps       ncg     rms          rms(c)
DAV:   1    -0.230577044300E+04    0.13927E-01   -0.11678E+00  4400   0.906E-01    0.331E-01
RMM:   2    -0.230578551230E+04   -0.15069E-01   -0.14999E-01  6023   0.183E-01    0.369E-01
RMM:   3    -0.230578549087E+04    0.21423E-04   -0.14261E-02  5535   0.607E-02    0.202E-01
RMM:   4    -0.230578515992E+04    0.33096E-03   -0.16524E-03  4079   0.155E-02    0.937E-02
RMM:   5    -0.230578505586E+04    0.10406E-03   -0.19988E-04  3557   0.988E-03    0.536E-02
RMM:   6    -0.230578503751E+04    0.18343E-04   -0.21037E-04  3957   0.956E-03    0.208E-02
RMM:   7    -0.230578503449E+04    0.30234E-05   -0.30129E-05  2874   0.601E-03
  81 F= -.23261237E+04 E0= -.23261237E+04  d E =-.140932E-02  mag=     3.0000
       N       E                     dE             d eps       ncg     rms          rms(c)
DAV:   1    -0.230577009533E+04    0.14942E-01   -0.11573E+00  4432   0.903E-01    0.331E-01
RMM:   2    -0.230578502613E+04   -0.14931E-01   -0.14927E-01  5976   0.182E-01    0.359E-01
RMM:   3    -0.230578508465E+04   -0.58515E-04   -0.14216E-02  5458   0.617E-02    0.204E-01
RMM:   4    -0.230578475448E+04    0.33016E-03   -0.16644E-03  4110   0.155E-02    0.936E-02
RMM:   5    -0.230578465461E+04    0.99872E-04   -0.19541E-04  3460   0.981E-03    0.533E-02
RMM:   6    -0.230578463817E+04    0.16442E-04   -0.20720E-04  3966   0.958E-03    0.216E-02
RMM:   7    -0.230578463491E+04    0.32586E-05   -0.28626E-05  2874   0.606E-03
  82 F= -.23261240E+04 E0= -.23261240E+04  d E =-.174804E-02  mag=     3.0000
       N       E                     dE             d eps       ncg     rms          rms(c)
DAV:   1    -0.230577374508E+04    0.10893E-01   -0.88027E-01  4464   0.771E-01    0.291E-01
RMM:   2    -0.230578566524E+04   -0.11920E-01   -0.11845E-01  6014   0.159E-01    0.328E-01
RMM:   3    -0.230578564908E+04    0.16154E-04   -0.11331E-02  5340   0.546E-02    0.175E-01
RMM:   4    -0.230578541038E+04    0.23870E-03   -0.13210E-03  3565   0.134E-02    0.811E-02
RMM:   5    -0.230578533565E+04    0.74734E-04   -0.14247E-04  3169   0.840E-03    0.477E-02
RMM:   6    -0.230578532259E+04    0.13063E-04   -0.16628E-04  3623   0.862E-03    0.173E-02
RMM:   7    -0.230578532112E+04    0.14638E-05   -0.24350E-05  2871   0.553E-03
  83 F= -.23261253E+04 E0= -.23261253E+04  d E =-.128782E-02  mag=     3.0000
       N       E                     dE             d eps       ncg     rms          rms(c)
DAV:   1    -0.230576428559E+04    0.21037E-01   -0.15811E+00  4448   0.103E+00    0.390E-01
RMM:   2    -0.230578565300E+04   -0.21367E-01   -0.21204E-01  6014   0.212E-01    0.443E-01
RMM:   3    -0.230578564133E+04    0.11671E-04   -0.20753E-02  5547   0.732E-02    0.231E-01
RMM:   4    -0.230578524440E+04    0.39693E-03   -0.24242E-03  4321   0.178E-02    0.108E-01
RMM:   5    -0.230578510504E+04    0.13936E-03   -0.25925E-04  3697   0.109E-02    0.638E-02
RMM:   6    -0.230578508113E+04    0.23912E-04   -0.28994E-04  4084   0.106E-02    0.246E-02
RMM:   7    -0.230578507719E+04    0.39414E-05   -0.43434E-05  2885   0.679E-03
  84 F= -.23261259E+04 E0= -.23261259E+04  d E =-.184737E-02  mag=     3.0000
       N       E                     dE             d eps       ncg     rms          rms(c)
DAV:   1    -0.230577526373E+04    0.98174E-02   -0.75688E-01  4432   0.709E-01    0.282E-01
RMM:   2    -0.230578628846E+04   -0.11025E-01   -0.10974E-01  6010   0.151E-01    0.315E-01
RMM:   3    -0.230578630127E+04   -0.12806E-04   -0.10564E-02  5307   0.513E-02    0.172E-01
RMM:   4    -0.230578607048E+04    0.23079E-03   -0.12395E-03  3617   0.131E-02    0.771E-02
RMM:   5    -0.230578599970E+04    0.70776E-04   -0.13067E-04  3146   0.831E-03    0.454E-02
RMM:   6    -0.230578598755E+04    0.12156E-04   -0.15728E-04  3611   0.854E-03    0.169E-02
RMM:   7    -0.230578598621E+04    0.13363E-05   -0.23008E-05  2871   0.556E-03
  85 F= -.23261274E+04 E0= -.23261274E+04  d E =-.149873E-02  mag=     3.0000
       N       E                     dE             d eps       ncg     rms          rms(c)
DAV:   1    -0.230577016892E+04    0.15819E-01   -0.11096E+00  4400   0.859E-01    0.341E-01
RMM:   2    -0.230578637809E+04   -0.16209E-01   -0.16077E-01  6002   0.183E-01    0.390E-01
RMM:   3    -0.230578633081E+04    0.47277E-04   -0.15513E-02  5457   0.637E-02    0.207E-01
RMM:   4    -0.230578599320E+04    0.33761E-03   -0.18051E-03  4205   0.159E-02    0.932E-02
RMM:   5    -0.230578588837E+04    0.10483E-03   -0.19384E-04  3448   0.995E-03    0.552E-02
RMM:   6    -0.230578586945E+04    0.18929E-04   -0.22985E-04  4028   0.985E-03    0.201E-02
RMM:   7    -0.230578586677E+04    0.26741E-05   -0.30633E-05  2879   0.613E-03
  86 F= -.23261280E+04 E0= -.23261280E+04  d E =-.208874E-02  mag=     3.0000
       N       E                     dE             d eps       ncg     rms          rms(c)
DAV:   1    -0.230577390460E+04    0.11965E-01   -0.88785E-01  4400   0.765E-01    0.304E-01
RMM:   2    -0.230578714433E+04   -0.13240E-01   -0.13118E-01  6031   0.162E-01    0.354E-01
RMM:   3    -0.230578711682E+04    0.27515E-04   -0.12939E-02  5384   0.557E-02    0.180E-01
RMM:   4    -0.230578688289E+04    0.23393E-03   -0.15245E-03  3727   0.140E-02    0.830E-02
RMM:   5    -0.230578679868E+04    0.84210E-04   -0.14854E-04  3162   0.857E-03    0.504E-02
RMM:   6    -0.230578678240E+04    0.16281E-04   -0.18990E-04  3757   0.903E-03    0.188E-02
RMM:   7    -0.230578677991E+04    0.24840E-05   -0.26073E-05  2873   0.568E-03
  87 F= -.23261296E+04 E0= -.23261296E+04  d E =-.161840E-02  mag=     3.0000
       N       E                     dE             d eps       ncg     rms          rms(c)
DAV:   1    -0.230575638103E+04    0.30401E-01   -0.20715E+00  4400   0.117E+00    0.464E-01
RMM:   2    -0.230578737810E+04   -0.30997E-01   -0.30678E-01  6033   0.246E-01    0.546E-01
RMM:   3    -0.230578726074E+04    0.11736E-03   -0.30128E-02  5619   0.844E-02    0.278E-01
RMM:   4    -0.230578667655E+04    0.58419E-03   -0.34800E-03  4626   0.211E-02    0.127E-01
RMM:   5    -0.230578647807E+04    0.19849E-03   -0.35930E-04  3962   0.127E-02    0.769E-02
RMM:   6    -0.230578643969E+04    0.38374E-04   -0.42613E-04  4276   0.123E-02    0.273E-02
RMM:   7    -0.230578643371E+04    0.59791E-05   -0.56099E-05  2914   0.780E-03
  88 F= -.23261303E+04 E0= -.23261303E+04  d E =-.233991E-02  mag=     3.0000
       N       E                     dE             d eps       ncg     rms          rms(c)
DAV:   1    -0.230577137482E+04    0.15065E-01   -0.11129E+00  4400   0.851E-01    0.332E-01
RMM:   2    -0.230578763591E+04   -0.16261E-01   -0.16101E-01  6027   0.179E-01    0.392E-01
RMM:   3    -0.230578756304E+04    0.72871E-04   -0.15670E-02  5472   0.599E-02    0.197E-01
RMM:   4    -0.230578728326E+04    0.27978E-03   -0.18260E-03  3756   0.150E-02    0.921E-02
RMM:   5    -0.230578718624E+04    0.97019E-04   -0.17756E-04  3269   0.898E-03    0.560E-02
RMM:   6    -0.230578716900E+04    0.17240E-04   -0.22440E-04  3770   0.946E-03    0.193E-02
RMM:   7    -0.230578716687E+04    0.21278E-05   -0.30736E-05  2878   0.584E-03
  89 F= -.23261318E+04 E0= -.23261318E+04  d E =-.146800E-02  mag=     3.0000
       N       E                     dE             d eps       ncg     rms          rms(c)
DAV:   1    -0.230575481443E+04    0.32355E-01   -0.22562E+00  4400   0.121E+00    0.474E-01
RMM:   2    -0.230578788675E+04   -0.33072E-01   -0.32648E-01  6061   0.254E-01    0.569E-01
RMM:   3    -0.230578762983E+04    0.25692E-03   -0.31970E-02  5648   0.865E-02    0.279E-01
RMM:   4    -0.230578706548E+04    0.56435E-03   -0.36727E-03  4564   0.211E-02    0.131E-01
RMM:   5    -0.230578686391E+04    0.20157E-03   -0.36860E-04  3906   0.125E-02    0.800E-02
RMM:   6    -0.230578682627E+04    0.37640E-04   -0.44326E-04  4232   0.123E-02    0.266E-02
RMM:   7    -0.230578682175E+04    0.45229E-05   -0.61068E-05  2915   0.758E-03
  90 F= -.23261325E+04 E0= -.23261325E+04  d E =-.216092E-02  mag=     3.0000
       N       E                     dE             d eps       ncg     rms          rms(c)
DAV:   1    -0.230576436895E+04    0.22457E-01   -0.16626E+00  4400   0.103E+00    0.410E-01
RMM:   2    -0.230578852126E+04   -0.24152E-01   -0.24060E-01  6016   0.218E-01    0.467E-01
RMM:   3    -0.230578853168E+04   -0.10417E-04   -0.23370E-02  5613   0.736E-02    0.246E-01
RMM:   4    -0.230578808046E+04    0.45122E-03   -0.27209E-03  4396   0.185E-02    0.115E-01
RMM:   5    -0.230578792719E+04    0.15327E-03   -0.28948E-04  3761   0.113E-02    0.674E-02
RMM:   6    -0.230578790180E+04    0.25383E-04   -0.32692E-04  4146   0.109E-02    0.255E-02
RMM:   7    -0.230578789772E+04    0.40813E-05   -0.47333E-05  2895   0.696E-03
  91 F= -.23261344E+04 E0= -.23261344E+04  d E =-.197962E-02  mag=     3.0000
       N       E                     dE             d eps       ncg     rms          rms(c)
DAV:   1    -0.230577034706E+04    0.17555E-01   -0.12163E+00  4400   0.885E-01    0.351E-01
RMM:   2    -0.230578803555E+04   -0.17688E-01   -0.17607E-01  6011   0.187E-01    0.401E-01
RMM:   3    -0.230578802203E+04    0.13521E-04   -0.17051E-02  5520   0.642E-02    0.210E-01
RMM:   4    -0.230578769160E+04    0.33043E-03   -0.20004E-03  4049   0.160E-02    0.982E-02
RMM:   5    -0.230578758196E+04    0.10964E-03   -0.20810E-04  3426   0.982E-03    0.577E-02
RMM:   6    -0.230578756114E+04    0.20821E-04   -0.24274E-04  3984   0.986E-03    0.216E-02
RMM:   7    -0.230578755808E+04    0.30553E-05   -0.35126E-05  2880   0.618E-03
  92 F= -.23261349E+04 E0= -.23261349E+04  d E =-.240841E-02  mag=     3.0000
       N       E                     dE             d eps       ncg     rms          rms(c)
DAV:   1    -0.230575996729E+04    0.27594E-01   -0.19667E+00  4400   0.111E+00    0.450E-01
RMM:   2    -0.230578906562E+04   -0.29098E-01   -0.29064E-01  6053   0.235E-01    0.504E-01
RMM:   3    -0.230578918695E+04   -0.12133E-03   -0.28311E-02  5660   0.809E-02    0.270E-01
RMM:   4    -0.230578863793E+04    0.54902E-03   -0.32823E-03  4470   0.201E-02    0.128E-01
RMM:   5    -0.230578845528E+04    0.18265E-03   -0.34497E-04  3773   0.119E-02    0.743E-02
RMM:   6    -0.230578842538E+04    0.29898E-04   -0.39009E-04  4189   0.115E-02    0.296E-02
RMM:   7    -0.230578841992E+04    0.54657E-05   -0.51292E-05  2896   0.723E-03
  93 F= -.23261368E+04 E0= -.23261368E+04  d E =-.190090E-02  mag=     3.0000
       N       E                     dE             d eps       ncg     rms          rms(c)
DAV:   1    -0.230577354878E+04    0.14877E-01   -0.10021E+00  4424   0.795E-01    0.321E-01
RMM:   2    -0.230578835600E+04   -0.14807E-01   -0.14824E-01  6050   0.169E-01    0.353E-01
RMM:   3    -0.230578845799E+04   -0.10199E-03   -0.14389E-02  5445   0.572E-02    0.194E-01
RMM:   4    -0.230578817886E+04    0.27913E-03   -0.17006E-03  3676   0.146E-02    0.912E-02
RMM:   5    -0.230578808642E+04    0.92446E-04   -0.17739E-04  3200   0.874E-03    0.531E-02
RMM:   6    -0.230578807057E+04    0.15850E-04   -0.20235E-04  3688   0.900E-03    0.214E-02
RMM:   7    -0.230578806772E+04    0.28527E-05   -0.28162E-05  2873   0.574E-03
  94 F= -.23261372E+04 E0= -.23261372E+04  d E =-.228542E-02  mag=     3.0000
       N       E                     dE             d eps       ncg     rms          rms(c)
DAV:   1    -0.230576908995E+04    0.18981E-01   -0.14515E+00  4400   0.999E-01    0.399E-01
RMM:   2    -0.230578964820E+04   -0.20558E-01   -0.20565E-01  5964   0.208E-01    0.430E-01
RMM:   3    -0.230578973180E+04   -0.83592E-04   -0.20125E-02  5574   0.738E-02    0.244E-01
RMM:   4    -0.230578924729E+04    0.48451E-03   -0.24008E-03  4530   0.185E-02    0.109E-01
RMM:   5    -0.230578910713E+04    0.14016E-03   -0.27857E-04  3937   0.117E-02    0.612E-02
RMM:   6    -0.230578908384E+04    0.23293E-04   -0.27985E-04  4174   0.106E-02    0.249E-02
RMM:   7    -0.230578907944E+04    0.44052E-05   -0.38179E-05  2886   0.716E-03
  95 F= -.23261390E+04 E0= -.23261390E+04  d E =-.181328E-02  mag=     3.0000
       N       E                     dE             d eps       ncg     rms          rms(c)
DAV:   1    -0.230578144237E+04    0.76415E-02   -0.52731E-01  4448   0.603E-01    0.241E-01
RMM:   2    -0.230578891488E+04   -0.74725E-02   -0.74966E-02  5976   0.127E-01    0.254E-01
RMM:   3    -0.230578896427E+04   -0.49391E-04   -0.72403E-03  5114   0.441E-02    0.148E-01
RMM:   4    -0.230578878715E+04    0.17712E-03   -0.87151E-04  3373   0.115E-02    0.660E-02
RMM:   5    -0.230578873432E+04    0.52822E-04   -0.98382E-05  3017   0.736E-03    0.372E-02
RMM:   6    -0.230578872446E+04    0.98650E-05   -0.10672E-04  3367   0.759E-03    0.158E-02
RMM:   7    -0.230578872288E+04    0.15785E-05   -0.17177E-05  2857   0.530E-03
  96 F= -.23261391E+04 E0= -.23261391E+04  d E =-.193609E-02  mag=     3.0000
       N       E                     dE             d eps       ncg     rms          rms(c)
DAV:   1    -0.230577428599E+04    0.14438E-01   -0.10817E+00  4400   0.826E-01    0.331E-01
RMM:   2    -0.230578988425E+04   -0.15598E-01   -0.15413E-01  6112   0.173E-01    0.392E-01
RMM:   3    -0.230578976368E+04    0.12057E-03   -0.15177E-02  5442   0.592E-02    0.192E-01
RMM:   4    -0.230578950172E+04    0.26196E-03   -0.18109E-03  3762   0.150E-02    0.932E-02
RMM:   5    -0.230578940477E+04    0.96955E-04   -0.18241E-04  3274   0.920E-03    0.558E-02
RMM:   6    -0.230578938718E+04    0.17586E-04   -0.22311E-04  3738   0.937E-03    0.205E-02
RMM:   7    -0.230578938440E+04    0.27821E-05   -0.32220E-05  2879   0.579E-03
  97 F= -.23261404E+04 E0= -.23261404E+04  d E =-.132973E-02  mag=     3.0000
       N       E                     dE             d eps       ncg     rms          rms(c)
DAV:   1    -0.230576572269E+04    0.23664E-01   -0.16685E+00  4400   0.103E+00    0.411E-01
RMM:   2    -0.230578982626E+04   -0.24104E-01   -0.23854E-01  6091   0.215E-01    0.484E-01
RMM:   3    -0.230578965537E+04    0.17089E-03   -0.23281E-02  5585   0.728E-02    0.242E-01
RMM:   4    -0.230578922241E+04    0.43297E-03   -0.27482E-03  4285   0.185E-02    0.116E-01
RMM:   5    -0.230578907187E+04    0.15054E-03   -0.28967E-04  3674   0.112E-02    0.690E-02
RMM:   6    -0.230578904531E+04    0.26558E-04   -0.33836E-04  4073   0.109E-02    0.245E-02
RMM:   7    -0.230578904125E+04    0.40584E-05   -0.47661E-05  2888   0.667E-03
  98 F= -.23261409E+04 E0= -.23261409E+04  d E =-.180785E-02  mag=     3.0000
       N       E                     dE             d eps       ncg     rms          rms(c)
DAV:   1    -0.230577328492E+04    0.15760E-01   -0.12626E+00  4400   0.923E-01    0.371E-01
RMM:   2    -0.230579090299E+04   -0.17618E-01   -0.17411E-01  5983   0.194E-01    0.431E-01
RMM:   3    -0.230579063297E+04    0.27002E-03   -0.16934E-02  5526   0.668E-02    0.222E-01
RMM:   4    -0.230579023690E+04    0.39606E-03   -0.20318E-03  4401   0.172E-02    0.100E-01
RMM:   5    -0.230579011313E+04    0.12377E-03   -0.24976E-04  3934   0.114E-02    0.575E-02
RMM:   6    -0.230579009039E+04    0.22748E-04   -0.24559E-04  4112   0.102E-02    0.209E-02
RMM:   7    -0.230579008664E+04    0.37480E-05   -0.35296E-05  2879   0.687E-03
  99 F= -.23261427E+04 E0= -.23261427E+04  d E =-.183017E-02  mag=     3.0000
[...]
DAV:   1    -0.230579972868E+04   -0.44426E-05   -0.28928E-04  4128   0.170E-02    0.568E-03
RMM:   2    -0.230579973165E+04   -0.29735E-05   -0.32001E-05  2443   0.415E-03
 359 F= -.23261709E+04 E0= -.23261709E+04  d E =-.562960E-05  mag=     3.0000
       N       E                     dE             d eps       ncg     rms          rms(c)
DAV:   1    -0.230579973241E+04   -0.37333E-05   -0.11042E-04  4248   0.107E-02    0.478E-03
RMM:   2    -0.230579973407E+04   -0.16541E-05   -0.14630E-05  2330   0.301E-03
 360 F= -.23261709E+04 E0= -.23261709E+04  d E =-.769908E-05  mag=     3.0000
       N       E                     dE             d eps       ncg     rms          rms(c)
DAV:   1    -0.230579973629E+04   -0.38724E-05   -0.29145E-04  4128   0.170E-02    0.577E-03
RMM:   2    -0.230579973958E+04   -0.32985E-05   -0.34053E-05  2480   0.450E-03
 361 F= -.23261709E+04 E0= -.23261709E+04  d E =-.672868E-05  mag=     3.0000
       N       E                     dE             d eps       ncg     rms          rms(c)
DAV:   1    -0.230579973851E+04   -0.22264E-05   -0.20949E-04  4256   0.146E-02    0.625E-03
RMM:   2    -0.230579974156E+04   -0.30522E-05   -0.27547E-05  2432   0.408E-03
 362 F= -.23261709E+04 E0= -.23261709E+04  d E =-.973066E-05  mag=     3.0000
       N       E                     dE             d eps       ncg     rms          rms(c)
DAV:   1    -0.230579974655E+04   -0.80419E-05   -0.27998E-04  4208   0.164E-02    0.588E-03
RMM:   2    -0.230579975021E+04   -0.36555E-05   -0.36321E-05  2498   0.447E-03
 363 F= -.23261710E+04 E0= -.23261710E+04  d E =-.612576E-05  mag=     3.0000
       N       E                     dE             d eps       ncg     rms          rms(c)
DAV:   1    -0.230579975100E+04   -0.44450E-05   -0.47625E-04  4184   0.213E-02    0.769E-03
RMM:   2    -0.230579975705E+04   -0.60477E-05   -0.59437E-05  2749   0.553E-03
 364 F= -.23261710E+04 E0= -.23261710E+04  d E =-.966303E-05  mag=     3.0000
       N       E                     dE             d eps       ncg     rms          rms(c)
DAV:   1    -0.230579976075E+04   -0.97510E-05   -0.35923E-04  4128   0.184E-02    0.705E-03
RMM:   2    -0.230579976620E+04   -0.54547E-05   -0.49900E-05  2620   0.493E-03
 365 F= -.23261710E+04 E0= -.23261710E+04  d E =-.769139E-05  mag=     3.0000
       N       E                     dE             d eps       ncg     rms          rms(c)
DAV:   1    -0.230579976480E+04   -0.40471E-05   -0.69503E-04  4272   0.253E-02    0.839E-03
RMM:   2    -0.230579977352E+04   -0.87199E-05   -0.87687E-05  2935   0.633E-03
 366 F= -.23261710E+04 E0= -.23261710E+04  d E =-.129567E-04  mag=     3.0000
       N       E                     dE             d eps       ncg     rms          rms(c)
DAV:   1    -0.230579977468E+04   -0.98828E-05   -0.56581E-04  4136   0.230E-02    0.882E-03
RMM:   2    -0.230579978335E+04   -0.86668E-05   -0.78379E-05  2821   0.605E-03
 367 F= -.23261710E+04 E0= -.23261710E+04  d E =-.113041E-04  mag=     3.0000
       N       E                     dE             d eps       ncg     rms          rms(c)
DAV:   1    -0.230579978152E+04   -0.68416E-05   -0.24637E-04  4512   0.155E-02    0.658E-03
RMM:   2    -0.230579978503E+04   -0.35089E-05   -0.34368E-05  2510   0.424E-03
 368 F= -.23261710E+04 E0= -.23261710E+04  d E =-.139366E-04  mag=     3.0000
       N       E                     dE             d eps       ncg     rms          rms(c)
DAV:   1    -0.230579977484E+04    0.66826E-05   -0.92382E-04  4312   0.293E-02    0.103E-02
RMM:   2    -0.230579978627E+04   -0.11430E-04   -0.11433E-04  3068   0.729E-03    0.108E-02
RMM:   3    -0.230579978664E+04   -0.37131E-06   -0.14683E-05  2286   0.382E-03
 369 F= -.23261710E+04 E0= -.23261710E+04  d E =-.174447E-04  mag=     3.0000
       N       E                     dE             d eps       ncg     rms          rms(c)
DAV:   1    -0.230579978581E+04    0.46092E-06   -0.40354E-04  4152   0.189E-02    0.639E-03
RMM:   2    -0.230579979063E+04   -0.48198E-05   -0.50196E-05  2689   0.464E-03
 370 F= -.23261710E+04 E0= -.23261710E+04  d E =-.590637E-05  mag=     3.0000
       N       E                     dE             d eps       ncg     rms          rms(c)
DAV:   1    -0.230579978360E+04    0.22082E-05   -0.70372E-04  4144   0.251E-02    0.806E-03
RMM:   2    -0.230579979265E+04   -0.90468E-05   -0.92570E-05  2991   0.626E-03
 371 F= -.23261710E+04 E0= -.23261710E+04  d E =-.104467E-04  mag=     3.0000
       N       E                     dE             d eps       ncg     rms          rms(c)
DAV:   1    -0.230579979116E+04   -0.75579E-05   -0.16941E-04  4752   0.127E-02    0.621E-03
RMM:   2    -0.230579979446E+04   -0.33044E-05   -0.27643E-05  2452   0.354E-03
 372 F= -.23261710E+04 E0= -.23261710E+04  d E =-.134582E-04  mag=     3.0000
       N       E                     dE             d eps       ncg     rms          rms(c)
DAV:   1    -0.230579979875E+04   -0.75877E-05   -0.40600E-04  4120   0.192E-02    0.635E-03
RMM:   2    -0.230579980448E+04   -0.57350E-05   -0.56811E-05  2567   0.505E-03
 373 F= -.23261710E+04 E0= -.23261710E+04  d E =-.103615E-04  mag=     3.0000
       N       E                     dE             d eps       ncg     rms          rms(c)
DAV:   1    -0.230579977732E+04    0.21427E-04   -0.34970E-03  4384   0.557E-02    0.185E-02
RMM:   2    -0.230579982364E+04   -0.46317E-04   -0.46381E-04  4058   0.133E-02    0.190E-02
RMM:   3    -0.230579982509E+04   -0.14500E-05   -0.49744E-05  2711   0.604E-03
 374 F= -.23261710E+04 E0= -.23261710E+04  d E =-.319889E-04  mag=     3.0000
       N       E                     dE             d eps       ncg     rms          rms(c)
DAV:   1    -0.230579963577E+04    0.18786E-03   -0.13913E-02  4400   0.111E-01    0.359E-02
RMM:   2    -0.230579980695E+04   -0.17118E-03   -0.17826E-03  5664   0.238E-02    0.242E-02
RMM:   3    -0.230579981521E+04   -0.82624E-05   -0.16044E-04  2861   0.798E-03    0.199E-02
RMM:   4    -0.230579981294E+04    0.22713E-05   -0.21778E-05  2855   0.287E-03
 375 F= -.23261710E+04 E0= -.23261710E+04  d E =-.218841E-04  mag=     3.0000
       N       E                     dE             d eps       ncg     rms          rms(c)
DAV:   1    -0.230579975083E+04    0.64375E-04   -0.58541E-03  4368   0.719E-02    0.237E-02
RMM:   2    -0.230579982133E+04   -0.70500E-04   -0.74997E-04  4946   0.157E-02    0.104E-02
RMM:   3    -0.230579982591E+04   -0.45767E-05   -0.71752E-05  2670   0.621E-03
 376 F= -.23261710E+04 E0= -.23261710E+04  d E =-.335465E-04  mag=     3.0000
       N       E                     dE             d eps       ncg     rms          rms(c)
DAV:   1    -0.230579982374E+04   -0.24108E-05   -0.63330E-04  4216   0.227E-02    0.923E-03
RMM:   2    -0.230579983142E+04   -0.76740E-05   -0.81913E-05  2908   0.497E-03
 377 F= -.23261710E+04 E0= -.23261710E+04  d E =-.760479E-05  mag=     3.0000
       N       E                     dE             d eps       ncg     rms          rms(c)
DAV:   1    -0.230579982442E+04   -0.67276E-06   -0.79852E-04  4176   0.258E-02    0.929E-03
RMM:   2    -0.230579983728E+04   -0.12862E-04   -0.11682E-04  2985   0.629E-03    0.146E-02
RMM:   3    -0.230579983633E+04    0.94593E-06   -0.13423E-05  2298   0.357E-03
 378 F= -.23261711E+04 E0= -.23261711E+04  d E =-.148587E-04  mag=     3.0000
       N       E                     dE             d eps       ncg     rms          rms(c)
DAV:   1    -0.230579979894E+04    0.38340E-04   -0.31028E-03  4336   0.504E-02    0.156E-02
RMM:   2    -0.230579984044E+04   -0.41497E-04   -0.42600E-04  3849   0.108E-02    0.114E-02
RMM:   3    -0.230579984305E+04   -0.26113E-05   -0.43006E-05  2563   0.510E-03
 379 F= -.23261711E+04 E0= -.23261711E+04  d E =-.262484E-04  mag=     3.0000
       N       E                     dE             d eps       ncg     rms          rms(c)
DAV:   1    -0.230579984054E+04   -0.10247E-06   -0.11176E-03  4264   0.313E-02    0.105E-02
RMM:   2    -0.230579985506E+04   -0.14518E-04   -0.15008E-04  3167   0.725E-03    0.698E-03
RMM:   3    -0.230579985612E+04   -0.10662E-05   -0.18947E-05  2336   0.398E-03
 380 F= -.23261711E+04 E0= -.23261711E+04  d E =-.205611E-04  mag=     3.0000
       N       E                     dE             d eps       ncg     rms          rms(c)
DAV:   1    -0.230579979200E+04    0.63060E-04   -0.55965E-03  4384   0.699E-02    0.247E-02
RMM:   2    -0.230579986763E+04   -0.75632E-04   -0.74381E-04  4791   0.151E-02    0.288E-02
RMM:   3    -0.230579986699E+04    0.63959E-06   -0.75761E-05  2835   0.634E-03
 381 F= -.23261711E+04 E0= -.23261711E+04  d E =-.481516E-04  mag=     3.0000
       N       E                     dE             d eps       ncg     rms          rms(c)
DAV:   1    -0.230579985596E+04    0.11665E-04   -0.38650E-04  4816   0.184E-02    0.932E-03
RMM:   2    -0.230579986070E+04   -0.47363E-05   -0.55361E-05  2753   0.441E-03
 382 F= -.23261711E+04 E0= -.23261711E+04  d E =-.462574E-04  mag=     3.0000
       N       E                     dE             d eps       ncg     rms          rms(c)
DAV:   1    -0.230579983611E+04    0.19853E-04   -0.25221E-03  4336   0.462E-02    0.152E-02
RMM:   2    -0.230579986949E+04   -0.33384E-04   -0.34433E-04  3705   0.106E-02    0.104E-02
RMM:   3    -0.230579987216E+04   -0.26629E-05   -0.41775E-05  2512   0.538E-03
 383 F= -.23261711E+04 E0= -.23261711E+04  d E =-.176076E-04  mag=     3.0000
       N       E                     dE             d eps       ncg     rms          rms(c)
DAV:   1    -0.230579971192E+04    0.15757E-03   -0.12167E-02  4400   0.101E-01    0.322E-02
RMM:   2    -0.230579987033E+04   -0.15841E-03   -0.16374E-03  5514   0.214E-02    0.217E-02
RMM:   3    -0.230579987861E+04   -0.82808E-05   -0.15011E-04  2856   0.754E-03    0.173E-02
RMM:   4    -0.230579987710E+04    0.15111E-05   -0.19661E-05  2835   0.253E-03
 384 F= -.23261711E+04 E0= -.23261711E+04  d E =-.360088E-04  mag=     3.0000
       N       E                     dE             d eps       ncg     rms          rms(c)
DAV:   1    -0.230579986783E+04    0.10783E-04   -0.21415E-03  4440   0.421E-02    0.134E-02
RMM:   2    -0.230579989523E+04   -0.27403E-04   -0.27383E-04  3486   0.890E-03    0.146E-02
RMM:   3    -0.230579989644E+04   -0.12081E-05   -0.32979E-05  2641   0.454E-03
 385 F= -.23261712E+04 E0= -.23261712E+04  d E =-.219303E-04  mag=     3.0000
       N       E                     dE             d eps       ncg     rms          rms(c)
DAV:   1    -0.230579965993E+04    0.23530E-03   -0.19753E-02  4400   0.128E-01    0.403E-02
RMM:   2    -0.230579991322E+04   -0.25329E-03   -0.26124E-03  5781   0.266E-02    0.285E-02
RMM:   3    -0.230579992578E+04   -0.12562E-04   -0.23224E-04  2879   0.916E-03    0.227E-02
RMM:   4    -0.230579992320E+04    0.25871E-05   -0.30572E-05  2850   0.292E-03
 386 F= -.23261712E+04 E0= -.23261712E+04  d E =-.564354E-04  mag=     3.0000
       N       E                     dE             d eps       ncg     rms          rms(c)
DAV:   1    -0.230579988045E+04    0.45336E-04   -0.31173E-03  4448   0.507E-02    0.166E-02
RMM:   2    -0.230579992004E+04   -0.39588E-04   -0.39770E-04  3825   0.105E-02    0.178E-02
RMM:   3    -0.230579992169E+04   -0.16498E-05   -0.46920E-05  2775   0.506E-03
 387 F= -.23261712E+04 E0= -.23261712E+04  d E =-.580657E-04  mag=     3.0000
       N       E                     dE             d eps       ncg     rms          rms(c)
DAV:   1    -0.230579988392E+04    0.36112E-04   -0.44745E-03  4368   0.605E-02    0.192E-02
RMM:   2    -0.230579994132E+04   -0.57400E-04   -0.58998E-04  4196   0.130E-02    0.133E-02
RMM:   3    -0.230579994451E+04   -0.31880E-05   -0.57860E-05  2722   0.556E-03
 388 F= -.23261712E+04 E0= -.23261712E+04  d E =-.283029E-04  mag=     3.0000
       N       E                     dE             d eps       ncg     rms          rms(c)
DAV:   1    -0.230579944920E+04    0.49213E-03   -0.40406E-02  4432   0.182E-01    0.564E-02
RMM:   2    -0.230579996533E+04   -0.51613E-03   -0.53240E-03  5967   0.375E-02    0.388E-02
RMM:   3    -0.230579999312E+04   -0.27796E-04   -0.48189E-04  2949   0.120E-02    0.319E-02
RMM:   4    -0.230579998734E+04    0.57852E-05   -0.61287E-05  2884   0.393E-03
 389 F= -.23261713E+04 E0= -.23261713E+04  d E =-.875366E-04  mag=     3.0000
       N       E                     dE             d eps       ncg     rms          rms(c)
DAV:   1    -0.230579784096E+04    0.21522E-02   -0.16112E-01  4432   0.363E-01    0.114E-01
RMM:   2    -0.230579989673E+04   -0.20558E-02   -0.21037E-02  6006   0.733E-02    0.949E-02
RMM:   3    -0.230579999593E+04   -0.99201E-04   -0.19706E-03  3680   0.233E-02    0.766E-02
RMM:   4    -0.230579994799E+04    0.47938E-04   -0.22965E-04  2953   0.701E-03    0.366E-02
RMM:   5    -0.230579993090E+04    0.17093E-04   -0.36421E-05  2886   0.451E-03    0.178E-02
RMM:   6    -0.230579992858E+04    0.23209E-05   -0.25370E-05  2948   0.449E-03
 390 F= -.23261713E+04 E0= -.23261713E+04  d E =-.615687E-04  mag=     3.0000
       N       E                     dE             d eps       ncg     rms          rms(c)
DAV:   1    -0.230579952389E+04    0.40701E-03   -0.34814E-02  4416   0.169E-01    0.521E-02
RMM:   2    -0.230579996121E+04   -0.43732E-03   -0.45017E-03  5962   0.359E-02    0.391E-02
RMM:   3    -0.230579998555E+04   -0.24344E-04   -0.41869E-04  2967   0.117E-02    0.329E-02
RMM:   4    -0.230579997731E+04    0.82403E-05   -0.49099E-05  2863   0.392E-03
 391 F= -.23261713E+04 E0= -.23261713E+04  d E =-.951644E-04  mag=     3.0000
       N       E                     dE             d eps       ncg     rms          rms(c)
DAV:   1    -0.230579983602E+04    0.14954E-03   -0.11516E-02  4432   0.970E-02    0.298E-02
RMM:   2    -0.230579998059E+04   -0.14457E-03   -0.14765E-03  5301   0.200E-02    0.263E-02
RMM:   3    -0.230579998853E+04   -0.79392E-05   -0.15062E-04  2859   0.754E-03    0.207E-02
RMM:   4    -0.230579998549E+04    0.30411E-05   -0.17693E-05  2798   0.257E-03
 392 F= -.23261713E+04 E0= -.23261713E+04  d E =-.945148E-04  mag=     3.0000
       N       E                     dE             d eps       ncg     rms          rms(c)
DAV:   1    -0.230579991621E+04    0.72316E-04   -0.73329E-03  4400   0.763E-02    0.260E-02
RMM:   2    -0.230580001294E+04   -0.96727E-04   -0.99142E-04  4839   0.163E-02    0.216E-02
RMM:   3    -0.230580001706E+04   -0.41240E-05   -0.89224E-05  2757   0.622E-03
 393 F= -.23261713E+04 E0= -.23261713E+04  d E =-.396930E-04  mag=     3.0000
       N       E                     dE             d eps       ncg     rms          rms(c)
DAV:   1    -0.230579927497E+04    0.73797E-03   -0.58665E-02  4432   0.216E-01    0.673E-02
RMM:   2    -0.230580005281E+04   -0.77784E-03   -0.79403E-03  5991   0.446E-02    0.549E-02
RMM:   3    -0.230580008900E+04   -0.36188E-04   -0.70432E-04  3040   0.141E-02    0.417E-02
RMM:   4    -0.230580007779E+04    0.11202E-04   -0.91389E-05  2893   0.461E-03    0.227E-02
RMM:   5    -0.230580007109E+04    0.67074E-05   -0.12239E-05  2822   0.270E-03
 394 F= -.23261714E+04 E0= -.23261714E+04  d E =-.116899E-03  mag=     3.0000
       N       E                     dE             d eps       ncg     rms          rms(c)
DAV:   1    -0.230579690774E+04    0.31701E-02   -0.23319E-01  4432   0.430E-01    0.136E-01
RMM:   2    -0.230579994162E+04   -0.30339E-02   -0.31296E-02  6031   0.877E-02    0.101E-01
RMM:   3    -0.230580011711E+04   -0.17549E-03   -0.28807E-03  3888   0.272E-02    0.857E-02
RMM:   4    -0.230580006207E+04    0.55041E-04   -0.33826E-04  2978   0.798E-03    0.416E-02
RMM:   5    -0.230580004202E+04    0.20048E-04   -0.40329E-05  2875   0.457E-03    0.219E-02
RMM:   6    -0.230580003759E+04    0.44273E-05   -0.34351E-05  3007   0.470E-03
 395 F= -.23261714E+04 E0= -.23261714E+04  d E =-.129694E-03  mag=     3.0000
       N       E                     dE             d eps       ncg     rms          rms(c)
DAV:   1    -0.230579992991E+04    0.11211E-03   -0.96827E-03  4576   0.872E-02    0.289E-02
RMM:   2    -0.230580005767E+04   -0.12776E-03   -0.13159E-03  5016   0.190E-02    0.238E-02
RMM:   3    -0.230580006458E+04   -0.69133E-05   -0.12645E-04  2848   0.691E-03    0.195E-02
RMM:   4    -0.230580006201E+04    0.25730E-05   -0.15953E-05  2832   0.268E-03
 396 F= -.23261715E+04 E0= -.23261715E+04  d E =-.299814E-04  mag=     3.0000
       N       E                     dE             d eps       ncg     rms          rms(c)
DAV:   1    -0.230579934277E+04    0.72181E-03   -0.57223E-02  4432   0.212E-01    0.647E-02
RMM:   2    -0.230580008894E+04   -0.74616E-03   -0.76241E-03  5981   0.432E-02    0.535E-02
RMM:   3    -0.230580012766E+04   -0.38727E-04   -0.70791E-04  3053   0.138E-02    0.422E-02
RMM:   4    -0.230580011475E+04    0.12916E-04   -0.84540E-05  2889   0.449E-03    0.216E-02
RMM:   5    -0.230580010923E+04    0.55227E-05   -0.10427E-05  2826   0.248E-03
 397 F= -.23261715E+04 E0= -.23261715E+04  d E =-.906280E-04  mag=     3.0000
       N       E                     dE             d eps       ncg     rms          rms(c)
DAV:   1    -0.230579710767E+04    0.30071E-02   -0.22826E-01  4432   0.424E-01    0.131E-01
RMM:   2    -0.230580007130E+04   -0.29636E-02   -0.30499E-02  6034   0.858E-02    0.100E-01
RMM:   3    -0.230580023784E+04   -0.16653E-03   -0.27935E-03  3824   0.265E-02    0.823E-02
RMM:   4    -0.230580018899E+04    0.48840E-04   -0.32948E-04  2977   0.771E-03    0.406E-02
RMM:   5    -0.230580017033E+04    0.18664E-04   -0.35011E-05  2869   0.417E-03    0.221E-02
RMM:   6    -0.230580016615E+04    0.41794E-05   -0.35156E-05  3017   0.438E-03
 398 F= -.23261716E+04 E0= -.23261716E+04  d E =-.174451E-03  mag=     3.0000
       N       E                     dE             d eps       ncg     rms          rms(c)
DAV:   1    -0.230578786303E+04    0.12307E-01   -0.91743E-01  4432   0.849E-01    0.265E-01
RMM:   2    -0.230579986123E+04   -0.11998E-01   -0.12305E-01  5989   0.171E-01    0.215E-01
RMM:   3    -0.230580045964E+04   -0.59841E-03   -0.11153E-02  5291   0.537E-02    0.169E-01
RMM:   4    -0.230580024366E+04    0.21599E-03   -0.13058E-03  3444   0.132E-02    0.800E-02
RMM:   5    -0.230580017008E+04    0.73579E-04   -0.13551E-04  3060   0.746E-03    0.451E-02
RMM:   6    -0.230580015136E+04    0.18716E-04   -0.14743E-04  3699   0.824E-03    0.139E-02
RMM:   7    -0.230580015209E+04   -0.73295E-06   -0.13988E-05  2855   0.532E-03
 399 F= -.23261716E+04 E0= -.23261716E+04  d E =-.214000E-03  mag=     3.0000
       N       E                     dE             d eps       ncg     rms          rms(c)
DAV:   1    -0.230579940267E+04    0.74869E-03   -0.65116E-02  4464   0.227E-01    0.710E-02
RMM:   2    -0.230580025022E+04   -0.84755E-03   -0.87444E-03  5992   0.465E-02    0.520E-02
RMM:   3    -0.230580029865E+04   -0.48427E-04   -0.79831E-04  3106   0.151E-02    0.429E-02
RMM:   4    -0.230580028653E+04    0.12115E-04   -0.97186E-05  2894   0.465E-03    0.218E-02
RMM:   5    -0.230580028130E+04    0.52356E-05   -0.10003E-05  2797   0.242E-03
 400 F= -.23261718E+04 E0= -.23261718E+04  d E =-.140004E-03  mag=     3.0000
       N       E                     dE             d eps       ncg     rms          rms(c)
DAV:   1    -0.230579276728E+04    0.75193E-02   -0.58402E-01  4432   0.681E-01    0.209E-01
RMM:   2    -0.230580029611E+04   -0.75288E-02   -0.77601E-02  6029   0.137E-01    0.154E-01
RMM:   3    -0.230580071785E+04   -0.42174E-03   -0.70314E-03  4946   0.419E-02    0.127E-01
RMM:   4    -0.230580060707E+04    0.11078E-03   -0.82945E-04  3162   0.107E-02    0.657E-02
RMM:   5    -0.230580055657E+04    0.50499E-04   -0.89259E-05  2974   0.625E-03    0.354E-02
RMM:   6    -0.230580054471E+04    0.11868E-04   -0.90444E-05  3328   0.678E-03    0.110E-02
RMM:   7    -0.230580054531E+04   -0.60585E-06   -0.94823E-06  2846   0.471E-03
 401 F= -.23261721E+04 E0= -.23261721E+04  d E =-.436374E-03  mag=     3.0000
