       N       E                     dE             d eps       ncg     rms          rms(c)
DAV:   1     0.129395449901E+05    0.12940E+05   -0.83659E+05  4488   0.144E+03
DAV:   2    -0.104300985460E+04   -0.13983E+05   -0.13368E+05  5104   0.330E+02
DAV:   3    -0.247613005854E+04   -0.14331E+04   -0.14181E+04  5424   0.112E+02
DAV:   4    -0.252086533650E+04   -0.44735E+02   -0.44496E+02  6768   0.294E+01
DAV:   5    -0.252164722280E+04   -0.78189E+00   -0.78045E+00  6064   0.336E+00    0.170E+02
RMM:   6    -0.148949683782E+04    0.10322E+04   -0.19404E+03  4436   0.385E+01    0.724E+01
RMM:   7    -0.165988260245E+04   -0.17039E+03   -0.28613E+02  5002   0.140E+01    0.474E+01
RMM:   8    -0.171488974741E+04   -0.55007E+02   -0.35381E+01  5270   0.665E+00    0.374E+01
RMM:   9    -0.182798559631E+04   -0.11310E+03   -0.68256E+01  5020   0.787E+00    0.361E+01
RMM:  10    -0.192964745397E+04   -0.10166E+03   -0.54661E+01  5253   0.678E+00    0.223E+01
RMM:  11    -0.201356515387E+04   -0.83918E+02   -0.33430E+01  5203   0.488E+00    0.184E+01
RMM:  12    -0.207892830097E+04   -0.65363E+02   -0.23269E+01  5060   0.385E+00    0.136E+01
RMM:  13    -0.221422232445E+04   -0.13529E+03   -0.10165E+02  4422   0.732E+00    0.105E+01
RMM:  14    -0.229364297533E+04   -0.79421E+02   -0.80460E+01  4483   0.602E+00    0.768E+00
RMM:  15    -0.230505288544E+04   -0.11410E+02   -0.14306E+01  4546   0.375E+00    0.428E+00
RMM:  16    -0.231226012596E+04   -0.72072E+01   -0.76753E+00  4487   0.171E+00    0.242E+00
RMM:  17    -0.231439568158E+04   -0.21356E+01   -0.20268E+00  4680   0.148E+00    0.138E+00
RMM:  18    -0.231513729151E+04   -0.74161E+00   -0.68770E-01  4906   0.480E-01    0.750E-01
RMM:  19    -0.231530243737E+04   -0.16515E+00   -0.15416E-01  4781   0.351E-01    0.434E-01
RMM:  20    -0.231536121492E+04   -0.58778E-01   -0.46315E-02  4694   0.140E-01    0.315E-01
RMM:  21    -0.231538564625E+04   -0.24431E-01   -0.12835E-02  4570   0.103E-01    0.149E-01
RMM:  22    -0.231540128239E+04   -0.15636E-01   -0.68121E-03  4552   0.596E-02    0.115E-01
RMM:  23    -0.231541430907E+04   -0.13027E-01   -0.39944E-03  4453   0.506E-02    0.598E-02
RMM:  24    -0.231542204835E+04   -0.77393E-02   -0.25167E-03  4550   0.365E-02    0.465E-02
RMM:  25    -0.231542641080E+04   -0.43624E-02   -0.14100E-03  4517   0.288E-02    0.238E-02
RMM:  26    -0.231542823200E+04   -0.18212E-02   -0.63799E-04  4185   0.181E-02    0.139E-02
RMM:  27    -0.231542873161E+04   -0.49961E-03   -0.16705E-04  3894   0.113E-02    0.798E-03
RMM:  28    -0.231542898122E+04   -0.24961E-03   -0.60134E-05  3497   0.604E-03    0.510E-03
RMM:  29    -0.231542910342E+04   -0.12220E-03   -0.23240E-05  3100   0.467E-03    0.265E-03
RMM:  30    -0.231542915493E+04   -0.51505E-04   -0.10857E-05  2887   0.315E-03    0.196E-03
RMM:  31    -0.231542917880E+04   -0.23868E-04   -0.61983E-06  2732   0.269E-03    0.987E-04
RMM:  32    -0.231542918423E+04   -0.54319E-05   -0.32681E-06  2451   0.215E-03
   1 F= -.23363060E+04 E0= -.23363060E+04  d E =-.233631E+04  mag=     6.0000
       N       E                     dE             d eps       ncg     rms          rms(c)
DAV:   1    -0.231539415894E+04    0.35020E-01   -0.88226E+00  5104   0.207E+00    0.930E-01
RMM:   2    -0.231560529789E+04   -0.21114E+00   -0.21755E+00  6352   0.630E-01    0.827E-01
RMM:   3    -0.231562163082E+04   -0.16333E-01   -0.26813E-01  5525   0.284E-01    0.656E-01
RMM:   4    -0.231562037495E+04    0.12559E-02   -0.21879E-02  5860   0.503E-02    0.409E-01
RMM:   5    -0.231561909623E+04    0.12787E-02   -0.25539E-03  4980   0.227E-02    0.256E-01
RMM:   6    -0.231561817925E+04    0.91698E-03   -0.30149E-03  5637   0.275E-02    0.105E-01
RMM:   7    -0.231561815004E+04    0.29215E-04   -0.52074E-04  4562   0.130E-02    0.555E-02
RMM:   8    -0.231561813448E+04    0.15556E-04   -0.11209E-04  3314   0.745E-03    0.380E-02
RMM:   9    -0.231561812467E+04    0.98087E-05   -0.55647E-05  2911   0.592E-03
   2 F= -.23364936E+04 E0= -.23364936E+04  d E =-.187595E+00  mag=     6.0000
       N       E                     dE             d eps       ncg     rms          rms(c)
DAV:   1    -0.231544356741E+04    0.17457E+00   -0.95706E+00  4672   0.220E+00    0.947E-01
RMM:   2    -0.231567489050E+04   -0.23132E+00   -0.23960E+00  6284   0.683E-01    0.766E-01
RMM:   3    -0.231569573468E+04   -0.20844E-01   -0.29382E-01  5446   0.323E-01    0.645E-01
RMM:   4    -0.231569471150E+04    0.10232E-02   -0.22855E-02  5858   0.520E-02    0.413E-01
RMM:   5    -0.231569325694E+04    0.14546E-02   -0.27120E-03  4999   0.237E-02    0.255E-01
RMM:   6    -0.231569244696E+04    0.80998E-03   -0.32329E-03  5587   0.283E-02    0.103E-01
RMM:   7    -0.231569244177E+04    0.51905E-05   -0.48291E-04  4540   0.126E-02    0.665E-02
RMM:   8    -0.231569243160E+04    0.10178E-04   -0.15449E-04  3435   0.739E-03    0.521E-02
RMM:   9    -0.231569240622E+04    0.25373E-04   -0.70517E-05  2910   0.619E-03    0.153E-02
RMM:  10    -0.231569241259E+04   -0.63696E-05   -0.20242E-05  2888   0.357E-03
   3 F= -.23365672E+04 E0= -.23365672E+04  d E =-.261127E+00  mag=     6.0000
       N       E                     dE             d eps       ncg     rms          rms(c)
DAV:   1    -0.231568685518E+04    0.55510E-02   -0.34839E+00  4624   0.192E+00    0.770E-01
RMM:   2    -0.231571099827E+04   -0.24143E-01   -0.28266E-01  5860   0.383E-01    0.350E-01
RMM:   3    -0.231571130360E+04   -0.30533E-03   -0.30945E-02  5239   0.158E-01    0.280E-01
RMM:   4    -0.231571055973E+04    0.74386E-03   -0.42798E-03  5729   0.457E-02    0.198E-01
RMM:   5    -0.231571025296E+04    0.30677E-03   -0.18576E-03  4819   0.325E-02    0.199E-01
RMM:   6    -0.231570997856E+04    0.27440E-03   -0.70440E-04  4702   0.185E-02    0.860E-02
RMM:   7    -0.231570990843E+04    0.70132E-04   -0.13443E-04  3888   0.106E-02    0.254E-02
RMM:   8    -0.231570989433E+04    0.14100E-04   -0.43640E-05  3141   0.608E-03    0.134E-02
RMM:   9    -0.231570989060E+04    0.37314E-05   -0.18416E-05  2917   0.471E-03
   4 F= -.23365852E+04 E0= -.23365852E+04  d E =-.180469E-01  mag=     6.0000
       N       E                     dE             d eps       ncg     rms          rms(c)
DAV:   1    -0.231571050527E+04   -0.61094E-03   -0.17891E-01  4770   0.439E-01    0.176E-01
RMM:   2    -0.231571176840E+04   -0.12631E-02   -0.14653E-02  5929   0.886E-02    0.796E-02
RMM:   3    -0.231571178640E+04   -0.18002E-04   -0.15041E-03  4908   0.355E-02    0.631E-02
RMM:   4    -0.231571175022E+04    0.36183E-04   -0.21340E-04  3955   0.107E-02    0.443E-02
RMM:   5    -0.231571173454E+04    0.15678E-04   -0.10037E-04  3627   0.878E-03    0.431E-02
RMM:   6    -0.231571172301E+04    0.11533E-04   -0.34374E-05  2908   0.600E-03    0.180E-02
RMM:   7    -0.231571172076E+04    0.22447E-05   -0.71413E-06  2869   0.329E-03
   5 F= -.23365869E+04 E0= -.23365869E+04  d E =-.197485E-01  mag=     6.0000
       N       E                     dE             d eps       ncg     rms          rms(c)
DAV:   1    -0.231569828030E+04    0.13443E-01   -0.17945E+00  4560   0.127E+00    0.435E-01
RMM:   2    -0.231572399458E+04   -0.25714E-01   -0.27581E-01  6146   0.288E-01    0.274E-01
RMM:   3    -0.231572586170E+04   -0.18671E-02   -0.30220E-02  5639   0.107E-01    0.224E-01
RMM:   4    -0.231572548171E+04    0.37998E-03   -0.25513E-03  5294   0.236E-02    0.146E-01
RMM:   5    -0.231572537581E+04    0.10590E-03   -0.53803E-04  4121   0.130E-02    0.117E-01
RMM:   6    -0.231572522021E+04    0.15560E-03   -0.39672E-04  4592   0.121E-02    0.463E-02
RMM:   7    -0.231572520026E+04    0.19957E-04   -0.73817E-05  3262   0.840E-03    0.127E-02
RMM:   8    -0.231572519846E+04    0.17992E-05   -0.15023E-05  2904   0.447E-03
   6 F= -.23366011E+04 E0= -.23366011E+04  d E =-.142009E-01  mag=     6.0000
       N       E                     dE             d eps       ncg     rms          rms(c)
DAV:   1    -0.231570838160E+04    0.16819E-01   -0.13036E+00  4560   0.108E+00    0.371E-01
RMM:   2    -0.231572701567E+04   -0.18634E-01   -0.19960E-01  6141   0.244E-01    0.236E-01
RMM:   3    -0.231572838592E+04   -0.13703E-02   -0.22633E-02  5614   0.887E-02    0.191E-01
RMM:   4    -0.231572812228E+04    0.26364E-03   -0.19086E-03  4982   0.199E-02    0.130E-01
RMM:   5    -0.231572802890E+04    0.93378E-04   -0.38742E-04  3784   0.112E-02    0.963E-02
RMM:   6    -0.231572791671E+04    0.11218E-03   -0.29106E-04  4425   0.108E-02    0.375E-02
RMM:   7    -0.231572790302E+04    0.13698E-04   -0.57733E-05  3161   0.744E-03    0.104E-02
RMM:   8    -0.231572790190E+04    0.11155E-05   -0.11612E-05  2890   0.419E-03
   7 F= -.23366044E+04 E0= -.23366044E+04  d E =-.175264E-01  mag=     6.0000
       N       E                     dE             d eps       ncg     rms          rms(c)
DAV:   1    -0.231571797292E+04    0.99301E-02   -0.12010E+00  4512   0.101E+00    0.324E-01
RMM:   2    -0.231573635305E+04   -0.18380E-01   -0.19646E-01  6242   0.231E-01    0.173E-01
RMM:   3    -0.231573801306E+04   -0.16600E-02   -0.21640E-02  5628   0.833E-02    0.143E-01
RMM:   4    -0.231573799428E+04    0.18784E-04   -0.17741E-03  4149   0.177E-02    0.108E-01
RMM:   5    -0.231573791486E+04    0.79417E-04   -0.28235E-04  3758   0.103E-02    0.845E-02
RMM:   6    -0.231573785761E+04    0.57248E-04   -0.18156E-04  3583   0.894E-03    0.415E-02
RMM:   7    -0.231573784621E+04    0.11403E-04   -0.44715E-05  3037   0.657E-03    0.133E-02
RMM:   8    -0.231573784668E+04   -0.47187E-06   -0.92924E-06  2876   0.429E-03
   8 F= -.23366148E+04 E0= -.23366148E+04  d E =-.103383E-01  mag=     6.0000
       N       E                     dE             d eps       ncg     rms          rms(c)
DAV:   1    -0.231566086926E+04    0.76977E-01   -0.50634E+00  4512   0.208E+00    0.667E-01
RMM:   2    -0.231573831686E+04   -0.77448E-01   -0.82897E-01  6266   0.472E-01    0.359E-01
RMM:   3    -0.231574599313E+04   -0.76763E-02   -0.98261E-02  5712   0.173E-01    0.308E-01
RMM:   4    -0.231574577604E+04    0.21709E-03   -0.77465E-03  5631   0.374E-02    0.214E-01
RMM:   5    -0.231574545687E+04    0.31918E-03   -0.11399E-03  4746   0.180E-02    0.176E-01
RMM:   6    -0.231574523462E+04    0.22225E-03   -0.73672E-04  4828   0.152E-02    0.105E-01
RMM:   7    -0.231574514933E+04    0.85288E-04   -0.23774E-04  4170   0.110E-02    0.272E-02
RMM:   8    -0.231574515124E+04   -0.19096E-05   -0.38563E-05  2977   0.663E-03
   9 F= -.23366229E+04 E0= -.23366229E+04  d E =-.184681E-01  mag=     6.0000
       N       E                     dE             d eps       ncg     rms          rms(c)
DAV:   1    -0.231573450176E+04    0.10648E-01   -0.11368E+00  4512   0.985E-01    0.333E-01
RMM:   2    -0.231575336781E+04   -0.18866E-01   -0.20431E-01  6328   0.230E-01    0.166E-01
RMM:   3    -0.231575540517E+04   -0.20374E-02   -0.25314E-02  5661   0.819E-02    0.120E-01
RMM:   4    -0.231575545765E+04   -0.52484E-04   -0.19271E-03  4015   0.176E-02    0.927E-02
RMM:   5    -0.231575536156E+04    0.96094E-04   -0.22038E-04  3717   0.929E-03    0.632E-02
RMM:   6    -0.231575536811E+04   -0.65506E-05   -0.14500E-04  3177   0.807E-03    0.710E-02
RMM:   7    -0.231575533536E+04    0.32751E-04   -0.61120E-05  3005   0.645E-03    0.112E-02
RMM:   8    -0.231575533738E+04   -0.20212E-05   -0.84311E-06  2874   0.413E-03
  10 F= -.23366331E+04 E0= -.23366331E+04  d E =-.101703E-01  mag=     6.0000
       N       E                     dE             d eps       ncg     rms          rms(c)
DAV:   1    -0.231566305326E+04    0.92282E-01   -0.55074E+00  4480   0.216E+00    0.733E-01
RMM:   2    -0.231575473440E+04   -0.91681E-01   -0.99204E-01  6274   0.501E-01    0.368E-01
RMM:   3    -0.231576490949E+04   -0.10175E-01   -0.12592E-01  5677   0.184E-01    0.275E-01
RMM:   4    -0.231576506801E+04   -0.15852E-03   -0.94686E-03  5577   0.387E-02    0.198E-01
RMM:   5    -0.231576458110E+04    0.48691E-03   -0.10424E-03  4576   0.176E-02    0.120E-01
RMM:   6    -0.231576458796E+04   -0.68559E-05   -0.69604E-04  4835   0.162E-02    0.134E-01
RMM:   7    -0.231576446584E+04    0.12211E-03   -0.22966E-04  3637   0.990E-03    0.440E-02
RMM:   8    -0.231576446057E+04    0.52771E-05   -0.26468E-05  2914   0.506E-03
  11 F= -.23366422E+04 E0= -.23366422E+04  d E =-.192634E-01  mag=     6.0000
       N       E                     dE             d eps       ncg     rms          rms(c)
DAV:   1    -0.231574905089E+04    0.15415E-01   -0.13618E+00  4544   0.102E+00    0.366E-01
RMM:   2    -0.231577244671E+04   -0.23396E-01   -0.25214E-01  6329   0.247E-01    0.197E-01
RMM:   3    -0.231577494005E+04   -0.24933E-02   -0.31588E-02  5697   0.894E-02    0.136E-01
RMM:   4    -0.231577507727E+04   -0.13722E-03   -0.24614E-03  4167   0.178E-02    0.147E-01
RMM:   5    -0.231577490957E+04    0.16770E-03   -0.33665E-04  3411   0.103E-02    0.633E-02
RMM:   6    -0.231577488630E+04    0.23273E-04   -0.18461E-04  3898   0.873E-03    0.339E-02
RMM:   7    -0.231577488186E+04    0.44347E-05   -0.66672E-05  2958   0.720E-03
  12 F= -.23366528E+04 E0= -.23366528E+04  d E =-.106816E-01  mag=     6.0000
       N       E                     dE             d eps       ncg     rms          rms(c)
DAV:   1    -0.231567636288E+04    0.98523E-01   -0.53665E+00  4496   0.202E+00    0.729E-01
RMM:   2    -0.231576932074E+04   -0.92958E-01   -0.10018E+00  6332   0.498E-01    0.392E-01
RMM:   3    -0.231577904869E+04   -0.97279E-02   -0.12539E-01  5783   0.178E-01    0.255E-01
RMM:   4    -0.231577952337E+04   -0.47469E-03   -0.97524E-03  5507   0.358E-02    0.260E-01
RMM:   5    -0.231577904259E+04    0.48078E-03   -0.12982E-03  4415   0.178E-02    0.146E-01
RMM:   6    -0.231577892788E+04    0.11471E-03   -0.66882E-04  4712   0.145E-02    0.979E-02
RMM:   7    -0.231577885465E+04    0.73236E-04   -0.37929E-04  3717   0.128E-02    0.479E-02
RMM:   8    -0.231577883799E+04    0.16653E-04   -0.49137E-05  2994   0.576E-03    0.185E-02
RMM:   9    -0.231577884051E+04   -0.25126E-05   -0.16605E-05  2903   0.372E-03
  13 F= -.23366573E+04 E0= -.23366573E+04  d E =-.151524E-01  mag=     6.0000
       N       E                     dE             d eps       ncg     rms          rms(c)
DAV:   1    -0.231577123077E+04    0.76072E-02   -0.45979E-01  4608   0.596E-01    0.210E-01
RMM:   2    -0.231577912756E+04   -0.78968E-02   -0.85013E-02  6308   0.146E-01    0.107E-01
RMM:   3    -0.231577997313E+04   -0.84557E-03   -0.10600E-02  5190   0.536E-02    0.636E-02
RMM:   4    -0.231577999815E+04   -0.25015E-04   -0.74291E-04  3233   0.106E-02    0.560E-02
RMM:   5    -0.231577999394E+04    0.42096E-05   -0.11231E-04  3002   0.670E-03    0.583E-02
RMM:   6    -0.231577996621E+04    0.27732E-04   -0.55880E-05  3059   0.555E-03    0.129E-02
RMM:   7    -0.231577996669E+04   -0.48144E-06   -0.11060E-05  2861   0.419E-03
  14 F= -.23366583E+04 E0= -.23366583E+04  d E =-.161305E-01  mag=     6.0000
       N       E                     dE             d eps       ncg     rms          rms(c)
DAV:   1    -0.231576372565E+04    0.16241E-01   -0.13253E+00  4464   0.982E-01    0.392E-01
RMM:   2    -0.231578717496E+04   -0.23449E-01   -0.25192E-01  6272   0.251E-01    0.219E-01
RMM:   3    -0.231578974063E+04   -0.25657E-02   -0.31724E-02  5734   0.911E-02    0.168E-01
RMM:   4    -0.231578968304E+04    0.57595E-04   -0.23662E-03  4506   0.201E-02    0.104E-01
RMM:   5    -0.231578957004E+04    0.11300E-03   -0.32004E-04  4033   0.111E-02    0.572E-02
RMM:   6    -0.231578960895E+04   -0.38912E-04   -0.17788E-04  3377   0.925E-03    0.881E-02
RMM:   7    -0.231578954532E+04    0.63633E-04   -0.76356E-05  2928   0.656E-03    0.136E-02
RMM:   8    -0.231578954481E+04    0.50652E-06   -0.14442E-05  2901   0.351E-03
  15 F= -.23366680E+04 E0= -.23366680E+04  d E =-.975202E-02  mag=     6.0000
       N       E                     dE             d eps       ncg     rms          rms(c)
DAV:   1    -0.231574985539E+04    0.39690E-01   -0.22511E+00  4464   0.128E+00    0.511E-01
RMM:   2    -0.231578972326E+04   -0.39868E-01   -0.42837E-01  6284   0.325E-01    0.286E-01
RMM:   3    -0.231579417200E+04   -0.44487E-02   -0.54590E-02  5780   0.118E-01    0.224E-01
RMM:   4    -0.231579406035E+04    0.11164E-03   -0.40872E-03  5081   0.263E-02    0.137E-01
RMM:   5    -0.231579386970E+04    0.19065E-03   -0.54770E-04  4259   0.138E-02    0.766E-02
RMM:   6    -0.231579393200E+04   -0.62297E-04   -0.30721E-04  4038   0.115E-02    0.114E-01
RMM:   7    -0.231579382676E+04    0.10524E-03   -0.12810E-04  2976   0.752E-03    0.182E-02
RMM:   8    -0.231579382612E+04    0.64129E-06   -0.22087E-05  2903   0.415E-03
  16 F= -.23366725E+04 E0= -.23366725E+04  d E =-.142433E-01  mag=     6.0000
       N       E                     dE             d eps       ncg     rms          rms(c)
DAV:   1    -0.231577388092E+04    0.19946E-01   -0.14868E+00  4512   0.978E-01    0.387E-01
RMM:   2    -0.231580066684E+04   -0.26786E-01   -0.28360E-01  6418   0.249E-01    0.250E-01
RMM:   3    -0.231580333555E+04   -0.26687E-02   -0.34096E-02  5697   0.893E-02    0.194E-01
RMM:   4    -0.231580323386E+04    0.10168E-03   -0.25463E-03  4025   0.191E-02    0.112E-01
RMM:   5    -0.231580316486E+04    0.69001E-04   -0.37190E-04  3652   0.103E-02    0.899E-02
RMM:   6    -0.231580314302E+04    0.21840E-04   -0.23374E-04  3391   0.858E-03    0.785E-02
RMM:   7    -0.231580309301E+04    0.50011E-04   -0.78795E-05  2951   0.663E-03    0.210E-02
RMM:   8    -0.231580309164E+04    0.13708E-05   -0.17432E-05  2904   0.411E-03
  17 F= -.23366824E+04 E0= -.23366824E+04  d E =-.987355E-02  mag=     6.0000
       N       E                     dE             d eps       ncg     rms          rms(c)
DAV:   1    -0.231561438240E+04    0.18871E+00   -0.98919E+00  4472   0.252E+00    0.100E+00
RMM:   2    -0.231579317681E+04   -0.17879E+00   -0.18958E+00  6394   0.626E-01    0.656E-01
RMM:   3    -0.231581417835E+04   -0.21002E-01   -0.25860E-01  5867   0.243E-01    0.587E-01
RMM:   4    -0.231581274194E+04    0.14364E-02   -0.18021E-02  5758   0.508E-02    0.312E-01
RMM:   5    -0.231581221535E+04    0.52659E-03   -0.26135E-03  4997   0.236E-02    0.235E-01
RMM:   6    -0.231581211588E+04    0.99466E-04   -0.17219E-03  5410   0.189E-02    0.218E-01
RMM:   7    -0.231581166850E+04    0.44738E-03   -0.78980E-04  4405   0.152E-02    0.472E-02
RMM:   8    -0.231581166571E+04    0.27901E-05   -0.12509E-04  3172   0.745E-03    0.239E-02
RMM:   9    -0.231581166099E+04    0.47228E-05   -0.28319E-05  2901   0.500E-03
  18 F= -.23366925E+04 E0= -.23366925E+04  d E =-.199472E-01  mag=     6.0000
       N       E                     dE             d eps       ncg     rms          rms(c)
DAV:   1    -0.231575435577E+04    0.57310E-01   -0.33978E+00  4484   0.161E+00    0.617E-01
RMM:   2    -0.231581787704E+04   -0.63521E-01   -0.66526E-01  6270   0.391E-01    0.511E-01
RMM:   3    -0.231582338012E+04   -0.55031E-02   -0.79836E-02  5829   0.142E-01    0.401E-01
RMM:   4    -0.231582261290E+04    0.76721E-03   -0.59072E-03  5246   0.311E-02    0.173E-01
RMM:   5    -0.231582249043E+04    0.12247E-03   -0.11245E-03  4778   0.181E-02    0.155E-01
RMM:   6    -0.231582225515E+04    0.23528E-03   -0.63445E-04  5107   0.137E-02    0.839E-02
RMM:   7    -0.231582220805E+04    0.47099E-04   -0.14730E-04  3497   0.957E-03    0.333E-02
RMM:   8    -0.231582220288E+04    0.51722E-05   -0.32460E-05  2921   0.532E-03
  19 F= -.23367037E+04 E0= -.23367037E+04  d E =-.112260E-01  mag=     6.0000
       N       E                     dE             d eps       ncg     rms          rms(c)
DAV:   1    -0.231576539528E+04    0.56813E-01   -0.30011E+00  4512   0.150E+00    0.576E-01
RMM:   2    -0.231582097849E+04   -0.55583E-01   -0.58252E-01  6282   0.364E-01    0.466E-01
RMM:   3    -0.231582582696E+04   -0.48485E-02   -0.69921E-02  5844   0.133E-01    0.364E-01
RMM:   4    -0.231582520577E+04    0.62120E-03   -0.51657E-03  5152   0.289E-02    0.161E-01
RMM:   5    -0.231582509783E+04    0.10793E-03   -0.97019E-04  4689   0.170E-02    0.146E-01
RMM:   6    -0.231582489350E+04    0.20434E-03   -0.55368E-04  5018   0.128E-02    0.809E-02
RMM:   7    -0.231582484821E+04    0.45283E-04   -0.12986E-04  3386   0.906E-03    0.328E-02
RMM:   8    -0.231582484211E+04    0.61037E-05   -0.30558E-05  2916   0.525E-03
  20 F= -.23367069E+04 E0= -.23367069E+04  d E =-.144605E-01  mag=     6.0000
       N       E                     dE             d eps       ncg     rms          rms(c)
DAV:   1    -0.231575086450E+04    0.73984E-01   -0.43566E+00  4472   0.180E+00    0.691E-01
RMM:   2    -0.231583263451E+04   -0.81770E-01   -0.85399E-01  6301   0.432E-01    0.642E-01
RMM:   3    -0.231583908235E+04   -0.64478E-02   -0.10196E-01  5873   0.164E-01    0.429E-01
RMM:   4    -0.231583829904E+04    0.78331E-03   -0.76435E-03  5289   0.344E-02    0.185E-01
RMM:   5    -0.231583795857E+04    0.34047E-03   -0.11182E-03  4854   0.188E-02    0.129E-01
RMM:   6    -0.231583792289E+04    0.35682E-04   -0.75737E-04  5237   0.149E-02    0.123E-01
RMM:   7    -0.231583778671E+04    0.13618E-03   -0.27300E-04  3594   0.111E-02    0.381E-02
RMM:   8    -0.231583777882E+04    0.78943E-05   -0.54004E-05  2953   0.552E-03
  21 F= -.23367202E+04 E0= -.23367202E+04  d E =-.132203E-01  mag=     6.0000
       N       E                     dE             d eps       ncg     rms          rms(c)
DAV:   1    -0.231576146165E+04    0.76325E-01   -0.39443E+00  4484   0.172E+00    0.656E-01
RMM:   2    -0.231583623235E+04   -0.74771E-01   -0.78287E-01  6292   0.413E-01    0.583E-01
RMM:   3    -0.231584183603E+04   -0.56037E-02   -0.87508E-02  5857   0.153E-01    0.396E-01
RMM:   4    -0.231584117539E+04    0.66064E-03   -0.67913E-03  5295   0.326E-02    0.176E-01
RMM:   5    -0.231584084622E+04    0.32917E-03   -0.99702E-04  4756   0.179E-02    0.119E-01
RMM:   6    -0.231584084230E+04    0.39226E-05   -0.67727E-04  5094   0.142E-02    0.124E-01
RMM:   7    -0.231584070200E+04    0.14031E-03   -0.26522E-04  3521   0.109E-02    0.379E-02
RMM:   8    -0.231584069299E+04    0.90009E-05   -0.55438E-05  2962   0.552E-03
  22 F= -.23367233E+04 E0= -.23367233E+04  d E =-.163327E-01  mag=     6.0000
       N       E                     dE             d eps       ncg     rms          rms(c)
DAV:   1    -0.231576482532E+04    0.75877E-01   -0.52061E+00  4472   0.208E+00    0.732E-01
RMM:   2    -0.231584829057E+04   -0.83465E-01   -0.86696E-01  6213   0.476E-01    0.685E-01
RMM:   3    -0.231585354204E+04   -0.52515E-02   -0.90222E-02  5847   0.169E-01    0.468E-01
RMM:   4    -0.231585229634E+04    0.12457E-02   -0.76555E-03  5405   0.381E-02    0.191E-01
RMM:   5    -0.231585200500E+04    0.29134E-03   -0.13601E-03  5072   0.224E-02    0.140E-01
RMM:   6    -0.231585188226E+04    0.12274E-03   -0.84662E-04  5307   0.169E-02    0.114E-01
RMM:   7    -0.231585176212E+04    0.12014E-03   -0.24412E-04  3752   0.118E-02    0.275E-02
RMM:   8    -0.231585175679E+04    0.53351E-05   -0.43654E-05  2975   0.522E-03
  23 F= -.23367338E+04 E0= -.23367338E+04  d E =-.105057E-01  mag=     6.0000
       N       E                     dE             d eps       ncg     rms          rms(c)
DAV:   1    -0.231583555308E+04    0.16209E-01   -0.10436E+00  4560   0.936E-01    0.327E-01
RMM:   2    -0.231585225648E+04   -0.16703E-01   -0.17341E-01  6240   0.215E-01    0.303E-01
RMM:   3    -0.231585321004E+04   -0.95356E-03   -0.17110E-02  5711   0.744E-02    0.204E-01
RMM:   4    -0.231585299546E+04    0.21458E-03   -0.15499E-03  4378   0.169E-02    0.885E-02
RMM:   5    -0.231585294670E+04    0.48764E-04   -0.26852E-04  3511   0.106E-02    0.719E-02
RMM:   6    -0.231585289148E+04    0.55213E-04   -0.19685E-04  4254   0.942E-03    0.440E-02
RMM:   7    -0.231585287684E+04    0.14640E-04   -0.43512E-05  2941   0.644E-03    0.115E-02
RMM:   8    -0.231585287604E+04    0.80140E-06   -0.97581E-06  2883   0.362E-03
  24 F= -.23367346E+04 E0= -.23367346E+04  d E =-.113456E-01  mag=     6.0000
       N       E                     dE             d eps       ncg     rms          rms(c)
DAV:   1    -0.231578708486E+04    0.65792E-01   -0.44685E+00  4472   0.191E+00    0.674E-01
RMM:   2    -0.231585631034E+04   -0.69225E-01   -0.72080E-01  6193   0.432E-01    0.557E-01
RMM:   3    -0.231586240289E+04   -0.60926E-02   -0.81853E-02  5806   0.160E-01    0.465E-01
RMM:   4    -0.231586107629E+04    0.13266E-02   -0.68960E-03  5437   0.349E-02    0.201E-01
RMM:   5    -0.231586072545E+04    0.35083E-03   -0.13523E-03  5099   0.205E-02    0.130E-01
RMM:   6    -0.231586060333E+04    0.12212E-03   -0.91623E-04  5248   0.171E-02    0.102E-01
RMM:   7    -0.231586048708E+04    0.11625E-03   -0.22821E-04  3702   0.112E-02    0.257E-02
RMM:   8    -0.231586047981E+04    0.72740E-05   -0.39535E-05  2934   0.499E-03
  25 F= -.23367416E+04 E0= -.23367416E+04  d E =-.695850E-02  mag=     6.0000
       N       E                     dE             d eps       ncg     rms          rms(c)
DAV:   1    -0.231585966590E+04    0.82118E-03   -0.51547E-02  4888   0.204E-01    0.724E-02
RMM:   2    -0.231586047102E+04   -0.80513E-03   -0.82924E-03  6208   0.475E-02    0.675E-02
RMM:   3    -0.231586053134E+04   -0.60320E-04   -0.94279E-04  3180   0.167E-02    0.500E-02
RMM:   4    -0.231586051684E+04    0.14505E-04   -0.80553E-05  2937   0.480E-03    0.216E-02
RMM:   5    -0.231586051302E+04    0.38198E-05   -0.15979E-05  2884   0.277E-03
  26 F= -.23367417E+04 E0= -.23367417E+04  d E =-.706351E-02  mag=     6.0000
       N       E                     dE             d eps       ncg     rms          rms(c)
DAV:   1    -0.231585027471E+04    0.10242E-01   -0.95253E-01  4496   0.931E-01    0.316E-01
RMM:   2    -0.231586256310E+04   -0.12288E-01   -0.13006E-01  5974   0.201E-01    0.242E-01
RMM:   3    -0.231586335076E+04   -0.78766E-03   -0.14059E-02  5572   0.772E-02    0.193E-01
RMM:   4    -0.231586317224E+04    0.17852E-03   -0.13109E-03  4524   0.170E-02    0.987E-02
RMM:   5    -0.231586310500E+04    0.67238E-04   -0.29251E-04  3692   0.114E-02    0.791E-02
RMM:   6    -0.231586302283E+04    0.82168E-04   -0.22859E-04  4430   0.106E-02    0.370E-02
RMM:   7    -0.231586301184E+04    0.10997E-04   -0.44346E-05  2982   0.712E-03    0.151E-02
RMM:   8    -0.231586301026E+04    0.15747E-05   -0.96312E-06  2886   0.379E-03
  27 F= -.23367437E+04 E0= -.23367437E+04  d E =-.197958E-02  mag=     6.0000
       N       E                     dE             d eps       ncg     rms          rms(c)
DAV:   1    -0.231586265593E+04    0.35591E-03   -0.27015E-02  4704   0.157E-01    0.534E-02
RMM:   2    -0.231586300279E+04   -0.34686E-03   -0.36740E-03  6060   0.348E-02    0.434E-02
RMM:   3    -0.231586302258E+04   -0.19796E-04   -0.39292E-04  3014   0.129E-02    0.328E-02
RMM:   4    -0.231586301780E+04    0.47781E-05   -0.37583E-05  2917   0.388E-03
  28 F= -.23367438E+04 E0= -.23367438E+04  d E =-.207407E-02  mag=     6.0000
       N       E                     dE             d eps       ncg     rms          rms(c)
DAV:   1    -0.231585977369E+04    0.32489E-02   -0.58162E-01  4496   0.754E-01    0.204E-01
RMM:   2    -0.231586470150E+04   -0.49278E-02   -0.52024E-02  5939   0.142E-01    0.119E-01
RMM:   3    -0.231586495077E+04   -0.24927E-03   -0.45229E-03  5201   0.478E-02    0.981E-02
RMM:   4    -0.231586490397E+04    0.46796E-04   -0.43139E-04  3514   0.110E-02    0.603E-02
RMM:   5    -0.231586488858E+04    0.15394E-04   -0.11304E-04  3098   0.780E-03    0.543E-02
RMM:   6    -0.231586485434E+04    0.34243E-04   -0.86530E-05  3515   0.742E-03    0.200E-02
RMM:   7    -0.231586485283E+04    0.15016E-05   -0.14643E-05  2902   0.526E-03
  29 F= -.23367456E+04 E0= -.23367456E+04  d E =-.179793E-02  mag=     6.0000
       N       E                     dE             d eps       ncg     rms          rms(c)
DAV:   1    -0.231586130861E+04    0.35457E-02   -0.44764E-01  4496   0.662E-01    0.179E-01
RMM:   2    -0.231586512453E+04   -0.38159E-02   -0.40134E-02  5943   0.125E-01    0.113E-01
RMM:   3    -0.231586533938E+04   -0.21485E-03   -0.35158E-03  5074   0.445E-02    0.108E-01
RMM:   4    -0.231586527867E+04    0.60706E-04   -0.35048E-04  3292   0.101E-02    0.572E-02
RMM:   5    -0.231586525805E+04    0.20627E-04   -0.93841E-05  3068   0.724E-03    0.422E-02
RMM:   6    -0.231586523516E+04    0.22886E-04   -0.78457E-05  3393   0.728E-03    0.161E-02
RMM:   7    -0.231586523387E+04    0.12968E-05   -0.13101E-05  2903   0.511E-03
  30 F= -.23367459E+04 E0= -.23367459E+04  d E =-.215008E-02  mag=     6.0000
       N       E                     dE             d eps       ncg     rms          rms(c)
DAV:   1    -0.231586454118E+04    0.69399E-03   -0.21208E-01  4496   0.451E-01    0.116E-01
RMM:   2    -0.231586631101E+04   -0.17698E-02   -0.18563E-02  6044   0.834E-02    0.819E-02
RMM:   3    -0.231586638713E+04   -0.76126E-04   -0.15722E-03  4156   0.288E-02    0.677E-02
RMM:   4    -0.231586636726E+04    0.19874E-04   -0.16126E-04  3020   0.735E-03    0.378E-02
RMM:   5    -0.231586635992E+04    0.73389E-05   -0.37039E-05  2911   0.468E-03
  31 F= -.23367470E+04 E0= -.23367470E+04  d E =-.106568E-02  mag=     6.0000
       N       E                     dE             d eps       ncg     rms          rms(c)
DAV:   1    -0.231585522929E+04    0.11138E-01   -0.14578E+00  4472   0.118E+00    0.301E-01
RMM:   2    -0.231586727623E+04   -0.12047E-01   -0.12683E-01  5965   0.216E-01    0.208E-01
RMM:   3    -0.231586779359E+04   -0.51736E-03   -0.10854E-02  5434   0.747E-02    0.163E-01
RMM:   4    -0.231586766771E+04    0.12588E-03   -0.10662E-03  4517   0.167E-02    0.919E-02
RMM:   5    -0.231586764272E+04    0.24994E-04   -0.27125E-04  3660   0.112E-02    0.943E-02
RMM:   6    -0.231586753991E+04    0.10280E-03   -0.23246E-04  4308   0.105E-02    0.309E-02
RMM:   7    -0.231586753613E+04    0.37877E-05   -0.31457E-05  2986   0.696E-03
  32 F= -.23367480E+04 E0= -.23367480E+04  d E =-.208730E-02  mag=     6.0000
       N       E                     dE             d eps       ncg     rms          rms(c)
DAV:   1    -0.231586779522E+04   -0.25530E-03   -0.48806E-02  4928   0.227E-01    0.719E-02
RMM:   2    -0.231586813958E+04   -0.34436E-03   -0.37667E-03  5876   0.439E-02    0.359E-02
RMM:   3    -0.231586815578E+04   -0.16202E-04   -0.35000E-04  3538   0.171E-02    0.277E-02
RMM:   4    -0.231586815388E+04    0.18992E-05   -0.40239E-05  2907   0.492E-03
  33 F= -.23367487E+04 E0= -.23367487E+04  d E =-.668806E-03  mag=     6.0000
       N       E                     dE             d eps       ncg     rms          rms(c)
DAV:   1    -0.231586776121E+04    0.39458E-03   -0.91897E-02  4480   0.312E-01    0.100E-01
RMM:   2    -0.231586840750E+04   -0.64629E-03   -0.69821E-03  5846   0.582E-02    0.680E-02
RMM:   3    -0.231586846649E+04   -0.58993E-04   -0.76834E-04  3975   0.227E-02    0.834E-02
RMM:   4    -0.231586841735E+04    0.49139E-04   -0.89107E-05  2940   0.672E-03    0.299E-02
RMM:   5    -0.231586840833E+04    0.90194E-05   -0.40425E-05  3041   0.577E-03
  34 F= -.23367490E+04 E0= -.23367490E+04  d E =-.993033E-03  mag=     6.0000
       N       E                     dE             d eps       ncg     rms          rms(c)
DAV:   1    -0.231586836914E+04    0.48213E-04   -0.69114E-02  4528   0.265E-01    0.771E-02
RMM:   2    -0.231586891208E+04   -0.54294E-03   -0.57723E-03  6130   0.511E-02    0.457E-02
RMM:   3    -0.231586894151E+04   -0.29431E-04   -0.51285E-04  3493   0.175E-02    0.398E-02
RMM:   4    -0.231586893017E+04    0.11332E-04   -0.59795E-05  2933   0.560E-03    0.262E-02
RMM:   5    -0.231586892691E+04    0.32638E-05   -0.19412E-05  2879   0.343E-03
  35 F= -.23367496E+04 E0= -.23367496E+04  d E =-.589456E-03  mag=     6.0000
       N       E                     dE             d eps       ncg     rms          rms(c)
DAV:   1    -0.231586668320E+04    0.22470E-02   -0.31596E-01  4484   0.566E-01    0.162E-01
RMM:   2    -0.231586912265E+04   -0.24395E-02   -0.26028E-02  5934   0.105E-01    0.891E-02
RMM:   3    -0.231586927005E+04   -0.14740E-03   -0.22321E-03  4858   0.374E-02    0.792E-02
RMM:   4    -0.231586923803E+04    0.32028E-04   -0.26140E-04  3179   0.921E-03    0.569E-02
RMM:   5    -0.231586921552E+04    0.22506E-04   -0.77348E-05  2988   0.689E-03    0.367E-02
RMM:   6    -0.231586920357E+04    0.11947E-04   -0.52214E-05  3083   0.664E-03    0.171E-02
RMM:   7    -0.231586920196E+04    0.16089E-05   -0.13268E-05  2876   0.511E-03
  36 F= -.23367500E+04 E0= -.23367500E+04  d E =-.101605E-02  mag=     6.0000
       N       E                     dE             d eps       ncg     rms          rms(c)
DAV:   1    -0.231586901891E+04    0.18466E-03   -0.44094E-02  4592   0.207E-01    0.551E-02
RMM:   2    -0.231586946874E+04   -0.44983E-03   -0.46895E-03  6002   0.399E-02    0.378E-02
RMM:   3    -0.231586950220E+04   -0.33455E-04   -0.43656E-04  3121   0.146E-02    0.342E-02
RMM:   4    -0.231586949534E+04    0.68539E-05   -0.46435E-05  2915   0.425E-03
  37 F= -.23367504E+04 E0= -.23367504E+04  d E =-.393594E-03  mag=     6.0000
       N       E                     dE             d eps       ncg     rms          rms(c)
DAV:   1    -0.231586576455E+04    0.37376E-02   -0.39776E-01  4496   0.620E-01    0.162E-01
RMM:   2    -0.231586978525E+04   -0.40207E-02   -0.41754E-02  6012   0.118E-01    0.117E-01
RMM:   3    -0.231587009994E+04   -0.31469E-03   -0.40425E-03  4784   0.403E-02    0.108E-01
RMM:   4    -0.231587003170E+04    0.68243E-04   -0.41291E-04  3161   0.967E-03    0.595E-02
RMM:   5    -0.231587000324E+04    0.28459E-04   -0.73398E-05  2995   0.624E-03    0.368E-02
RMM:   6    -0.231586998874E+04    0.14503E-04   -0.77728E-05  3242   0.709E-03    0.198E-02
RMM:   7    -0.231586998501E+04    0.37260E-05   -0.16457E-05  2899   0.511E-03
  38 F= -.23367512E+04 E0= -.23367512E+04  d E =-.118418E-02  mag=     6.0000
       N       E                     dE             d eps       ncg     rms          rms(c)
DAV:   1    -0.231585237878E+04    0.17610E-01   -0.15936E+00  4472   0.124E+00    0.328E-01
RMM:   2    -0.231586848431E+04   -0.16106E-01   -0.16767E-01  5947   0.238E-01    0.227E-01
RMM:   3    -0.231586973456E+04   -0.12502E-02   -0.15885E-02  5509   0.854E-02    0.206E-01
RMM:   4    -0.231586949965E+04    0.23490E-03   -0.16476E-03  4612   0.182E-02    0.116E-01
RMM:   5    -0.231586940493E+04    0.94723E-04   -0.25605E-04  3557   0.104E-02    0.731E-02
RMM:   6    -0.231586933906E+04    0.65867E-04   -0.25625E-04  4371   0.113E-02    0.374E-02
RMM:   7    -0.231586932720E+04    0.11866E-04   -0.52097E-05  3068   0.772E-03    0.147E-02
RMM:   8    -0.231586932605E+04    0.11532E-05   -0.10126E-05  2882   0.391E-03
  39 F= -.23367511E+04 E0= -.23367511E+04  d E =-.112874E-02  mag=     6.0000
       N       E                     dE             d eps       ncg     rms          rms(c)
DAV:   1    -0.231586635771E+04    0.29695E-02   -0.33328E-01  4472   0.568E-01    0.150E-01
RMM:   2    -0.231586974001E+04   -0.33823E-02   -0.35152E-02  6117   0.110E-01    0.109E-01
RMM:   3    -0.231586999052E+04   -0.25051E-03   -0.33616E-03  4665   0.372E-02    0.956E-02
RMM:   4    -0.231586993843E+04    0.52089E-04   -0.33947E-04  3083   0.916E-03    0.523E-02
RMM:   5    -0.231586991921E+04    0.19221E-04   -0.61904E-05  2932   0.560E-03    0.346E-02
RMM:   6    -0.231586990515E+04    0.14058E-04   -0.55437E-05  3070   0.594E-03    0.170E-02
RMM:   7    -0.231586990355E+04    0.15990E-05   -0.14276E-05  2901   0.465E-03
  40 F= -.23367514E+04 E0= -.23367514E+04  d E =-.143011E-02  mag=     6.0000
       N       E                     dE             d eps       ncg     rms          rms(c)
DAV:   1    -0.231586752320E+04    0.23820E-02   -0.21011E-01  4496   0.450E-01    0.133E-01
RMM:   2    -0.231587016215E+04   -0.26390E-02   -0.27341E-02  5981   0.920E-02    0.985E-02
RMM:   3    -0.231587038544E+04   -0.22329E-03   -0.26986E-03  4335   0.316E-02    0.923E-02
RMM:   4    -0.231587033517E+04    0.50267E-04   -0.27133E-04  3004   0.804E-03    0.401E-02
RMM:   5    -0.231587032036E+04    0.14815E-04   -0.42504E-05  2917   0.482E-03    0.250E-02
RMM:   6    -0.231587031406E+04    0.62994E-05   -0.35922E-05  2957   0.504E-03
  41 F= -.23367522E+04 E0= -.23367522E+04  d E =-.800188E-03  mag=     6.0000
       N       E                     dE             d eps       ncg     rms          rms(c)
DAV:   1    -0.231585561682E+04    0.14704E-01   -0.10558E+00  4472   0.101E+00    0.299E-01
RMM:   2    -0.231586889338E+04   -0.13277E-01   -0.13815E-01  5943   0.205E-01    0.206E-01
RMM:   3    -0.231587007993E+04   -0.11865E-02   -0.13701E-02  5546   0.748E-02    0.201E-01
RMM:   4    -0.231586985480E+04    0.22513E-03   -0.13753E-03  4230   0.163E-02    0.931E-02
RMM:   5    -0.231586978356E+04    0.71247E-04   -0.19608E-04  3426   0.946E-03    0.558E-02
RMM:   6    -0.231586975618E+04    0.27382E-04   -0.17609E-04  4146   0.987E-03    0.357E-02
RMM:   7    -0.231586974390E+04    0.12271E-04   -0.39363E-05  2950   0.667E-03    0.154E-02
RMM:   8    -0.231586974225E+04    0.16514E-05   -0.88615E-06  2877   0.366E-03
  42 F= -.23367525E+04 E0= -.23367525E+04  d E =-.110315E-02  mag=     6.0000
       N       E                     dE             d eps       ncg     rms          rms(c)
DAV:   1    -0.231586885748E+04    0.88643E-03   -0.95353E-02  4512   0.302E-01    0.899E-02
RMM:   2    -0.231587006012E+04   -0.12026E-02   -0.12432E-02  6179   0.625E-02    0.694E-02
RMM:   3    -0.231587015976E+04   -0.99645E-04   -0.12232E-03  3550   0.218E-02    0.638E-02
RMM:   4    -0.231587013518E+04    0.24584E-04   -0.12366E-04  2941   0.630E-03    0.272E-02
RMM:   5    -0.231587012939E+04    0.57907E-05   -0.22313E-05  2892   0.357E-03
  43 F= -.23367527E+04 E0= -.23367527E+04  d E =-.122803E-02  mag=     6.0000
       N       E                     dE             d eps       ncg     rms          rms(c)
DAV:   1    -0.231586701353E+04    0.31217E-02   -0.25599E-01  4480   0.474E-01    0.146E-01
RMM:   2    -0.231587037088E+04   -0.33574E-02   -0.34522E-02  6114   0.970E-02    0.118E-01
RMM:   3    -0.231587066631E+04   -0.29543E-03   -0.35265E-03  4371   0.347E-02    0.104E-01
RMM:   4    -0.231587060250E+04    0.63807E-04   -0.33743E-04  3023   0.843E-03    0.417E-02
RMM:   5    -0.231587058577E+04    0.16732E-04   -0.44489E-05  2917   0.476E-03    0.258E-02
RMM:   6    -0.231587057926E+04    0.65121E-05   -0.38869E-05  2962   0.500E-03
  44 F= -.23367535E+04 E0= -.23367535E+04  d E =-.852081E-03  mag=     6.0000
       N       E                     dE             d eps       ncg     rms          rms(c)
DAV:   1    -0.231583792743E+04    0.32658E-01   -0.22875E+00  4456   0.142E+00    0.429E-01
RMM:   2    -0.231586790042E+04   -0.29973E-01   -0.30909E-01  5958   0.287E-01    0.326E-01
RMM:   3    -0.231587056415E+04   -0.26637E-02   -0.30987E-02  5600   0.106E-01    0.300E-01
RMM:   4    -0.231587005320E+04    0.51095E-03   -0.30446E-03  5176   0.228E-02    0.134E-01
RMM:   5    -0.231586991403E+04    0.13917E-03   -0.38432E-04  3940   0.119E-02    0.838E-02
RMM:   6    -0.231586984905E+04    0.64983E-04   -0.34924E-04  4570   0.123E-02    0.554E-02
RMM:   7    -0.231586981818E+04    0.30869E-04   -0.89415E-05  3134   0.855E-03    0.211E-02
RMM:   8    -0.231586981554E+04    0.26419E-05   -0.16868E-05  2926   0.454E-03
  45 F= -.23367540E+04 E0= -.23367540E+04  d E =-.128890E-02  mag=     6.0000
       N       E                     dE             d eps       ncg     rms          rms(c)
DAV:   1    -0.231586759201E+04    0.22262E-02   -0.20054E-01  4468   0.421E-01    0.128E-01
RMM:   2    -0.231587023131E+04   -0.26393E-02   -0.27023E-02  6191   0.869E-02    0.111E-01
RMM:   3    -0.231587044117E+04   -0.20986E-03   -0.27229E-03  4141   0.306E-02    0.918E-02
RMM:   4    -0.231587039168E+04    0.49490E-04   -0.26662E-04  2995   0.800E-03    0.386E-02
RMM:   5    -0.231587037946E+04    0.12220E-04   -0.42106E-05  2905   0.452E-03    0.253E-02
RMM:   6    -0.231587037308E+04    0.63760E-05   -0.32394E-05  2950   0.453E-03
  46 F= -.23367542E+04 E0= -.23367542E+04  d E =-.149227E-02  mag=     6.0000
       N       E                     dE             d eps       ncg     rms          rms(c)
DAV:   1    -0.231586584964E+04    0.45298E-02   -0.37905E-01  4440   0.566E-01    0.176E-01
RMM:   2    -0.231587059089E+04   -0.47412E-02   -0.48430E-02  6087   0.111E-01    0.149E-01
RMM:   3    -0.231587098404E+04   -0.39315E-03   -0.48160E-03  5047   0.415E-02    0.129E-01
RMM:   4    -0.231587088693E+04    0.97109E-04   -0.47201E-04  3102   0.970E-03    0.471E-02
RMM:   5    -0.231587086068E+04    0.26249E-04   -0.55757E-05  2954   0.576E-03    0.274E-02
RMM:   6    -0.231587085427E+04    0.64141E-05   -0.46193E-05  3137   0.591E-03
  47 F= -.23367551E+04 E0= -.23367551E+04  d E =-.919418E-03  mag=     6.0000
       N       E                     dE             d eps       ncg     rms          rms(c)
DAV:   1    -0.231584979387E+04    0.21067E-01   -0.15442E+00  4440   0.114E+00    0.354E-01
RMM:   2    -0.231586903759E+04   -0.19244E-01   -0.19787E-01  5983   0.223E-01    0.270E-01
RMM:   3    -0.231587082117E+04   -0.17836E-02   -0.19854E-02  5639   0.801E-02    0.258E-01
RMM:   4    -0.231587042506E+04    0.39611E-03   -0.19177E-03  4386   0.182E-02    0.982E-02
RMM:   5    -0.231587032699E+04    0.98070E-04   -0.24144E-04  3712   0.981E-03    0.556E-02
RMM:   6    -0.231587029586E+04    0.31131E-04   -0.16185E-04  4117   0.996E-03    0.281E-02
RMM:   7    -0.231587029366E+04    0.21994E-05   -0.25963E-05  2912   0.705E-03
  48 F= -.23367554E+04 E0= -.23367554E+04  d E =-.124011E-02  mag=     6.0000
       N       E                     dE             d eps       ncg     rms          rms(c)
DAV:   1    -0.231586922393E+04    0.10719E-02   -0.10702E-01  4512   0.300E-01    0.917E-02
RMM:   2    -0.231587054644E+04   -0.13225E-02   -0.13593E-02  5982   0.596E-02    0.679E-02
RMM:   3    -0.231587066742E+04   -0.12098E-03   -0.14003E-03  3502   0.221E-02    0.600E-02
RMM:   4    -0.231587064817E+04    0.19246E-04   -0.13049E-04  2940   0.568E-03    0.273E-02
RMM:   5    -0.231587064028E+04    0.78949E-05   -0.16695E-05  2871   0.326E-03
  49 F= -.23367555E+04 E0= -.23367555E+04  d E =-.135602E-02  mag=     6.0000
       N       E                     dE             d eps       ncg     rms          rms(c)
DAV:   1    -0.231586578993E+04    0.48582E-02   -0.41616E-01  4440   0.551E-01    0.186E-01
RMM:   2    -0.231587085721E+04   -0.50673E-02   -0.51816E-02  5897   0.108E-01    0.146E-01
RMM:   3    -0.231587132778E+04   -0.47058E-03   -0.52065E-03  4884   0.417E-02    0.135E-01
RMM:   4    -0.231587121596E+04    0.11182E-03   -0.51503E-04  3103   0.961E-03    0.513E-02
RMM:   5    -0.231587118537E+04    0.30587E-04   -0.69595E-05  2964   0.583E-03    0.289E-02
RMM:   6    -0.231587117621E+04    0.91599E-05   -0.50597E-05  3096   0.594E-03
  50 F= -.23367564E+04 E0= -.23367564E+04  d E =-.859142E-03  mag=     6.0000
       N       E                     dE             d eps       ncg     rms          rms(c)
DAV:   1    -0.231586570984E+04    0.54755E-02   -0.40689E-01  4440   0.546E-01    0.183E-01
RMM:   2    -0.231587063485E+04   -0.49250E-02   -0.50880E-02  5976   0.108E-01    0.119E-01
RMM:   3    -0.231587111660E+04   -0.48175E-03   -0.50977E-03  5052   0.407E-02    0.112E-01
RMM:   4    -0.231587105440E+04    0.62198E-04   -0.49697E-04  3044   0.913E-03    0.564E-02
RMM:   5    -0.231587102504E+04    0.29356E-04   -0.69023E-05  2963   0.570E-03    0.315E-02
RMM:   6    -0.231587102133E+04    0.37072E-05   -0.60307E-05  3049   0.606E-03
  51 F= -.23367565E+04 E0= -.23367565E+04  d E =-.102417E-02  mag=     6.0000
       N       E                     dE             d eps       ncg     rms          rms(c)
DAV:   1    -0.231586373882E+04    0.72862E-02   -0.55847E-01  4440   0.625E-01    0.210E-01
RMM:   2    -0.231587073969E+04   -0.70009E-02   -0.72620E-02  6208   0.123E-01    0.122E-01
RMM:   3    -0.231587142451E+04   -0.68483E-03   -0.72895E-03  5066   0.449E-02    0.878E-02
RMM:   4    -0.231587142537E+04   -0.85559E-06   -0.69203E-04  3087   0.991E-03    0.723E-02
RMM:   5    -0.231587138578E+04    0.39585E-04   -0.89048E-05  2959   0.607E-03    0.419E-02
RMM:   6    -0.231587137521E+04    0.10575E-04   -0.84095E-05  3107   0.656E-03    0.274E-02
RMM:   7    -0.231587137001E+04    0.51959E-05   -0.17518E-05  2900   0.496E-03
  52 F= -.23367574E+04 E0= -.23367574E+04  d E =-.824165E-03  mag=     6.0000
       N       E                     dE             d eps       ncg     rms          rms(c)
DAV:   1    -0.231586360236E+04    0.77729E-02   -0.54910E-01  4440   0.619E-01    0.208E-01
RMM:   2    -0.231587050837E+04   -0.69060E-02   -0.71491E-02  6064   0.123E-01    0.129E-01
RMM:   3    -0.231587120262E+04   -0.69425E-03   -0.73134E-03  5048   0.460E-02    0.107E-01
RMM:   4    -0.231587116959E+04    0.33028E-04   -0.69335E-04  3088   0.999E-03    0.677E-02
RMM:   5    -0.231587113386E+04    0.35736E-04   -0.83026E-05  2969   0.607E-03    0.408E-02
RMM:   6    -0.231587112905E+04    0.48070E-05   -0.84525E-05  3092   0.640E-03
  53 F= -.23367576E+04 E0= -.23367576E+04  d E =-.105282E-02  mag=     6.0000
       N       E                     dE             d eps       ncg     rms          rms(c)
DAV:   1    -0.231586070511E+04    0.10429E-01   -0.82733E-01  4472   0.783E-01    0.263E-01
RMM:   2    -0.231587077923E+04   -0.10074E-01   -0.10528E-01  5977   0.157E-01    0.138E-01
RMM:   3    -0.231587161005E+04   -0.83082E-03   -0.96469E-03  5306   0.572E-02    0.854E-02
RMM:   4    -0.231587164425E+04   -0.34203E-04   -0.10162E-03  3573   0.126E-02    0.965E-02
RMM:   5    -0.231587157574E+04    0.68511E-04   -0.14848E-04  3048   0.791E-03    0.489E-02
RMM:   6    -0.231587155460E+04    0.21145E-04   -0.10344E-04  3728   0.723E-03    0.193E-02
RMM:   7    -0.231587155428E+04    0.32017E-06   -0.19250E-05  2902   0.552E-03
  54 F= -.23367586E+04 E0= -.23367586E+04  d E =-.993853E-03  mag=     6.0000
       N       E                     dE             d eps       ncg     rms          rms(c)
DAV:   1    -0.231587021684E+04    0.13378E-02   -0.90949E-02  4608   0.259E-01    0.879E-02
RMM:   2    -0.231587133104E+04   -0.11142E-02   -0.11640E-02  5987   0.525E-02    0.477E-02
RMM:   3    -0.231587142652E+04   -0.95482E-04   -0.10829E-03  3244   0.206E-02    0.344E-02
RMM:   4    -0.231587142787E+04   -0.13493E-05   -0.11627E-04  2975   0.509E-03    0.317E-02
RMM:   5    -0.231587141965E+04    0.82282E-05   -0.18262E-05  2857   0.301E-03
  55 F= -.23367586E+04 E0= -.23367586E+04  d E =-.104754E-02  mag=     6.0000
       N       E                     dE             d eps       ncg     rms          rms(c)
DAV:   1    -0.231586006207E+04    0.11366E-01   -0.77571E-01  4456   0.736E-01    0.252E-01
RMM:   2    -0.231587085504E+04   -0.10793E-01   -0.11240E-01  6058   0.158E-01    0.146E-01
RMM:   3    -0.231587186423E+04   -0.10092E-02   -0.11328E-02  5376   0.604E-02    0.109E-01
RMM:   4    -0.231587186899E+04   -0.47595E-05   -0.10512E-03  3191   0.118E-02    0.922E-02
RMM:   5    -0.231587180337E+04    0.65621E-04   -0.12971E-04  2990   0.707E-03    0.489E-02
RMM:   6    -0.231587177966E+04    0.23717E-04   -0.12213E-04  3509   0.742E-03    0.244E-02
RMM:   7    -0.231587177830E+04    0.13588E-05   -0.22505E-05  2925   0.551E-03
  56 F= -.23367597E+04 E0= -.23367597E+04  d E =-.107049E-02  mag=     6.0000
       N       E                     dE             d eps       ncg     rms          rms(c)
DAV:   1    -0.231586520230E+04    0.65774E-02   -0.41158E-01  4456   0.535E-01    0.185E-01
RMM:   2    -0.231587095035E+04   -0.57480E-02   -0.59888E-02  6094   0.115E-01    0.110E-01
RMM:   3    -0.231587149105E+04   -0.54070E-03   -0.60527E-03  4699   0.470E-02    0.906E-02
RMM:   4    -0.231587147663E+04    0.14426E-04   -0.56654E-04  3110   0.928E-03    0.649E-02
RMM:   5    -0.231587144191E+04    0.34714E-04   -0.70122E-05  2936   0.550E-03    0.341E-02
RMM:   6    -0.231587143177E+04    0.10139E-04   -0.62075E-05  3098   0.562E-03    0.198E-02
RMM:   7    -0.231587142997E+04    0.18033E-05   -0.15340E-05  2899   0.453E-03
  57 F= -.23367599E+04 E0= -.23367599E+04  d E =-.124267E-02  mag=     6.0000
       N       E                     dE             d eps       ncg     rms          rms(c)
DAV:   1    -0.231586445486E+04    0.69769E-02   -0.50007E-01  4472   0.570E-01    0.196E-01
RMM:   2    -0.231587120402E+04   -0.67492E-02   -0.70219E-02  6213   0.122E-01    0.120E-01
RMM:   3    -0.231587183996E+04   -0.63594E-03   -0.69101E-03  4742   0.475E-02    0.102E-01
RMM:   4    -0.231587181702E+04    0.22942E-04   -0.67565E-04  3126   0.971E-03    0.691E-02
RMM:   5    -0.231587177630E+04    0.40719E-04   -0.84224E-05  2967   0.583E-03    0.344E-02
RMM:   6    -0.231587176810E+04    0.81999E-05   -0.67529E-05  3104   0.575E-03
  58 F= -.23367608E+04 E0= -.23367608E+04  d E =-.893847E-03  mag=     6.0000
       N       E                     dE             d eps       ncg     rms          rms(c)
DAV:   1    -0.231585316370E+04    0.18613E-01   -0.12424E+00  4472   0.898E-01    0.309E-01
RMM:   2    -0.231586989529E+04   -0.16732E-01   -0.17433E-01  5989   0.191E-01    0.180E-01
RMM:   3    -0.231587145587E+04   -0.15606E-02   -0.17314E-02  5340   0.729E-02    0.136E-01
RMM:   4    -0.231587146761E+04   -0.11737E-04   -0.16593E-03  3494   0.141E-02    0.116E-01
RMM:   5    -0.231587136426E+04    0.10335E-03   -0.19337E-04  3124   0.824E-03    0.559E-02
RMM:   6    -0.231587134653E+04    0.17732E-04   -0.16344E-04  3707   0.817E-03    0.343E-02
RMM:   7    -0.231587133560E+04    0.10929E-04   -0.43173E-05  2941   0.627E-03    0.162E-02
RMM:   8    -0.231587133301E+04    0.25877E-05   -0.62445E-06  2852   0.258E-03
  59 F= -.23367612E+04 E0= -.23367612E+04  d E =-.133773E-02  mag=     6.0000
       N       E                     dE             d eps       ncg     rms          rms(c)
DAV:   1    -0.231586434729E+04    0.69883E-02   -0.55275E-01  4472   0.596E-01    0.203E-01
RMM:   2    -0.231587131224E+04   -0.69650E-02   -0.72247E-02  6164   0.124E-01    0.129E-01
RMM:   3    -0.231587198381E+04   -0.67156E-03   -0.71235E-03  4957   0.479E-02    0.113E-01
RMM:   4    -0.231587194468E+04    0.39128E-04   -0.73079E-04  3102   0.101E-02    0.678E-02
RMM:   5    -0.231587190540E+04    0.39283E-04   -0.90318E-05  3003   0.611E-03    0.357E-02
RMM:   6    -0.231587190144E+04    0.39584E-05   -0.71660E-05  3077   0.617E-03
  60 F= -.23367623E+04 E0= -.23367623E+04  d E =-.104121E-02  mag=     6.0000
       N       E                     dE             d eps       ncg     rms          rms(c)
DAV:   1    -0.231580851804E+04    0.63387E-01   -0.45651E+00  4472   0.171E+00    0.579E-01
RMM:   2    -0.231586589088E+04   -0.57373E-01   -0.59683E-01  6041   0.358E-01    0.336E-01
RMM:   3    -0.231587151464E+04   -0.56238E-02   -0.61206E-02  5683   0.131E-01    0.265E-01
RMM:   4    -0.231587151985E+04   -0.52107E-05   -0.59435E-03  5142   0.266E-02    0.220E-01
RMM:   5    -0.231587114723E+04    0.37262E-03   -0.70337E-04  4105   0.142E-02    0.105E-01
RMM:   6    -0.231587104992E+04    0.97310E-04   -0.56134E-04  4607   0.146E-02    0.450E-02
RMM:   7    -0.231587104274E+04    0.71842E-05   -0.82896E-05  3109   0.883E-03
  61 F= -.23367628E+04 E0= -.23367628E+04  d E =-.153395E-02  mag=     6.0000
       N       E                     dE             d eps       ncg     rms          rms(c)
DAV:   1    -0.231586722005E+04    0.38299E-02   -0.32326E-01  4496   0.457E-01    0.153E-01
RMM:   2    -0.231587127197E+04   -0.40519E-02   -0.41899E-02  6130   0.957E-02    0.105E-01
RMM:   3    -0.231587167517E+04   -0.40320E-03   -0.44609E-03  4254   0.354E-02    0.883E-02
RMM:   4    -0.231587164982E+04    0.25345E-04   -0.42305E-04  3023   0.814E-03    0.514E-02
RMM:   5    -0.231587162568E+04    0.24139E-04   -0.59993E-05  2935   0.488E-03    0.302E-02
RMM:   6    -0.231587161552E+04    0.10164E-04   -0.40612E-05  2994   0.451E-03    0.190E-02
RMM:   7    -0.231587161439E+04    0.11288E-05   -0.10464E-05  2875   0.381E-03
  62 F= -.23367630E+04 E0= -.23367630E+04  d E =-.174765E-02  mag=     6.0000
       N       E                     dE             d eps       ncg     rms          rms(c)
DAV:   1    -0.231586335029E+04    0.82652E-02   -0.65529E-01  4472   0.635E-01    0.216E-01
RMM:   2    -0.231587138353E+04   -0.80332E-02   -0.83148E-02  6047   0.130E-01    0.138E-01
RMM:   3    -0.231587215783E+04   -0.77431E-03   -0.83568E-03  5008   0.511E-02    0.110E-01
RMM:   4    -0.231587213243E+04    0.25400E-04   -0.84153E-04  3135   0.104E-02    0.727E-02
RMM:   5    -0.231587209777E+04    0.34667E-04   -0.10194E-04  3039   0.602E-03    0.465E-02
RMM:   6    -0.231587208322E+04    0.14549E-04   -0.87021E-05  3070   0.606E-03    0.321E-02
RMM:   7    -0.231587207405E+04    0.91702E-05   -0.25354E-05  2936   0.483E-03
  63 F= -.23367639E+04 E0= -.23367639E+04  d E =-.960332E-03  mag=     6.0000
       N       E                     dE             d eps       ncg     rms          rms(c)
DAV:   1    -0.231579215499E+04    0.79928E-01   -0.58890E+00  4472   0.190E+00    0.646E-01
RMM:   2    -0.231586463134E+04   -0.72476E-01   -0.75209E-01  6227   0.393E-01    0.391E-01
RMM:   3    -0.231587184654E+04   -0.72152E-02   -0.76759E-02  5758   0.143E-01    0.325E-01
RMM:   4    -0.231587166454E+04    0.18200E-03   -0.74647E-03  5133   0.295E-02    0.234E-01
RMM:   5    -0.231587130408E+04    0.36046E-03   -0.85613E-04  4189   0.147E-02    0.136E-01
RMM:   6    -0.231587118676E+04    0.11732E-03   -0.81114E-04  4787   0.159E-02    0.943E-02
RMM:   7    -0.231587110107E+04    0.85695E-04   -0.22818E-04  3864   0.104E-02    0.283E-02
RMM:   8    -0.231587109658E+04    0.44867E-05   -0.33394E-05  2958   0.507E-03
  64 F= -.23367644E+04 E0= -.23367644E+04  d E =-.147210E-02  mag=     6.0000
       N       E                     dE             d eps       ncg     rms          rms(c)
DAV:   1    -0.231586466720E+04    0.64339E-02   -0.53239E-01  4472   0.572E-01    0.195E-01
RMM:   2    -0.231587122410E+04   -0.65569E-02   -0.67722E-02  6271   0.119E-01    0.134E-01
RMM:   3    -0.231587184809E+04   -0.62400E-03   -0.70565E-03  4731   0.442E-02    0.108E-01
RMM:   4    -0.231587181834E+04    0.29756E-04   -0.68489E-04  3095   0.988E-03    0.650E-02
RMM:   5    -0.231587178908E+04    0.29260E-04   -0.89358E-05  3008   0.566E-03    0.435E-02
RMM:   6    -0.231587177334E+04    0.15739E-04   -0.70801E-05  3033   0.561E-03    0.272E-02
RMM:   7    -0.231587176764E+04    0.56970E-05   -0.21787E-05  2920   0.454E-03
  65 F= -.23367647E+04 E0= -.23367647E+04  d E =-.169721E-02  mag=     6.0000
       N       E                     dE             d eps       ncg     rms          rms(c)
DAV:   1    -0.231586085685E+04    0.10916E-01   -0.93759E-01  4472   0.760E-01    0.261E-01
RMM:   2    -0.231587172140E+04   -0.10865E-01   -0.11238E-01  6023   0.153E-01    0.158E-01
RMM:   3    -0.231587266726E+04   -0.94585E-03   -0.10508E-02  5311   0.553E-02    0.123E-01
RMM:   4    -0.231587263878E+04    0.28481E-04   -0.11116E-03  3208   0.121E-02    0.913E-02
RMM:   5    -0.231587257773E+04    0.61045E-04   -0.15755E-04  3132   0.754E-03    0.531E-02
RMM:   6    -0.231587255907E+04    0.18660E-04   -0.12892E-04  3221   0.771E-03    0.370E-02
RMM:   7    -0.231587254572E+04    0.13348E-04   -0.32951E-05  2958   0.576E-03    0.139E-02
RMM:   8    -0.231587254472E+04    0.99841E-06   -0.72880E-06  2869   0.312E-03
  66 F= -.23367659E+04 E0= -.23367659E+04  d E =-.126867E-02  mag=     6.0000
       N       E                     dE             d eps       ncg     rms          rms(c)
DAV:   1    -0.231585796956E+04    0.14576E-01   -0.11560E+00  4472   0.846E-01    0.291E-01
RMM:   2    -0.231587139499E+04   -0.13425E-01   -0.13891E-01  5983   0.171E-01    0.179E-01
RMM:   3    -0.231587258552E+04   -0.11905E-02   -0.13045E-02  5534   0.601E-02    0.147E-01
RMM:   4    -0.231587252969E+04    0.55825E-04   -0.13887E-03  3307   0.134E-02    0.101E-01
RMM:   5    -0.231587245674E+04    0.72954E-04   -0.19181E-04  3247   0.821E-03    0.585E-02
RMM:   6    -0.231587243658E+04    0.20159E-04   -0.16039E-04  3360   0.836E-03    0.418E-02
RMM:   7    -0.231587241872E+04    0.17854E-04   -0.40666E-05  2993   0.611E-03    0.135E-02
RMM:   8    -0.231587241811E+04    0.61964E-06   -0.81834E-06  2874   0.342E-03
  67 F= -.23367664E+04 E0= -.23367664E+04  d E =-.168591E-02  mag=     6.0000
       N       E                     dE             d eps       ncg     rms          rms(c)
DAV:   1    -0.231585869519E+04    0.13724E-01   -0.11508E+00  4472   0.843E-01    0.290E-01
RMM:   2    -0.231587209300E+04   -0.13398E-01   -0.13895E-01  6025   0.169E-01    0.176E-01
RMM:   3    -0.231587326739E+04   -0.11744E-02   -0.12726E-02  5453   0.588E-02    0.136E-01
RMM:   4    -0.231587323637E+04    0.31011E-04   -0.13782E-03  3300   0.131E-02    0.101E-01
RMM:   5    -0.231587316797E+04    0.68405E-04   -0.18367E-04  3160   0.796E-03    0.605E-02
RMM:   6    -0.231587314875E+04    0.19216E-04   -0.15883E-04  3380   0.805E-03    0.450E-02
RMM:   7    -0.231587312918E+04    0.19577E-04   -0.42369E-05  2995   0.610E-03    0.147E-02
RMM:   8    -0.231587312889E+04    0.29105E-06   -0.87954E-06  2878   0.337E-03
  68 F= -.23367676E+04 E0= -.23367676E+04  d E =-.126120E-02  mag=     6.0000
       N       E                     dE             d eps       ncg     rms          rms(c)
DAV:   1    -0.231586212579E+04    0.11003E-01   -0.86380E-01  4472   0.730E-01    0.252E-01
RMM:   2    -0.231587217849E+04   -0.10053E-01   -0.10423E-01  6024   0.146E-01    0.153E-01
RMM:   3    -0.231587305256E+04   -0.87407E-03   -0.95382E-03  5346   0.508E-02    0.120E-01
RMM:   4    -0.231587302624E+04    0.26325E-04   -0.10377E-03  3160   0.114E-02    0.869E-02
RMM:   5    -0.231587297485E+04    0.51385E-04   -0.13746E-04  3060   0.697E-03    0.522E-02
RMM:   6    -0.231587296053E+04    0.14320E-04   -0.11849E-04  3181   0.710E-03    0.389E-02
RMM:   7    -0.231587294610E+04    0.14431E-04   -0.32604E-05  2945   0.559E-03    0.133E-02
RMM:   8    -0.231587294581E+04    0.28801E-06   -0.72372E-06  2871   0.308E-03
  69 F= -.23367679E+04 E0= -.23367679E+04  d E =-.155346E-02  mag=     6.0000
       N       E                     dE             d eps       ncg     rms          rms(c)
DAV:   1    -0.231585364030E+04    0.19306E-01   -0.15465E+00  4472   0.971E-01    0.338E-01
RMM:   2    -0.231587215273E+04   -0.18512E-01   -0.19236E-01  6052   0.196E-01    0.197E-01
RMM:   3    -0.231587373084E+04   -0.15781E-02   -0.17079E-02  5521   0.679E-02    0.147E-01
RMM:   4    -0.231587373088E+04   -0.33018E-07   -0.18704E-03  3446   0.150E-02    0.124E-01
RMM:   5    -0.231587361132E+04    0.11956E-03   -0.24106E-04  3237   0.889E-03    0.625E-02
RMM:   6    -0.231587359566E+04    0.15654E-04   -0.21049E-04  3785   0.903E-03    0.484E-02
RMM:   7    -0.231587357190E+04    0.23765E-04   -0.54709E-05  2984   0.631E-03    0.160E-02
RMM:   8    -0.231587357171E+04    0.18897E-06   -0.88350E-06  2892   0.297E-03
  70 F= -.23367693E+04 E0= -.23367693E+04  d E =-.134405E-02  mag=     6.0000
       N       E                     dE             d eps       ncg     rms          rms(c)
DAV:   1    -0.231586546008E+04    0.81118E-02   -0.61111E-01  4484   0.611E-01    0.214E-01
RMM:   2    -0.231587278894E+04   -0.73289E-02   -0.76135E-02  6020   0.123E-01    0.126E-01
RMM:   3    -0.231587340864E+04   -0.61969E-03   -0.66869E-03  4803   0.418E-02    0.969E-02
RMM:   4    -0.231587340052E+04    0.81124E-05   -0.74239E-04  3086   0.983E-03    0.756E-02
RMM:   5    -0.231587335488E+04    0.45642E-04   -0.98166E-05  2984   0.595E-03    0.394E-02
RMM:   6    -0.231587334998E+04    0.49015E-05   -0.83686E-05  3111   0.610E-03
  71 F= -.23367695E+04 E0= -.23367695E+04  d E =-.157185E-02  mag=     6.0000
       N       E                     dE             d eps       ncg     rms          rms(c)
DAV:   1    -0.231585640221E+04    0.16953E-01   -0.12727E+00  4472   0.909E-01    0.315E-01
RMM:   2    -0.231587239796E+04   -0.15996E-01   -0.16720E-01  6045   0.189E-01    0.174E-01
RMM:   3    -0.231587367837E+04   -0.12804E-02   -0.14690E-02  5519   0.682E-02    0.108E-01
RMM:   4    -0.231587371846E+04   -0.40091E-04   -0.15706E-03  3732   0.146E-02    0.115E-01
RMM:   5    -0.231587362960E+04    0.88857E-04   -0.22348E-04  3138   0.896E-03    0.650E-02
RMM:   6    -0.231587359623E+04    0.33378E-04   -0.17761E-04  3992   0.877E-03    0.299E-02
RMM:   7    -0.231587359154E+04    0.46810E-05   -0.27159E-05  2925   0.594E-03
  72 F= -.23367705E+04 E0= -.23367705E+04  d E =-.986245E-03  mag=     6.0000
       N       E                     dE             d eps       ncg     rms          rms(c)
DAV:   1    -0.231587293981E+04    0.65641E-03   -0.38709E-02  4800   0.158E-01    0.564E-02
RMM:   2    -0.231587342635E+04   -0.48654E-03   -0.51110E-03  5988   0.336E-02    0.319E-02
RMM:   3    -0.231587347204E+04   -0.45690E-04   -0.51241E-04  2971   0.139E-02    0.209E-02
RMM:   4    -0.231587347275E+04   -0.70341E-06   -0.53166E-05  2962   0.355E-03
  73 F= -.23367705E+04 E0= -.23367705E+04  d E =-.996928E-03  mag=     6.0000
       N       E                     dE             d eps       ncg     rms          rms(c)
DAV:   1    -0.231586602414E+04    0.74479E-02   -0.59018E-01  4472   0.628E-01    0.214E-01
RMM:   2    -0.231587324221E+04   -0.72181E-02   -0.74871E-02  6086   0.131E-01    0.142E-01
RMM:   3    -0.231587392577E+04   -0.68356E-03   -0.73496E-03  5161   0.472E-02    0.132E-01
RMM:   4    -0.231587384371E+04    0.82057E-04   -0.74281E-04  3168   0.105E-02    0.721E-02
RMM:   5    -0.231587379675E+04    0.46965E-04   -0.11669E-04  3122   0.691E-03    0.380E-02
RMM:   6    -0.231587379381E+04    0.29394E-05   -0.90325E-05  3164   0.695E-03
  74 F= -.23367712E+04 E0= -.23367712E+04  d E =-.744855E-03  mag=     6.0000
       N       E                     dE             d eps       ncg     rms          rms(c)
DAV:   1    -0.231586871296E+04    0.50838E-02   -0.36020E-01  4472   0.490E-01    0.169E-01
RMM:   2    -0.231587310928E+04   -0.43963E-02   -0.45976E-02  6181   0.104E-01    0.956E-02
RMM:   3    -0.231587350880E+04   -0.39952E-03   -0.44442E-03  4639   0.367E-02    0.698E-02
RMM:   4    -0.231587351189E+04   -0.30872E-05   -0.44562E-04  3044   0.828E-03    0.624E-02
RMM:   5    -0.231587347960E+04    0.32290E-04   -0.70245E-05  2967   0.535E-03    0.315E-02
RMM:   6    -0.231587347128E+04    0.83157E-05   -0.45623E-05  3034   0.537E-03
  75 F= -.23367712E+04 E0= -.23367712E+04  d E =-.752431E-03  mag=     6.0000
       N       E                     dE             d eps       ncg     rms          rms(c)
DAV:   1    -0.231587121301E+04    0.22666E-02   -0.18350E-01  4496   0.341E-01    0.117E-01
RMM:   2    -0.231587345231E+04   -0.22393E-02   -0.23333E-02  6358   0.727E-02    0.721E-02
RMM:   3    -0.231587366726E+04   -0.21495E-03   -0.22906E-03  3578   0.248E-02    0.590E-02
RMM:   4    -0.231587365948E+04    0.77822E-05   -0.23268E-04  2981   0.647E-03    0.404E-02
RMM:   5    -0.231587364891E+04    0.10568E-04   -0.30935E-05  2923   0.359E-03    0.235E-02
RMM:   6    -0.231587364692E+04    0.19831E-05   -0.23750E-05  2915   0.348E-03
  76 F= -.23367717E+04 E0= -.23367717E+04  d E =-.424668E-03  mag=     6.0000
       N       E                     dE             d eps       ncg     rms          rms(c)
DAV:   1    -0.231585175201E+04    0.21897E-01   -0.16537E+00  4472   0.102E+00    0.348E-01
RMM:   2    -0.231587190669E+04   -0.20155E-01   -0.20962E-01  6224   0.214E-01    0.218E-01
RMM:   3    -0.231587383000E+04   -0.19233E-02   -0.20185E-02  5651   0.727E-02    0.187E-01
RMM:   4    -0.231587372643E+04    0.10357E-03   -0.20462E-03  3570   0.159E-02    0.120E-01
RMM:   5    -0.231587361821E+04    0.10822E-03   -0.27213E-04  3440   0.931E-03    0.667E-02
RMM:   6    -0.231587360168E+04    0.16533E-04   -0.22840E-04  3681   0.945E-03    0.529E-02
RMM:   7    -0.231587357242E+04    0.29256E-04   -0.59432E-05  3069   0.653E-03    0.159E-02
RMM:   8    -0.231587357262E+04   -0.19744E-06   -0.10520E-05  2890   0.359E-03
  77 F= -.23367723E+04 E0= -.23367723E+04  d E =-.109400E-02  mag=     6.0000
       N       E                     dE             d eps       ncg     rms          rms(c)
DAV:   1    -0.231587299730E+04    0.57512E-03   -0.97386E-02  4592   0.284E-01    0.104E-01
RMM:   2    -0.231587411387E+04   -0.11166E-02   -0.11766E-02  6006   0.605E-02    0.648E-02
RMM:   3    -0.231587421643E+04   -0.10256E-03   -0.11961E-03  3706   0.228E-02    0.659E-02
RMM:   4    -0.231587419267E+04    0.23765E-04   -0.12622E-04  2948   0.618E-03    0.300E-02
RMM:   5    -0.231587418568E+04    0.69869E-05   -0.29609E-05  2918   0.435E-03
  78 F= -.23367731E+04 E0= -.23367731E+04  d E =-.797857E-03  mag=     6.0000
       N       E                     dE             d eps       ncg     rms          rms(c)
DAV:   1    -0.231587181908E+04    0.23736E-02   -0.19872E-01  4484   0.405E-01    0.148E-01
RMM:   2    -0.231587408143E+04   -0.22624E-02   -0.23970E-02  6035   0.869E-02    0.844E-02
RMM:   3    -0.231587428585E+04   -0.20441E-03   -0.25587E-03  4733   0.356E-02    0.728E-02
RMM:   4    -0.231587425846E+04    0.27381E-04   -0.25496E-04  3045   0.833E-03    0.452E-02
RMM:   5    -0.231587424930E+04    0.91597E-05   -0.64795E-05  2980   0.602E-03
  79 F= -.23367734E+04 E0= -.23367734E+04  d E =-.112576E-02  mag=     6.0000
       N       E                     dE             d eps       ncg     rms          rms(c)
DAV:   1    -0.231587308996E+04    0.11685E-02   -0.11438E-01  4496   0.299E-01    0.102E-01
RMM:   2    -0.231587445001E+04   -0.13601E-02   -0.14302E-02  6277   0.650E-02    0.618E-02
RMM:   3    -0.231587457779E+04   -0.12777E-03   -0.16166E-03  3688   0.253E-02    0.460E-02
RMM:   4    -0.231587456792E+04    0.98689E-05   -0.14602E-04  2988   0.679E-03    0.282E-02
RMM:   5    -0.231587455887E+04    0.90446E-05   -0.29416E-05  2938   0.427E-03
  80 F= -.23367740E+04 E0= -.23367740E+04  d E =-.502653E-03  mag=     6.0000
       N       E                     dE             d eps       ncg     rms          rms(c)
DAV:   1    -0.231587255568E+04    0.20122E-02   -0.15020E-01  4484   0.342E-01    0.117E-01
RMM:   2    -0.231587433395E+04   -0.17783E-02   -0.18821E-02  6257   0.731E-02    0.592E-02
RMM:   3    -0.231587448915E+04   -0.15520E-03   -0.19465E-03  3913   0.271E-02    0.370E-02
RMM:   4    -0.231587449349E+04   -0.43372E-05   -0.19346E-04  3022   0.711E-03    0.347E-02
RMM:   5    -0.231587448712E+04    0.63684E-05   -0.32651E-05  2902   0.441E-03
  81 F= -.23367741E+04 E0= -.23367741E+04  d E =-.651626E-03  mag=     6.0000
       N       E                     dE             d eps       ncg     rms          rms(c)
DAV:   1    -0.231587366503E+04    0.82846E-03   -0.11628E-01  4484   0.327E-01    0.106E-01
RMM:   2    -0.231587471434E+04   -0.10493E-02   -0.11164E-02  6015   0.654E-02    0.638E-02
RMM:   3    -0.231587480244E+04   -0.88106E-04   -0.11916E-03  3960   0.245E-02    0.647E-02
RMM:   4    -0.231587477408E+04    0.28362E-04   -0.11714E-04  2938   0.675E-03    0.354E-02
RMM:   5    -0.231587476979E+04    0.42938E-05   -0.38972E-05  2970   0.457E-03
  82 F= -.23367746E+04 E0= -.23367746E+04  d E =-.487933E-03  mag=     6.0000
       N       E                     dE             d eps       ncg     rms          rms(c)
DAV:   1    -0.231587419309E+04    0.58099E-03   -0.52110E-02  4560   0.219E-01    0.704E-02
RMM:   2    -0.231587466093E+04   -0.46783E-03   -0.50164E-03  6138   0.449E-02    0.376E-02
RMM:   3    -0.231587470134E+04   -0.40417E-04   -0.57931E-04  3318   0.175E-02    0.310E-02
RMM:   4    -0.231587469559E+04    0.57519E-05   -0.54583E-05  2979   0.516E-03
  83 F= -.23367747E+04 E0= -.23367747E+04  d E =-.551531E-03  mag=     6.0000
       N       E                     dE             d eps       ncg     rms          rms(c)
DAV:   1    -0.231587352910E+04    0.11722E-02   -0.14043E-01  4484   0.353E-01    0.106E-01
RMM:   2    -0.231587493803E+04   -0.14089E-02   -0.14862E-02  6006   0.710E-02    0.685E-02
RMM:   3    -0.231587505929E+04   -0.12126E-03   -0.15095E-03  4083   0.268E-02    0.744E-02
RMM:   4    -0.231587502707E+04    0.32222E-04   -0.14292E-04  2980   0.659E-03    0.354E-02
RMM:   5    -0.231587501702E+04    0.10049E-04   -0.42160E-05  2981   0.502E-03    0.209E-02
RMM:   6    -0.231587501399E+04    0.30372E-05   -0.24197E-05  2927   0.479E-03
  84 F= -.23367752E+04 E0= -.23367752E+04  d E =-.554010E-03  mag=     6.0000
       N       E                     dE             d eps       ncg     rms          rms(c)
DAV:   1    -0.231587390003E+04    0.11170E-02   -0.94387E-02  4496   0.289E-01    0.881E-02
RMM:   2    -0.231587484274E+04   -0.94271E-03   -0.10035E-02  6005   0.586E-02    0.477E-02
RMM:   3    -0.231587491689E+04   -0.74154E-04   -0.10042E-03  3754   0.224E-02    0.409E-02
RMM:   4    -0.231587491437E+04    0.25209E-05   -0.94536E-05  2945   0.551E-03
  85 F= -.23367753E+04 E0= -.23367753E+04  d E =-.647687E-03  mag=     6.0000
       N       E                     dE             d eps       ncg     rms          rms(c)
DAV:   1    -0.231587348533E+04    0.14316E-02   -0.17411E-01  4484   0.394E-01    0.116E-01
RMM:   2    -0.231587496834E+04   -0.14830E-02   -0.15653E-02  6019   0.765E-02    0.749E-02
RMM:   3    -0.231587509628E+04   -0.12794E-03   -0.16204E-03  4286   0.281E-02    0.866E-02
RMM:   4    -0.231587504680E+04    0.49482E-04   -0.15510E-04  2939   0.723E-03    0.386E-02
RMM:   5    -0.231587502942E+04    0.17382E-04   -0.52967E-05  3097   0.567E-03    0.153E-02
RMM:   6    -0.231587502920E+04    0.22294E-06   -0.15455E-05  2913   0.507E-03
  86 F= -.23367757E+04 E0= -.23367757E+04  d E =-.415413E-03  mag=     6.0000
       N       E                     dE             d eps       ncg     rms          rms(c)
DAV:   1    -0.231587426966E+04    0.75975E-03   -0.65853E-02  4512   0.242E-01    0.725E-02
RMM:   2    -0.231587483293E+04   -0.56326E-03   -0.59985E-03  6034   0.477E-02    0.392E-02
RMM:   3    -0.231587487259E+04   -0.39662E-04   -0.56026E-04  3476   0.174E-02    0.370E-02
RMM:   4    -0.231587486787E+04    0.47130E-05   -0.55436E-05  2918   0.466E-03
  87 F= -.23367757E+04 E0= -.23367757E+04  d E =-.439097E-03  mag=     6.0000
       N       E                     dE             d eps       ncg     rms          rms(c)
DAV:   1    -0.231587414655E+04    0.72604E-03   -0.11376E-01  4456   0.313E-01    0.915E-02
RMM:   2    -0.231587497727E+04   -0.83072E-03   -0.87663E-03  6007   0.588E-02    0.617E-02
RMM:   3    -0.231587504948E+04   -0.72205E-04   -0.92485E-04  3743   0.212E-02    0.689E-02
RMM:   4    -0.231587501808E+04    0.31398E-04   -0.90870E-05  2919   0.590E-03    0.311E-02
RMM:   5    -0.231587501051E+04    0.75734E-05   -0.36392E-05  2984   0.468E-03
  88 F= -.23367761E+04 E0= -.23367761E+04  d E =-.406826E-03  mag=     6.0000
       N       E                     dE             d eps       ncg     rms          rms(c)
DAV:   1    -0.231587355997E+04    0.14581E-02   -0.16429E-01  4456   0.376E-01    0.110E-01
RMM:   2    -0.231587475737E+04   -0.11974E-02   -0.12772E-02  6145   0.723E-02    0.622E-02
RMM:   3    -0.231587484456E+04   -0.87187E-04   -0.13664E-03  4054   0.251E-02    0.480E-02
RMM:   4    -0.231587482849E+04    0.16065E-04   -0.12948E-04  3050   0.730E-03    0.314E-02
RMM:   5    -0.231587482012E+04    0.83762E-05   -0.38916E-05  2963   0.499E-03
  89 F= -.23367763E+04 E0= -.23367763E+04  d E =-.533849E-03  mag=     6.0000
       N       E                     dE             d eps       ncg     rms          rms(c)
DAV:   1    -0.231587399547E+04    0.83302E-03   -0.15111E-01  4456   0.365E-01    0.116E-01
RMM:   2    -0.231587506201E+04   -0.10665E-02   -0.11172E-02  6037   0.697E-02    0.922E-02
RMM:   3    -0.231587515015E+04   -0.88137E-04   -0.12321E-03  4161   0.263E-02    0.963E-02
RMM:   4    -0.231587508023E+04    0.69917E-04   -0.12282E-04  2951   0.739E-03    0.324E-02
RMM:   5    -0.231587507177E+04    0.84601E-05   -0.54043E-05  3124   0.586E-03
  90 F= -.23367768E+04 E0= -.23367768E+04  d E =-.519185E-03  mag=     6.0000
       N       E                     dE             d eps       ncg     rms          rms(c)
DAV:   1    -0.231587437359E+04    0.70664E-03   -0.79077E-02  4512   0.264E-01    0.835E-02
RMM:   2    -0.231587492090E+04   -0.54731E-03   -0.58987E-03  6185   0.514E-02    0.456E-02
RMM:   3    -0.231587495924E+04   -0.38338E-04   -0.64600E-04  3569   0.184E-02    0.371E-02
RMM:   4    -0.231587494657E+04    0.12667E-04   -0.62449E-05  2961   0.606E-03    0.216E-02
RMM:   5    -0.231587494136E+04    0.52070E-05   -0.23188E-05  2924   0.409E-03
  91 F= -.23367769E+04 E0= -.23367769E+04  d E =-.582977E-03  mag=     6.0000
       N       E                     dE             d eps       ncg     rms          rms(c)
DAV:   1    -0.231587366573E+04    0.12808E-02   -0.18023E-01  4456   0.401E-01    0.125E-01
RMM:   2    -0.231587502810E+04   -0.13624E-02   -0.14282E-02  6023   0.779E-02    0.978E-02
RMM:   3    -0.231587513494E+04   -0.10685E-03   -0.15232E-03  4379   0.290E-02    0.985E-02
RMM:   4    -0.231587506588E+04    0.69062E-04   -0.14933E-04  2968   0.791E-03    0.369E-02
RMM:   5    -0.231587505928E+04    0.66035E-05   -0.66964E-05  3125   0.650E-03
  92 F= -.23367773E+04 E0= -.23367773E+04  d E =-.423690E-03  mag=     6.0000
       N       E                     dE             d eps       ncg     rms          rms(c)
DAV:   1    -0.231587484844E+04    0.21744E-03   -0.14848E-02  4864   0.116E-01    0.385E-02
RMM:   2    -0.231587496612E+04   -0.11768E-03   -0.12574E-03  5765   0.244E-02    0.259E-02
RMM:   3    -0.231587497171E+04   -0.55913E-05   -0.12742E-04  2937   0.917E-03    0.197E-02
RMM:   4    -0.231587496844E+04    0.32706E-05   -0.14289E-05  2900   0.365E-03
  93 F= -.23367773E+04 E0= -.23367773E+04  d E =-.421830E-03  mag=     6.0000
       N       E                     dE             d eps       ncg     rms          rms(c)
DAV:   1    -0.231587378198E+04    0.11897E-02   -0.13434E-01  4484   0.350E-01    0.112E-01
RMM:   2    -0.231587506692E+04   -0.12849E-02   -0.13737E-02  6021   0.716E-02    0.572E-02
RMM:   3    -0.231587515608E+04   -0.89157E-04   -0.13653E-03  4078   0.254E-02    0.393E-02
RMM:   4    -0.231587515294E+04    0.31338E-05   -0.13533E-04  3060   0.693E-03    0.288E-02
RMM:   5    -0.231587514509E+04    0.78533E-05   -0.37981E-05  2949   0.525E-03
  94 F= -.23367777E+04 E0= -.23367777E+04  d E =-.441906E-03  mag=     6.0000
       N       E                     dE             d eps       ncg     rms          rms(c)
DAV:   1    -0.231587449832E+04    0.65462E-03   -0.50867E-02  4512   0.216E-01    0.725E-02
RMM:   2    -0.231587502220E+04   -0.52388E-03   -0.53389E-03  6195   0.458E-02    0.759E-02
RMM:   3    -0.231587504505E+04   -0.22851E-04   -0.60789E-04  3323   0.159E-02    0.542E-02
RMM:   4    -0.231587502408E+04    0.20969E-04   -0.55586E-05  2911   0.516E-03    0.207E-02
RMM:   5    -0.231587502188E+04    0.22039E-05   -0.20634E-05  2929   0.366E-03
  95 F= -.23367778E+04 E0= -.23367778E+04  d E =-.482724E-03  mag=     6.0000
       N       E                     dE             d eps       ncg     rms          rms(c)
DAV:   1    -0.231587430469E+04    0.71939E-03   -0.78191E-02  4484   0.264E-01    0.813E-02
RMM:   2    -0.231587517029E+04   -0.86559E-03   -0.91219E-03  6127   0.560E-02    0.567E-02
RMM:   3    -0.231587524701E+04   -0.76726E-04   -0.10076E-03  3535   0.204E-02    0.537E-02
RMM:   4    -0.231587523061E+04    0.16408E-04   -0.86447E-05  2950   0.573E-03    0.264E-02
RMM:   5    -0.231587522672E+04    0.38873E-05   -0.27003E-05  2921   0.396E-03
  96 F= -.23367782E+04 E0= -.23367782E+04  d E =-.411803E-03  mag=     6.0000
       N       E                     dE             d eps       ncg     rms          rms(c)
DAV:   1    -0.231587205956E+04    0.31710E-02   -0.25636E-01  4472   0.479E-01    0.147E-01
RMM:   2    -0.231587490765E+04   -0.28481E-02   -0.30053E-02  6094   0.101E-01    0.987E-02
RMM:   3    -0.231587512643E+04   -0.21878E-03   -0.30043E-03  4837   0.356E-02    0.878E-02
RMM:   4    -0.231587508645E+04    0.39987E-04   -0.27579E-04  3068   0.880E-03    0.485E-02
RMM:   5    -0.231587507856E+04    0.78839E-05   -0.90144E-05  3082   0.680E-03
  97 F= -.23367784E+04 E0= -.23367784E+04  d E =-.637196E-03  mag=     6.0000
       N       E                     dE             d eps       ncg     rms          rms(c)
DAV:   1    -0.231587379484E+04    0.12916E-02   -0.12563E-01  4452   0.339E-01    0.108E-01
RMM:   2    -0.231587509677E+04   -0.13019E-02   -0.13809E-02  6218   0.716E-02    0.724E-02
RMM:   3    -0.231587520594E+04   -0.10917E-03   -0.15729E-03  3959   0.257E-02    0.610E-02
RMM:   4    -0.231587518134E+04    0.24600E-04   -0.13498E-04  3018   0.729E-03    0.316E-02
RMM:   5    -0.231587517634E+04    0.50002E-05   -0.45069E-05  2953   0.519E-03
  98 F= -.23367788E+04 E0= -.23367788E+04  d E =-.377099E-03  mag=     6.0000
       N       E                     dE             d eps       ncg     rms          rms(c)
DAV:   1    -0.231587434796E+04    0.83338E-03   -0.62416E-02  4544   0.239E-01    0.769E-02
RMM:   2    -0.231587499158E+04   -0.64361E-03   -0.68646E-03  6202   0.506E-02    0.470E-02
RMM:   3    -0.231587505418E+04   -0.62608E-04   -0.83814E-04  3421   0.188E-02    0.450E-02
RMM:   4    -0.231587504110E+04    0.13088E-04   -0.76735E-05  2975   0.585E-03    0.322E-02
RMM:   5    -0.231587503590E+04    0.51930E-05   -0.22002E-05  2910   0.319E-03
  99 F= -.23367788E+04 E0= -.23367788E+04  d E =-.433531E-03  mag=     6.0000
       N       E                     dE             d eps       ncg     rms          rms(c)
DAV:   1    -0.231587424192E+04    0.79917E-03   -0.11142E-01  4468   0.319E-01    0.107E-01
RMM:   2    -0.231587520356E+04   -0.96164E-03   -0.10111E-02  5999   0.637E-02    0.786E-02
RMM:   3    -0.231587528218E+04   -0.78618E-04   -0.10954E-03  3933   0.237E-02    0.770E-02
RMM:   4    -0.231587523981E+04    0.42370E-04   -0.10658E-04  2945   0.687E-03    0.333E-02
RMM:   5    -0.231587523652E+04    0.32886E-05   -0.51582E-05  2997   0.550E-03
 100 F= -.23367793E+04 E0= -.23367793E+04  d E =-.492713E-03  mag=     6.0000
       N       E                     dE             d eps       ncg     rms          rms(c)
DAV:   1    -0.231587464668E+04    0.59313E-03   -0.49373E-02  4512   0.212E-01    0.715E-02
RMM:   2    -0.231587507973E+04   -0.43305E-03   -0.46160E-03  6154   0.444E-02    0.467E-02
RMM:   3    -0.231587510937E+04   -0.29641E-04   -0.49974E-04  3342   0.157E-02    0.405E-02
RMM:   4    -0.231587509739E+04    0.11978E-04   -0.47554E-05  2923   0.523E-03    0.219E-02
RMM:   5    -0.231587509707E+04    0.31953E-06   -0.24113E-05  2902   0.377E-03
 101 F= -.23367794E+04 E0= -.23367794E+04  d E =-.548728E-03  mag=     6.0000
       N       E                     dE             d eps       ncg     rms          rms(c)
DAV:   1    -0.231587418458E+04    0.91281E-03   -0.11971E-01  4472   0.316E-01    0.109E-01
RMM:   2    -0.231587519353E+04   -0.10089E-02   -0.10676E-02  6012   0.637E-02    0.690E-02
RMM:   3    -0.231587526732E+04   -0.73797E-04   -0.11268E-03  3963   0.248E-02    0.608E-02
RMM:   4    -0.231587524521E+04    0.22119E-04   -0.11457E-04  2976   0.679E-03    0.342E-02
RMM:   5    -0.231587524156E+04    0.36476E-05   -0.46817E-05  2951   0.507E-03
 102 F= -.23367798E+04 E0= -.23367798E+04  d E =-.413301E-03  mag=     6.0000
       N       E                     dE             d eps       ncg     rms          rms(c)
[...]
RMM:   4    -0.231587446222E+04   -0.89202E-06   -0.64472E-05  2987   0.493E-03
 160 F= -.23367890E+04 E0= -.23367890E+04  d E =-.172761E-03  mag=     6.0000
       N       E                     dE             d eps       ncg     rms          rms(c)
DAV:   1    -0.231587425265E+04    0.20868E-03   -0.11274E-02  4712   0.931E-02    0.392E-02
RMM:   2    -0.231587437371E+04   -0.12106E-03   -0.12772E-03  5663   0.210E-02    0.323E-02
RMM:   3    -0.231587438672E+04   -0.13005E-04   -0.16272E-04  2915   0.917E-03    0.368E-02
RMM:   4    -0.231587437723E+04    0.94867E-05   -0.17611E-05  2899   0.294E-03
 161 F= -.23367890E+04 E0= -.23367890E+04  d E =-.172762E-03  mag=     6.0000
       N       E                     dE             d eps       ncg     rms          rms(c)
DAV:   1    -0.231587387546E+04    0.51126E-03   -0.44613E-02  4472   0.182E-01    0.706E-02
RMM:   2    -0.231587434609E+04   -0.47063E-03   -0.49726E-03  6031   0.411E-02    0.507E-02
RMM:   3    -0.231587438014E+04   -0.34049E-04   -0.51883E-04  3226   0.147E-02    0.454E-02
RMM:   4    -0.231587436593E+04    0.14211E-04   -0.52684E-05  2928   0.468E-03    0.224E-02
RMM:   5    -0.231587436479E+04    0.11357E-05   -0.21682E-05  2913   0.340E-03
 162 F= -.23367891E+04 E0= -.23367891E+04  d E =-.149758E-03  mag=     6.0000
       N       E                     dE             d eps       ncg     rms          rms(c)
DAV:   1    -0.231587429165E+04    0.74280E-04   -0.25889E-03  5192   0.444E-02    0.181E-02
RMM:   2    -0.231587431955E+04   -0.27908E-04   -0.30216E-04  3856   0.107E-02    0.120E-02
RMM:   3    -0.231587432225E+04   -0.26928E-05   -0.38621E-05  2835   0.579E-03
 163 F= -.23367891E+04 E0= -.23367891E+04  d E =-.147017E-03  mag=     6.0000
       N       E                     dE             d eps       ncg     rms          rms(c)
DAV:   1    -0.231587385629E+04    0.46327E-03   -0.41159E-02  4472   0.180E-01    0.708E-02
RMM:   2    -0.231587430987E+04   -0.45358E-03   -0.46710E-03  6008   0.403E-02    0.678E-02
RMM:   3    -0.231587432986E+04   -0.19989E-04   -0.47591E-04  3228   0.143E-02    0.521E-02
RMM:   4    -0.231587430984E+04    0.20013E-04   -0.51592E-05  2919   0.461E-03    0.202E-02
RMM:   5    -0.231587430776E+04    0.20856E-05   -0.19757E-05  2930   0.347E-03
 164 F= -.23367893E+04 E0= -.23367893E+04  d E =-.150122E-03  mag=     6.0000
       N       E                     dE             d eps       ncg     rms          rms(c)
DAV:   1    -0.231587420869E+04    0.10115E-03   -0.38787E-03  5096   0.556E-02    0.218E-02
RMM:   2    -0.231587425003E+04   -0.41344E-04   -0.44903E-04  4377   0.132E-02    0.133E-02
RMM:   3    -0.231587425414E+04   -0.41058E-05   -0.57794E-05  2885   0.673E-03
 165 F= -.23367893E+04 E0= -.23367893E+04  d E =-.148008E-03  mag=     6.0000
       N       E                     dE             d eps       ncg     rms          rms(c)
DAV:   1    -0.231587376447E+04    0.48556E-03   -0.39071E-02  4472   0.175E-01    0.676E-02
RMM:   2    -0.231587420621E+04   -0.44174E-03   -0.45971E-03  5998   0.395E-02    0.582E-02
RMM:   3    -0.231587423386E+04   -0.27641E-04   -0.46277E-04  3190   0.138E-02    0.507E-02
RMM:   4    -0.231587421587E+04    0.17983E-04   -0.50289E-05  2914   0.445E-03    0.200E-02
RMM:   5    -0.231587421328E+04    0.25924E-05   -0.17939E-05  2923   0.332E-03
 166 F= -.23367894E+04 E0= -.23367894E+04  d E =-.122732E-03  mag=     6.0000
       N       E                     dE             d eps       ncg     rms          rms(c)
DAV:   1    -0.231587418623E+04    0.29639E-04   -0.41745E-04  5176   0.189E-02    0.920E-03
RMM:   2    -0.231587419165E+04   -0.54179E-05   -0.57390E-05  2978   0.473E-03
 167 F= -.23367894E+04 E0= -.23367894E+04  d E =-.118792E-03  mag=     6.0000
       N       E                     dE             d eps       ncg     rms          rms(c)
DAV:   1    -0.231587378877E+04    0.39746E-03   -0.32461E-02  4484   0.165E-01    0.628E-02
RMM:   2    -0.231587414546E+04   -0.35669E-03   -0.38034E-03  6039   0.375E-02    0.388E-02
RMM:   3    -0.231587417435E+04   -0.28887E-04   -0.40652E-04  3281   0.149E-02    0.387E-02
RMM:   4    -0.231587416492E+04    0.94293E-05   -0.41320E-05  2908   0.425E-03
 168 F= -.23367895E+04 E0= -.23367895E+04  d E =-.114714E-03  mag=     6.0000
       N       E                     dE             d eps       ncg     rms          rms(c)
DAV:   1    -0.231587413399E+04    0.40354E-04   -0.57634E-04  5208   0.227E-02    0.165E-02
RMM:   2    -0.231587414824E+04   -0.14244E-04   -0.91225E-05  3181   0.588E-03    0.323E-02
RMM:   3    -0.231587413922E+04    0.90150E-05   -0.16541E-05  2563   0.379E-03
 169 F= -.23367895E+04 E0= -.23367895E+04  d E =-.108753E-03  mag=     6.0000
       N       E                     dE             d eps       ncg     rms          rms(c)
DAV:   1    -0.231587385742E+04    0.29082E-03   -0.21821E-02  4484   0.139E-01    0.525E-02
RMM:   2    -0.231587409195E+04   -0.23453E-03   -0.24986E-03  5951   0.305E-02    0.328E-02
RMM:   3    -0.231587411111E+04   -0.19164E-04   -0.25035E-04  3046   0.117E-02    0.354E-02
RMM:   4    -0.231587410315E+04    0.79606E-05   -0.27429E-05  2890   0.355E-03
 170 F= -.23367896E+04 E0= -.23367896E+04  d E =-.845982E-04  mag=     6.0000
       N       E                     dE             d eps       ncg     rms          rms(c)
DAV:   1    -0.231587408016E+04    0.30956E-04   -0.31581E-04  5144   0.172E-02    0.108E-02
RMM:   2    -0.231587408698E+04   -0.68221E-05   -0.46638E-05  2965   0.442E-03
 171 F= -.23367896E+04 E0= -.23367896E+04  d E =-.838626E-04  mag=     6.0000
       N       E                     dE             d eps       ncg     rms          rms(c)
DAV:   1    -0.231587380084E+04    0.27932E-03   -0.21483E-02  4468   0.138E-01    0.521E-02
RMM:   2    -0.231587402903E+04   -0.22819E-03   -0.24211E-03  5959   0.310E-02    0.359E-02
RMM:   3    -0.231587404813E+04   -0.19106E-04   -0.26935E-04  3074   0.124E-02    0.358E-02
RMM:   4    -0.231587403964E+04    0.84946E-05   -0.27980E-05  2894   0.370E-03
 172 F= -.23367897E+04 E0= -.23367897E+04  d E =-.787684E-04  mag=     6.0000
       N       E                     dE             d eps       ncg     rms          rms(c)
DAV:   1    -0.231587398194E+04    0.66191E-04   -0.17111E-03  5200   0.392E-02    0.195E-02
RMM:   2    -0.231587400490E+04   -0.22964E-04   -0.20361E-04  3593   0.904E-03    0.279E-02
RMM:   3    -0.231587400022E+04    0.46820E-05   -0.28100E-05  2757   0.508E-03
 173 F= -.23367897E+04 E0= -.23367897E+04  d E =-.758253E-04  mag=     6.0000
       N       E                     dE             d eps       ncg     rms          rms(c)
DAV:   1    -0.231587375328E+04    0.25163E-03   -0.20583E-02  4452   0.131E-01    0.485E-02
RMM:   2    -0.231587396727E+04   -0.21400E-03   -0.22725E-03  5924   0.286E-02    0.285E-02
RMM:   3    -0.231587398502E+04   -0.17749E-04   -0.23370E-04  2988   0.108E-02    0.285E-02
RMM:   4    -0.231587398128E+04    0.37470E-05   -0.24267E-05  2890   0.312E-03
 174 F= -.23367898E+04 E0= -.23367898E+04  d E =-.813318E-04  mag=     6.0000
       N       E                     dE             d eps       ncg     rms          rms(c)
DAV:   1    -0.231587390637E+04    0.78652E-04   -0.32045E-03  4872   0.517E-02    0.223E-02
RMM:   2    -0.231587394494E+04   -0.38569E-04   -0.36458E-04  4046   0.115E-02    0.318E-02
RMM:   3    -0.231587394208E+04    0.28649E-05   -0.48146E-05  2882   0.574E-03
 175 F= -.23367898E+04 E0= -.23367898E+04  d E =-.823559E-04  mag=     6.0000
       N       E                     dE             d eps       ncg     rms          rms(c)
DAV:   1    -0.231587373277E+04    0.21217E-03   -0.20166E-02  4452   0.130E-01    0.493E-02
RMM:   2    -0.231587393341E+04   -0.20065E-03   -0.21258E-03  5911   0.282E-02    0.325E-02
RMM:   3    -0.231587395008E+04   -0.16665E-04   -0.23263E-04  2970   0.108E-02    0.321E-02
RMM:   4    -0.231587394359E+04    0.64878E-05   -0.24288E-05  2895   0.338E-03
 176 F= -.23367899E+04 E0= -.23367899E+04  d E =-.909771E-04  mag=     6.0000
       N       E                     dE             d eps       ncg     rms          rms(c)
DAV:   1    -0.231587387005E+04    0.80027E-04   -0.36143E-03  4840   0.551E-02    0.247E-02
RMM:   2    -0.231587391326E+04   -0.43210E-04   -0.39383E-04  4216   0.122E-02    0.362E-02
RMM:   3    -0.231587390749E+04    0.57715E-05   -0.54613E-05  2889   0.624E-03
 177 F= -.23367899E+04 E0= -.23367899E+04  d E =-.933249E-04  mag=     6.0000
       N       E                     dE             d eps       ncg     rms          rms(c)
DAV:   1    -0.231587362973E+04    0.28353E-03   -0.21857E-02  4456   0.133E-01    0.501E-02
RMM:   2    -0.231587385372E+04   -0.22398E-03   -0.23651E-03  5923   0.291E-02    0.338E-02
RMM:   3    -0.231587387297E+04   -0.19256E-04   -0.25121E-04  2993   0.106E-02    0.346E-02
RMM:   4    -0.231587386571E+04    0.72648E-05   -0.26671E-05  2894   0.336E-03
 178 F= -.23367899E+04 E0= -.23367899E+04  d E =-.718991E-04  mag=     6.0000
       N       E                     dE             d eps       ncg     rms          rms(c)
DAV:   1    -0.231587383667E+04    0.36310E-04   -0.59332E-04  5072   0.223E-02    0.129E-02
RMM:   2    -0.231587384716E+04   -0.10491E-04   -0.76426E-05  3075   0.544E-03    0.254E-02
RMM:   3    -0.231587384290E+04    0.42566E-05   -0.12185E-05  2543   0.345E-03
 179 F= -.23367899E+04 E0= -.23367899E+04  d E =-.685978E-04  mag=     6.0000
       N       E                     dE             d eps       ncg     rms          rms(c)
DAV:   1    -0.231587358070E+04    0.26646E-03   -0.20000E-02  4456   0.130E-01    0.497E-02
RMM:   2    -0.231587378259E+04   -0.20189E-03   -0.21475E-03  5942   0.283E-02    0.336E-02
RMM:   3    -0.231587380068E+04   -0.18096E-04   -0.22868E-04  2985   0.105E-02    0.369E-02
RMM:   4    -0.231587379122E+04    0.94587E-05   -0.24919E-05  2890   0.335E-03
 180 F= -.23367900E+04 E0= -.23367900E+04  d E =-.827290E-04  mag=     6.0000
       N       E                     dE             d eps       ncg     rms          rms(c)
DAV:   1    -0.231587373725E+04    0.63429E-04   -0.14049E-03  5224   0.347E-02    0.158E-02
RMM:   2    -0.231587375351E+04   -0.16261E-04   -0.15818E-04  3390   0.797E-03    0.197E-02
RMM:   3    -0.231587375255E+04    0.95968E-06   -0.23036E-05  2673   0.469E-03
 181 F= -.23367900E+04 E0= -.23367900E+04  d E =-.806999E-04  mag=     6.0000
       N       E                     dE             d eps       ncg     rms          rms(c)
DAV:   1    -0.231587345512E+04    0.29839E-03   -0.20354E-02  4472   0.125E-01    0.469E-02
RMM:   2    -0.231587367289E+04   -0.21777E-03   -0.23002E-03  5941   0.279E-02    0.312E-02
RMM:   3    -0.231587369146E+04   -0.18571E-04   -0.23898E-04  2982   0.106E-02    0.315E-02
RMM:   4    -0.231587368593E+04    0.55346E-05   -0.24849E-05  2889   0.313E-03
 182 F= -.23367901E+04 E0= -.23367901E+04  d E =-.704176E-04  mag=     6.0000
       N       E                     dE             d eps       ncg     rms          rms(c)
DAV:   1    -0.231587364867E+04    0.42788E-04   -0.69638E-04  5112   0.233E-02    0.128E-02
RMM:   2    -0.231587365954E+04   -0.10872E-04   -0.87804E-05  3103   0.564E-03    0.230E-02
RMM:   3    -0.231587365656E+04    0.29835E-05   -0.13019E-05  2528   0.348E-03
 183 F= -.23367901E+04 E0= -.23367901E+04  d E =-.672788E-04  mag=     6.0000
       N       E                     dE             d eps       ncg     rms          rms(c)
DAV:   1    -0.231587338760E+04    0.27195E-03   -0.22404E-02  4472   0.136E-01    0.523E-02
RMM:   2    -0.231587361269E+04   -0.22510E-03   -0.23836E-03  5950   0.294E-02    0.349E-02
RMM:   3    -0.231587363224E+04   -0.19548E-04   -0.24995E-04  3014   0.110E-02    0.380E-02
RMM:   4    -0.231587362231E+04    0.99289E-05   -0.27433E-05  2895   0.347E-03
 184 F= -.23367902E+04 E0= -.23367902E+04  d E =-.860730E-04  mag=     6.0000
       N       E                     dE             d eps       ncg     rms          rms(c)
DAV:   1    -0.231587354641E+04    0.85828E-04   -0.28658E-03  5136   0.487E-02    0.213E-02
RMM:   2    -0.231587357799E+04   -0.31576E-04   -0.31351E-04  3950   0.109E-02    0.244E-02
RMM:   3    -0.231587357742E+04    0.56668E-06   -0.43122E-05  2862   0.580E-03
 185 F= -.23367902E+04 E0= -.23367902E+04  d E =-.850765E-04  mag=     6.0000
       N       E                     dE             d eps       ncg     rms          rms(c)
DAV:   1    -0.231587328284E+04    0.29515E-03   -0.20853E-02  4472   0.126E-01    0.477E-02
RMM:   2    -0.231587351287E+04   -0.23003E-03   -0.24232E-03  5933   0.285E-02    0.316E-02
RMM:   3    -0.231587353277E+04   -0.19906E-04   -0.25472E-04  2986   0.107E-02    0.316E-02
RMM:   4    -0.231587352758E+04    0.51977E-05   -0.26028E-05  2893   0.318E-03
 186 F= -.23367902E+04 E0= -.23367902E+04  d E =-.764940E-04  mag=     6.0000
       N       E                     dE             d eps       ncg     rms          rms(c)
DAV:   1    -0.231587347343E+04    0.59344E-04   -0.14916E-03  5160   0.339E-02    0.167E-02
RMM:   2    -0.231587349505E+04   -0.21617E-04   -0.18390E-04  3461   0.798E-03    0.288E-02
RMM:   3    -0.231587349085E+04    0.41949E-05   -0.25779E-05  2648   0.437E-03
 187 F= -.23367902E+04 E0= -.23367902E+04  d E =-.743384E-04  mag=     6.0000
       N       E                     dE             d eps       ncg     rms          rms(c)
DAV:   1    -0.231587317052E+04    0.32453E-03   -0.23467E-02  4472   0.137E-01    0.539E-02
RMM:   2    -0.231587342274E+04   -0.25223E-03   -0.26588E-03  5950   0.304E-02    0.383E-02
RMM:   3    -0.231587344467E+04   -0.21921E-04   -0.28262E-04  3011   0.113E-02    0.398E-02
RMM:   4    -0.231587343388E+04    0.10787E-04   -0.30754E-05  2894   0.358E-03    0.158E-02
RMM:   5    -0.231587343206E+04    0.18167E-05   -0.10536E-05  2874   0.262E-03
 188 F= -.23367903E+04 E0= -.23367903E+04  d E =-.766989E-04  mag=     6.0000
       N       E                     dE             d eps       ncg     rms          rms(c)
DAV:   1    -0.231587339475E+04    0.39123E-04   -0.80562E-04  5096   0.257E-02    0.117E-02
RMM:   2    -0.231587340443E+04   -0.96729E-05   -0.10049E-04  3161   0.625E-03    0.102E-02
RMM:   3    -0.231587340439E+04    0.34284E-07   -0.13072E-05  2542   0.395E-03
 189 F= -.23367903E+04 E0= -.23367903E+04  d E =-.747735E-04  mag=     6.0000
       N       E                     dE             d eps       ncg     rms          rms(c)
DAV:   1    -0.231587314499E+04    0.25944E-03   -0.19338E-02  4456   0.124E-01    0.488E-02
RMM:   2    -0.231587335472E+04   -0.20973E-03   -0.21516E-03  5942   0.273E-02    0.452E-02
RMM:   3    -0.231587336607E+04   -0.11348E-04   -0.22883E-04  2973   0.103E-02    0.363E-02
RMM:   4    -0.231587335633E+04    0.97439E-05   -0.24225E-05  2892   0.329E-03
 190 F= -.23367904E+04 E0= -.23367904E+04  d E =-.692244E-04  mag=     6.0000
       N       E                     dE             d eps       ncg     rms          rms(c)
DAV:   1    -0.231587331936E+04    0.46707E-04   -0.85668E-04  5168   0.263E-02    0.148E-02
RMM:   2    -0.231587333071E+04   -0.11349E-04   -0.10494E-04  3218   0.627E-03    0.184E-02
RMM:   3    -0.231587332807E+04    0.26463E-05   -0.14724E-05  2557   0.381E-03
 191 F= -.23367904E+04 E0= -.23367904E+04  d E =-.664736E-04  mag=     6.0000
       N       E                     dE             d eps       ncg     rms          rms(c)
DAV:   1    -0.231587312497E+04    0.20574E-03   -0.15239E-02  4472   0.111E-01    0.427E-02
RMM:   2    -0.231587327613E+04   -0.15116E-03   -0.16169E-03  5857   0.240E-02    0.231E-02
RMM:   3    -0.231587328669E+04   -0.10560E-04   -0.16450E-04  2934   0.948E-03    0.197E-02
RMM:   4    -0.231587328556E+04    0.11314E-05   -0.17861E-05  2892   0.272E-03
 192 F= -.23367904E+04 E0= -.23367904E+04  d E =-.665722E-04  mag=     6.0000
       N       E                     dE             d eps       ncg     rms          rms(c)
DAV:   1    -0.231587323530E+04    0.51391E-04   -0.14364E-03  5192   0.341E-02    0.173E-02
RMM:   2    -0.231587325624E+04   -0.20941E-04   -0.16643E-04  3391   0.783E-03    0.326E-02
RMM:   3    -0.231587325012E+04    0.61190E-05   -0.24249E-05  2668   0.441E-03
 193 F= -.23367904E+04 E0= -.23367904E+04  d E =-.653293E-04  mag=     6.0000
       N       E                     dE             d eps       ncg     rms          rms(c)
DAV:   1    -0.231587301354E+04    0.24270E-03   -0.15898E-02  4472   0.110E-01    0.429E-02
RMM:   2    -0.231587318028E+04   -0.16674E-03   -0.17357E-03  5836   0.245E-02    0.340E-02
RMM:   3    -0.231587319204E+04   -0.11758E-04   -0.18468E-04  2937   0.970E-03    0.302E-02
RMM:   4    -0.231587318619E+04    0.58468E-05   -0.20390E-05  2889   0.303E-03
 194 F= -.23367905E+04 E0= -.23367905E+04  d E =-.548190E-04  mag=     6.0000
       N       E                     dE             d eps       ncg     rms          rms(c)
DAV:   1    -0.231587318222E+04    0.98139E-05   -0.13085E-05  4184   0.448E-03    0.110E-02
RMM:   2    -0.231587318729E+04   -0.50688E-05   -0.16618E-05  2553   0.267E-03
 195 F= -.23367905E+04 E0= -.23367905E+04  d E =-.588719E-04  mag=     6.0000
       N       E                     dE             d eps       ncg     rms          rms(c)
DAV:   1    -0.231587298718E+04    0.19504E-03   -0.14885E-02  4472   0.111E-01    0.441E-02
RMM:   2    -0.231587313378E+04   -0.14660E-03   -0.15402E-03  5782   0.239E-02    0.350E-02
RMM:   3    -0.231587314207E+04   -0.82915E-05   -0.16833E-04  2922   0.954E-03    0.307E-02
RMM:   4    -0.231587313646E+04    0.56104E-05   -0.20549E-05  2887   0.310E-03
 196 F= -.23367905E+04 E0= -.23367905E+04  d E =-.511914E-04  mag=     6.0000
       N       E                     dE             d eps       ncg     rms          rms(c)
DAV:   1    -0.231587310744E+04    0.34631E-04   -0.56318E-04  5120   0.218E-02    0.133E-02
RMM:   2    -0.231587311423E+04   -0.67895E-05   -0.64576E-05  3001   0.511E-03
 197 F= -.23367905E+04 E0= -.23367905E+04  d E =-.493477E-04  mag=     6.0000
       N       E                     dE             d eps       ncg     rms          rms(c)
DAV:   1    -0.231587297593E+04    0.13150E-03   -0.10634E-02  4456   0.913E-02    0.365E-02
RMM:   2    -0.231587309359E+04   -0.11766E-03   -0.11864E-03  5636   0.209E-02    0.386E-02
RMM:   3    -0.231587309733E+04   -0.37333E-05   -0.13487E-04  2918   0.871E-03    0.260E-02
RMM:   4    -0.231587309227E+04    0.50569E-05   -0.13614E-05  2878   0.277E-03
 198 F= -.23367906E+04 E0= -.23367906E+04  d E =-.523141E-04  mag=     6.0000
       N       E                     dE             d eps       ncg     rms          rms(c)
DAV:   1    -0.231587306007E+04    0.37260E-04   -0.87795E-04  4944   0.263E-02    0.131E-02
RMM:   2    -0.231587307053E+04   -0.10466E-04   -0.10106E-04  3171   0.626E-03    0.148E-02
RMM:   3    -0.231587306926E+04    0.12704E-05   -0.13241E-05  2563   0.383E-03
 199 F= -.23367906E+04 E0= -.23367906E+04  d E =-.512660E-04  mag=     6.0000
       N       E                     dE             d eps       ncg     rms          rms(c)
DAV:   1    -0.231587291306E+04    0.15747E-03   -0.10854E-02  4456   0.930E-02    0.357E-02
RMM:   2    -0.231587303160E+04   -0.11853E-03   -0.12617E-03  5696   0.206E-02    0.182E-02
RMM:   3    -0.231587304072E+04   -0.91204E-05   -0.13830E-04  2919   0.859E-03    0.118E-02
RMM:   4    -0.231587304012E+04    0.59561E-06   -0.13138E-05  2901   0.228E-03
 200 F= -.23367906E+04 E0= -.23367906E+04  d E =-.517726E-04  mag=     6.0000
       N       E                     dE             d eps       ncg     rms          rms(c)
DAV:   1    -0.231587293671E+04    0.10400E-03   -0.45963E-03  4616   0.604E-02    0.241E-02
RMM:   2    -0.231587298846E+04   -0.51744E-04   -0.53712E-04  4540   0.133E-02    0.211E-02
RMM:   3    -0.231587299262E+04   -0.41641E-05   -0.67186E-05  2906   0.693E-03
 201 F= -.23367907E+04 E0= -.23367907E+04  d E =-.574310E-04  mag=     6.0000
