       N       E                     dE             d eps       ncg     rms          rms(c)
DAV:   1     0.130935297547E+05    0.13094E+05   -0.84490E+05  4560   0.143E+03
DAV:   2    -0.104172376100E+04   -0.14135E+05   -0.13528E+05  4960   0.329E+02
DAV:   3    -0.248668598750E+04   -0.14450E+04   -0.14286E+04  5460   0.114E+02
DAV:   4    -0.252843446701E+04   -0.41748E+02   -0.41492E+02  6620   0.270E+01
DAV:   5    -0.252935811499E+04   -0.92365E+00   -0.92160E+00  5700   0.338E+00    0.170E+02
RMM:   6    -0.149543487270E+04    0.10339E+04   -0.19381E+03  4516   0.379E+01    0.723E+01
RMM:   7    -0.167026331684E+04   -0.17483E+03   -0.28649E+02  5212   0.143E+01    0.520E+01
RMM:   8    -0.172391244882E+04   -0.53649E+02   -0.77985E+01  5348   0.826E+00    0.451E+01
RMM:   9    -0.178259371788E+04   -0.58681E+02   -0.62558E+01  5108   0.745E+00    0.365E+01
RMM:  10    -0.189032794968E+04   -0.10773E+03   -0.60485E+01  5277   0.742E+00    0.318E+01
RMM:  11    -0.196957865238E+04   -0.79251E+02   -0.34966E+01  5278   0.536E+00    0.232E+01
RMM:  12    -0.203558399598E+04   -0.66005E+02   -0.22896E+01  5189   0.401E+00    0.186E+01
RMM:  13    -0.211276408948E+04   -0.77180E+02   -0.32949E+01  4921   0.435E+00    0.142E+01
RMM:  14    -0.221471620413E+04   -0.10195E+03   -0.73502E+01  4564   0.610E+00    0.112E+01
RMM:  15    -0.228301140993E+04   -0.68295E+02   -0.56681E+01  4885   0.550E+00    0.721E+00
RMM:  16    -0.231361685439E+04   -0.30605E+02   -0.30753E+01  4721   0.398E+00    0.451E+00
RMM:  17    -0.232094805676E+04   -0.73312E+01   -0.84579E+00  4953   0.217E+00    0.429E+00
RMM:  18    -0.232180272093E+04   -0.85466E+00   -0.11284E+00  5696   0.739E-01    0.432E+00
RMM:  19    -0.232221251158E+04   -0.40979E+00   -0.17288E-01  4879   0.285E-01    0.373E+00
RMM:  20    -0.232395270723E+04   -0.17402E+01   -0.77025E-01  4493   0.567E-01    0.179E+00
RMM:  21    -0.232466897613E+04   -0.71627E+00   -0.35132E-01  4903   0.416E-01    0.109E+00
RMM:  22    -0.232482643052E+04   -0.15745E+00   -0.13094E-01  4815   0.262E-01    0.780E-01
RMM:  23    -0.232488363139E+04   -0.57201E-01   -0.44268E-02  4880   0.134E-01    0.322E-01
RMM:  24    -0.232491487762E+04   -0.31246E-01   -0.13056E-02  4642   0.857E-02    0.217E-01
RMM:  25    -0.232494055708E+04   -0.25679E-01   -0.73857E-03  4566   0.661E-02    0.160E-01
RMM:  26    -0.232495386374E+04   -0.13307E-01   -0.36631E-03  4648   0.472E-02    0.874E-02
RMM:  27    -0.232496479440E+04   -0.10931E-01   -0.27201E-03  4583   0.391E-02    0.655E-02
RMM:  28    -0.232497259296E+04   -0.77986E-02   -0.17575E-03  4543   0.320E-02    0.453E-02
RMM:  29    -0.232497720360E+04   -0.46106E-02   -0.12987E-03  4403   0.250E-02    0.268E-02
RMM:  30    -0.232497889531E+04   -0.16917E-02   -0.52252E-04  4261   0.197E-02    0.175E-02
RMM:  31    -0.232497950934E+04   -0.61403E-03   -0.21233E-04  4093   0.103E-02    0.123E-02
RMM:  32    -0.232497969302E+04   -0.18368E-03   -0.47991E-05  3561   0.728E-03    0.516E-03
RMM:  33    -0.232497977711E+04   -0.84093E-04   -0.19524E-05  3090   0.378E-03    0.371E-03
RMM:  34    -0.232497982560E+04   -0.48488E-04   -0.92701E-06  2902   0.341E-03    0.169E-03
RMM:  35    -0.232497984680E+04   -0.21203E-04   -0.60919E-06  2852   0.267E-03    0.133E-03
RMM:  36    -0.232497985381E+04   -0.70103E-05   -0.31936E-06  2485   0.210E-03
   1 F= -.23463967E+04 E0= -.23463967E+04  d E =-.199430E-06  mag=     5.0001
       N       E                     dE             d eps       ncg     rms          rms(c)
DAV:   1    -0.232496909273E+04    0.10754E-01   -0.19416E+00  4700   0.615E-01    0.375E-01
RMM:   2    -0.232497208511E+04   -0.29924E-02   -0.26988E-02  5040   0.768E-02    0.455E-01
RMM:   3    -0.232497104379E+04    0.10413E-02   -0.51658E-03  5211   0.355E-02    0.367E-01
RMM:   4    -0.232497029417E+04    0.74962E-03   -0.20173E-03  4048   0.181E-02    0.254E-01
RMM:   5    -0.232496986043E+04    0.43374E-03   -0.99785E-04  3560   0.147E-02    0.131E-01
RMM:   6    -0.232496965789E+04    0.20254E-03   -0.19957E-04  3431   0.765E-03    0.301E-02
RMM:   7    -0.232496967745E+04   -0.19562E-04   -0.72241E-05  2934   0.479E-03    0.454E-02
RMM:   8    -0.232496965509E+04    0.22366E-04   -0.28172E-05  2769   0.346E-03    0.116E-02
RMM:   9    -0.232496965581E+04   -0.72329E-06   -0.78141E-06  2703   0.192E-03
   2 F= -.23463860E+04 E0= -.23463860E+04  d E =-.333127E-06  mag=     5.0000
       N       E                     dE             d eps       ncg     rms          rms(c)
DAV:   1    -0.232497030553E+04   -0.65044E-03   -0.77197E+00  4540   0.118E+00    0.746E-01
RMM:   2    -0.232498089823E+04   -0.10593E-01   -0.95217E-02  5198   0.155E-01    0.912E-01
RMM:   3    -0.232497736269E+04    0.35355E-02   -0.19983E-02  5733   0.762E-02    0.747E-01
RMM:   4    -0.232497499069E+04    0.23720E-02   -0.84530E-03  4944   0.368E-02    0.561E-01
RMM:   5    -0.232497232256E+04    0.26681E-02   -0.37497E-03  4736   0.280E-02    0.207E-01
RMM:   6    -0.232497190146E+04    0.42110E-03   -0.60006E-04  4034   0.123E-02    0.608E-02
RMM:   7    -0.232497199714E+04   -0.95679E-04   -0.25735E-04  3250   0.856E-03    0.873E-02
RMM:   8    -0.232497192186E+04    0.75284E-04   -0.94844E-05  3038   0.572E-03    0.211E-02
RMM:   9    -0.232497193111E+04   -0.92555E-05   -0.23466E-05  2929   0.332E-03
   3 F= -.23463892E+04 E0= -.23463892E+04  d E =-.121971E-06  mag=     5.0000
       N       E                     dE             d eps       ncg     rms          rms(c)
DAV:   1    -0.232495774376E+04    0.14178E-01   -0.40364E+00  4500   0.857E-01    0.587E-01
RMM:   2    -0.232496395012E+04   -0.62064E-02   -0.50621E-02  4970   0.108E-01    0.674E-01
RMM:   3    -0.232496253260E+04    0.14175E-02   -0.11166E-02  5348   0.604E-02    0.600E-01
RMM:   4    -0.232496067650E+04    0.18561E-02   -0.53243E-03  4639   0.286E-02    0.410E-01
RMM:   5    -0.232495935483E+04    0.13217E-02   -0.23523E-03  4290   0.226E-02    0.176E-01
RMM:   6    -0.232495903887E+04    0.31596E-03   -0.45107E-04  3724   0.108E-02    0.517E-02
RMM:   7    -0.232495907672E+04   -0.37841E-04   -0.15152E-04  3030   0.704E-03    0.631E-02
RMM:   8    -0.232495903702E+04    0.39691E-04   -0.54072E-05  2909   0.454E-03    0.171E-02
RMM:   9    -0.232495904024E+04   -0.32128E-05   -0.16015E-05  2902   0.288E-03
   4 F= -.23463757E+04 E0= -.23463757E+04  d E =-.543516E-06  mag=     5.0000
       N       E                     dE             d eps       ncg     rms          rms(c)
DAV:   1    -0.232495798021E+04    0.10568E-02   -0.83934E+00  4520   0.123E+00    0.709E-01
RMM:   2    -0.232496146179E+04   -0.34816E-02   -0.55132E-02  4524   0.123E-01    0.569E-01
RMM:   3    -0.232496602194E+04   -0.45602E-02   -0.14429E-02  5300   0.667E-02    0.875E-01
RMM:   4    -0.232496023426E+04    0.57877E-02   -0.96162E-03  5037   0.398E-02    0.430E-01
RMM:   5    -0.232495883944E+04    0.13948E-02   -0.27877E-03  4167   0.270E-02    0.201E-01
RMM:   6    -0.232495845615E+04    0.38329E-03   -0.45453E-04  3537   0.113E-02    0.412E-02
RMM:   7    -0.232495850236E+04   -0.46210E-04   -0.11243E-04  3159   0.652E-03    0.473E-02
RMM:   8    -0.232495849439E+04    0.79670E-05   -0.59646E-05  2972   0.456E-03
   5 F= -.23463755E+04 E0= -.23463755E+04  d E =-.795093E-07  mag=     5.0000
       N       E                     dE             d eps       ncg     rms          rms(c)
DAV:   1    -0.232499411022E+04   -0.35608E-01   -0.40707E+00  4500   0.937E-01    0.469E-01
RMM:   2    -0.232499845322E+04   -0.43430E-02   -0.39049E-02  4583   0.971E-02    0.524E-01
RMM:   3    -0.232499794757E+04    0.50565E-03   -0.70750E-03  4766   0.506E-02    0.489E-01
RMM:   4    -0.232499651506E+04    0.14325E-02   -0.37119E-03  4263   0.247E-02    0.290E-01
RMM:   5    -0.232499595729E+04    0.55777E-03   -0.16573E-03  3868   0.195E-02    0.166E-01
RMM:   6    -0.232499571252E+04    0.24477E-03   -0.31504E-04  3330   0.975E-03    0.432E-02
RMM:   7    -0.232499574451E+04   -0.31996E-04   -0.10060E-04  2962   0.596E-03    0.509E-02
RMM:   8    -0.232499572323E+04    0.21284E-04   -0.39836E-05  2867   0.385E-03    0.162E-02
RMM:   9    -0.232499572677E+04   -0.35354E-05   -0.90278E-06  2821   0.241E-03
   6 F= -.23464126E+04 E0= -.23464126E+04  d E =-.213398E-06  mag=     5.0000
       N       E                     dE             d eps       ncg     rms          rms(c)
DAV:   1    -0.232492138449E+04    0.74339E-01   -0.81137E+00  4520   0.123E+00    0.597E-01
RMM:   2    -0.232492730588E+04   -0.59214E-02   -0.67731E-02  4443   0.128E-01    0.609E-01
RMM:   3    -0.232492797853E+04   -0.67265E-03   -0.11434E-02  4797   0.654E-02    0.665E-01
RMM:   4    -0.232492445015E+04    0.35284E-02   -0.54054E-03  4308   0.305E-02    0.258E-01
RMM:   5    -0.232492457510E+04   -0.12494E-03   -0.23407E-03  4176   0.237E-02    0.257E-01
RMM:   6    -0.232492389231E+04    0.68279E-03   -0.56527E-04  3655   0.117E-02    0.421E-02
RMM:   7    -0.232492390308E+04   -0.10767E-04   -0.13093E-04  3018   0.579E-03    0.534E-02
RMM:   8    -0.232492387070E+04    0.32377E-04   -0.53948E-05  2859   0.392E-03    0.175E-02
RMM:   9    -0.232492387051E+04    0.19342E-06   -0.14401E-05  2843   0.260E-03
   7 F= -.23463407E+04 E0= -.23463407E+04  d E =-.190415E-06  mag=     5.0000
       N       E                     dE             d eps       ncg     rms          rms(c)
DAV:   1    -0.232496641337E+04   -0.42543E-01   -0.64098E+00  4500   0.112E+00    0.486E-01
RMM:   2    -0.232497279076E+04   -0.63774E-02   -0.70325E-02  4431   0.113E-01    0.424E-01
RMM:   3    -0.232497437503E+04   -0.15843E-02   -0.92121E-03  4573   0.588E-02    0.602E-01
RMM:   4    -0.232497105861E+04    0.33164E-02   -0.25819E-03  4565   0.226E-02    0.169E-01
RMM:   5    -0.232497143339E+04   -0.37478E-03   -0.12368E-03  3802   0.170E-02    0.209E-01
RMM:   6    -0.232497096595E+04    0.46744E-03   -0.61524E-04  3703   0.119E-02    0.506E-02
RMM:   7    -0.232497093593E+04    0.30019E-04   -0.50236E-05  2991   0.512E-03    0.168E-02
RMM:   8    -0.232497094066E+04   -0.47359E-05   -0.19129E-05  2781   0.286E-03
   8 F= -.23463885E+04 E0= -.23463885E+04  d E =-.175838E-06  mag=     5.0000
       N       E                     dE             d eps       ncg     rms          rms(c)
DAV:   1    -0.232495453526E+04    0.16401E-01   -0.20024E+01  4500   0.194E+00    0.801E-01
RMM:   2    -0.232497263302E+04   -0.18098E-01   -0.24228E-01  4399   0.205E-01    0.436E-01
RMM:   3    -0.232497313945E+04   -0.50643E-03   -0.22870E-02  4712   0.970E-02    0.625E-01
RMM:   4    -0.232497086326E+04    0.22762E-02   -0.67604E-03  5403   0.335E-02    0.389E-01
RMM:   5    -0.232497002262E+04    0.84064E-03   -0.30398E-03  4531   0.256E-02    0.222E-01
RMM:   6    -0.232496957919E+04    0.44343E-03   -0.11372E-03  4419   0.156E-02    0.110E-01
RMM:   7    -0.232496944815E+04    0.13104E-03   -0.12936E-04  3258   0.715E-03    0.280E-02
RMM:   8    -0.232496945584E+04   -0.76974E-05   -0.48199E-05  3066   0.440E-03
   9 F= -.23463856E+04 E0= -.23463856E+04  d E =-.295734E-06  mag=     5.0000
       N       E                     dE             d eps       ncg     rms          rms(c)
DAV:   1    -0.232494869930E+04    0.20749E-01   -0.99699E+00  4480   0.126E+00    0.668E-01
RMM:   2    -0.232496099962E+04   -0.12300E-01   -0.17048E-01  4595   0.152E-01    0.341E-01
RMM:   3    -0.232495914166E+04    0.18580E-02   -0.10514E-02  4240   0.660E-02    0.298E-01
RMM:   4    -0.232496011693E+04   -0.97527E-03   -0.33778E-03  4865   0.234E-02    0.436E-01
RMM:   5    -0.232495838497E+04    0.17320E-02   -0.18107E-03  4541   0.193E-02    0.783E-02
RMM:   6    -0.232495848056E+04   -0.95586E-04   -0.49817E-04  3400   0.115E-02    0.111E-01
RMM:   7    -0.232495834339E+04    0.13717E-03   -0.15360E-04  3065   0.653E-03    0.238E-02
RMM:   8    -0.232495834131E+04    0.20786E-05   -0.27608E-05  2893   0.293E-03
  10 F= -.23463753E+04 E0= -.23463753E+04  d E =-.226747E-06  mag=     5.0000
       N       E                     dE             d eps       ncg     rms          rms(c)
DAV:   1    -0.232498461277E+04   -0.26269E-01   -0.20616E+01  4560   0.182E+00    0.648E-01
RMM:   2    -0.232499554069E+04   -0.10928E-01   -0.14483E-01  4394   0.176E-01    0.345E-01
RMM:   3    -0.232499616896E+04   -0.62828E-03   -0.15180E-02  4121   0.725E-02    0.352E-01
RMM:   4    -0.232499607964E+04    0.89327E-04   -0.48300E-03  4725   0.278E-02    0.319E-01
RMM:   5    -0.232499562834E+04    0.45129E-03   -0.14032E-03  4011   0.185E-02    0.217E-01
RMM:   6    -0.232499521822E+04    0.41013E-03   -0.62129E-04  3668   0.117E-02    0.862E-02
RMM:   7    -0.232499517506E+04    0.43162E-04   -0.10708E-04  3081   0.640E-03    0.479E-02
RMM:   8    -0.232499515238E+04    0.22680E-04   -0.37670E-05  2884   0.388E-03    0.187E-02
RMM:   9    -0.232499515296E+04   -0.58739E-06   -0.97387E-06  2748   0.227E-03
  11 F= -.23464119E+04 E0= -.23464119E+04  d E =-.175225E-06  mag=     5.0000
       N       E                     dE             d eps       ncg     rms          rms(c)
DAV:   1    -0.232495241675E+04    0.42736E-01   -0.99081E+00  4520   0.134E+00    0.622E-01
RMM:   2    -0.232496482344E+04   -0.12407E-01   -0.15460E-01  4878   0.157E-01    0.517E-01
RMM:   3    -0.232496588622E+04   -0.10628E-02   -0.15921E-02  5103   0.690E-02    0.762E-01
RMM:   4    -0.232496049936E+04    0.53869E-02   -0.41507E-03  4888   0.272E-02    0.218E-01
RMM:   5    -0.232496104803E+04   -0.54867E-03   -0.24923E-03  4633   0.205E-02    0.273E-01
RMM:   6    -0.232496030537E+04    0.74266E-03   -0.13152E-03  4622   0.163E-02    0.816E-02
RMM:   7    -0.232496025611E+04    0.49264E-04   -0.15806E-04  3297   0.687E-03    0.512E-02
RMM:   8    -0.232496023717E+04    0.18936E-04   -0.65059E-05  2937   0.446E-03    0.311E-02
RMM:   9    -0.232496022918E+04    0.79926E-05   -0.20745E-05  2906   0.292E-03
  12 F= -.23463779E+04 E0= -.23463779E+04  d E =-.767301E-07  mag=     5.0000
       N       E                     dE             d eps       ncg     rms          rms(c)
DAV:   1    -0.232497374844E+04   -0.13511E-01   -0.19900E+01  4520   0.188E+00    0.781E-01
RMM:   2    -0.232499319351E+04   -0.19445E-01   -0.20321E-01  4627   0.194E-01    0.838E-01
RMM:   3    -0.232499389900E+04   -0.70549E-03   -0.28769E-02  4968   0.101E-01    0.888E-01
RMM:   4    -0.232498764317E+04    0.62558E-02   -0.76801E-03  5124   0.376E-02    0.387E-01
RMM:   5    -0.232498731271E+04    0.33047E-03   -0.40907E-03  4954   0.264E-02    0.300E-01
RMM:   6    -0.232498654645E+04    0.76625E-03   -0.17528E-03  4344   0.185E-02    0.668E-02
RMM:   7    -0.232498657743E+04   -0.30980E-04   -0.19134E-04  3254   0.932E-03    0.603E-02
RMM:   8    -0.232498656688E+04    0.10552E-04   -0.94066E-05  3020   0.498E-03    0.423E-02
RMM:   9    -0.232498656332E+04    0.35665E-05   -0.30389E-05  3028   0.371E-03
  13 F= -.23464026E+04 E0= -.23464026E+04  d E =-.539356E-06  mag=     5.0000
       N       E                     dE             d eps       ncg     rms          rms(c)
DAV:   1    -0.232497168601E+04    0.14881E-01   -0.52242E+00  4480   0.943E-01    0.511E-01
RMM:   2    -0.232498299106E+04   -0.11305E-01   -0.10206E-01  5082   0.116E-01    0.615E-01
RMM:   3    -0.232498117240E+04    0.18187E-02   -0.12478E-02  5338   0.565E-02    0.549E-01
RMM:   4    -0.232497886126E+04    0.23111E-02   -0.28386E-03  4446   0.219E-02    0.264E-01
RMM:   5    -0.232497867908E+04    0.18218E-03   -0.16948E-03  4060   0.171E-02    0.205E-01
RMM:   6    -0.232497830966E+04    0.36942E-03   -0.73261E-04  3571   0.124E-02    0.696E-02
RMM:   7    -0.232497835675E+04   -0.47092E-04   -0.24535E-04  3085   0.850E-03    0.803E-02
RMM:   8    -0.232497827696E+04    0.79795E-04   -0.65171E-05  2875   0.484E-03    0.170E-02
RMM:   9    -0.232497827915E+04   -0.21971E-05   -0.15431E-05  2867   0.255E-03
  14 F= -.23463945E+04 E0= -.23463945E+04  d E =-.105525E-06  mag=     5.0000
       N       E                     dE             d eps       ncg     rms          rms(c)
DAV:   1    -0.232497820812E+04    0.68842E-04   -0.11203E+00  4740   0.343E-01    0.528E-01
RMM:   2    -0.232497949177E+04   -0.12837E-02   -0.23053E-02  5350   0.654E-02    0.566E-01
RMM:   3    -0.232497888404E+04    0.60773E-03   -0.82935E-03  5656   0.429E-02    0.532E-01
RMM:   4    -0.232497708191E+04    0.18021E-02   -0.33155E-03  4939   0.243E-02    0.346E-01
RMM:   5    -0.232497615783E+04    0.92407E-03   -0.13405E-03  3811   0.159E-02    0.150E-01
RMM:   6    -0.232497590461E+04    0.25323E-03   -0.25169E-04  3578   0.822E-03    0.349E-02
RMM:   7    -0.232497591713E+04   -0.12519E-04   -0.84186E-05  3203   0.513E-03    0.366E-02
RMM:   8    -0.232497590614E+04    0.10988E-04   -0.29911E-05  2779   0.373E-03    0.166E-02
RMM:   9    -0.232497590516E+04    0.97415E-06   -0.50890E-06  2489   0.181E-03
  15 F= -.23463933E+04 E0= -.23463933E+04  d E =-.380882E-06  mag=     5.0000
       N       E                     dE             d eps       ncg     rms          rms(c)
DAV:   1    -0.232496896486E+04    0.69413E-02   -0.57298E-01  4560   0.267E-01    0.268E-01
RMM:   2    -0.232497152496E+04   -0.25601E-02   -0.10234E-02  5184   0.488E-02    0.515E-01
RMM:   3    -0.232496888355E+04    0.26414E-02   -0.27646E-03  4789   0.247E-02    0.163E-01
RMM:   4    -0.232496935034E+04   -0.46679E-03   -0.10976E-03  3533   0.125E-02    0.269E-01
RMM:   5    -0.232496868498E+04    0.66536E-03   -0.47648E-04  3367   0.102E-02    0.492E-02
RMM:   6    -0.232496868655E+04   -0.15711E-05   -0.90614E-05  2977   0.473E-03
  16 F= -.23463852E+04 E0= -.23463852E+04  d E =-.267208E-06  mag=     5.0000
       N       E                     dE             d eps       ncg     rms          rms(c)
DAV:   1    -0.232498202829E+04   -0.13343E-01   -0.11508E+00  4500   0.359E-01    0.329E-01
RMM:   2    -0.232498493792E+04   -0.29096E-02   -0.15696E-02  5103   0.624E-02    0.504E-01
RMM:   3    -0.232498264837E+04    0.22896E-02   -0.31688E-03  4657   0.255E-02    0.188E-01
RMM:   4    -0.232498319295E+04   -0.54458E-03   -0.14464E-03  4264   0.152E-02    0.296E-01
RMM:   5    -0.232498253914E+04    0.65381E-03   -0.90018E-04  3663   0.124E-02    0.126E-01
RMM:   6    -0.232498245565E+04    0.83483E-04   -0.18518E-04  3250   0.679E-03    0.644E-02
RMM:   7    -0.232498242084E+04    0.34811E-04   -0.71571E-05  2852   0.472E-03    0.302E-02
RMM:   8    -0.232498241790E+04    0.29397E-05   -0.23121E-05  2934   0.296E-03
  17 F= -.23463996E+04 E0= -.23463996E+04  d E =-.151657E-06  mag=     5.0000
       N       E                     dE             d eps       ncg     rms          rms(c)
DAV:   1    -0.232496678995E+04    0.15631E-01   -0.57687E-01  4480   0.258E-01    0.331E-01
RMM:   2    -0.232496729628E+04   -0.50633E-03   -0.89770E-03  4885   0.427E-02    0.267E-01
RMM:   3    -0.232496769455E+04   -0.39826E-03   -0.29194E-03  4538   0.228E-02    0.288E-01
RMM:   4    -0.232496693068E+04    0.76386E-03   -0.12618E-03  4241   0.152E-02    0.149E-01
RMM:   5    -0.232496709313E+04   -0.16245E-03   -0.63134E-04  3332   0.110E-02    0.191E-01
RMM:   6    -0.232496676765E+04    0.32549E-03   -0.19980E-04  3134   0.713E-03    0.400E-02
RMM:   7    -0.232496678415E+04   -0.16506E-04   -0.81006E-05  2891   0.447E-03    0.442E-02
RMM:   8    -0.232496676575E+04    0.18404E-04   -0.27494E-05  2870   0.338E-03    0.131E-02
RMM:   9    -0.232496676666E+04   -0.91264E-06   -0.49496E-06  2645   0.205E-03
  18 F= -.23463833E+04 E0= -.23463833E+04  d E =-.388358E-06  mag=     5.0000
       N       E                     dE             d eps       ncg     rms          rms(c)
DAV:   1    -0.232498989620E+04   -0.23130E-01   -0.11288E+00  4500   0.354E-01    0.436E-01
RMM:   2    -0.232499032824E+04   -0.43204E-03   -0.14231E-02  4926   0.535E-02    0.289E-01
RMM:   3    -0.232499217917E+04   -0.18509E-02   -0.47652E-03  5300   0.292E-02    0.507E-01
RMM:   4    -0.232499010939E+04    0.20698E-02   -0.23053E-03  4862   0.202E-02    0.209E-01
RMM:   5    -0.232499011744E+04   -0.80566E-05   -0.10238E-03  3843   0.131E-02    0.179E-01
RMM:   6    -0.232498972484E+04    0.39260E-03   -0.30953E-04  3471   0.908E-03    0.418E-02
RMM:   7    -0.232498976728E+04   -0.42442E-04   -0.11223E-04  3065   0.524E-03    0.632E-02
RMM:   8    -0.232498973300E+04    0.34286E-04   -0.39006E-05  2852   0.394E-03    0.132E-02
RMM:   9    -0.232498973653E+04   -0.35363E-05   -0.90304E-06  2720   0.215E-03
  19 F= -.23464068E+04 E0= -.23464068E+04  d E =-.110871E-06  mag=     5.0000
       N       E                     dE             d eps       ncg     rms          rms(c)
DAV:   1    -0.232498084207E+04    0.88909E-02   -0.59723E-01  4600   0.283E-01    0.271E-01
RMM:   2    -0.232498104285E+04   -0.20078E-03   -0.57106E-03  4223   0.350E-02    0.169E-01
RMM:   3    -0.232498173256E+04   -0.68971E-03   -0.17097E-03  4153   0.194E-02    0.300E-01
RMM:   4    -0.232498105048E+04    0.68208E-03   -0.96026E-04  3801   0.135E-02    0.134E-01
RMM:   5    -0.232498100455E+04    0.45927E-04   -0.33573E-04  3178   0.838E-03    0.954E-02
RMM:   6    -0.232498089627E+04    0.10828E-03   -0.82620E-05  2904   0.525E-03    0.190E-02
RMM:   7    -0.232498090445E+04   -0.81818E-05   -0.25684E-05  2730   0.282E-03
  20 F= -.23463973E+04 E0= -.23463973E+04  d E =-.227848E-06  mag=     5.0000
       N       E                     dE             d eps       ncg     rms          rms(c)
DAV:   1    -0.232497553583E+04    0.53604E-02   -0.12314E+00  4620   0.367E-01    0.376E-01
RMM:   2    -0.232497555523E+04   -0.19403E-04   -0.86619E-03  4025   0.346E-02    0.241E-01
RMM:   3    -0.232497759083E+04   -0.20356E-02   -0.35857E-03  4645   0.301E-02    0.484E-01
RMM:   4    -0.232497546673E+04    0.21241E-02   -0.20519E-03  4536   0.199E-02    0.150E-01
RMM:   5    -0.232497535430E+04    0.11243E-03   -0.38990E-04  3160   0.918E-03    0.934E-02
RMM:   6    -0.232497524815E+04    0.10614E-03   -0.98946E-05  2996   0.513E-03    0.156E-02
RMM:   7    -0.232497524651E+04    0.16410E-05   -0.22364E-05  2703   0.250E-03
  21 F= -.23463925E+04 E0= -.23463925E+04  d E =-.174487E-06  mag=     5.0000
       N       E                     dE             d eps       ncg     rms          rms(c)
DAV:   1    -0.232497688823E+04   -0.16401E-02   -0.61860E-01  4720   0.267E-01    0.269E-01
RMM:   2    -0.232497671242E+04    0.17581E-03   -0.42575E-03  3581   0.253E-02    0.170E-01
RMM:   3    -0.232497776054E+04   -0.10481E-02   -0.19948E-03  4001   0.220E-02    0.338E-01
RMM:   4    -0.232497665535E+04    0.11052E-02   -0.96074E-04  3801   0.139E-02    0.102E-01
RMM:   5    -0.232497659664E+04    0.58712E-04   -0.21654E-04  2903   0.696E-03    0.637E-02
RMM:   6    -0.232497656027E+04    0.36370E-04   -0.48179E-05  2758   0.358E-03    0.193E-02
RMM:   7    -0.232497656052E+04   -0.25523E-06   -0.15710E-05  2509   0.267E-03
  22 F= -.23463934E+04 E0= -.23463934E+04  d E =-.180715E-06  mag=     5.0000
       N       E                     dE             d eps       ncg     rms          rms(c)
DAV:   1    -0.232497387669E+04    0.26836E-02   -0.12709E+00  4860   0.390E-01    0.465E-01
RMM:   2    -0.232497224211E+04    0.16346E-02   -0.11825E-02  4188   0.436E-02    0.317E-01
RMM:   3    -0.232497506311E+04   -0.28210E-02   -0.58479E-03  5147   0.369E-02    0.585E-01
RMM:   4    -0.232497198491E+04    0.30782E-02   -0.34490E-03  4961   0.250E-02    0.226E-01
RMM:   5    -0.232497168170E+04    0.30321E-03   -0.78469E-04  3325   0.126E-02    0.137E-01
RMM:   6    -0.232497147012E+04    0.21158E-03   -0.28915E-04  3453   0.795E-03    0.319E-02
RMM:   7    -0.232497146493E+04    0.51905E-05   -0.30949E-05  2805   0.381E-03
  23 F= -.23463883E+04 E0= -.23463883E+04  d E =-.218075E-06  mag=     5.0000
       N       E                     dE             d eps       ncg     rms          rms(c)
DAV:   1    -0.232495047625E+04    0.20994E-01   -0.63869E-01  4600   0.261E-01    0.275E-01
RMM:   2    -0.232495046186E+04    0.14395E-04   -0.42423E-03  3617   0.253E-02    0.169E-01
RMM:   3    -0.232495126671E+04   -0.80486E-03   -0.19984E-03  4033   0.214E-02    0.282E-01
RMM:   4    -0.232495037209E+04    0.89463E-03   -0.84130E-04  3785   0.129E-02    0.835E-02
RMM:   5    -0.232495031111E+04    0.60973E-04   -0.12518E-04  2826   0.541E-03    0.345E-02
RMM:   6    -0.232495029665E+04    0.14461E-04   -0.25982E-05  2663   0.270E-03    0.117E-02
RMM:   7    -0.232495029815E+04   -0.14955E-05   -0.13195E-05  2409   0.223E-03
  24 F= -.23463668E+04 E0= -.23463668E+04  d E =-.191210E-06  mag=     5.0000
       N       E                     dE             d eps       ncg     rms          rms(c)
DAV:   1    -0.232499337588E+04   -0.43079E-01   -0.13047E+00  4980   0.363E-01    0.569E-01
RMM:   2    -0.232498946126E+04    0.39146E-02   -0.17942E-02  4052   0.559E-02    0.353E-01
RMM:   3    -0.232499321832E+04   -0.37571E-02   -0.93544E-03  5330   0.485E-02    0.678E-01
RMM:   4    -0.232498878181E+04    0.44365E-02   -0.47382E-03  5273   0.300E-02    0.227E-01
RMM:   5    -0.232498854394E+04    0.23787E-03   -0.93909E-04  3503   0.127E-02    0.172E-01
RMM:   6    -0.232498821275E+04    0.33119E-03   -0.48875E-04  3619   0.981E-03    0.463E-02
RMM:   7    -0.232498819572E+04    0.17027E-04   -0.67809E-05  3065   0.464E-03    0.223E-02
RMM:   8    -0.232498819828E+04   -0.25593E-05   -0.23871E-05  2613   0.328E-03
  25 F= -.23464054E+04 E0= -.23464054E+04  d E =-.213340E-06  mag=     5.0000
       N       E                     dE             d eps       ncg     rms          rms(c)
DAV:   1    -0.232499338529E+04   -0.51896E-02   -0.62556E-01  4840   0.314E-01    0.332E-01
RMM:   2    -0.232499272609E+04    0.65919E-03   -0.78676E-03  4095   0.386E-02    0.254E-01
RMM:   3    -0.232499378049E+04   -0.10544E-02   -0.30841E-03  4622   0.297E-02    0.394E-01
RMM:   4    -0.232499255210E+04    0.12284E-02   -0.20366E-03  4336   0.192E-02    0.194E-01
RMM:   5    -0.232499228660E+04    0.26551E-03   -0.49477E-04  3171   0.110E-02    0.998E-02
RMM:   6    -0.232499216686E+04    0.11974E-03   -0.14012E-04  3219   0.590E-03    0.243E-02
RMM:   7    -0.232499216557E+04    0.12869E-05   -0.42762E-05  2963   0.358E-03
  26 F= -.23464086E+04 E0= -.23464086E+04  d E =-.145155E-06  mag=     5.0000
       N       E                     dE             d eps       ncg     rms          rms(c)
DAV:   1    -0.232496375696E+04    0.28410E-01   -0.12077E+00  4580   0.418E-01    0.360E-01
RMM:   2    -0.232496416537E+04   -0.40841E-03   -0.88421E-03  4382   0.403E-02    0.270E-01
RMM:   3    -0.232496547839E+04   -0.13130E-02   -0.33071E-03  4649   0.298E-02    0.430E-01
RMM:   4    -0.232496411458E+04    0.13638E-02   -0.19193E-03  4418   0.195E-02    0.211E-01
RMM:   5    -0.232496391092E+04    0.20366E-03   -0.70931E-04  3243   0.124E-02    0.134E-01
RMM:   6    -0.232496371179E+04    0.19913E-03   -0.16182E-04  3264   0.686E-03    0.213E-02
RMM:   7    -0.232496371743E+04   -0.56353E-05   -0.42674E-05  2849   0.384E-03
  27 F= -.23463810E+04 E0= -.23463810E+04  d E =-.271671E-06  mag=     5.0000
       N       E                     dE             d eps       ncg     rms          rms(c)
DAV:   1    -0.232497714496E+04   -0.13433E-01   -0.63234E-01  4920   0.311E-01    0.377E-01
RMM:   2    -0.232497591230E+04    0.12327E-02   -0.97620E-03  4232   0.425E-02    0.272E-01
RMM:   3    -0.232497719303E+04   -0.12807E-02   -0.38932E-03  4877   0.323E-02    0.433E-01
RMM:   4    -0.232497559084E+04    0.16022E-02   -0.23134E-03  4547   0.209E-02    0.209E-01
RMM:   5    -0.232497534631E+04    0.24453E-03   -0.60026E-04  3202   0.118E-02    0.132E-01
RMM:   6    -0.232497514661E+04    0.19970E-03   -0.19006E-04  3269   0.688E-03    0.261E-02
RMM:   7    -0.232497514491E+04    0.16998E-05   -0.50474E-05  2958   0.374E-03
  28 F= -.23463915E+04 E0= -.23463915E+04  d E =-.204761E-06  mag=     5.0000
       N       E                     dE             d eps       ncg     rms          rms(c)
DAV:   1    -0.232496597374E+04    0.91729E-02   -0.12722E+00  5100   0.434E-01    0.579E-01
RMM:   2    -0.232496202008E+04    0.39537E-02   -0.24740E-02  4218   0.673E-02    0.366E-01
RMM:   3    -0.232496502149E+04   -0.30014E-02   -0.93599E-03  5252   0.524E-02    0.640E-01
RMM:   4    -0.232496121473E+04    0.38068E-02   -0.50272E-03  5248   0.306E-02    0.257E-01
RMM:   5    -0.232496095946E+04    0.25527E-03   -0.11602E-03  3528   0.147E-02    0.210E-01
RMM:   6    -0.232496050127E+04    0.45819E-03   -0.56095E-04  3670   0.106E-02    0.504E-02
RMM:   7    -0.232496049806E+04    0.32152E-05   -0.10836E-04  3188   0.549E-03    0.455E-02
RMM:   8    -0.232496047678E+04    0.21274E-04   -0.38295E-05  2693   0.408E-03    0.204E-02
RMM:   9    -0.232496047232E+04    0.44623E-05   -0.98799E-06  2576   0.206E-03
  29 F= -.23463778E+04 E0= -.23463778E+04  d E =-.192206E-06  mag=     5.0000
       N       E                     dE             d eps       ncg     rms          rms(c)
DAV:   1    -0.232497580722E+04   -0.15330E-01   -0.62270E-01  4820   0.313E-01    0.344E-01
RMM:   2    -0.232497468004E+04    0.11272E-02   -0.79511E-03  3912   0.369E-02    0.200E-01
RMM:   3    -0.232497465631E+04    0.23725E-04   -0.24674E-03  4125   0.254E-02    0.182E-01
RMM:   4    -0.232497446174E+04    0.19457E-03   -0.90131E-04  3682   0.128E-02    0.122E-01
RMM:   5    -0.232497431747E+04    0.14427E-03   -0.21550E-04  3316   0.747E-03    0.732E-02
RMM:   6    -0.232497430716E+04    0.10316E-04   -0.12225E-04  3016   0.541E-03    0.656E-02
RMM:   7    -0.232497426345E+04    0.43706E-04   -0.30164E-05  2815   0.380E-03    0.116E-02
RMM:   8    -0.232497426563E+04   -0.21794E-05   -0.10210E-05  2568   0.226E-03
  30 F= -.23463913E+04 E0= -.23463913E+04  d E =-.274469E-06  mag=     5.0000
       N       E                     dE             d eps       ncg     rms          rms(c)
DAV:   1    -0.232498112764E+04   -0.68642E-02   -0.12217E+00  4520   0.410E-01    0.347E-01
RMM:   2    -0.232498155794E+04   -0.43030E-03   -0.80800E-03  4316   0.390E-02    0.243E-01
RMM:   3    -0.232498352042E+04   -0.19625E-02   -0.34955E-03  4760   0.292E-02    0.481E-01
RMM:   4    -0.232498149872E+04    0.20217E-02   -0.19150E-03  4413   0.196E-02    0.175E-01
RMM:   5    -0.232498121815E+04    0.28058E-03   -0.35344E-04  3116   0.104E-02    0.536E-02
RMM:   6    -0.232498119215E+04    0.25996E-04   -0.42874E-05  2938   0.406E-03    0.151E-02
RMM:   7    -0.232498119619E+04   -0.40416E-05   -0.14424E-05  2747   0.259E-03
  31 F= -.23463978E+04 E0= -.23463978E+04  d E =-.146635E-06  mag=     5.0000
