       N       E                     dE             d eps       ncg     rms          rms(c)
DAV:   1     0.127349115993E+05    0.12735E+05   -0.83075E+05  4440   0.144E+03
DAV:   2    -0.107109357250E+04   -0.13806E+05   -0.13231E+05  5328   0.330E+02
DAV:   3    -0.247045190708E+04   -0.13994E+04   -0.13865E+04  5344   0.111E+02
DAV:   4    -0.251609179357E+04   -0.45640E+02   -0.45421E+02  6696   0.299E+01
DAV:   5    -0.251690537764E+04   -0.81358E+00   -0.81218E+00  5552   0.320E+00    0.171E+02
RMM:   6    -0.146876046819E+04    0.10481E+04   -0.19521E+03  4395   0.387E+01    0.731E+01
RMM:   7    -0.165735988912E+04   -0.18860E+03   -0.29399E+02  5011   0.140E+01    0.519E+01
RMM:   8    -0.170195398058E+04   -0.44594E+02   -0.58673E+01  5268   0.733E+00    0.427E+01
RMM:   9    -0.177957561832E+04   -0.77622E+02   -0.57217E+01  4894   0.701E+00    0.348E+01
RMM:  10    -0.192758269427E+04   -0.14801E+03   -0.64340E+01  5137   0.781E+00    0.189E+01
RMM:  11    -0.203734770166E+04   -0.10977E+03   -0.45366E+01  4955   0.544E+00    0.192E+01
RMM:  12    -0.213352706586E+04   -0.96179E+02   -0.54237E+01  4617   0.567E+00    0.152E+01
RMM:  13    -0.222325971939E+04   -0.89733E+02   -0.62735E+01  4546   0.590E+00    0.113E+01
RMM:  14    -0.229048827374E+04   -0.67229E+02   -0.59262E+01  4562   0.572E+00    0.490E+00
RMM:  15    -0.230718616322E+04   -0.16698E+02   -0.19357E+01  4834   0.364E+00    0.512E+00
RMM:  16    -0.231148690566E+04   -0.43007E+01   -0.56569E+00  5100   0.141E+00    0.160E+00
RMM:  17    -0.231347677280E+04   -0.19899E+01   -0.19121E+00  4795   0.920E-01    0.106E+00
RMM:  18    -0.231406339224E+04   -0.58662E+00   -0.98463E-01  4771   0.496E-01    0.157E+00
RMM:  19    -0.231408831381E+04   -0.24922E-01   -0.13484E-01  5170   0.221E-01    0.144E+00
RMM:  20    -0.231412362281E+04   -0.35309E-01   -0.30586E-02  4886   0.835E-02    0.139E+00
RMM:  21    -0.231418489651E+04   -0.61274E-01   -0.61896E-02  4491   0.133E-01    0.148E+00
RMM:  22    -0.231419084503E+04   -0.59485E-02   -0.11073E-02  4693   0.668E-02    0.153E+00
RMM:  23    -0.231418059110E+04    0.10254E-01   -0.85923E-03  4445   0.448E-02    0.103E+00
RMM:  24    -0.231421571280E+04   -0.35122E-01   -0.38669E-02  4431   0.121E-01    0.107E+00
RMM:  25    -0.231422007768E+04   -0.43649E-02   -0.35883E-02  4440   0.104E-01    0.111E+00
RMM:  26    -0.231421551788E+04    0.45598E-02   -0.11708E-02  5025   0.464E-02    0.113E+00
RMM:  27    -0.231422121634E+04   -0.56985E-02   -0.16789E-03  4619   0.191E-02    0.120E+00
RMM:  28    -0.231422158708E+04   -0.37074E-03   -0.75443E-04  3693   0.135E-02    0.127E+00
RMM:  29    -0.231419349118E+04    0.28096E-01   -0.57124E-02  4396   0.948E-02    0.128E+00
RMM:  30    -0.231397779248E+04    0.21570E+00   -0.22560E-01  4505   0.192E-01    0.260E+00
RMM:  31    -0.231413516343E+04   -0.15737E+00   -0.70759E-02  4674   0.116E-01    0.172E+00
RMM:  32    -0.231415813372E+04   -0.22970E-01   -0.15552E-02  4788   0.610E-02    0.156E+00
RMM:  33    -0.231422110173E+04   -0.62968E-01   -0.38233E-02  4692   0.756E-02    0.103E+00
RMM:  34    -0.231427091634E+04   -0.49815E-01   -0.63864E-02  4557   0.101E-01    0.491E-01
RMM:  35    -0.231427615622E+04   -0.52399E-02   -0.89276E-03  4601   0.506E-02    0.529E-01
RMM:  36    -0.231428101419E+04   -0.48580E-02   -0.44256E-03  4432   0.275E-02    0.557E-01
RMM:  37    -0.231428796539E+04   -0.69512E-02   -0.51639E-03  4286   0.364E-02    0.736E-01
RMM:  38    -0.231429588471E+04   -0.79193E-02   -0.10631E-02  4963   0.474E-02    0.100E+00
RMM:  39    -0.231429628004E+04   -0.39533E-03   -0.17114E-03  4293   0.196E-02    0.986E-01
RMM:  40    -0.231429663949E+04   -0.35945E-03   -0.24142E-04  3213   0.552E-03    0.102E+00
RMM:  41    -0.231429766402E+04   -0.10245E-02   -0.26466E-04  3463   0.836E-03    0.102E+00
RMM:  42    -0.231429963707E+04   -0.19731E-02   -0.18297E-03  4463   0.187E-02    0.876E-01
RMM:  43    -0.231429530614E+04    0.43309E-02   -0.26257E-03  4626   0.247E-02    0.567E-01
RMM:  44    -0.231429286633E+04    0.24398E-02   -0.32357E-03  4412   0.274E-02    0.400E-01
RMM:  45    -0.231428786626E+04    0.50001E-02   -0.80878E-03  4702   0.414E-02    0.355E-01
RMM:  46    -0.231428315672E+04    0.47095E-02   -0.71712E-03  4714   0.396E-02    0.427E-01
RMM:  47    -0.231428349633E+04   -0.33961E-03   -0.91689E-04  3736   0.129E-02    0.422E-01
RMM:  48    -0.231428302881E+04    0.46752E-03   -0.15396E-04  3176   0.556E-03    0.433E-01
RMM:  49    -0.231428463268E+04   -0.16039E-02   -0.42195E-04  3437   0.102E-02    0.396E-01
RMM:  50    -0.231429340725E+04   -0.87746E-02   -0.14832E-02  4533   0.542E-02    0.424E-01
RMM:  51    -0.231431517116E+04   -0.21764E-01   -0.57343E-02  4761   0.105E-01    0.133E+00
RMM:  52    -0.231431364411E+04    0.15270E-02   -0.53328E-03  4461   0.397E-02    0.121E+00
RMM:  53    -0.231431482007E+04   -0.11760E-02   -0.12025E-03  4195   0.108E-02    0.127E+00
RMM:  54    -0.231431642448E+04   -0.16044E-02   -0.30108E-04  3436   0.993E-03    0.131E+00
RMM:  55    -0.231431638828E+04    0.36201E-04   -0.38663E-05  2811   0.385E-03    0.131E+00
RMM:  56    -0.231431695983E+04   -0.57155E-03   -0.63710E-05  2882   0.427E-03    0.131E+00
RMM:  57    -0.231431757915E+04   -0.61932E-03   -0.10835E-04  2905   0.506E-03    0.129E+00
RMM:  58    -0.231431669284E+04    0.88630E-03   -0.48176E-04  3380   0.910E-03    0.115E+00
RMM:  59    -0.231432357381E+04   -0.68810E-02   -0.40845E-03  4684   0.271E-02    0.125E+00
RMM:  60    -0.231432662436E+04   -0.30506E-02   -0.20078E-03  4220   0.193E-02    0.124E+00
RMM:  61    -0.231432679970E+04   -0.17535E-03   -0.44341E-04  3491   0.821E-03    0.120E+00
RMM:  62    -0.231432341474E+04    0.33850E-02   -0.85033E-04  3959   0.129E-02    0.120E+00
RMM:  63    -0.231431885589E+04    0.45588E-02   -0.23599E-03  4566   0.204E-02    0.117E+00
RMM:  64    -0.231430850601E+04    0.10350E-01   -0.15588E-02  4981   0.520E-02    0.114E+00
RMM:  65    -0.231430118236E+04    0.73236E-02   -0.13718E-02  5058   0.496E-02    0.111E+00
RMM:  66    -0.231430504537E+04   -0.38630E-02   -0.12593E-03  4302   0.179E-02    0.124E+00
RMM:  67    -0.231430479374E+04    0.25163E-03   -0.16978E-04  2906   0.603E-03    0.122E+00
RMM:  68    -0.231430473370E+04    0.60042E-04   -0.14704E-05  2662   0.207E-03    0.123E+00
RMM:  69    -0.231430253532E+04    0.21984E-02   -0.70588E-04  3997   0.114E-02    0.120E+00
RMM:  70    -0.231430163495E+04    0.90036E-03   -0.42444E-04  3270   0.895E-03    0.120E+00
RMM:  71    -0.231429555486E+04    0.60801E-02   -0.63548E-03  4696   0.344E-02    0.104E+00
RMM:  72    -0.231428805517E+04    0.74997E-02   -0.17688E-02  4913   0.577E-02    0.106E+00
RMM:  73    -0.231428736341E+04    0.69176E-03   -0.39437E-03  4604   0.246E-02    0.110E+00
RMM:  74    -0.231428793865E+04   -0.57524E-03   -0.32620E-04  3378   0.804E-03    0.102E+00
RMM:  75    -0.231428426285E+04    0.36758E-02   -0.23041E-03  4400   0.220E-02    0.996E-01
RMM:  76    -0.231428190891E+04    0.23539E-02   -0.17554E-03  4156   0.201E-02    0.104E+00
RMM:  77    -0.231428327071E+04   -0.13618E-02   -0.24054E-04  3210   0.797E-03    0.108E+00
RMM:  78    -0.231428409040E+04   -0.81969E-03   -0.38127E-04  3270   0.848E-03    0.118E+00
RMM:  79    -0.231428405948E+04    0.30919E-04   -0.50422E-05  2811   0.425E-03    0.118E+00
RMM:  80    -0.231428415452E+04   -0.95047E-04   -0.13728E-05  2539   0.174E-03    0.118E+00
RMM:  81    -0.231428057426E+04    0.35803E-02   -0.37475E-03  4611   0.270E-02    0.146E+00
RMM:  82    -0.231428164151E+04   -0.10672E-02   -0.39607E-04  3473   0.117E-02    0.147E+00
RMM:  83    -0.231428156926E+04    0.72249E-04   -0.67859E-05  2855   0.406E-03    0.150E+00
RMM:  84    -0.231428439234E+04   -0.28231E-02   -0.13728E-03  4236   0.171E-02    0.145E+00
RMM:  85    -0.231428549907E+04   -0.11067E-02   -0.59481E-04  3511   0.116E-02    0.140E+00
RMM:  86    -0.231428986173E+04   -0.43627E-02   -0.49423E-03  4584   0.312E-02    0.145E+00
RMM:  87    -0.231429248534E+04   -0.26236E-02   -0.33981E-03  4398   0.268E-02    0.143E+00
RMM:  88    -0.231429322188E+04   -0.73655E-03   -0.10644E-03  4364   0.126E-02    0.143E+00
RMM:  89    -0.231429206701E+04    0.11549E-02   -0.20266E-04  3122   0.767E-03    0.141E+00
RMM:  90    -0.231428914704E+04    0.29200E-02   -0.39363E-03  4533   0.274E-02    0.140E+00
RMM:  91    -0.231425015447E+04    0.38993E-01   -0.12927E-01  4777   0.146E-01    0.184E+00
RMM:  92    -0.231424800723E+04    0.21472E-02   -0.11436E-02  4716   0.526E-02    0.188E+00
RMM:  93    -0.231425498515E+04   -0.69779E-02   -0.33134E-03  4020   0.227E-02    0.182E+00
RMM:  94    -0.231424498304E+04    0.10002E-01   -0.44943E-03  4362   0.248E-02    0.194E+00
RMM:  95    -0.231425321972E+04   -0.82367E-02   -0.21898E-03  4068   0.181E-02    0.179E+00
RMM:  96    -0.231390331850E+04    0.34990E+00   -0.53987E-01  4721   0.311E-01    0.370E+00
RMM:  97    -0.231395836390E+04   -0.55045E-01   -0.25431E-02  4948   0.777E-02    0.364E+00
RMM:  98    -0.231396927790E+04   -0.10914E-01   -0.22249E-03  4186   0.239E-02    0.363E+00
RMM:  99    -0.231396843431E+04    0.84359E-03   -0.34364E-04  3292   0.866E-03    0.363E+00
RMM: 100    -0.231397011519E+04   -0.16809E-02   -0.48151E-05  2867   0.416E-03    0.362E+00
RMM: 101    -0.231410879415E+04   -0.13868E+00   -0.85730E-02  4476   0.141E-01    0.327E+00
RMM: 102    -0.231414207174E+04   -0.33278E-01   -0.15115E-02  4234   0.698E-02    0.312E+00
RMM: 103    -0.231414019368E+04    0.18781E-02   -0.18474E-03  3650   0.234E-02    0.312E+00
RMM: 104    -0.231414964043E+04   -0.94468E-02   -0.22027E-03  3658   0.189E-02    0.304E+00
RMM: 105    -0.231419328872E+04   -0.43648E-01   -0.24182E-02  4596   0.545E-02    0.268E+00
RMM: 106    -0.231432127995E+04   -0.12799E+00   -0.95181E-01  4989   0.393E-01    0.113E+00
RMM: 107    -0.231432592876E+04   -0.46488E-02   -0.12270E-01  4940   0.154E-01    0.951E-01
RMM: 108    -0.231435040804E+04   -0.24479E-01   -0.14426E-01  5342   0.153E-01    0.103E+00
RMM: 109    -0.231435242035E+04   -0.20123E-02   -0.24888E-02  5189   0.669E-02    0.111E+00
RMM: 110    -0.231435170393E+04    0.71641E-03   -0.14683E-03  4529   0.134E-02    0.113E+00
RMM: 111    -0.231434667484E+04    0.50291E-02   -0.25527E-02  4802   0.650E-02    0.920E-01
RMM: 112    -0.231435776574E+04   -0.11091E-01   -0.13671E-02  5325   0.543E-02    0.954E-01
RMM: 113    -0.231436098175E+04   -0.32160E-02   -0.11613E-02  5095   0.454E-02    0.123E+00
RMM: 114    -0.231435993696E+04    0.10448E-02   -0.38390E-03  4842   0.250E-02    0.142E+00
RMM: 115    -0.231435682339E+04    0.31136E-02   -0.39224E-03  4786   0.260E-02    0.172E+00
RMM: 116    -0.231435444724E+04    0.23762E-02   -0.11943E-03  4460   0.167E-02    0.154E+00
RMM: 117    -0.231435341799E+04    0.10292E-02   -0.22768E-04  2988   0.731E-03    0.153E+00
RMM: 118    -0.231435463507E+04   -0.12171E-02   -0.95212E-04  4127   0.132E-02    0.137E+00
RMM: 119    -0.231435533705E+04   -0.70198E-03   -0.57250E-04  4074   0.109E-02    0.146E+00
RMM: 120    -0.231435709140E+04   -0.17543E-02   -0.10812E-03  4186   0.148E-02    0.127E+00
RMM: 121    -0.231435834392E+04   -0.12525E-02   -0.21741E-03  4523   0.196E-02    0.110E+00
RMM: 122    -0.231435849617E+04   -0.15226E-03   -0.12971E-02  4846   0.484E-02    0.166E+00
RMM: 123    -0.231435754114E+04    0.95503E-03   -0.13597E-03  4162   0.200E-02    0.173E+00
RMM: 124    -0.231435771323E+04   -0.17209E-03   -0.70633E-05  2949   0.390E-03    0.170E+00
RMM: 125    -0.231435753976E+04    0.17347E-03   -0.15389E-05  2744   0.255E-03    0.171E+00
RMM: 126    -0.231435533719E+04    0.22026E-02   -0.51976E-03  4884   0.298E-02    0.210E+00
RMM: 127    -0.231435522245E+04    0.11474E-03   -0.82196E-04  3581   0.131E-02    0.214E+00
RMM: 128    -0.231435548973E+04   -0.26728E-03   -0.64816E-05  2906   0.373E-03    0.214E+00
RMM: 129    -0.231435519022E+04    0.29950E-03   -0.37699E-05  2791   0.374E-03    0.217E+00
RMM: 130    -0.231435719049E+04   -0.20003E-02   -0.38881E-04  3247   0.822E-03    0.206E+00
RMM: 131    -0.231436186068E+04   -0.46702E-02   -0.54972E-02  4985   0.961E-02    0.888E-01
RMM: 132    -0.231436591887E+04   -0.40582E-02   -0.36694E-03  4769   0.380E-02    0.101E+00
RMM: 133    -0.231436396870E+04    0.19502E-02   -0.46206E-03  5180   0.258E-02    0.845E-01
RMM: 134    -0.231436515657E+04   -0.11879E-02   -0.12518E-03  4217   0.133E-02    0.786E-01
RMM: 135    -0.231436519302E+04   -0.36448E-04   -0.23615E-04  3198   0.657E-03    0.802E-01
RMM: 136    -0.231436390387E+04    0.12891E-02   -0.14438E-03  4209   0.168E-02    0.664E-01
RMM: 137    -0.231436776346E+04   -0.38596E-02   -0.60337E-03  4843   0.323E-02    0.886E-01
RMM: 138    -0.231436729871E+04    0.46475E-03   -0.33034E-04  3700   0.124E-02    0.791E-01
RMM: 139    -0.231436798208E+04   -0.68337E-03   -0.26707E-04  3263   0.740E-03    0.755E-01
RMM: 140    -0.231436792040E+04    0.61681E-04   -0.41988E-04  3384   0.890E-03    0.669E-01
RMM: 141    -0.231436849618E+04   -0.57579E-03   -0.12396E-02  4770   0.453E-02    0.126E+00
RMM: 142    -0.231436793298E+04    0.56320E-03   -0.70402E-04  4251   0.171E-02    0.110E+00
RMM: 143    -0.231436842122E+04   -0.48823E-03   -0.11323E-04  3001   0.599E-03    0.105E+00
RMM: 144    -0.231436877636E+04   -0.35514E-03   -0.54161E-04  3655   0.100E-02    0.937E-01
RMM: 145    -0.231436926859E+04   -0.49223E-03   -0.58346E-04  3456   0.106E-02    0.846E-01
RMM: 146    -0.231437269353E+04   -0.34249E-02   -0.33691E-03  4599   0.239E-02    0.109E+00
RMM: 147    -0.231437285477E+04   -0.16124E-03   -0.41291E-04  3072   0.987E-03    0.110E+00
RMM: 148    -0.231437336886E+04   -0.51409E-03   -0.14590E-04  2973   0.518E-03    0.114E+00
RMM: 149    -0.231437366914E+04   -0.30028E-03   -0.82497E-05  2888   0.440E-03    0.116E+00
RMM: 150    -0.231437401747E+04   -0.34834E-03   -0.12009E-04  2968   0.515E-03    0.120E+00
RMM: 151    -0.231436896695E+04    0.50505E-02   -0.34752E-02  4767   0.748E-02    0.333E-01
RMM: 152    -0.231437078551E+04   -0.18186E-02   -0.30164E-03  4584   0.308E-02    0.358E-01
RMM: 153    -0.231437135444E+04   -0.56893E-03   -0.60467E-04  4626   0.130E-02    0.396E-01
RMM: 154    -0.231437087281E+04    0.48163E-03   -0.24810E-04  3646   0.958E-03    0.343E-01
RMM: 155    -0.231437049375E+04    0.37906E-03   -0.17446E-04  3163   0.699E-03    0.299E-01
RMM: 156    -0.231436979682E+04    0.69692E-03   -0.48678E-04  3801   0.998E-03    0.234E-01
RMM: 157    -0.231436976120E+04    0.35627E-04   -0.12109E-04  2892   0.579E-03    0.213E-01
RMM: 158    -0.231436969135E+04    0.69851E-04   -0.61109E-05  2833   0.435E-03    0.195E-01
RMM: 159    -0.231436958959E+04    0.10175E-03   -0.91937E-05  2912   0.550E-03    0.167E-01
RMM: 160    -0.231436947650E+04    0.11309E-03   -0.14159E-04  2966   0.597E-03    0.131E-01
RMM: 161    -0.231436937791E+04    0.98598E-04   -0.22940E-04  3129   0.725E-03    0.874E-02
RMM: 162    -0.231436932368E+04    0.54225E-04   -0.21153E-04  3103   0.706E-03    0.502E-02
RMM: 163    -0.231436930776E+04    0.15920E-04   -0.11883E-04  2834   0.594E-03    0.256E-02
RMM: 164    -0.231436930771E+04    0.47934E-07   -0.52393E-05  2816   0.460E-03
   1 F= -.23346712E+04 E0= -.23346711E+04  d E =-.233467E+04  mag=     3.9992
       N       E                     dE             d eps       ncg     rms          rms(c)
DAV:   1    -0.231396647919E+04    0.40283E+00   -0.10892E+02  4456   0.528E+00    0.284E+00
RMM:   2    -0.231485307525E+04   -0.88660E+00   -0.91604E+00  6253   0.124E+00    0.297E+00
RMM:   3    -0.231486571785E+04   -0.12643E-01   -0.87829E-01  6115   0.469E-01    0.286E+00
RMM:   4    -0.231481650267E+04    0.49215E-01   -0.10558E-01  5979   0.121E-01    0.114E+00
RMM:   5    -0.231480251583E+04    0.13987E-01   -0.43744E-02  5270   0.970E-02    0.514E-01
RMM:   6    -0.231480248054E+04    0.35299E-04   -0.12340E-02  5409   0.661E-02    0.340E-01
RMM:   7    -0.231480183450E+04    0.64604E-03   -0.25741E-03  4940   0.282E-02    0.161E-01
RMM:   8    -0.231480153402E+04    0.30048E-03   -0.66511E-04  4416   0.155E-02    0.103E-01
RMM:   9    -0.231480141374E+04    0.12029E-03   -0.31194E-04  4203   0.106E-02    0.656E-02
RMM:  10    -0.231480137575E+04    0.37980E-04   -0.96097E-05  3122   0.741E-03    0.295E-02
RMM:  11    -0.231480135143E+04    0.24329E-04   -0.49047E-05  3104   0.516E-03    0.167E-02
RMM:  12    -0.231480133057E+04    0.20858E-04   -0.49304E-05  3259   0.581E-03    0.880E-03
RMM:  13    -0.231480132916E+04    0.14086E-05   -0.13547E-05  2855   0.455E-03
   2 F= -.23351084E+04 E0= -.23351084E+04  d E =-.437179E+00  mag=     3.9999
       N       E                     dE             d eps       ncg     rms          rms(c)
DAV:   1    -0.231479075418E+04    0.10576E-01   -0.83054E+00  4496   0.146E+00    0.734E-01
RMM:   2    -0.231484621471E+04   -0.55461E-01   -0.57393E-01  6364   0.313E-01    0.885E-01
RMM:   3    -0.231484534906E+04    0.86566E-03   -0.49288E-02  6216   0.110E-01    0.770E-01
RMM:   4    -0.231484138434E+04    0.39647E-02   -0.70222E-03  5745   0.328E-02    0.278E-01
RMM:   5    -0.231484062058E+04    0.76376E-03   -0.34653E-03  4906   0.291E-02    0.108E-01
RMM:   6    -0.231484065311E+04   -0.32534E-04   -0.52897E-04  4341   0.179E-02    0.874E-02
RMM:   7    -0.231484061542E+04    0.37698E-04   -0.13319E-04  3298   0.682E-03    0.429E-02
RMM:   8    -0.231484058562E+04    0.29798E-04   -0.53017E-05  2922   0.547E-03    0.206E-02
RMM:   9    -0.231484058199E+04    0.36270E-05   -0.22699E-05  2885   0.407E-03
   3 F= -.23351460E+04 E0= -.23351460E+04  d E =-.474820E+00  mag=     4.0000
       N       E                     dE             d eps       ncg     rms          rms(c)
DAV:   1    -0.231464800912E+04    0.19258E+00   -0.18756E+01  4520   0.293E+00    0.180E+00
RMM:   2    -0.231505691095E+04   -0.40890E+00   -0.37690E+00  6557   0.807E-01    0.290E+00
RMM:   3    -0.231503418693E+04    0.22724E-01   -0.44199E-01  6407   0.291E-01    0.126E+00
RMM:   4    -0.231502744522E+04    0.67417E-02   -0.51709E-02  5550   0.687E-02    0.490E-01
RMM:   5    -0.231502543553E+04    0.20097E-02   -0.68907E-03  5426   0.419E-02    0.480E-01
RMM:   6    -0.231502439044E+04    0.10451E-02   -0.59231E-03  5122   0.382E-02    0.189E-01
RMM:   7    -0.231502414229E+04    0.24814E-03   -0.59740E-04  4129   0.126E-02    0.854E-02
RMM:   8    -0.231502410211E+04    0.40185E-04   -0.23118E-04  3117   0.724E-03    0.465E-02
RMM:   9    -0.231502407912E+04    0.22986E-04   -0.57351E-05  2916   0.550E-03    0.152E-02
RMM:  10    -0.231502407627E+04    0.28538E-05   -0.23096E-05  2895   0.430E-03
   4 F= -.23353335E+04 E0= -.23353335E+04  d E =-.187445E+00  mag=     4.0000
       N       E                     dE             d eps       ncg     rms          rms(c)
DAV:   1    -0.231439177869E+04    0.63230E+00   -0.35277E+01  4604   0.413E+00    0.241E+00
RMM:   2    -0.231518428243E+04   -0.79250E+00   -0.72515E+00  6543   0.114E+00    0.407E+00
RMM:   3    -0.231511944967E+04    0.64833E-01   -0.81527E-01  6377   0.384E-01    0.156E+00
RMM:   4    -0.231511162688E+04    0.78228E-02   -0.97435E-02  5709   0.890E-02    0.595E-01
RMM:   5    -0.231510867568E+04    0.29512E-02   -0.10479E-02  5337   0.489E-02    0.639E-01
RMM:   6    -0.231510627068E+04    0.24050E-02   -0.11567E-02  5086   0.518E-02    0.298E-01
RMM:   7    -0.231510560705E+04    0.66363E-03   -0.12655E-03  5150   0.193E-02    0.631E-02
RMM:   8    -0.231510559326E+04    0.13789E-04   -0.19696E-04  3329   0.894E-03    0.561E-02
RMM:   9    -0.231510554961E+04    0.43653E-04   -0.81209E-05  2999   0.616E-03    0.213E-02
RMM:  10    -0.231510553646E+04    0.13147E-04   -0.43256E-05  2914   0.485E-03    0.100E-02
RMM:  11    -0.231510553231E+04    0.41521E-05   -0.11843E-05  2872   0.373E-03
   5 F= -.23354212E+04 E0= -.23354212E+04  d E =-.275194E+00  mag=     4.0000
       N       E                     dE             d eps       ncg     rms          rms(c)
DAV:   1    -0.231482686480E+04    0.27867E+00   -0.14626E+01  4560   0.260E+00    0.168E+00
RMM:   2    -0.231528952555E+04   -0.46266E+00   -0.41951E+00  6547   0.729E-01    0.313E+00
RMM:   3    -0.231525928178E+04    0.30244E-01   -0.46152E-01  6314   0.263E-01    0.106E+00
RMM:   4    -0.231525464647E+04    0.46353E-02   -0.50843E-02  5557   0.612E-02    0.350E-01
RMM:   5    -0.231525318199E+04    0.14645E-02   -0.28736E-03  5047   0.271E-02    0.358E-01
RMM:   6    -0.231525223791E+04    0.94408E-03   -0.58536E-03  4988   0.384E-02    0.173E-01
RMM:   7    -0.231525199620E+04    0.24170E-03   -0.49218E-04  4719   0.146E-02    0.411E-02
RMM:   8    -0.231525196946E+04    0.26742E-04   -0.83853E-05  3026   0.585E-03    0.342E-02
RMM:   9    -0.231525195286E+04    0.16603E-04   -0.37034E-05  2868   0.451E-03    0.111E-02
RMM:  10    -0.231525194939E+04    0.34716E-05   -0.17267E-05  2865   0.370E-03
   6 F= -.23355719E+04 E0= -.23355719E+04  d E =-.150726E+00  mag=     4.0000
       N       E                     dE             d eps       ncg     rms          rms(c)
DAV:   1    -0.231114090079E+04    0.41111E+01   -0.13234E+02  4392   0.787E+00    0.499E+00
RMM:   2    -0.231556406541E+04   -0.44232E+01   -0.41934E+01  6530   0.241E+00    0.769E+00
RMM:   3    -0.231559890016E+04   -0.34835E-01   -0.46369E+00  6311   0.825E-01    0.454E+00
RMM:   4    -0.231546331166E+04    0.13559E+00   -0.36831E-01  5823   0.180E-01    0.119E+00
RMM:   5    -0.231545253459E+04    0.10777E-01   -0.31418E-02  5199   0.730E-02    0.112E+00
RMM:   6    -0.231543964426E+04    0.12890E-01   -0.56792E-02  5062   0.107E-01    0.461E-01
RMM:   7    -0.231543810980E+04    0.15345E-02   -0.84750E-03  5484   0.537E-02    0.184E-01
RMM:   8    -0.231543787986E+04    0.22994E-03   -0.12333E-03  4800   0.206E-02    0.145E-01
RMM:   9    -0.231543770369E+04    0.17617E-03   -0.40371E-04  4247   0.158E-02    0.355E-02
RMM:  10    -0.231543766417E+04    0.39527E-04   -0.15580E-04  3826   0.757E-03    0.272E-02
RMM:  11    -0.231543764964E+04    0.14529E-04   -0.52017E-05  2998   0.672E-03    0.103E-02
RMM:  12    -0.231543764817E+04    0.14641E-05   -0.25245E-05  2952   0.461E-03
   7 F= -.23357739E+04 E0= -.23357739E+04  d E =-.352725E+00  mag=     4.0000
       N       E                     dE             d eps       ncg     rms          rms(c)
DAV:   1    -0.231472054866E+04    0.71710E+00   -0.40095E+01  4424   0.458E+00    0.252E+00
RMM:   2    -0.231562950054E+04   -0.90895E+00   -0.84993E+00  6240   0.113E+00    0.411E+00
RMM:   3    -0.231561868038E+04    0.10820E-01   -0.10007E+00  6091   0.435E-01    0.221E+00
RMM:   4    -0.231559042505E+04    0.28255E-01   -0.97786E-02  5472   0.103E-01    0.576E-01
RMM:   5    -0.231558672235E+04    0.37027E-02   -0.91564E-03  5148   0.557E-02    0.540E-01
RMM:   6    -0.231558442136E+04    0.23010E-02   -0.16589E-02  5020   0.686E-02    0.192E-01
RMM:   7    -0.231558396951E+04    0.45185E-03   -0.13404E-03  5131   0.338E-02    0.768E-02
RMM:   8    -0.231558382970E+04    0.13981E-03   -0.40774E-04  4190   0.102E-02    0.474E-02
RMM:   9    -0.231558377935E+04    0.50355E-04   -0.11676E-04  3505   0.856E-03    0.174E-02
RMM:  10    -0.231558377008E+04    0.92679E-05   -0.55145E-05  3455   0.573E-03
   8 F= -.23359295E+04 E0= -.23359295E+04  d E =-.155534E+00  mag=     4.0000
       N       E                     dE             d eps       ncg     rms          rms(c)
DAV:   1    -0.231545503199E+04    0.12875E+00   -0.68709E+00  4688   0.188E+00    0.106E+00
RMM:   2    -0.231561480294E+04   -0.15977E+00   -0.14035E+00  6279   0.451E-01    0.215E+00
RMM:   3    -0.231559717543E+04    0.17628E-01   -0.15360E-01  6091   0.167E-01    0.673E-01
RMM:   4    -0.231559498265E+04    0.21928E-02   -0.16386E-02  5021   0.408E-02    0.224E-01
RMM:   5    -0.231559443004E+04    0.55260E-03   -0.14666E-03  5080   0.242E-02    0.251E-01
RMM:   6    -0.231559398792E+04    0.44212E-03   -0.24417E-03  5039   0.275E-02    0.895E-02
RMM:   7    -0.231559391053E+04    0.77388E-04   -0.18468E-04  4029   0.123E-02    0.273E-02
RMM:   8    -0.231559389133E+04    0.19207E-04   -0.51184E-05  2987   0.499E-03    0.168E-02
RMM:   9    -0.231559389148E+04   -0.15181E-06   -0.27389E-05  2907   0.421E-03
   9 F= -.23359435E+04 E0= -.23359435E+04  d E =-.169593E+00  mag=     4.0000
       N       E                     dE             d eps       ncg     rms          rms(c)
DAV:   1    -0.231505207580E+04    0.54182E+00   -0.34564E+01  4408   0.423E+00    0.232E+00
RMM:   2    -0.231573789867E+04   -0.68582E+00   -0.63436E+00  6245   0.104E+00    0.387E+00
RMM:   3    -0.231570547605E+04    0.32423E-01   -0.70449E-01  6085   0.369E-01    0.195E+00
RMM:   4    -0.231568568001E+04    0.19796E-01   -0.72563E-02  5229   0.907E-02    0.533E-01
RMM:   5    -0.231568232284E+04    0.33572E-02   -0.84395E-03  5297   0.543E-02    0.486E-01
RMM:   6    -0.231568069595E+04    0.16269E-02   -0.10430E-02  5141   0.554E-02    0.176E-01
RMM:   7    -0.231568043817E+04    0.25777E-03   -0.87480E-04  5004   0.263E-02    0.767E-02
RMM:   8    -0.231568036641E+04    0.71769E-04   -0.24859E-04  3858   0.799E-03    0.485E-02
RMM:   9    -0.231568032396E+04    0.42447E-04   -0.98451E-05  3218   0.745E-03    0.146E-02
RMM:  10    -0.231568031532E+04    0.86417E-05   -0.36174E-05  3054   0.527E-03
  10 F= -.23360381E+04 E0= -.23360381E+04  d E =-.945604E-01  mag=     4.0000
       N       E                     dE             d eps       ncg     rms          rms(c)
DAV:   1    -0.231566618345E+04    0.14141E-01   -0.83716E-01  4904   0.652E-01    0.362E-01
RMM:   2    -0.231568300224E+04   -0.16819E-01   -0.15020E-01  6298   0.154E-01    0.690E-01
RMM:   3    -0.231568130845E+04    0.16938E-02   -0.16381E-02  5833   0.544E-02    0.259E-01
RMM:   4    -0.231568093595E+04    0.37251E-03   -0.16616E-03  4386   0.144E-02    0.789E-02
RMM:   5    -0.231568085772E+04    0.78231E-04   -0.21188E-04  3807   0.925E-03    0.795E-02
RMM:   6    -0.231568081233E+04    0.45386E-04   -0.22910E-04  3905   0.992E-03    0.219E-02
RMM:   7    -0.231568080805E+04    0.42870E-05   -0.21255E-05  2877   0.591E-03
  11 F= -.23360398E+04 E0= -.23360398E+04  d E =-.962945E-01  mag=     4.0000
       N       E                     dE             d eps       ncg     rms          rms(c)
DAV:   1    -0.231544633866E+04    0.23447E+00   -0.14420E+01  4472   0.259E+00    0.148E+00
RMM:   2    -0.231576931358E+04   -0.32297E+00   -0.28866E+00  6440   0.647E-01    0.288E+00
RMM:   3    -0.231573825739E+04    0.31056E-01   -0.31626E-01  6184   0.222E-01    0.988E-01
RMM:   4    -0.231573489906E+04    0.33583E-02   -0.31741E-02  5224   0.513E-02    0.379E-01
RMM:   5    -0.231573352178E+04    0.13773E-02   -0.34293E-03  5213   0.271E-02    0.393E-01
RMM:   6    -0.231573267737E+04    0.84441E-03   -0.49993E-03  5005   0.325E-02    0.184E-01
RMM:   7    -0.231573244276E+04    0.23461E-03   -0.49958E-04  4249   0.126E-02    0.430E-02
RMM:   8    -0.231573242860E+04    0.14167E-04   -0.60186E-05  2899   0.559E-03    0.347E-02
RMM:   9    -0.231573241531E+04    0.13286E-04   -0.53204E-05  2869   0.448E-03    0.137E-02
RMM:  10    -0.231573241690E+04   -0.15897E-05   -0.15872E-05  2871   0.310E-03
  12 F= -.23360969E+04 E0= -.23360969E+04  d E =-.570612E-01  mag=     4.0000
       N       E                     dE             d eps       ncg     rms          rms(c)
DAV:   1    -0.231570373392E+04    0.28681E-01   -0.15668E+00  4864   0.853E-01    0.488E-01
RMM:   2    -0.231573864756E+04   -0.34914E-01   -0.31081E-01  6417   0.206E-01    0.972E-01
RMM:   3    -0.231573510437E+04    0.35432E-02   -0.33237E-02  5929   0.717E-02    0.323E-01
RMM:   4    -0.231573470477E+04    0.39961E-03   -0.34576E-03  4438   0.173E-02    0.120E-01
RMM:   5    -0.231573455868E+04    0.14608E-03   -0.34466E-04  3895   0.935E-03    0.125E-01
RMM:   6    -0.231573447234E+04    0.86348E-04   -0.52023E-04  3728   0.120E-02    0.522E-02
RMM:   7    -0.231573445541E+04    0.16928E-04   -0.48743E-05  2913   0.571E-03    0.144E-02
RMM:   8    -0.231573445356E+04    0.18456E-05   -0.82896E-06  2841   0.282E-03
  13 F= -.23361007E+04 E0= -.23361007E+04  d E =-.609099E-01  mag=     4.0000
       N       E                     dE             d eps       ncg     rms          rms(c)
DAV:   1    -0.231551127519E+04    0.22318E+00   -0.13664E+01  4408   0.272E+00    0.149E+00
RMM:   2    -0.231582243076E+04   -0.31116E+00   -0.27327E+00  6261   0.641E-01    0.295E+00
RMM:   3    -0.231578967476E+04    0.32756E-01   -0.29249E-01  6046   0.224E-01    0.965E-01
RMM:   4    -0.231578549112E+04    0.41836E-02   -0.29788E-02  4981   0.549E-02    0.319E-01
RMM:   5    -0.231578442820E+04    0.10629E-02   -0.25394E-03  5103   0.290E-02    0.342E-01
RMM:   6    -0.231578372247E+04    0.70574E-03   -0.38687E-03  5083   0.329E-02    0.136E-01
RMM:   7    -0.231578359454E+04    0.12792E-03   -0.34390E-04  4339   0.135E-02    0.380E-02
RMM:   8    -0.231578358408E+04    0.10460E-04   -0.63949E-05  2963   0.564E-03    0.287E-02
RMM:   9    -0.231578358692E+04   -0.28367E-05   -0.36961E-05  2879   0.440E-03
  14 F= -.23361557E+04 E0= -.23361557E+04  d E =-.549534E-01  mag=     4.0000
       N       E                     dE             d eps       ncg     rms          rms(c)
DAV:   1    -0.231559820240E+04    0.18538E+00   -0.98670E+00  4420   0.232E+00    0.128E+00
RMM:   2    -0.231582504622E+04   -0.22684E+00   -0.19695E+00  6261   0.544E-01    0.260E+00
RMM:   3    -0.231579784532E+04    0.27201E-01   -0.21056E-01  6051   0.190E-01    0.789E-01
RMM:   4    -0.231579515669E+04    0.26886E-02   -0.21963E-02  4894   0.469E-02    0.271E-01
RMM:   5    -0.231579439292E+04    0.76377E-03   -0.19234E-03  5059   0.254E-02    0.300E-01
RMM:   6    -0.231579385047E+04    0.54245E-03   -0.27834E-03  5052   0.279E-02    0.114E-01
RMM:   7    -0.231579376407E+04    0.86402E-04   -0.24664E-04  3977   0.116E-02    0.309E-02
RMM:   8    -0.231579376202E+04    0.20539E-05   -0.44262E-05  2902   0.505E-03
  15 F= -.23361708E+04 E0= -.23361708E+04  d E =-.700513E-01  mag=     4.0000
       N       E                     dE             d eps       ncg     rms          rms(c)
DAV:   1    -0.231563116744E+04    0.16260E+00   -0.91676E+00  4432   0.228E+00    0.126E+00
RMM:   2    -0.231585799568E+04   -0.22683E+00   -0.19704E+00  6149   0.523E-01    0.261E+00
RMM:   3    -0.231583269973E+04    0.25296E-01   -0.20390E-01  5948   0.189E-01    0.803E-01
RMM:   4    -0.231582953808E+04    0.31616E-02   -0.21002E-02  4910   0.475E-02    0.249E-01
RMM:   5    -0.231582876637E+04    0.77172E-03   -0.17641E-03  5046   0.265E-02    0.275E-01
RMM:   6    -0.231582823583E+04    0.53053E-03   -0.26292E-03  5014   0.283E-02    0.828E-02
RMM:   7    -0.231582817280E+04    0.63031E-04   -0.20348E-04  4105   0.133E-02    0.295E-02
RMM:   8    -0.231582814869E+04    0.24108E-04   -0.52180E-05  3030   0.519E-03    0.197E-02
RMM:   9    -0.231582813920E+04    0.94968E-05   -0.22580E-05  2874   0.420E-03
  16 F= -.23362094E+04 E0= -.23362094E+04  d E =-.386572E-01  mag=     4.0000
       N       E                     dE             d eps       ncg     rms          rms(c)
DAV:   1    -0.231574427096E+04    0.83878E-01   -0.41600E+00  4480   0.153E+00    0.855E-01
RMM:   2    -0.231584949773E+04   -0.10523E+00   -0.89252E-01  6168   0.349E-01    0.189E+00
RMM:   3    -0.231583454865E+04    0.14949E-01   -0.91122E-02  5927   0.127E-01    0.499E-01
RMM:   4    -0.231583341731E+04    0.11313E-02   -0.96518E-03  4769   0.320E-02    0.168E-01
RMM:   5    -0.231583307806E+04    0.33925E-03   -0.89070E-04  4788   0.189E-02    0.203E-01
RMM:   6    -0.231583278557E+04    0.29249E-03   -0.12109E-03  4865   0.192E-02    0.575E-02
RMM:   7    -0.231583275341E+04    0.32155E-04   -0.10469E-04  3312   0.932E-03    0.195E-02
RMM:   8    -0.231583273863E+04    0.14778E-04   -0.26945E-05  2878   0.424E-03    0.147E-02
RMM:   9    -0.231583273282E+04    0.58168E-05   -0.15584E-05  2847   0.368E-03
  17 F= -.23362169E+04 E0= -.23362169E+04  d E =-.460870E-01  mag=     4.0000
       N       E                     dE             d eps       ncg     rms          rms(c)
DAV:   1    -0.231575541088E+04    0.77328E-01   -0.45624E+00  4432   0.155E+00    0.878E-01
RMM:   2    -0.231587299366E+04   -0.11758E+00   -0.99275E-01  6230   0.352E-01    0.200E+00
RMM:   3    -0.231585658661E+04    0.16407E-01   -0.10075E-01  5962   0.125E-01    0.503E-01
RMM:   4    -0.231585560108E+04    0.98553E-03   -0.10571E-02  4748   0.316E-02    0.172E-01
RMM:   5    -0.231585529160E+04    0.30948E-03   -0.83312E-04  4502   0.172E-02    0.213E-01
RMM:   6    -0.231585501585E+04    0.27576E-03   -0.13191E-03  4580   0.190E-02    0.595E-02
RMM:   7    -0.231585499311E+04    0.22738E-04   -0.11466E-04  3094   0.871E-03    0.195E-02
RMM:   8    -0.231585498630E+04    0.68060E-05   -0.22193E-05  2852   0.374E-03
  18 F= -.23362416E+04 E0= -.23362416E+04  d E =-.247462E-01  mag=     4.0000
       N       E                     dE             d eps       ncg     rms          rms(c)
DAV:   1    -0.231575124079E+04    0.10375E+00   -0.50708E+00  4432   0.162E+00    0.934E-01
RMM:   2    -0.231588370798E+04   -0.13247E+00   -0.11054E+00  6232   0.371E-01    0.219E+00
RMM:   3    -0.231586354916E+04    0.20159E-01   -0.11228E-01  5951   0.131E-01    0.529E-01
RMM:   4    -0.231586248670E+04    0.10625E-02   -0.11845E-02  4755   0.334E-02    0.183E-01
RMM:   5    -0.231586214939E+04    0.33731E-03   -0.94836E-04  4575   0.182E-02    0.229E-01
RMM:   6    -0.231586182863E+04    0.32077E-03   -0.14583E-03  4681   0.200E-02    0.637E-02
RMM:   7    -0.231586180139E+04    0.27231E-04   -0.12687E-04  3181   0.901E-03    0.205E-02
RMM:   8    -0.231586179286E+04    0.85357E-05   -0.25607E-05  2854   0.400E-03
  19 F= -.23362510E+04 E0= -.23362510E+04  d E =-.341253E-01  mag=     4.0000
       N       E                     dE             d eps       ncg     rms          rms(c)
DAV:   1    -0.231576267924E+04    0.99122E-01   -0.54734E+00  4432   0.176E+00    0.101E+00
RMM:   2    -0.231591067138E+04   -0.14799E+00   -0.12191E+00  6263   0.413E-01    0.240E+00
RMM:   3    -0.231588468343E+04    0.25988E-01   -0.12932E-01  5997   0.143E-01    0.565E-01
RMM:   4    -0.231588357312E+04    0.11103E-02   -0.13506E-02  4820   0.352E-02    0.214E-01
RMM:   5    -0.231588319988E+04    0.37323E-03   -0.12917E-03  4814   0.198E-02    0.249E-01
RMM:   6    -0.231588284764E+04    0.35224E-03   -0.15272E-03  4804   0.206E-02    0.794E-02
RMM:   7    -0.231588281232E+04    0.35320E-04   -0.13369E-04  3207   0.876E-03    0.220E-02
RMM:   8    -0.231588280982E+04    0.24988E-05   -0.21588E-05  2871   0.397E-03
  20 F= -.23362746E+04 E0= -.23362746E+04  d E =-.236103E-01  mag=     4.0000
       N       E                     dE             d eps       ncg     rms          rms(c)
DAV:   1    -0.231578184328E+04    0.10097E+00   -0.48245E+00  4420   0.166E+00    0.953E-01
RMM:   2    -0.231591340118E+04   -0.13156E+00   -0.10753E+00  6261   0.386E-01    0.230E+00
RMM:   3    -0.231588916182E+04    0.24239E-01   -0.11381E-01  5999   0.134E-01    0.520E-01
RMM:   4    -0.231588823000E+04    0.93182E-03   -0.11906E-02  4792   0.328E-02    0.201E-01
RMM:   5    -0.231588790862E+04    0.32138E-03   -0.11371E-03  4741   0.185E-02    0.235E-01
RMM:   6    -0.231588759184E+04    0.31678E-03   -0.13239E-03  4734   0.192E-02    0.733E-02
RMM:   7    -0.231588756261E+04    0.29233E-04   -0.11752E-04  3118   0.844E-03    0.206E-02
RMM:   8    -0.231588756080E+04    0.18036E-05   -0.19150E-05  2861   0.377E-03
  21 F= -.23362817E+04 E0= -.23362817E+04  d E =-.307408E-01  mag=     4.0000
       N       E                     dE             d eps       ncg     rms          rms(c)
DAV:   1    -0.231580892634E+04    0.78636E-01   -0.38260E+00  4464   0.158E+00    0.916E-01
RMM:   2    -0.231592229544E+04   -0.11337E+00   -0.91812E-01  6137   0.376E-01    0.220E+00
RMM:   3    -0.231589851444E+04    0.23781E-01   -0.96724E-02  5922   0.131E-01    0.492E-01
RMM:   4    -0.231589765513E+04    0.85932E-03   -0.10387E-02  4690   0.338E-02    0.199E-01
RMM:   5    -0.231589726418E+04    0.39095E-03   -0.10611E-03  5013   0.214E-02    0.226E-01
RMM:   6    -0.231589690863E+04    0.35554E-03   -0.13581E-03  5000   0.212E-02    0.694E-02
RMM:   7    -0.231589686783E+04    0.40808E-04   -0.11049E-04  3596   0.106E-02    0.196E-02
RMM:   8    -0.231589685575E+04    0.12077E-04   -0.21128E-05  2873   0.400E-03    0.141E-02
RMM:   9    -0.231589684934E+04    0.64117E-05   -0.15732E-05  2842   0.342E-03
  22 F= -.23362935E+04 E0= -.23362935E+04  d E =-.117664E-01  mag=     4.0000
       N       E                     dE             d eps       ncg     rms          rms(c)
DAV:   1    -0.231589139116E+04    0.54646E-02   -0.23428E-01  4896   0.392E-01    0.225E-01
RMM:   2    -0.231589822100E+04   -0.68298E-02   -0.55516E-02  6207   0.925E-02    0.540E-01
RMM:   3    -0.231589683871E+04    0.13823E-02   -0.58130E-03  4994   0.322E-02    0.122E-01
RMM:   4    -0.231589676858E+04    0.70126E-04   -0.58534E-04  3233   0.891E-03    0.465E-02
RMM:   5    -0.231589674441E+04    0.24172E-04   -0.60300E-05  2992   0.586E-03    0.533E-02
RMM:   6    -0.231589672402E+04    0.20391E-04   -0.84496E-05  3131   0.689E-03    0.152E-02
RMM:   7    -0.231589672223E+04    0.17893E-05   -0.10183E-05  2846   0.474E-03
  23 F= -.23362940E+04 E0= -.23362940E+04  d E =-.122468E-01  mag=     4.0000
       N       E                     dE             d eps       ncg     rms          rms(c)
DAV:   1    -0.231582821526E+04    0.68509E-01   -0.34397E+00  4432   0.141E+00    0.836E-01
RMM:   2    -0.231593275871E+04   -0.10454E+00   -0.80916E-01  6296   0.329E-01    0.222E+00
RMM:   3    -0.231590766146E+04    0.25097E-01   -0.85718E-02  5954   0.109E-01    0.370E-01
RMM:   4    -0.231590727976E+04    0.38170E-03   -0.83444E-03  4690   0.278E-02    0.161E-01
RMM:   5    -0.231590710558E+04    0.17418E-03   -0.81232E-04  4432   0.158E-02    0.194E-01
RMM:   6    -0.231590687591E+04    0.22967E-03   -0.10272E-03  4526   0.170E-02    0.551E-02
RMM:   7    -0.231590686082E+04    0.15087E-04   -0.11454E-04  2990   0.774E-03    0.160E-02
RMM:   8    -0.231590685660E+04    0.42180E-05   -0.15114E-05  2851   0.326E-03
  24 F= -.23363069E+04 E0= -.23363069E+04  d E =-.129540E-01  mag=     4.0000
       N       E                     dE             d eps       ncg     rms          rms(c)
DAV:   1    -0.231580916125E+04    0.97700E-01   -0.43558E+00  4432   0.159E+00    0.943E-01
RMM:   2    -0.231594196178E+04   -0.13280E+00   -0.10271E+00  6282   0.370E-01    0.251E+00
RMM:   3    -0.231590978824E+04    0.32174E-01   -0.10881E-01  5979   0.121E-01    0.418E-01
RMM:   4    -0.231590928114E+04    0.50710E-03   -0.10489E-02  4720   0.309E-02    0.181E-01
RMM:   5    -0.231590907095E+04    0.21019E-03   -0.10576E-03  4551   0.180E-02    0.220E-01
RMM:   6    -0.231590877102E+04    0.29993E-03   -0.12791E-03  4682   0.187E-02    0.609E-02
RMM:   7    -0.231590875285E+04    0.18171E-04   -0.14663E-04  3028   0.852E-03    0.175E-02
RMM:   8    -0.231590874755E+04    0.52989E-05   -0.19081E-05  2856   0.356E-03
  25 F= -.23363119E+04 E0= -.23363119E+04  d E =-.179614E-01  mag=     4.0000
       N       E                     dE             d eps       ncg     rms          rms(c)
DAV:   1    -0.231585799202E+04    0.50761E-01   -0.24583E+00  4472   0.118E+00    0.726E-01
RMM:   2    -0.231593788255E+04   -0.79891E-01   -0.60436E-01  6237   0.275E-01    0.202E+00
RMM:   3    -0.231591693391E+04    0.20949E-01   -0.60783E-02  5895   0.913E-02    0.299E-01
RMM:   4    -0.231591688715E+04    0.46768E-04   -0.63790E-03  4559   0.236E-02    0.129E-01
RMM:   5    -0.231591677167E+04    0.11547E-03   -0.44593E-04  4151   0.128E-02    0.161E-01
RMM:   6    -0.231591661652E+04    0.15515E-03   -0.72292E-04  4362   0.148E-02    0.515E-02
RMM:   7    -0.231591660101E+04    0.15512E-04   -0.61103E-05  2891   0.715E-03    0.157E-02
RMM:   8    -0.231591659701E+04    0.40055E-05   -0.12731E-05  2838   0.302E-03
  26 F= -.23363220E+04 E0= -.23363220E+04  d E =-.100197E-01  mag=     4.0000
       N       E                     dE             d eps       ncg     rms          rms(c)
DAV:   1    -0.231583207163E+04    0.84529E-01   -0.36373E+00  4432   0.144E+00    0.882E-01
RMM:   2    -0.231595088713E+04   -0.11882E+00   -0.89784E-01  6237   0.333E-01    0.248E+00
RMM:   3    -0.231591988090E+04    0.31006E-01   -0.93628E-02  5935   0.110E-01    0.372E-01
RMM:   4    -0.231591937179E+04    0.50910E-03   -0.88566E-03  4651   0.285E-02    0.153E-01
RMM:   5    -0.231591921612E+04    0.15567E-03   -0.76907E-04  4427   0.163E-02    0.191E-01
RMM:   6    -0.231591899467E+04    0.22145E-03   -0.10204E-03  4585   0.172E-02    0.530E-02
RMM:   7    -0.231591898078E+04    0.13888E-04   -0.11086E-04  2950   0.815E-03    0.173E-02
RMM:   8    -0.231591897540E+04    0.53885E-05   -0.18117E-05  2843   0.340E-03
  27 F= -.23363269E+04 E0= -.23363269E+04  d E =-.149477E-01  mag=     4.0000
       N       E                     dE             d eps       ncg     rms          rms(c)
DAV:   1    -0.231588249241E+04    0.36488E-01   -0.19665E+00  4448   0.106E+00    0.641E-01
RMM:   2    -0.231594308768E+04   -0.60595E-01   -0.45872E-01  6180   0.244E-01    0.177E+00
RMM:   3    -0.231592720940E+04    0.15878E-01   -0.46060E-02  5857   0.831E-02    0.273E-01
RMM:   4    -0.231592711651E+04    0.92885E-04   -0.49292E-03  4508   0.218E-02    0.116E-01
RMM:   5    -0.231592701903E+04    0.97487E-04   -0.39270E-04  4215   0.131E-02    0.146E-01
RMM:   6    -0.231592689152E+04    0.12750E-03   -0.57862E-04  4308   0.139E-02    0.482E-02
RMM:   7    -0.231592687633E+04    0.15195E-04   -0.49027E-05  2880   0.750E-03    0.138E-02
RMM:   8    -0.231592687240E+04    0.39271E-05   -0.11306E-05  2835   0.292E-03
  28 F= -.23363362E+04 E0= -.23363362E+04  d E =-.926600E-02  mag=     4.0000
       N       E                     dE             d eps       ncg     rms          rms(c)
DAV:   1    -0.231583978827E+04    0.87088E-01   -0.39831E+00  4408   0.151E+00    0.908E-01
RMM:   2    -0.231596194361E+04   -0.12216E+00   -0.92857E-01  6171   0.347E-01    0.250E+00
RMM:   3    -0.231593101699E+04    0.30927E-01   -0.97540E-02  5879   0.119E-01    0.398E-01
RMM:   4    -0.231593044355E+04    0.57344E-03   -0.99964E-03  4716   0.311E-02    0.165E-01
RMM:   5    -0.231593023770E+04    0.20584E-03   -0.83941E-04  4708   0.187E-02    0.207E-01
RMM:   6    -0.231592997520E+04    0.26251E-03   -0.11587E-03  4804   0.187E-02    0.674E-02
RMM:   7    -0.231592994466E+04    0.30536E-04   -0.97676E-05  3091   0.910E-03    0.193E-02
RMM:   8    -0.231592993656E+04    0.81054E-05   -0.21149E-05  2847   0.375E-03
  29 F= -.23363411E+04 E0= -.23363411E+04  d E =-.141846E-01  mag=     4.0000
       N       E                     dE             d eps       ncg     rms          rms(c)
DAV:   1    -0.231590170757E+04    0.28237E-01   -0.15572E+00  4432   0.908E-01    0.557E-01
RMM:   2    -0.231594843857E+04   -0.46731E-01   -0.35419E-01  6271   0.212E-01    0.156E+00
RMM:   3    -0.231593645989E+04    0.11979E-01   -0.37385E-02  5834   0.722E-02    0.238E-01
RMM:   4    -0.231593634090E+04    0.11899E-03   -0.39176E-03  4279   0.184E-02    0.104E-01
RMM:   5    -0.231593627148E+04    0.69414E-04   -0.31856E-04  3633   0.105E-02    0.128E-01
RMM:   6    -0.231593618397E+04    0.87511E-04   -0.45533E-04  3864   0.117E-02    0.450E-02
RMM:   7    -0.231593617371E+04    0.10262E-04   -0.43060E-05  2877   0.590E-03    0.123E-02
RMM:   8    -0.231593617235E+04    0.13561E-05   -0.69501E-06  2822   0.249E-03
  30 F= -.23363485E+04 E0= -.23363485E+04  d E =-.738913E-02  mag=     4.0000
       N       E                     dE             d eps       ncg     rms          rms(c)
DAV:   1    -0.231579270567E+04    0.14347E+00   -0.67044E+00  4408   0.189E+00    0.115E+00
RMM:   2    -0.231599226901E+04   -0.19956E+00   -0.15319E+00  6261   0.443E-01    0.313E+00
RMM:   3    -0.231594336347E+04    0.48906E-01   -0.16386E-01  5920   0.152E-01    0.508E-01
RMM:   4    -0.231594287969E+04    0.48378E-03   -0.16812E-02  4841   0.375E-02    0.217E-01
RMM:   5    -0.231594258944E+04    0.29025E-03   -0.16044E-03  4716   0.215E-02    0.268E-01
RMM:   6    -0.231594218081E+04    0.40863E-03   -0.19824E-03  4816   0.220E-02    0.954E-02
RMM:   7    -0.231594213496E+04    0.45846E-04   -0.19136E-04  3180   0.930E-03    0.271E-02
RMM:   8    -0.231594212778E+04    0.71887E-05   -0.26939E-05  2846   0.412E-03
  31 F= -.23363567E+04 E0= -.23363567E+04  d E =-.156164E-01  mag=     4.0000
       N       E                     dE             d eps       ncg     rms          rms(c)
DAV:   1    -0.231592547299E+04    0.16662E-01   -0.74740E-01  4504   0.627E-01    0.391E-01
RMM:   2    -0.231594839313E+04   -0.22920E-01   -0.17087E-01  6264   0.146E-01    0.112E+00
RMM:   3    -0.231594208710E+04    0.63060E-02   -0.17408E-02  5565   0.496E-02    0.162E-01
RMM:   4    -0.231594208133E+04    0.57685E-05   -0.19238E-03  3524   0.129E-02    0.726E-02
RMM:   5    -0.231594204777E+04    0.33563E-04   -0.14782E-04  3098   0.737E-03    0.899E-02
RMM:   6    -0.231594200373E+04    0.44041E-04   -0.21912E-04  3258   0.860E-03    0.311E-02
RMM:   7    -0.231594199881E+04    0.49160E-05   -0.22544E-05  2865   0.497E-03
  32 F= -.23363573E+04 E0= -.23363573E+04  d E =-.162058E-01  mag=     4.0000
       N       E                     dE             d eps       ncg     rms          rms(c)
DAV:   1    -0.231587757674E+04    0.64427E-01   -0.30939E+00  4408   0.129E+00    0.799E-01
RMM:   2    -0.231597489726E+04   -0.97321E-01   -0.74538E-01  6272   0.309E-01    0.221E+00
RMM:   3    -0.231595030176E+04    0.24595E-01   -0.79878E-02  5867   0.109E-01    0.347E-01
RMM:   4    -0.231595018520E+04    0.11656E-03   -0.84091E-03  4695   0.266E-02    0.162E-01
RMM:   5    -0.231595002112E+04    0.16407E-03   -0.79222E-04  4348   0.154E-02    0.193E-01
RMM:   6    -0.231594979991E+04    0.22121E-03   -0.98093E-04  4453   0.162E-02    0.698E-02
RMM:   7    -0.231594977519E+04    0.24724E-04   -0.10103E-04  2951   0.778E-03    0.191E-02
RMM:   8    -0.231594977131E+04    0.38734E-05   -0.14643E-05  2855   0.344E-03
  33 F= -.23363669E+04 E0= -.23363669E+04  d E =-.963718E-02  mag=     4.0000
       N       E                     dE             d eps       ncg     rms          rms(c)
DAV:   1    -0.231586623327E+04    0.83542E-01   -0.36400E+00  4420   0.141E+00    0.867E-01
RMM:   2    -0.231598075175E+04   -0.11452E+00   -0.88141E-01  6215   0.336E-01    0.238E+00
RMM:   3    -0.231595222207E+04    0.28530E-01   -0.94500E-02  5850   0.117E-01    0.376E-01
RMM:   4    -0.231595207219E+04    0.14988E-03   -0.98915E-03  4740   0.286E-02    0.175E-01
RMM:   5    -0.231595187529E+04    0.19690E-03   -0.94165E-04  4464   0.167E-02    0.208E-01
RMM:   6    -0.231595161173E+04    0.26356E-03   -0.11670E-03  4564   0.174E-02    0.769E-02
RMM:   7    -0.231595158034E+04    0.31398E-04   -0.11918E-04  2986   0.830E-03    0.206E-02
RMM:   8    -0.231595157562E+04    0.47132E-05   -0.17243E-05  2854   0.359E-03
  34 F= -.23363706E+04 E0= -.23363706E+04  d E =-.133463E-01  mag=     4.0000
       N       E                     dE             d eps       ncg     rms          rms(c)
DAV:   1    -0.231586099106E+04    0.90589E-01   -0.44459E+00  4408   0.153E+00    0.940E-01
RMM:   2    -0.231599539412E+04   -0.13440E+00   -0.10245E+00  6240   0.360E-01    0.260E+00
RMM:   3    -0.231596083690E+04    0.34557E-01   -0.10927E-01  5840   0.128E-01    0.403E-01
RMM:   4    -0.231596056954E+04    0.26737E-03   -0.11740E-02  4761   0.313E-02    0.193E-01
RMM:   5    -0.231596034837E+04    0.22117E-03   -0.11396E-03  4574   0.181E-02    0.234E-01
RMM:   6    -0.231596003760E+04    0.31077E-03   -0.13404E-03  4612   0.183E-02    0.793E-02
RMM:   7    -0.231596000232E+04    0.35284E-04   -0.12203E-04  2986   0.828E-03    0.204E-02
RMM:   8    -0.231595999780E+04    0.45130E-05   -0.19729E-05  2856   0.357E-03
  35 F= -.23363811E+04 E0= -.23363811E+04  d E =-.104739E-01  mag=     4.0000
       N       E                     dE             d eps       ncg     rms          rms(c)
DAV:   1    -0.231588513505E+04    0.74867E-01   -0.34496E+00  4408   0.135E+00    0.828E-01
RMM:   2    -0.231598937185E+04   -0.10424E+00   -0.79429E-01  6213   0.317E-01    0.230E+00
RMM:   3    -0.231596251604E+04    0.26856E-01   -0.84358E-02  5811   0.113E-01    0.353E-01
RMM:   4    -0.231596229523E+04    0.22081E-03   -0.90676E-03  4704   0.278E-02    0.169E-01
RMM:   5    -0.231596212531E+04    0.16992E-03   -0.87415E-04  4395   0.160E-02    0.206E-01
RMM:   6    -0.231596188289E+04    0.24242E-03   -0.10344E-03  4480   0.165E-02    0.694E-02
RMM:   7    -0.231596185523E+04    0.27662E-04   -0.95981E-05  2938   0.757E-03    0.178E-02
RMM:   8    -0.231596185092E+04    0.43072E-05   -0.15950E-05  2857   0.333E-03
  36 F= -.23363846E+04 E0= -.23363846E+04  d E =-.139982E-01  mag=     4.0000
       N       E                     dE             d eps       ncg     rms          rms(c)
DAV:   1    -0.231587445101E+04    0.87404E-01   -0.46983E+00  4408   0.157E+00    0.921E-01
RMM:   2    -0.231600342568E+04   -0.12897E+00   -0.98929E-01  6133   0.357E-01    0.254E+00
RMM:   3    -0.231597112314E+04    0.32303E-01   -0.10078E-01  5779   0.130E-01    0.415E-01
RMM:   4    -0.231597074998E+04    0.37316E-03   -0.11279E-02  4774   0.321E-02    0.196E-01
RMM:   5    -0.231597047594E+04    0.27403E-03   -0.12447E-03  4824   0.197E-02    0.237E-01
RMM:   6    -0.231597014459E+04    0.33136E-03   -0.14218E-03  4812   0.188E-02    0.815E-02
RMM:   7    -0.231597010302E+04    0.41562E-04   -0.12891E-04  3065   0.863E-03    0.223E-02
RMM:   8    -0.231597009507E+04    0.79543E-05   -0.27030E-05  2858   0.389E-03
  37 F= -.23363944E+04 E0= -.23363944E+04  d E =-.973472E-02  mag=     4.0000
       N       E                     dE             d eps       ncg     rms          rms(c)
DAV:   1    -0.231595263747E+04    0.17466E-01   -0.88199E-01  4752   0.684E-01    0.404E-01
RMM:   2    -0.231597746627E+04   -0.24829E-01   -0.18561E-01  6139   0.154E-01    0.116E+00
RMM:   3    -0.231597059616E+04    0.68701E-02   -0.18598E-02  5573   0.565E-02    0.170E-01
RMM:   4    -0.231597055788E+04    0.38274E-04   -0.20799E-03  3907   0.141E-02    0.857E-02
RMM:   5    -0.231597050513E+04    0.52755E-04   -0.22307E-04  3495   0.894E-03    0.104E-01
RMM:   6    -0.231597043780E+04    0.67334E-04   -0.27178E-04  3602   0.952E-03    0.332E-02
RMM:   7    -0.231597043094E+04    0.68531E-05   -0.27779E-05  2880   0.546E-03
  38 F= -.23363953E+04 E0= -.23363953E+04  d E =-.106738E-01  mag=     4.0000
       N       E                     dE             d eps       ncg     rms          rms(c)
DAV:   1    -0.231589936286E+04    0.71075E-01   -0.33596E+00  4408   0.139E+00    0.805E-01
RMM:   2    -0.231599922029E+04   -0.99857E-01   -0.78127E-01  6146   0.313E-01    0.219E+00
RMM:   3    -0.231597654712E+04    0.22673E-01   -0.81539E-02  5739   0.116E-01    0.382E-01
RMM:   4    -0.231597622909E+04    0.31802E-03   -0.92036E-03  4778   0.288E-02    0.172E-01
RMM:   5    -0.231597598589E+04    0.24321E-03   -0.95664E-04  4625   0.175E-02    0.199E-01
RMM:   6    -0.231597576588E+04    0.22000E-03   -0.10170E-03  4599   0.165E-02    0.754E-02
RMM:   7    -0.231597572917E+04    0.36713E-04   -0.96733E-05  2953   0.817E-03    0.170E-02
RMM:   8    -0.231597572629E+04    0.28771E-05   -0.20290E-05  2861   0.360E-03
  39 F= -.23364017E+04 E0= -.23364017E+04  d E =-.640067E-02  mag=     4.0000
       N       E                     dE             d eps       ncg     rms          rms(c)
DAV:   1    -0.231596775276E+04    0.79764E-02   -0.35504E-01  4736   0.453E-01    0.266E-01
RMM:   2    -0.231597864066E+04   -0.10888E-01   -0.83082E-02  6112   0.102E-01    0.753E-01
RMM:   3    -0.231597586960E+04    0.27711E-02   -0.85366E-03  5069   0.379E-02    0.116E-01
RMM:   4    -0.231597584324E+04    0.26367E-04   -0.89523E-04  3059   0.981E-03    0.552E-02
RMM:   5    -0.231597581735E+04    0.25882E-04   -0.93782E-05  2962   0.617E-03    0.631E-02
RMM:   6    -0.231597579389E+04    0.23464E-04   -0.10397E-04  2938   0.680E-03    0.215E-02
RMM:   7    -0.231597579148E+04    0.24125E-05   -0.13472E-05  2846   0.439E-03
  40 F= -.23364021E+04 E0= -.23364021E+04  d E =-.680320E-02  mag=     4.0000
       N       E                     dE             d eps       ncg     rms          rms(c)
DAV:   1    -0.231590515461E+04    0.70639E-01   -0.36725E+00  4408   0.138E+00    0.772E-01
RMM:   2    -0.231599897807E+04   -0.93823E-01   -0.78944E-01  6213   0.309E-01    0.189E+00
RMM:   3    -0.231598450867E+04    0.14469E-01   -0.85265E-02  5789   0.116E-01    0.444E-01
RMM:   4    -0.231598376318E+04    0.74549E-03   -0.95385E-03  4727   0.280E-02    0.180E-01
RMM:   5    -0.231598341680E+04    0.34638E-03   -0.93427E-04  4456   0.157E-02    0.187E-01
RMM:   6    -0.231598324193E+04    0.17486E-03   -0.10253E-03  4395   0.168E-02    0.834E-02
RMM:   7    -0.231598319038E+04    0.51558E-04   -0.69908E-05  2941   0.786E-03    0.181E-02
RMM:   8    -0.231598318766E+04    0.27142E-05   -0.19119E-05  2873   0.339E-03
  41 F= -.23364106E+04 E0= -.23364106E+04  d E =-.849389E-02  mag=     4.0000
       N       E                     dE             d eps       ncg     rms          rms(c)
DAV:   1    -0.231587402603E+04    0.10916E+00   -0.52404E+00  4408   0.164E+00    0.919E-01
RMM:   2    -0.231600656660E+04   -0.13254E+00   -0.11268E+00  6157   0.371E-01    0.219E+00
RMM:   3    -0.231598766192E+04    0.18905E-01   -0.12291E-01  5770   0.140E-01    0.542E-01
RMM:   4    -0.231598651396E+04    0.11480E-02   -0.13547E-02  4821   0.335E-02    0.216E-01
RMM:   5    -0.231598600390E+04    0.51005E-03   -0.13477E-03  4724   0.187E-02    0.219E-01
RMM:   6    -0.231598576288E+04    0.24102E-03   -0.14522E-03  4589   0.196E-02    0.101E-01
RMM:   7    -0.231598568658E+04    0.76297E-04   -0.98466E-05  3059   0.885E-03    0.223E-02
RMM:   8    -0.231598568330E+04    0.32803E-05   -0.27235E-05  2872   0.389E-03
  42 F= -.23364143E+04 E0= -.23364143E+04  d E =-.121893E-01  mag=     4.0000
       N       E                     dE             d eps       ncg     rms          rms(c)
DAV:   1    -0.231594817806E+04    0.37509E-01   -0.20973E+00  4408   0.102E+00    0.571E-01
RMM:   2    -0.231599904872E+04   -0.50871E-01   -0.43777E-01  6168   0.228E-01    0.132E+00
RMM:   3    -0.231599242778E+04    0.66209E-02   -0.45789E-02  5675   0.873E-02    0.351E-01
RMM:   4    -0.231599195751E+04    0.47027E-03   -0.52718E-03  4505   0.209E-02    0.136E-01
RMM:   5    -0.231599173298E+04    0.22453E-03   -0.54714E-04  4103   0.123E-02    0.132E-01
RMM:   6    -0.231599164660E+04    0.86385E-04   -0.56757E-04  4050   0.129E-02    0.595E-02
RMM:   7    -0.231599162104E+04    0.25561E-04   -0.42314E-05  2891   0.679E-03    0.153E-02
RMM:   8    -0.231599162102E+04    0.14319E-07   -0.13787E-05  2867   0.284E-03
  43 F= -.23364210E+04 E0= -.23364210E+04  d E =-.669931E-02  mag=     4.0000
       N       E                     dE             d eps       ncg     rms          rms(c)
DAV:   1    -0.231583204298E+04    0.15958E+00   -0.78336E+00  4408   0.195E+00    0.109E+00
RMM:   2    -0.231601808919E+04   -0.18605E+00   -0.16338E+00  6151   0.446E-01    0.239E+00
RMM:   3    -0.231599917557E+04    0.18914E-01   -0.17983E-01  5768   0.171E-01    0.725E-01
RMM:   4    -0.231599664608E+04    0.25295E-02   -0.19660E-02  4964   0.405E-02    0.263E-01
RMM:   5    -0.231599566748E+04    0.97860E-03   -0.19970E-03  4973   0.221E-02    0.230E-01
RMM:   6    -0.231599538324E+04    0.28424E-03   -0.19485E-03  4691   0.229E-02    0.107E-01
RMM:   7    -0.231599529720E+04    0.86039E-04   -0.14205E-04  3396   0.100E-02    0.318E-02
RMM:   8    -0.231599529644E+04    0.75341E-06   -0.46699E-05  2902   0.460E-03
  44 F= -.23364260E+04 E0= -.23364260E+04  d E =-.117308E-01  mag=     4.0000
       N       E                     dE             d eps       ncg     rms          rms(c)
DAV:   1    -0.231592837831E+04    0.66919E-01   -0.33163E+00  4408   0.124E+00    0.716E-01
RMM:   2    -0.231601366549E+04   -0.85287E-01   -0.73898E-01  6211   0.282E-01    0.165E+00
RMM:   3    -0.231600400685E+04    0.96586E-02   -0.78094E-02  5746   0.109E-01    0.452E-01
RMM:   4    -0.231600322446E+04    0.78239E-03   -0.88648E-03  4742   0.264E-02    0.176E-01
RMM:   5    -0.231600284819E+04    0.37627E-03   -0.89403E-04  4283   0.145E-02    0.164E-01
RMM:   6    -0.231600273267E+04    0.11552E-03   -0.84393E-04  4159   0.151E-02    0.752E-02
RMM:   7    -0.231600269620E+04    0.36474E-04   -0.64440E-05  2894   0.706E-03    0.191E-02
RMM:   8    -0.231600269914E+04   -0.29411E-05   -0.20809E-05  2874   0.321E-03
  45 F= -.23364343E+04 E0= -.23364343E+04  d E =-.825144E-02  mag=     4.0000
       N       E                     dE             d eps       ncg     rms          rms(c)
DAV:   1    -0.231554445566E+04    0.45824E+00   -0.20259E+01  4408   0.307E+00    0.172E+00
RMM:   2    -0.231604202929E+04   -0.49757E+00   -0.45446E+00  6225   0.701E-01    0.339E+00
RMM:   3    -0.231602347479E+04    0.18555E-01   -0.51333E-01  5842   0.272E-01    0.142E+00
RMM:   4    -0.231601212891E+04    0.11346E-01   -0.50834E-02  5246   0.658E-02    0.443E-01
RMM:   5    -0.231600941971E+04    0.27092E-02   -0.52166E-03  5032   0.330E-02    0.304E-01
RMM:   6    -0.231600887429E+04    0.54541E-03   -0.40522E-03  4741   0.325E-02    0.107E-01
RMM:   7    -0.231600881205E+04    0.62239E-04   -0.37064E-04  4050   0.150E-02    0.620E-02
RMM:   8    -0.231600880178E+04    0.10278E-04   -0.10804E-04  3161   0.614E-03    0.238E-02
RMM:   9    -0.231600880467E+04   -0.28900E-05   -0.27679E-05  2851   0.421E-03
  46 F= -.23364422E+04 E0= -.23364422E+04  d E =-.161928E-01  mag=     4.0000
       N       E                     dE             d eps       ncg     rms          rms(c)
DAV:   1    -0.231593952229E+04    0.69279E-01   -0.36433E+00  4408   0.122E+00    0.726E-01
RMM:   2    -0.231602674814E+04   -0.87226E-01   -0.75101E-01  6222   0.278E-01    0.169E+00
RMM:   3    -0.231601656834E+04    0.10180E-01   -0.79250E-02  5743   0.107E-01    0.451E-01
RMM:   4    -0.231601579684E+04    0.77150E-03   -0.90952E-03  4658   0.258E-02    0.183E-01
RMM:   5    -0.231601541755E+04    0.37929E-03   -0.99608E-04  4276   0.144E-02    0.172E-01
RMM:   6    -0.231601529112E+04    0.12643E-03   -0.85516E-04  4095   0.150E-02    0.738E-02
RMM:   7    -0.231601525188E+04    0.39247E-04   -0.65855E-05  2898   0.684E-03    0.198E-02
RMM:   8    -0.231601525160E+04    0.28202E-06   -0.22365E-05  2881   0.330E-03
  47 F= -.23364495E+04 E0= -.23364495E+04  d E =-.726633E-02  mag=     4.0000
       N       E                     dE             d eps       ncg     rms          rms(c)
DAV:   1    -0.231588187539E+04    0.13338E+00   -0.65831E+00  4408   0.164E+00    0.965E-01
RMM:   2    -0.231603570361E+04   -0.15383E+00   -0.13519E+00  6226   0.373E-01    0.213E+00
RMM:   3    -0.231602218163E+04    0.13522E-01   -0.14599E-01  5802   0.145E-01    0.658E-01
RMM:   4    -0.231602030578E+04    0.18759E-02   -0.16067E-02  4917   0.349E-02    0.245E-01
RMM:   5    -0.231601957454E+04    0.73124E-03   -0.17035E-03  4649   0.183E-02    0.206E-01
RMM:   6    -0.231601938951E+04    0.18504E-03   -0.13758E-03  4381   0.193E-02    0.881E-02
RMM:   7    -0.231601933442E+04    0.55084E-04   -0.11829E-04  3033   0.849E-03    0.297E-02
RMM:   8    -0.231601933049E+04    0.39287E-05   -0.36902E-05  2885   0.418E-03
  48 F= -.23364546E+04 E0= -.23364546E+04  d E =-.123699E-01  mag=     4.0000
       N       E                     dE             d eps       ncg     rms          rms(c)
DAV:   1    -0.231598571660E+04    0.33618E-01   -0.16268E+00  4464   0.817E-01    0.488E-01
RMM:   2    -0.231602484519E+04   -0.39129E-01   -0.33508E-01  6223   0.186E-01    0.115E+00
RMM:   3    -0.231601994155E+04    0.49036E-02   -0.34902E-02  5644   0.727E-02    0.292E-01
RMM:   4    -0.231601966291E+04    0.27864E-03   -0.40792E-03  4011   0.174E-02    0.122E-01
RMM:   5    -0.231601950354E+04    0.15937E-03   -0.43563E-04  3780   0.986E-03    0.119E-01
RMM:   6    -0.231601944294E+04    0.60599E-04   -0.40798E-04  3451   0.110E-02    0.535E-02
RMM:   7    -0.231601942288E+04    0.20063E-04   -0.31970E-05  2866   0.555E-03    0.133E-02
RMM:   8    -0.231601942269E+04    0.18333E-06   -0.11918E-05  2860   0.276E-03
  49 F= -.23364552E+04 E0= -.23364552E+04  d E =-.129400E-01  mag=     4.0000
       N       E                     dE             d eps       ncg     rms          rms(c)
DAV:   1    -0.231595843009E+04    0.60993E-01   -0.35022E+00  4408   0.123E+00    0.694E-01
RMM:   2    -0.231603438253E+04   -0.75952E-01   -0.67672E-01  6105   0.274E-01    0.145E+00
RMM:   3    -0.231602866018E+04    0.57223E-02   -0.71850E-02  5729   0.106E-01    0.492E-01
RMM:   4    -0.231602749855E+04    0.11616E-02   -0.80278E-03  4675   0.267E-02    0.178E-01
RMM:   5    -0.231602708570E+04    0.41285E-03   -0.10069E-03  4567   0.160E-02    0.137E-01
RMM:   6    -0.231602700049E+04    0.85209E-04   -0.66620E-04  4217   0.147E-02    0.552E-02
RMM:   7    -0.231602697919E+04    0.21299E-04   -0.54933E-05  2889   0.725E-03    0.248E-02
RMM:   8    -0.231602697716E+04    0.20314E-05   -0.21999E-05  2873   0.325E-03
  50 F= -.23364636E+04 E0= -.23364636E+04  d E =-.842352E-02  mag=     4.0000
       N       E                     dE             d eps       ncg     rms          rms(c)
DAV:   1    -0.231583077367E+04    0.19621E+00   -0.10037E+01  4408   0.209E+00    0.116E+00
RMM:   2    -0.231604203539E+04   -0.21126E+00   -0.19318E+00  6165   0.470E-01    0.222E+00
RMM:   3    -0.231603509516E+04    0.69402E-02   -0.21693E-01  5826   0.183E-01    0.932E-01
RMM:   4    -0.231603016788E+04    0.49273E-02   -0.22365E-02  5054   0.460E-02    0.304E-01
RMM:   5    -0.231602888025E+04    0.12876E-02   -0.29274E-03  5128   0.270E-02    0.193E-01
RMM:   6    -0.231602869092E+04    0.18933E-03   -0.16603E-03  4657   0.224E-02    0.596E-02
RMM:   7    -0.231602866760E+04    0.23317E-04   -0.15224E-04  3358   0.102E-02    0.443E-02
RMM:   8    -0.231602866085E+04    0.67525E-05   -0.53216E-05  2907   0.491E-03
  51 F= -.23364667E+04 E0= -.23364667E+04  d E =-.115167E-01  mag=     4.0000
       N       E                     dE             d eps       ncg     rms          rms(c)
DAV:   1    -0.231601492328E+04    0.13744E-01   -0.75759E-01  4512   0.580E-01    0.339E-01
RMM:   2    -0.231603297417E+04   -0.18051E-01   -0.14932E-01  6149   0.129E-01    0.839E-01
RMM:   3    -0.231602979281E+04    0.31814E-02   -0.15645E-02  5359   0.503E-02    0.172E-01
RMM:   4    -0.231602970329E+04    0.89528E-04   -0.17290E-03  3496   0.126E-02    0.826E-02
RMM:   5    -0.231602964609E+04    0.57193E-04   -0.22807E-04  3474   0.824E-03    0.900E-02
RMM:   6    -0.231602961362E+04    0.32470E-04   -0.19857E-04  3026   0.838E-03    0.380E-02
RMM:   7    -0.231602960305E+04    0.10575E-04   -0.15993E-05  2847   0.475E-03    0.767E-03
RMM:   8    -0.231602960249E+04    0.55702E-06   -0.60682E-06  2827   0.224E-03
  52 F= -.23364672E+04 E0= -.23364672E+04  d E =-.120780E-01  mag=     4.0000
       N       E                     dE             d eps       ncg     rms          rms(c)
DAV:   1    -0.231598549643E+04    0.44107E-01   -0.23938E+00  4408   0.109E+00    0.585E-01
RMM:   2    -0.231603869361E+04   -0.53197E-01   -0.49070E-01  6075   0.237E-01    0.110E+00
RMM:   3    -0.231603685656E+04    0.18370E-02   -0.52535E-02  5703   0.941E-02    0.461E-01
RMM:   4    -0.231603563998E+04    0.12166E-02   -0.56484E-03  4600   0.235E-02    0.147E-01
RMM:   5    -0.231603531575E+04    0.32423E-03   -0.64528E-04  4343   0.139E-02    0.903E-02
RMM:   6    -0.231603527043E+04    0.45319E-04   -0.39786E-04  4109   0.124E-02    0.241E-02
RMM:   7    -0.231603526568E+04    0.47459E-05   -0.37192E-05  2891   0.733E-03
  53 F= -.23364735E+04 E0= -.23364735E+04  d E =-.624379E-02  mag=     4.0000
       N       E                     dE             d eps       ncg     rms          rms(c)
DAV:   1    -0.231600771863E+04    0.27552E-01   -0.13593E+00  4408   0.823E-01    0.447E-01
RMM:   2    -0.231603862125E+04   -0.30903E-01   -0.28188E-01  6063   0.180E-01    0.872E-01
RMM:   3    -0.231603691060E+04    0.17107E-02   -0.29639E-02  5611   0.713E-02    0.330E-01
RMM:   4    -0.231603636378E+04    0.54682E-03   -0.33143E-03  4272   0.179E-02    0.111E-01
RMM:   5    -0.231603618853E+04    0.17525E-03   -0.36904E-04  3944   0.107E-02    0.763E-02
RMM:   6    -0.231603615816E+04    0.30364E-04   -0.24327E-04  3836   0.103E-02    0.242E-02
RMM:   7    -0.231603615408E+04    0.40834E-05   -0.22498E-05  2860   0.614E-03
  54 F= -.23364748E+04 E0= -.23364748E+04  d E =-.756174E-02  mag=     4.0000
       N       E                     dE             d eps       ncg     rms          rms(c)
DAV:   1    -0.231600198484E+04    0.34173E-01   -0.20530E+00  4408   0.105E+00    0.513E-01
RMM:   2    -0.231604334429E+04   -0.41359E-01   -0.38633E-01  6006   0.216E-01    0.934E-01
RMM:   3    -0.231604244221E+04    0.90208E-03   -0.42007E-02  5621   0.883E-02    0.417E-01
RMM:   4    -0.231604145817E+04    0.98405E-03   -0.44088E-03  4556   0.215E-02    0.134E-01
RMM:   5    -0.231604118548E+04    0.27269E-03   -0.57920E-04  4204   0.133E-02    0.742E-02
RMM:   6    -0.231604115897E+04    0.26509E-04   -0.28250E-04  4024   0.111E-02    0.244E-02
RMM:   7    -0.231604115480E+04    0.41741E-05   -0.29503E-05  2892   0.693E-03
  55 F= -.23364802E+04 E0= -.23364802E+04  d E =-.537430E-02  mag=     4.0000
       N       E                     dE             d eps       ncg     rms          rms(c)
DAV:   1    -0.231596033912E+04    0.80820E-01   -0.42793E+00  4408   0.151E+00    0.732E-01
RMM:   2    -0.231604460335E+04   -0.84264E-01   -0.80504E-01  5999   0.314E-01    0.121E+00
RMM:   3    -0.231604566349E+04   -0.10601E-02   -0.88330E-02  5684   0.126E-01    0.665E-01
RMM:   4    -0.231604308523E+04    0.25783E-02   -0.94058E-03  4916   0.313E-02    0.198E-01
RMM:   5    -0.231604249256E+04    0.59267E-03   -0.12858E-03  4754   0.187E-02    0.106E-01
RMM:   6    -0.231604242788E+04    0.64685E-04   -0.60682E-04  4394   0.148E-02    0.471E-02
RMM:   7    -0.231604241191E+04    0.15973E-04   -0.65209E-05  3028   0.874E-03    0.173E-02
RMM:   8    -0.231604241115E+04    0.75996E-06   -0.21705E-05  2871   0.400E-03
  56 F= -.23364820E+04 E0= -.23364820E+04  d E =-.717030E-02  mag=     4.0000
       N       E                     dE             d eps       ncg     rms          rms(c)
DAV:   1    -0.231602086079E+04    0.21551E-01   -0.12789E+00  4480   0.819E-01    0.400E-01
RMM:   2    -0.231604712269E+04   -0.26262E-01   -0.24206E-01  6118   0.167E-01    0.764E-01
RMM:   3    -0.231604620692E+04    0.91577E-03   -0.26438E-02  5540   0.671E-02    0.306E-01
RMM:   4    -0.231604569219E+04    0.51473E-03   -0.27310E-03  3858   0.161E-02    0.105E-01
RMM:   5    -0.231604552726E+04    0.16493E-03   -0.35460E-04  3713   0.980E-03    0.621E-02
RMM:   6    -0.231604551127E+04    0.15992E-04   -0.17565E-04  3350   0.887E-03    0.159E-02
RMM:   7    -0.231604551041E+04    0.85466E-06   -0.17472E-05  2878   0.540E-03
  57 F= -.23364855E+04 E0= -.23364855E+04  d E =-.350493E-02  mag=     4.0000
       N       E                     dE             d eps       ncg     rms          rms(c)
DAV:   1    -0.231591903685E+04    0.12647E+00   -0.66048E+00  4408   0.186E+00    0.889E-01
RMM:   2    -0.231604940922E+04   -0.13037E+00   -0.12471E+00  6084   0.381E-01    0.146E+00
RMM:   3    -0.231605285550E+04   -0.34463E-02   -0.14091E-01  5741   0.155E-01    0.844E-01
RMM:   4    -0.231604860206E+04    0.42534E-02   -0.14309E-02  5071   0.371E-02    0.248E-01
RMM:   5    -0.231604769547E+04    0.90659E-03   -0.20024E-03  4841   0.211E-02    0.133E-01
RMM:   6    -0.231604759318E+04    0.10229E-03   -0.10307E-03  4496   0.171E-02    0.549E-02
RMM:   7    -0.231604757404E+04    0.19142E-04   -0.11284E-04  3058   0.971E-03    0.215E-02
RMM:   8    -0.231604757895E+04   -0.49139E-05   -0.31828E-05  2878   0.412E-03
  58 F= -.23364885E+04 E0= -.23364885E+04  d E =-.650888E-02  mag=     4.0000
       N       E                     dE             d eps       ncg     rms          rms(c)
DAV:   1    -0.231603342639E+04    0.14148E-01   -0.92427E-01  4496   0.733E-01    0.356E-01
RMM:   2    -0.231605295960E+04   -0.19533E-01   -0.17927E-01  5922   0.152E-01    0.675E-01
RMM:   3    -0.231605207881E+04    0.88078E-03   -0.19293E-02  5465   0.630E-02    0.273E-01
RMM:   4    -0.231605164090E+04    0.43792E-03   -0.20276E-03  4218   0.156E-02    0.927E-02
RMM:   5    -0.231605150658E+04    0.13432E-03   -0.30457E-04  3976   0.109E-02    0.530E-02
RMM:   6    -0.231605149506E+04    0.11515E-04   -0.12938E-04  3622   0.879E-03    0.144E-02
RMM:   7    -0.231605149583E+04   -0.77183E-06   -0.15571E-05  2864   0.583E-03
  59 F= -.23364930E+04 E0= -.23364930E+04  d E =-.452149E-02  mag=     4.0000
       N       E                     dE             d eps       ncg     rms          rms(c)
DAV:   1    -0.231602325453E+04    0.28241E-01   -0.14962E+00  4408   0.935E-01    0.449E-01
RMM:   2    -0.231605455322E+04   -0.31299E-01   -0.29076E-01  5883   0.194E-01    0.818E-01
RMM:   3    -0.231605369458E+04    0.85864E-03   -0.31331E-02  5505   0.800E-02    0.364E-01
RMM:   4    -0.231605289104E+04    0.80355E-03   -0.32671E-03  4566   0.200E-02    0.119E-01
RMM:   5    -0.231605266412E+04    0.22692E-03   -0.50568E-04  4352   0.136E-02    0.632E-02
RMM:   6    -0.231605264281E+04    0.21310E-04   -0.19584E-04  3994   0.103E-02    0.197E-02
RMM:   7    -0.231605264123E+04    0.15734E-05   -0.23984E-05  2874   0.666E-03
  60 F= -.23364949E+04 E0= -.23364949E+04  d E =-.644100E-02  mag=     4.0000
       N       E                     dE             d eps       ncg     rms          rms(c)
DAV:   1    -0.231603738132E+04    0.15261E-01   -0.10410E+00  4408   0.791E-01    0.353E-01
RMM:   2    -0.231605657333E+04   -0.19192E-01   -0.18166E-01  5848   0.157E-01    0.594E-01
RMM:   3    -0.231605641015E+04    0.16318E-03   -0.19165E-02  5315   0.651E-02    0.303E-01
RMM:   4    -0.231605583583E+04    0.57433E-03   -0.20406E-03  4163   0.156E-02    0.954E-02
RMM:   5    -0.231605568807E+04    0.14775E-03   -0.33984E-04  3901   0.105E-02    0.480E-02
RMM:   6    -0.231605567580E+04    0.12274E-04   -0.12581E-04  3704   0.853E-03    0.244E-02
RMM:   7    -0.231605567268E+04    0.31146E-05   -0.19431E-05  2865   0.601E-03
  61 F= -.23364986E+04 E0= -.23364986E+04  d E =-.371507E-02  mag=     4.0000
       N       E                     dE             d eps       ncg     rms          rms(c)
DAV:   1    -0.231603388794E+04    0.21788E-01   -0.12643E+00  4408   0.872E-01    0.388E-01
RMM:   2    -0.231605708559E+04   -0.23198E-01   -0.22056E-01  5876   0.174E-01    0.639E-01
RMM:   3    -0.231605703200E+04    0.53589E-04   -0.23354E-02  5398   0.731E-02    0.340E-01
RMM:   4    -0.231605630682E+04    0.72518E-03   -0.24751E-03  4356   0.172E-02    0.106E-01
RMM:   5    -0.231605612303E+04    0.18379E-03   -0.41536E-04  4067   0.115E-02    0.531E-02
RMM:   6    -0.231605610366E+04    0.19364E-04   -0.15704E-04  3904   0.917E-03    0.290E-02
RMM:   7    -0.231605609720E+04    0.64606E-05   -0.24611E-05  2870   0.654E-03
  62 F= -.23364998E+04 E0= -.23364998E+04  d E =-.489681E-02  mag=     4.0000
       N       E                     dE             d eps       ncg     rms          rms(c)
DAV:   1    -0.231603325372E+04    0.22850E-01   -0.14013E+00  4420   0.968E-01    0.404E-01
RMM:   2    -0.231605981451E+04   -0.26561E-01   -0.25551E-01  5865   0.189E-01    0.636E-01
RMM:   3    -0.231606032865E+04   -0.51414E-03   -0.27113E-02  5397   0.778E-02    0.369E-01
RMM:   4    -0.231605949586E+04    0.83280E-03   -0.28483E-03  4430   0.184E-02    0.110E-01
RMM:   5    -0.231605930597E+04    0.18988E-03   -0.42136E-04  3939   0.115E-02    0.587E-02
RMM:   6    -0.231605928642E+04    0.19555E-04   -0.19648E-04  3931   0.976E-03    0.363E-02
RMM:   7    -0.231605928107E+04    0.53453E-05   -0.31452E-05  2864   0.695E-03
  63 F= -.23365036E+04 E0= -.23365036E+04  d E =-.382080E-02  mag=     4.0000
       N       E                     dE             d eps       ncg     rms          rms(c)
DAV:   1    -0.231602940001E+04    0.29886E-01   -0.16414E+00  4408   0.105E+00    0.437E-01
RMM:   2    -0.231606045279E+04   -0.31053E-01   -0.29959E-01  5868   0.206E-01    0.677E-01
RMM:   3    -0.231606118133E+04   -0.72854E-03   -0.31906E-02  5433   0.844E-02    0.403E-01
RMM:   4    -0.231606019043E+04    0.99090E-03   -0.33520E-03  4576   0.199E-02    0.119E-01
RMM:   5    -0.231605996861E+04    0.22181E-03   -0.49598E-04  4066   0.124E-02    0.642E-02
RMM:   6    -0.231605994412E+04    0.24490E-04   -0.23002E-04  4025   0.104E-02    0.404E-02
RMM:   7    -0.231605993740E+04    0.67276E-05   -0.38369E-05  2868   0.748E-03
  64 F= -.23365050E+04 E0= -.23365050E+04  d E =-.516839E-02  mag=     4.0000
       N       E                     dE             d eps       ncg     rms          rms(c)
DAV:   1    -0.231602588033E+04    0.34064E-01   -0.20814E+00  4408   0.123E+00    0.495E-01
RMM:   2    -0.231606436916E+04   -0.38489E-01   -0.37345E-01  5853   0.236E-01    0.735E-01
RMM:   3    -0.231606561701E+04   -0.12479E-02   -0.39964E-02  5455   0.958E-02    0.474E-01
RMM:   4    -0.231606421398E+04    0.14030E-02   -0.42118E-03  4766   0.225E-02    0.133E-01
RMM:   5    -0.231606394006E+04    0.27392E-03   -0.61213E-04  4305   0.138E-02    0.720E-02
RMM:   6    -0.231606390174E+04    0.38315E-04   -0.30679E-04  4190   0.113E-02    0.465E-02
RMM:   7    -0.231606389139E+04    0.10355E-04   -0.49416E-05  2868   0.855E-03    0.203E-02
RMM:   8    -0.231606389047E+04    0.91473E-06   -0.13470E-05  2835   0.334E-03
  65 F= -.23365095E+04 E0= -.23365095E+04  d E =-.450350E-02  mag=     4.0000
       N       E                     dE             d eps       ncg     rms          rms(c)
DAV:   1    -0.231604984230E+04    0.14049E-01   -0.79867E-01  4528   0.762E-01    0.311E-01
RMM:   2    -0.231606497066E+04   -0.15128E-01   -0.14365E-01  5851   0.146E-01    0.512E-01
RMM:   3    -0.231606494654E+04    0.24121E-04   -0.14968E-02  5285   0.596E-02    0.268E-01
RMM:   4    -0.231606449023E+04    0.45631E-03   -0.15969E-03  3922   0.140E-02    0.801E-02
RMM:   5    -0.231606438053E+04    0.10970E-03   -0.22519E-04  3529   0.898E-03    0.421E-02
RMM:   6    -0.231606436726E+04    0.13269E-04   -0.10833E-04  3680   0.805E-03    0.227E-02
RMM:   7    -0.231606436502E+04    0.22335E-05   -0.16783E-05  2852   0.578E-03
  66 F= -.23365103E+04 E0= -.23365103E+04  d E =-.531967E-02  mag=     4.0000
       N       E                     dE             d eps       ncg     rms          rms(c)
DAV:   1    -0.231603166067E+04    0.32707E-01   -0.20446E+00  4408   0.118E+00    0.476E-01
RMM:   2    -0.231606887173E+04   -0.37211E-01   -0.35995E-01  5909   0.228E-01    0.734E-01
RMM:   3    -0.231606983307E+04   -0.96135E-03   -0.38481E-02  5477   0.932E-02    0.444E-01
RMM:   4    -0.231606863406E+04    0.11990E-02   -0.40701E-03  4696   0.217E-02    0.135E-01
RMM:   5    -0.231606835742E+04    0.27664E-03   -0.59571E-04  4254   0.134E-02    0.702E-02
RMM:   6    -0.231606832196E+04    0.35462E-04   -0.30548E-04  4117   0.112E-02    0.413E-02
RMM:   7    -0.231606831302E+04    0.89421E-05   -0.44821E-05  2864   0.813E-03
  67 F= -.23365147E+04 E0= -.23365147E+04  d E =-.442733E-02  mag=     4.0000
       N       E                     dE             d eps       ncg     rms          rms(c)
DAV:   1    -0.231600129955E+04    0.67022E-01   -0.37083E+00  4408   0.159E+00    0.639E-01
RMM:   2    -0.231606812419E+04   -0.66825E-01   -0.65219E-01  5879   0.308E-01    0.939E-01
RMM:   3    -0.231607095270E+04   -0.28285E-02   -0.71219E-02  5543   0.125E-01    0.630E-01
RMM:   4    -0.231606850316E+04    0.24495E-02   -0.73778E-03  5019   0.293E-02    0.185E-01
RMM:   5    -0.231606800293E+04    0.50024E-03   -0.11933E-03  4730   0.175E-02    0.988E-02
RMM:   6    -0.231606792065E+04    0.82278E-04   -0.59210E-04  4459   0.143E-02    0.593E-02
RMM:   7    -0.231606790054E+04    0.20104E-04   -0.85687E-05  2970   0.981E-03    0.262E-02
RMM:   8    -0.231606790156E+04   -0.10145E-05   -0.24181E-05  2847   0.405E-03
  68 F= -.23365150E+04 E0= -.23365150E+04  d E =-.466682E-02  mag=     4.0000
       N       E                     dE             d eps       ncg     rms          rms(c)
DAV:   1    -0.231605539775E+04    0.12503E-01   -0.75181E-01  4420   0.714E-01    0.296E-01
RMM:   2    -0.231606983638E+04   -0.14439E-01   -0.13447E-01  5877   0.139E-01    0.544E-01
RMM:   3    -0.231606927859E+04    0.55779E-03   -0.14388E-02  5181   0.540E-02    0.214E-01
RMM:   4    -0.231606901837E+04    0.26023E-03   -0.15091E-03  3571   0.129E-02    0.772E-02
RMM:   5    -0.231606892094E+04    0.97426E-04   -0.19901E-04  3413   0.849E-03    0.475E-02
RMM:   6    -0.231606890853E+04    0.12410E-04   -0.11451E-04  3322   0.808E-03    0.121E-02
RMM:   7    -0.231606890813E+04    0.40513E-06   -0.13142E-05  2867   0.527E-03
  69 F= -.23365157E+04 E0= -.23365157E+04  d E =-.537916E-02  mag=     4.0000
       N       E                     dE             d eps       ncg     rms          rms(c)
DAV:   1    -0.231604013721E+04    0.28771E-01   -0.17126E+00  4408   0.106E+00    0.451E-01
RMM:   2    -0.231607245075E+04   -0.32314E-01   -0.30969E-01  5899   0.208E-01    0.713E-01
RMM:   3    -0.231607295312E+04   -0.50237E-03   -0.32946E-02  5480   0.826E-02    0.409E-01
RMM:   4    -0.231607192541E+04    0.10277E-02   -0.35228E-03  4598   0.198E-02    0.121E-01
RMM:   5    -0.231607169008E+04    0.23533E-03   -0.50468E-04  4143   0.126E-02    0.634E-02
RMM:   6    -0.231607166516E+04    0.24917E-04   -0.23753E-04  4069   0.104E-02    0.345E-02
RMM:   7    -0.231607165933E+04    0.58316E-05   -0.35255E-05  2861   0.756E-03
  70 F= -.23365189E+04 E0= -.23365189E+04  d E =-.321336E-02  mag=     4.0000
       N       E                     dE             d eps       ncg     rms          rms(c)
DAV:   1    -0.231603007260E+04    0.41593E-01   -0.22480E+00  4408   0.121E+00    0.516E-01
RMM:   2    -0.231607224231E+04   -0.42170E-01   -0.40801E-01  5919   0.241E-01    0.778E-01
RMM:   3    -0.231607350563E+04   -0.12633E-02   -0.43923E-02  5526   0.968E-02    0.487E-01
RMM:   4    -0.231607206521E+04    0.14404E-02   -0.46501E-03  4842   0.230E-02    0.142E-01
RMM:   5    -0.231607176832E+04    0.29690E-03   -0.68315E-04  4303   0.141E-02    0.757E-02
RMM:   6    -0.231607173277E+04    0.35550E-04   -0.33455E-04  4204   0.117E-02    0.460E-02
RMM:   7    -0.231607172295E+04    0.98117E-05   -0.52091E-05  2880   0.840E-03
  71 F= -.23365195E+04 E0= -.23365195E+04  d E =-.380738E-02  mag=     4.0000
       N       E                     dE             d eps       ncg     rms          rms(c)
DAV:   1    -0.231606105197E+04    0.10681E-01   -0.65449E-01  4464   0.630E-01    0.270E-01
RMM:   2    -0.231607347805E+04   -0.12426E-01   -0.11974E-01  5963   0.124E-01    0.429E-01
RMM:   3    -0.231607368462E+04   -0.20657E-03   -0.12680E-02  5050   0.488E-02    0.239E-01
RMM:   4    -0.231607336650E+04    0.31813E-03   -0.13678E-03  3119   0.117E-02    0.741E-02
RMM:   5    -0.231607328706E+04    0.79434E-04   -0.16138E-04  2976   0.690E-03    0.414E-02
RMM:   6    -0.231607328025E+04    0.68079E-05   -0.95023E-05  3081   0.684E-03
  72 F= -.23365214E+04 E0= -.23365214E+04  d E =-.189325E-02  mag=     4.0000
[...]
RMM:   5    -0.231613434359E+04    0.59071E-05   -0.20086E-05  2868   0.437E-03
 166 F= -.23365954E+04 E0= -.23365954E+04  d E =-.555568E-03  mag=     4.0000
       N       E                     dE             d eps       ncg     rms          rms(c)
DAV:   1    -0.231613423265E+04    0.11685E-03   -0.21609E-01  4408   0.403E-01    0.141E-01
RMM:   2    -0.231613456697E+04   -0.33433E-03   -0.42292E-03  4718   0.589E-02    0.729E-02
RMM:   3    -0.231613454301E+04    0.23959E-04   -0.33568E-04  4725   0.331E-02    0.793E-02
RMM:   4    -0.231613454100E+04    0.20131E-05   -0.12081E-04  3270   0.731E-03    0.771E-02
RMM:   5    -0.231613450265E+04    0.38349E-04   -0.51992E-05  3045   0.698E-03    0.958E-03
RMM:   6    -0.231613450191E+04    0.73947E-06   -0.57167E-06  2822   0.460E-03
 167 F= -.23365957E+04 E0= -.23365957E+04  d E =-.852263E-03  mag=     4.0000
       N       E                     dE             d eps       ncg     rms          rms(c)
DAV:   1    -0.231613501601E+04   -0.51336E-03   -0.11191E-01  4408   0.289E-01    0.103E-01
RMM:   2    -0.231613518762E+04   -0.17161E-03   -0.22124E-03  4462   0.417E-02    0.518E-02
RMM:   3    -0.231613515766E+04    0.29960E-04   -0.13896E-04  4075   0.202E-02    0.290E-02
RMM:   4    -0.231613517871E+04   -0.21052E-04   -0.91876E-05  3902   0.709E-03    0.659E-02
RMM:   5    -0.231613515169E+04    0.27025E-04   -0.21976E-05  2845   0.509E-03    0.782E-03
RMM:   6    -0.231613515075E+04    0.93502E-06   -0.23861E-06  2802   0.149E-03
 168 F= -.23365965E+04 E0= -.23365965E+04  d E =-.763115E-03  mag=     4.0000
       N       E                     dE             d eps       ncg     rms          rms(c)
DAV:   1    -0.231613514883E+04    0.28579E-05   -0.18581E-01  4408   0.373E-01    0.133E-01
RMM:   2    -0.231613543309E+04   -0.28426E-03   -0.36892E-03  4440   0.540E-02    0.671E-02
RMM:   3    -0.231613538838E+04    0.44709E-04   -0.24563E-04  4315   0.265E-02    0.508E-02
RMM:   4    -0.231613544100E+04   -0.52623E-04   -0.14141E-04  3728   0.748E-03    0.105E-01
RMM:   5    -0.231613536855E+04    0.72450E-04   -0.51638E-05  2963   0.680E-03    0.916E-03
RMM:   6    -0.231613536732E+04    0.12270E-05   -0.78519E-06  2838   0.408E-03
 169 F= -.23365968E+04 E0= -.23365968E+04  d E =-.112837E-02  mag=     4.0000
       N       E                     dE             d eps       ncg     rms          rms(c)
DAV:   1    -0.231613589816E+04   -0.52960E-03   -0.12176E-01  4408   0.308E-01    0.119E-01
RMM:   2    -0.231613609359E+04   -0.19544E-03   -0.25607E-03  4595   0.455E-02    0.586E-02
RMM:   3    -0.231613609836E+04   -0.47662E-05   -0.20665E-04  4191   0.218E-02    0.902E-02
RMM:   4    -0.231613605842E+04    0.39943E-04   -0.77358E-05  2957   0.591E-03    0.450E-02
RMM:   5    -0.231613604472E+04    0.13695E-04   -0.32282E-05  2966   0.557E-03    0.544E-03
RMM:   6    -0.231613604459E+04    0.13050E-06   -0.46106E-06  2805   0.433E-03
 170 F= -.23365976E+04 E0= -.23365976E+04  d E =-.776015E-03  mag=     4.0000
       N       E                     dE             d eps       ncg     rms          rms(c)
DAV:   1    -0.231613606250E+04   -0.17783E-04   -0.78314E-02  4448   0.247E-01    0.954E-02
RMM:   2    -0.231613618948E+04   -0.12698E-03   -0.16671E-03  4494   0.364E-02    0.451E-02
RMM:   3    -0.231613616757E+04    0.21911E-04   -0.94177E-05  3745   0.152E-02    0.382E-02
RMM:   4    -0.231613618068E+04   -0.13111E-04   -0.53712E-05  2902   0.545E-03    0.602E-02
RMM:   5    -0.231613615782E+04    0.22862E-04   -0.29946E-05  2867   0.509E-03    0.798E-03
RMM:   6    -0.231613615715E+04    0.66354E-06   -0.34930E-06  2801   0.365E-03
 171 F= -.23365978E+04 E0= -.23365978E+04  d E =-.968515E-03  mag=     4.0000
       N       E                     dE             d eps       ncg     rms          rms(c)
DAV:   1    -0.231613653763E+04   -0.37981E-03   -0.97090E-02  4408   0.277E-01    0.109E-01
RMM:   2    -0.231613670280E+04   -0.16516E-03   -0.22232E-03  4580   0.412E-02    0.507E-02
RMM:   3    -0.231613666760E+04    0.35196E-04   -0.14097E-04  4098   0.185E-02    0.287E-02
RMM:   4    -0.231613668530E+04   -0.17697E-04   -0.95772E-05  3981   0.742E-03    0.614E-02
RMM:   5    -0.231613666151E+04    0.23788E-04   -0.19429E-05  2843   0.517E-03    0.822E-03
RMM:   6    -0.231613666057E+04    0.94075E-06   -0.25903E-06  2815   0.152E-03
 172 F= -.23365984E+04 E0= -.23365984E+04  d E =-.609228E-03  mag=     4.0000
       N       E                     dE             d eps       ncg     rms          rms(c)
DAV:   1    -0.231613665794E+04    0.35643E-05   -0.31398E-02  4496   0.158E-01    0.625E-02
RMM:   2    -0.231613671330E+04   -0.55356E-04   -0.73869E-04  4937   0.243E-02    0.305E-02
RMM:   3    -0.231613671124E+04    0.20640E-05   -0.57478E-05  3066   0.116E-02
 173 F= -.23365985E+04 E0= -.23365985E+04  d E =-.720271E-03  mag=     4.0000
       N       E                     dE             d eps       ncg     rms          rms(c)
DAV:   1    -0.231613709558E+04   -0.38228E-03   -0.89888E-02  4408   0.276E-01    0.116E-01
RMM:   2    -0.231613728644E+04   -0.19086E-03   -0.22211E-03  5025   0.426E-02    0.903E-02
RMM:   3    -0.231613737493E+04   -0.88496E-04   -0.30924E-04  4316   0.193E-02    0.156E-01
RMM:   4    -0.231613721789E+04    0.15705E-03   -0.15039E-04  3207   0.701E-03    0.295E-02
RMM:   5    -0.231613720956E+04    0.83264E-05   -0.33924E-05  3061   0.562E-03
 174 F= -.23365991E+04 E0= -.23365991E+04  d E =-.566012E-03  mag=     4.0000
       N       E                     dE             d eps       ncg     rms          rms(c)
DAV:   1    -0.231613718467E+04    0.33219E-04   -0.31035E-02  4504   0.163E-01    0.643E-02
RMM:   2    -0.231613724737E+04   -0.62698E-04   -0.80507E-04  5396   0.280E-02    0.296E-02
RMM:   3    -0.231613724207E+04    0.52905E-05   -0.62285E-05  3333   0.111E-02
 175 F= -.23365992E+04 E0= -.23365992E+04  d E =-.638747E-03  mag=     4.0000
       N       E                     dE             d eps       ncg     rms          rms(c)
DAV:   1    -0.231613755562E+04   -0.30826E-03   -0.71626E-02  4408   0.238E-01    0.985E-02
RMM:   2    -0.231613775581E+04   -0.20019E-03   -0.18435E-03  5072   0.371E-02    0.114E-01
RMM:   3    -0.231613773883E+04    0.16981E-04   -0.25136E-04  3741   0.156E-02    0.106E-01
RMM:   4    -0.231613766012E+04    0.78716E-04   -0.79299E-05  3021   0.639E-03    0.242E-02
RMM:   5    -0.231613765511E+04    0.50047E-05   -0.25225E-05  2933   0.499E-03
 176 F= -.23365996E+04 E0= -.23365996E+04  d E =-.441512E-03  mag=     4.0000
       N       E                     dE             d eps       ncg     rms          rms(c)
DAV:   1    -0.231613764061E+04    0.19504E-04   -0.53076E-02  4432   0.205E-01    0.761E-02
RMM:   2    -0.231613775084E+04   -0.11023E-03   -0.13642E-03  5510   0.337E-02    0.378E-02
RMM:   3    -0.231613773881E+04    0.12030E-04   -0.96400E-05  3502   0.132E-02    0.332E-02
RMM:   4    -0.231613774651E+04   -0.77035E-05   -0.33702E-05  2858   0.462E-03
 177 F= -.23365997E+04 E0= -.23365997E+04  d E =-.558035E-03  mag=     4.0000
       N       E                     dE             d eps       ncg     rms          rms(c)
DAV:   1    -0.231613812883E+04   -0.39002E-03   -0.95576E-02  4408   0.283E-01    0.106E-01
RMM:   2    -0.231613832053E+04   -0.19170E-03   -0.25111E-03  4966   0.440E-02    0.510E-02
RMM:   3    -0.231613828725E+04    0.33278E-04   -0.18182E-04  4396   0.228E-02    0.276E-02
RMM:   4    -0.231613827956E+04    0.76932E-05   -0.75922E-05  3919   0.731E-03
 178 F= -.23366003E+04 E0= -.23366003E+04  d E =-.593837E-03  mag=     4.0000
       N       E                     dE             d eps       ncg     rms          rms(c)
DAV:   1    -0.231613827166E+04    0.15594E-04   -0.26456E-02  4560   0.149E-01    0.597E-02
RMM:   2    -0.231613837182E+04   -0.10016E-03   -0.81005E-04  5467   0.269E-02    0.835E-02
RMM:   3    -0.231613834380E+04    0.28022E-04   -0.10749E-04  3155   0.949E-03    0.583E-02
RMM:   4    -0.231613831801E+04    0.25788E-04   -0.19665E-05  2851   0.434E-03    0.135E-02
RMM:   5    -0.231613831479E+04    0.32160E-05   -0.13194E-05  2853   0.368E-03
 179 F= -.23366004E+04 E0= -.23366004E+04  d E =-.661330E-03  mag=     4.0000
       N       E                     dE             d eps       ncg     rms          rms(c)
DAV:   1    -0.231613858467E+04   -0.26666E-03   -0.92180E-02  4408   0.280E-01    0.103E-01
RMM:   2    -0.231613877910E+04   -0.19443E-03   -0.24957E-03  5239   0.443E-02    0.499E-02
RMM:   3    -0.231613875724E+04    0.21861E-04   -0.18962E-04  4733   0.209E-02    0.456E-02
RMM:   4    -0.231613876847E+04   -0.11235E-04   -0.60209E-05  2915   0.554E-03    0.630E-02
RMM:   5    -0.231613874226E+04    0.26210E-04   -0.35036E-05  2913   0.519E-03    0.101E-02
RMM:   6    -0.231613874160E+04    0.66106E-06   -0.43454E-06  2824   0.376E-03
 180 F= -.23366009E+04 E0= -.23366009E+04  d E =-.536930E-03  mag=     4.0000
       N       E                     dE             d eps       ncg     rms          rms(c)
DAV:   1    -0.231613871408E+04    0.28188E-04   -0.17247E-02  4568   0.122E-01    0.449E-02
RMM:   2    -0.231613875132E+04   -0.37243E-04   -0.47094E-04  4774   0.191E-02    0.227E-02
RMM:   3    -0.231613875203E+04   -0.70807E-06   -0.39776E-05  2893   0.993E-03
 181 F= -.23366010E+04 E0= -.23366010E+04  d E =-.595210E-03  mag=     4.0000
       N       E                     dE             d eps       ncg     rms          rms(c)
DAV:   1    -0.231613904686E+04   -0.29554E-03   -0.83868E-02  4408   0.271E-01    0.108E-01
RMM:   2    -0.231613923435E+04   -0.18749E-03   -0.23183E-03  4835   0.418E-02    0.718E-02
RMM:   3    -0.231613931739E+04   -0.83043E-04   -0.28785E-04  4074   0.193E-02    0.144E-01
RMM:   4    -0.231613918505E+04    0.13234E-03   -0.12014E-04  3002   0.648E-03    0.290E-02
RMM:   5    -0.231613917520E+04    0.98523E-05   -0.32713E-05  3048   0.537E-03
 182 F= -.23366015E+04 E0= -.23366015E+04  d E =-.473364E-03  mag=     4.0000
       N       E                     dE             d eps       ncg     rms          rms(c)
DAV:   1    -0.231613915531E+04    0.29738E-04   -0.13357E-02  4648   0.109E-01    0.418E-02
RMM:   2    -0.231613918712E+04   -0.31803E-04   -0.39647E-04  4953   0.202E-02    0.223E-02
RMM:   3    -0.231613919540E+04   -0.82861E-05   -0.43370E-05  2926   0.844E-03
 183 F= -.23366015E+04 E0= -.23366015E+04  d E =-.513840E-03  mag=     4.0000
       N       E                     dE             d eps       ncg     rms          rms(c)
DAV:   1    -0.231613945900E+04   -0.27188E-03   -0.83612E-02  4408   0.272E-01    0.109E-01
RMM:   2    -0.231613962983E+04   -0.17083E-03   -0.22635E-03  5075   0.421E-02    0.526E-02
RMM:   3    -0.231613963581E+04   -0.59879E-05   -0.17881E-04  4347   0.167E-02    0.835E-02
RMM:   4    -0.231613960072E+04    0.35088E-04   -0.59364E-05  2876   0.541E-03    0.407E-02
RMM:   5    -0.231613958898E+04    0.11742E-04   -0.30331E-05  2995   0.510E-03    0.631E-03
RMM:   6    -0.231613958899E+04   -0.98953E-08   -0.42993E-06  2818   0.409E-03
 184 F= -.23366019E+04 E0= -.23366019E+04  d E =-.380890E-03  mag=     4.0000
       N       E                     dE             d eps       ncg     rms          rms(c)
DAV:   1    -0.231613959928E+04   -0.10296E-04   -0.82816E-03  4712   0.858E-02    0.331E-02
RMM:   2    -0.231613961685E+04   -0.17571E-04   -0.22563E-04  4546   0.135E-02    0.146E-02
RMM:   3    -0.231613961426E+04    0.25866E-05   -0.16253E-05  2841   0.772E-03
 185 F= -.23366019E+04 E0= -.23366019E+04  d E =-.402250E-03  mag=     4.0000
       N       E                     dE             d eps       ncg     rms          rms(c)
DAV:   1    -0.231613990643E+04   -0.28958E-03   -0.74099E-02  4408   0.262E-01    0.101E-01
RMM:   2    -0.231614007627E+04   -0.16984E-03   -0.20598E-03  4671   0.404E-02    0.738E-02
RMM:   3    -0.231614014347E+04   -0.67196E-04   -0.25497E-04  3960   0.177E-02    0.138E-01
RMM:   4    -0.231614001750E+04    0.12597E-03   -0.10836E-04  3053   0.633E-03    0.241E-02
RMM:   5    -0.231614000749E+04    0.10010E-04   -0.30505E-05  2997   0.529E-03    0.639E-03
RMM:   6    -0.231614000694E+04    0.55207E-06   -0.51071E-06  2810   0.421E-03
 186 F= -.23366023E+04 E0= -.23366023E+04  d E =-.391693E-03  mag=     4.0000
       N       E                     dE             d eps       ncg     rms          rms(c)
DAV:   1    -0.231614000655E+04    0.93717E-06   -0.17235E-03  5344   0.404E-02    0.151E-02
RMM:   2    -0.231614000998E+04   -0.34255E-05   -0.49097E-05  3338   0.745E-03
 187 F= -.23366023E+04 E0= -.23366023E+04  d E =-.394617E-03  mag=     4.0000
       N       E                     dE             d eps       ncg     rms          rms(c)
DAV:   1    -0.231614021558E+04   -0.20903E-03   -0.65679E-02  4432   0.241E-01    0.910E-02
RMM:   2    -0.231614034742E+04   -0.13184E-03   -0.17605E-03  5479   0.395E-02    0.423E-02
RMM:   3    -0.231614031920E+04    0.28220E-04   -0.12468E-04  4506   0.164E-02    0.302E-02
RMM:   4    -0.231614033906E+04   -0.19862E-04   -0.49618E-05  2897   0.540E-03    0.669E-02
RMM:   5    -0.231614030998E+04    0.29079E-04   -0.26336E-05  2856   0.465E-03    0.538E-03
RMM:   6    -0.231614030983E+04    0.15434E-06   -0.39210E-06  2820   0.332E-03
 188 F= -.23366026E+04 E0= -.23366026E+04  d E =-.335817E-03  mag=     4.0000
       N       E                     dE             d eps       ncg     rms          rms(c)
DAV:   1    -0.231614030442E+04    0.55600E-05   -0.36730E-03  4976   0.573E-02    0.215E-02
RMM:   2    -0.231614031174E+04   -0.73150E-05   -0.95016E-05  3750   0.955E-03
 189 F= -.23366026E+04 E0= -.23366026E+04  d E =-.346282E-03  mag=     4.0000
       N       E                     dE             d eps       ncg     rms          rms(c)
DAV:   1    -0.231614055558E+04   -0.25116E-03   -0.68224E-02  4420   0.242E-01    0.939E-02
RMM:   2    -0.231614073820E+04   -0.18262E-03   -0.19099E-03  5598   0.416E-02    0.947E-02
RMM:   3    -0.231614074712E+04   -0.89247E-05   -0.25504E-04  4056   0.155E-02    0.114E-01
RMM:   4    -0.231614065397E+04    0.93149E-04   -0.74248E-05  2966   0.667E-03    0.223E-02
RMM:   5    -0.231614064687E+04    0.70991E-05   -0.34331E-05  3195   0.571E-03
 190 F= -.23366030E+04 E0= -.23366030E+04  d E =-.348837E-03  mag=     4.0000
       N       E                     dE             d eps       ncg     rms          rms(c)
DAV:   1    -0.231614064283E+04    0.11143E-04   -0.26015E-03  5328   0.479E-02    0.182E-02
RMM:   2    -0.231614064845E+04   -0.56188E-05   -0.75168E-05  3603   0.986E-03
 191 F= -.23366030E+04 E0= -.23366030E+04  d E =-.353159E-03  mag=     4.0000
       N       E                     dE             d eps       ncg     rms          rms(c)
DAV:   1    -0.231614091498E+04   -0.27215E-03   -0.63162E-02  4408   0.230E-01    0.929E-02
RMM:   2    -0.231614106136E+04   -0.14639E-03   -0.16487E-03  5526   0.397E-02    0.827E-02
RMM:   3    -0.231614109653E+04   -0.35168E-04   -0.23016E-04  3998   0.153E-02    0.120E-01
RMM:   4    -0.231614099916E+04    0.97370E-04   -0.88319E-05  2965   0.649E-03    0.233E-02
RMM:   5    -0.231614099279E+04    0.63701E-05   -0.28528E-05  3022   0.548E-03
 192 F= -.23366033E+04 E0= -.23366033E+04  d E =-.313252E-03  mag=     4.0000
       N       E                     dE             d eps       ncg     rms          rms(c)
DAV:   1    -0.231614099562E+04    0.35419E-05   -0.30653E-03  5248   0.513E-02    0.206E-02
RMM:   2    -0.231614100194E+04   -0.63223E-05   -0.84363E-05  3733   0.106E-02
 193 F= -.23366033E+04 E0= -.23366033E+04  d E =-.315518E-03  mag=     4.0000
       N       E                     dE             d eps       ncg     rms          rms(c)
DAV:   1    -0.231614123983E+04   -0.24421E-03   -0.58438E-02  4420   0.219E-01    0.903E-02
RMM:   2    -0.231614137202E+04   -0.13219E-03   -0.14503E-03  5466   0.377E-02    0.818E-02
RMM:   3    -0.231614140653E+04   -0.34508E-04   -0.21920E-04  3818   0.151E-02    0.117E-01
RMM:   4    -0.231614131455E+04    0.91979E-04   -0.76289E-05  2917   0.625E-03    0.212E-02
RMM:   5    -0.231614130937E+04    0.51763E-05   -0.26519E-05  2961   0.518E-03
 194 F= -.23366036E+04 E0= -.23366036E+04  d E =-.314323E-03  mag=     4.0000
       N       E                     dE             d eps       ncg     rms          rms(c)
DAV:   1    -0.231614130568E+04    0.88708E-05   -0.56462E-03  4776   0.687E-02    0.276E-02
RMM:   2    -0.231614131694E+04   -0.11264E-04   -0.14541E-04  4377   0.138E-02    0.138E-02
RMM:   3    -0.231614131971E+04   -0.27670E-05   -0.17036E-05  2851   0.634E-03
 195 F= -.23366036E+04 E0= -.23366036E+04  d E =-.326907E-03  mag=     4.0000
       N       E                     dE             d eps       ncg     rms          rms(c)
DAV:   1    -0.231614154972E+04   -0.23278E-03   -0.57624E-02  4408   0.214E-01    0.888E-02
RMM:   2    -0.231614164764E+04   -0.97918E-04   -0.13441E-03  5041   0.333E-02    0.482E-02
RMM:   3    -0.231614168007E+04   -0.32435E-04   -0.13899E-04  3567   0.135E-02    0.100E-01
RMM:   4    -0.231614161854E+04    0.61539E-04   -0.59859E-05  2861   0.537E-03    0.262E-02
RMM:   5    -0.231614161252E+04    0.60150E-05   -0.22423E-05  2889   0.456E-03
 196 F= -.23366040E+04 E0= -.23366040E+04  d E =-.328796E-03  mag=     4.0000
       N       E                     dE             d eps       ncg     rms          rms(c)
DAV:   1    -0.231614159928E+04    0.19258E-04   -0.10645E-02  4520   0.922E-02    0.376E-02
RMM:   2    -0.231614161954E+04   -0.20261E-04   -0.26077E-04  4610   0.174E-02    0.194E-02
RMM:   3    -0.231614162608E+04   -0.65441E-05   -0.29138E-05  2884   0.735E-03
 197 F= -.23366040E+04 E0= -.23366040E+04  d E =-.358035E-03  mag=     4.0000
       N       E                     dE             d eps       ncg     rms          rms(c)
DAV:   1    -0.231614184954E+04   -0.23000E-03   -0.55332E-02  4408   0.201E-01    0.857E-02
RMM:   2    -0.231614194212E+04   -0.92578E-04   -0.12951E-03  5297   0.317E-02    0.430E-02
RMM:   3    -0.231614192864E+04    0.13480E-04   -0.96370E-05  3514   0.124E-02    0.477E-02
RMM:   4    -0.231614192801E+04    0.62521E-06   -0.40293E-05  2862   0.488E-03
 198 F= -.23366043E+04 E0= -.23366043E+04  d E =-.336841E-03  mag=     4.0000
       N       E                     dE             d eps       ncg     rms          rms(c)
DAV:   1    -0.231614189696E+04    0.31680E-04   -0.23583E-02  4456   0.131E-01    0.536E-02
RMM:   2    -0.231614193980E+04   -0.42845E-04   -0.55841E-04  5105   0.216E-02    0.297E-02
RMM:   3    -0.231614195200E+04   -0.12202E-04   -0.53119E-05  3054   0.103E-02    0.609E-02
RMM:   4    -0.231614192938E+04    0.22626E-04   -0.25532E-05  2846   0.361E-03    0.153E-02
RMM:   5    -0.231614192671E+04    0.26661E-05   -0.82952E-06  2835   0.279E-03
 199 F= -.23366044E+04 E0= -.23366044E+04  d E =-.358905E-03  mag=     4.0000
       N       E                     dE             d eps       ncg     rms          rms(c)
DAV:   1    -0.231614218450E+04   -0.25512E-03   -0.43937E-02  4408   0.173E-01    0.712E-02
RMM:   2    -0.231614225677E+04   -0.72270E-04   -0.97724E-04  5379   0.278E-02    0.368E-02
RMM:   3    -0.231614225601E+04    0.75687E-06   -0.76271E-05  3326   0.123E-02
 200 F= -.23366047E+04 E0= -.23366047E+04  d E =-.355135E-03  mag=     4.0000
       N       E                     dE             d eps       ncg     rms          rms(c)
DAV:   1    -0.231614226339E+04   -0.66284E-05   -0.43648E-02  4408   0.173E-01    0.850E-02
RMM:   2    -0.231614236480E+04   -0.10140E-03   -0.10074E-03  5261   0.284E-02    0.965E-02
RMM:   3    -0.231614235728E+04    0.75195E-05   -0.18304E-04  3178   0.119E-02    0.951E-02
RMM:   4    -0.231614229248E+04    0.64797E-04   -0.56354E-05  3007   0.600E-03    0.184E-02
RMM:   5    -0.231614228823E+04    0.42502E-05   -0.19757E-05  2880   0.450E-03
 201 F= -.23366048E+04 E0= -.23366048E+04  d E =-.413615E-03  mag=     4.0000
