       N       E                     dE             d eps       ncg     rms          rms(c)
DAV:   1     0.131323257905E+05    0.13132E+05   -0.84616E+05  4552   0.145E+03
DAV:   2    -0.100695475435E+04   -0.14139E+05   -0.13507E+05  4920   0.331E+02
DAV:   3    -0.248592126228E+04   -0.14790E+04   -0.14603E+04  5552   0.115E+02
DAV:   4    -0.253178039948E+04   -0.45859E+02   -0.45598E+02  6704   0.291E+01
DAV:   5    -0.253269073822E+04   -0.91034E+00   -0.90820E+00  6384   0.356E+00    0.170E+02
RMM:   6    -0.149158612643E+04    0.10411E+04   -0.19684E+03  4473   0.383E+01    0.723E+01
RMM:   7    -0.166294115700E+04   -0.17136E+03   -0.29045E+02  5129   0.142E+01    0.476E+01
RMM:   8    -0.172169670152E+04   -0.58756E+02   -0.38410E+01  5388   0.683E+00    0.399E+01
RMM:   9    -0.182449253779E+04   -0.10280E+03   -0.66691E+01  5159   0.790E+00    0.369E+01
RMM:  10    -0.192682896357E+04   -0.10234E+03   -0.49773E+01  5388   0.678E+00    0.254E+01
RMM:  11    -0.198817111976E+04   -0.61342E+02   -0.24203E+01  5249   0.432E+00    0.229E+01
RMM:  12    -0.206382884595E+04   -0.75658E+02   -0.27138E+01  4976   0.420E+00    0.176E+01
RMM:  13    -0.210951142357E+04   -0.45683E+02   -0.16070E+01  5288   0.334E+00    0.157E+01
RMM:  14    -0.222305056900E+04   -0.11354E+03   -0.82161E+01  4524   0.652E+00    0.102E+01
RMM:  15    -0.230102067866E+04   -0.77970E+02   -0.74057E+01  4477   0.583E+00    0.828E+00
RMM:  16    -0.231842610115E+04   -0.17405E+02   -0.18078E+01  4729   0.368E+00    0.498E+00
RMM:  17    -0.232571228569E+04   -0.72862E+01   -0.79498E+00  4725   0.178E+00    0.476E+00
RMM:  18    -0.232707618600E+04   -0.13639E+01   -0.91411E-01  5157   0.102E+00    0.418E+00
RMM:  19    -0.232870612116E+04   -0.16299E+01   -0.91838E-01  4517   0.571E-01    0.166E+00
RMM:  20    -0.232931580826E+04   -0.60969E+00   -0.48698E-01  4637   0.488E-01    0.918E-01
RMM:  21    -0.232954668034E+04   -0.23087E+00   -0.25366E-01  4723   0.291E-01    0.572E-01
RMM:  22    -0.232966719116E+04   -0.12051E+00   -0.76713E-02  4646   0.203E-01    0.342E-01
RMM:  23    -0.232975967097E+04   -0.92480E-01   -0.35465E-02  4581   0.112E-01    0.241E-01
RMM:  24    -0.232981565931E+04   -0.55988E-01   -0.11400E-02  4555   0.855E-02    0.153E-01
RMM:  25    -0.232986029408E+04   -0.44635E-01   -0.10242E-02  4517   0.681E-02    0.892E-02
RMM:  26    -0.232987748021E+04   -0.17186E-01   -0.45272E-03  4653   0.557E-02    0.609E-02
RMM:  27    -0.232988437203E+04   -0.68918E-02   -0.22381E-03  4831   0.301E-02    0.316E-02
RMM:  28    -0.232988654873E+04   -0.21767E-02   -0.54474E-04  4249   0.206E-02    0.158E-02
RMM:  29    -0.232988718499E+04   -0.63626E-03   -0.17557E-04  4115   0.957E-03    0.908E-03
RMM:  30    -0.232988745283E+04   -0.26784E-03   -0.62475E-05  3684   0.732E-03    0.486E-03
RMM:  31    -0.232988755361E+04   -0.10078E-03   -0.24898E-05  3152   0.436E-03    0.275E-03
RMM:  32    -0.232988759061E+04   -0.36999E-04   -0.89922E-06  2861   0.359E-03    0.156E-03
RMM:  33    -0.232988760898E+04   -0.18365E-04   -0.56427E-06  2811   0.263E-03    0.108E-03
RMM:  34    -0.232988761621E+04   -0.72311E-05   -0.31081E-06  2444   0.216E-03
   1 F= -.23513838E+04 E0= -.23513838E+04  d E =-.235138E+04  mag=     2.0002
       N       E                     dE             d eps       ncg     rms          rms(c)
DAV:   1    -0.232987696204E+04    0.10647E-01   -0.88478E+00  5168   0.224E+00    0.825E-01
RMM:   2    -0.233008482371E+04   -0.20786E+00   -0.21427E+00  6555   0.604E-01    0.674E-01
RMM:   3    -0.233009849699E+04   -0.13673E-01   -0.23579E-01  6201   0.252E-01    0.447E-01
RMM:   4    -0.233009793313E+04    0.56385E-03   -0.20697E-02  5997   0.469E-02    0.372E-01
RMM:   5    -0.233009757602E+04    0.35712E-03   -0.32663E-03  5666   0.259E-02    0.365E-01
RMM:   6    -0.233009617980E+04    0.13962E-02   -0.40538E-03  5753   0.287E-02    0.223E-01
RMM:   7    -0.233009598062E+04    0.19918E-03   -0.11454E-03  4780   0.162E-02    0.169E-01
RMM:   8    -0.233009569819E+04    0.28243E-03   -0.37138E-04  3622   0.950E-03    0.682E-02
RMM:   9    -0.233009564359E+04    0.54602E-04   -0.48110E-05  2956   0.582E-03    0.375E-02
RMM:  10    -0.233009562191E+04    0.21684E-04   -0.62130E-05  2914   0.512E-03    0.913E-03
RMM:  11    -0.233009562116E+04    0.75035E-06   -0.13870E-05  2937   0.349E-03
   2 F= -.23515899E+04 E0= -.23515899E+04  d E =-.206059E+00  mag=     2.0000
       N       E                     dE             d eps       ncg     rms          rms(c)
DAV:   1    -0.232978019297E+04    0.31543E+00   -0.17136E+01  4704   0.311E+00    0.112E+00
RMM:   2    -0.233018798583E+04   -0.40779E+00   -0.42371E+00  6543   0.872E-01    0.879E-01
RMM:   3    -0.233022056028E+04   -0.32574E-01   -0.46836E-01  6198   0.365E-01    0.795E-01
RMM:   4    -0.233022028648E+04    0.27380E-03   -0.43849E-02  6323   0.662E-02    0.647E-01
RMM:   5    -0.233021719132E+04    0.30952E-02   -0.52214E-03  5692   0.312E-02    0.447E-01
RMM:   6    -0.233021501142E+04    0.21799E-02   -0.10435E-02  5985   0.456E-02    0.268E-01
RMM:   7    -0.233021423418E+04    0.77724E-03   -0.20142E-03  5549   0.221E-02    0.135E-01
RMM:   8    -0.233021422695E+04    0.72338E-05   -0.39151E-04  3380   0.112E-02    0.126E-01
RMM:   9    -0.233021405493E+04    0.17201E-03   -0.16967E-04  3207   0.807E-03    0.760E-02
RMM:  10    -0.233021396904E+04    0.85891E-04   -0.18922E-04  3138   0.803E-03    0.160E-02
RMM:  11    -0.233021396655E+04    0.24956E-05   -0.37089E-05  2960   0.454E-03
   3 F= -.23517077E+04 E0= -.23517077E+04  d E =-.323841E+00  mag=     2.0000
       N       E                     dE             d eps       ncg     rms          rms(c)
DAV:   1    -0.233020773412E+04    0.62349E-02   -0.46286E+00  4688   0.235E+00    0.969E-01
RMM:   2    -0.233023482380E+04   -0.27090E-01   -0.32363E-01  5956   0.469E-01    0.560E-01
RMM:   3    -0.233024501187E+04   -0.10188E-01   -0.39717E-02  5779   0.203E-01    0.113E+00
RMM:   4    -0.233023141941E+04    0.13592E-01   -0.87085E-03  6093   0.636E-02    0.243E-01
RMM:   5    -0.233023181628E+04   -0.39687E-03   -0.37690E-03  5005   0.437E-02    0.330E-01
RMM:   6    -0.233023034198E+04    0.14743E-02   -0.20427E-03  5579   0.309E-02    0.998E-02
RMM:   7    -0.233023028359E+04    0.58385E-04   -0.54346E-04  4928   0.174E-02    0.865E-02
RMM:   8    -0.233023014055E+04    0.14304E-03   -0.15110E-04  3845   0.779E-03    0.233E-02
RMM:   9    -0.233023011488E+04    0.25666E-04   -0.41258E-05  3199   0.597E-03    0.120E-02
RMM:  10    -0.233023010440E+04    0.10481E-04   -0.24804E-05  3086   0.546E-03    0.612E-03
RMM:  11    -0.233023010260E+04    0.17995E-05   -0.96093E-06  2848   0.465E-03
   4 F= -.23517247E+04 E0= -.23517247E+04  d E =-.170829E-01  mag=     2.0000
       N       E                     dE             d eps       ncg     rms          rms(c)
DAV:   1    -0.233023334717E+04   -0.32428E-02   -0.49822E-01  4768   0.773E-01    0.320E-01
RMM:   2    -0.233023628383E+04   -0.29367E-02   -0.34831E-02  6006   0.154E-01    0.190E-01
RMM:   3    -0.233023740915E+04   -0.11253E-02   -0.42872E-03  5747   0.644E-02    0.380E-01
RMM:   4    -0.233023588971E+04    0.15194E-02   -0.97769E-04  5505   0.212E-02    0.818E-02
RMM:   5    -0.233023591746E+04   -0.27755E-04   -0.41850E-04  4731   0.152E-02    0.105E-01
RMM:   6    -0.233023576653E+04    0.15093E-03   -0.22051E-04  4382   0.109E-02    0.350E-02
RMM:   7    -0.233023575727E+04    0.92578E-05   -0.60117E-05  2952   0.710E-03
   5 F= -.23517301E+04 E0= -.23517301E+04  d E =-.224277E-01  mag=     2.0000
       N       E                     dE             d eps       ncg     rms          rms(c)
DAV:   1    -0.233020911656E+04    0.26650E-01   -0.19530E+00  4608   0.128E+00    0.465E-01
RMM:   2    -0.233025404682E+04   -0.44930E-01   -0.46578E-01  6480   0.328E-01    0.445E-01
RMM:   3    -0.233025775274E+04   -0.37059E-02   -0.54954E-02  6275   0.128E-01    0.417E-01
RMM:   4    -0.233025615566E+04    0.15971E-02   -0.52404E-03  5753   0.304E-02    0.203E-01
RMM:   5    -0.233025596082E+04    0.19484E-03   -0.76576E-04  3942   0.131E-02    0.162E-01
RMM:   6    -0.233025570032E+04    0.26050E-03   -0.52664E-04  4702   0.141E-02    0.741E-02
RMM:   7    -0.233025570562E+04   -0.53050E-05   -0.35198E-04  3934   0.118E-02    0.677E-02
RMM:   8    -0.233025563296E+04    0.72661E-04   -0.81990E-05  3045   0.657E-03    0.155E-02
RMM:   9    -0.233025562755E+04    0.54169E-05   -0.13332E-05  2927   0.444E-03
   6 F= -.23517509E+04 E0= -.23517509E+04  d E =-.208576E-01  mag=     2.0000
       N       E                     dE             d eps       ncg     rms          rms(c)
DAV:   1    -0.233004322883E+04    0.21240E+00   -0.93524E+00  4544   0.280E+00    0.102E+00
RMM:   2    -0.233025930822E+04   -0.21608E+00   -0.22345E+00  6476   0.716E-01    0.970E-01
RMM:   3    -0.233027578338E+04   -0.16475E-01   -0.26556E-01  6356   0.281E-01    0.872E-01
RMM:   4    -0.233026883838E+04    0.69450E-02   -0.24802E-02  6254   0.661E-02    0.458E-01
RMM:   5    -0.233026787552E+04    0.96286E-03   -0.36146E-03  5551   0.269E-02    0.359E-01
RMM:   6    -0.233026650145E+04    0.13741E-02   -0.23840E-03  5391   0.285E-02    0.137E-01
RMM:   7    -0.233026655844E+04   -0.56992E-04   -0.12552E-03  5380   0.217E-02    0.125E-01
RMM:   8    -0.233026632606E+04    0.23238E-03   -0.34951E-04  4024   0.109E-02    0.389E-02
RMM:   9    -0.233026629709E+04    0.28964E-04   -0.46483E-05  2981   0.584E-03    0.240E-02
RMM:  10    -0.233026628419E+04    0.12907E-04   -0.39573E-05  2928   0.508E-03    0.627E-03
RMM:  11    -0.233026628308E+04    0.11084E-05   -0.10610E-05  2924   0.386E-03
   7 F= -.23517638E+04 E0= -.23517638E+04  d E =-.337071E-01  mag=     2.0000
       N       E                     dE             d eps       ncg     rms          rms(c)
DAV:   1    -0.233026079472E+04    0.54895E-02   -0.61891E-01  4640   0.715E-01    0.250E-01
RMM:   2    -0.233027457603E+04   -0.13781E-01   -0.14310E-01  6560   0.179E-01    0.233E-01
RMM:   3    -0.233027592671E+04   -0.13507E-02   -0.16488E-02  5961   0.687E-02    0.257E-01
RMM:   4    -0.233027533985E+04    0.58686E-03   -0.16113E-03  3869   0.165E-02    0.998E-02
RMM:   5    -0.233027528199E+04    0.57859E-04   -0.22419E-04  3086   0.796E-03    0.813E-02
RMM:   6    -0.233027522407E+04    0.57921E-04   -0.14682E-04  3282   0.784E-03    0.452E-02
RMM:   7    -0.233027521541E+04    0.86639E-05   -0.10641E-04  3024   0.719E-03    0.344E-02
RMM:   8    -0.233027519872E+04    0.16683E-04   -0.25185E-05  2922   0.485E-03    0.839E-03
RMM:   9    -0.233027519780E+04    0.92502E-06   -0.48265E-06  2861   0.313E-03
   8 F= -.23517732E+04 E0= -.23517732E+04  d E =-.936281E-02  mag=     2.0000
       N       E                     dE             d eps       ncg     rms          rms(c)
DAV:   1    -0.233016161091E+04    0.11359E+00   -0.55733E+00  4544   0.214E+00    0.752E-01
RMM:   2    -0.233028543655E+04   -0.12383E+00   -0.12895E+00  6541   0.535E-01    0.670E-01
RMM:   3    -0.233029810995E+04   -0.12673E-01   -0.15024E-01  6346   0.208E-01    0.757E-01
RMM:   4    -0.233029295961E+04    0.51503E-02   -0.14508E-02  6167   0.489E-02    0.309E-01
RMM:   5    -0.233029241714E+04    0.54247E-03   -0.20031E-03  5101   0.186E-02    0.250E-01
RMM:   6    -0.233029178354E+04    0.63360E-03   -0.12688E-03  5176   0.198E-02    0.117E-01
RMM:   7    -0.233029181132E+04   -0.27785E-04   -0.88800E-04  5060   0.163E-02    0.111E-01
RMM:   8    -0.233029162461E+04    0.18671E-03   -0.23192E-04  3755   0.922E-03    0.279E-02
RMM:   9    -0.233029161053E+04    0.14077E-04   -0.27616E-05  2952   0.529E-03    0.178E-02
RMM:  10    -0.233029160404E+04    0.64921E-05   -0.22924E-05  2907   0.374E-03
   9 F= -.23517909E+04 E0= -.23517909E+04  d E =-.271276E-01  mag=     2.0000
       N       E                     dE             d eps       ncg     rms          rms(c)
DAV:   1    -0.232974950085E+04    0.54211E+00   -0.22319E+01  4520   0.429E+00    0.151E+00
RMM:   2    -0.233024901412E+04   -0.49951E+00   -0.52157E+00  6532   0.106E+00    0.127E+00
RMM:   3    -0.233030193192E+04   -0.52918E-01   -0.61804E-01  6363   0.418E-01    0.146E+00
RMM:   4    -0.233028232184E+04    0.19610E-01   -0.57855E-02  6410   0.977E-02    0.650E-01
RMM:   5    -0.233027998917E+04    0.23327E-02   -0.76663E-03  5660   0.352E-02    0.509E-01
RMM:   6    -0.233027724711E+04    0.27421E-02   -0.48753E-03  5619   0.372E-02    0.219E-01
RMM:   7    -0.233027696140E+04    0.28571E-03   -0.26783E-03  5355   0.296E-02    0.135E-01
RMM:   8    -0.233027682558E+04    0.13582E-03   -0.75194E-04  4690   0.176E-02    0.914E-02
RMM:   9    -0.233027669119E+04    0.13438E-03   -0.12210E-04  3294   0.724E-03    0.392E-02
RMM:  10    -0.233027666453E+04    0.26660E-04   -0.87046E-05  2942   0.663E-03    0.123E-02
RMM:  11    -0.233027666325E+04    0.12843E-05   -0.26784E-05  2953   0.446E-03
  10 F= -.23517788E+04 E0= -.23517788E+04  d E =-.149636E-01  mag=     2.0000
       N       E                     dE             d eps       ncg     rms          rms(c)
DAV:   1    -0.233004564058E+04    0.23102E+00   -0.10649E+01  4544   0.294E+00    0.103E+00
RMM:   2    -0.233028631421E+04   -0.24067E+00   -0.24711E+00  6554   0.756E-01    0.108E+00
RMM:   3    -0.233030624649E+04   -0.19932E-01   -0.29307E-01  6324   0.291E-01    0.110E+00
RMM:   4    -0.233029647791E+04    0.97686E-02   -0.28952E-02  6279   0.675E-02    0.416E-01
RMM:   5    -0.233029504202E+04    0.14359E-02   -0.39067E-03  5612   0.279E-02    0.299E-01
RMM:   6    -0.233029443060E+04    0.61142E-03   -0.25113E-03  5231   0.264E-02    0.209E-01
RMM:   7    -0.233029435933E+04    0.71272E-04   -0.18120E-03  5341   0.225E-02    0.185E-01
RMM:   8    -0.233029388338E+04    0.47595E-03   -0.47488E-04  4746   0.130E-02    0.395E-02
RMM:   9    -0.233029385754E+04    0.25840E-04   -0.64716E-05  3029   0.648E-03    0.268E-02
RMM:  10    -0.233029384446E+04    0.13074E-04   -0.40996E-05  2919   0.528E-03    0.704E-03
RMM:  11    -0.233029384342E+04    0.10428E-05   -0.12422E-05  2929   0.360E-03
  11 F= -.23517940E+04 E0= -.23517940E+04  d E =-.302197E-01  mag=     2.0000
       N       E                     dE             d eps       ncg     rms          rms(c)
DAV:   1    -0.233030090919E+04   -0.70647E-02   -0.40874E-01  4576   0.652E-01    0.254E-01
RMM:   2    -0.233030704881E+04   -0.61396E-02   -0.65917E-02  6149   0.151E-01    0.170E-01
RMM:   3    -0.233030813377E+04   -0.10850E-02   -0.80328E-03  5857   0.658E-02    0.296E-01
RMM:   4    -0.233030726317E+04    0.87060E-03   -0.89840E-04  4617   0.169E-02    0.747E-02
RMM:   5    -0.233030729210E+04   -0.28934E-04   -0.37177E-04  4305   0.122E-02    0.901E-02
RMM:   6    -0.233030718780E+04    0.10430E-03   -0.17863E-04  4320   0.925E-03    0.393E-02
RMM:   7    -0.233030718103E+04    0.67753E-05   -0.63794E-05  2955   0.702E-03
  12 F= -.23518076E+04 E0= -.23518076E+04  d E =-.135680E-01  mag=     2.0000
       N       E                     dE             d eps       ncg     rms          rms(c)
DAV:   1    -0.233029640127E+04    0.10787E-01   -0.12509E+00  4544   0.114E+00    0.447E-01
RMM:   2    -0.233031518118E+04   -0.18780E-01   -0.20249E-01  6162   0.265E-01    0.288E-01
RMM:   3    -0.233031851238E+04   -0.33312E-02   -0.24684E-02  5959   0.115E-01    0.512E-01
RMM:   4    -0.233031592039E+04    0.25920E-02   -0.27817E-03  5652   0.292E-02    0.135E-01
RMM:   5    -0.233031599003E+04   -0.69634E-04   -0.10916E-03  5423   0.197E-02    0.158E-01
RMM:   6    -0.233031568135E+04    0.30868E-03   -0.52714E-04  5177   0.144E-02    0.750E-02
RMM:   7    -0.233031564954E+04    0.31811E-04   -0.20922E-04  3275   0.105E-02    0.578E-02
RMM:   8    -0.233031559580E+04    0.53740E-04   -0.46947E-05  2982   0.576E-03    0.127E-02
RMM:   9    -0.233031558982E+04    0.59822E-05   -0.13763E-05  2934   0.395E-03
  13 F= -.23518164E+04 E0= -.23518164E+04  d E =-.223826E-01  mag=     2.0000
       N       E                     dE             d eps       ncg     rms          rms(c)
DAV:   1    -0.233031128368E+04    0.43121E-02   -0.57983E-01  4624   0.731E-01    0.284E-01
RMM:   2    -0.233032254780E+04   -0.11264E-01   -0.12343E-01  6282   0.178E-01    0.126E-01
RMM:   3    -0.233032379461E+04   -0.12468E-02   -0.13685E-02  5749   0.748E-02    0.174E-01
RMM:   4    -0.233032356325E+04    0.23135E-03   -0.13765E-03  3543   0.158E-02    0.783E-02
RMM:   5    -0.233032354336E+04    0.19890E-04   -0.24719E-04  4171   0.990E-03    0.935E-02
RMM:   6    -0.233032347211E+04    0.71258E-04   -0.14971E-04  3163   0.839E-03    0.493E-02
RMM:   7    -0.233032346059E+04    0.11521E-04   -0.63677E-05  3040   0.667E-03    0.305E-02
RMM:   8    -0.233032344659E+04    0.14001E-04   -0.23005E-05  2904   0.519E-03    0.988E-03
RMM:   9    -0.233032344437E+04    0.22196E-05   -0.51585E-06  2860   0.268E-03
  14 F= -.23518250E+04 E0= -.23518250E+04  d E =-.863030E-02  mag=     2.0000
       N       E                     dE             d eps       ncg     rms          rms(c)
DAV:   1    -0.233030667739E+04    0.16769E-01   -0.93576E-01  4544   0.928E-01    0.360E-01
RMM:   2    -0.233032484319E+04   -0.18166E-01   -0.19915E-01  6307   0.225E-01    0.162E-01
RMM:   3    -0.233032688227E+04   -0.20391E-02   -0.22083E-02  5798   0.943E-02    0.230E-01
RMM:   4    -0.233032646354E+04    0.41873E-03   -0.22352E-03  4096   0.201E-02    0.100E-01
RMM:   5    -0.233032644398E+04    0.19557E-04   -0.41071E-04  4652   0.121E-02    0.124E-01
RMM:   6    -0.233032630616E+04    0.13782E-03   -0.25494E-04  3885   0.991E-03    0.604E-02
RMM:   7    -0.233032628952E+04    0.16647E-04   -0.10942E-04  3388   0.741E-03    0.410E-02
RMM:   8    -0.233032626230E+04    0.27216E-04   -0.34615E-05  2932   0.576E-03    0.121E-02
RMM:   9    -0.233032625800E+04    0.43011E-05   -0.76940E-06  2890   0.298E-03
  15 F= -.23518288E+04 E0= -.23518288E+04  d E =-.124333E-01  mag=     2.0000
       N       E                     dE             d eps       ncg     rms          rms(c)
DAV:   1    -0.233031687062E+04    0.93917E-02   -0.74695E-01  4544   0.805E-01    0.275E-01
RMM:   2    -0.233033249950E+04   -0.15629E-01   -0.16904E-01  6477   0.199E-01    0.162E-01
RMM:   3    -0.233033428942E+04   -0.17899E-02   -0.19017E-02  5929   0.793E-02    0.217E-01
RMM:   4    -0.233033396475E+04    0.32467E-03   -0.18113E-03  3553   0.171E-02    0.105E-01
RMM:   5    -0.233033392187E+04    0.42881E-04   -0.26997E-04  3670   0.977E-03    0.909E-02
RMM:   6    -0.233033383573E+04    0.86141E-04   -0.18738E-04  3369   0.887E-03    0.473E-02
RMM:   7    -0.233033380784E+04    0.27889E-04   -0.75949E-05  3394   0.719E-03    0.145E-02
RMM:   8    -0.233033380736E+04    0.47999E-06   -0.17005E-05  2909   0.526E-03
  16 F= -.23518373E+04 E0= -.23518373E+04  d E =-.849025E-02  mag=     2.0000
       N       E                     dE             d eps       ncg     rms          rms(c)
DAV:   1    -0.233025064582E+04    0.83162E-01   -0.39073E+00  4544   0.184E+00    0.632E-01
RMM:   2    -0.233033273720E+04   -0.82091E-01   -0.88565E-01  6490   0.455E-01    0.410E-01
RMM:   3    -0.233034261843E+04   -0.98812E-02   -0.10124E-01  6150   0.181E-01    0.564E-01
RMM:   4    -0.233034012339E+04    0.24950E-02   -0.96915E-03  5941   0.401E-02    0.238E-01
RMM:   5    -0.233033994673E+04    0.17665E-03   -0.14323E-03  5271   0.188E-02    0.215E-01
RMM:   6    -0.233033943585E+04    0.51088E-03   -0.93714E-04  5146   0.169E-02    0.107E-01
RMM:   7    -0.233033928349E+04    0.15236E-03   -0.43288E-04  4824   0.130E-02    0.378E-02
RMM:   8    -0.233033927298E+04    0.10505E-04   -0.80691E-05  2983   0.867E-03    0.314E-02
RMM:   9    -0.233033925307E+04    0.19910E-04   -0.25483E-05  2919   0.428E-03    0.175E-02
RMM:  10    -0.233033924372E+04    0.93584E-05   -0.18181E-05  2915   0.382E-03
  17 F= -.23518449E+04 E0= -.23518449E+04  d E =-.161051E-01  mag=     2.0000
       N       E                     dE             d eps       ncg     rms          rms(c)
DAV:   1    -0.233032458600E+04    0.14667E-01   -0.92863E-01  4576   0.879E-01    0.298E-01
RMM:   2    -0.233034453371E+04   -0.19948E-01   -0.20941E-01  6549   0.218E-01    0.241E-01
RMM:   3    -0.233034663151E+04   -0.20978E-02   -0.24300E-02  5952   0.860E-02    0.266E-01
RMM:   4    -0.233034594527E+04    0.68624E-03   -0.21920E-03  3958   0.192E-02    0.116E-01
RMM:   5    -0.233034594373E+04    0.15386E-05   -0.33163E-04  3227   0.930E-03    0.115E-01
RMM:   6    -0.233034577704E+04    0.16669E-03   -0.23467E-04  3777   0.928E-03    0.416E-02
RMM:   7    -0.233034576281E+04    0.14225E-04   -0.10467E-04  3470   0.734E-03    0.160E-02
RMM:   8    -0.233034576205E+04    0.76562E-06   -0.18025E-05  2905   0.532E-03
  18 F= -.23518522E+04 E0= -.23518522E+04  d E =-.725973E-02  mag=     2.0000
       N       E                     dE             d eps       ncg     rms          rms(c)
DAV:   1    -0.233015599742E+04    0.18977E+00   -0.83546E+00  4512   0.264E+00    0.905E-01
RMM:   2    -0.233033841235E+04   -0.18241E+00   -0.18958E+00  6530   0.651E-01    0.844E-01
RMM:   3    -0.233035567526E+04   -0.17263E-01   -0.22914E-01  6224   0.264E-01    0.830E-01
RMM:   4    -0.233034921378E+04    0.64615E-02   -0.20010E-02  6151   0.572E-02    0.365E-01
RMM:   5    -0.233034896038E+04    0.25341E-03   -0.30075E-03  5552   0.231E-02    0.327E-01
RMM:   6    -0.233034763785E+04    0.13225E-02   -0.19221E-03  5517   0.223E-02    0.146E-01
RMM:   7    -0.233034755901E+04    0.78843E-04   -0.13496E-03  5346   0.203E-02    0.113E-01
RMM:   8    -0.233034737752E+04    0.18149E-03   -0.29473E-04  3545   0.108E-02    0.314E-02
RMM:   9    -0.233034735248E+04    0.25045E-04   -0.44059E-05  3000   0.503E-03    0.264E-02
RMM:  10    -0.233034733906E+04    0.13416E-04   -0.31447E-05  2908   0.466E-03    0.683E-03
RMM:  11    -0.233034733675E+04    0.23144E-05   -0.11223E-05  2934   0.344E-03
  19 F= -.23518560E+04 E0= -.23518560E+04  d E =-.110959E-01  mag=     2.0000
       N       E                     dE             d eps       ncg     rms          rms(c)
DAV:   1    -0.233032518472E+04    0.22154E-01   -0.10877E+00  4544   0.947E-01    0.320E-01
RMM:   2    -0.233034842022E+04   -0.23235E-01   -0.24441E-01  6537   0.236E-01    0.251E-01
RMM:   3    -0.233035094877E+04   -0.25286E-02   -0.28590E-02  5986   0.923E-02    0.284E-01
RMM:   4    -0.233035014048E+04    0.80829E-03   -0.25507E-03  4179   0.207E-02    0.124E-01
RMM:   5    -0.233035012532E+04    0.15161E-04   -0.37879E-04  3365   0.977E-03    0.124E-01
RMM:   6    -0.233034994922E+04    0.17610E-03   -0.29755E-04  3839   0.985E-03    0.510E-02
RMM:   7    -0.233034992169E+04    0.27526E-04   -0.13037E-04  3598   0.759E-03    0.179E-02
RMM:   8    -0.233034992215E+04   -0.46358E-06   -0.25035E-05  2906   0.566E-03
  20 F= -.23518578E+04 E0= -.23518578E+04  d E =-.128594E-01  mag=     2.0000
       N       E                     dE             d eps       ncg     rms          rms(c)
DAV:   1    -0.233034331391E+04    0.66078E-02   -0.63271E-01  4544   0.759E-01    0.266E-01
RMM:   2    -0.233035526244E+04   -0.11949E-01   -0.12555E-01  6346   0.185E-01    0.205E-01
RMM:   3    -0.233035635556E+04   -0.10931E-02   -0.13907E-02  5900   0.743E-02    0.208E-01
RMM:   4    -0.233035586188E+04    0.49367E-03   -0.13043E-03  4712   0.180E-02    0.969E-02
RMM:   5    -0.233035589424E+04   -0.32351E-04   -0.34216E-04  3857   0.114E-02    0.113E-01
RMM:   6    -0.233035576233E+04    0.13191E-03   -0.22748E-04  4234   0.981E-03    0.592E-02
RMM:   7    -0.233035574639E+04    0.15942E-04   -0.11742E-04  2987   0.782E-03    0.397E-02
RMM:   8    -0.233035572209E+04    0.24293E-04   -0.26581E-05  2903   0.529E-03    0.881E-03
RMM:   9    -0.233035572015E+04    0.19452E-05   -0.66419E-06  2899   0.314E-03
  21 F= -.23518639E+04 E0= -.23518639E+04  d E =-.612414E-02  mag=     2.0000
       N       E                     dE             d eps       ncg     rms          rms(c)
DAV:   1    -0.233034332223E+04    0.12400E-01   -0.70072E-01  4544   0.799E-01    0.282E-01
RMM:   2    -0.233035662715E+04   -0.13305E-01   -0.13948E-01  6312   0.195E-01    0.228E-01
RMM:   3    -0.233035778584E+04   -0.11587E-02   -0.15407E-02  5924   0.784E-02    0.224E-01
RMM:   4    -0.233035722426E+04    0.56158E-03   -0.14636E-03  4948   0.191E-02    0.105E-01
RMM:   5    -0.233035726488E+04   -0.40621E-04   -0.37238E-04  3820   0.118E-02    0.121E-01
RMM:   6    -0.233035711261E+04    0.15227E-03   -0.25838E-04  4465   0.104E-02    0.617E-02
RMM:   7    -0.233035709341E+04    0.19195E-04   -0.12888E-04  3017   0.813E-03    0.404E-02
RMM:   8    -0.233035706746E+04    0.25955E-04   -0.28912E-05  2906   0.537E-03    0.938E-03
RMM:   9    -0.233035706517E+04    0.22928E-05   -0.73896E-06  2902   0.332E-03
  22 F= -.23518656E+04 E0= -.23518656E+04  d E =-.781419E-02  mag=     2.0000
       N       E                     dE             d eps       ncg     rms          rms(c)
DAV:   1    -0.233034890807E+04    0.81594E-02   -0.73145E-01  4544   0.803E-01    0.278E-01
RMM:   2    -0.233036146229E+04   -0.12554E-01   -0.13235E-01  6441   0.188E-01    0.210E-01
RMM:   3    -0.233036251335E+04   -0.10511E-02   -0.14567E-02  5889   0.727E-02    0.193E-01
RMM:   4    -0.233036216440E+04    0.34896E-03   -0.14181E-03  4136   0.169E-02    0.110E-01
RMM:   5    -0.233036211350E+04    0.50903E-04   -0.26232E-04  3031   0.914E-03    0.836E-02
RMM:   6    -0.233036206840E+04    0.45093E-04   -0.20928E-04  3780   0.908E-03    0.706E-02
RMM:   7    -0.233036203374E+04    0.34666E-04   -0.11642E-04  2989   0.754E-03    0.373E-02
RMM:   8    -0.233036201524E+04    0.18497E-04   -0.22209E-05  2912   0.480E-03    0.867E-03
RMM:   9    -0.233036201376E+04    0.14816E-05   -0.46834E-06  2884   0.289E-03
  23 F= -.23518711E+04 E0= -.23518711E+04  d E =-.553762E-02  mag=     2.0000
       N       E                     dE             d eps       ncg     rms          rms(c)
DAV:   1    -0.233027668567E+04    0.85330E-01   -0.47717E+00  4512   0.205E+00    0.711E-01
RMM:   2    -0.233035859239E+04   -0.81907E-01   -0.86375E-01  6439   0.480E-01    0.536E-01
RMM:   3    -0.233036551666E+04   -0.69243E-02   -0.96670E-02  6148   0.187E-01    0.493E-01
RMM:   4    -0.233036328091E+04    0.22357E-02   -0.92594E-03  5967   0.426E-02    0.284E-01
RMM:   5    -0.233036292659E+04    0.35432E-03   -0.17147E-03  5085   0.200E-02    0.213E-01
RMM:   6    -0.233036264899E+04    0.27760E-03   -0.13340E-03  5290   0.195E-02    0.184E-01
RMM:   7    -0.233036240245E+04    0.24654E-03   -0.76363E-04  4797   0.157E-02    0.954E-02
RMM:   8    -0.233036227317E+04    0.12928E-03   -0.13911E-04  3384   0.789E-03    0.224E-02
RMM:   9    -0.233036226185E+04    0.11316E-04   -0.21606E-05  2961   0.513E-03    0.153E-02
RMM:  10    -0.233036225701E+04    0.48397E-05   -0.16227E-05  2904   0.337E-03
  24 F= -.23518729E+04 E0= -.23518729E+04  d E =-.730371E-02  mag=     2.0000
       N       E                     dE             d eps       ncg     rms          rms(c)
DAV:   1    -0.233035091655E+04    0.11345E-01   -0.74743E-01  4544   0.811E-01    0.281E-01
RMM:   2    -0.233036372471E+04   -0.12808E-01   -0.13514E-01  6423   0.191E-01    0.211E-01
RMM:   3    -0.233036481796E+04   -0.10933E-02   -0.14927E-02  5877   0.735E-02    0.198E-01
RMM:   4    -0.233036442661E+04    0.39136E-03   -0.14381E-03  4161   0.172E-02    0.107E-01
RMM:   5    -0.233036438477E+04    0.41838E-04   -0.26454E-04  3035   0.922E-03    0.854E-02
RMM:   6    -0.233036433578E+04    0.48989E-04   -0.20645E-04  3746   0.908E-03    0.724E-02
RMM:   7    -0.233036430037E+04    0.35410E-04   -0.11996E-04  2988   0.754E-03    0.391E-02
RMM:   8    -0.233036428062E+04    0.19747E-04   -0.23376E-05  2913   0.487E-03    0.876E-03
RMM:   9    -0.233036427917E+04    0.14475E-05   -0.47455E-06  2885   0.289E-03
  25 F= -.23518743E+04 E0= -.23518743E+04  d E =-.872001E-02  mag=     2.0000
       N       E                     dE             d eps       ncg     rms          rms(c)
DAV:   1    -0.233035375572E+04    0.10525E-01   -0.10480E+00  4544   0.983E-01    0.335E-01
RMM:   2    -0.233036968902E+04   -0.15933E-01   -0.16684E-01  6353   0.230E-01    0.285E-01
RMM:   3    -0.233037106086E+04   -0.13718E-02   -0.18444E-02  6053   0.867E-02    0.301E-01
RMM:   4    -0.233037039969E+04    0.66117E-03   -0.19988E-03  5468   0.223E-02    0.158E-01
RMM:   5    -0.233037023121E+04    0.16848E-03   -0.53733E-04  3906   0.127E-02    0.101E-01
RMM:   6    -0.233037012430E+04    0.10691E-03   -0.38266E-04  4658   0.133E-02    0.576E-02
RMM:   7    -0.233037012740E+04   -0.31024E-05   -0.13398E-04  2959   0.933E-03    0.530E-02
RMM:   8    -0.233037008452E+04    0.42877E-04   -0.34639E-05  2920   0.477E-03    0.110E-02
RMM:   9    -0.233037008231E+04    0.22111E-05   -0.70951E-06  2913   0.296E-03
  26 F= -.23518813E+04 E0= -.23518813E+04  d E =-.695200E-02  mag=     2.0000
       N       E                     dE             d eps       ncg     rms          rms(c)
DAV:   1    -0.233036631625E+04    0.37683E-02   -0.26049E-01  4640   0.491E-01    0.168E-01
RMM:   2    -0.233037030424E+04   -0.39880E-02   -0.41583E-02  6369   0.116E-01    0.148E-01
RMM:   3    -0.233037063761E+04   -0.33336E-03   -0.45860E-03  5429   0.437E-02    0.153E-01
RMM:   4    -0.233037046197E+04    0.17563E-03   -0.50353E-04  3359   0.117E-02    0.785E-02
RMM:   5    -0.233037041899E+04    0.42981E-04   -0.13514E-04  2995   0.774E-03    0.503E-02
RMM:   6    -0.233037039516E+04    0.23832E-04   -0.10742E-04  3564   0.787E-03    0.312E-02
RMM:   7    -0.233037039354E+04    0.16248E-05   -0.37219E-05  2913   0.583E-03
  27 F= -.23518822E+04 E0= -.23518822E+04  d E =-.783994E-02  mag=     2.0000
       N       E                     dE             d eps       ncg     rms          rms(c)
DAV:   1    -0.233036588787E+04    0.45073E-02   -0.49202E-01  4544   0.715E-01    0.259E-01
RMM:   2    -0.233037321160E+04   -0.73237E-02   -0.73995E-02  6214   0.162E-01    0.276E-01
RMM:   3    -0.233037371450E+04   -0.50290E-03   -0.86009E-03  5959   0.655E-02    0.266E-01
RMM:   4    -0.233037300825E+04    0.70625E-03   -0.88469E-04  5113   0.175E-02    0.764E-02
RMM:   5    -0.233037301314E+04   -0.48974E-05   -0.29732E-04  3834   0.111E-02    0.824E-02
RMM:   6    -0.233037292813E+04    0.85010E-04   -0.20383E-04  4312   0.985E-03    0.346E-02
RMM:   7    -0.233037293046E+04   -0.23300E-05   -0.60539E-05  2917   0.698E-03
  28 F= -.23518851E+04 E0= -.23518851E+04  d E =-.292296E-02  mag=     2.0000
       N       E                     dE             d eps       ncg     rms          rms(c)
DAV:   1    -0.233037199493E+04    0.93320E-03   -0.61978E-02  4952   0.254E-01    0.930E-02
RMM:   2    -0.233037291679E+04   -0.92186E-03   -0.94343E-03  6208   0.588E-02    0.921E-02
RMM:   3    -0.233037300153E+04   -0.84742E-04   -0.10925E-03  3874   0.234E-02    0.988E-02
RMM:   4    -0.233037290516E+04    0.96371E-04   -0.11484E-04  2973   0.752E-03    0.280E-02
RMM:   5    -0.233037290445E+04    0.71154E-06   -0.40977E-05  2951   0.496E-03
  29 F= -.23518852E+04 E0= -.23518852E+04  d E =-.303499E-02  mag=     2.0000
       N       E                     dE             d eps       ncg     rms          rms(c)
DAV:   1    -0.233036634189E+04    0.65633E-02   -0.52537E-01  4544   0.687E-01    0.229E-01
RMM:   2    -0.233037572820E+04   -0.93863E-02   -0.92178E-02  6459   0.158E-01    0.322E-01
RMM:   3    -0.233037583945E+04   -0.11124E-03   -0.10720E-02  5884   0.608E-02    0.197E-01
RMM:   4    -0.233037548381E+04    0.35564E-03   -0.93667E-04  4293   0.148E-02    0.767E-02
RMM:   5    -0.233037553651E+04   -0.52704E-04   -0.23120E-04  3137   0.895E-03    0.100E-01
RMM:   6    -0.233037540706E+04    0.12945E-03   -0.18420E-04  3876   0.916E-03    0.234E-02
RMM:   7    -0.233037540620E+04    0.85874E-06   -0.35726E-05  2970   0.577E-03
  30 F= -.23518879E+04 E0= -.23518879E+04  d E =-.266674E-02  mag=     2.0000
       N       E                     dE             d eps       ncg     rms          rms(c)
DAV:   1    -0.233036023255E+04    0.15175E-01   -0.87540E-01  4512   0.887E-01    0.298E-01
RMM:   2    -0.233037591070E+04   -0.15678E-01   -0.15363E-01  6422   0.204E-01    0.419E-01
RMM:   3    -0.233037603304E+04   -0.12234E-03   -0.17824E-02  6050   0.796E-02    0.256E-01
RMM:   4    -0.233037542698E+04    0.60607E-03   -0.15728E-03  5036   0.191E-02    0.956E-02
RMM:   5    -0.233037551941E+04   -0.92437E-04   -0.37652E-04  3610   0.110E-02    0.130E-01
RMM:   6    -0.233037529858E+04    0.22083E-03   -0.29761E-04  4446   0.108E-02    0.293E-02
RMM:   7    -0.233037529126E+04    0.73211E-05   -0.49012E-05  2997   0.653E-03
  31 F= -.23518880E+04 E0= -.23518880E+04  d E =-.277071E-02  mag=     2.0000
       N       E                     dE             d eps       ncg     rms          rms(c)
DAV:   1    -0.233037292011E+04    0.23785E-02   -0.16921E-01  4544   0.390E-01    0.127E-01
RMM:   2    -0.233037588199E+04   -0.29619E-02   -0.29257E-02  6379   0.896E-02    0.176E-01
RMM:   3    -0.233037594923E+04   -0.67243E-04   -0.33795E-03  4631   0.332E-02    0.111E-01
RMM:   4    -0.233037583555E+04    0.11368E-03   -0.29823E-04  3080   0.894E-03    0.444E-02
RMM:   5    -0.233037583600E+04   -0.45446E-06   -0.74582E-05  2975   0.587E-03
  32 F= -.23518884E+04 E0= -.23518884E+04  d E =-.321848E-02  mag=     2.0000
       N       E                     dE             d eps       ncg     rms          rms(c)
DAV:   1    -0.233037160441E+04    0.42311E-02   -0.47438E-01  4528   0.719E-01    0.246E-01
RMM:   2    -0.233037765489E+04   -0.60505E-02   -0.62094E-02  6109   0.152E-01    0.239E-01
RMM:   3    -0.233037823993E+04   -0.58504E-03   -0.69828E-03  5866   0.613E-02    0.263E-01
RMM:   4    -0.233037751472E+04    0.72522E-03   -0.74679E-04  4907   0.167E-02    0.676E-02
RMM:   5    -0.233037750709E+04    0.76244E-05   -0.26190E-04  4168   0.115E-02    0.645E-02
RMM:   6    -0.233037744761E+04    0.59478E-04   -0.13372E-04  3715   0.834E-03    0.275E-02
RMM:   7    -0.233037744767E+04   -0.58179E-07   -0.36839E-05  2913   0.646E-03
  33 F= -.23518901E+04 E0= -.23518901E+04  d E =-.172002E-02  mag=     2.0000
       N       E                     dE             d eps       ncg     rms          rms(c)
DAV:   1    -0.233037739623E+04    0.51387E-04   -0.20568E-03  5464   0.480E-02    0.185E-02
RMM:   2    -0.233037742278E+04   -0.26556E-04   -0.29725E-04  4293   0.113E-02    0.128E-02
RMM:   3    -0.233037742675E+04   -0.39716E-05   -0.33765E-05  2881   0.595E-03
  34 F= -.23518901E+04 E0= -.23518901E+04  d E =-.170635E-02  mag=     2.0000
       N       E                     dE             d eps       ncg     rms          rms(c)
DAV:   1    -0.233037485348E+04    0.25693E-02   -0.29363E-01  4544   0.555E-01    0.175E-01
RMM:   2    -0.233037863449E+04   -0.37810E-02   -0.40193E-02  6138   0.119E-01    0.141E-01
RMM:   3    -0.233037911936E+04   -0.48487E-03   -0.45136E-03  5564   0.472E-02    0.184E-01
RMM:   4    -0.233037876437E+04    0.35499E-03   -0.46091E-04  3527   0.122E-02    0.597E-02
RMM:   5    -0.233037879226E+04   -0.27890E-04   -0.15983E-04  3134   0.863E-03    0.752E-02
RMM:   6    -0.233037872239E+04    0.69870E-04   -0.10161E-04  3076   0.775E-03    0.200E-02
RMM:   7    -0.233037871940E+04    0.29881E-05   -0.20404E-05  2958   0.551E-03
  35 F= -.23518914E+04 E0= -.23518914E+04  d E =-.130295E-02  mag=     2.0000
       N       E                     dE             d eps       ncg     rms          rms(c)
DAV:   1    -0.233037813668E+04    0.58571E-03   -0.45611E-02  4656   0.219E-01    0.708E-02
RMM:   2    -0.233037874988E+04   -0.61320E-03   -0.64033E-03  6229   0.482E-02    0.663E-02
RMM:   3    -0.233037880952E+04   -0.59641E-04   -0.69655E-04  3411   0.189E-02    0.743E-02
RMM:   4    -0.233037875110E+04    0.58421E-04   -0.73268E-05  2931   0.640E-03    0.238E-02
RMM:   5    -0.233037875508E+04   -0.39767E-05   -0.25946E-05  2929   0.373E-03
  36 F= -.23518915E+04 E0= -.23518915E+04  d E =-.134278E-02  mag=     2.0000
       N       E                     dE             d eps       ncg     rms          rms(c)
DAV:   1    -0.233037609342E+04    0.26577E-02   -0.29774E-01  4528   0.561E-01    0.169E-01
RMM:   2    -0.233038010201E+04   -0.40086E-02   -0.41582E-02  6182   0.119E-01    0.168E-01
RMM:   3    -0.233038045145E+04   -0.34944E-03   -0.45904E-03  5497   0.459E-02    0.170E-01
RMM:   4    -0.233038015113E+04    0.30033E-03   -0.45035E-04  3457   0.119E-02    0.574E-02
RMM:   5    -0.233038017495E+04   -0.23826E-04   -0.13963E-04  2967   0.792E-03    0.692E-02
RMM:   6    -0.233038011567E+04    0.59284E-04   -0.92021E-05  3240   0.731E-03    0.238E-02
RMM:   7    -0.233038011666E+04   -0.99570E-06   -0.30612E-05  2938   0.579E-03
  37 F= -.23518927E+04 E0= -.23518927E+04  d E =-.120851E-02  mag=     2.0000
       N       E                     dE             d eps       ncg     rms          rms(c)
DAV:   1    -0.233037892334E+04    0.11923E-02   -0.10418E-01  4544   0.332E-01    0.102E-01
RMM:   2    -0.233038033889E+04   -0.14155E-02   -0.14757E-02  6272   0.714E-02    0.987E-02
RMM:   3    -0.233038046720E+04   -0.12831E-03   -0.15541E-03  4191   0.278E-02    0.105E-01
RMM:   4    -0.233038035290E+04    0.11430E-03   -0.16109E-04  2967   0.827E-03    0.340E-02
RMM:   5    -0.233038036091E+04   -0.80085E-05   -0.49277E-05  2938   0.499E-03
  38 F= -.23518928E+04 E0= -.23518928E+04  d E =-.136225E-02  mag=     2.0000
       N       E                     dE             d eps       ncg     rms          rms(c)
DAV:   1    -0.233037669600E+04    0.36569E-02   -0.35803E-01  4512   0.616E-01    0.190E-01
RMM:   2    -0.233038178110E+04   -0.50851E-02   -0.51210E-02  6207   0.132E-01    0.223E-01
RMM:   3    -0.233038200490E+04   -0.22379E-03   -0.55399E-03  5708   0.521E-02    0.185E-01
RMM:   4    -0.233038166196E+04    0.34294E-03   -0.54055E-04  4191   0.131E-02    0.582E-02
RMM:   5    -0.233038168821E+04   -0.26253E-04   -0.18335E-04  3458   0.923E-03    0.719E-02
RMM:   6    -0.233038162267E+04    0.65548E-04   -0.10884E-04  3115   0.796E-03    0.296E-02
RMM:   7    -0.233038162069E+04    0.19712E-05   -0.37369E-05  2923   0.614E-03
  39 F= -.23518939E+04 E0= -.23518939E+04  d E =-.104432E-02  mag=     2.0000
       N       E                     dE             d eps       ncg     rms          rms(c)
DAV:   1    -0.233038151126E+04    0.11141E-03   -0.86739E-03  5256   0.963E-02    0.313E-02
RMM:   2    -0.233038163365E+04   -0.12239E-03   -0.12910E-03  5896   0.220E-02    0.289E-02
RMM:   3    -0.233038164776E+04   -0.14106E-04   -0.14555E-04  2920   0.915E-03    0.337E-02
RMM:   4    -0.233038163648E+04    0.11273E-04   -0.15391E-05  2917   0.318E-03    0.997E-03
RMM:   5    -0.233038163730E+04   -0.81628E-06   -0.49884E-06  2802   0.171E-03
  40 F= -.23518939E+04 E0= -.23518939E+04  d E =-.102731E-02  mag=     2.0000
       N       E                     dE             d eps       ncg     rms          rms(c)
DAV:   1    -0.233037705884E+04    0.45776E-02   -0.36195E-01  4528   0.604E-01    0.182E-01
RMM:   2    -0.233038246671E+04   -0.54079E-02   -0.54775E-02  6208   0.129E-01    0.210E-01
RMM:   3    -0.233038277797E+04   -0.31126E-03   -0.61168E-03  5589   0.510E-02    0.181E-01
RMM:   4    -0.233038247169E+04    0.30629E-03   -0.57965E-04  3684   0.127E-02    0.636E-02
RMM:   5    -0.233038247474E+04   -0.30590E-05   -0.16085E-04  3045   0.804E-03    0.662E-02
RMM:   6    -0.233038242701E+04    0.47739E-04   -0.13479E-04  3624   0.826E-03    0.394E-02
RMM:   7    -0.233038241668E+04    0.10323E-04   -0.51014E-05  2949   0.635E-03    0.225E-02
RMM:   8    -0.233038240942E+04    0.72662E-05   -0.91233E-06  2890   0.323E-03
  41 F= -.23518946E+04 E0= -.23518946E+04  d E =-.779046E-03  mag=     2.0000
       N       E                     dE             d eps       ncg     rms          rms(c)
DAV:   1    -0.233038240050E+04    0.16183E-04   -0.40745E-04  5216   0.207E-02    0.786E-03
RMM:   2    -0.233038240763E+04   -0.71331E-05   -0.70411E-05  2966   0.533E-03
  42 F= -.23518946E+04 E0= -.23518946E+04  d E =-.777542E-03  mag=     2.0000
       N       E                     dE             d eps       ncg     rms          rms(c)
DAV:   1    -0.233038107272E+04    0.13278E-02   -0.15649E-01  4528   0.427E-01    0.144E-01
RMM:   2    -0.233038272623E+04   -0.16535E-02   -0.17521E-02  6027   0.862E-02    0.948E-02
RMM:   3    -0.233038292192E+04   -0.19569E-03   -0.20128E-03  4978   0.372E-02    0.123E-01
RMM:   4    -0.233038273271E+04    0.18921E-03   -0.23183E-04  3317   0.995E-03    0.462E-02
RMM:   5    -0.233038273467E+04   -0.19562E-05   -0.93060E-05  2998   0.752E-03
  43 F= -.23518952E+04 E0= -.23518952E+04  d E =-.516829E-03  mag=     2.0000
       N       E                     dE             d eps       ncg     rms          rms(c)
DAV:   1    -0.233038272000E+04    0.12713E-04   -0.59870E-04  5472   0.264E-02    0.402E-02
RMM:   2    -0.233038290700E+04   -0.18701E-03   -0.29917E-04  3229   0.913E-03    0.138E-01
RMM:   3    -0.233038271359E+04    0.19341E-03   -0.94911E-05  2908   0.664E-03    0.170E-02
RMM:   4    -0.233038270920E+04    0.43951E-05   -0.10894E-05  2666   0.208E-03
  44 F= -.23518951E+04 E0= -.23518951E+04  d E =-.483335E-03  mag=     2.0000
       N       E                     dE             d eps       ncg     rms          rms(c)
DAV:   1    -0.233038148946E+04    0.12241E-02   -0.12861E-01  4528   0.382E-01    0.113E-01
RMM:   2    -0.233038298434E+04   -0.14949E-02   -0.14850E-02  6044   0.757E-02    0.113E-01
RMM:   3    -0.233038306641E+04   -0.82071E-04   -0.17076E-03  4462   0.310E-02    0.112E-01
RMM:   4    -0.233038293849E+04    0.12792E-03   -0.17854E-04  2988   0.856E-03    0.463E-02
RMM:   5    -0.233038292666E+04    0.11826E-04   -0.60837E-05  2934   0.572E-03    0.369E-02
RMM:   6    -0.233038292008E+04    0.65794E-05   -0.49777E-05  3015   0.556E-03
  45 F= -.23518955E+04 E0= -.23518955E+04  d E =-.383289E-03  mag=     2.0000
       N       E                     dE             d eps       ncg     rms          rms(c)
DAV:   1    -0.233038285977E+04    0.66898E-04   -0.18743E-03  5488   0.471E-02    0.175E-02
RMM:   2    -0.233038288639E+04   -0.26626E-04   -0.24168E-04  4172   0.110E-02    0.212E-02
RMM:   3    -0.233038288293E+04    0.34616E-05   -0.30544E-05  2825   0.565E-03
  46 F= -.23518955E+04 E0= -.23518955E+04  d E =-.367435E-03  mag=     2.0000
       N       E                     dE             d eps       ncg     rms          rms(c)
DAV:   1    -0.233038179018E+04    0.10962E-02   -0.13530E-01  4544   0.389E-01    0.114E-01
RMM:   2    -0.233038329368E+04   -0.15035E-02   -0.14978E-02  6069   0.758E-02    0.111E-01
RMM:   3    -0.233038339455E+04   -0.10087E-03   -0.16142E-03  4412   0.296E-02    0.112E-01
RMM:   4    -0.233038326184E+04    0.13271E-03   -0.17145E-04  2987   0.846E-03    0.440E-02
RMM:   5    -0.233038325639E+04    0.54502E-05   -0.64242E-05  2942   0.571E-03
  47 F= -.23518960E+04 E0= -.23518960E+04  d E =-.463415E-03  mag=     2.0000
       N       E                     dE             d eps       ncg     rms          rms(c)
DAV:   1    -0.233038270286E+04    0.55898E-03   -0.47255E-02  4544   0.230E-01    0.724E-02
RMM:   2    -0.233038329349E+04   -0.59063E-03   -0.53428E-03  6363   0.465E-02    0.943E-02
RMM:   3    -0.233038324340E+04    0.50090E-04   -0.62902E-04  3302   0.175E-02    0.513E-02
RMM:   4    -0.233038321048E+04    0.32924E-04   -0.58589E-05  2952   0.600E-03    0.200E-02
RMM:   5    -0.233038321434E+04   -0.38620E-05   -0.32648E-05  2923   0.456E-03
  48 F= -.23518960E+04 E0= -.23518960E+04  d E =-.474989E-03  mag=     2.0000
       N       E                     dE             d eps       ncg     rms          rms(c)
DAV:   1    -0.233038291040E+04    0.30008E-03   -0.47156E-02  4544   0.226E-01    0.630E-02
RMM:   2    -0.233038347771E+04   -0.56731E-03   -0.59076E-03  6379   0.469E-02    0.498E-02
RMM:   3    -0.233038354445E+04   -0.66744E-04   -0.62052E-04  3224   0.170E-02    0.650E-02
RMM:   4    -0.233038350145E+04    0.43005E-04   -0.62539E-05  2940   0.571E-03    0.223E-02
RMM:   5    -0.233038350210E+04   -0.65009E-06   -0.19904E-05  2930   0.325E-03
  49 F= -.23518963E+04 E0= -.23518963E+04  d E =-.317510E-03  mag=     2.0000
       N       E                     dE             d eps       ncg     rms          rms(c)
DAV:   1    -0.233038058714E+04    0.29143E-02   -0.25680E-01  4512   0.528E-01    0.150E-01
RMM:   2    -0.233038383062E+04   -0.32435E-02   -0.31858E-02  6238   0.104E-01    0.177E-01
RMM:   3    -0.233038394697E+04   -0.11635E-03   -0.33945E-03  5196   0.397E-02    0.139E-01
RMM:   4    -0.233038374340E+04    0.20357E-03   -0.32562E-04  3224   0.103E-02    0.510E-02
RMM:   5    -0.233038376285E+04   -0.19450E-04   -0.10251E-04  2979   0.705E-03    0.625E-02
RMM:   6    -0.233038371270E+04    0.50143E-04   -0.80789E-05  3235   0.699E-03    0.206E-02
RMM:   7    -0.233038371339E+04   -0.68182E-06   -0.26575E-05  2932   0.550E-03
  50 F= -.23518966E+04 E0= -.23518966E+04  d E =-.598029E-03  mag=     2.0000
       N       E                     dE             d eps       ncg     rms          rms(c)
DAV:   1    -0.233038340471E+04    0.30799E-03   -0.44838E-02  4544   0.222E-01    0.697E-02
RMM:   2    -0.233038398591E+04   -0.58120E-03   -0.59407E-03  6231   0.463E-02    0.657E-02
RMM:   3    -0.233038404419E+04   -0.58274E-04   -0.63501E-04  3396   0.187E-02    0.733E-02
RMM:   4    -0.233038398786E+04    0.56331E-04   -0.63767E-05  2925   0.607E-03    0.212E-02
RMM:   5    -0.233038398911E+04   -0.12535E-05   -0.24030E-05  2928   0.416E-03
  51 F= -.23518969E+04 E0= -.23518969E+04  d E =-.339548E-03  mag=     2.0000
       N       E                     dE             d eps       ncg     rms          rms(c)
DAV:   1    -0.233038356193E+04    0.42592E-03   -0.34911E-02  4576   0.196E-01    0.623E-02
RMM:   2    -0.233038402866E+04   -0.46673E-03   -0.46426E-03  6315   0.419E-02    0.671E-02
RMM:   3    -0.233038405054E+04   -0.21885E-04   -0.50680E-04  3140   0.157E-02    0.574E-02
RMM:   4    -0.233038401351E+04    0.37035E-04   -0.47825E-05  2936   0.549E-03    0.215E-02
RMM:   5    -0.233038401910E+04   -0.55925E-05   -0.23518E-05  2914   0.386E-03
  52 F= -.23518970E+04 E0= -.23518970E+04  d E =-.426110E-03  mag=     2.0000
       N       E                     dE             d eps       ncg     rms          rms(c)
DAV:   1    -0.233038367540E+04    0.33810E-03   -0.37201E-02  4544   0.205E-01    0.687E-02
RMM:   2    -0.233038419720E+04   -0.52180E-03   -0.51368E-03  6243   0.438E-02    0.768E-02
RMM:   3    -0.233038421998E+04   -0.22774E-04   -0.55227E-04  3314   0.170E-02    0.663E-02
RMM:   4    -0.233038417118E+04    0.48796E-04   -0.55409E-05  2932   0.590E-03    0.193E-02
RMM:   5    -0.233038417318E+04   -0.19952E-05   -0.24162E-05  2915   0.434E-03
  53 F= -.23518972E+04 E0= -.23518972E+04  d E =-.215240E-03  mag=     2.0000
       N       E                     dE             d eps       ncg     rms          rms(c)
DAV:   1    -0.233038399630E+04    0.17488E-03   -0.11424E-02  4832   0.114E-01    0.392E-02
RMM:   2    -0.233038416164E+04   -0.16534E-03   -0.16085E-03  6113   0.258E-02    0.443E-02
RMM:   3    -0.233038416491E+04   -0.32620E-05   -0.18060E-04  2940   0.970E-03    0.345E-02
RMM:   4    -0.233038415124E+04    0.13663E-04   -0.17492E-05  2922   0.351E-03    0.129E-02
RMM:   5    -0.233038415303E+04   -0.17908E-05   -0.84274E-06  2869   0.234E-03
  54 F= -.23518972E+04 E0= -.23518972E+04  d E =-.229124E-03  mag=     2.0000
       N       E                     dE             d eps       ncg     rms          rms(c)
DAV:   1    -0.233038386105E+04    0.29019E-03   -0.29078E-02  4544   0.180E-01    0.589E-02
RMM:   2    -0.233038432571E+04   -0.46465E-03   -0.42125E-03  6229   0.379E-02    0.885E-02
RMM:   3    -0.233038428909E+04    0.36620E-04   -0.43971E-04  3056   0.142E-02    0.449E-02
RMM:   4    -0.233038426792E+04    0.21169E-04   -0.46519E-05  2966   0.486E-03    0.196E-02
RMM:   5    -0.233038426811E+04   -0.19147E-06   -0.13884E-05  2882   0.299E-03
  55 F= -.23518974E+04 E0= -.23518974E+04  d E =-.172279E-03  mag=     2.0000
       N       E                     dE             d eps       ncg     rms          rms(c)
DAV:   1    -0.233038407349E+04    0.19442E-03   -0.12614E-02  4608   0.119E-01    0.393E-02
RMM:   2    -0.233038426770E+04   -0.19421E-03   -0.18265E-03  6140   0.254E-02    0.518E-02
RMM:   3    -0.233038426025E+04    0.74498E-05   -0.20370E-04  2930   0.979E-03    0.300E-02
RMM:   4    -0.233038425099E+04    0.92580E-05   -0.20806E-05  2944   0.333E-03
  56 F= -.23518974E+04 E0= -.23518974E+04  d E =-.193050E-03  mag=     2.0000
       N       E                     dE             d eps       ncg     rms          rms(c)
DAV:   1    -0.233038406215E+04    0.19810E-03   -0.25785E-02  4544   0.171E-01    0.587E-02
RMM:   2    -0.233038450467E+04   -0.44251E-03   -0.35354E-03  6140   0.350E-02    0.111E-01
RMM:   3    -0.233038440916E+04    0.95510E-04   -0.37781E-04  3099   0.133E-02    0.374E-02
RMM:   4    -0.233038439599E+04    0.13168E-04   -0.44909E-05  2966   0.456E-03    0.213E-02
RMM:   5    -0.233038439383E+04    0.21636E-05   -0.14303E-05  2872   0.290E-03
  57 F= -.23518976E+04 E0= -.23518976E+04  d E =-.179704E-03  mag=     2.0000
       N       E                     dE             d eps       ncg     rms          rms(c)
DAV:   1    -0.233038406690E+04    0.32909E-03   -0.25460E-02  4544   0.170E-01    0.577E-02
RMM:   2    -0.233038447223E+04   -0.40533E-03   -0.35154E-03  6183   0.354E-02    0.890E-02
RMM:   3    -0.233038441488E+04    0.57345E-04   -0.38957E-04  3018   0.134E-02    0.381E-02
RMM:   4    -0.233038440006E+04    0.14817E-04   -0.40195E-05  2968   0.452E-03    0.228E-02
RMM:   5    -0.233038439828E+04    0.17855E-05   -0.11785E-05  2852   0.278E-03
  58 F= -.23518976E+04 E0= -.23518976E+04  d E =-.220967E-03  mag=     2.0000
       N       E                     dE             d eps       ncg     rms          rms(c)
DAV:   1    -0.233038414967E+04    0.25039E-03   -0.30027E-02  4544   0.185E-01    0.598E-02
RMM:   2    -0.233038457703E+04   -0.42736E-03   -0.40708E-03  6137   0.390E-02    0.706E-02
RMM:   3    -0.233038457559E+04    0.14413E-05   -0.43728E-04  3160   0.151E-02    0.540E-02
RMM:   4    -0.233038454702E+04    0.28572E-04   -0.50305E-05  2941   0.514E-03    0.252E-02
RMM:   5    -0.233038454203E+04    0.49942E-05   -0.16374E-05  2878   0.301E-03
  59 F= -.23518978E+04 E0= -.23518978E+04  d E =-.158215E-03  mag=     2.0000
       N       E                     dE             d eps       ncg     rms          rms(c)
DAV:   1    -0.233038433853E+04    0.20849E-03   -0.16290E-02  4624   0.136E-01    0.462E-02
RMM:   2    -0.233038459605E+04   -0.25753E-03   -0.22374E-03  6169   0.292E-02    0.681E-02
RMM:   3    -0.233038456177E+04    0.34288E-04   -0.25613E-04  2960   0.114E-02    0.304E-02
RMM:   4    -0.233038455111E+04    0.10659E-04   -0.24799E-05  2963   0.374E-03    0.154E-02
RMM:   5    -0.233038455299E+04   -0.18846E-05   -0.90620E-06  2848   0.238E-03
  60 F= -.23518978E+04 E0= -.23518978E+04  d E =-.179853E-03  mag=     2.0000
       N       E                     dE             d eps       ncg     rms          rms(c)
DAV:   1    -0.233038420300E+04    0.34810E-03   -0.35783E-02  4528   0.202E-01    0.638E-02
RMM:   2    -0.233038468589E+04   -0.48289E-03   -0.46233E-03  6122   0.421E-02    0.768E-02
RMM:   3    -0.233038469075E+04   -0.48603E-05   -0.48866E-04  3270   0.164E-02    0.592E-02
RMM:   4    -0.233038465301E+04    0.37740E-04   -0.50757E-05  2945   0.543E-03    0.201E-02
RMM:   5    -0.233038465255E+04    0.46504E-06   -0.19270E-05  2918   0.335E-03
  61 F= -.23518980E+04 E0= -.23518980E+04  d E =-.152371E-03  mag=     2.0000
       N       E                     dE             d eps       ncg     rms          rms(c)
DAV:   1    -0.233038443767E+04    0.21534E-03   -0.15068E-02  4592   0.131E-01    0.425E-02
RMM:   2    -0.233038465110E+04   -0.21343E-03   -0.19705E-03  6176   0.282E-02    0.564E-02
RMM:   3    -0.233038464068E+04    0.10419E-04   -0.21533E-04  2964   0.105E-02    0.340E-02
RMM:   4    -0.233038462841E+04    0.12272E-04   -0.21299E-05  2945   0.366E-03    0.158E-02
RMM:   5    -0.233038462865E+04   -0.23709E-06   -0.83248E-06  2857   0.225E-03
  62 F= -.23518980E+04 E0= -.23518980E+04  d E =-.163007E-03  mag=     2.0000
       N       E                     dE             d eps       ncg     rms          rms(c)
DAV:   1    -0.233038426486E+04    0.36355E-03   -0.37890E-02  4528   0.203E-01    0.644E-02
RMM:   2    -0.233038472851E+04   -0.46365E-03   -0.45048E-03  6139   0.411E-02    0.740E-02
RMM:   3    -0.233038474415E+04   -0.15640E-04   -0.47180E-04  3204   0.161E-02    0.614E-02
RMM:   4    -0.233038470236E+04    0.41789E-04   -0.46574E-05  2938   0.538E-03    0.180E-02
RMM:   5    -0.233038470183E+04    0.52153E-06   -0.20111E-05  2919   0.397E-03
  63 F= -.23518981E+04 E0= -.23518981E+04  d E =-.159060E-03  mag=     2.0000
       N       E                     dE             d eps       ncg     rms          rms(c)
DAV:   1    -0.233038447987E+04    0.22249E-03   -0.15136E-02  4608   0.129E-01    0.423E-02
RMM:   2    -0.233038467833E+04   -0.19847E-03   -0.18448E-03  6191   0.281E-02    0.538E-02
RMM:   3    -0.233038467120E+04    0.71313E-05   -0.19944E-04  2961   0.101E-02    0.346E-02
RMM:   4    -0.233038465781E+04    0.13393E-04   -0.19352E-05  2933   0.363E-03    0.145E-02
RMM:   5    -0.233038465913E+04   -0.13229E-05   -0.87417E-06  2855   0.229E-03
  64 F= -.23518981E+04 E0= -.23518981E+04  d E =-.170829E-03  mag=     2.0000
       N       E                     dE             d eps       ncg     rms          rms(c)
DAV:   1    -0.233038427259E+04    0.38522E-03   -0.43776E-02  4528   0.214E-01    0.682E-02
RMM:   2    -0.233038477558E+04   -0.50299E-03   -0.49123E-03  6128   0.427E-02    0.771E-02
RMM:   3    -0.233038479067E+04   -0.15089E-04   -0.50457E-04  3293   0.167E-02    0.639E-02
RMM:   4    -0.233038474597E+04    0.44699E-04   -0.50342E-05  2935   0.553E-03    0.218E-02
RMM:   5    -0.233038475102E+04   -0.50583E-05   -0.26802E-05  2923   0.405E-03
  65 F= -.23518983E+04 E0= -.23518983E+04  d E =-.176552E-03  mag=     2.0000
       N       E                     dE             d eps       ncg     rms          rms(c)
DAV:   1    -0.233038452203E+04    0.22394E-03   -0.16157E-02  4560   0.130E-01    0.431E-02
RMM:   2    -0.233038471960E+04   -0.19757E-03   -0.18640E-03  6201   0.278E-02    0.524E-02
RMM:   3    -0.233038471482E+04    0.47809E-05   -0.19990E-04  2959   0.101E-02    0.368E-02
RMM:   4    -0.233038470035E+04    0.14472E-04   -0.21366E-05  2928   0.370E-03    0.166E-02
RMM:   5    -0.233038469996E+04    0.38483E-06   -0.94118E-06  2865   0.234E-03
  66 F= -.23518983E+04 E0= -.23518983E+04  d E =-.177326E-03  mag=     2.0000
       N       E                     dE             d eps       ncg     rms          rms(c)
DAV:   1    -0.233038441588E+04    0.28447E-03   -0.40855E-02  4528   0.206E-01    0.668E-02
RMM:   2    -0.233038485736E+04   -0.44148E-03   -0.42118E-03  6098   0.400E-02    0.763E-02
RMM:   3    -0.233038485445E+04    0.29119E-05   -0.43534E-04  3199   0.156E-02    0.574E-02
RMM:   4    -0.233038481912E+04    0.35326E-04   -0.45766E-05  2935   0.519E-03    0.245E-02
RMM:   5    -0.233038482024E+04   -0.11179E-05   -0.20174E-05  2896   0.347E-03
  67 F= -.23518985E+04 E0= -.23518985E+04  d E =-.167233E-03  mag=     2.0000
       N       E                     dE             d eps       ncg     rms          rms(c)
DAV:   1    -0.233038444543E+04    0.37369E-03   -0.34811E-02  4528   0.191E-01    0.627E-02
RMM:   2    -0.233038483496E+04   -0.38953E-03   -0.36362E-03  6189   0.376E-02    0.747E-02
RMM:   3    -0.233038482174E+04    0.13224E-04   -0.38511E-04  3137   0.143E-02    0.538E-02
RMM:   4    -0.233038479169E+04    0.30045E-04   -0.44296E-05  2937   0.503E-03    0.263E-02
RMM:   5    -0.233038478807E+04    0.36246E-05   -0.18193E-05  2885   0.321E-03
  68 F= -.23518985E+04 E0= -.23518985E+04  d E =-.178728E-03  mag=     2.0000
       N       E                     dE             d eps       ncg     rms          rms(c)
DAV:   1    -0.233038455033E+04    0.24136E-03   -0.40027E-02  4512   0.202E-01    0.650E-02
RMM:   2    -0.233038497908E+04   -0.42875E-03   -0.38909E-03  6172   0.391E-02    0.841E-02
RMM:   3    -0.233038494400E+04    0.35089E-04   -0.41930E-04  3209   0.151E-02    0.478E-02
RMM:   4    -0.233038491935E+04    0.24650E-04   -0.40627E-05  2950   0.501E-03    0.245E-02
RMM:   5    -0.233038492060E+04   -0.12511E-05   -0.20248E-05  2903   0.343E-03
  69 F= -.23518987E+04 E0= -.23518987E+04  d E =-.174326E-03  mag=     2.0000
       N       E                     dE             d eps       ncg     rms          rms(c)
DAV:   1    -0.233038412682E+04    0.79252E-03   -0.83708E-02  4512   0.292E-01    0.928E-02
RMM:   2    -0.233038501511E+04   -0.88829E-03   -0.81591E-03  6137   0.560E-02    0.117E-01
RMM:   3    -0.233038496092E+04    0.54197E-04   -0.81734E-04  3720   0.213E-02    0.765E-02
RMM:   4    -0.233038490328E+04    0.57639E-04   -0.96562E-05  2969   0.689E-03    0.396E-02
RMM:   5    -0.233038489551E+04    0.77720E-05   -0.40194E-05  2924   0.471E-03
  70 F= -.23518987E+04 E0= -.23518987E+04  d E =-.210071E-03  mag=     2.0000
       N       E                     dE             d eps       ncg     rms          rms(c)
DAV:   1    -0.233038456760E+04    0.33568E-03   -0.46398E-02  4512   0.217E-01    0.718E-02
RMM:   2    -0.233038504820E+04   -0.48060E-03   -0.43222E-03  6241   0.423E-02    0.912E-02
RMM:   3    -0.233038500452E+04    0.43681E-04   -0.49177E-04  3335   0.166E-02    0.517E-02
RMM:   4    -0.233038497660E+04    0.27920E-04   -0.49002E-05  2948   0.550E-03    0.260E-02
RMM:   5    -0.233038497602E+04    0.57276E-06   -0.25612E-05  2912   0.384E-03
  71 F= -.23518989E+04 E0= -.23518989E+04  d E =-.171086E-03  mag=     2.0000
       N       E                     dE             d eps       ncg     rms          rms(c)
DAV:   1    -0.233038435067E+04    0.62593E-03   -0.62299E-02  4512   0.251E-01    0.793E-02
RMM:   2    -0.233038493422E+04   -0.58355E-03   -0.57287E-03  6169   0.483E-02    0.719E-02
RMM:   3    -0.233038495952E+04   -0.25298E-04   -0.61713E-04  3493   0.190E-02    0.672E-02
RMM:   4    -0.233038490419E+04    0.55324E-04   -0.71272E-05  2944   0.635E-03    0.316E-02
RMM:   5    -0.233038490069E+04    0.35065E-05   -0.30879E-05  2923   0.409E-03
  72 F= -.23518989E+04 E0= -.23518989E+04  d E =-.200942E-03  mag=     2.0000
       N       E                     dE             d eps       ncg     rms          rms(c)
DAV:   1    -0.233038454833E+04    0.35586E-03   -0.47765E-02  4528   0.222E-01    0.711E-02
RMM:   2    -0.233038498007E+04   -0.43173E-03   -0.44091E-03  6199   0.439E-02    0.545E-02
RMM:   3    -0.233038502822E+04   -0.48154E-04   -0.51210E-04  3421   0.179E-02    0.642E-02
RMM:   4    -0.233038497587E+04    0.52351E-04   -0.55740E-05  2939   0.601E-03    0.206E-02
RMM:   5    -0.233038498048E+04   -0.46130E-05   -0.27306E-05  2954   0.423E-03
  73 F= -.23518991E+04 E0= -.23518991E+04  d E =-.216219E-03  mag=     2.0000
       N       E                     dE             d eps       ncg     rms          rms(c)
DAV:   1    -0.233038478431E+04    0.19156E-03   -0.15191E-02  4768   0.125E-01    0.475E-02
RMM:   2    -0.233038502500E+04   -0.24069E-03   -0.15334E-03  6083   0.267E-02    0.105E-01
RMM:   3    -0.233038492393E+04    0.10108E-03   -0.18682E-04  3004   0.999E-03    0.266E-02
RMM:   4    -0.233038491925E+04    0.46804E-05   -0.25924E-05  2958   0.394E-03
  74 F= -.23518991E+04 E0= -.23518991E+04  d E =-.232095E-03  mag=     2.0000
       N       E                     dE             d eps       ncg     rms          rms(c)
DAV:   1    -0.233038473929E+04    0.18463E-03   -0.33578E-02  4544   0.192E-01    0.667E-02
RMM:   2    -0.233038500518E+04   -0.26588E-03   -0.26905E-03  6093   0.364E-02    0.584E-02
RMM:   3    -0.233038504280E+04   -0.37624E-04   -0.30818E-04  3334   0.150E-02    0.742E-02
RMM:   4    -0.233038498444E+04    0.58355E-04   -0.44002E-05  2921   0.548E-03    0.193E-02
RMM:   5    -0.233038498300E+04    0.14462E-05   -0.26097E-05  2917   0.475E-03
  75 F= -.23518993E+04 E0= -.23518993E+04  d E =-.179189E-03  mag=     2.0000
       N       E                     dE             d eps       ncg     rms          rms(c)
DAV:   1    -0.233038490127E+04    0.83178E-04   -0.45255E-03  5016   0.711E-02    0.251E-02
RMM:   2    -0.233038494001E+04   -0.38748E-04   -0.39031E-04  5388   0.158E-02    0.215E-02
RMM:   3    -0.233038494440E+04   -0.43840E-05   -0.49115E-05  2920   0.674E-03
  76 F= -.23518993E+04 E0= -.23518993E+04  d E =-.183610E-03  mag=     2.0000
       N       E                     dE             d eps       ncg     rms          rms(c)
DAV:   1    -0.233038480092E+04    0.13909E-03   -0.22767E-02  4544   0.156E-01    0.505E-02
RMM:   2    -0.233038496562E+04   -0.16470E-03   -0.17248E-03  6013   0.297E-02    0.384E-02
RMM:   3    -0.233038499268E+04   -0.27056E-04   -0.17622E-04  3052   0.114E-02    0.568E-02
RMM:   4    -0.233038495847E+04    0.34207E-04   -0.27335E-05  2919   0.453E-03    0.157E-02
RMM:   5    -0.233038495655E+04    0.19238E-05   -0.13922E-05  2910   0.346E-03
  77 F= -.23518994E+04 E0= -.23518994E+04  d E =-.102742E-03  mag=     2.0000
       N       E                     dE             d eps       ncg     rms          rms(c)
DAV:   1    -0.233038489869E+04    0.59787E-04   -0.31941E-03  4904   0.587E-02    0.208E-02
RMM:   2    -0.233038493120E+04   -0.32512E-04   -0.25792E-04  4632   0.128E-02    0.293E-02
RMM:   3    -0.233038492373E+04    0.74691E-05   -0.32040E-05  2911   0.598E-03
  78 F= -.23518994E+04 E0= -.23518994E+04  d E =-.104196E-03  mag=     2.0000
       N       E                     dE             d eps       ncg     rms          rms(c)
DAV:   1    -0.233038482807E+04    0.10313E-03   -0.24386E-02  4544   0.162E-01    0.533E-02
RMM:   2    -0.233038498127E+04   -0.15320E-03   -0.16335E-03  5921   0.301E-02    0.348E-02
RMM:   3    -0.233038500832E+04   -0.27049E-04   -0.16509E-04  3134   0.125E-02    0.551E-02
RMM:   4    -0.233038497539E+04    0.32931E-04   -0.28727E-05  2916   0.467E-03    0.205E-02
RMM:   5    -0.233038497467E+04    0.71798E-06   -0.16366E-05  2908   0.316E-03
  79 F= -.23518996E+04 E0= -.23518996E+04  d E =-.123222E-03  mag=     2.0000
       N       E                     dE             d eps       ncg     rms          rms(c)
DAV:   1    -0.233038493134E+04    0.44043E-04   -0.24061E-03  5136   0.516E-02    0.177E-02
RMM:   2    -0.233038494915E+04   -0.17810E-04   -0.16863E-04  3882   0.107E-02    0.177E-02
RMM:   3    -0.233038494940E+04   -0.25205E-06   -0.22145E-05  2899   0.598E-03
  80 F= -.23518996E+04 E0= -.23518996E+04  d E =-.121291E-03  mag=     2.0000
       N       E                     dE             d eps       ncg     rms          rms(c)
DAV:   1    -0.233038489135E+04    0.57799E-04   -0.22085E-02  4544   0.155E-01    0.499E-02
RMM:   2    -0.233038502540E+04   -0.13405E-03   -0.14454E-03  5883   0.285E-02    0.320E-02
RMM:   3    -0.233038505150E+04   -0.26096E-04   -0.14368E-04  3075   0.121E-02    0.547E-02
RMM:   4    -0.233038502050E+04    0.30999E-04   -0.24543E-05  2907   0.436E-03    0.153E-02
RMM:   5    -0.233038502141E+04   -0.91559E-06   -0.13765E-05  2913   0.330E-03
  81 F= -.23518997E+04 E0= -.23518997E+04  d E =-.106264E-03  mag=     2.0000
       N       E                     dE             d eps       ncg     rms          rms(c)
DAV:   1    -0.233038499766E+04    0.22836E-04   -0.16858E-03  5144   0.432E-02    0.160E-02
RMM:   2    -0.233038501430E+04   -0.16641E-04   -0.12054E-04  3520   0.947E-03    0.230E-02
RMM:   3    -0.233038500899E+04    0.53112E-05   -0.17793E-05  2852   0.540E-03
  82 F= -.23518997E+04 E0= -.23518997E+04  d E =-.103461E-03  mag=     2.0000
       N       E                     dE             d eps       ncg     rms          rms(c)
DAV:   1    -0.233038491686E+04    0.97444E-04   -0.20864E-02  4544   0.148E-01    0.509E-02
RMM:   2    -0.233038506343E+04   -0.14657E-03   -0.14767E-03  5941   0.280E-02    0.394E-02
RMM:   3    -0.233038507734E+04   -0.13915E-04   -0.15657E-04  3038   0.116E-02    0.455E-02
RMM:   4    -0.233038504819E+04    0.29152E-04   -0.22702E-05  2911   0.434E-03    0.135E-02
RMM:   5    -0.233038505127E+04   -0.30795E-05   -0.14378E-05  2915   0.323E-03
  83 F= -.23518998E+04 E0= -.23518998E+04  d E =-.934776E-04  mag=     2.0000
       N       E                     dE             d eps       ncg     rms          rms(c)
DAV:   1    -0.233038502776E+04    0.20432E-04   -0.94774E-04  5224   0.319E-02    0.128E-02
RMM:   2    -0.233038503866E+04   -0.10896E-04   -0.74019E-05  3145   0.726E-03    0.205E-02
RMM:   3    -0.233038503506E+04    0.35956E-05   -0.11574E-05  2613   0.440E-03
  84 F= -.23518997E+04 E0= -.23518997E+04  d E =-.883374E-04  mag=     2.0000
       N       E                     dE             d eps       ncg     rms          rms(c)
DAV:   1    -0.233038493383E+04    0.10483E-03   -0.21486E-02  4544   0.149E-01    0.512E-02
RMM:   2    -0.233038508556E+04   -0.15173E-03   -0.14595E-03  5929   0.276E-02    0.479E-02
RMM:   3    -0.233038508777E+04   -0.22143E-05   -0.16178E-04  3073   0.121E-02    0.457E-02
RMM:   4    -0.233038506280E+04    0.24974E-04   -0.22178E-05  2915   0.422E-03    0.192E-02
RMM:   5    -0.233038506488E+04   -0.20809E-05   -0.12037E-05  2883   0.289E-03
  85 F= -.23518998E+04 E0= -.23518998E+04  d E =-.972528E-04  mag=     2.0000
       N       E                     dE             d eps       ncg     rms          rms(c)
DAV:   1    -0.233038503235E+04    0.30451E-04   -0.11680E-03  5192   0.349E-02    0.126E-02
RMM:   2    -0.233038504018E+04   -0.78277E-05   -0.84703E-05  3195   0.770E-03
  86 F= -.23518998E+04 E0= -.23518998E+04  d E =-.887889E-04  mag=     2.0000
       N       E                     dE             d eps       ncg     rms          rms(c)
DAV:   1    -0.233038496952E+04    0.62830E-04   -0.18868E-02  4544   0.139E-01    0.488E-02
RMM:   2    -0.233038510491E+04   -0.13539E-03   -0.12272E-03  5986   0.275E-02    0.503E-02
RMM:   3    -0.233038509829E+04    0.66200E-05   -0.13612E-04  3005   0.103E-02    0.429E-02
RMM:   4    -0.233038507826E+04    0.20031E-04   -0.21416E-05  2911   0.439E-03    0.215E-02
RMM:   5    -0.233038507667E+04    0.15876E-05   -0.10672E-05  2878   0.282E-03
  87 F= -.23518999E+04 E0= -.23518999E+04  d E =-.947361E-04  mag=     2.0000
       N       E                     dE             d eps       ncg     rms          rms(c)
DAV:   1    -0.233038496550E+04    0.11276E-03   -0.11319E-02  4544   0.108E-01    0.380E-02
RMM:   2    -0.233038503874E+04   -0.73236E-04   -0.71232E-04  5661   0.201E-02    0.330E-02
RMM:   3    -0.233038504239E+04   -0.36515E-05   -0.93484E-05  2979   0.905E-03
  88 F= -.23518999E+04 E0= -.23518999E+04  d E =-.106200E-03  mag=     2.0000
       N       E                     dE             d eps       ncg     rms          rms(c)
DAV:   1    -0.233038501341E+04    0.25322E-04   -0.10227E-02  4544   0.100E-01    0.387E-02
RMM:   2    -0.233038511082E+04   -0.97402E-04   -0.71838E-04  5729   0.195E-02    0.642E-02
RMM:   3    -0.233038508027E+04    0.30545E-04   -0.86188E-05  2931   0.743E-03    0.288E-02
RMM:   4    -0.233038507621E+04    0.40636E-05   -0.17657E-05  2911   0.323E-03
  89 F= -.23519000E+04 E0= -.23519000E+04  d E =-.622417E-04  mag=     2.0000
       N       E                     dE             d eps       ncg     rms          rms(c)
DAV:   1    -0.233038468480E+04    0.39547E-03   -0.59871E-02  4512   0.242E-01    0.777E-02
RMM:   2    -0.233038503423E+04   -0.34943E-03   -0.37957E-03  5950   0.424E-02    0.446E-02
RMM:   3    -0.233038508455E+04   -0.50317E-04   -0.39046E-04  3460   0.178E-02    0.703E-02
RMM:   4    -0.233038503782E+04    0.46724E-04   -0.55868E-05  2936   0.572E-03    0.310E-02
RMM:   5    -0.233038503971E+04   -0.18912E-05   -0.38646E-05  2940   0.430E-03
  90 F= -.23519000E+04 E0= -.23519000E+04  d E =-.951063E-04  mag=     2.0000
       N       E                     dE             d eps       ncg     rms          rms(c)
DAV:   1    -0.233038502014E+04    0.17687E-04   -0.87555E-03  4760   0.911E-02    0.287E-02
RMM:   2    -0.233038507630E+04   -0.56166E-04   -0.60215E-04  5326   0.182E-02    0.181E-02
RMM:   3    -0.233038508757E+04   -0.11270E-04   -0.65071E-05  2921   0.753E-03    0.319E-02
RMM:   4    -0.233038507740E+04    0.10170E-04   -0.91695E-06  2900   0.308E-03    0.957E-03
RMM:   5    -0.233038507813E+04   -0.73032E-06   -0.53202E-06  2743   0.184E-03
  91 F= -.23519001E+04 E0= -.23519001E+04  d E =-.709738E-04  mag=     2.0000
       N       E                     dE             d eps       ncg     rms          rms(c)
DAV:   1    -0.233038472477E+04    0.35263E-03   -0.59847E-02  4512   0.236E-01    0.722E-02
RMM:   2    -0.233038509841E+04   -0.37364E-03   -0.39090E-03  5820   0.416E-02    0.514E-02
RMM:   3    -0.233038515782E+04   -0.59407E-04   -0.39266E-04  3335   0.173E-02    0.791E-02
RMM:   4    -0.233038509373E+04    0.64088E-04   -0.55308E-05  2948   0.568E-03    0.248E-02
RMM:   5    -0.233038510418E+04   -0.10455E-04   -0.32057E-05  2931   0.408E-03    0.364E-02
RMM:   6    -0.233038508775E+04    0.16432E-04   -0.18654E-05  2916   0.387E-03    0.908E-03
RMM:   7    -0.233038508743E+04    0.32526E-06   -0.56189E-06  2841   0.268E-03
  92 F= -.23519002E+04 E0= -.23519002E+04  d E =-.164850E-03  mag=     2.0000
       N       E                     dE             d eps       ncg     rms          rms(c)
DAV:   1    -0.233038514804E+04   -0.60288E-04   -0.67926E-03  4736   0.874E-02    0.322E-02
RMM:   2    -0.233038518582E+04   -0.37777E-04   -0.40818E-04  5297   0.168E-02    0.211E-02
RMM:   3    -0.233038519776E+04   -0.11944E-04   -0.47893E-05  2927   0.788E-03    0.393E-02
RMM:   4    -0.233038518176E+04    0.16001E-04   -0.10887E-05  2898   0.295E-03    0.844E-03
RMM:   5    -0.233038518245E+04   -0.68946E-06   -0.47311E-06  2808   0.186E-03
  93 F= -.23519003E+04 E0= -.23519003E+04  d E =-.121650E-03  mag=     2.0000
       N       E                     dE             d eps       ncg     rms          rms(c)
DAV:   1    -0.233038513378E+04    0.47978E-04   -0.12489E-02  4544   0.118E-01    0.437E-02
RMM:   2    -0.233038520314E+04   -0.69353E-04   -0.74508E-04  5744   0.219E-02    0.307E-02
RMM:   3    -0.233038522136E+04   -0.18223E-04   -0.90499E-05  3022   0.104E-02    0.501E-02
RMM:   4    -0.233038519383E+04    0.27528E-04   -0.18462E-05  2903   0.370E-03    0.124E-02
RMM:   5    -0.233038519657E+04   -0.27411E-05   -0.93351E-06  2876   0.261E-03
  94 F= -.23519004E+04 E0= -.23519004E+04  d E =-.172024E-03  mag=     2.0000
       N       E                     dE             d eps       ncg     rms          rms(c)
DAV:   1    -0.233038519189E+04    0.19407E-05   -0.34045E-03  4912   0.615E-02    0.212E-02
RMM:   2    -0.233038522257E+04   -0.30679E-04   -0.29477E-04  4483   0.129E-02    0.231E-02
RMM:   3    -0.233038522361E+04   -0.10443E-05   -0.36678E-05  2914   0.647E-03
  95 F= -.23519004E+04 E0= -.23519004E+04  d E =-.469391E-04  mag=     2.0000
       N       E                     dE             d eps       ncg     rms          rms(c)
DAV:   1    -0.233038517458E+04    0.47990E-04   -0.54408E-03  4544   0.775E-02    0.289E-02
RMM:   2    -0.233038522686E+04   -0.52282E-04   -0.48039E-04  5223   0.156E-02    0.342E-02
RMM:   3    -0.233038522270E+04    0.41579E-05   -0.53984E-05  2917   0.653E-03
  96 F= -.23519004E+04 E0= -.23519004E+04  d E =-.711097E-04  mag=     2.0000
       N       E                     dE             d eps       ncg     rms          rms(c)
DAV:   1    -0.233038522693E+04   -0.69602E-07   -0.51645E-03  4560   0.782E-02    0.303E-02
RMM:   2    -0.233038527478E+04   -0.47846E-04   -0.44295E-04  5264   0.161E-02    0.312E-02
RMM:   3    -0.233038526959E+04    0.51837E-05   -0.52133E-05  2912   0.691E-03
  97 F= -.23519005E+04 E0= -.23519005E+04  d E =-.592952E-04  mag=     2.0000
       N       E                     dE             d eps       ncg     rms          rms(c)
DAV:   1    -0.233038524419E+04    0.30592E-04   -0.26643E-03  4976   0.563E-02    0.274E-02
RMM:   2    -0.233038527652E+04   -0.32338E-04   -0.24775E-04  4124   0.120E-02    0.402E-02
RMM:   3    -0.233038526257E+04    0.13951E-04   -0.37128E-05  2923   0.576E-03    0.218E-02
RMM:   4    -0.233038526138E+04    0.11904E-05   -0.12043E-05  2896   0.252E-03
  98 F= -.23519005E+04 E0= -.23519005E+04  d E =-.600136E-04  mag=     2.0000
       N       E                     dE             d eps       ncg     rms          rms(c)
DAV:   1    -0.233038523201E+04    0.30565E-04   -0.62274E-03  4544   0.851E-02    0.283E-02
RMM:   2    -0.233038527655E+04   -0.44538E-04   -0.48010E-04  5549   0.166E-02    0.189E-02
RMM:   3    -0.233038528631E+04   -0.97614E-05   -0.52377E-05  2911   0.730E-03
  99 F= -.23519006E+04 E0= -.23519006E+04  d E =-.521017E-04  mag=     2.0000
       N       E                     dE             d eps       ncg     rms          rms(c)
DAV:   1    -0.233038524757E+04    0.28977E-04   -0.22372E-03  4840   0.513E-02    0.201E-02
RMM:   2    -0.233038526357E+04   -0.15999E-04   -0.18027E-04  3795   0.106E-02    0.140E-02
RMM:   3    -0.233038526533E+04   -0.17647E-05   -0.22673E-05  2908   0.539E-03
 100 F= -.23519006E+04 E0= -.23519006E+04  d E =-.473573E-04  mag=     2.0000
       N       E                     dE             d eps       ncg     rms          rms(c)
DAV:   1    -0.233038522081E+04    0.42762E-04   -0.71684E-03  4544   0.916E-02    0.314E-02
RMM:   2    -0.233038527612E+04   -0.55311E-04   -0.59239E-04  5782   0.184E-02    0.216E-02
RMM:   3    -0.233038528248E+04   -0.63649E-05   -0.69268E-05  2909   0.794E-03
 101 F= -.23519006E+04 E0= -.23519006E+04  d E =-.581021E-04  mag=     2.0000
       N       E                     dE             d eps       ncg     rms          rms(c)
DAV:   1    -0.233038525921E+04    0.16910E-04   -0.76365E-04  5592   0.298E-02    0.191E-02
RMM:   2    -0.233038528588E+04   -0.26670E-04   -0.91806E-05  3102   0.672E-03    0.488E-02
RMM:   3    -0.233038526249E+04    0.23385E-04   -0.22563E-05  2663   0.407E-03    0.114E-02
RMM:   4    -0.233038526225E+04    0.24532E-06   -0.62867E-06  2401   0.168E-03
 102 F= -.23519006E+04 E0= -.23519006E+04  d E =-.508975E-04  mag=     2.0000
       N       E                     dE             d eps       ncg     rms          rms(c)
DAV:   1    -0.233038524396E+04    0.18536E-04   -0.61548E-03  4544   0.847E-02    0.286E-02
RMM:   2    -0.233038529032E+04   -0.46365E-04   -0.48520E-04  5644   0.166E-02    0.232E-02
RMM:   3    -0.233038529857E+04   -0.82440E-05   -0.68722E-05  2908   0.805E-03
 103 F= -.23519007E+04 E0= -.23519007E+04  d E =-.573077E-04  mag=     2.0000
       N       E                     dE             d eps       ncg     rms          rms(c)
DAV:   1    -0.233038527372E+04    0.16598E-04   -0.11633E-03  4984   0.372E-02    0.171E-02
RMM:   2    -0.233038528581E+04   -0.12082E-04   -0.10292E-04  3336   0.789E-03    0.215E-02
RMM:   3    -0.233038528205E+04    0.37548E-05   -0.15104E-05  2847   0.428E-03
 104 F= -.23519007E+04 E0= -.23519007E+04  d E =-.498843E-04  mag=     2.0000
       N       E                     dE             d eps       ncg     rms          rms(c)
DAV:   1    -0.233038526158E+04    0.24226E-04   -0.63213E-03  4544   0.841E-02    0.304E-02
RMM:   2    -0.233038531402E+04   -0.52439E-04   -0.48482E-04  5655   0.162E-02    0.358E-02
RMM:   3    -0.233038530936E+04    0.46541E-05   -0.60486E-05  2925   0.748E-03
 105 F= -.23519007E+04 E0= -.23519007E+04  d E =-.458517E-04  mag=     2.0000
       N       E                     dE             d eps       ncg     rms          rms(c)
DAV:   1    -0.233038529608E+04    0.17939E-04   -0.73922E-04  5488   0.289E-02    0.201E-02
RMM:   2    -0.233038532852E+04   -0.32440E-04   -0.92923E-05  3121   0.655E-03    0.517E-02
RMM:   3    -0.233038529816E+04    0.30360E-04   -0.25636E-05  2690   0.407E-03    0.134E-02
RMM:   4    -0.233038529692E+04    0.12416E-05   -0.68198E-06  2344   0.162E-03
 106 F= -.23519007E+04 E0= -.23519007E+04  d E =-.396212E-04  mag=     2.0000
       N       E                     dE             d eps       ncg     rms          rms(c)
DAV:   1    -0.233038528532E+04    0.12845E-04   -0.60545E-03  4544   0.820E-02    0.280E-02
RMM:   2    -0.233038532303E+04   -0.37715E-04   -0.40549E-04  5453   0.153E-02    0.194E-02
RMM:   3    -0.233038533275E+04   -0.97193E-05   -0.47426E-05  2911   0.740E-03
 107 F= -.23519008E+04 E0= -.23519008E+04  d E =-.590982E-04  mag=     2.0000
       N       E                     dE             d eps       ncg     rms          rms(c)
DAV:   1    -0.233038528975E+04    0.33280E-04   -0.32620E-03  4544   0.603E-02    0.233E-02
RMM:   2    -0.233038530882E+04   -0.19075E-04   -0.22907E-04  4187   0.121E-02    0.139E-02
RMM:   3    -0.233038531212E+04   -0.32969E-05   -0.27571E-05  2905   0.602E-03
 108 F= -.23519007E+04 E0= -.23519007E+04  d E =-.555500E-04  mag=     2.0000
       N       E                     dE             d eps       ncg     rms          rms(c)
DAV:   1    -0.233038527364E+04    0.35180E-04   -0.69150E-03  4544   0.856E-02    0.294E-02
RMM:   2    -0.233038532173E+04   -0.48089E-04   -0.51626E-04  5408   0.171E-02    0.216E-02
RMM:   3    -0.233038533161E+04   -0.98786E-05   -0.58763E-05  2913   0.729E-03
 109 F= -.23519008E+04 E0= -.23519008E+04  d E =-.519241E-04  mag=     2.0000
       N       E                     dE             d eps       ncg     rms          rms(c)
DAV:   1    -0.233038530011E+04    0.21622E-04   -0.11854E-03  5152   0.357E-02    0.165E-02
RMM:   2    -0.233038530760E+04   -0.74890E-05   -0.91606E-05  3195   0.746E-03
 110 F= -.23519008E+04 E0= -.23519008E+04  d E =-.412919E-04  mag=     2.0000
       N       E                     dE             d eps       ncg     rms          rms(c)
DAV:   1    -0.233038529691E+04    0.32017E-05   -0.49107E-03  4544   0.723E-02    0.286E-02
RMM:   2    -0.233038533577E+04   -0.38862E-04   -0.36795E-04  4791   0.161E-02    0.297E-02
RMM:   3    -0.233038533455E+04    0.12232E-05   -0.48812E-05  2919   0.717E-03
 111 F= -.23519008E+04 E0= -.23519008E+04  d E =-.508318E-04  mag=     2.0000
       N       E                     dE             d eps       ncg     rms          rms(c)
DAV:   1    -0.233038531423E+04    0.21540E-04   -0.16461E-03  4832   0.418E-02    0.239E-02
RMM:   2    -0.233038536093E+04   -0.46695E-04   -0.16251E-04  3449   0.953E-03    0.600E-02
RMM:   3    -0.233038532229E+04    0.38639E-04   -0.35083E-05  2919   0.536E-03    0.144E-02
RMM:   4    -0.233038532169E+04    0.60206E-06   -0.97999E-06  2860   0.220E-03
 112 F= -.23519008E+04 E0= -.23519008E+04  d E =-.517603E-04  mag=     2.0000
       N       E                     dE             d eps       ncg     rms          rms(c)
DAV:   1    -0.233038532934E+04   -0.70545E-05   -0.36842E-03  4544   0.633E-02    0.244E-02
RMM:   2    -0.233038535379E+04   -0.24445E-04   -0.25508E-04  4527   0.129E-02    0.190E-02
RMM:   3    -0.233038535976E+04   -0.59686E-05   -0.35436E-05  2907   0.681E-03
 113 F= -.23519009E+04 E0= -.23519009E+04  d E =-.519559E-04  mag=     2.0000
       N       E                     dE             d eps       ncg     rms          rms(c)
DAV:   1    -0.233038533323E+04    0.20561E-04   -0.22957E-03  4640   0.501E-02    0.217E-02
RMM:   2    -0.233038534888E+04   -0.15650E-04   -0.16667E-04  3774   0.106E-02    0.173E-02
[...]
       N       E                     dE             d eps       ncg     rms          rms(c)
DAV:   1    -0.233038586917E+04    0.10747E-04   -0.12612E-03  4880   0.338E-02    0.188E-02
RMM:   2    -0.233038588649E+04   -0.17324E-04   -0.11011E-04  3228   0.779E-03    0.318E-02
RMM:   3    -0.233038587760E+04    0.88929E-05   -0.18877E-05  2878   0.446E-03
 170 F= -.23519026E+04 E0= -.23519026E+04  d E =-.513243E-04  mag=     2.0000
       N       E                     dE             d eps       ncg     rms          rms(c)
DAV:   1    -0.233038590132E+04   -0.14825E-04   -0.45151E-03  4544   0.665E-02    0.287E-02
RMM:   2    -0.233038594568E+04   -0.44365E-04   -0.36273E-04  4736   0.139E-02    0.347E-02
RMM:   3    -0.233038593635E+04    0.93310E-05   -0.48332E-05  2914   0.734E-03
 171 F= -.23519027E+04 E0= -.23519027E+04  d E =-.637331E-04  mag=     2.0000
       N       E                     dE             d eps       ncg     rms          rms(c)
DAV:   1    -0.233038592916E+04    0.16519E-04   -0.11870E-03  4984   0.341E-02    0.215E-02
RMM:   2    -0.233038596468E+04   -0.35517E-04   -0.12876E-04  3266   0.803E-03    0.548E-02
RMM:   3    -0.233038593543E+04    0.29248E-04   -0.26417E-05  2881   0.450E-03    0.104E-02
RMM:   4    -0.233038593509E+04    0.34100E-06   -0.55817E-06  2810   0.189E-03
 172 F= -.23519027E+04 E0= -.23519027E+04  d E =-.650542E-04  mag=     2.0000
       N       E                     dE             d eps       ncg     rms          rms(c)
DAV:   1    -0.233038593218E+04    0.32552E-05   -0.51372E-03  4544   0.696E-02    0.277E-02
RMM:   2    -0.233038597817E+04   -0.45993E-04   -0.48136E-04  5137   0.149E-02    0.236E-02
RMM:   3    -0.233038598553E+04   -0.73590E-05   -0.56491E-05  2906   0.730E-03
 173 F= -.23519027E+04 E0= -.23519027E+04  d E =-.609066E-04  mag=     2.0000
       N       E                     dE             d eps       ncg     rms          rms(c)
DAV:   1    -0.233038596732E+04    0.10851E-04   -0.10035E-03  4960   0.308E-02    0.161E-02
RMM:   2    -0.233038597628E+04   -0.89587E-05   -0.10064E-04  3175   0.714E-03    0.137E-02
RMM:   3    -0.233038597663E+04   -0.35214E-06   -0.14746E-05  2806   0.408E-03
 174 F= -.23519027E+04 E0= -.23519027E+04  d E =-.566167E-04  mag=     2.0000
       N       E                     dE             d eps       ncg     rms          rms(c)
DAV:   1    -0.233038599117E+04   -0.14890E-04   -0.47878E-03  4544   0.650E-02    0.271E-02
RMM:   2    -0.233038604259E+04   -0.51421E-04   -0.44701E-04  5082   0.141E-02    0.354E-02
RMM:   3    -0.233038603589E+04    0.66988E-05   -0.52971E-05  2911   0.689E-03
 175 F= -.23519028E+04 E0= -.23519028E+04  d E =-.600499E-04  mag=     2.0000
       N       E                     dE             d eps       ncg     rms          rms(c)
DAV:   1    -0.233038601679E+04    0.25805E-04   -0.28639E-03  4544   0.502E-02    0.261E-02
RMM:   2    -0.233038605124E+04   -0.34453E-04   -0.28606E-04  3987   0.115E-02    0.330E-02
RMM:   3    -0.233038604086E+04    0.10376E-04   -0.39953E-05  2923   0.567E-03    0.189E-02
RMM:   4    -0.233038604076E+04    0.10214E-06   -0.10375E-05  2906   0.231E-03
 176 F= -.23519028E+04 E0= -.23519028E+04  d E =-.655610E-04  mag=     2.0000
       N       E                     dE             d eps       ncg     rms          rms(c)
DAV:   1    -0.233038604947E+04   -0.86072E-05   -0.29205E-03  4504   0.480E-02    0.204E-02
RMM:   2    -0.233038607311E+04   -0.23637E-04   -0.24025E-04  3712   0.103E-02    0.190E-02
RMM:   3    -0.233038607627E+04   -0.31639E-05   -0.29119E-05  2897   0.555E-03
 177 F= -.23519028E+04 E0= -.23519028E+04  d E =-.405130E-04  mag=     2.0000
       N       E                     dE             d eps       ncg     rms          rms(c)
DAV:   1    -0.233038606325E+04    0.98612E-05   -0.36738E-03  4528   0.537E-02    0.235E-02
RMM:   2    -0.233038609376E+04   -0.30517E-04   -0.30637E-04  3978   0.114E-02    0.226E-02
RMM:   3    -0.233038609614E+04   -0.23784E-05   -0.37597E-05  2908   0.600E-03
 178 F= -.23519029E+04 E0= -.23519029E+04  d E =-.660005E-04  mag=     2.0000
       N       E                     dE             d eps       ncg     rms          rms(c)
DAV:   1    -0.233038596168E+04    0.13208E-03   -0.14675E-02  4512   0.107E-01    0.446E-02
RMM:   2    -0.233038607275E+04   -0.11107E-03   -0.12183E-03  5767   0.226E-02    0.304E-02
RMM:   3    -0.233038608163E+04   -0.88763E-05   -0.13219E-04  2946   0.929E-03    0.345E-02
RMM:   4    -0.233038607085E+04    0.10780E-04   -0.21806E-05  2920   0.356E-03    0.198E-02
RMM:   5    -0.233038607061E+04    0.23760E-06   -0.10828E-05  2838   0.231E-03
 179 F= -.23519028E+04 E0= -.23519028E+04  d E =-.518042E-04  mag=     2.0000
       N       E                     dE             d eps       ncg     rms          rms(c)
DAV:   1    -0.233038605497E+04    0.15877E-04   -0.48013E-03  4544   0.615E-02    0.249E-02
RMM:   2    -0.233038610418E+04   -0.49213E-04   -0.40065E-04  4441   0.133E-02    0.349E-02
RMM:   3    -0.233038609297E+04    0.11211E-04   -0.49799E-05  2840   0.659E-03    0.182E-02
RMM:   4    -0.233038609022E+04    0.27506E-05   -0.75376E-06  2536   0.240E-03
 180 F= -.23519028E+04 E0= -.23519028E+04  d E =-.650421E-04  mag=     2.0000
       N       E                     dE             d eps       ncg     rms          rms(c)
DAV:   1    -0.233038611158E+04   -0.18606E-04   -0.31103E-03  4448   0.464E-02    0.185E-02
RMM:   2    -0.233038614342E+04   -0.31842E-04   -0.27328E-04  3807   0.996E-03    0.292E-02
RMM:   3    -0.233038613812E+04    0.53049E-05   -0.31298E-05  2721   0.524E-03
 181 F= -.23519029E+04 E0= -.23519029E+04  d E =-.570858E-04  mag=     2.0000
       N       E                     dE             d eps       ncg     rms          rms(c)
DAV:   1    -0.233038602941E+04    0.11402E-03   -0.20044E-02  4512   0.118E-01    0.471E-02
RMM:   2    -0.233038618798E+04   -0.15858E-03   -0.17342E-03  5874   0.250E-02    0.303E-02
RMM:   3    -0.233038621017E+04   -0.22186E-04   -0.18006E-04  2958   0.104E-02    0.436E-02
RMM:   4    -0.233038619157E+04    0.18596E-04   -0.26183E-05  2916   0.383E-03    0.212E-02
RMM:   5    -0.233038619114E+04    0.42947E-06   -0.14398E-05  2862   0.250E-03
 182 F= -.23519030E+04 E0= -.23519030E+04  d E =-.133726E-03  mag=     2.0000
       N       E                     dE             d eps       ncg     rms          rms(c)
DAV:   1    -0.233038541664E+04    0.77493E-03   -0.79795E-02  4512   0.235E-01    0.915E-02
RMM:   2    -0.233038604883E+04   -0.63219E-03   -0.68841E-03  6018   0.484E-02    0.609E-02
RMM:   3    -0.233038614320E+04   -0.94365E-04   -0.72725E-04  3425   0.195E-02    0.878E-02
RMM:   4    -0.233038605481E+04    0.88386E-04   -0.93093E-05  2986   0.697E-03    0.329E-02
RMM:   5    -0.233038606780E+04   -0.12985E-04   -0.52804E-05  2937   0.474E-03    0.478E-02
RMM:   6    -0.233038604699E+04    0.20813E-04   -0.28851E-05  2928   0.436E-03    0.168E-02
RMM:   7    -0.233038604435E+04    0.26338E-05   -0.10697E-05  2888   0.327E-03
 183 F= -.23519029E+04 E0= -.23519029E+04  d E =-.347695E-04  mag=     2.0000
       N       E                     dE             d eps       ncg     rms          rms(c)
DAV:   1    -0.233038585042E+04    0.19656E-03   -0.42664E-02  4512   0.171E-01    0.653E-02
RMM:   2    -0.233038618022E+04   -0.32979E-03   -0.36153E-03  6004   0.347E-02    0.418E-02
RMM:   3    -0.233038623268E+04   -0.52460E-04   -0.37491E-04  3083   0.141E-02    0.676E-02
RMM:   4    -0.233038618594E+04    0.46738E-04   -0.49117E-05  2937   0.500E-03    0.236E-02
RMM:   5    -0.233038619107E+04   -0.51296E-05   -0.26974E-05  2887   0.341E-03
 184 F= -.23519030E+04 E0= -.23519030E+04  d E =-.146601E-03  mag=     2.0000
       N       E                     dE             d eps       ncg     rms          rms(c)
DAV:   1    -0.233038619427E+04   -0.83313E-05   -0.43023E-03  4416   0.523E-02    0.209E-02
RMM:   2    -0.233038623889E+04   -0.44619E-04   -0.39540E-04  3981   0.115E-02    0.279E-02
RMM:   3    -0.233038623368E+04    0.52116E-05   -0.44181E-05  2856   0.582E-03
 185 F= -.23519031E+04 E0= -.23519031E+04  d E =-.564645E-04  mag=     2.0000
       N       E                     dE             d eps       ncg     rms          rms(c)
DAV:   1    -0.233038600588E+04    0.23301E-03   -0.37414E-02  4512   0.154E-01    0.625E-02
RMM:   2    -0.233038632337E+04   -0.31748E-03   -0.34104E-03  6062   0.322E-02    0.434E-02
RMM:   3    -0.233038634987E+04   -0.26500E-04   -0.37338E-04  3011   0.132E-02    0.462E-02
RMM:   4    -0.233038632674E+04    0.23126E-04   -0.43735E-05  2937   0.458E-03    0.232E-02
RMM:   5    -0.233038632935E+04   -0.26062E-05   -0.24287E-05  2884   0.307E-03
 186 F= -.23519032E+04 E0= -.23519032E+04  d E =-.193906E-03  mag=     2.0000
       N       E                     dE             d eps       ncg     rms          rms(c)
DAV:   1    -0.233038496632E+04    0.13604E-02   -0.14879E-01  4512   0.307E-01    0.121E-01
RMM:   2    -0.233038624377E+04   -0.12774E-02   -0.13558E-02  6109   0.640E-02    0.933E-02
RMM:   3    -0.233038641807E+04   -0.17430E-03   -0.14798E-03  3975   0.255E-02    0.128E-01
RMM:   4    -0.233038624831E+04    0.16976E-03   -0.17821E-04  3049   0.841E-03    0.481E-02
RMM:   5    -0.233038625726E+04   -0.89513E-05   -0.79799E-05  2944   0.534E-03
 187 F= -.23519032E+04 E0= -.23519032E+04  d E =-.206492E-03  mag=     2.0000
       N       E                     dE             d eps       ncg     rms          rms(c)
DAV:   1    -0.233038607901E+04    0.16930E-03   -0.27699E-02  4512   0.133E-01    0.536E-02
RMM:   2    -0.233038637127E+04   -0.29227E-03   -0.25980E-03  6020   0.288E-02    0.722E-02
RMM:   3    -0.233038633363E+04    0.37641E-04   -0.28124E-04  2998   0.113E-02    0.481E-02
RMM:   4    -0.233038631702E+04    0.16614E-04   -0.45582E-05  2939   0.419E-03    0.279E-02
RMM:   5    -0.233038630840E+04    0.86155E-05   -0.12500E-05  2633   0.238E-03
 188 F= -.23519032E+04 E0= -.23519032E+04  d E =-.221661E-03  mag=     2.0000
       N       E                     dE             d eps       ncg     rms          rms(c)
DAV:   1    -0.233038631386E+04    0.31602E-05   -0.89432E-03  4512   0.723E-02    0.336E-02
RMM:   2    -0.233038644862E+04   -0.13476E-03   -0.87397E-04  4817   0.155E-02    0.702E-02
RMM:   3    -0.233038638770E+04    0.60924E-04   -0.10225E-04  2948   0.687E-03    0.192E-02
RMM:   4    -0.233038638692E+04    0.77244E-06   -0.16463E-05  2743   0.257E-03
 189 F= -.23519033E+04 E0= -.23519033E+04  d E =-.100508E-03  mag=     2.0000
       N       E                     dE             d eps       ncg     rms          rms(c)
DAV:   1    -0.233038588190E+04    0.50580E-03   -0.78714E-02  4512   0.215E-01    0.879E-02
RMM:   2    -0.233038654397E+04   -0.66207E-03   -0.69334E-03  6192   0.439E-02    0.727E-02
RMM:   3    -0.233038663844E+04   -0.94471E-04   -0.77091E-04  3176   0.175E-02    0.101E-01
RMM:   4    -0.233038654228E+04    0.96159E-04   -0.96946E-05  2963   0.639E-03    0.336E-02
RMM:   5    -0.233038654507E+04   -0.27848E-05   -0.45839E-05  2923   0.402E-03
 190 F= -.23519035E+04 E0= -.23519035E+04  d E =-.325260E-03  mag=     2.0000
       N       E                     dE             d eps       ncg     rms          rms(c)
DAV:   1    -0.233038385526E+04    0.26870E-02   -0.31329E-01  4512   0.430E-01    0.172E-01
RMM:   2    -0.233038648537E+04   -0.26301E-02   -0.27823E-02  6222   0.888E-02    0.133E-01
RMM:   3    -0.233038682863E+04   -0.34326E-03   -0.30260E-03  4678   0.344E-02    0.177E-01
RMM:   4    -0.233038648832E+04    0.34031E-03   -0.34615E-04  3297   0.108E-02    0.647E-02
RMM:   5    -0.233038652752E+04   -0.39203E-04   -0.17182E-04  2996   0.735E-03    0.854E-02
RMM:   6    -0.233038646531E+04    0.62219E-04   -0.10109E-04  3125   0.665E-03    0.340E-02
RMM:   7    -0.233038645286E+04    0.12450E-04   -0.37636E-05  2927   0.518E-03    0.163E-02
RMM:   8    -0.233038644836E+04    0.44937E-05   -0.56732E-06  2746   0.234E-03
 191 F= -.23519036E+04 E0= -.23519036E+04  d E =-.364452E-03  mag=     2.0000
       N       E                     dE             d eps       ncg     rms          rms(c)
DAV:   1    -0.233038622975E+04    0.22310E-03   -0.37023E-02  4512   0.148E-01    0.576E-02
RMM:   2    -0.233038652796E+04   -0.29821E-03   -0.32325E-03  6036   0.311E-02    0.375E-02
RMM:   3    -0.233038657217E+04   -0.44210E-04   -0.32997E-04  2999   0.121E-02    0.583E-02
RMM:   4    -0.233038653854E+04    0.33628E-04   -0.40598E-05  2919   0.444E-03    0.222E-02
RMM:   5    -0.233038654098E+04   -0.24380E-05   -0.19686E-05  2813   0.265E-03
 192 F= -.23519036E+04 E0= -.23519036E+04  d E =-.410086E-03  mag=     2.0000
       N       E                     dE             d eps       ncg     rms          rms(c)
DAV:   1    -0.233038643880E+04    0.99742E-04   -0.27979E-02  4512   0.126E-01    0.505E-02
RMM:   2    -0.233038669878E+04   -0.25998E-03   -0.25555E-03  5914   0.267E-02    0.540E-02
RMM:   3    -0.233038670537E+04   -0.65937E-05   -0.27789E-04  2991   0.107E-02    0.507E-02
RMM:   4    -0.233038668209E+04    0.23281E-04   -0.34098E-05  2925   0.374E-03    0.217E-02
RMM:   5    -0.233038667976E+04    0.23331E-05   -0.12696E-05  2654   0.219E-03
 193 F= -.23519038E+04 E0= -.23519038E+04  d E =-.174167E-03  mag=     2.0000
       N       E                     dE             d eps       ncg     rms          rms(c)
DAV:   1    -0.233038475501E+04    0.19271E-02   -0.24777E-01  4512   0.378E-01    0.151E-01
RMM:   2    -0.233038683579E+04   -0.20808E-02   -0.22537E-02  6202   0.787E-02    0.964E-02
RMM:   3    -0.233038713985E+04   -0.30406E-03   -0.22973E-03  4105   0.293E-02    0.149E-01
RMM:   4    -0.233038691945E+04    0.22040E-03   -0.27146E-04  3027   0.928E-03    0.553E-02
RMM:   5    -0.233038695479E+04   -0.35338E-04   -0.14345E-04  3053   0.677E-03    0.704E-02
RMM:   6    -0.233038690077E+04    0.54014E-04   -0.72163E-05  3004   0.601E-03    0.255E-02
RMM:   7    -0.233038689716E+04    0.36146E-05   -0.25242E-05  2924   0.396E-03
 194 F= -.23519041E+04 E0= -.23519041E+04  d E =-.499743E-03  mag=     2.0000
       N       E                     dE             d eps       ncg     rms          rms(c)
DAV:   1    -0.233037786162E+04    0.90392E-02   -0.99374E-01  4512   0.757E-01    0.302E-01
RMM:   2    -0.233038634461E+04   -0.84830E-02   -0.90433E-02  6289   0.159E-01    0.220E-01
RMM:   3    -0.233038762942E+04   -0.12848E-02   -0.94347E-03  5721   0.587E-02    0.335E-01
RMM:   4    -0.233038655869E+04    0.10707E-02   -0.11631E-03  4400   0.170E-02    0.112E-01
RMM:   5    -0.233038657847E+04   -0.19780E-04   -0.49231E-04  3955   0.114E-02    0.105E-01
RMM:   6    -0.233038643883E+04    0.13964E-03   -0.31354E-04  3835   0.105E-02    0.272E-02
RMM:   7    -0.233038643077E+04    0.80607E-05   -0.35925E-05  2976   0.559E-03
 195 F= -.23519039E+04 E0= -.23519039E+04  d E =-.258743E-03  mag=     2.0000
       N       E                     dE             d eps       ncg     rms          rms(c)
DAV:   1    -0.233038343611E+04    0.30027E-02   -0.39916E-01  4512   0.480E-01    0.190E-01
RMM:   2    -0.233038684778E+04   -0.34117E-02   -0.36190E-02  6237   0.994E-02    0.142E-01
RMM:   3    -0.233038733988E+04   -0.49210E-03   -0.37254E-03  4776   0.354E-02    0.207E-01
RMM:   4    -0.233038690966E+04    0.43021E-03   -0.44602E-04  3221   0.113E-02    0.710E-02
RMM:   5    -0.233038694769E+04   -0.38026E-04   -0.21628E-04  3116   0.820E-03    0.826E-02
RMM:   6    -0.233038688026E+04    0.67428E-04   -0.12896E-04  3173   0.749E-03    0.397E-02
RMM:   7    -0.233038686461E+04    0.15649E-04   -0.44913E-05  2954   0.555E-03    0.199E-02
RMM:   8    -0.233038685914E+04    0.54718E-05   -0.69292E-06  2786   0.265E-03
 196 F= -.23519042E+04 E0= -.23519042E+04  d E =-.542893E-03  mag=     2.0000
       N       E                     dE             d eps       ncg     rms          rms(c)
DAV:   1    -0.233038658442E+04    0.28019E-03   -0.48458E-02  4512   0.162E-01    0.647E-02
RMM:   2    -0.233038702370E+04   -0.43928E-03   -0.46879E-03  6127   0.349E-02    0.456E-02
RMM:   3    -0.233038708498E+04   -0.61278E-04   -0.46787E-04  3036   0.129E-02    0.689E-02
RMM:   4    -0.233038703964E+04    0.45342E-04   -0.55342E-05  2922   0.472E-03    0.250E-02
RMM:   5    -0.233038704252E+04   -0.28762E-05   -0.24702E-05  2827   0.284E-03
 197 F= -.23519044E+04 E0= -.23519044E+04  d E =-.219826E-03  mag=     2.0000
       N       E                     dE             d eps       ncg     rms          rms(c)
DAV:   1    -0.233038325997E+04    0.37797E-02   -0.43458E-01  4512   0.484E-01    0.198E-01
RMM:   2    -0.233038727791E+04   -0.40179E-02   -0.42565E-02  6349   0.103E-01    0.151E-01
RMM:   3    -0.233038783229E+04   -0.55438E-03   -0.44352E-03  4779   0.378E-02    0.214E-01
RMM:   4    -0.233038738202E+04    0.45026E-03   -0.51330E-04  3198   0.115E-02    0.753E-02
RMM:   5    -0.233038742555E+04   -0.43524E-04   -0.24047E-04  3114   0.817E-03    0.863E-02
RMM:   6    -0.233038735468E+04    0.70863E-04   -0.13841E-04  3155   0.726E-03    0.424E-02
RMM:   7    -0.233038733831E+04    0.16376E-04   -0.51426E-05  2952   0.528E-03    0.239E-02
RMM:   8    -0.233038733002E+04    0.82918E-05   -0.90218E-06  2737   0.274E-03
 198 F= -.23519048E+04 E0= -.23519048E+04  d E =-.620340E-03  mag=     2.0000
       N       E                     dE             d eps       ncg     rms          rms(c)
DAV:   1    -0.233037062486E+04    0.16713E-01   -0.17422E+00  4512   0.971E-01    0.393E-01
RMM:   2    -0.233038679350E+04   -0.16169E-01   -0.17045E-01  6346   0.208E-01    0.309E-01
RMM:   3    -0.233038898679E+04   -0.21933E-02   -0.17721E-02  5878   0.755E-02    0.436E-01
RMM:   4    -0.233038718689E+04    0.17999E-02   -0.20974E-03  4898   0.216E-02    0.149E-01
RMM:   5    -0.233038725085E+04   -0.63957E-04   -0.86336E-04  4452   0.141E-02    0.145E-01
RMM:   6    -0.233038702286E+04    0.22799E-03   -0.55842E-04  4322   0.124E-02    0.629E-02
RMM:   7    -0.233038702547E+04   -0.26105E-05   -0.16538E-04  3032   0.772E-03    0.644E-02
RMM:   8    -0.233038696922E+04    0.56243E-04   -0.45118E-05  2942   0.462E-03    0.966E-03
RMM:   9    -0.233038696736E+04    0.18600E-05   -0.77003E-06  2892   0.219E-03
 199 F= -.23519047E+04 E0= -.23519047E+04  d E =-.500278E-03  mag=     2.0000
       N       E                     dE             d eps       ncg     rms          rms(c)
DAV:   1    -0.233038163789E+04    0.53313E-02   -0.60868E-01  4512   0.573E-01    0.232E-01
RMM:   2    -0.233038723107E+04   -0.55932E-02   -0.59544E-02  6375   0.121E-01    0.171E-01
RMM:   3    -0.233038804703E+04   -0.81597E-03   -0.60158E-03  5101   0.433E-02    0.259E-01
RMM:   4    -0.233038741065E+04    0.63638E-03   -0.72038E-04  3456   0.132E-02    0.865E-02
RMM:   5    -0.233038745891E+04   -0.48264E-04   -0.32025E-04  3313   0.931E-03    0.937E-02
RMM:   6    -0.233038736104E+04    0.97877E-04   -0.19903E-04  3244   0.849E-03    0.407E-02
RMM:   7    -0.233038735197E+04    0.90612E-05   -0.59095E-05  2966   0.562E-03
 200 F= -.23519049E+04 E0= -.23519049E+04  d E =-.738612E-03  mag=     2.0000
       N       E                     dE             d eps       ncg     rms          rms(c)
DAV:   1    -0.233038577860E+04    0.15824E-02   -0.20664E-01  4512   0.339E-01    0.135E-01
RMM:   2    -0.233038768235E+04   -0.19038E-02   -0.20170E-02  6240   0.721E-02    0.101E-01
RMM:   3    -0.233038795097E+04   -0.26862E-03   -0.20383E-03  3729   0.266E-02    0.151E-01
RMM:   4    -0.233038773220E+04    0.21877E-03   -0.23926E-04  3071   0.884E-03    0.493E-02
RMM:   5    -0.233038775033E+04   -0.18128E-04   -0.10923E-04  2988   0.589E-03    0.551E-02
RMM:   6    -0.233038771400E+04    0.36330E-04   -0.66815E-05  2985   0.553E-03    0.224E-02
RMM:   7    -0.233038771199E+04    0.20107E-05   -0.20209E-05  2894   0.363E-03
 201 F= -.23519054E+04 E0= -.23519054E+04  d E =-.441078E-03  mag=     2.0000
