       N       E                     dE             d eps       ncg     rms          rms(c)
DAV:   1     0.129662923167E+05    0.12966E+05   -0.83532E+05  4480   0.144E+03
DAV:   2    -0.103907422965E+04   -0.14005E+05   -0.13407E+05  5128   0.331E+02
DAV:   3    -0.247494688675E+04   -0.14359E+04   -0.14213E+04  5392   0.112E+02
DAV:   4    -0.251879961578E+04   -0.43853E+02   -0.43619E+02  6688   0.290E+01
DAV:   5    -0.251960875489E+04   -0.80914E+00   -0.80720E+00  5768   0.331E+00    0.170E+02
RMM:   6    -0.148740333647E+04    0.10322E+04   -0.19486E+03  4438   0.387E+01    0.737E+01
RMM:   7    -0.165602939147E+04   -0.16863E+03   -0.31071E+02  5116   0.148E+01    0.519E+01
RMM:   8    -0.170336746742E+04   -0.47338E+02   -0.52985E+01  5310   0.731E+00    0.373E+01
RMM:   9    -0.182687216779E+04   -0.12350E+03   -0.79109E+01  5147   0.789E+00    0.377E+01
RMM:  10    -0.192750118511E+04   -0.10063E+03   -0.55700E+01  5365   0.730E+00    0.247E+01
RMM:  11    -0.197936339904E+04   -0.51862E+02   -0.21797E+01  5436   0.406E+00    0.233E+01
RMM:  12    -0.206689968471E+04   -0.87536E+02   -0.39410E+01  4846   0.496E+00    0.164E+01
RMM:  13    -0.212947692296E+04   -0.62577E+02   -0.26536E+01  5167   0.410E+00    0.148E+01
RMM:  14    -0.220877563366E+04   -0.79299E+02   -0.50759E+01  4597   0.527E+00    0.885E+00
RMM:  15    -0.228689039181E+04   -0.78115E+02   -0.72374E+01  4470   0.591E+00    0.757E+00
RMM:  16    -0.229834219827E+04   -0.11452E+02   -0.12942E+01  4457   0.363E+00    0.516E+00
RMM:  17    -0.230384994417E+04   -0.55077E+01   -0.64961E+00  4667   0.146E+00    0.341E+00
RMM:  18    -0.230601377439E+04   -0.21638E+01   -0.17383E+00  4967   0.116E+00    0.181E+00
RMM:  19    -0.230646968986E+04   -0.45592E+00   -0.37752E-01  5240   0.420E-01    0.125E+00
RMM:  20    -0.230686020410E+04   -0.39051E+00   -0.10887E-01  4879   0.250E-01    0.291E+00
RMM:  21    -0.230685976272E+04    0.44138E-03   -0.11451E-02  5257   0.105E-01    0.249E+00
RMM:  22    -0.230690359322E+04   -0.43831E-01   -0.26944E-02  4657   0.933E-02    0.166E+00
RMM:  23    -0.230693690459E+04   -0.33311E-01   -0.23312E-02  4496   0.107E-01    0.115E+00
RMM:  24    -0.230695129030E+04   -0.14386E-01   -0.17630E-02  4693   0.896E-02    0.142E+00
RMM:  25    -0.230694198616E+04    0.93041E-02   -0.55123E-03  5101   0.509E-02    0.167E+00
RMM:  26    -0.230695648858E+04   -0.14502E-01   -0.21901E-03  4493   0.253E-02    0.140E+00
RMM:  27    -0.230697818761E+04   -0.21699E-01   -0.11261E-02  4815   0.550E-02    0.113E+00
RMM:  28    -0.230702041799E+04   -0.42230E-01   -0.35930E-02  4870   0.960E-02    0.242E+00
RMM:  29    -0.230701898418E+04    0.14338E-02   -0.24621E-03  4159   0.425E-02    0.225E+00
RMM:  30    -0.230702431864E+04   -0.53345E-02   -0.13775E-03  4756   0.154E-02    0.256E+00
RMM:  31    -0.230700923114E+04    0.15088E-01   -0.54085E-03  4634   0.373E-02    0.169E+00
RMM:  32    -0.230700453544E+04    0.46957E-02   -0.82891E-03  4678   0.500E-02    0.123E+00
RMM:  33    -0.230699703238E+04    0.75031E-02   -0.15203E-02  4759   0.663E-02    0.115E+00
RMM:  34    -0.230699597297E+04    0.10594E-02   -0.20624E-03  4478   0.334E-02    0.122E+00
RMM:  35    -0.230699762042E+04   -0.16474E-02   -0.58483E-04  4198   0.132E-02    0.116E+00
RMM:  36    -0.230700684218E+04   -0.92218E-02   -0.47190E-03  4545   0.319E-02    0.114E+00
RMM:  37    -0.230702848804E+04   -0.21646E-01   -0.14586E-02  4732   0.581E-02    0.200E+00
RMM:  38    -0.230703966991E+04   -0.11182E-01   -0.50434E-03  4485   0.398E-02    0.251E+00
RMM:  39    -0.230703234696E+04    0.73230E-02   -0.88787E-04  3843   0.176E-02    0.210E+00
RMM:  40    -0.230702101902E+04    0.11328E-01   -0.68751E-03  4594   0.377E-02    0.151E+00
RMM:  41    -0.230700575590E+04    0.15263E-01   -0.22936E-02  4817   0.719E-02    0.134E+00
RMM:  42    -0.230700630015E+04   -0.54425E-03   -0.14979E-03  4103   0.285E-02    0.135E+00
RMM:  43    -0.230700520260E+04    0.10976E-02   -0.60830E-04  4060   0.978E-03    0.137E+00
RMM:  44    -0.230700594737E+04   -0.74477E-03   -0.73345E-05  3055   0.671E-03    0.138E+00
RMM:  45    -0.230700745586E+04   -0.15085E-02   -0.20595E-03  4493   0.219E-02    0.154E+00
RMM:  46    -0.230700794113E+04   -0.48527E-03   -0.13772E-03  4203   0.208E-02    0.167E+00
RMM:  47    -0.230700773965E+04    0.20148E-03   -0.15289E-03  4736   0.186E-02    0.182E+00
RMM:  48    -0.230700529032E+04    0.24493E-02   -0.21841E-03  4613   0.228E-02    0.207E+00
RMM:  49    -0.230700346347E+04    0.18268E-02   -0.62555E-04  4175   0.126E-02    0.218E+00
RMM:  50    -0.230700892696E+04   -0.54635E-02   -0.10137E-03  4197   0.148E-02    0.199E+00
RMM:  51    -0.230701590945E+04   -0.69825E-02   -0.48260E-03  4917   0.318E-02    0.170E+00
RMM:  52    -0.230701151264E+04    0.43968E-02   -0.15862E-03  4719   0.194E-02    0.188E+00
RMM:  53    -0.230700393051E+04    0.75821E-02   -0.67945E-03  5012   0.367E-02    0.236E+00
RMM:  54    -0.230701439437E+04   -0.10464E-01   -0.65028E-03  5201   0.364E-02    0.189E+00
RMM:  55    -0.230703140496E+04   -0.17011E-01   -0.21214E-02  5185   0.678E-02    0.221E+00
RMM:  56    -0.230703857709E+04   -0.71721E-02   -0.58484E-03  4960   0.398E-02    0.251E+00
RMM:  57    -0.230702475445E+04    0.13823E-01   -0.69655E-03  4815   0.391E-02    0.183E+00
RMM:  58    -0.230701963948E+04    0.51150E-02   -0.48420E-03  4772   0.341E-02    0.177E+00
RMM:  59    -0.230701754336E+04    0.20961E-02   -0.27888E-03  4813   0.257E-02    0.187E+00
RMM:  60    -0.230700297008E+04    0.14573E-01   -0.16047E-02  5266   0.580E-02    0.260E+00
RMM:  61    -0.230700235092E+04    0.61915E-03   -0.10119E-03  4379   0.218E-02    0.261E+00
RMM:  62    -0.230700131905E+04    0.10319E-02   -0.36927E-04  3686   0.765E-03    0.268E+00
RMM:  63    -0.230699873057E+04    0.25885E-02   -0.26205E-04  3683   0.905E-03    0.280E+00
RMM:  64    -0.230699872348E+04    0.70933E-05   -0.19956E-05  2854   0.399E-03
   1 F= -.23277433E+04 E0= -.23277428E+04  d E =-.232774E+04  mag=     6.8807
       N       E                     dE             d eps       ncg     rms          rms(c)
DAV:   1    -0.230691480336E+04    0.83927E-01   -0.51367E+00  4720   0.209E+00    0.293E+00
RMM:   2    -0.230723030980E+04   -0.31551E+00   -0.18884E+00  6183   0.636E-01    0.458E+00
RMM:   3    -0.230706176886E+04    0.16854E+00   -0.31461E-01  5675   0.311E-01    0.254E+00
RMM:   4    -0.230697079243E+04    0.90976E-01   -0.78372E-02  4951   0.138E-01    0.153E+00
RMM:   5    -0.230696142177E+04    0.93707E-02   -0.65657E-02  5820   0.125E-01    0.212E+00
RMM:   6    -0.230693432822E+04    0.27094E-01   -0.30268E-02  5266   0.947E-02    0.688E-01
RMM:   7    -0.230698763834E+04   -0.53310E-01   -0.20417E-02  4755   0.678E-02    0.302E-01
RMM:   8    -0.230701846671E+04   -0.30828E-01   -0.78378E-03  4552   0.484E-02    0.231E-01
RMM:   9    -0.230703742149E+04   -0.18955E-01   -0.48230E-03  4668   0.363E-02    0.196E-01
RMM:  10    -0.230705095248E+04   -0.13531E-01   -0.27757E-03  4384   0.294E-02    0.134E-01
RMM:  11    -0.230705844346E+04   -0.74910E-02   -0.21264E-03  4495   0.288E-02    0.573E-02
RMM:  12    -0.230706001168E+04   -0.15682E-02   -0.42902E-04  4334   0.151E-02    0.408E-02
RMM:  13    -0.230706116620E+04   -0.11545E-02   -0.16046E-04  3850   0.798E-03    0.287E-02
RMM:  14    -0.230706198427E+04   -0.81807E-03   -0.79385E-05  3650   0.727E-03    0.222E-02
RMM:  15    -0.230706261255E+04   -0.62828E-03   -0.80070E-05  3569   0.601E-03    0.141E-02
RMM:  16    -0.230706289085E+04   -0.27830E-03   -0.46868E-05  3335   0.564E-03    0.720E-03
RMM:  17    -0.230706295351E+04   -0.62659E-04   -0.14229E-05  2905   0.384E-03    0.389E-03
RMM:  18    -0.230706297306E+04   -0.19548E-04   -0.68446E-06  2729   0.308E-03    0.225E-03
RMM:  19    -0.230706297649E+04   -0.34311E-05   -0.33430E-06  2529   0.239E-03
   2 F= -.23278063E+04 E0= -.23278030E+04  d E =-.629919E-01  mag=     5.9146
       N       E                     dE             d eps       ncg     rms          rms(c)
DAV:   1    -0.230706305278E+04   -0.79722E-04   -0.52247E-03  4920   0.658E-02    0.303E-02
RMM:   2    -0.230706318938E+04   -0.13659E-03   -0.14499E-03  5540   0.189E-02    0.224E-02
RMM:   3    -0.230706319829E+04   -0.89094E-05   -0.13268E-04  2935   0.757E-03    0.204E-02
RMM:   4    -0.230706319756E+04    0.72281E-06   -0.15337E-05  2865   0.234E-03
   3 F= -.23278064E+04 E0= -.23278035E+04  d E =-.631731E-01  mag=     5.9167
       N       E                     dE             d eps       ncg     rms          rms(c)
DAV:   1    -0.230704584468E+04    0.17354E-01   -0.27695E+00  4560   0.156E+00    0.607E-01
RMM:   2    -0.230708422459E+04   -0.38380E-01   -0.41125E-01  6130   0.345E-01    0.367E-01
RMM:   3    -0.230708747328E+04   -0.32487E-02   -0.38003E-02  5632   0.134E-01    0.484E-01
RMM:   4    -0.230708583809E+04    0.16352E-02   -0.48235E-03  5984   0.339E-02    0.217E-01
RMM:   5    -0.230708517690E+04    0.66120E-03   -0.12615E-03  5061   0.203E-02    0.106E-01
RMM:   6    -0.230708502613E+04    0.15077E-03   -0.77340E-04  5211   0.172E-02    0.723E-02
RMM:   7    -0.230708503898E+04   -0.12849E-04   -0.15077E-04  3329   0.879E-03    0.588E-02
RMM:   8    -0.230708503428E+04    0.47036E-05   -0.46460E-05  2996   0.544E-03
   4 F= -.23278285E+04 E0= -.23278276E+04  d E =-.220497E-01  mag=     5.9573
       N       E                     dE             d eps       ncg     rms          rms(c)
DAV:   1    -0.230705897281E+04    0.26066E-01   -0.23215E+00  4544   0.143E+00    0.551E-01
RMM:   2    -0.230709117667E+04   -0.32204E-01   -0.34541E-01  6159   0.317E-01    0.374E-01
RMM:   3    -0.230709403565E+04   -0.28590E-02   -0.32204E-02  5784   0.122E-01    0.490E-01
RMM:   4    -0.230709207193E+04    0.19637E-02   -0.39988E-03  5917   0.319E-02    0.163E-01
RMM:   5    -0.230709165340E+04    0.41853E-03   -0.10590E-03  5070   0.184E-02    0.873E-02
RMM:   6    -0.230709155240E+04    0.10100E-03   -0.50999E-04  5064   0.148E-02    0.443E-02
RMM:   7    -0.230709156466E+04   -0.12261E-04   -0.10809E-04  3381   0.810E-03    0.568E-02
RMM:   8    -0.230709153674E+04    0.27922E-04   -0.30511E-05  2947   0.481E-03    0.170E-02
RMM:   9    -0.230709153911E+04   -0.23689E-05   -0.15491E-05  2931   0.320E-03
   5 F= -.23278352E+04 E0= -.23278348E+04  d E =-.287484E-01  mag=     5.9830
       N       E                     dE             d eps       ncg     rms          rms(c)
DAV:   1    -0.230708798863E+04    0.35481E-02   -0.11634E+00  4592   0.859E-01    0.306E-01
RMM:   2    -0.230710279853E+04   -0.14810E-01   -0.15865E-01  6348   0.192E-01    0.211E-01
RMM:   3    -0.230710421802E+04   -0.14195E-02   -0.15878E-02  5546   0.708E-02    0.245E-01
RMM:   4    -0.230710384293E+04    0.37509E-03   -0.18952E-03  3936   0.171E-02    0.104E-01
RMM:   5    -0.230710370311E+04    0.13981E-03   -0.22115E-04  3622   0.904E-03    0.579E-02
RMM:   6    -0.230710367109E+04    0.32022E-04   -0.18322E-04  3969   0.859E-03    0.245E-02
RMM:   7    -0.230710367523E+04   -0.41358E-05   -0.28832E-05  2922   0.548E-03
   6 F= -.23278477E+04 E0= -.23278474E+04  d E =-.124805E-01  mag=     5.9902
       N       E                     dE             d eps       ncg     rms          rms(c)
DAV:   1    -0.230697867735E+04    0.12499E+00   -0.10467E+01  4504   0.258E+00    0.920E-01
RMM:   2    -0.230711521538E+04   -0.13654E+00   -0.14516E+00  6381   0.580E-01    0.728E-01
RMM:   3    -0.230712609519E+04   -0.10880E-01   -0.14392E-01  6084   0.212E-01    0.735E-01
RMM:   4    -0.230712237320E+04    0.37220E-02   -0.17031E-02  6120   0.513E-02    0.304E-01
RMM:   5    -0.230712121381E+04    0.11594E-02   -0.21592E-03  5223   0.235E-02    0.184E-01
RMM:   6    -0.230712081196E+04    0.40185E-03   -0.18103E-03  5252   0.224E-02    0.861E-02
RMM:   7    -0.230712084527E+04   -0.33318E-04   -0.37971E-04  4245   0.139E-02    0.105E-01
RMM:   8    -0.230712074327E+04    0.10201E-03   -0.10802E-04  3128   0.647E-03    0.327E-02
RMM:   9    -0.230712073112E+04    0.12150E-04   -0.35852E-05  2958   0.450E-03    0.186E-02
RMM:  10    -0.230712072859E+04    0.25259E-05   -0.13927E-05  2903   0.353E-03
   7 F= -.23278658E+04 E0= -.23278656E+04  d E =-.305640E-01  mag=     5.9960
       N       E                     dE             d eps       ncg     rms          rms(c)
DAV:   1    -0.230711861643E+04    0.21147E-02   -0.16392E-01  4800   0.323E-01    0.115E-01
RMM:   2    -0.230712071095E+04   -0.20945E-02   -0.22575E-02  6374   0.732E-02    0.782E-02
RMM:   3    -0.230712090859E+04   -0.19764E-03   -0.22057E-03  3742   0.254E-02    0.917E-02
RMM:   4    -0.230712085342E+04    0.55170E-04   -0.27163E-04  3066   0.749E-03    0.365E-02
RMM:   5    -0.230712083559E+04    0.17833E-04   -0.30954E-05  2922   0.389E-03    0.223E-02
RMM:   6    -0.230712083741E+04   -0.18220E-05   -0.30604E-05  2987   0.391E-03
   8 F= -.23278660E+04 E0= -.23278658E+04  d E =-.308013E-01  mag=     5.9967
       N       E                     dE             d eps       ncg     rms          rms(c)
DAV:   1    -0.230712117364E+04   -0.33805E-03   -0.42734E-01  4544   0.626E-01    0.246E-01
RMM:   2    -0.230712703170E+04   -0.58581E-02   -0.60779E-02  6231   0.142E-01    0.199E-01
RMM:   3    -0.230712737827E+04   -0.34657E-03   -0.57665E-03  5461   0.511E-02    0.192E-01
RMM:   4    -0.230712701188E+04    0.36639E-03   -0.69113E-04  4172   0.145E-02    0.544E-02
RMM:   5    -0.230712698904E+04    0.22838E-04   -0.16074E-04  3666   0.893E-03    0.481E-02
RMM:   6    -0.230712698694E+04    0.20996E-05   -0.85485E-05  3086   0.728E-03
   9 F= -.23278723E+04 E0= -.23278721E+04  d E =-.630288E-02  mag=     5.9968
       N       E                     dE             d eps       ncg     rms          rms(c)
DAV:   1    -0.230709027575E+04    0.36713E-01   -0.31032E+00  4496   0.169E+00    0.665E-01
RMM:   2    -0.230713373069E+04   -0.43455E-01   -0.45188E-01  6220   0.392E-01    0.533E-01
RMM:   3    -0.230713570085E+04   -0.19702E-02   -0.40368E-02  5851   0.134E-01    0.503E-01
RMM:   4    -0.230713318288E+04    0.25180E-02   -0.47921E-03  5734   0.380E-02    0.155E-01
RMM:   5    -0.230713311144E+04    0.71442E-04   -0.11884E-03  5188   0.209E-02    0.168E-01
RMM:   6    -0.230713292804E+04    0.18340E-03   -0.64983E-04  5097   0.154E-02    0.110E-01
RMM:   7    -0.230713281072E+04    0.11732E-03   -0.19042E-04  4360   0.110E-02    0.269E-02
RMM:   8    -0.230713280634E+04    0.43782E-05   -0.36928E-05  3059   0.662E-03
  10 F= -.23278785E+04 E0= -.23278782E+04  d E =-.125122E-01  mag=     5.9956
       N       E                     dE             d eps       ncg     rms          rms(c)
DAV:   1    -0.230713301238E+04   -0.20166E-03   -0.20558E-01  4720   0.367E-01    0.148E-01
RMM:   2    -0.230713630449E+04   -0.32921E-02   -0.33820E-02  6476   0.930E-02    0.144E-01
RMM:   3    -0.230713643383E+04   -0.12934E-03   -0.31776E-03  4196   0.315E-02    0.104E-01
RMM:   4    -0.230713635259E+04    0.81242E-04   -0.35975E-04  3161   0.922E-03    0.386E-02
RMM:   5    -0.230713634817E+04    0.44202E-05   -0.49899E-05  2966   0.482E-03
  11 F= -.23278823E+04 E0= -.23278820E+04  d E =-.374512E-02  mag=     5.9953
       N       E                     dE             d eps       ncg     rms          rms(c)
DAV:   1    -0.230711467236E+04    0.21680E-01   -0.18456E+00  4512   0.110E+00    0.435E-01
RMM:   2    -0.230714435293E+04   -0.29681E-01   -0.30405E-01  6462   0.280E-01    0.426E-01
RMM:   3    -0.230714544988E+04   -0.10969E-02   -0.29439E-02  5920   0.957E-02    0.301E-01
RMM:   4    -0.230714474230E+04    0.70758E-03   -0.30435E-03  5098   0.243E-02    0.116E-01
RMM:   5    -0.230714459078E+04    0.15153E-03   -0.36241E-04  4128   0.118E-02    0.711E-02
RMM:   6    -0.230714462797E+04   -0.37199E-04   -0.26266E-04  3801   0.107E-02    0.102E-01
RMM:   7    -0.230714453610E+04    0.91876E-04   -0.10684E-04  3214   0.776E-03    0.258E-02
RMM:   8    -0.230714453076E+04    0.53425E-05   -0.21616E-05  2968   0.474E-03
  12 F= -.23278910E+04 E0= -.23278906E+04  d E =-.125242E-01  mag=     5.9934
       N       E                     dE             d eps       ncg     rms          rms(c)
DAV:   1    -0.230703010468E+04    0.11443E+00   -0.73877E+00  4472   0.221E+00    0.883E-01
RMM:   2    -0.230715007923E+04   -0.11997E+00   -0.12281E+00  6459   0.572E-01    0.873E-01
RMM:   3    -0.230715383820E+04   -0.37590E-02   -0.11989E-01  6071   0.194E-01    0.616E-01
RMM:   4    -0.230715081044E+04    0.30278E-02   -0.12345E-02  5922   0.489E-02    0.235E-01
RMM:   5    -0.230715062377E+04    0.18667E-03   -0.17316E-03  5137   0.216E-02    0.236E-01
RMM:   6    -0.230715023511E+04    0.38865E-03   -0.98145E-04  5200   0.172E-02    0.162E-01
RMM:   7    -0.230714999573E+04    0.23938E-03   -0.42435E-04  4551   0.135E-02    0.449E-02
RMM:   8    -0.230714998741E+04    0.83246E-05   -0.89680E-05  3390   0.837E-03
  13 F= -.23278976E+04 E0= -.23278966E+04  d E =-.191134E-01  mag=     5.9842
       N       E                     dE             d eps       ncg     rms          rms(c)
DAV:   1    -0.230714223468E+04    0.77610E-02   -0.14671E+00  4496   0.948E-01    0.351E-01
RMM:   2    -0.230715887553E+04   -0.16641E-01   -0.17629E-01  6414   0.221E-01    0.233E-01
RMM:   3    -0.230716041463E+04   -0.15391E-02   -0.18033E-02  5765   0.756E-02    0.246E-01
RMM:   4    -0.230715989754E+04    0.51709E-03   -0.20798E-03  4692   0.204E-02    0.936E-02
RMM:   5    -0.230715981515E+04    0.82393E-04   -0.26701E-04  3658   0.110E-02    0.555E-02
RMM:   6    -0.230715985802E+04   -0.42871E-04   -0.17456E-04  3463   0.909E-03    0.891E-02
RMM:   7    -0.230715978834E+04    0.69679E-04   -0.67396E-05  3009   0.691E-03    0.168E-02
RMM:   8    -0.230715978862E+04   -0.27925E-06   -0.16452E-05  2951   0.399E-03
  14 F= -.23279080E+04 E0= -.23279069E+04  d E =-.104198E-01  mag=     5.9775
       N       E                     dE             d eps       ncg     rms          rms(c)
DAV:   1    -0.230704851970E+04    0.11127E+00   -0.99603E+00  4464   0.246E+00    0.914E-01
RMM:   2    -0.230716334149E+04   -0.11482E+00   -0.12121E+00  6383   0.571E-01    0.627E-01
RMM:   3    -0.230717418711E+04   -0.10846E-01   -0.12785E-01  5988   0.199E-01    0.691E-01
RMM:   4    -0.230716985542E+04    0.43317E-02   -0.13627E-02  6199   0.525E-02    0.247E-01
RMM:   5    -0.230716928037E+04    0.57505E-03   -0.18990E-03  4868   0.248E-02    0.149E-01
RMM:   6    -0.230716952268E+04   -0.24231E-03   -0.12307E-03  5415   0.202E-02    0.233E-01
RMM:   7    -0.230716904439E+04    0.47829E-03   -0.49648E-04  4503   0.134E-02    0.533E-02
RMM:   8    -0.230716903075E+04    0.13632E-04   -0.11489E-04  3300   0.675E-03    0.286E-02
RMM:   9    -0.230716902919E+04    0.15663E-05   -0.31806E-05  2949   0.529E-03
  15 F= -.23279189E+04 E0= -.23279171E+04  d E =-.212346E-01  mag=     5.9653
       N       E                     dE             d eps       ncg     rms          rms(c)
DAV:   1    -0.230714259588E+04    0.26435E-01   -0.32542E+00  4464   0.145E+00    0.529E-01
RMM:   2    -0.230717660971E+04   -0.34014E-01   -0.36687E-01  6219   0.320E-01    0.234E-01
RMM:   3    -0.230717959342E+04   -0.29837E-02   -0.39195E-02  5491   0.121E-01    0.200E-01
RMM:   4    -0.230717965226E+04   -0.58838E-04   -0.41852E-03  5097   0.263E-02    0.170E-01
RMM:   5    -0.230717938768E+04    0.26458E-03   -0.52032E-04  4416   0.145E-02    0.946E-02
RMM:   6    -0.230717942293E+04   -0.35251E-04   -0.39263E-04  4649   0.121E-02    0.120E-01
RMM:   7    -0.230717929132E+04    0.13160E-03   -0.16684E-04  3314   0.888E-03    0.303E-02
RMM:   8    -0.230717928621E+04    0.51115E-05   -0.36196E-05  3048   0.521E-03
  16 F= -.23279297E+04 E0= -.23279274E+04  d E =-.108750E-01  mag=     5.9505
       N       E                     dE             d eps       ncg     rms          rms(c)
DAV:   1    -0.230707980387E+04    0.99487E-01   -0.90055E+00  4448   0.241E+00    0.882E-01
RMM:   2    -0.230717489945E+04   -0.95096E-01   -0.10248E+00  6218   0.535E-01    0.399E-01
RMM:   3    -0.230718330738E+04   -0.84079E-02   -0.10931E-01  5557   0.199E-01    0.391E-01
RMM:   4    -0.230718306535E+04    0.24203E-03   -0.11127E-02  5768   0.443E-02    0.298E-01
RMM:   5    -0.230718229466E+04    0.77069E-03   -0.14087E-03  5119   0.223E-02    0.160E-01
RMM:   6    -0.230718238483E+04   -0.90173E-04   -0.11688E-03  5402   0.193E-02    0.209E-01
RMM:   7    -0.230718198018E+04    0.40465E-03   -0.54388E-04  4779   0.144E-02    0.631E-02
RMM:   8    -0.230718195763E+04    0.22548E-04   -0.12602E-04  3483   0.745E-03    0.368E-02
RMM:   9    -0.230718196486E+04   -0.72269E-05   -0.35278E-05  2966   0.561E-03
  17 F= -.23279334E+04 E0= -.23279290E+04  d E =-.145467E-01  mag=     5.9017
       N       E                     dE             d eps       ncg     rms          rms(c)
DAV:   1    -0.230717462619E+04    0.73314E-02   -0.74758E-01  4544   0.695E-01    0.251E-01
RMM:   2    -0.230718241854E+04   -0.77923E-02   -0.83627E-02  6242   0.153E-01    0.108E-01
RMM:   3    -0.230718306377E+04   -0.64524E-03   -0.84608E-03  5282   0.565E-02    0.702E-02
RMM:   4    -0.230718311880E+04   -0.55026E-04   -0.87801E-04  3486   0.123E-02    0.731E-02
RMM:   5    -0.230718308841E+04    0.30390E-04   -0.12465E-04  3113   0.825E-03    0.477E-02
RMM:   6    -0.230718308166E+04    0.67467E-05   -0.67023E-05  3374   0.682E-03
  18 F= -.23279342E+04 E0= -.23279305E+04  d E =-.153824E-01  mag=     5.8958
       N       E                     dE             d eps       ncg     rms          rms(c)
DAV:   1    -0.230715478994E+04    0.28298E-01   -0.29809E+00  4464   0.129E+00    0.503E-01
RMM:   2    -0.230719111828E+04   -0.36328E-01   -0.38726E-01  6375   0.307E-01    0.258E-01
RMM:   3    -0.230719425863E+04   -0.31404E-02   -0.39790E-02  5470   0.111E-01    0.208E-01
RMM:   4    -0.230719449985E+04   -0.24122E-03   -0.42404E-03  4566   0.236E-02    0.269E-01
RMM:   5    -0.230719439348E+04    0.10637E-03   -0.13343E-04  3013   0.726E-03    0.246E-01
RMM:   6    -0.230719439489E+04   -0.14046E-05   -0.20831E-05  2952   0.363E-03
  19 F= -.23279461E+04 E0= -.23279383E+04  d E =-.119045E-01  mag=     5.8854
       N       E                     dE             d eps       ncg     rms          rms(c)
DAV:   1    -0.230684688099E+04    0.34751E+00   -0.26699E+01  4448   0.389E+00    0.171E+00
RMM:   2    -0.230719446449E+04   -0.34758E+00   -0.35730E+00  6402   0.943E-01    0.210E+00
RMM:   3    -0.230723393383E+04   -0.39469E-01   -0.37093E-01  5438   0.328E-01    0.311E+00
RMM:   4    -0.230727053995E+04   -0.36606E-01   -0.73089E-02  5675   0.116E-01    0.379E+00
RMM:   5    -0.230722250456E+04    0.48035E-01   -0.52551E-02  5308   0.109E-01    0.141E+00
RMM:   6    -0.230720630809E+04    0.16196E-01   -0.29110E-02  5937   0.805E-02    0.982E-01
RMM:   7    -0.230719963585E+04    0.66722E-02   -0.69125E-03  5217   0.410E-02    0.756E-01
RMM:   8    -0.230719187660E+04    0.77592E-02   -0.75288E-03  5084   0.424E-02    0.849E-01
RMM:   9    -0.230717564885E+04    0.16228E-01   -0.64172E-03  4623   0.456E-02    0.125E+00
RMM:  10    -0.230717569864E+04   -0.49790E-04   -0.47775E-04  4013   0.188E-02    0.124E+00
RMM:  11    -0.230716880464E+04    0.68940E-02   -0.10223E-03  4657   0.170E-02    0.139E+00
RMM:  12    -0.230718034708E+04   -0.11542E-01   -0.21882E-03  4768   0.271E-02    0.115E+00
RMM:  13    -0.230719719050E+04   -0.16843E-01   -0.10674E-02  4928   0.607E-02    0.982E-01
RMM:  14    -0.230721411957E+04   -0.16929E-01   -0.19091E-02  5404   0.786E-02    0.182E+00
RMM:  15    -0.230720554663E+04    0.85729E-02   -0.20134E-03  4905   0.332E-02    0.118E+00
RMM:  16    -0.230720333226E+04    0.22144E-02   -0.17322E-03  5041   0.295E-02    0.106E+00
RMM:  17    -0.230719321558E+04    0.10117E-01   -0.11258E-02  5447   0.631E-02    0.889E-01
RMM:  18    -0.230718526487E+04    0.79507E-02   -0.65989E-03  5266   0.485E-02    0.116E+00
RMM:  19    -0.230717238793E+04    0.12877E-01   -0.66061E-03  5529   0.454E-02    0.156E+00
RMM:  20    -0.230718598180E+04   -0.13594E-01   -0.37787E-03  5189   0.394E-02    0.113E+00
RMM:  21    -0.230719857354E+04   -0.12592E-01   -0.13358E-02  5191   0.672E-02    0.810E-01
RMM:  22    -0.230721531091E+04   -0.16737E-01   -0.23213E-02  5366   0.869E-02    0.194E+00
RMM:  23    -0.230722032295E+04   -0.50120E-02   -0.43106E-03  5410   0.422E-02    0.232E+00
RMM:  24    -0.230721997088E+04    0.35207E-03   -0.46946E-04  3904   0.123E-02    0.231E+00
RMM:  25    -0.230721793058E+04    0.20403E-02   -0.67147E-05  3083   0.811E-03    0.217E+00
RMM:  26    -0.230721127620E+04    0.66544E-02   -0.11708E-03  4893   0.209E-02    0.166E+00
RMM:  27    -0.230720456110E+04    0.67151E-02   -0.32197E-03  5506   0.351E-02    0.110E+00
RMM:  28    -0.230720067228E+04    0.38888E-02   -0.34086E-03  5215   0.350E-02    0.823E-01
RMM:  29    -0.230720031678E+04    0.35550E-03   -0.66321E-04  4748   0.184E-02    0.792E-01
RMM:  30    -0.230719993304E+04    0.38373E-03   -0.18124E-04  4191   0.976E-03    0.766E-01
RMM:  31    -0.230719938372E+04    0.54933E-03   -0.14335E-04  4010   0.113E-02    0.740E-01
RMM:  32    -0.230719915915E+04    0.22457E-03   -0.95248E-05  3770   0.837E-03    0.727E-01
RMM:  33    -0.230719917716E+04   -0.18010E-04   -0.25838E-05  2933   0.654E-03    0.722E-01
RMM:  34    -0.230719919854E+04   -0.21384E-04   -0.83881E-06  2861   0.335E-03    0.721E-01
RMM:  35    -0.230719876873E+04    0.42981E-03   -0.50560E-05  3029   0.442E-03    0.723E-01
RMM:  36    -0.230719802380E+04    0.74493E-03   -0.13415E-04  3316   0.602E-03    0.734E-01
RMM:  37    -0.230719685589E+04    0.11679E-02   -0.24807E-04  3607   0.878E-03    0.757E-01
RMM:  38    -0.230719540204E+04    0.14538E-02   -0.36639E-04  4027   0.108E-02    0.804E-01
RMM:  39    -0.230719381503E+04    0.15870E-02   -0.33740E-04  3665   0.104E-02    0.869E-01
RMM:  40    -0.230719367234E+04    0.14269E-03   -0.30919E-05  2979   0.506E-03    0.875E-01
RMM:  41    -0.230719371671E+04   -0.44372E-04   -0.34028E-06  2764   0.253E-03    0.874E-01
RMM:  42    -0.230719392925E+04   -0.21254E-03   -0.52292E-06  2687   0.205E-03    0.865E-01
RMM:  43    -0.230719392645E+04    0.28027E-05   -0.56588E-07  2270   0.106E-03
  20 F= -.23279474E+04 E0= -.23279464E+04  d E =-.131449E-01  mag=     6.2756
       N       E                     dE             d eps       ncg     rms          rms(c)
DAV:   1    -0.230714888028E+04    0.45049E-01   -0.39511E+00  4464   0.143E+00    0.105E+00
RMM:   2    -0.230721018849E+04   -0.61308E-01   -0.55371E-01  6382   0.359E-01    0.111E+00
RMM:   3    -0.230721269379E+04   -0.25053E-02   -0.60644E-02  5858   0.133E-01    0.150E+00
RMM:   4    -0.230720944320E+04    0.32506E-02   -0.82525E-03  4784   0.329E-02    0.145E+00
RMM:   5    -0.230720759696E+04    0.18462E-02   -0.32502E-02  4828   0.796E-02    0.127E+00
RMM:   6    -0.230718783390E+04    0.19763E-01   -0.21467E-02  5174   0.691E-02    0.167E+00
RMM:   7    -0.230718833271E+04   -0.49881E-03   -0.20667E-03  4419   0.166E-02    0.166E+00
RMM:   8    -0.230718400510E+04    0.43276E-02   -0.85723E-04  4336   0.144E-02    0.165E+00
RMM:   9    -0.230719054109E+04   -0.65360E-02   -0.59195E-04  4164   0.136E-02    0.154E+00
RMM:  10    -0.230720272860E+04   -0.12188E-01   -0.47844E-03  4950   0.373E-02    0.148E+00
RMM:  11    -0.230719123734E+04    0.11491E-01   -0.55043E-03  5236   0.439E-02    0.135E+00
RMM:  12    -0.230718970295E+04    0.15344E-02   -0.67331E-02  5260   0.139E-01    0.146E+00
RMM:  13    -0.230719423670E+04   -0.45337E-02   -0.22644E-02  5214   0.812E-02    0.177E+00
RMM:  14    -0.230719868113E+04   -0.44444E-02   -0.20400E-03  5050   0.241E-02    0.166E+00
RMM:  15    -0.230720810770E+04   -0.94266E-02   -0.96349E-03  5106   0.525E-02    0.115E+00
RMM:  16    -0.230720756834E+04    0.53936E-03   -0.44989E-03  4963   0.363E-02    0.904E-01
RMM:  17    -0.230720697105E+04    0.59729E-03   -0.41369E-03  5282   0.327E-02    0.664E-01
RMM:  18    -0.230720734392E+04   -0.37287E-03   -0.63717E-03  5261   0.422E-02    0.402E-01
RMM:  19    -0.230720800988E+04   -0.66597E-03   -0.88748E-04  4174   0.137E-02    0.394E-01
RMM:  20    -0.230720860929E+04   -0.59941E-03   -0.12064E-04  3125   0.637E-03    0.396E-01
RMM:  21    -0.230720999610E+04   -0.13868E-02   -0.34342E-04  3893   0.874E-03    0.400E-01
RMM:  22    -0.230721176569E+04   -0.17696E-02   -0.61132E-04  3950   0.120E-02    0.429E-01
RMM:  23    -0.230721211355E+04   -0.34786E-03   -0.96602E-05  3058   0.653E-03    0.429E-01
RMM:  24    -0.230721210974E+04    0.38048E-05   -0.15996E-05  2731   0.277E-03
  21 F= -.23279661E+04 E0= -.23279582E+04  d E =-.186833E-01  mag=     5.8409
       N       E                     dE             d eps       ncg     rms          rms(c)
DAV:   1    -0.230679701072E+04    0.41510E+00   -0.30706E+01  4464   0.400E+00    0.177E+00
RMM:   2    -0.230721665047E+04   -0.41964E+00   -0.42466E+00  6452   0.978E-01    0.259E+00
RMM:   3    -0.230725707012E+04   -0.40420E-01   -0.40053E-01  5642   0.331E-01    0.314E+00
RMM:   4    -0.230726546469E+04   -0.83946E-02   -0.58178E-02  5861   0.914E-02    0.296E+00
RMM:   5    -0.230723992945E+04    0.25535E-01   -0.89095E-02  5349   0.131E-01    0.243E+00
RMM:   6    -0.230721757978E+04    0.22350E-01   -0.24253E-02  5506   0.704E-02    0.111E+00
RMM:   7    -0.230720851176E+04    0.90680E-02   -0.97224E-03  5559   0.489E-02    0.104E+00
RMM:   8    -0.230719777643E+04    0.10735E-01   -0.88145E-03  5138   0.419E-02    0.113E+00
RMM:   9    -0.230717359002E+04    0.24186E-01   -0.83497E-03  4712   0.477E-02    0.160E+00
RMM:  10    -0.230718848180E+04   -0.14892E-01   -0.22063E-03  4357   0.273E-02    0.126E+00
RMM:  11    -0.230721094415E+04   -0.22462E-01   -0.15543E-02  4752   0.588E-02    0.766E-01
RMM:  12    -0.230722267514E+04   -0.11731E-01   -0.15122E-02  4810   0.586E-02    0.108E+00
RMM:  13    -0.230723481928E+04   -0.12144E-01   -0.92944E-03  4995   0.448E-02    0.196E+00
RMM:  14    -0.230722521129E+04    0.96080E-02   -0.25440E-03  4309   0.286E-02    0.123E+00
RMM:  15    -0.230722402072E+04    0.11906E-02   -0.58094E-04  3603   0.132E-02    0.124E+00
RMM:  16    -0.230721704065E+04    0.69801E-02   -0.43834E-03  4749   0.282E-02    0.759E-01
RMM:  17    -0.230721384588E+04    0.31948E-02   -0.23482E-03  4331   0.234E-02    0.719E-01
RMM:  18    -0.230721115772E+04    0.26882E-02   -0.17600E-03  4656   0.177E-02    0.770E-01
RMM:  19    -0.230720839198E+04    0.27657E-02   -0.10472E-03  4149   0.150E-02    0.872E-01
RMM:  20    -0.230720933927E+04   -0.94728E-03   -0.63668E-05  2962   0.591E-03    0.837E-01
RMM:  21    -0.230721186568E+04   -0.25264E-02   -0.70437E-04  3895   0.118E-02    0.746E-01
RMM:  22    -0.230721812737E+04   -0.62617E-02   -0.49807E-03  4740   0.306E-02    0.823E-01
RMM:  23    -0.230722087299E+04   -0.27456E-02   -0.16071E-03  4212   0.187E-02    0.975E-01
RMM:  24    -0.230722258007E+04   -0.17071E-02   -0.57739E-04  3793   0.987E-03    0.109E+00
RMM:  25    -0.230722203068E+04    0.54938E-03   -0.35323E-05  2847   0.562E-03    0.105E+00
RMM:  26    -0.230721687605E+04    0.51546E-02   -0.21420E-03  4365   0.200E-02    0.739E-01
RMM:  27    -0.230721197726E+04    0.48988E-02   -0.38192E-03  4607   0.271E-02    0.720E-01
RMM:  28    -0.230720917754E+04    0.27997E-02   -0.18828E-03  4361   0.182E-02    0.828E-01
RMM:  29    -0.230720994356E+04   -0.76602E-03   -0.75182E-05  2970   0.589E-03    0.800E-01
RMM:  30    -0.230721163969E+04   -0.16961E-02   -0.30250E-04  3356   0.828E-03    0.739E-01
RMM:  31    -0.230721810951E+04   -0.64698E-02   -0.52833E-03  4725   0.311E-02    0.806E-01
RMM:  32    -0.230722750913E+04   -0.93996E-02   -0.68023E-03  4722   0.358E-02    0.145E+00
RMM:  33    -0.230724159628E+04   -0.14087E-01   -0.65861E-03  5082   0.349E-02    0.226E+00
RMM:  34    -0.230724652492E+04   -0.49286E-02   -0.14388E-03  4231   0.203E-02    0.244E+00
RMM:  35    -0.230724477339E+04    0.17515E-02   -0.19145E-04  3082   0.839E-03    0.238E+00
RMM:  36    -0.230724664546E+04   -0.18721E-02   -0.63134E-05  3046   0.471E-03    0.247E+00
RMM:  37    -0.230724874665E+04   -0.21012E-02   -0.74768E-05  3092   0.475E-03    0.254E+00
RMM:  38    -0.230724870480E+04    0.41847E-04   -0.11507E-05  2726   0.314E-03    0.254E+00
RMM:  39    -0.230724392383E+04    0.47810E-02   -0.24368E-04  3196   0.686E-03    0.235E+00
RMM:  40    -0.230724351285E+04    0.41098E-03   -0.40930E-05  2650   0.436E-03    0.235E+00
RMM:  41    -0.230724523862E+04   -0.17258E-02   -0.30399E-05  2696   0.290E-03    0.241E+00
RMM:  42    -0.230724524890E+04   -0.10282E-04   -0.30460E-06  2183   0.146E-03    0.241E+00
RMM:  43    -0.230724553123E+04   -0.28233E-03   -0.22981E-06  1744   0.960E-04    0.242E+00
RMM:  44    -0.230724519423E+04    0.33700E-03   -0.11349E-06  1645   0.954E-04    0.241E+00
RMM:  45    -0.230724492304E+04    0.27119E-03   -0.13686E-06  1336   0.808E-04    0.240E+00
RMM:  46    -0.230724126966E+04    0.36534E-02   -0.17219E-04  3223   0.571E-03    0.223E+00
RMM:  47    -0.230723662029E+04    0.46494E-02   -0.41222E-04  3727   0.863E-03    0.200E+00
RMM:  48    -0.230722868536E+04    0.79349E-02   -0.16771E-03  4459   0.171E-02    0.151E+00
RMM:  49    -0.230722261252E+04    0.60728E-02   -0.21286E-03  4428   0.208E-02    0.109E+00
RMM:  50    -0.230721886425E+04    0.37483E-02   -0.18765E-03  4461   0.191E-02    0.841E-01
RMM:  51    -0.230721400114E+04    0.48631E-02   -0.36411E-03  4766   0.258E-02    0.689E-01
RMM:  52    -0.230721034877E+04    0.36524E-02   -0.25965E-03  4498   0.229E-02    0.778E-01
RMM:  53    -0.230720669803E+04    0.36507E-02   -0.19023E-03  4556   0.187E-02    0.946E-01
RMM:  54    -0.230720334217E+04    0.33559E-02   -0.10227E-03  4169   0.147E-02    0.111E+00
RMM:  55    -0.230720204210E+04    0.13001E-02   -0.20905E-04  3321   0.758E-03    0.117E+00
RMM:  56    -0.230720282496E+04   -0.78286E-03   -0.24266E-05  2838   0.409E-03    0.114E+00
RMM:  57    -0.230720485435E+04   -0.20294E-02   -0.22303E-04  3191   0.651E-03    0.104E+00
RMM:  58    -0.230720707316E+04   -0.22188E-02   -0.37648E-04  3525   0.851E-03    0.932E-01
RMM:  59    -0.230720868069E+04   -0.16075E-02   -0.30086E-04  3335   0.724E-03    0.859E-01
RMM:  60    -0.230721208434E+04   -0.34036E-02   -0.12375E-03  4333   0.150E-02    0.738E-01
RMM:  61    -0.230721489152E+04   -0.28072E-02   -0.12533E-03  4148   0.158E-02    0.722E-01
RMM:  62    -0.230721644444E+04   -0.15529E-02   -0.58315E-04  3725   0.106E-02    0.757E-01
RMM:  63    -0.230721616717E+04    0.27727E-03   -0.25388E-05  2862   0.463E-03    0.746E-01
RMM:  64    -0.230721645828E+04   -0.29111E-03   -0.16860E-05  2705   0.255E-03    0.758E-01
RMM:  65    -0.230721683383E+04   -0.37555E-03   -0.23877E-05  2798   0.292E-03    0.770E-01
RMM:  66    -0.230721661312E+04    0.22071E-03   -0.47127E-06  2415   0.187E-03    0.761E-01
RMM:  67    -0.230721619561E+04    0.41751E-03   -0.24924E-05  2597   0.228E-03    0.750E-01
RMM:  68    -0.230721507807E+04    0.11175E-02   -0.17452E-04  3128   0.559E-03    0.727E-01
RMM:  69    -0.230721330297E+04    0.17751E-02   -0.50542E-04  3753   0.923E-03    0.727E-01
RMM:  70    -0.230721012509E+04    0.31779E-02   -0.13786E-03  4304   0.154E-02    0.814E-01
RMM:  71    -0.230720792767E+04    0.21974E-02   -0.71080E-04  3786   0.119E-02    0.911E-01
RMM:  72    -0.230720739447E+04    0.53320E-03   -0.11474E-04  3047   0.525E-03    0.938E-01
RMM:  73    -0.230720870326E+04   -0.13088E-02   -0.11302E-04  2959   0.547E-03    0.879E-01
RMM:  74    -0.230721203870E+04   -0.33354E-02   -0.11771E-03  4171   0.149E-02    0.760E-01
RMM:  75    -0.230721603677E+04   -0.39981E-02   -0.23381E-03  4384   0.211E-02    0.763E-01
RMM:  76    -0.230721767628E+04   -0.16395E-02   -0.69674E-04  3865   0.120E-02    0.820E-01
RMM:  77    -0.230722137512E+04   -0.36988E-02   -0.14051E-03  4496   0.157E-02    0.105E+00
RMM:  78    -0.230722375270E+04   -0.23776E-02   -0.59116E-04  3738   0.119E-02    0.122E+00
RMM:  79    -0.230722424000E+04   -0.48730E-03   -0.11871E-04  3078   0.634E-03    0.126E+00
RMM:  80    -0.230722190004E+04    0.23400E-02   -0.23755E-04  3192   0.777E-03    0.109E+00
RMM:  81    -0.230721985828E+04    0.20418E-02   -0.39291E-04  3575   0.875E-03    0.953E-01
RMM:  82    -0.230721960703E+04    0.25125E-03   -0.64044E-05  2837   0.470E-03    0.939E-01
RMM:  83    -0.230721990770E+04   -0.30066E-03   -0.73033E-06  2558   0.228E-03    0.955E-01
RMM:  84    -0.230721990258E+04    0.51195E-05   -0.73395E-07  1704   0.110E-03
  22 F= -.23279752E+04 E0= -.23279651E+04  d E =-.277660E-01  mag=     5.9308
       N       E                     dE             d eps       ncg     rms          rms(c)
DAV:   1    -0.230710652328E+04    0.11338E+00   -0.81074E+00  4464   0.210E+00    0.149E+00
RMM:   2    -0.230726224973E+04   -0.15573E+00   -0.13294E+00  6391   0.545E-01    0.283E+00
RMM:   3    -0.230726946847E+04   -0.72187E-02   -0.13272E-01  5971   0.192E-01    0.282E+00
RMM:   4    -0.230726802648E+04    0.14420E-02   -0.21857E-02  5554   0.598E-02    0.255E+00
RMM:   5    -0.230725911184E+04    0.89146E-02   -0.25152E-02  5823   0.707E-02    0.236E+00
RMM:   6    -0.230722447762E+04    0.34634E-01   -0.54331E-02  5134   0.100E-01    0.123E+00
RMM:   7    -0.230721951994E+04    0.49577E-02   -0.16202E-02  4964   0.678E-02    0.151E+00
RMM:   8    -0.230720602979E+04    0.13490E-01   -0.89944E-03  4949   0.393E-02    0.179E+00
RMM:   9    -0.230722446839E+04   -0.18439E-01   -0.95774E-03  4519   0.503E-02    0.135E+00
RMM:  10    -0.230723388581E+04   -0.94174E-02   -0.25476E-02  4879   0.734E-02    0.108E+00
RMM:  11    -0.230724815044E+04   -0.14265E-01   -0.21512E-02  5120   0.692E-02    0.201E+00
RMM:  12    -0.230724317223E+04    0.49782E-02   -0.15467E-03  4310   0.270E-02    0.163E+00
RMM:  13    -0.230724768111E+04   -0.45089E-02   -0.15229E-03  4243   0.187E-02    0.201E+00
RMM:  14    -0.230724621384E+04    0.14673E-02   -0.16326E-04  3070   0.835E-03    0.190E+00
RMM:  15    -0.230724091599E+04    0.52978E-02   -0.17133E-03  4474   0.188E-02    0.156E+00
RMM:  16    -0.230723645989E+04    0.44561E-02   -0.16884E-03  4272   0.209E-02    0.129E+00
RMM:  17    -0.230723041588E+04    0.60440E-02   -0.42235E-03  4786   0.277E-02    0.941E-01
RMM:  18    -0.230722892611E+04    0.14898E-02   -0.90392E-04  4104   0.172E-02    0.896E-01
RMM:  19    -0.230722901834E+04   -0.92227E-04   -0.11226E-04  3109   0.608E-03    0.893E-01
RMM:  20    -0.230722904862E+04   -0.30278E-04   -0.69070E-06  2803   0.319E-03    0.893E-01
RMM:  21    -0.230722900587E+04    0.42742E-04   -0.35785E-06  2695   0.183E-03    0.884E-01
RMM:  22    -0.230722878340E+04    0.22247E-03   -0.38273E-05  2930   0.336E-03    0.848E-01
RMM:  23    -0.230722461619E+04    0.41672E-02   -0.27506E-03  4780   0.256E-02    0.686E-01
RMM:  24    -0.230722004327E+04    0.45729E-02   -0.21498E-03  4313   0.220E-02    0.855E-01
RMM:  25    -0.230721745526E+04    0.25880E-02   -0.75731E-04  4123   0.129E-02    0.971E-01
RMM:  26    -0.230722011218E+04   -0.26569E-02   -0.30131E-04  3417   0.890E-03    0.858E-01
RMM:  27    -0.230723204217E+04   -0.11930E-01   -0.10841E-02  4888   0.448E-02    0.869E-01
RMM:  28    -0.230724208980E+04   -0.10048E-01   -0.62298E-03  4609   0.361E-02    0.156E+00
RMM:  29    -0.230723751751E+04    0.45723E-02   -0.56978E-04  3491   0.166E-02    0.120E+00
RMM:  30    -0.230723585117E+04    0.16663E-02   -0.30741E-04  3242   0.844E-03    0.114E+00
RMM:  31    -0.230723176886E+04    0.40823E-02   -0.12234E-03  4345   0.148E-02    0.882E-01
RMM:  32    -0.230723029494E+04    0.14739E-02   -0.44022E-04  3509   0.107E-02    0.831E-01
RMM:  33    -0.230722674865E+04    0.35463E-02   -0.15889E-03  4471   0.166E-02    0.769E-01
RMM:  34    -0.230722441883E+04    0.23298E-02   -0.81992E-04  3922   0.134E-02    0.806E-01
RMM:  35    -0.230722325564E+04    0.11632E-02   -0.28219E-04  3412   0.808E-03    0.840E-01
RMM:  36    -0.230722356213E+04   -0.30649E-03   -0.14316E-05  2828   0.401E-03    0.832E-01
RMM:  37    -0.230722389401E+04   -0.33188E-03   -0.12005E-05  2614   0.221E-03    0.822E-01
RMM:  38    -0.230722624937E+04   -0.23554E-02   -0.54972E-04  3710   0.101E-02    0.777E-01
RMM:  39    -0.230722991768E+04   -0.36683E-02   -0.16358E-03  4380   0.171E-02    0.819E-01
RMM:  40    -0.230723526435E+04   -0.53467E-02   -0.26852E-03  4511   0.219E-02    0.110E+00
RMM:  41    -0.230723796218E+04   -0.26978E-02   -0.87506E-04  3966   0.144E-02    0.127E+00
RMM:  42    -0.230723788878E+04    0.73401E-04   -0.10881E-04  3001   0.632E-03    0.127E+00
RMM:  43    -0.230723750048E+04    0.38830E-03   -0.13739E-05  2740   0.329E-03    0.125E+00
RMM:  44    -0.230723721953E+04    0.28095E-03   -0.13397E-05  2660   0.229E-03    0.123E+00
RMM:  45    -0.230723683141E+04    0.38812E-03   -0.22527E-05  2766   0.239E-03    0.121E+00
RMM:  46    -0.230723684047E+04   -0.90620E-05   -0.46207E-05  2976   0.345E-03
  23 F= -.23279923E+04 E0= -.23279796E+04  d E =-.171107E-01  mag=     5.9088
       N       E                     dE             d eps       ncg     rms          rms(c)
DAV:   1    -0.230720079261E+04    0.36039E-01   -0.23709E+00  4456   0.114E+00    0.130E+00
RMM:   2    -0.230727027197E+04   -0.69479E-01   -0.41902E-01  6271   0.305E-01    0.295E+00
RMM:   3    -0.230728552685E+04   -0.15255E-01   -0.59906E-02  5337   0.133E-01    0.277E+00
RMM:   4    -0.230723592063E+04    0.49606E-01   -0.64848E-02  5702   0.112E-01    0.140E+00
RMM:   5    -0.230723030492E+04    0.56157E-02   -0.13919E-02  5281   0.514E-02    0.106E+00
RMM:   6    -0.230722411961E+04    0.61853E-02   -0.46080E-03  5613   0.312E-02    0.953E-01
RMM:   7    -0.230721907571E+04    0.50439E-02   -0.17215E-03  4317   0.169E-02    0.953E-01
RMM:   8    -0.230721629290E+04    0.27828E-02   -0.39714E-04  3825   0.107E-02    0.101E+00
RMM:   9    -0.230723289445E+04   -0.16602E-01   -0.86767E-03  4618   0.429E-02    0.977E-01
RMM:  10    -0.230724582883E+04   -0.12934E-01   -0.10425E-02  4714   0.468E-02    0.169E+00
RMM:  11    -0.230723807884E+04    0.77500E-02   -0.17342E-03  4048   0.253E-02    0.111E+00
RMM:  12    -0.230723967950E+04   -0.16007E-02   -0.86012E-04  4075   0.157E-02    0.131E+00
RMM:  13    -0.230723037586E+04    0.93036E-02   -0.70646E-03  4834   0.353E-02    0.884E-01
RMM:  14    -0.230722189935E+04    0.84765E-02   -0.70224E-03  4778   0.378E-02    0.109E+00
RMM:  15    -0.230721173831E+04    0.10161E-01   -0.65470E-03  4934   0.346E-02    0.151E+00
RMM:  16    -0.230722289851E+04   -0.11160E-01   -0.40182E-03  4529   0.281E-02    0.108E+00
RMM:  17    -0.230723699277E+04   -0.14094E-01   -0.19030E-02  4997   0.585E-02    0.110E+00
RMM:  18    -0.230725279635E+04   -0.15804E-01   -0.12697E-02  4916   0.488E-02    0.211E+00
RMM:  19    -0.230725442638E+04   -0.16300E-02   -0.16109E-03  4140   0.237E-02    0.216E+00
RMM:  20    -0.230725448360E+04   -0.57228E-04   -0.32188E-04  3305   0.796E-03    0.219E+00
RMM:  21    -0.230725448452E+04   -0.92010E-06   -0.12524E-05  2880   0.373E-03
  24 F= -.23280100E+04 E0= -.23279935E+04  d E =-.348262E-01  mag=     5.6629
       N       E                     dE             d eps       ncg     rms          rms(c)
DAV:   1    -0.230710428209E+04    0.15020E+00   -0.94834E+00  4464   0.227E+00    0.258E+00
RMM:   2    -0.230733965607E+04   -0.23537E+00   -0.16863E+00  6208   0.612E-01    0.365E+00
RMM:   3    -0.230730304180E+04    0.36614E-01   -0.17722E-01  5428   0.242E-01    0.314E+00
RMM:   4    -0.230725647109E+04    0.46571E-01   -0.44916E-02  5114   0.867E-02    0.216E+00
RMM:   5    -0.230726223594E+04   -0.57648E-02   -0.10036E-01  5096   0.142E-01    0.367E+00
RMM:   6    -0.230718671622E+04    0.75520E-01   -0.81686E-02  5434   0.141E-01    0.118E+00
RMM:   7    -0.230718194265E+04    0.47736E-02   -0.34586E-02  4832   0.874E-02    0.135E+00
RMM:   8    -0.230718134620E+04    0.59645E-03   -0.20370E-03  4404   0.378E-02    0.131E+00
RMM:   9    -0.230720340912E+04   -0.22063E-01   -0.30229E-03  4455   0.274E-02    0.147E+00
RMM:  10    -0.230721366618E+04   -0.10257E-01   -0.38651E-03  4618   0.277E-02    0.150E+00
RMM:  11    -0.230724892889E+04   -0.35263E-01   -0.84684E-03  4584   0.425E-02    0.202E+00
RMM:  12    -0.230724205380E+04    0.68751E-02   -0.13059E-03  4083   0.276E-02    0.158E+00
RMM:  13    -0.230728206778E+04   -0.40014E-01   -0.11075E-02  4395   0.491E-02    0.109E+00
RMM:  14    -0.230733004053E+04   -0.47973E-01   -0.22823E-02  4546   0.717E-02    0.787E-01
RMM:  15    -0.230734345117E+04   -0.13411E-01   -0.11619E-02  4643   0.561E-02    0.107E+00
RMM:  16    -0.230734448007E+04   -0.10289E-02   -0.10051E-03  4360   0.205E-02    0.972E-01
RMM:  17    -0.230735636376E+04   -0.11884E-01   -0.13377E-03  4304   0.197E-02    0.962E-01
RMM:  18    -0.230737584772E+04   -0.19484E-01   -0.68104E-03  4742   0.419E-02    0.791E-01
RMM:  19    -0.230739358627E+04   -0.17739E-01   -0.38086E-03  4321   0.334E-02    0.944E-01
RMM:  20    -0.230739960976E+04   -0.60235E-02   -0.99785E-04  4313   0.212E-02    0.102E+00
RMM:  21    -0.230740721689E+04   -0.76071E-02   -0.13831E-03  4376   0.173E-02    0.134E+00
RMM:  22    -0.230740492608E+04    0.22908E-02   -0.49023E-04  3928   0.157E-02    0.108E+00
RMM:  23    -0.230740367841E+04    0.12477E-02   -0.49755E-04  3749   0.108E-02    0.997E-01
RMM:  24    -0.230739560317E+04    0.80752E-02   -0.75998E-03  4779   0.373E-02    0.856E-01
RMM:  25    -0.230739461280E+04    0.99037E-03   -0.80769E-04  3792   0.214E-02    0.883E-01
RMM:  26    -0.230738937927E+04    0.52335E-02   -0.26974E-03  4730   0.197E-02    0.108E+00
RMM:  27    -0.230739869194E+04   -0.93127E-02   -0.43804E-03  4464   0.300E-02    0.871E-01
RMM:  28    -0.230741415935E+04   -0.15467E-01   -0.83911E-03  4633   0.398E-02    0.148E+00
RMM:  29    -0.230742038343E+04   -0.62241E-02   -0.26534E-03  4256   0.278E-02    0.176E+00
RMM:  30    -0.230741667614E+04    0.37073E-02   -0.37584E-04  3843   0.172E-02    0.145E+00
RMM:  31    -0.230741732453E+04   -0.64838E-03   -0.62641E-04  3939   0.132E-02    0.141E+00
RMM:  32    -0.230740652452E+04    0.10800E-01   -0.73300E-03  4784   0.363E-02    0.846E-01
RMM:  33    -0.230740002195E+04    0.65026E-02   -0.43785E-03  4434   0.321E-02    0.953E-01
RMM:  34    -0.230739333685E+04    0.66851E-02   -0.47099E-03  5057   0.259E-02    0.124E+00
RMM:  35    -0.230738944343E+04    0.38934E-02   -0.10673E-03  4152   0.149E-02    0.142E+00
RMM:  36    -0.230739021157E+04   -0.76814E-03   -0.10302E-04  2983   0.682E-03    0.138E+00
RMM:  37    -0.230738928715E+04    0.92442E-03   -0.54248E-05  2927   0.401E-03    0.143E+00
RMM:  38    -0.230739534270E+04   -0.60555E-02   -0.14035E-03  4106   0.159E-02    0.116E+00
RMM:  39    -0.230740560045E+04   -0.10258E-01   -0.73243E-03  4837   0.372E-02    0.881E-01
RMM:  40    -0.230742152726E+04   -0.15927E-01   -0.13589E-02  5011   0.468E-02    0.170E+00
RMM:  41    -0.230743847445E+04   -0.16947E-01   -0.78025E-03  4871   0.392E-02    0.251E+00
RMM:  42    -0.230743290944E+04    0.55650E-02   -0.72702E-04  3873   0.256E-02    0.210E+00
RMM:  43    -0.230744298391E+04   -0.10074E-01   -0.11436E-03  4358   0.152E-02    0.262E+00
RMM:  44    -0.230744216183E+04    0.82207E-03   -0.14715E-04  3145   0.109E-02    0.250E+00
RMM:  45    -0.230744303324E+04   -0.87141E-03   -0.43914E-05  2940   0.415E-03    0.256E+00
RMM:  46    -0.230744269810E+04    0.33514E-03   -0.46433E-06  2757   0.268E-03    0.254E+00
RMM:  47    -0.230744518845E+04   -0.24904E-02   -0.47462E-05  2865   0.318E-03    0.263E+00
RMM:  48    -0.230745410779E+04   -0.89193E-02   -0.56254E-04  3780   0.963E-03    0.288E+00
RMM:  49    -0.230745177818E+04    0.23296E-02   -0.65076E-05  2957   0.752E-03    0.278E+00
RMM:  50    -0.230745138297E+04    0.39521E-03   -0.77392E-06  2642   0.279E-03    0.279E+00
RMM:  51    -0.230745194152E+04   -0.55855E-03   -0.26571E-06  2208   0.124E-03    0.280E+00
RMM:  52    -0.230744989691E+04    0.20446E-02   -0.27721E-05  2806   0.264E-03    0.275E+00
RMM:  53    -0.230745093870E+04   -0.10418E-02   -0.10508E-05  2491   0.228E-03    0.279E+00
RMM:  54    -0.230745137737E+04   -0.43867E-03   -0.64085E-05  2887   0.347E-03    0.277E+00
RMM:  55    -0.230744566323E+04    0.57141E-02   -0.49753E-04  3650   0.885E-03    0.254E+00
RMM:  56    -0.230744013246E+04    0.55308E-02   -0.71826E-04  3823   0.109E-02    0.233E+00
RMM:  57    -0.230743674303E+04    0.33894E-02   -0.31088E-04  3361   0.756E-03    0.221E+00
RMM:  58    -0.230743860016E+04   -0.18571E-02   -0.60209E-05  2984   0.587E-03    0.231E+00
RMM:  59    -0.230743885294E+04   -0.25278E-03   -0.97015E-06  2671   0.274E-03    0.230E+00
RMM:  60    -0.230743780437E+04    0.10486E-02   -0.11605E-05  2388   0.187E-03    0.226E+00
RMM:  61    -0.230743683381E+04    0.97057E-03   -0.26808E-05  2689   0.245E-03    0.223E+00
RMM:  62    -0.230743669001E+04    0.14379E-03   -0.63817E-06  2494   0.201E-03    0.222E+00
RMM:  63    -0.230743474313E+04    0.19469E-02   -0.50046E-05  2892   0.294E-03    0.213E+00
RMM:  64    -0.230743029096E+04    0.44522E-02   -0.28239E-04  3285   0.660E-03    0.192E+00
RMM:  65    -0.230742513224E+04    0.51587E-02   -0.57023E-04  3650   0.938E-03    0.167E+00
RMM:  66    -0.230741929270E+04    0.58395E-02   -0.10134E-03  4161   0.127E-02    0.136E+00
RMM:  67    -0.230741440400E+04    0.48887E-02   -0.11955E-03  4166   0.147E-02    0.112E+00
RMM:  68    -0.230741050854E+04    0.38955E-02   -0.11944E-03  4109   0.148E-02    0.952E-01
RMM:  69    -0.230740909244E+04    0.14161E-02   -0.34234E-04  3502   0.111E-02    0.921E-01
RMM:  70    -0.230740912395E+04   -0.31515E-04   -0.43839E-05  2962   0.602E-03    0.926E-01
RMM:  71    -0.230740868411E+04    0.43985E-03   -0.25066E-05  2883   0.371E-03    0.912E-01
RMM:  72    -0.230740826441E+04    0.41970E-03   -0.23362E-05  2806   0.307E-03    0.905E-01
RMM:  73    -0.230740811612E+04    0.14828E-03   -0.63433E-06  2679   0.228E-03    0.903E-01
RMM:  74    -0.230740813930E+04   -0.23181E-04   -0.17478E-06  2488   0.153E-03    0.904E-01
RMM:  75    -0.230740828589E+04   -0.14658E-03   -0.37807E-06  2321   0.133E-03    0.904E-01
RMM:  76    -0.230740881923E+04   -0.53334E-03   -0.23227E-05  2700   0.221E-03    0.916E-01
RMM:  77    -0.230740794094E+04    0.87829E-03   -0.56399E-05  2824   0.405E-03    0.886E-01
RMM:  78    -0.230740796811E+04   -0.27170E-04   -0.39157E-06  2434   0.203E-03    0.893E-01
RMM:  79    -0.230740796934E+04   -0.12323E-05   -0.76269E-07  1743   0.868E-04
  25 F= -.23281636E+04 E0= -.23281550E+04  d E =-.188408E+00  mag=     3.9943
       N       E                     dE             d eps       ncg     rms          rms(c)
DAV:   1    -0.230734962346E+04    0.58345E-01   -0.39857E+00  4448   0.146E+00    0.101E+00
RMM:   2    -0.230745169858E+04   -0.10208E+00   -0.66815E-01  6388   0.380E-01    0.251E+00
RMM:   3    -0.230742097290E+04    0.30726E-01   -0.72013E-02  6046   0.143E-01    0.139E+00
RMM:   4    -0.230742094212E+04    0.30781E-04   -0.93652E-03  4848   0.337E-02    0.128E+00
RMM:   5    -0.230741732993E+04    0.36122E-02   -0.17599E-02  4896   0.614E-02    0.121E+00
RMM:   6    -0.230741275769E+04    0.45722E-02   -0.52984E-03  5380   0.363E-02    0.116E+00
RMM:   7    -0.230740715838E+04    0.55993E-02   -0.34975E-03  4583   0.250E-02    0.115E+00
RMM:   8    -0.230739329212E+04    0.13866E-01   -0.59289E-03  4598   0.353E-02    0.132E+00
RMM:   9    -0.230740034380E+04   -0.70517E-02   -0.64151E-04  3863   0.181E-02    0.122E+00
RMM:  10    -0.230740432969E+04   -0.39859E-02   -0.15611E-03  4256   0.186E-02    0.106E+00
RMM:  11    -0.230741544394E+04   -0.11114E-01   -0.12444E-02  4698   0.517E-02    0.865E-01
RMM:  12    -0.230742960947E+04   -0.14166E-01   -0.14022E-02  4735   0.516E-02    0.176E+00
RMM:  13    -0.230741868018E+04    0.10929E-01   -0.52770E-03  4429   0.465E-02    0.804E-01
RMM:  14    -0.230741658482E+04    0.20954E-02   -0.13818E-03  3963   0.223E-02    0.944E-01
RMM:  15    -0.230741138587E+04    0.51990E-02   -0.33051E-03  4654   0.231E-02    0.738E-01
RMM:  16    -0.230740827721E+04    0.31087E-02   -0.13932E-03  4164   0.181E-02    0.789E-01
RMM:  17    -0.230740854793E+04   -0.27073E-03   -0.13204E-04  3102   0.830E-03    0.789E-01
RMM:  18    -0.230740868327E+04   -0.13533E-03   -0.12089E-05  2865   0.412E-03    0.787E-01
RMM:  19    -0.230740766074E+04    0.10225E-02   -0.15649E-04  3194   0.579E-03    0.810E-01
RMM:  20    -0.230740575440E+04    0.19063E-02   -0.37557E-04  3792   0.858E-03    0.871E-01
RMM:  21    -0.230741833082E+04   -0.12576E-01   -0.12948E-02  4860   0.486E-02    0.103E+00
RMM:  22    -0.230743459500E+04   -0.16264E-01   -0.12129E-02  4807   0.488E-02    0.201E+00
RMM:  23    -0.230741416252E+04    0.20432E-01   -0.22538E-02  4767   0.730E-02    0.637E-01
RMM:  24    -0.230741140347E+04    0.27591E-02   -0.15073E-03  4145   0.323E-02    0.730E-01
RMM:  25    -0.230740631455E+04    0.50889E-02   -0.34439E-03  4859   0.235E-02    0.789E-01
RMM:  26    -0.230740201257E+04    0.43020E-02   -0.18214E-03  4517   0.186E-02    0.970E-01
RMM:  27    -0.230739981977E+04    0.21928E-02   -0.80095E-04  3706   0.112E-02    0.107E+00
RMM:  28    -0.230740049959E+04   -0.67981E-03   -0.37696E-05  2901   0.555E-03    0.104E+00
RMM:  29    -0.230740243979E+04   -0.19402E-02   -0.21379E-04  3142   0.714E-03    0.962E-01
RMM:  30    -0.230740669436E+04   -0.42546E-02   -0.13570E-03  4244   0.161E-02    0.809E-01
RMM:  31    -0.230741384543E+04   -0.71511E-02   -0.56452E-03  4755   0.312E-02    0.804E-01
RMM:  32    -0.230741946572E+04   -0.56203E-02   -0.37904E-03  4576   0.258E-02    0.108E+00
RMM:  33    -0.230742004605E+04   -0.58032E-03   -0.50728E-04  3728   0.144E-02    0.106E+00
RMM:  34    -0.230742003473E+04    0.11317E-04   -0.59114E-05  2946   0.599E-03    0.107E+00
RMM:  35    -0.230741994748E+04    0.87248E-04   -0.47331E-06  2781   0.329E-03    0.107E+00
RMM:  36    -0.230741960950E+04    0.33798E-03   -0.60006E-06  2742   0.227E-03    0.105E+00
RMM:  37    -0.230741804052E+04    0.15690E-02   -0.13291E-04  3054   0.519E-03    0.943E-01
RMM:  38    -0.230741461518E+04    0.34253E-02   -0.90370E-04  4028   0.120E-02    0.770E-01
RMM:  39    -0.230741164126E+04    0.29739E-02   -0.11279E-03  3836   0.138E-02    0.718E-01
RMM:  40    -0.230741122794E+04    0.41332E-03   -0.16612E-04  3196   0.801E-03    0.729E-01
RMM:  41    -0.230741130760E+04   -0.79668E-04   -0.17129E-05  2848   0.392E-03    0.729E-01
RMM:  42    -0.230741145165E+04   -0.14405E-03   -0.35718E-06  2648   0.233E-03    0.728E-01
RMM:  43    -0.230741239964E+04   -0.94798E-03   -0.94994E-05  2988   0.476E-03    0.735E-01
RMM:  44    -0.230741377939E+04   -0.13798E-02   -0.21410E-04  3090   0.601E-03    0.766E-01
RMM:  45    -0.230741445259E+04   -0.67319E-03   -0.89509E-05  2874   0.447E-03    0.781E-01
RMM:  46    -0.230741484682E+04   -0.39424E-03   -0.39795E-05  2809   0.326E-03    0.795E-01
RMM:  47    -0.230741480344E+04    0.43387E-04   -0.34036E-06  2593   0.227E-03    0.790E-01
RMM:  48    -0.230741524014E+04   -0.43670E-03   -0.19006E-05  2507   0.205E-03    0.811E-01
RMM:  49    -0.230741449337E+04    0.74677E-03   -0.43982E-05  2757   0.356E-03    0.774E-01
RMM:  50    -0.230741349825E+04    0.99512E-03   -0.10233E-04  2947   0.436E-03    0.746E-01
RMM:  51    -0.230741036728E+04    0.31310E-02   -0.10121E-03  4150   0.132E-02    0.714E-01
RMM:  52    -0.230740906943E+04    0.12978E-02   -0.33003E-04  3221   0.922E-03    0.745E-01
RMM:  53    -0.230740920542E+04   -0.13598E-03   -0.44198E-05  2867   0.458E-03    0.745E-01
RMM:  54    -0.230740904358E+04    0.16183E-03   -0.69803E-06  2671   0.246E-03    0.747E-01
RMM:  55    -0.230740901754E+04    0.26043E-04   -0.13388E-06  2358   0.158E-03    0.748E-01
RMM:  56    -0.230740895606E+04    0.61487E-04   -0.12641E-06  1911   0.110E-03    0.749E-01
RMM:  57    -0.230740899967E+04   -0.43612E-04   -0.38666E-06  2189   0.128E-03    0.750E-01
RMM:  58    -0.230740748410E+04    0.15156E-02   -0.21735E-04  3171   0.651E-03    0.786E-01
RMM:  59    -0.230740736336E+04    0.12074E-03   -0.19962E-05  2719   0.338E-03    0.793E-01
RMM:  60    -0.230740728409E+04    0.79269E-04   -0.64525E-06  2425   0.165E-03    0.796E-01
RMM:  61    -0.230740704234E+04    0.24175E-03   -0.70681E-06  2326   0.162E-03    0.804E-01
RMM:  62    -0.230740861204E+04   -0.15697E-02   -0.20002E-04  3057   0.609E-03    0.763E-01
RMM:  63    -0.230740838411E+04    0.22794E-03   -0.16402E-05  2605   0.298E-03    0.764E-01
RMM:  64    -0.230740853840E+04   -0.15430E-03   -0.57257E-06  2195   0.140E-03    0.761E-01
RMM:  65    -0.230740952778E+04   -0.98937E-03   -0.95998E-05  2986   0.422E-03    0.741E-01
RMM:  66    -0.230741073328E+04   -0.12055E-02   -0.18239E-04  3127   0.541E-03    0.725E-01
RMM:  67    -0.230741291567E+04   -0.21824E-02   -0.68007E-04  3959   0.104E-02    0.745E-01
RMM:  68    -0.230741315804E+04   -0.24236E-03   -0.71687E-05  2925   0.577E-03    0.737E-01
RMM:  69    -0.230741351375E+04   -0.35571E-03   -0.37041E-05  2811   0.315E-03    0.748E-01
RMM:  70    -0.230741329643E+04    0.21732E-03   -0.56750E-06  2695   0.256E-03    0.739E-01
RMM:  71    -0.230741066399E+04    0.26324E-02   -0.72245E-04  3834   0.117E-02    0.711E-01
RMM:  72    -0.230740704663E+04    0.36174E-02   -0.14570E-03  4179   0.158E-02    0.788E-01
RMM:  73    -0.230740853053E+04   -0.14839E-02   -0.12540E-04  3101   0.835E-03    0.753E-01
RMM:  74    -0.230740896106E+04   -0.43052E-03   -0.28488E-05  2790   0.380E-03    0.740E-01
RMM:  75    -0.230740983908E+04   -0.87802E-03   -0.85718E-05  2970   0.449E-03    0.729E-01
RMM:  76    -0.230741212533E+04   -0.22863E-02   -0.53595E-04  3569   0.967E-03    0.732E-01
RMM:  77    -0.230741782269E+04   -0.56974E-02   -0.28195E-03  4549   0.219E-02    0.960E-01
RMM:  78    -0.230741877554E+04   -0.95285E-03   -0.45053E-04  3504   0.139E-02    0.964E-01
RMM:  79    -0.230741705593E+04    0.17196E-02   -0.12222E-04  3181   0.898E-03    0.862E-01
RMM:  80    -0.230741702570E+04    0.30227E-04   -0.13084E-05  2741   0.360E-03    0.883E-01
RMM:  81    -0.230741556412E+04    0.14616E-02   -0.15203E-04  3078   0.547E-03    0.800E-01
RMM:  82    -0.230741323085E+04    0.23333E-02   -0.54402E-04  3754   0.932E-03    0.729E-01
RMM:  83    -0.230741017347E+04    0.30574E-02   -0.12117E-03  4159   0.136E-02    0.720E-01
RMM:  84    -0.230741004690E+04    0.12657E-03   -0.10929E-04  3001   0.764E-03    0.737E-01
RMM:  85    -0.230741060567E+04   -0.55877E-03   -0.25278E-05  2847   0.438E-03    0.732E-01
RMM:  86    -0.230741090271E+04   -0.29704E-03   -0.11254E-05  2595   0.262E-03    0.728E-01
RMM:  87    -0.230740974179E+04    0.11609E-02   -0.13151E-04  2918   0.493E-03    0.736E-01
RMM:  88    -0.230740869005E+04    0.10517E-02   -0.13338E-04  2988   0.493E-03    0.756E-01
RMM:  89    -0.230740621174E+04    0.24783E-02   -0.57450E-04  3717   0.996E-03    0.833E-01
RMM:  90    -0.230740642746E+04   -0.21572E-03   -0.31814E-05  2779   0.502E-03    0.830E-01
RMM:  91    -0.230740663733E+04   -0.20987E-03   -0.69951E-06  2602   0.228E-03    0.822E-01
RMM:  92    -0.230740679439E+04   -0.15706E-03   -0.15446E-05  2665   0.226E-03    0.817E-01
RMM:  93    -0.230740656214E+04    0.23225E-03   -0.43776E-06  2224   0.143E-03    0.825E-01
RMM:  94    -0.230740646625E+04    0.95887E-04   -0.14803E-06  1736   0.947E-04    0.828E-01
RMM:  95    -0.230740667822E+04   -0.21197E-03   -0.44939E-06  1800   0.120E-03    0.819E-01
RMM:  96    -0.230740767703E+04   -0.99881E-03   -0.11088E-04  3065   0.478E-03    0.782E-01
RMM:  97    -0.230740351506E+04    0.41620E-02   -0.11798E-03  3962   0.151E-02    0.947E-01
RMM:  98    -0.230740370778E+04   -0.19273E-03   -0.59239E-05  2796   0.616E-03    0.938E-01
RMM:  99    -0.230740458385E+04   -0.87607E-03   -0.45038E-05  2793   0.397E-03    0.896E-01
RMM: 100    -0.230740581780E+04   -0.12339E-02   -0.11302E-04  3038   0.518E-03    0.843E-01
RMM: 101    -0.230740665726E+04   -0.83946E-03   -0.89036E-05  2897   0.407E-03    0.811E-01
RMM: 102    -0.230740537805E+04    0.12792E-02   -0.95084E-05  2860   0.504E-03    0.859E-01
RMM: 103    -0.230740507127E+04    0.30678E-03   -0.14966E-05  2413   0.258E-03    0.873E-01
RMM: 104    -0.230740509384E+04   -0.22575E-04   -0.19053E-06  1946   0.120E-03    0.872E-01
RMM: 105    -0.230740505629E+04    0.37559E-04   -0.42517E-07  1302   0.757E-04    0.873E-01
RMM: 106    -0.230740504189E+04    0.14392E-04   -0.20091E-07  1118   0.660E-04    0.874E-01
RMM: 107    -0.230740510789E+04   -0.65993E-04   -0.47815E-06  2108   0.116E-03    0.871E-01
RMM: 108    -0.230740683003E+04   -0.17221E-02   -0.22425E-04  3129   0.636E-03    0.806E-01
RMM: 109    -0.230740806710E+04   -0.12371E-02   -0.18291E-04  3085   0.583E-03    0.767E-01
RMM: 110    -0.230740889550E+04   -0.82840E-03   -0.13866E-04  2991   0.455E-03    0.745E-01
RMM: 111    -0.230740939137E+04   -0.49587E-03   -0.44440E-05  2790   0.324E-03    0.733E-01
RMM: 112    -0.230741676303E+04   -0.73717E-02   -0.44302E-03  4772   0.283E-02    0.911E-01
RMM: 113    -0.230741738127E+04   -0.61824E-03   -0.53325E-04  3573   0.165E-02    0.888E-01
RMM: 114    -0.230741775401E+04   -0.37274E-03   -0.16558E-04  3062   0.686E-03    0.919E-01
RMM: 115    -0.230741743686E+04    0.31715E-03   -0.11893E-05  2815   0.423E-03    0.895E-01
RMM: 116    -0.230741577766E+04    0.16592E-02   -0.19229E-04  3113   0.658E-03    0.805E-01
RMM: 117    -0.230741307613E+04    0.27015E-02   -0.73757E-04  3939   0.110E-02    0.716E-01
RMM: 118    -0.230741091229E+04    0.21638E-02   -0.69105E-04  3589   0.107E-02    0.709E-01
RMM: 119    -0.230740965991E+04    0.12524E-02   -0.32290E-04  3279   0.777E-03    0.728E-01
RMM: 120    -0.230741064434E+04   -0.98443E-03   -0.65014E-05  2943   0.620E-03    0.722E-01
RMM: 121    -0.230741131835E+04   -0.67401E-03   -0.60073E-05  2855   0.443E-03    0.716E-01
RMM: 122    -0.230741413075E+04   -0.28124E-02   -0.78213E-04  3996   0.122E-02    0.769E-01
RMM: 123    -0.230741585014E+04   -0.17194E-02   -0.38346E-04  3264   0.932E-03    0.822E-01
RMM: 124    -0.230741368219E+04    0.21679E-02   -0.26810E-04  3340   0.103E-02    0.721E-01
RMM: 125    -0.230741224205E+04    0.14401E-02   -0.27597E-04  3190   0.765E-03    0.710E-01
RMM: 126    -0.230741049187E+04    0.17502E-02   -0.43702E-04  3503   0.841E-03    0.705E-01
RMM: 127    -0.230740355536E+04    0.69365E-02   -0.40259E-03  4651   0.264E-02    0.932E-01
RMM: 128    -0.230740356151E+04   -0.61504E-05   -0.27238E-04  3262   0.124E-02    0.937E-01
RMM: 129    -0.230740330102E+04    0.26049E-03   -0.78123E-05  2901   0.441E-03    0.949E-01
RMM: 130    -0.230740336102E+04   -0.59998E-04   -0.48321E-06  2713   0.258E-03    0.947E-01
RMM: 131    -0.230740355477E+04   -0.19375E-03   -0.29665E-06  2469   0.150E-03    0.939E-01
RMM: 132    -0.230740434241E+04   -0.78764E-03   -0.44392E-05  2867   0.316E-03    0.906E-01
RMM: 133    -0.230740444402E+04   -0.10161E-03   -0.68605E-06  2150   0.173E-03    0.902E-01
RMM: 134    -0.230740473289E+04   -0.28887E-03   -0.10464E-05  2165   0.158E-03    0.891E-01
RMM: 135    -0.230740501018E+04   -0.27729E-03   -0.78073E-06  2077   0.159E-03    0.881E-01
RMM: 136    -0.230740542324E+04   -0.41305E-03   -0.17546E-05  2465   0.203E-03    0.868E-01
RMM: 137    -0.230740509858E+04    0.32465E-03   -0.13274E-05  2431   0.204E-03    0.883E-01
RMM: 138    -0.230740590367E+04   -0.80508E-03   -0.38620E-05  2721   0.289E-03    0.852E-01
RMM: 139    -0.230740591380E+04   -0.10139E-04   -0.28287E-06  2049   0.160E-03    0.852E-01
RMM: 140    -0.230740572899E+04    0.18482E-03   -0.19921E-06  1359   0.936E-04    0.860E-01
RMM: 141    -0.230740647254E+04   -0.74356E-03   -0.41867E-05  2759   0.276E-03    0.832E-01
RMM: 142    -0.230740726894E+04   -0.79640E-03   -0.72065E-05  2974   0.364E-03    0.802E-01
RMM: 143    -0.230740951905E+04   -0.22501E-02   -0.51178E-04  3621   0.930E-03    0.749E-01
RMM: 144    -0.230741112495E+04   -0.16059E-02   -0.36335E-04  3355   0.840E-03    0.732E-01
RMM: 145    -0.230741233262E+04   -0.12077E-02   -0.29248E-04  3296   0.709E-03    0.738E-01
RMM: 146    -0.230741316978E+04   -0.83717E-03   -0.12406E-04  3017   0.547E-03    0.751E-01
RMM: 147    -0.230740852157E+04    0.46482E-02   -0.22109E-03  4191   0.207E-02    0.758E-01
RMM: 148    -0.230741004946E+04   -0.15279E-02   -0.19219E-04  3294   0.108E-02    0.751E-01
RMM: 149    -0.230741048426E+04   -0.43479E-03   -0.46674E-05  2812   0.435E-03    0.741E-01
RMM: 150    -0.230741046912E+04    0.15133E-04   -0.33337E-06  2305   0.175E-03    0.740E-01
RMM: 151    -0.230741055956E+04   -0.90443E-04   -0.19720E-06  1908   0.101E-03    0.740E-01
RMM: 152    -0.230741022549E+04    0.33408E-03   -0.93333E-06  1952   0.143E-03    0.737E-01
RMM: 153    -0.230741030820E+04   -0.82711E-04   -0.13828E-06  1768   0.110E-03    0.737E-01
RMM: 154    -0.230741022836E+04    0.79838E-04   -0.52608E-07  1084   0.755E-04    0.736E-01
RMM: 155    -0.230740934541E+04    0.88295E-03   -0.78307E-05  2822   0.378E-03    0.745E-01
RMM: 156    -0.230740734524E+04    0.20002E-02   -0.41205E-04  3504   0.838E-03    0.790E-01
RMM: 157    -0.230741097789E+04   -0.36326E-02   -0.10267E-03  3978   0.147E-02    0.740E-01
RMM: 158    -0.230741052828E+04    0.44961E-03   -0.41950E-05  2822   0.632E-03    0.722E-01
RMM: 159    -0.230741032996E+04    0.19832E-03   -0.63656E-06  2446   0.243E-03    0.725E-01
RMM: 160    -0.230741056537E+04   -0.23541E-03   -0.60124E-06  2206   0.151E-03    0.723E-01
RMM: 161    -0.230741096403E+04   -0.39865E-03   -0.19745E-05  2584   0.200E-03    0.722E-01
RMM: 162    -0.230740844037E+04    0.25237E-02   -0.60489E-04  3740   0.109E-02    0.750E-01
RMM: 163    -0.230740849823E+04   -0.57853E-04   -0.34105E-05  2708   0.502E-03    0.757E-01
RMM: 164    -0.230740814857E+04    0.34965E-03   -0.25822E-05  2596   0.243E-03    0.765E-01
RMM: 165    -0.230740851037E+04   -0.36179E-03   -0.10030E-05  2560   0.226E-03    0.757E-01
RMM: 166    -0.230740943019E+04   -0.91983E-03   -0.83767E-05  2898   0.417E-03    0.736E-01
RMM: 167    -0.230742166970E+04   -0.12240E-01   -0.98167E-03  4782   0.419E-02    0.123E+00
RMM: 168    -0.230742472861E+04   -0.30589E-02   -0.18910E-03  4071   0.281E-02    0.133E+00
RMM: 169    -0.230742271369E+04    0.20149E-02   -0.26101E-04  3505   0.136E-02    0.119E+00
RMM: 170    -0.230741800560E+04    0.47081E-02   -0.10614E-03  3939   0.145E-02    0.899E-01
RMM: 171    -0.230741311893E+04    0.48867E-02   -0.22815E-03  4353   0.195E-02    0.714E-01
RMM: 172    -0.230741157784E+04    0.15411E-02   -0.71714E-04  3727   0.134E-02    0.728E-01
RMM: 173    -0.230740842719E+04    0.31506E-02   -0.12520E-03  4354   0.142E-02    0.757E-01
RMM: 174    -0.230740843225E+04   -0.50634E-05   -0.10029E-04  2997   0.818E-03    0.770E-01
RMM: 175    -0.230740839307E+04    0.39185E-04   -0.26383E-05  2814   0.352E-03    0.769E-01
RMM: 176    -0.230740860848E+04   -0.21541E-03   -0.49636E-06  2709   0.246E-03    0.764E-01
RMM: 177    -0.230740905948E+04   -0.45100E-03   -0.23221E-05  2704   0.260E-03    0.753E-01
RMM: 178    -0.230740957875E+04   -0.51928E-03   -0.30344E-05  2668   0.269E-03    0.743E-01
RMM: 179    -0.230740958722E+04   -0.84618E-05   -0.32061E-06  1892   0.141E-03
  26 F= -.23281651E+04 E0= -.23281603E+04  d E =-.189970E+00  mag=     4.1290
       N       E                     dE             d eps       ncg     rms          rms(c)
DAV:   1    -0.230738279127E+04    0.26787E-01   -0.19389E+00  4456   0.101E+00    0.966E-01
RMM:   2    -0.230743725507E+04   -0.54464E-01   -0.37873E-01  6467   0.277E-01    0.179E+00
RMM:   3    -0.230742877604E+04    0.84790E-02   -0.39115E-02  5582   0.106E-01    0.141E+00
RMM:   4    -0.230742866777E+04    0.10827E-03   -0.12813E-02  4787   0.518E-02    0.124E+00
RMM:   5    -0.230742156369E+04    0.71041E-02   -0.22707E-02  5772   0.620E-02    0.121E+00
RMM:   6    -0.230740521734E+04    0.16346E-01   -0.10982E-02  5030   0.472E-02    0.119E+00
RMM:   7    -0.230741182943E+04   -0.66121E-02   -0.11383E-03  4048   0.229E-02    0.104E+00
RMM:   8    -0.230741926862E+04   -0.74392E-02   -0.59467E-03  4663   0.350E-02    0.815E-01
RMM:   9    -0.230742400483E+04   -0.47362E-02   -0.33392E-03  4350   0.281E-02    0.953E-01
RMM:  10    -0.230742336226E+04    0.64257E-03   -0.28183E-04  3484   0.137E-02    0.869E-01
RMM:  11    -0.230742960954E+04   -0.62473E-02   -0.40772E-03  4526   0.284E-02    0.140E+00
RMM:  12    -0.230742962938E+04   -0.19847E-04   -0.68834E-04  3890   0.190E-02    0.137E+00
RMM:  13    -0.230742938522E+04    0.24417E-03   -0.84668E-04  4047   0.146E-02    0.144E+00
RMM:  14    -0.230742544657E+04    0.39386E-02   -0.46956E-03  4650   0.303E-02    0.130E+00
RMM:  15    -0.230742313781E+04    0.23088E-02   -0.13945E-03  4105   0.178E-02    0.111E+00
RMM:  16    -0.230741787693E+04    0.52609E-02   -0.46289E-03  4470   0.305E-02    0.860E-01
RMM:  17    -0.230741677889E+04    0.10980E-02   -0.88444E-04  3959   0.209E-02    0.897E-01
RMM:  18    -0.230741408493E+04    0.26940E-02   -0.13686E-03  4444   0.152E-02    0.904E-01
RMM:  19    -0.230741152859E+04    0.25563E-02   -0.69924E-04  3876   0.133E-02    0.965E-01
RMM:  20    -0.230740871500E+04    0.28136E-02   -0.73765E-04  4088   0.115E-02    0.105E+00
RMM:  21    -0.230740544211E+04    0.32729E-02   -0.67419E-04  3782   0.117E-02    0.115E+00
RMM:  22    -0.230740720482E+04   -0.17627E-02   -0.10687E-04  2992   0.654E-03    0.110E+00
RMM:  23    -0.230741209916E+04   -0.48943E-02   -0.16735E-03  4370   0.176E-02    0.948E-01
RMM:  24    -0.230742772814E+04   -0.15629E-01   -0.19228E-02  5060   0.591E-02    0.124E+00
RMM:  25    -0.230744526875E+04   -0.17541E-01   -0.12031E-02  4875   0.462E-02    0.219E+00
RMM:  26    -0.230744490493E+04    0.36383E-03   -0.14329E-03  4134   0.290E-02    0.201E+00
RMM:  27    -0.230744580461E+04   -0.89968E-03   -0.31684E-04  3305   0.989E-03    0.212E+00
RMM:  28    -0.230744586722E+04   -0.62615E-04   -0.25096E-05  2902   0.524E-03    0.211E+00
RMM:  29    -0.230743745570E+04    0.84115E-02   -0.20831E-03  4335   0.187E-02    0.157E+00
RMM:  30    -0.230744135931E+04   -0.39036E-02   -0.57575E-04  3739   0.152E-02    0.189E+00
RMM:  31    -0.230744240336E+04   -0.10441E-02   -0.25192E-04  3093   0.757E-03    0.187E+00
RMM:  32    -0.230744382354E+04   -0.14202E-02   -0.81791E-05  2930   0.460E-03    0.195E+00
RMM:  33    -0.230744329589E+04    0.52765E-03   -0.99130E-06  2734   0.354E-03    0.191E+00
RMM:  34    -0.230744271201E+04    0.58388E-03   -0.95336E-06  2543   0.209E-03    0.189E+00
RMM:  35    -0.230743707516E+04    0.56369E-02   -0.79469E-04  3853   0.121E-02    0.159E+00
RMM:  36    -0.230742489449E+04    0.12181E-01   -0.61744E-03  4676   0.320E-02    0.932E-01
RMM:  37    -0.230742073549E+04    0.41590E-02   -0.22633E-03  4176   0.261E-02    0.884E-01
RMM:  38    -0.230742266110E+04   -0.19256E-02   -0.27328E-04  3544   0.138E-02    0.944E-01
RMM:  39    -0.230742302809E+04   -0.36699E-03   -0.49136E-05  2953   0.531E-03    0.921E-01
RMM:  40    -0.230742409872E+04   -0.10706E-02   -0.32074E-04  3360   0.824E-03    0.940E-01
RMM:  41    -0.230742829737E+04   -0.41987E-02   -0.98885E-04  4017   0.135E-02    0.116E+00
RMM:  42    -0.230743014618E+04   -0.18488E-02   -0.34038E-04  3269   0.106E-02    0.123E+00
RMM:  43    -0.230743084787E+04   -0.70169E-03   -0.11967E-04  3057   0.655E-03    0.127E+00
RMM:  44    -0.230743035608E+04    0.49178E-03   -0.10235E-05  2799   0.413E-03    0.123E+00
RMM:  45    -0.230742534877E+04    0.50073E-02   -0.95548E-04  3873   0.136E-02    0.921E-01
RMM:  46    -0.230741988389E+04    0.54649E-02   -0.22403E-03  4270   0.197E-02    0.767E-01
RMM:  47    -0.230741793247E+04    0.19514E-02   -0.83007E-04  3794   0.138E-02    0.775E-01
RMM:  48    -0.230741702833E+04    0.90414E-03   -0.24080E-04  3223   0.754E-03    0.782E-01
RMM:  49    -0.230741433635E+04    0.26920E-02   -0.61482E-04  4049   0.102E-02    0.821E-01
RMM:  50    -0.230740699869E+04    0.73377E-02   -0.30885E-03  4634   0.230E-02    0.108E+00
RMM:  51    -0.230740572957E+04    0.12691E-02   -0.34590E-04  3289   0.104E-02    0.113E+00
RMM:  52    -0.230740820610E+04   -0.24765E-02   -0.24632E-04  3266   0.858E-03    0.104E+00
RMM:  53    -0.230740801152E+04    0.19458E-03   -0.12827E-05  2703   0.315E-03    0.105E+00
RMM:  54    -0.230740791442E+04    0.97100E-04   -0.24147E-06  2068   0.989E-04    0.105E+00
RMM:  55    -0.230740784808E+04    0.66338E-04   -0.40929E-07  1722   0.776E-04    0.106E+00
RMM:  56    -0.230740790432E+04   -0.56243E-04   -0.22195E-06  1699   0.883E-04    0.105E+00
RMM:  57    -0.230740710366E+04    0.80066E-03   -0.35239E-05  2709   0.291E-03    0.109E+00
RMM:  58    -0.230740680605E+04    0.29762E-03   -0.99124E-06  2448   0.188E-03    0.110E+00
RMM:  59    -0.230740587337E+04    0.93268E-03   -0.41791E-05  2814   0.298E-03    0.113E+00
RMM:  60    -0.230740914184E+04   -0.32685E-02   -0.41937E-04  3318   0.893E-03    0.101E+00
RMM:  61    -0.230741089227E+04   -0.17504E-02   -0.24656E-04  3212   0.750E-03    0.943E-01
RMM:  62    -0.230741485623E+04   -0.39640E-02   -0.10987E-03  4128   0.142E-02    0.830E-01
RMM:  63    -0.230742133753E+04   -0.64813E-02   -0.34372E-03  4683   0.243E-02    0.868E-01
RMM:  64    -0.230742323224E+04   -0.18947E-02   -0.78965E-04  3821   0.139E-02    0.909E-01
RMM:  65    -0.230742703987E+04   -0.38076E-02   -0.10611E-03  4324   0.125E-02    0.110E+00
RMM:  66    -0.230742940253E+04   -0.23627E-02   -0.41954E-04  3536   0.110E-02    0.122E+00
RMM:  67    -0.230743035071E+04   -0.94818E-03   -0.17943E-04  3124   0.739E-03    0.125E+00
RMM:  68    -0.230743005373E+04    0.29697E-03   -0.12622E-05  2835   0.461E-03    0.123E+00
RMM:  69    -0.230743030109E+04   -0.24736E-03   -0.49616E-06  2728   0.229E-03    0.125E+00
RMM:  70    -0.230742965246E+04    0.64863E-03   -0.12600E-05  2709   0.248E-03    0.120E+00
RMM:  71    -0.230742969785E+04   -0.45383E-04   -0.17421E-06  2175   0.133E-03    0.122E+00
RMM:  72    -0.230745480900E+04   -0.25111E-01   -0.89484E-03  4814   0.396E-02    0.256E+00
RMM:  73    -0.230745140165E+04    0.34073E-02   -0.14462E-03  3903   0.322E-02    0.229E+00
RMM:  74    -0.230745177238E+04   -0.37073E-03   -0.18939E-04  3110   0.859E-03    0.238E+00
RMM:  75    -0.230745383000E+04   -0.20576E-02   -0.66317E-05  3012   0.470E-03    0.246E+00
RMM:  76    -0.230744843009E+04    0.53999E-02   -0.38460E-04  3297   0.876E-03    0.216E+00
RMM:  77    -0.230745964719E+04   -0.11217E-01   -0.11842E-03  4060   0.164E-02    0.262E+00
RMM:  78    -0.230746155758E+04   -0.19104E-02   -0.22731E-04  3138   0.104E-02    0.259E+00
RMM:  79    -0.230745225944E+04    0.92981E-02   -0.57054E-04  3643   0.127E-02    0.227E+00
RMM:  80    -0.230744336339E+04    0.88960E-02   -0.11264E-03  3998   0.143E-02    0.192E+00
RMM:  81    -0.230744005175E+04    0.33116E-02   -0.52553E-04  3460   0.117E-02    0.179E+00
RMM:  82    -0.230745258257E+04   -0.12531E-01   -0.13732E-03  4034   0.187E-02    0.243E+00
RMM:  83    -0.230744914905E+04    0.34335E-02   -0.17885E-04  3228   0.122E-02    0.218E+00
RMM:  84    -0.230744854160E+04    0.60745E-03   -0.28953E-05  2714   0.436E-03    0.221E+00
RMM:  85    -0.230744043181E+04    0.81098E-02   -0.87734E-04  4028   0.124E-02    0.176E+00
RMM:  86    -0.230743365491E+04    0.67769E-02   -0.11718E-03  3935   0.152E-02    0.142E+00
RMM:  87    -0.230744110154E+04   -0.74466E-02   -0.83200E-04  3966   0.178E-02    0.191E+00
RMM:  88    -0.230744709901E+04   -0.59975E-02   -0.78936E-04  3573   0.124E-02    0.213E+00
RMM:  89    -0.230744672913E+04    0.36987E-03   -0.98295E-05  3009   0.840E-03    0.208E+00
RMM:  90    -0.230744649894E+04    0.23019E-03   -0.19386E-05  2780   0.357E-03    0.208E+00
RMM:  91    -0.230744638781E+04    0.11113E-03   -0.14435E-06  2432   0.184E-03    0.208E+00
RMM:  92    -0.230742231299E+04    0.24075E-01   -0.19840E-02  4874   0.576E-02    0.741E-01
RMM:  93    -0.230741672513E+04    0.55879E-02   -0.38425E-03  4258   0.424E-02    0.846E-01
RMM:  94    -0.230741711250E+04   -0.38738E-03   -0.70081E-04  3716   0.154E-02    0.838E-01
RMM:  95    -0.230741560616E+04    0.15063E-02   -0.24296E-04  3271   0.882E-03    0.846E-01
RMM:  96    -0.230741583724E+04   -0.23107E-03   -0.30223E-05  2890   0.505E-03    0.840E-01
RMM:  97    -0.230741542655E+04    0.41068E-03   -0.34867E-05  2863   0.367E-03    0.852E-01
RMM:  98    -0.230741675805E+04   -0.13315E-02   -0.18779E-04  3048   0.623E-03    0.838E-01
RMM:  99    -0.230741369671E+04    0.30613E-02   -0.67689E-04  3776   0.121E-02    0.886E-01
RMM: 100    -0.230741137068E+04    0.23260E-02   -0.46696E-04  3460   0.984E-03    0.962E-01
RMM: 101    -0.230741144686E+04   -0.76182E-04   -0.43913E-05  2794   0.418E-03    0.960E-01
RMM: 102    -0.230740432136E+04    0.71255E-02   -0.22133E-03  4487   0.195E-02    0.125E+00
RMM: 103    -0.230740571042E+04   -0.13891E-02   -0.12745E-04  2987   0.877E-03    0.119E+00
RMM: 104    -0.230740552571E+04    0.18470E-03   -0.21993E-05  2811   0.315E-03    0.119E+00
RMM: 105    -0.230740676588E+04   -0.12402E-02   -0.57239E-05  2869   0.385E-03    0.113E+00
RMM: 106    -0.230741083286E+04   -0.40670E-02   -0.74040E-04  3835   0.118E-02    0.965E-01
RMM: 107    -0.230741300341E+04   -0.21705E-02   -0.38700E-04  3198   0.941E-03    0.889E-01
RMM: 108    -0.230741427275E+04   -0.12693E-02   -0.23451E-04  3177   0.626E-03    0.856E-01
RMM: 109    -0.230741530743E+04   -0.10347E-02   -0.11385E-04  3010   0.515E-03    0.835E-01
RMM: 110    -0.230741767483E+04   -0.23674E-02   -0.48199E-04  3855   0.917E-03    0.817E-01
RMM: 111    -0.230741943062E+04   -0.17558E-02   -0.33905E-04  3223   0.824E-03    0.827E-01
RMM: 112    -0.230741952455E+04   -0.93929E-04   -0.54307E-05  2851   0.471E-03    0.821E-01
RMM: 113    -0.230742029333E+04   -0.76878E-03   -0.59662E-05  2859   0.364E-03    0.838E-01
RMM: 114    -0.230741949527E+04    0.79805E-03   -0.41990E-05  2839   0.424E-03    0.817E-01
RMM: 115    -0.230741949553E+04   -0.25930E-06   -0.31248E-06  2226   0.173E-03
  27 F= -.23281750E+04 E0= -.23281681E+04  d E =-.987766E-02  mag=     4.0591
       N       E                     dE             d eps       ncg     rms          rms(c)
DAV:   1    -0.230727921492E+04    0.14028E+00   -0.80512E+00  4448   0.206E+00    0.149E+00
RMM:   2    -0.230747244991E+04   -0.19323E+00   -0.15266E+00  6495   0.558E-01    0.287E+00
RMM:   3    -0.230745384304E+04    0.18607E-01   -0.16679E-01  5753   0.218E-01    0.257E+00
RMM:   4    -0.230745794438E+04   -0.41013E-02   -0.36516E-02  5008   0.819E-02    0.217E+00
RMM:   5    -0.230744130713E+04    0.16637E-01   -0.44641E-02  6060   0.874E-02    0.182E+00
RMM:   6    -0.230742128151E+04    0.20026E-01   -0.16275E-02  5738   0.579E-02    0.124E+00
RMM:   7    -0.230740853257E+04    0.12749E-01   -0.87807E-03  4717   0.391E-02    0.122E+00
RMM:   8    -0.230738713681E+04    0.21396E-01   -0.10877E-02  4779   0.464E-02    0.162E+00
RMM:   9    -0.230739618629E+04   -0.90495E-02   -0.68513E-04  3925   0.210E-02    0.144E+00
RMM:  10    -0.230742263267E+04   -0.26446E-01   -0.22803E-02  4760   0.680E-02    0.105E+00
RMM:  11    -0.230743052134E+04   -0.78887E-02   -0.65515E-03  4548   0.396E-02    0.126E+00
RMM:  12    -0.230743804615E+04   -0.75248E-02   -0.50255E-03  5047   0.285E-02    0.156E+00
RMM:  13    -0.230743938195E+04   -0.13358E-02   -0.65462E-04  3943   0.178E-02    0.156E+00
RMM:  14    -0.230744539389E+04   -0.60119E-02   -0.12325E-03  4197   0.149E-02    0.191E+00
RMM:  15    -0.230744762993E+04   -0.22360E-02   -0.22420E-03  4320   0.217E-02    0.204E+00
[...]
RMM:   4    -0.230790957954E+04    0.86467E-05   -0.18972E-05  2901   0.312E-03
 154 F= -.23286507E+04 E0= -.23286507E+04  d E =-.319317E-04  mag=     1.9997
       N       E                     dE             d eps       ncg     rms          rms(c)
DAV:   1    -0.230790957718E+04    0.11005E-04   -0.33302E-04  4792   0.167E-02    0.865E-03
RMM:   2    -0.230790958453E+04   -0.73467E-05   -0.51905E-05  3103   0.444E-03
 155 F= -.23286507E+04 E0= -.23286507E+04  d E =-.334649E-04  mag=     1.9997
       N       E                     dE             d eps       ncg     rms          rms(c)
DAV:   1    -0.230790941193E+04    0.16525E-03   -0.12901E-02  4456   0.103E-01    0.364E-02
RMM:   2    -0.230790959102E+04   -0.17909E-03   -0.19112E-03  5992   0.261E-02    0.163E-02
RMM:   3    -0.230790960291E+04   -0.11884E-04   -0.16469E-04  2969   0.894E-03    0.167E-02
RMM:   4    -0.230790960319E+04   -0.28286E-06   -0.18644E-05  2918   0.276E-03
 156 F= -.23286508E+04 E0= -.23286507E+04  d E =-.336916E-04  mag=     1.9997
       N       E                     dE             d eps       ncg     rms          rms(c)
DAV:   1    -0.230790959452E+04    0.83865E-05   -0.29924E-04  4776   0.157E-02    0.698E-03
RMM:   2    -0.230790959990E+04   -0.53828E-05   -0.46388E-05  3063   0.417E-03
 157 F= -.23286508E+04 E0= -.23286507E+04  d E =-.327611E-04  mag=     1.9997
       N       E                     dE             d eps       ncg     rms          rms(c)
DAV:   1    -0.230790946533E+04    0.12919E-03   -0.11802E-02  4472   0.989E-02    0.345E-02
RMM:   2    -0.230790960194E+04   -0.13661E-03   -0.14624E-03  5930   0.240E-02    0.155E-02
RMM:   3    -0.230790961335E+04   -0.11406E-04   -0.13165E-04  2978   0.875E-03    0.214E-02
RMM:   4    -0.230790961028E+04    0.30692E-05   -0.15513E-05  2885   0.268E-03
 158 F= -.23286508E+04 E0= -.23286508E+04  d E =-.333300E-04  mag=     1.9997
       N       E                     dE             d eps       ncg     rms          rms(c)
DAV:   1    -0.230790959765E+04    0.15693E-04   -0.57058E-04  4568   0.217E-02    0.941E-03
RMM:   2    -0.230790960648E+04   -0.88314E-05   -0.74281E-05  3252   0.557E-03
 159 F= -.23286508E+04 E0= -.23286508E+04  d E =-.347035E-04  mag=     1.9997
       N       E                     dE             d eps       ncg     rms          rms(c)
DAV:   1    -0.230790949814E+04    0.99512E-04   -0.10178E-02  4464   0.867E-02    0.296E-02
RMM:   2    -0.230790960698E+04   -0.10884E-03   -0.11623E-03  5681   0.204E-02    0.167E-02
RMM:   3    -0.230790961620E+04   -0.92175E-05   -0.11444E-04  2976   0.800E-03    0.275E-02
RMM:   4    -0.230790961019E+04    0.60046E-05   -0.13287E-05  2878   0.278E-03
 160 F= -.23286508E+04 E0= -.23286508E+04  d E =-.249049E-04  mag=     1.9997
       N       E                     dE             d eps       ncg     rms          rms(c)
DAV:   1    -0.230790960095E+04    0.15244E-04   -0.43210E-04  4624   0.177E-02    0.728E-03
RMM:   2    -0.230790960674E+04   -0.57934E-05   -0.52079E-05  3078   0.450E-03
 161 F= -.23286508E+04 E0= -.23286508E+04  d E =-.259489E-04  mag=     1.9997
       N       E                     dE             d eps       ncg     rms          rms(c)
DAV:   1    -0.230790952079E+04    0.80164E-04   -0.10727E-02  4464   0.914E-02    0.334E-02
RMM:   2    -0.230790965251E+04   -0.13173E-03   -0.13139E-03  5774   0.218E-02    0.369E-02
RMM:   3    -0.230790965327E+04   -0.75447E-06   -0.12650E-04  3006   0.843E-03    0.332E-02
RMM:   4    -0.230790964362E+04    0.96473E-05   -0.13901E-05  2875   0.310E-03
 162 F= -.23286509E+04 E0= -.23286508E+04  d E =-.314634E-04  mag=     1.9997
       N       E                     dE             d eps       ncg     rms          rms(c)
DAV:   1    -0.230790963588E+04    0.17382E-04   -0.78060E-04  4536   0.245E-02    0.111E-02
RMM:   2    -0.230790965064E+04   -0.14754E-04   -0.10211E-04  3293   0.633E-03    0.236E-02
RMM:   3    -0.230790964465E+04    0.59850E-05   -0.11713E-05  2620   0.354E-03
 163 F= -.23286509E+04 E0= -.23286508E+04  d E =-.309994E-04  mag=     1.9997
       N       E                     dE             d eps       ncg     rms          rms(c)
DAV:   1    -0.230790953989E+04    0.11075E-03   -0.11499E-02  4448   0.926E-02    0.327E-02
RMM:   2    -0.230790967941E+04   -0.13952E-03   -0.14642E-03  5840   0.227E-02    0.226E-02
RMM:   3    -0.230790969383E+04   -0.14425E-04   -0.12199E-04  2977   0.762E-03    0.345E-02
RMM:   4    -0.230790968347E+04    0.10365E-04   -0.15422E-05  2871   0.293E-03    0.824E-03
RMM:   5    -0.230790968281E+04    0.65404E-06   -0.36709E-06  2685   0.153E-03
 164 F= -.23286509E+04 E0= -.23286509E+04  d E =-.290923E-04  mag=     1.9997
       N       E                     dE             d eps       ncg     rms          rms(c)
DAV:   1    -0.230790962993E+04    0.53538E-04   -0.48206E-03  4448   0.599E-02    0.222E-02
RMM:   2    -0.230790969378E+04   -0.63852E-04   -0.61819E-04  4670   0.149E-02    0.255E-02
RMM:   3    -0.230790969401E+04   -0.22657E-06   -0.59765E-05  2895   0.602E-03
 165 F= -.23286509E+04 E0= -.23286509E+04  d E =-.343945E-04  mag=     1.9997
       N       E                     dE             d eps       ncg     rms          rms(c)
DAV:   1    -0.230790967612E+04    0.17657E-04   -0.10597E-03  4280   0.284E-02    0.110E-02
RMM:   2    -0.230790968782E+04   -0.11699E-04   -0.12753E-04  3357   0.691E-03    0.587E-03
RMM:   3    -0.230790968967E+04   -0.18482E-05   -0.15903E-05  2447   0.411E-03
 166 F= -.23286509E+04 E0= -.23286509E+04  d E =-.327764E-04  mag=     1.9997
       N       E                     dE             d eps       ncg     rms          rms(c)
DAV:   1    -0.230790956080E+04    0.12702E-03   -0.10390E-02  4448   0.895E-02    0.325E-02
RMM:   2    -0.230790969543E+04   -0.13463E-03   -0.14433E-03  5803   0.221E-02    0.141E-02
RMM:   3    -0.230790970729E+04   -0.11861E-04   -0.12675E-04  2968   0.792E-03    0.228E-02
RMM:   4    -0.230790970374E+04    0.35537E-05   -0.13796E-05  2837   0.247E-03
 167 F= -.23286509E+04 E0= -.23286509E+04  d E =-.304104E-04  mag=     1.9997
       N       E                     dE             d eps       ncg     rms          rms(c)
DAV:   1    -0.230790967962E+04    0.27671E-04   -0.14499E-03  4384   0.333E-02    0.123E-02
RMM:   2    -0.230790969919E+04   -0.19573E-04   -0.20353E-04  3589   0.833E-03    0.108E-02
RMM:   3    -0.230790970116E+04   -0.19736E-05   -0.21737E-05  2777   0.427E-03
 168 F= -.23286509E+04 E0= -.23286509E+04  d E =-.340155E-04  mag=     1.9997
       N       E                     dE             d eps       ncg     rms          rms(c)
DAV:   1    -0.230790960601E+04    0.93183E-04   -0.78414E-03  4448   0.778E-02    0.284E-02
RMM:   2    -0.230790970749E+04   -0.10148E-03   -0.10863E-03  5568   0.194E-02    0.135E-02
RMM:   3    -0.230790971549E+04   -0.79987E-05   -0.94368E-05  2960   0.714E-03
 169 F= -.23286509E+04 E0= -.23286509E+04  d E =-.289321E-04  mag=     1.9997
       N       E                     dE             d eps       ncg     rms          rms(c)
DAV:   1    -0.230790970134E+04    0.61506E-05   -0.65690E-04  4656   0.227E-02    0.114E-02
RMM:   2    -0.230790971288E+04   -0.11546E-04   -0.10126E-04  3326   0.596E-03    0.180E-02
RMM:   3    -0.230790971081E+04    0.20776E-05   -0.13801E-05  2599   0.372E-03
 170 F= -.23286509E+04 E0= -.23286509E+04  d E =-.284594E-04  mag=     1.9997
       N       E                     dE             d eps       ncg     rms          rms(c)
DAV:   1    -0.230790961118E+04    0.10170E-03   -0.80378E-03  4464   0.825E-02    0.306E-02
RMM:   2    -0.230790972338E+04   -0.11220E-03   -0.11917E-03  5716   0.207E-02    0.160E-02
RMM:   3    -0.230790973452E+04   -0.11138E-04   -0.10044E-04  2912   0.755E-03    0.243E-02
RMM:   4    -0.230790972818E+04    0.63435E-05   -0.13221E-05  2861   0.266E-03
 171 F= -.23286510E+04 E0= -.23286510E+04  d E =-.241921E-04  mag=     1.9997
       N       E                     dE             d eps       ncg     rms          rms(c)
DAV:   1    -0.230790972180E+04    0.12717E-04   -0.31611E-04  4696   0.163E-02    0.877E-03
RMM:   2    -0.230790973006E+04   -0.82571E-05   -0.53801E-05  3080   0.429E-03
 172 F= -.23286510E+04 E0= -.23286510E+04  d E =-.274713E-04  mag=     1.9997
       N       E                     dE             d eps       ncg     rms          rms(c)
DAV:   1    -0.230790961833E+04    0.10347E-03   -0.69746E-03  4432   0.741E-02    0.278E-02
RMM:   2    -0.230790973907E+04   -0.12074E-03   -0.12675E-03  5408   0.203E-02    0.166E-02
RMM:   3    -0.230790975289E+04   -0.13822E-04   -0.13075E-04  2901   0.779E-03    0.242E-02
RMM:   4    -0.230790974650E+04    0.63902E-05   -0.14036E-05  2836   0.265E-03
 173 F= -.23286510E+04 E0= -.23286510E+04  d E =-.174863E-04  mag=     1.9997
       N       E                     dE             d eps       ncg     rms          rms(c)
DAV:   1    -0.230790970904E+04    0.43853E-04   -0.21526E-03  4304   0.409E-02    0.150E-02
RMM:   2    -0.230790974568E+04   -0.36639E-04   -0.38542E-04  3961   0.110E-02    0.963E-03
RMM:   3    -0.230790974959E+04   -0.39166E-05   -0.40130E-05  2837   0.512E-03
 174 F= -.23286510E+04 E0= -.23286510E+04  d E =-.211584E-04  mag=     1.9997
       N       E                     dE             d eps       ncg     rms          rms(c)
DAV:   1    -0.230790968826E+04    0.57415E-04   -0.47029E-03  4416   0.593E-02    0.222E-02
RMM:   2    -0.230790977266E+04   -0.84399E-04   -0.88321E-04  4873   0.165E-02    0.131E-02
RMM:   3    -0.230790978015E+04   -0.74902E-05   -0.82927E-05  2889   0.638E-03
 175 F= -.23286510E+04 E0= -.23286510E+04  d E =-.278412E-04  mag=     1.9997
       N       E                     dE             d eps       ncg     rms          rms(c)
DAV:   1    -0.230790970249E+04    0.70166E-04   -0.45950E-03  4432   0.586E-02    0.223E-02
RMM:   2    -0.230790978358E+04   -0.81090E-04   -0.85682E-04  4844   0.163E-02    0.117E-02
RMM:   3    -0.230790979006E+04   -0.64749E-05   -0.95304E-05  2891   0.683E-03
 176 F= -.23286510E+04 E0= -.23286510E+04  d E =-.350840E-04  mag=     1.9997
       N       E                     dE             d eps       ncg     rms          rms(c)
DAV:   1    -0.230790975818E+04    0.25401E-04   -0.36176E-03  4432   0.545E-02    0.217E-02
RMM:   2    -0.230790981743E+04   -0.59244E-04   -0.54482E-04  4632   0.141E-02    0.336E-02
RMM:   3    -0.230790981300E+04    0.44239E-05   -0.59564E-05  2883   0.616E-03
 177 F= -.23286511E+04 E0= -.23286510E+04  d E =-.280199E-04  mag=     1.9997
       N       E                     dE             d eps       ncg     rms          rms(c)
DAV:   1    -0.230790979381E+04    0.23617E-04   -0.12186E-03  4392   0.316E-02    0.132E-02
RMM:   2    -0.230790981078E+04   -0.16976E-04   -0.18242E-04  3557   0.835E-03    0.102E-02
RMM:   3    -0.230790981324E+04   -0.24589E-05   -0.23174E-05  2817   0.450E-03
 178 F= -.23286511E+04 E0= -.23286510E+04  d E =-.312199E-04  mag=     1.9997
       N       E                     dE             d eps       ncg     rms          rms(c)
DAV:   1    -0.230790979141E+04    0.19373E-04   -0.26457E-03  4464   0.470E-02    0.179E-02
RMM:   2    -0.230790982073E+04   -0.29315E-04   -0.31832E-04  4133   0.116E-02    0.895E-03
RMM:   3    -0.230790982240E+04   -0.16743E-05   -0.28857E-05  2884   0.561E-03
 179 F= -.23286511E+04 E0= -.23286511E+04  d E =-.142981E-04  mag=     1.9997
       N       E                     dE             d eps       ncg     rms          rms(c)
DAV:   1    -0.230790981981E+04    0.91358E-06   -0.91972E-05  4928   0.907E-03    0.668E-03
RMM:   2    -0.230790982242E+04   -0.26054E-05   -0.14897E-05  2574   0.271E-03
 180 F= -.23286511E+04 E0= -.23286511E+04  d E =-.152582E-04  mag=     1.9997
       N       E                     dE             d eps       ncg     rms          rms(c)
DAV:   1    -0.230790979656E+04    0.23248E-04   -0.26005E-03  4400   0.440E-02    0.166E-02
RMM:   2    -0.230790982645E+04   -0.29887E-04   -0.29106E-04  3903   0.106E-02    0.201E-02
RMM:   3    -0.230790982521E+04    0.12419E-05   -0.31130E-05  2691   0.574E-03
 181 F= -.23286511E+04 E0= -.23286511E+04  d E =-.146387E-04  mag=     1.9997
       N       E                     dE             d eps       ncg     rms          rms(c)
DAV:   1    -0.230790981270E+04    0.13748E-04   -0.55845E-04  4432   0.204E-02    0.933E-03
RMM:   2    -0.230790981984E+04   -0.71330E-05   -0.67112E-05  3124   0.524E-03
 182 F= -.23286511E+04 E0= -.23286511E+04  d E =-.148068E-04  mag=     1.9997
       N       E                     dE             d eps       ncg     rms          rms(c)
DAV:   1    -0.230790977921E+04    0.33490E-04   -0.29716E-03  4416   0.477E-02    0.196E-02
RMM:   2    -0.230790982575E+04   -0.46536E-04   -0.37746E-04  4304   0.123E-02    0.368E-02
RMM:   3    -0.230790981334E+04    0.12405E-04   -0.40204E-05  2875   0.585E-03    0.112E-02
RMM:   4    -0.230790981214E+04    0.12012E-05   -0.46333E-06  2623   0.200E-03
 183 F= -.23286511E+04 E0= -.23286511E+04  d E =-.112337E-04  mag=     1.9997
       N       E                     dE             d eps       ncg     rms          rms(c)
DAV:   1    -0.230790980930E+04    0.40460E-05   -0.51474E-05  4088   0.660E-03    0.933E-03
RMM:   2    -0.230790982063E+04   -0.11329E-04   -0.20116E-05  2594   0.333E-03    0.331E-02
RMM:   3    -0.230790980911E+04    0.11518E-04   -0.67158E-06  2181   0.209E-03    0.228E-03
RMM:   4    -0.230790980905E+04    0.62486E-07   -0.84878E-07  1226   0.762E-04
 184 F= -.23286511E+04 E0= -.23286511E+04  d E =-.107202E-04  mag=     1.9997
       N       E                     dE             d eps       ncg     rms          rms(c)
DAV:   1    -0.230790976500E+04    0.44109E-04   -0.31799E-03  4456   0.502E-02    0.192E-02
RMM:   2    -0.230790980210E+04   -0.37097E-04   -0.36334E-04  4333   0.117E-02    0.220E-02
RMM:   3    -0.230790980114E+04    0.96031E-06   -0.35247E-05  2781   0.545E-03
 185 F= -.23286511E+04 E0= -.23286511E+04  d E =-.158832E-04  mag=     1.9997
       N       E                     dE             d eps       ncg     rms          rms(c)
DAV:   1    -0.230790979137E+04    0.10733E-04   -0.14187E-04  4824   0.109E-02    0.603E-03
RMM:   2    -0.230790979311E+04   -0.17469E-05   -0.19250E-05  2586   0.284E-03
 186 F= -.23286511E+04 E0= -.23286511E+04  d E =-.128758E-04  mag=     1.9997
       N       E                     dE             d eps       ncg     rms          rms(c)
DAV:   1    -0.230790975497E+04    0.36395E-04   -0.31417E-03  4384   0.492E-02    0.187E-02
RMM:   2    -0.230790979650E+04   -0.41526E-04   -0.39742E-04  4265   0.122E-02    0.230E-02
RMM:   3    -0.230790979418E+04    0.23128E-05   -0.41038E-05  2868   0.592E-03
 187 F= -.23286511E+04 E0= -.23286511E+04  d E =-.130662E-04  mag=     1.9997
       N       E                     dE             d eps       ncg     rms          rms(c)
DAV:   1    -0.230790979165E+04    0.48457E-05   -0.91616E-06  3752   0.370E-03    0.477E-03
RMM:   2    -0.230790979140E+04    0.24751E-06   -0.15614E-06  2180   0.152E-03
 188 F= -.23286511E+04 E0= -.23286511E+04  d E =-.100960E-04  mag=     1.9997
       N       E                     dE             d eps       ncg     rms          rms(c)
DAV:   1    -0.230790977756E+04    0.14094E-04   -0.21175E-03  4432   0.429E-02    0.169E-02
RMM:   2    -0.230790980483E+04   -0.27278E-04   -0.24408E-04  3899   0.103E-02    0.233E-02
RMM:   3    -0.230790980192E+04    0.29127E-05   -0.26131E-05  2657   0.523E-03
 189 F= -.23286511E+04 E0= -.23286511E+04  d E =-.147856E-04  mag=     1.9997
       N       E                     dE             d eps       ncg     rms          rms(c)
DAV:   1    -0.230790979783E+04    0.70063E-05   -0.13673E-04  4576   0.111E-02    0.567E-03
RMM:   2    -0.230790979936E+04   -0.15354E-05   -0.18527E-05  2613   0.299E-03
 190 F= -.23286511E+04 E0= -.23286511E+04  d E =-.133154E-04  mag=     1.9997
       N       E                     dE             d eps       ncg     rms          rms(c)
DAV:   1    -0.230790977482E+04    0.23009E-04   -0.19755E-03  4392   0.419E-02    0.158E-02
RMM:   2    -0.230790979915E+04   -0.24334E-04   -0.24315E-04  3893   0.103E-02    0.155E-02
RMM:   3    -0.230790980063E+04   -0.14784E-05   -0.29945E-05  2746   0.568E-03
 191 F= -.23286511E+04 E0= -.23286511E+04  d E =-.990396E-05  mag=     1.9997
       N       E                     dE             d eps       ncg     rms          rms(c)
DAV:   1    -0.230790979878E+04    0.36911E-06   -0.21553E-05  3944   0.508E-03    0.457E-03
RMM:   2    -0.230790979930E+04   -0.52118E-06   -0.36411E-06  2233   0.231E-03
 192 F= -.23286511E+04 E0= -.23286511E+04  d E =-.786461E-05  mag=     1.9997
       N       E                     dE             d eps       ncg     rms          rms(c)
DAV:   1    -0.230790978029E+04    0.18495E-04   -0.17481E-03  4400   0.409E-02    0.149E-02
RMM:   2    -0.230790980203E+04   -0.21744E-04   -0.23183E-04  3868   0.100E-02    0.934E-03
RMM:   3    -0.230790980511E+04   -0.30794E-05   -0.22704E-05  2587   0.502E-03
 193 F= -.23286512E+04 E0= -.23286511E+04  d E =-.108291E-04  mag=     1.9997
       N       E                     dE             d eps       ncg     rms          rms(c)
DAV:   1    -0.230790980269E+04   -0.65911E-06   -0.48260E-06  3112   0.314E-03    0.360E-03
RMM:   2    -0.230790980274E+04   -0.50000E-07   -0.82826E-07  2087   0.124E-03
 194 F= -.23286512E+04 E0= -.23286511E+04  d E =-.844593E-05  mag=     1.9997
       N       E                     dE             d eps       ncg     rms          rms(c)
DAV:   1    -0.230790979484E+04    0.78539E-05   -0.88615E-04  4200   0.279E-02    0.997E-03
RMM:   2    -0.230790980776E+04   -0.12928E-04   -0.13326E-04  3386   0.720E-03    0.976E-03
RMM:   3    -0.230790980895E+04   -0.11821E-05   -0.14634E-05  2328   0.386E-03
 195 F= -.23286512E+04 E0= -.23286511E+04  d E =-.772887E-05  mag=     1.9997
       N       E                     dE             d eps       ncg     rms          rms(c)
DAV:   1    -0.230790980751E+04    0.25368E-06   -0.16927E-05  3712   0.427E-03    0.323E-03
RMM:   2    -0.230790980785E+04   -0.34174E-06   -0.34874E-06  2258   0.194E-03
 196 F= -.23286512E+04 E0= -.23286511E+04  d E =-.683779E-05  mag=     1.9997
       N       E                     dE             d eps       ncg     rms          rms(c)
DAV:   1    -0.230790980758E+04   -0.71770E-07   -0.46920E-04  4160   0.207E-02    0.797E-03
RMM:   2    -0.230790981482E+04   -0.72403E-05   -0.70319E-05  3009   0.545E-03
 197 F= -.23286512E+04 E0= -.23286511E+04  d E =-.667785E-05  mag=     1.9997
       N       E                     dE             d eps       ncg     rms          rms(c)
DAV:   1    -0.230790981475E+04   -0.71703E-05   -0.41482E-05  3560   0.706E-03    0.773E-03
RMM:   2    -0.230790982191E+04   -0.71559E-05   -0.18353E-05  2440   0.401E-03
 198 F= -.23286512E+04 E0= -.23286512E+04  d E =-.136867E-04  mag=     1.9997
       N       E                     dE             d eps       ncg     rms          rms(c)
DAV:   1    -0.230790981104E+04    0.37088E-05   -0.33308E-04  4192   0.173E-02    0.682E-03
RMM:   2    -0.230790981625E+04   -0.52028E-05   -0.56034E-05  2900   0.475E-03
 199 F= -.23286512E+04 E0= -.23286512E+04  d E =0.218318E-05  mag=     1.9997
       N       E                     dE             d eps       ncg     rms          rms(c)
DAV:   1    -0.230790981664E+04   -0.55980E-05   -0.83904E-06  2480   0.395E-03    0.656E-03
RMM:   2    -0.230790982179E+04   -0.51520E-05   -0.85471E-06  2184   0.187E-03
 200 F= -.23286512E+04 E0= -.23286512E+04  d E =-.354028E-05  mag=     1.9997
       N       E                     dE             d eps       ncg     rms          rms(c)
DAV:   1    -0.230790980912E+04    0.75260E-05   -0.26792E-04  4248   0.152E-02    0.605E-03
RMM:   2    -0.230790981444E+04   -0.53199E-05   -0.54288E-05  2890   0.436E-03
 201 F= -.23286512E+04 E0= -.23286512E+04  d E =0.301585E-05  mag=     1.9997
