       N       E                     dE             d eps       ncg     rms          rms(c)
DAV:   1     0.121269497516E+05    0.12127E+05   -0.83264E+05  4640   0.140E+03
DAV:   2    -0.129381893199E+04   -0.13421E+05   -0.12910E+05  5120   0.318E+02
DAV:   3    -0.248968044938E+04   -0.11959E+04   -0.11864E+04  5520   0.101E+02
DAV:   4    -0.251473524895E+04   -0.25055E+02   -0.24942E+02  5760   0.175E+01
DAV:   5    -0.251535852238E+04   -0.62327E+00   -0.62226E+00  5840   0.245E+00    0.170E+02
RMM:   6    -0.147567541641E+04    0.10397E+04   -0.18874E+03  4495   0.375E+01    0.729E+01
RMM:   7    -0.165891872843E+04   -0.18324E+03   -0.27516E+02  5087   0.134E+01    0.568E+01
RMM:   8    -0.169190068915E+04   -0.32982E+02   -0.80409E+01  5320   0.756E+00    0.425E+01
RMM:   9    -0.177843404378E+04   -0.86533E+02   -0.56622E+01  4932   0.740E+00    0.326E+01
RMM:  10    -0.190815657831E+04   -0.12972E+03   -0.55881E+01  5071   0.700E+00    0.198E+01
RMM:  11    -0.202949398005E+04   -0.12134E+03   -0.52120E+01  4938   0.580E+00    0.152E+01
RMM:  12    -0.214507841146E+04   -0.11558E+03   -0.69808E+01  4591   0.621E+00    0.112E+01
RMM:  13    -0.226081616511E+04   -0.11574E+03   -0.10332E+02  4521   0.693E+00    0.720E+00
RMM:  14    -0.229699487414E+04   -0.36179E+02   -0.35393E+01  4695   0.462E+00    0.370E+00
RMM:  15    -0.230599735807E+04   -0.90025E+01   -0.11241E+01  4922   0.242E+00    0.248E+00
RMM:  16    -0.230881147999E+04   -0.28141E+01   -0.29101E+00  4871   0.121E+00    0.162E+00
RMM:  17    -0.231020796528E+04   -0.13965E+01   -0.88875E-01  4848   0.637E-01    0.124E+00
RMM:  18    -0.231065534281E+04   -0.44738E+00   -0.23197E-01  5008   0.348E-01    0.105E+00
RMM:  19    -0.231079526606E+04   -0.13992E+00   -0.64205E-02  4725   0.158E-01    0.954E-01
RMM:  20    -0.231085350283E+04   -0.58237E-01   -0.32790E-02  4548   0.123E-01    0.821E-01
RMM:  21    -0.231090143251E+04   -0.47930E-01   -0.36514E-02  4511   0.126E-01    0.575E-01
RMM:  22    -0.231094301602E+04   -0.41584E-01   -0.23076E-02  4495   0.128E-01    0.383E-01
RMM:  23    -0.231097465692E+04   -0.31641E-01   -0.17395E-02  4525   0.940E-02    0.218E-01
RMM:  24    -0.231097797408E+04   -0.33172E-02   -0.49409E-03  4539   0.696E-02    0.138E-01
RMM:  25    -0.231098261517E+04   -0.46411E-02   -0.39389E-03  4507   0.437E-02    0.910E-02
RMM:  26    -0.231098378174E+04   -0.11666E-02   -0.89675E-04  4124   0.256E-02    0.516E-02
RMM:  27    -0.231098522241E+04   -0.14407E-02   -0.99548E-04  4141   0.180E-02    0.300E-02
RMM:  28    -0.231098550485E+04   -0.28244E-03   -0.17284E-04  3724   0.139E-02    0.118E-02
RMM:  29    -0.231098571105E+04   -0.20620E-03   -0.98107E-05  3717   0.657E-03    0.773E-03
RMM:  30    -0.231098581582E+04   -0.10477E-03   -0.34722E-05  3262   0.621E-03    0.380E-03
RMM:  31    -0.231098586238E+04   -0.46560E-04   -0.15735E-05  3025   0.361E-03    0.245E-03
RMM:  32    -0.231098588549E+04   -0.23115E-04   -0.60099E-06  2837   0.277E-03    0.211E-03
RMM:  33    -0.231098589633E+04   -0.10834E-04   -0.30425E-06  2501   0.197E-03    0.110E-03
RMM:  34    -0.231098590710E+04   -0.10774E-04   -0.27661E-06  2455   0.162E-03    0.817E-04
RMM:  35    -0.231098590969E+04   -0.25917E-05   -0.13782E-06  2410   0.151E-03
   1 F= -.23314261E+04 E0= -.23314261E+04  d E =-.687546E-06  mag=     5.0000
       N       E                     dE             d eps       ncg     rms          rms(c)
DAV:   1    -0.231100982428E+04   -0.23917E-01   -0.21681E+00  4480   0.602E-01    0.333E-01
RMM:   2    -0.231101054856E+04   -0.72427E-03   -0.10764E-02  4263   0.425E-02    0.356E-01
RMM:   3    -0.231100982110E+04    0.72746E-03   -0.23156E-03  4693   0.192E-02    0.196E-01
RMM:   4    -0.231100951268E+04    0.30841E-03   -0.88526E-04  4011   0.123E-02    0.654E-02
RMM:   5    -0.231100952327E+04   -0.10585E-04   -0.14639E-04  3120   0.830E-03    0.175E-02
RMM:   6    -0.231100952157E+04    0.17024E-05   -0.21335E-05  2943   0.327E-03
   2 F= -.23314498E+04 E0= -.23314498E+04  d E =-.247122E-07  mag=     5.0000
       N       E                     dE             d eps       ncg     rms          rms(c)
DAV:   1    -0.231092091665E+04    0.88607E-01   -0.85752E+00  4480   0.118E+00    0.658E-01
RMM:   2    -0.231092397657E+04   -0.30599E-02   -0.42323E-02  4425   0.871E-02    0.726E-01
RMM:   3    -0.231092081203E+04    0.31645E-02   -0.89588E-03  5282   0.408E-02    0.385E-01
RMM:   4    -0.231091958377E+04    0.12283E-02   -0.34172E-03  4501   0.235E-02    0.127E-01
RMM:   5    -0.231091967143E+04   -0.87658E-04   -0.58125E-04  3628   0.162E-02    0.355E-02
RMM:   6    -0.231091966619E+04    0.52384E-05   -0.79220E-05  3194   0.545E-03
   3 F= -.23313598E+04 E0= -.23313598E+04  d E =-.129851E-04  mag=     4.9999
       N       E                     dE             d eps       ncg     rms          rms(c)
DAV:   1    -0.231100445631E+04   -0.84785E-01   -0.40659E+00  4480   0.894E-01    0.435E-01
RMM:   2    -0.231100568262E+04   -0.12263E-02   -0.22192E-02  4428   0.649E-02    0.467E-01
RMM:   3    -0.231100436472E+04    0.13179E-02   -0.40264E-03  5082   0.275E-02    0.259E-01
RMM:   4    -0.231100382405E+04    0.54066E-03   -0.15822E-03  4468   0.174E-02    0.120E-01
RMM:   5    -0.231100385360E+04   -0.29544E-04   -0.34965E-04  3424   0.120E-02    0.627E-02
RMM:   6    -0.231100387298E+04   -0.19380E-04   -0.10236E-04  3159   0.583E-03    0.430E-02
RMM:   7    -0.231100389186E+04   -0.18885E-04   -0.66205E-05  2986   0.526E-03    0.277E-02
RMM:   8    -0.231100390224E+04   -0.10378E-04   -0.37679E-05  2920   0.394E-03    0.155E-02
RMM:   9    -0.231100390681E+04   -0.45708E-05   -0.20472E-05  2854   0.310E-03
   4 F= -.23314424E+04 E0= -.23314424E+04  d E =-.423429E-07  mag=     5.0000
       N       E                     dE             d eps       ncg     rms          rms(c)
DAV:   1    -0.231095655834E+04    0.47344E-01   -0.77443E+00  4480   0.126E+00    0.579E-01
RMM:   2    -0.231095787598E+04   -0.13176E-02   -0.35437E-02  4324   0.823E-02    0.362E-01
RMM:   3    -0.231095773606E+04    0.13992E-03   -0.55913E-03  5438   0.380E-02    0.379E-01
RMM:   4    -0.231095699363E+04    0.74243E-03   -0.26773E-03  5257   0.201E-02    0.222E-01
RMM:   5    -0.231095693342E+04    0.60209E-04   -0.64775E-04  3894   0.144E-02    0.101E-01
RMM:   6    -0.231095701917E+04   -0.85745E-04   -0.25861E-04  3265   0.915E-03    0.735E-02
RMM:   7    -0.231095708763E+04   -0.68461E-04   -0.19741E-04  3232   0.761E-03    0.427E-02
RMM:   8    -0.231095711854E+04   -0.30906E-04   -0.10888E-04  2995   0.597E-03    0.244E-02
RMM:   9    -0.231095713083E+04   -0.12293E-04   -0.60138E-05  2945   0.449E-03    0.111E-02
RMM:  10    -0.231095713516E+04   -0.43297E-05   -0.17060E-05  2860   0.335E-03
   5 F= -.23313994E+04 E0= -.23313994E+04  d E =-.681111E-05  mag=     5.0000
       N       E                     dE             d eps       ncg     rms          rms(c)
DAV:   1    -0.231101690030E+04   -0.59769E-01   -0.38058E+00  4480   0.861E-01    0.416E-01
RMM:   2    -0.231101764552E+04   -0.74523E-03   -0.19269E-02  4206   0.595E-02    0.231E-01
RMM:   3    -0.231101677556E+04    0.86997E-03   -0.19993E-03  4974   0.273E-02    0.128E-01
RMM:   4    -0.231101697758E+04   -0.20203E-03   -0.92929E-04  4056   0.146E-02    0.131E-01
RMM:   5    -0.231101686269E+04    0.11490E-03   -0.24734E-04  3249   0.817E-03    0.475E-02
RMM:   6    -0.231101686515E+04   -0.24599E-05   -0.44374E-05  2979   0.461E-03
   6 F= -.23314556E+04 E0= -.23314556E+04  d E =-.135126E-06  mag=     5.0000
       N       E                     dE             d eps       ncg     rms          rms(c)
DAV:   1    -0.231092163539E+04    0.95227E-01   -0.77395E+00  4480   0.119E+00    0.651E-01
RMM:   2    -0.231092167033E+04   -0.34947E-04   -0.54378E-02  4339   0.942E-02    0.445E-01
RMM:   3    -0.231092061641E+04    0.10539E-02   -0.81507E-03  5868   0.381E-02    0.516E-01
RMM:   4    -0.231091818486E+04    0.24315E-02   -0.49971E-03  5342   0.279E-02    0.199E-01
RMM:   5    -0.231091786936E+04    0.31550E-03   -0.70475E-04  4064   0.155E-02    0.620E-02
RMM:   6    -0.231091785721E+04    0.12147E-04   -0.14549E-04  3289   0.773E-03    0.395E-02
RMM:   7    -0.231091786005E+04   -0.28390E-05   -0.86376E-05  3199   0.580E-03
   7 F= -.23313598E+04 E0= -.23313598E+04  d E =-.418952E-05  mag=     5.0000
       N       E                     dE             d eps       ncg     rms          rms(c)
DAV:   1    -0.231097572524E+04   -0.57868E-01   -0.70739E+00  4480   0.114E+00    0.602E-01
RMM:   2    -0.231097887701E+04   -0.31518E-02   -0.75528E-02  4265   0.109E-01    0.325E-01
RMM:   3    -0.231097828118E+04    0.59583E-03   -0.50877E-03  5171   0.322E-02    0.350E-01
RMM:   4    -0.231097740205E+04    0.87913E-03   -0.24244E-03  4861   0.199E-02    0.166E-01
RMM:   5    -0.231097718749E+04    0.21455E-03   -0.49520E-04  3657   0.113E-02    0.336E-02
RMM:   6    -0.231097720230E+04   -0.14803E-04   -0.62024E-05  3013   0.651E-03    0.188E-02
RMM:   7    -0.231097720551E+04   -0.32099E-05   -0.32721E-05  2996   0.371E-03
   8 F= -.23314170E+04 E0= -.23314170E+04  d E =-.162949E-05  mag=     5.0000
       N       E                     dE             d eps       ncg     rms          rms(c)
DAV:   1    -0.231095544207E+04    0.21760E-01   -0.20526E+01  4480   0.206E+00    0.103E+00
RMM:   2    -0.231094837376E+04    0.70683E-02   -0.12481E-01  4280   0.137E-01    0.461E-01
RMM:   3    -0.231094601310E+04    0.23607E-02   -0.10127E-02  5332   0.483E-02    0.270E-01
RMM:   4    -0.231094651929E+04   -0.50619E-03   -0.36901E-03  5197   0.249E-02    0.333E-01
RMM:   5    -0.231094567952E+04    0.83977E-03   -0.14612E-03  4422   0.155E-02    0.687E-02
RMM:   6    -0.231094570951E+04   -0.29987E-04   -0.13147E-04  3054   0.703E-03    0.262E-02
RMM:   7    -0.231094570301E+04    0.65011E-05   -0.34415E-05  2919   0.366E-03
   9 F= -.23313862E+04 E0= -.23313862E+04  d E =-.250972E-06  mag=     5.0000
       N       E                     dE             d eps       ncg     rms          rms(c)
DAV:   1    -0.231097384686E+04   -0.28137E-01   -0.10377E+01  4480   0.150E+00    0.542E-01
RMM:   2    -0.231097461351E+04   -0.76664E-03   -0.49671E-02  4215   0.994E-02    0.265E-01
RMM:   3    -0.231097391992E+04    0.69359E-03   -0.36578E-03  4936   0.321E-02    0.212E-01
RMM:   4    -0.231097383286E+04    0.87054E-04   -0.12994E-03  4389   0.157E-02    0.170E-01
RMM:   5    -0.231097364712E+04    0.18574E-03   -0.48131E-04  3589   0.113E-02    0.374E-02
RMM:   6    -0.231097366039E+04   -0.13263E-04   -0.56512E-05  2999   0.654E-03    0.201E-02
RMM:   7    -0.231097366322E+04   -0.28345E-05   -0.30860E-05  2938   0.355E-03
  10 F= -.23314140E+04 E0= -.23314140E+04  d E =-.865535E-06  mag=     5.0000
       N       E                     dE             d eps       ncg     rms          rms(c)
DAV:   1    -0.231098987166E+04   -0.16211E-01   -0.20842E+01  4480   0.210E+00    0.636E-01
RMM:   2    -0.231099175186E+04   -0.18802E-02   -0.76504E-02  4280   0.131E-01    0.365E-01
RMM:   3    -0.231099053614E+04    0.12157E-02   -0.62201E-03  5293   0.381E-02    0.268E-01
RMM:   4    -0.231099061920E+04   -0.83066E-04   -0.28817E-03  5002   0.233E-02    0.253E-01
RMM:   5    -0.231099012191E+04    0.49730E-03   -0.79495E-04  4101   0.146E-02    0.520E-02
RMM:   6    -0.231099012649E+04   -0.45828E-05   -0.10849E-04  3178   0.730E-03    0.325E-02
RMM:   7    -0.231099012809E+04   -0.15987E-05   -0.42236E-05  3000   0.459E-03
  11 F= -.23314301E+04 E0= -.23314301E+04  d E =-.545567E-06  mag=     5.0000
       N       E                     dE             d eps       ncg     rms          rms(c)
DAV:   1    -0.231095451119E+04    0.35615E-01   -0.10418E+01  4480   0.155E+00    0.479E-01
RMM:   2    -0.231095637848E+04   -0.18673E-02   -0.48436E-02  4181   0.950E-02    0.259E-01
RMM:   3    -0.231095578148E+04    0.59701E-03   -0.38004E-03  5115   0.280E-02    0.286E-01
RMM:   4    -0.231095520683E+04    0.57465E-03   -0.15819E-03  4162   0.165E-02    0.119E-01
RMM:   5    -0.231095508582E+04    0.12100E-03   -0.33665E-04  3578   0.105E-02    0.305E-02
RMM:   6    -0.231095508678E+04   -0.95942E-06   -0.46218E-05  2995   0.600E-03
  12 F= -.23313946E+04 E0= -.23313946E+04  d E =-.169223E-05  mag=     5.0000
       N       E                     dE             d eps       ncg     rms          rms(c)
DAV:   1    -0.231098630202E+04   -0.31216E-01   -0.20065E+01  4480   0.191E+00    0.909E-01
RMM:   2    -0.231098794809E+04   -0.16461E-02   -0.13846E-01  4323   0.161E-01    0.479E-01
RMM:   3    -0.231098490915E+04    0.30389E-02   -0.15667E-02  5977   0.636E-02    0.438E-01
RMM:   4    -0.231098368215E+04    0.12270E-02   -0.57204E-03  5488   0.283E-02    0.231E-01
RMM:   5    -0.231098313659E+04    0.54556E-03   -0.62888E-04  4337   0.131E-02    0.554E-02
RMM:   6    -0.231098311909E+04    0.17497E-04   -0.11782E-04  3285   0.740E-03    0.315E-02
RMM:   7    -0.231098313455E+04   -0.15463E-04   -0.74676E-05  3276   0.574E-03    0.131E-02
RMM:   8    -0.231098314840E+04   -0.13843E-04   -0.15857E-05  2958   0.454E-03    0.740E-03
RMM:   9    -0.231098316498E+04   -0.16583E-04   -0.12742E-05  2914   0.305E-03    0.492E-03
RMM:  10    -0.231098317569E+04   -0.10712E-04   -0.67908E-06  2872   0.307E-03    0.282E-03
RMM:  11    -0.231098318230E+04   -0.66113E-05   -0.57543E-06  2826   0.238E-03
  13 F= -.23314240E+04 E0= -.23314240E+04  d E =-.289591E-06  mag=     5.0000
       N       E                     dE             d eps       ncg     rms          rms(c)
DAV:   1    -0.231099065993E+04   -0.74842E-02   -0.53222E+00  4480   0.104E+00    0.451E-01
RMM:   2    -0.231099150429E+04   -0.84437E-03   -0.34372E-02  4225   0.778E-02    0.271E-01
RMM:   3    -0.231099125202E+04    0.25227E-03   -0.41201E-03  5348   0.280E-02    0.355E-01
RMM:   4    -0.231099012809E+04    0.11239E-02   -0.19474E-03  4951   0.178E-02    0.959E-02
RMM:   5    -0.231099003043E+04    0.97657E-04   -0.23381E-04  3380   0.927E-03    0.268E-02
RMM:   6    -0.231099002319E+04    0.72412E-05   -0.39531E-05  2999   0.458E-03
  14 F= -.23314301E+04 E0= -.23314301E+04  d E =-.525893E-07  mag=     5.0000
       N       E                     dE             d eps       ncg     rms          rms(c)
DAV:   1    -0.231097832121E+04    0.11709E-01   -0.11058E+00  4480   0.393E-01    0.314E-01
RMM:   2    -0.231097951393E+04   -0.11927E-02   -0.87451E-03  4611   0.351E-02    0.385E-01
RMM:   3    -0.231097848439E+04    0.10295E-02   -0.22600E-03  4626   0.190E-02    0.175E-01
RMM:   4    -0.231097819387E+04    0.29053E-03   -0.42416E-04  3850   0.891E-03    0.636E-02
RMM:   5    -0.231097819910E+04   -0.52333E-05   -0.12225E-04  3237   0.592E-03    0.421E-02
RMM:   6    -0.231097818831E+04    0.10785E-04   -0.28129E-05  2853   0.355E-03    0.106E-02
RMM:   7    -0.231097818948E+04   -0.11641E-05   -0.70191E-06  2706   0.196E-03
  15 F= -.23314185E+04 E0= -.23314185E+04  d E =-.754098E-05  mag=     5.0000
       N       E                     dE             d eps       ncg     rms          rms(c)
DAV:   1    -0.231097302896E+04    0.51594E-02   -0.53855E-01  4480   0.296E-01    0.216E-01
RMM:   2    -0.231097375354E+04   -0.72458E-03   -0.45026E-03  4167   0.259E-02    0.271E-01
RMM:   3    -0.231097318921E+04    0.56433E-03   -0.95713E-04  3803   0.129E-02    0.116E-01
RMM:   4    -0.231097306447E+04    0.12474E-03   -0.18600E-04  3386   0.642E-03    0.364E-02
RMM:   5    -0.231097306591E+04   -0.14424E-05   -0.47882E-05  2923   0.434E-03
  16 F= -.23314156E+04 E0= -.23314156E+04  d E =-.612675E-06  mag=     5.0000
       N       E                     dE             d eps       ncg     rms          rms(c)
DAV:   1    -0.231099388970E+04   -0.20825E-01   -0.10514E+00  4480   0.411E-01    0.279E-01
RMM:   2    -0.231099392765E+04   -0.37956E-04   -0.66240E-03  4165   0.304E-02    0.203E-01
RMM:   3    -0.231099393525E+04   -0.75975E-05   -0.15112E-03  4370   0.161E-02    0.237E-01
RMM:   4    -0.231099348553E+04    0.44972E-03   -0.56267E-04  3604   0.100E-02    0.593E-02
RMM:   5    -0.231099347682E+04    0.87100E-05   -0.10131E-04  3030   0.542E-03    0.218E-02
RMM:   6    -0.231099348139E+04   -0.45693E-05   -0.19384E-05  2820   0.350E-03
  17 F= -.23314317E+04 E0= -.23314317E+04  d E =-.695705E-06  mag=     5.0000
       N       E                     dE             d eps       ncg     rms          rms(c)
DAV:   1    -0.231097125827E+04    0.22219E-01   -0.51558E-01  4480   0.297E-01    0.252E-01
RMM:   2    -0.231097077330E+04    0.48496E-03   -0.47079E-03  3982   0.244E-02    0.143E-01
RMM:   3    -0.231097074625E+04    0.27052E-04   -0.98135E-04  4216   0.146E-02    0.181E-01
RMM:   4    -0.231097048620E+04    0.26006E-03   -0.40321E-04  3255   0.826E-03    0.623E-02
RMM:   5    -0.231097045834E+04    0.27852E-04   -0.79527E-05  3028   0.472E-03    0.207E-02
RMM:   6    -0.231097045969E+04   -0.13423E-05   -0.14691E-05  2812   0.302E-03
  18 F= -.23314124E+04 E0= -.23314124E+04  d E =-.348006E-05  mag=     5.0000
       N       E                     dE             d eps       ncg     rms          rms(c)
DAV:   1    -0.231100177704E+04   -0.31319E-01   -0.10680E+00  4480   0.405E-01    0.298E-01
RMM:   2    -0.231100133142E+04    0.44562E-03   -0.64782E-03  4187   0.304E-02    0.167E-01
RMM:   3    -0.231100110494E+04    0.22648E-03   -0.95714E-04  4139   0.158E-02    0.135E-01
RMM:   4    -0.231100109917E+04    0.57705E-05   -0.61471E-04  3773   0.941E-03    0.128E-01
RMM:   5    -0.231100097040E+04    0.12877E-03   -0.16954E-04  3055   0.659E-03    0.303E-02
RMM:   6    -0.231100097589E+04   -0.54923E-05   -0.36769E-05  2876   0.346E-03
  19 F= -.23314396E+04 E0= -.23314396E+04  d E =-.134400E-06  mag=     5.0000
       N       E                     dE             d eps       ncg     rms          rms(c)
DAV:   1    -0.231097381442E+04    0.27156E-01   -0.58691E-01  4720   0.313E-01    0.347E-01
RMM:   2    -0.231097202482E+04    0.17896E-02   -0.96701E-03  4103   0.342E-02    0.172E-01
RMM:   3    -0.231097164625E+04    0.37857E-03   -0.11462E-03  4104   0.181E-02    0.920E-02
RMM:   4    -0.231097163370E+04    0.12554E-04   -0.31918E-04  3567   0.741E-03    0.698E-02
RMM:   5    -0.231097162449E+04    0.92122E-05   -0.15903E-04  2886   0.592E-03    0.555E-02
RMM:   6    -0.231097160097E+04    0.23517E-04   -0.29586E-05  2796   0.327E-03    0.114E-02
RMM:   7    -0.231097160023E+04    0.73752E-06   -0.47913E-06  2618   0.198E-03
  20 F= -.23314124E+04 E0= -.23314124E+04  d E =-.938029E-06  mag=     5.0000
       N       E                     dE             d eps       ncg     rms          rms(c)
DAV:   1    -0.231098354472E+04   -0.11944E-01   -0.13067E+00  5040   0.455E-01    0.605E-01
RMM:   2    -0.231097821724E+04    0.53275E-02   -0.20547E-02  4357   0.476E-02    0.314E-01
RMM:   3    -0.231097728718E+04    0.93006E-03   -0.32965E-03  4387   0.297E-02    0.192E-01
RMM:   4    -0.231097742929E+04   -0.14211E-03   -0.15984E-03  4251   0.154E-02    0.207E-01
RMM:   5    -0.231097707299E+04    0.35630E-03   -0.56478E-04  3717   0.102E-02    0.602E-02
RMM:   6    -0.231097705422E+04    0.18776E-04   -0.61921E-05  2973   0.459E-03    0.157E-02
RMM:   7    -0.231097705325E+04    0.96837E-06   -0.10915E-05  2768   0.251E-03
  21 F= -.23314167E+04 E0= -.23314167E+04  d E =-.525699E-06  mag=     5.0000
       N       E                     dE             d eps       ncg     rms          rms(c)
DAV:   1    -0.231097515104E+04    0.19032E-02   -0.62890E-01  4560   0.298E-01    0.313E-01
RMM:   2    -0.231097453822E+04    0.61282E-03   -0.38142E-03  3761   0.220E-02    0.178E-01
RMM:   3    -0.231097452798E+04    0.10237E-04   -0.10416E-03  4178   0.137E-02    0.168E-01
RMM:   4    -0.231097434484E+04    0.18314E-03   -0.44428E-04  3347   0.892E-03    0.677E-02
RMM:   5    -0.231097431407E+04    0.30776E-04   -0.71110E-05  2996   0.499E-03    0.150E-02
RMM:   6    -0.231097431505E+04   -0.98719E-06   -0.10386E-05  2741   0.250E-03
  22 F= -.23314141E+04 E0= -.23314141E+04  d E =-.999399E-06  mag=     5.0000
       N       E                     dE             d eps       ncg     rms          rms(c)
DAV:   1    -0.231099392645E+04   -0.19612E-01   -0.12420E+00  4640   0.421E-01    0.422E-01
RMM:   2    -0.231099273258E+04    0.11939E-02   -0.78423E-03  4122   0.306E-02    0.237E-01
RMM:   3    -0.231099247195E+04    0.26063E-03   -0.14496E-03  4263   0.169E-02    0.161E-01
RMM:   4    -0.231099257676E+04   -0.10481E-03   -0.90730E-04  3809   0.115E-02    0.169E-01
RMM:   5    -0.231099234425E+04    0.23251E-03   -0.24420E-04  3112   0.720E-03    0.233E-02
RMM:   6    -0.231099234649E+04   -0.22389E-05   -0.37587E-05  2843   0.328E-03
  23 F= -.23314329E+04 E0= -.23314329E+04  d E =-.418549E-06  mag=     5.0000
       N       E                     dE             d eps       ncg     rms          rms(c)
DAV:   1    -0.231097783821E+04    0.14506E-01   -0.60846E-01  4480   0.287E-01    0.254E-01
RMM:   2    -0.231097775903E+04    0.79185E-04   -0.22264E-03  3616   0.186E-02    0.148E-01
RMM:   3    -0.231097770635E+04    0.52679E-04   -0.52618E-04  3559   0.938E-03    0.782E-02
RMM:   4    -0.231097771468E+04   -0.83356E-05   -0.21758E-04  2945   0.702E-03    0.631E-02
RMM:   5    -0.231097768109E+04    0.33591E-04   -0.29307E-05  2687   0.334E-03    0.872E-03
RMM:   6    -0.231097767992E+04    0.11724E-05   -0.63706E-06  2464   0.164E-03
  24 F= -.23314183E+04 E0= -.23314183E+04  d E =-.718592E-06  mag=     5.0000
       N       E                     dE             d eps       ncg     rms          rms(c)
DAV:   1    -0.231098830279E+04   -0.10622E-01   -0.12538E+00  4640   0.415E-01    0.389E-01
RMM:   2    -0.231098754859E+04    0.75420E-03   -0.65350E-03  3861   0.296E-02    0.223E-01
RMM:   3    -0.231098730954E+04    0.23905E-03   -0.14950E-03  4103   0.172E-02    0.104E-01
RMM:   4    -0.231098738185E+04   -0.72310E-04   -0.54324E-04  3593   0.946E-03    0.117E-01
RMM:   5    -0.231098726549E+04    0.11637E-03   -0.14725E-04  2920   0.575E-03    0.217E-02
RMM:   6    -0.231098726350E+04    0.19899E-05   -0.17442E-05  2725   0.253E-03
  25 F= -.23314270E+04 E0= -.23314270E+04  d E =-.740756E-06  mag=     5.0000
       N       E                     dE             d eps       ncg     rms          rms(c)
DAV:   1    -0.231093545430E+04    0.51811E-01   -0.61804E-01  5120   0.333E-01    0.416E-01
RMM:   2    -0.231093384529E+04    0.16090E-02   -0.15042E-02  4064   0.436E-02    0.202E-01
RMM:   3    -0.231093351983E+04    0.32546E-03   -0.92242E-04  3834   0.178E-02    0.105E-01
RMM:   4    -0.231093353772E+04   -0.17887E-04   -0.43256E-04  3542   0.920E-03    0.743E-02
RMM:   5    -0.231093351494E+04    0.22771E-04   -0.13470E-04  2950   0.681E-03    0.441E-02
RMM:   6    -0.231093349975E+04    0.15199E-04   -0.14347E-05  2750   0.288E-03    0.843E-03
RMM:   7    -0.231093349868E+04    0.10699E-05   -0.52983E-06  2619   0.168E-03
  26 F= -.23313737E+04 E0= -.23313737E+04  d E =-.584095E-06  mag=     5.0000
       N       E                     dE             d eps       ncg     rms          rms(c)
DAV:   1    -0.231100305379E+04   -0.69554E-01   -0.11969E+00  5040   0.436E-01    0.760E-01
RMM:   2    -0.231099683256E+04    0.62212E-02   -0.57497E-02  4266   0.808E-02    0.333E-01
RMM:   3    -0.231099569075E+04    0.11418E-02   -0.29397E-03  4003   0.383E-02    0.199E-01
RMM:   4    -0.231099585204E+04   -0.16130E-03   -0.16561E-03  4156   0.170E-02    0.204E-01
RMM:   5    -0.231099557285E+04    0.27919E-03   -0.67500E-04  3677   0.125E-02    0.843E-02
RMM:   6    -0.231099553020E+04    0.42652E-04   -0.62530E-05  2952   0.543E-03    0.169E-02
RMM:   7    -0.231099552801E+04    0.21845E-05   -0.18554E-05  2867   0.317E-03
  27 F= -.23314357E+04 E0= -.23314357E+04  d E =-.835533E-06  mag=     5.0000
       N       E                     dE             d eps       ncg     rms          rms(c)
DAV:   1    -0.231099714989E+04   -0.16197E-02   -0.55522E-01  4480   0.275E-01    0.294E-01
RMM:   2    -0.231099702825E+04    0.12164E-03   -0.69780E-03  4082   0.318E-02    0.154E-01
RMM:   3    -0.231099705394E+04   -0.25688E-04   -0.35031E-04  3725   0.117E-02    0.786E-02
RMM:   4    -0.231099715344E+04   -0.99505E-04   -0.22267E-04  3321   0.817E-03    0.788E-02
RMM:   5    -0.231099710755E+04    0.45896E-04   -0.83177E-05  2910   0.563E-03    0.230E-02
RMM:   6    -0.231099710554E+04    0.20064E-05   -0.64877E-06  2764   0.259E-03
  28 F= -.23314375E+04 E0= -.23314375E+04  d E =-.653743E-06  mag=     5.0000
       N       E                     dE             d eps       ncg     rms          rms(c)
DAV:   1    -0.231096989454E+04    0.27213E-01   -0.11116E+00  4480   0.405E-01    0.393E-01
RMM:   2    -0.231097000710E+04   -0.11256E-03   -0.93985E-03  4153   0.391E-02    0.217E-01
RMM:   3    -0.231097017840E+04   -0.17130E-03   -0.68103E-04  4121   0.153E-02    0.110E-01
RMM:   4    -0.231097032385E+04   -0.14545E-03   -0.25168E-04  3523   0.935E-03    0.548E-02
RMM:   5    -0.231097034297E+04   -0.19118E-04   -0.12159E-04  2952   0.665E-03    0.524E-02
RMM:   6    -0.231097032168E+04    0.21295E-04   -0.21974E-05  2821   0.339E-03    0.939E-03
RMM:   7    -0.231097032189E+04   -0.21806E-06   -0.42343E-06  2747   0.202E-03
  29 F= -.23314103E+04 E0= -.23314103E+04  d E =-.729492E-06  mag=     5.0000
       N       E                     dE             d eps       ncg     rms          rms(c)
DAV:   1    -0.231095753631E+04    0.12785E-01   -0.55900E-01  4480   0.270E-01    0.240E-01
RMM:   2    -0.231095798593E+04   -0.44962E-03   -0.29161E-03  3913   0.241E-02    0.143E-01
RMM:   3    -0.231095822662E+04   -0.24069E-03   -0.27915E-04  3749   0.933E-03    0.734E-02
RMM:   4    -0.231095826987E+04   -0.43252E-04   -0.21223E-04  3095   0.689E-03    0.758E-02
RMM:   5    -0.231095822363E+04    0.46246E-04   -0.43683E-05  2852   0.442E-03    0.881E-03
RMM:   6    -0.231095822426E+04   -0.63739E-06   -0.51274E-06  2745   0.210E-03
  30 F= -.23313981E+04 E0= -.23313981E+04  d E =-.779045E-06  mag=     5.0000
       N       E                     dE             d eps       ncg     rms          rms(c)
DAV:   1    -0.231100699348E+04   -0.48770E-01   -0.11248E+00  4480   0.392E-01    0.339E-01
RMM:   2    -0.231100763064E+04   -0.63716E-03   -0.60157E-03  4029   0.317E-02    0.201E-01
RMM:   3    -0.231100791545E+04   -0.28481E-03   -0.82765E-04  4141   0.138E-02    0.117E-01
RMM:   4    -0.231100804608E+04   -0.13063E-03   -0.51750E-04  3523   0.109E-02    0.121E-01
RMM:   5    -0.231100792903E+04    0.11705E-03   -0.12641E-04  3056   0.659E-03    0.171E-02
RMM:   6    -0.231100792848E+04    0.54699E-06   -0.15615E-05  2849   0.299E-03
  31 F= -.23314483E+04 E0= -.23314483E+04  d E =-.595148E-06  mag=     5.0000
