       N       E                     dE             d eps       ncg     rms          rms(c)
DAV:   1     0.127442587873E+05    0.12744E+05   -0.82614E+05  4408   0.144E+03
DAV:   2    -0.105072027127E+04   -0.13795E+05   -0.13226E+05  5264   0.331E+02
DAV:   3    -0.245718921361E+04   -0.14065E+04   -0.13934E+04  5320   0.111E+02
DAV:   4    -0.250343260993E+04   -0.46243E+02   -0.46021E+02  6616   0.302E+01
DAV:   5    -0.250432125409E+04   -0.88864E+00   -0.88698E+00  5536   0.330E+00    0.170E+02
RMM:   6    -0.146504000880E+04    0.10393E+04   -0.19381E+03  4370   0.388E+01    0.730E+01
RMM:   7    -0.164669632709E+04   -0.18166E+03   -0.27795E+02  4891   0.136E+01    0.510E+01
RMM:   8    -0.169849782982E+04   -0.51802E+02   -0.54531E+01  4996   0.748E+00    0.437E+01
RMM:   9    -0.176369575049E+04   -0.65198E+02   -0.59813E+01  4793   0.687E+00    0.346E+01
RMM:  10    -0.191651924230E+04   -0.15282E+03   -0.72426E+01  4928   0.833E+00    0.207E+01
RMM:  11    -0.202151352919E+04   -0.10499E+03   -0.45743E+01  4824   0.566E+00    0.203E+01
RMM:  12    -0.207070838373E+04   -0.49195E+02   -0.16802E+01  4734   0.325E+00    0.139E+01
RMM:  13    -0.218009785814E+04   -0.10939E+03   -0.73630E+01  4509   0.635E+00    0.152E+01
RMM:  14    -0.224519955190E+04   -0.65102E+02   -0.51223E+01  4449   0.520E+00    0.933E+00
RMM:  15    -0.227883231922E+04   -0.33633E+02   -0.27696E+01  4513   0.403E+00    0.755E+00
RMM:  16    -0.228940838815E+04   -0.10576E+02   -0.10478E+01  4848   0.246E+00    0.351E+00
RMM:  17    -0.229452848076E+04   -0.51201E+01   -0.37576E+00  4649   0.136E+00    0.504E+00
RMM:  18    -0.229471226512E+04   -0.18378E+00   -0.32802E-01  5121   0.648E-01    0.489E+00
RMM:  19    -0.229492917989E+04   -0.21691E+00   -0.13463E-01  4818   0.203E-01    0.390E+00
RMM:  20    -0.229573500288E+04   -0.80582E+00   -0.46665E-01  4365   0.376E-01    0.111E+00
RMM:  21    -0.229593887339E+04   -0.20387E+00   -0.20851E-01  4504   0.293E-01    0.810E-01
RMM:  22    -0.229600120741E+04   -0.62334E-01   -0.53420E-02  4758   0.145E-01    0.634E-01
RMM:  23    -0.229606871925E+04   -0.67512E-01   -0.39137E-02  4384   0.122E-01    0.533E-01
RMM:  24    -0.229609655257E+04   -0.27833E-01   -0.20837E-02  4474   0.982E-02    0.542E-01
RMM:  25    -0.229611235721E+04   -0.15805E-01   -0.11717E-02  4535   0.726E-02    0.257E-01
RMM:  26    -0.229611677311E+04   -0.44159E-02   -0.26533E-03  4958   0.461E-02    0.880E-02
RMM:  27    -0.229611937298E+04   -0.25999E-02   -0.66942E-04  4195   0.170E-02    0.433E-02
RMM:  28    -0.229612213676E+04   -0.27638E-02   -0.33929E-04  3899   0.158E-02    0.472E-02
RMM:  29    -0.229612417914E+04   -0.20424E-02   -0.31017E-04  3879   0.117E-02    0.312E-02
RMM:  30    -0.229612580231E+04   -0.16232E-02   -0.23684E-04  3756   0.113E-02    0.168E-02
RMM:  31    -0.229612667363E+04   -0.87132E-03   -0.17738E-04  3734   0.952E-03    0.118E-02
RMM:  32    -0.229612698414E+04   -0.31051E-03   -0.88118E-05  3673   0.729E-03    0.777E-03
RMM:  33    -0.229612704911E+04   -0.64969E-04   -0.20167E-05  2984   0.439E-03    0.447E-03
RMM:  34    -0.229612706824E+04   -0.19136E-04   -0.71735E-06  2793   0.322E-03    0.401E-03
RMM:  35    -0.229612707570E+04   -0.74507E-05   -0.34560E-06  2617   0.231E-03
   1 F= -.23163523E+04 E0= -.23163523E+04  d E =-.231635E+04  mag=     4.9999
       N       E                     dE             d eps       ncg     rms          rms(c)
DAV:   1    -0.229599842621E+04    0.12864E+00   -0.17402E+01  4896   0.222E+00    0.144E+00
RMM:   2    -0.229632289332E+04   -0.32447E+00   -0.31106E+00  5980   0.567E-01    0.256E+00
RMM:   3    -0.229631614806E+04    0.67453E-02   -0.40705E-01  5423   0.284E-01    0.122E+00
RMM:   4    -0.229630985759E+04    0.62905E-02   -0.33879E-02  4975   0.563E-02    0.370E-01
RMM:   5    -0.229630775636E+04    0.21012E-02   -0.58567E-03  5023   0.324E-02    0.234E-01
RMM:   6    -0.229630715155E+04    0.60481E-03   -0.28526E-03  4836   0.228E-02    0.931E-02
RMM:   7    -0.229630716359E+04   -0.12037E-04   -0.49990E-04  4351   0.140E-02    0.619E-02
RMM:   8    -0.229630715571E+04    0.78833E-05   -0.14137E-04  3189   0.821E-03    0.373E-02
RMM:   9    -0.229630715538E+04    0.32954E-06   -0.11792E-04  3185   0.665E-03    0.185E-02
RMM:  10    -0.229630715668E+04   -0.13070E-05   -0.35589E-05  2958   0.516E-03
   2 F= -.23165337E+04 E0= -.23165337E+04  d E =-.181380E+00  mag=     4.9998
       N       E                     dE             d eps       ncg     rms          rms(c)
DAV:   1    -0.229591482810E+04    0.39233E+00   -0.26307E+01  4528   0.275E+00    0.187E+00
RMM:   2    -0.229643967203E+04   -0.52484E+00   -0.48910E+00  6015   0.760E-01    0.364E+00
RMM:   3    -0.229639712530E+04    0.42547E-01   -0.63574E-01  5261   0.373E-01    0.136E+00
RMM:   4    -0.229639056092E+04    0.65644E-02   -0.55698E-02  4950   0.737E-02    0.485E-01
RMM:   5    -0.229638805521E+04    0.25057E-02   -0.93973E-03  4970   0.424E-02    0.329E-01
RMM:   6    -0.229638740578E+04    0.64943E-03   -0.42482E-03  4902   0.300E-02    0.199E-01
RMM:   7    -0.229638766432E+04   -0.25854E-03   -0.11058E-03  4671   0.187E-02    0.130E-01
RMM:   8    -0.229638774773E+04   -0.83417E-04   -0.28577E-04  3578   0.109E-02    0.585E-02
RMM:   9    -0.229638795528E+04   -0.20755E-03   -0.13359E-04  3555   0.710E-03    0.352E-02
RMM:  10    -0.229638810682E+04   -0.15154E-03   -0.98977E-05  3627   0.722E-03    0.195E-02
RMM:  11    -0.229638813627E+04   -0.29445E-04   -0.18259E-05  2842   0.518E-03    0.241E-02
RMM:  12    -0.229638814789E+04   -0.11624E-04   -0.96679E-06  2818   0.301E-03    0.223E-02
RMM:  13    -0.229638818747E+04   -0.39580E-04   -0.22169E-05  2848   0.361E-03    0.960E-03
RMM:  14    -0.229638821319E+04   -0.25722E-04   -0.10211E-05  2814   0.345E-03    0.637E-03
RMM:  15    -0.229638823111E+04   -0.17920E-04   -0.81464E-06  2789   0.291E-03    0.483E-03
RMM:  16    -0.229638823929E+04   -0.81747E-05   -0.41425E-06  2573   0.264E-03
   3 F= -.23166162E+04 E0= -.23166123E+04  d E =-.263898E+00  mag=     4.8924
       N       E                     dE             d eps       ncg     rms          rms(c)
DAV:   1    -0.229631579535E+04    0.72436E-01   -0.78559E+00  4560   0.187E+00    0.172E+00
RMM:   2    -0.229653501677E+04   -0.21922E+00   -0.19508E+00  5736   0.507E-01    0.334E+00
RMM:   3    -0.229651390860E+04    0.21108E-01   -0.24647E-01  5096   0.216E-01    0.299E+00
RMM:   4    -0.229649838202E+04    0.15527E-01   -0.30025E-02  4599   0.577E-02    0.257E+00
RMM:   5    -0.229650760987E+04   -0.92278E-02   -0.13420E-02  4424   0.471E-02    0.263E+00
RMM:   6    -0.229649746700E+04    0.10143E-01   -0.11033E-02  4344   0.438E-02    0.220E+00
RMM:   7    -0.229647948655E+04    0.17980E-01   -0.35299E-02  4506   0.758E-02    0.376E-01
RMM:   8    -0.229648622890E+04   -0.67423E-02   -0.56555E-03  4605   0.416E-02    0.525E-01
RMM:   9    -0.229648714147E+04   -0.91257E-03   -0.36783E-03  4888   0.266E-02    0.158E-01
RMM:  10    -0.229649251192E+04   -0.53704E-02   -0.15702E-03  4177   0.207E-02    0.213E-01
RMM:  11    -0.229649371941E+04   -0.12075E-02   -0.13344E-03  4111   0.167E-02    0.289E-01
RMM:  12    -0.229649489214E+04   -0.11727E-02   -0.25090E-03  4069   0.188E-02    0.114E-01
RMM:  13    -0.229649740262E+04   -0.25105E-02   -0.32513E-03  4104   0.231E-02    0.121E-01
RMM:  14    -0.229649871845E+04   -0.13158E-02   -0.33876E-03  4250   0.232E-02    0.720E-02
RMM:  15    -0.229649932156E+04   -0.60310E-03   -0.14559E-03  4022   0.144E-02    0.403E-02
RMM:  16    -0.229649963547E+04   -0.31391E-03   -0.71065E-04  3731   0.110E-02    0.631E-02
RMM:  17    -0.229649977624E+04   -0.14077E-03   -0.65950E-04  3595   0.106E-02    0.136E-02
RMM:  18    -0.229649981040E+04   -0.34166E-04   -0.23747E-04  2960   0.671E-03    0.718E-03
RMM:  19    -0.229649981645E+04   -0.60515E-05   -0.44267E-05  2852   0.399E-03
   4 F= -.23167279E+04 E0= -.23167146E+04  d E =-.111699E+00  mag=     3.7276
       N       E                     dE             d eps       ncg     rms          rms(c)
DAV:   1    -0.229493154959E+04    0.15683E+01   -0.61746E+01  4408   0.533E+00    0.433E+00
RMM:   2    -0.229764274050E+04   -0.27112E+01   -0.19674E+01  6052   0.167E+00    0.121E+01
RMM:   3    -0.229649147968E+04    0.11513E+01   -0.20225E+00  5007   0.700E-01    0.195E+00
RMM:   4    -0.229647312642E+04    0.18353E-01   -0.23689E-01  4994   0.150E-01    0.131E+00
RMM:   5    -0.229645626871E+04    0.16858E-01   -0.29073E-02  5165   0.874E-02    0.805E-01
RMM:   6    -0.229644703337E+04    0.92353E-02   -0.25573E-02  5037   0.742E-02    0.747E-01
RMM:   7    -0.229645166476E+04   -0.46314E-02   -0.54807E-03  4572   0.459E-02    0.284E-01
RMM:   8    -0.229645603138E+04   -0.43666E-02   -0.21232E-03  4334   0.236E-02    0.178E-01
RMM:   9    -0.229646230212E+04   -0.62707E-02   -0.17213E-03  4243   0.244E-02    0.162E-01
RMM:  10    -0.229646495311E+04   -0.26510E-02   -0.68889E-04  4191   0.176E-02    0.681E-02
RMM:  11    -0.229646601484E+04   -0.10617E-02   -0.20487E-04  3936   0.945E-03    0.440E-02
RMM:  12    -0.229646702884E+04   -0.10140E-02   -0.12473E-04  3564   0.797E-03    0.401E-02
RMM:  13    -0.229646796047E+04   -0.93163E-03   -0.18297E-04  3664   0.883E-03    0.207E-02
RMM:  14    -0.229646833789E+04   -0.37742E-03   -0.64174E-05  3409   0.679E-03    0.171E-02
RMM:  15    -0.229646852983E+04   -0.19194E-03   -0.34037E-05  3179   0.497E-03    0.101E-02
RMM:  16    -0.229646859296E+04   -0.63133E-04   -0.11801E-05  2846   0.413E-03    0.583E-03
RMM:  17    -0.229646861721E+04   -0.24245E-04   -0.69808E-06  2730   0.295E-03    0.255E-03
RMM:  18    -0.229646862316E+04   -0.59474E-05   -0.33871E-06  2520   0.249E-03
   5 F= -.23166967E+04 E0= -.23166967E+04  d E =-.805322E-01  mag=     3.0011
       N       E                     dE             d eps       ncg     rms          rms(c)
DAV:   1    -0.229596396588E+04    0.50465E+00   -0.23459E+01  4432   0.341E+00    0.182E+00
RMM:   2    -0.229656562274E+04   -0.60166E+00   -0.64602E+00  5995   0.972E-01    0.148E+00
RMM:   3    -0.229661057083E+04   -0.44948E-01   -0.46568E-01  5663   0.306E-01    0.223E+00
RMM:   4    -0.229658346819E+04    0.27103E-01   -0.60267E-02  5782   0.836E-02    0.994E-01
RMM:   5    -0.229657745245E+04    0.60157E-02   -0.93946E-03  5205   0.430E-02    0.373E-01
RMM:   6    -0.229657598821E+04    0.14642E-02   -0.47939E-03  5033   0.327E-02    0.189E-01
RMM:   7    -0.229657586402E+04    0.12419E-03   -0.10438E-03  4760   0.231E-02    0.882E-02
RMM:   8    -0.229657587566E+04   -0.11636E-04   -0.26664E-04  4019   0.927E-03    0.527E-02
RMM:   9    -0.229657590492E+04   -0.29266E-04   -0.66061E-05  3084   0.708E-03    0.299E-02
RMM:  10    -0.229657591985E+04   -0.14926E-04   -0.23862E-05  2855   0.446E-03    0.222E-02
RMM:  11    -0.229657594086E+04   -0.21014E-04   -0.20835E-05  2832   0.417E-03    0.121E-02
RMM:  12    -0.229657595462E+04   -0.13753E-04   -0.13595E-05  2841   0.378E-03    0.809E-03
RMM:  13    -0.229657596232E+04   -0.77021E-05   -0.71272E-06  2804   0.319E-03
   6 F= -.23168041E+04 E0= -.23168028E+04  d E =-.187918E+00  mag=     3.0274
       N       E                     dE             d eps       ncg     rms          rms(c)
DAV:   1    -0.229655196472E+04    0.23990E-01   -0.11205E+00  4528   0.744E-01    0.412E-01
RMM:   2    -0.229658252378E+04   -0.30559E-01   -0.30025E-01  5890   0.202E-01    0.717E-01
RMM:   3    -0.229658207395E+04    0.44984E-03   -0.27505E-02  5329   0.826E-02    0.496E-01
RMM:   4    -0.229658056310E+04    0.15109E-02   -0.29181E-03  4407   0.182E-02    0.114E-01
RMM:   5    -0.229658044348E+04    0.11962E-03   -0.46679E-04  3858   0.106E-02    0.699E-02
RMM:   6    -0.229658039017E+04    0.53308E-04   -0.16520E-04  3979   0.896E-03    0.220E-02
RMM:   7    -0.229658039140E+04   -0.12243E-05   -0.36404E-05  2903   0.661E-03
   7 F= -.23168085E+04 E0= -.23168080E+04  d E =-.192356E+00  mag=     3.0159
       N       E                     dE             d eps       ncg     rms          rms(c)
DAV:   1    -0.229619432696E+04    0.38606E+00   -0.13267E+01  4432   0.212E+00    0.134E+00
RMM:   2    -0.229658242364E+04   -0.38810E+00   -0.42262E+00  6156   0.673E-01    0.109E+00
RMM:   3    -0.229663306419E+04   -0.50641E-01   -0.57517E-01  5449   0.393E-01    0.139E+00
RMM:   4    -0.229662121937E+04    0.11845E-01   -0.40051E-02  5301   0.581E-02    0.508E-01
RMM:   5    -0.229661893823E+04    0.22811E-02   -0.54784E-03  4607   0.291E-02    0.373E-01
RMM:   6    -0.229661789147E+04    0.10468E-02   -0.33944E-03  4865   0.222E-02    0.189E-01
RMM:   7    -0.229661774357E+04    0.14789E-03   -0.13804E-03  4327   0.202E-02    0.118E-01
RMM:   8    -0.229661773805E+04    0.55206E-05   -0.29855E-04  3493   0.928E-03    0.602E-02
RMM:   9    -0.229661772033E+04    0.17720E-04   -0.60059E-05  2882   0.576E-03    0.284E-02
RMM:  10    -0.229661771656E+04    0.37786E-05   -0.18745E-05  2863   0.302E-03
   8 F= -.23168464E+04 E0= -.23168463E+04  d E =-.378640E-01  mag=     3.0033
       N       E                     dE             d eps       ncg     rms          rms(c)
DAV:   1    -0.229660391370E+04    0.13807E-01   -0.55585E-01  4464   0.428E-01    0.254E-01
RMM:   2    -0.229661928989E+04   -0.15376E-01   -0.16547E-01  6023   0.130E-01    0.269E-01
RMM:   3    -0.229662148765E+04   -0.21978E-02   -0.21805E-02  4232   0.810E-02    0.358E-01
RMM:   4    -0.229662077317E+04    0.71448E-03   -0.18284E-03  3378   0.137E-02    0.112E-01
RMM:   5    -0.229662067050E+04    0.10266E-03   -0.19379E-04  2981   0.581E-03    0.611E-02
RMM:   6    -0.229662063607E+04    0.34434E-04   -0.16457E-04  3177   0.615E-03    0.210E-02
RMM:   7    -0.229662063406E+04    0.20118E-05   -0.21787E-05  2816   0.478E-03
   9 F= -.23168493E+04 E0= -.23168492E+04  d E =-.407152E-01  mag=     3.0011
       N       E                     dE             d eps       ncg     rms          rms(c)
DAV:   1    -0.229661327456E+04    0.73615E-02   -0.47194E+00  4416   0.165E+00    0.850E-01
RMM:   2    -0.229667501251E+04   -0.61738E-01   -0.69666E-01  5801   0.375E-01    0.409E-01
RMM:   3    -0.229667751057E+04   -0.24981E-02   -0.68008E-02  5357   0.133E-01    0.636E-01
RMM:   4    -0.229667589601E+04    0.16146E-02   -0.59668E-03  5218   0.323E-02    0.381E-01
RMM:   5    -0.229667472104E+04    0.11750E-02   -0.14106E-03  4799   0.214E-02    0.129E-01
RMM:   6    -0.229667455649E+04    0.16455E-03   -0.68005E-04  4814   0.166E-02    0.867E-02
RMM:   7    -0.229667452911E+04    0.27383E-04   -0.97543E-05  3838   0.796E-03    0.480E-02
RMM:   8    -0.229667451384E+04    0.15265E-04   -0.31510E-05  2888   0.457E-03    0.205E-02
RMM:   9    -0.229667451231E+04    0.15295E-05   -0.90950E-06  2822   0.333E-03
  10 F= -.23169036E+04 E0= -.23169035E+04  d E =-.543478E-01  mag=     3.0002
       N       E                     dE             d eps       ncg     rms          rms(c)
DAV:   1    -0.229667207687E+04    0.24370E-02   -0.40287E-01  4840   0.483E-01    0.245E-01
RMM:   2    -0.229667731255E+04   -0.52357E-02   -0.58905E-02  5842   0.111E-01    0.135E-01
RMM:   3    -0.229667789233E+04   -0.57978E-03   -0.68034E-03  5064   0.439E-02    0.283E-01
RMM:   4    -0.229667739889E+04    0.49344E-03   -0.58115E-04  3202   0.107E-02    0.826E-02
RMM:   5    -0.229667733508E+04    0.63808E-04   -0.13249E-04  3576   0.729E-03    0.371E-02
RMM:   6    -0.229667732066E+04    0.14416E-04   -0.56068E-05  3095   0.662E-03    0.235E-02
RMM:   7    -0.229667732012E+04    0.53720E-06   -0.13646E-05  2829   0.492E-03
  11 F= -.23169065E+04 E0= -.23169064E+04  d E =-.572854E-01  mag=     3.0001
       N       E                     dE             d eps       ncg     rms          rms(c)
DAV:   1    -0.229668233383E+04   -0.50132E-02   -0.19968E+00  4416   0.763E-01    0.358E-01
RMM:   2    -0.229669780874E+04   -0.15475E-01   -0.16612E-01  5995   0.183E-01    0.236E-01
RMM:   3    -0.229669857481E+04   -0.76607E-03   -0.11272E-02  5429   0.513E-02    0.337E-01
RMM:   4    -0.229669786809E+04    0.70672E-03   -0.14961E-03  3627   0.149E-02    0.158E-01
RMM:   5    -0.229669758376E+04    0.28433E-03   -0.35811E-04  3943   0.103E-02    0.720E-02
RMM:   6    -0.229669753342E+04    0.50341E-04   -0.29924E-04  3701   0.102E-02    0.390E-02
RMM:   7    -0.229669753268E+04    0.73848E-06   -0.36384E-05  2905   0.551E-03
  12 F= -.23169267E+04 E0= -.23169266E+04  d E =-.201616E-01  mag=     3.0000
       N       E                     dE             d eps       ncg     rms          rms(c)
DAV:   1    -0.229665570743E+04    0.41826E-01   -0.62365E+00  4400   0.134E+00    0.634E-01
RMM:   2    -0.229670524341E+04   -0.49536E-01   -0.53052E-01  5983   0.330E-01    0.439E-01
RMM:   3    -0.229670833265E+04   -0.30892E-02   -0.34445E-02  5666   0.908E-02    0.715E-01
RMM:   4    -0.229670493286E+04    0.33998E-02   -0.49406E-03  5112   0.275E-02    0.254E-01
RMM:   5    -0.229670409772E+04    0.83514E-03   -0.13002E-03  4475   0.173E-02    0.139E-01
RMM:   6    -0.229670393814E+04    0.15958E-03   -0.97250E-04  4543   0.173E-02    0.659E-02
RMM:   7    -0.229670398669E+04   -0.48554E-04   -0.12448E-04  3315   0.787E-03    0.436E-02
RMM:   8    -0.229670404643E+04   -0.59739E-04   -0.34168E-05  2861   0.415E-03    0.359E-02
RMM:   9    -0.229670416416E+04   -0.11773E-03   -0.43639E-05  3028   0.421E-03    0.125E-02
RMM:  10    -0.229670421947E+04   -0.55312E-04   -0.19787E-05  2851   0.411E-03    0.826E-03
RMM:  11    -0.229670424402E+04   -0.24548E-04   -0.11895E-05  2818   0.327E-03    0.534E-03
RMM:  12    -0.229670426154E+04   -0.17515E-04   -0.63450E-06  2786   0.288E-03    0.376E-03
RMM:  13    -0.229670427637E+04   -0.14837E-04   -0.79052E-06  2795   0.263E-03    0.201E-03
RMM:  14    -0.229670428014E+04   -0.37685E-05   -0.32793E-06  2587   0.255E-03
  13 F= -.23169333E+04 E0= -.23169331E+04  d E =-.267529E-01  mag=     3.0000
       N       E                     dE             d eps       ncg     rms          rms(c)
DAV:   1    -0.229670181135E+04    0.24650E-02   -0.53986E-01  4432   0.393E-01    0.184E-01
RMM:   2    -0.229670608645E+04   -0.42751E-02   -0.44980E-02  5954   0.974E-02    0.151E-01
RMM:   3    -0.229670632876E+04   -0.24230E-03   -0.27401E-03  4038   0.251E-02    0.228E-01
RMM:   4    -0.229670598692E+04    0.34184E-03   -0.40659E-04  3132   0.915E-03    0.727E-02
RMM:   5    -0.229670592202E+04    0.64899E-04   -0.12125E-04  3009   0.613E-03    0.389E-02
RMM:   6    -0.229670590680E+04    0.15219E-04   -0.89768E-05  3004   0.606E-03    0.225E-02
RMM:   7    -0.229670590480E+04    0.20006E-05   -0.11807E-05  2839   0.424E-03
  14 F= -.23169350E+04 E0= -.23169348E+04  d E =-.284314E-01  mag=     3.0000
       N       E                     dE             d eps       ncg     rms          rms(c)
DAV:   1    -0.229668204383E+04    0.23863E-01   -0.21894E+00  4416   0.961E-01    0.569E-01
RMM:   2    -0.229674037386E+04   -0.58330E-01   -0.43088E-01  5995   0.245E-01    0.177E+00
RMM:   3    -0.229671969267E+04    0.20681E-01   -0.31615E-02  5526   0.785E-02    0.241E-01
RMM:   4    -0.229671936361E+04    0.32907E-03   -0.38533E-03  4547   0.199E-02    0.143E-01
RMM:   5    -0.229671917385E+04    0.18976E-03   -0.44020E-04  3856   0.119E-02    0.116E-01
RMM:   6    -0.229671905592E+04    0.11792E-03   -0.49687E-04  4319   0.114E-02    0.319E-02
RMM:   7    -0.229671905539E+04    0.53167E-06   -0.44068E-05  2873   0.693E-03
  15 F= -.23169478E+04 E0= -.23169477E+04  d E =-.128682E-01  mag=     3.0000
       N       E                     dE             d eps       ncg     rms          rms(c)
DAV:   1    -0.229671041946E+04    0.86365E-02   -0.65853E-01  4416   0.514E-01    0.311E-01
RMM:   2    -0.229672750808E+04   -0.17089E-01   -0.12141E-01  6093   0.133E-01    0.101E+00
RMM:   3    -0.229672094002E+04    0.65681E-02   -0.92596E-03  5241   0.423E-02    0.127E-01
RMM:   4    -0.229672086523E+04    0.74792E-04   -0.11750E-03  3396   0.112E-02    0.742E-02
RMM:   5    -0.229672081914E+04    0.46093E-04   -0.13321E-04  2980   0.678E-03    0.633E-02
RMM:   6    -0.229672078514E+04    0.33991E-04   -0.13142E-04  3209   0.666E-03    0.169E-02
RMM:   7    -0.229672078507E+04    0.78726E-07   -0.14627E-05  2837   0.468E-03
  16 F= -.23169494E+04 E0= -.23169493E+04  d E =-.144186E-01  mag=     3.0000
       N       E                     dE             d eps       ncg     rms          rms(c)
DAV:   1    -0.229670750668E+04    0.13278E-01   -0.85016E-01  4440   0.673E-01    0.357E-01
RMM:   2    -0.229673592279E+04   -0.28416E-01   -0.23556E-01  6084   0.181E-01    0.105E+00
RMM:   3    -0.229672917944E+04    0.67434E-02   -0.20265E-02  5390   0.600E-02    0.163E-01
RMM:   4    -0.229672917767E+04    0.17688E-05   -0.23121E-03  3723   0.136E-02    0.946E-02
RMM:   5    -0.229672910963E+04    0.68034E-04   -0.18027E-04  3425   0.771E-03    0.869E-02
RMM:   6    -0.229672906373E+04    0.45910E-04   -0.15493E-04  3384   0.881E-03    0.183E-02
RMM:   7    -0.229672906548E+04   -0.17535E-05   -0.24941E-05  2875   0.501E-03
  17 F= -.23169575E+04 E0= -.23169574E+04  d E =-.810386E-02  mag=     3.0000
       N       E                     dE             d eps       ncg     rms          rms(c)
DAV:   1    -0.229665557477E+04    0.73489E-01   -0.30373E+00  4424   0.127E+00    0.688E-01
RMM:   2    -0.229676202048E+04   -0.10645E+00   -0.86900E-01  6059   0.345E-01    0.208E+00
RMM:   3    -0.229673446745E+04    0.27553E-01   -0.75616E-02  5612   0.115E-01    0.309E-01
RMM:   4    -0.229673432316E+04    0.14429E-03   -0.83030E-03  4757   0.263E-02    0.183E-01
RMM:   5    -0.229673408352E+04    0.23965E-03   -0.65510E-04  4395   0.139E-02    0.168E-01
RMM:   6    -0.229673390704E+04    0.17647E-03   -0.58871E-04  4390   0.155E-02    0.358E-02
RMM:   7    -0.229673391023E+04   -0.31920E-05   -0.87856E-05  2997   0.746E-03
  18 F= -.23169620E+04 E0= -.23169619E+04  d E =-.125573E-01  mag=     3.0000
       N       E                     dE             d eps       ncg     rms          rms(c)
DAV:   1    -0.229671952436E+04    0.14383E-01   -0.80361E-01  4464   0.653E-01    0.328E-01
RMM:   2    -0.229674181743E+04   -0.22293E-01   -0.20580E-01  5977   0.169E-01    0.741E-01
RMM:   3    -0.229673879015E+04    0.30273E-02   -0.18409E-02  5418   0.586E-02    0.242E-01
RMM:   4    -0.229673852403E+04    0.26612E-03   -0.18323E-03  3856   0.131E-02    0.103E-01
RMM:   5    -0.229673842015E+04    0.10389E-03   -0.22293E-04  3773   0.833E-03    0.794E-02
RMM:   6    -0.229673838774E+04    0.32406E-04   -0.19412E-04  3516   0.924E-03    0.245E-02
RMM:   7    -0.229673838713E+04    0.60562E-06   -0.21109E-05  2866   0.510E-03
  19 F= -.23169664E+04 E0= -.23169664E+04  d E =-.448925E-02  mag=     3.0000
       N       E                     dE             d eps       ncg     rms          rms(c)
DAV:   1    -0.229673136492E+04    0.70228E-02   -0.33062E-01  4520   0.419E-01    0.211E-01
RMM:   2    -0.229674071659E+04   -0.93517E-02   -0.86831E-02  5987   0.108E-01    0.487E-01
RMM:   3    -0.229673934207E+04    0.13745E-02   -0.67026E-03  4828   0.374E-02    0.166E-01
RMM:   4    -0.229673921016E+04    0.13191E-03   -0.69283E-04  3115   0.870E-03    0.649E-02
RMM:   5    -0.229673916304E+04    0.47115E-04   -0.91234E-05  3043   0.575E-03    0.446E-02
RMM:   6    -0.229673915270E+04    0.10345E-04   -0.69563E-05  2937   0.622E-03    0.107E-02
RMM:   7    -0.229673915305E+04   -0.34651E-06   -0.10360E-05  2833   0.420E-03
  20 F= -.23169672E+04 E0= -.23169672E+04  d E =-.525356E-02  mag=     3.0000
       N       E                     dE             d eps       ncg     rms          rms(c)
DAV:   1    -0.229673895610E+04    0.19660E-03   -0.59321E-02  4656   0.206E-01    0.101E-01
RMM:   2    -0.229674031333E+04   -0.13572E-02   -0.14782E-02  5828   0.530E-02    0.585E-02
RMM:   3    -0.229674051541E+04   -0.20207E-03   -0.16757E-03  3423   0.236E-02    0.133E-01
RMM:   4    -0.229674041755E+04    0.97851E-04   -0.15004E-04  2954   0.574E-03    0.303E-02
RMM:   5    -0.229674041099E+04    0.65687E-05   -0.24007E-05  2877   0.304E-03
  21 F= -.23169686E+04 E0= -.23169685E+04  d E =-.134803E-02  mag=     3.0000
       N       E                     dE             d eps       ncg     rms          rms(c)
DAV:   1    -0.229673509299E+04    0.53246E-02   -0.25149E-01  4432   0.426E-01    0.208E-01
RMM:   2    -0.229674092645E+04   -0.58335E-02   -0.63150E-02  5831   0.110E-01    0.147E-01
RMM:   3    -0.229674200267E+04   -0.10762E-02   -0.75600E-03  4602   0.506E-02    0.336E-01
RMM:   4    -0.229674133652E+04    0.66616E-03   -0.71603E-04  3171   0.114E-02    0.575E-02
RMM:   5    -0.229674131121E+04    0.25305E-04   -0.11992E-04  3070   0.641E-03    0.362E-02
RMM:   6    -0.229674130215E+04    0.90664E-05   -0.47050E-05  2946   0.621E-03
  22 F= -.23169696E+04 E0= -.23169696E+04  d E =-.242553E-02  mag=     3.0000
       N       E                     dE             d eps       ncg     rms          rms(c)
DAV:   1    -0.229674055100E+04    0.76021E-03   -0.78075E-02  4480   0.213E-01    0.993E-02
RMM:   2    -0.229674235353E+04   -0.18025E-02   -0.18163E-02  6086   0.537E-02    0.132E-01
RMM:   3    -0.229674242657E+04   -0.73042E-04   -0.14223E-03  3190   0.201E-02    0.121E-01
RMM:   4    -0.229674233635E+04    0.90220E-04   -0.16399E-04  2932   0.617E-03    0.300E-02
RMM:   5    -0.229674232910E+04    0.72505E-05   -0.23597E-05  2859   0.319E-03
  23 F= -.23169707E+04 E0= -.23169707E+04  d E =-.111737E-02  mag=     3.0000
       N       E                     dE             d eps       ncg     rms          rms(c)
DAV:   1    -0.229672836702E+04    0.13969E-01   -0.70173E-01  4416   0.634E-01    0.302E-01
RMM:   2    -0.229674499811E+04   -0.16631E-01   -0.16349E-01  5902   0.155E-01    0.482E-01
RMM:   3    -0.229674505472E+04   -0.56608E-04   -0.12317E-02  5149   0.560E-02    0.340E-01
RMM:   4    -0.229674435953E+04    0.69519E-03   -0.14160E-03  3745   0.143E-02    0.887E-02
RMM:   5    -0.229674428603E+04    0.73492E-04   -0.17140E-04  3222   0.780E-03    0.515E-02
RMM:   6    -0.229674427072E+04    0.15310E-04   -0.10223E-04  3490   0.767E-03    0.295E-02
RMM:   7    -0.229674426716E+04    0.35618E-05   -0.14616E-05  2843   0.504E-03
  24 F= -.23169730E+04 E0= -.23169729E+04  d E =-.332311E-02  mag=     3.0000
       N       E                     dE             d eps       ncg     rms          rms(c)
DAV:   1    -0.229667971783E+04    0.64553E-01   -0.28241E+00  4384   0.126E+00    0.604E-01
RMM:   2    -0.229674541946E+04   -0.65702E-01   -0.64273E-01  5883   0.305E-01    0.979E-01
RMM:   3    -0.229674629343E+04   -0.87397E-03   -0.54860E-02  5443   0.123E-01    0.687E-01
RMM:   4    -0.229674344043E+04    0.28530E-02   -0.58227E-03  4929   0.286E-02    0.179E-01
RMM:   5    -0.229674314989E+04    0.29054E-03   -0.72010E-04  4440   0.148E-02    0.106E-01
RMM:   6    -0.229674308186E+04    0.68032E-04   -0.40391E-04  4438   0.127E-02    0.547E-02
RMM:   7    -0.229674307092E+04    0.10931E-04   -0.51213E-05  2916   0.808E-03    0.240E-02
RMM:   8    -0.229674306731E+04    0.36098E-05   -0.13576E-05  2832   0.308E-03
  25 F= -.23169723E+04 E0= -.23169722E+04  d E =-.264235E-02  mag=     3.0000
       N       E                     dE             d eps       ncg     rms          rms(c)
DAV:   1    -0.229672287044E+04    0.20200E-01   -0.98061E-01  4400   0.739E-01    0.367E-01
RMM:   2    -0.229674699113E+04   -0.24121E-01   -0.22173E-01  5907   0.184E-01    0.753E-01
RMM:   3    -0.229674514049E+04    0.18506E-02   -0.20367E-02  5346   0.707E-02    0.294E-01
RMM:   4    -0.229674469932E+04    0.44117E-03   -0.19666E-03  4232   0.157E-02    0.992E-02
RMM:   5    -0.229674460827E+04    0.91052E-04   -0.16967E-04  3314   0.840E-03    0.676E-02
RMM:   6    -0.229674458539E+04    0.22880E-04   -0.17284E-04  3959   0.936E-03    0.309E-02
RMM:   7    -0.229674458210E+04    0.32835E-05   -0.20158E-05  2841   0.579E-03
  26 F= -.23169735E+04 E0= -.23169734E+04  d E =-.385417E-02  mag=     3.0000
       N       E                     dE             d eps       ncg     rms          rms(c)
DAV:   1    -0.229674425973E+04    0.32565E-03   -0.53978E-02  4448   0.154E-01    0.805E-02
RMM:   2    -0.229674551326E+04   -0.12535E-02   -0.11236E-02  5808   0.377E-02    0.181E-01
RMM:   3    -0.229674537252E+04    0.14074E-03   -0.81954E-04  3024   0.129E-02    0.614E-02
RMM:   4    -0.229674535186E+04    0.20666E-04   -0.90992E-05  2915   0.384E-03    0.233E-02
RMM:   5    -0.229674534524E+04    0.66131E-05   -0.10442E-05  2778   0.217E-03
  27 F= -.23169743E+04 E0= -.23169743E+04  d E =-.833342E-03  mag=     3.0000
       N       E                     dE             d eps       ncg     rms          rms(c)
DAV:   1    -0.229673756151E+04    0.77903E-02   -0.48644E-01  4416   0.462E-01    0.231E-01
RMM:   2    -0.229674811700E+04   -0.10555E-01   -0.99622E-02  5960   0.112E-01    0.446E-01
RMM:   3    -0.229674759342E+04    0.52358E-03   -0.70985E-03  4565   0.367E-02    0.218E-01
RMM:   4    -0.229674731742E+04    0.27600E-03   -0.80325E-04  3103   0.989E-03    0.673E-02
RMM:   5    -0.229674726888E+04    0.48535E-04   -0.91483E-05  2949   0.576E-03    0.401E-02
RMM:   6    -0.229674725989E+04    0.89900E-05   -0.57729E-05  2928   0.558E-03
  28 F= -.23169764E+04 E0= -.23169764E+04  d E =-.295737E-02  mag=     3.0000
       N       E                     dE             d eps       ncg     rms          rms(c)
DAV:   1    -0.229671095710E+04    0.36312E-01   -0.19547E+00  4384   0.923E-01    0.457E-01
RMM:   2    -0.229675224399E+04   -0.41287E-01   -0.39145E-01  5897   0.221E-01    0.863E-01
RMM:   3    -0.229675090288E+04    0.13411E-02   -0.29528E-02  5503   0.790E-02    0.457E-01
RMM:   4    -0.229674967758E+04    0.12253E-02   -0.32261E-03  4330   0.192E-02    0.135E-01
RMM:   5    -0.229674948707E+04    0.19051E-03   -0.40833E-04  3798   0.104E-02    0.784E-02
RMM:   6    -0.229674945751E+04    0.29556E-04   -0.20690E-04  3772   0.943E-03    0.350E-02
RMM:   7    -0.229674945414E+04    0.33769E-05   -0.30685E-05  2871   0.564E-03
  29 F= -.23169791E+04 E0= -.23169790E+04  d E =-.556519E-02  mag=     3.0000
       N       E                     dE             d eps       ncg     rms          rms(c)
DAV:   1    -0.229658808826E+04    0.16137E+00   -0.77907E+00  4384   0.184E+00    0.909E-01
RMM:   2    -0.229674988148E+04   -0.16179E+00   -0.15813E+00  6008   0.437E-01    0.148E+00
RMM:   3    -0.229675538855E+04   -0.55071E-02   -0.14108E-01  5633   0.172E-01    0.110E+00
RMM:   4    -0.229674815287E+04    0.72357E-02   -0.14270E-02  5126   0.406E-02    0.283E-01
RMM:   5    -0.229674738013E+04    0.77275E-03   -0.21595E-03  4791   0.205E-02    0.162E-01
RMM:   6    -0.229674722362E+04    0.15651E-03   -0.10015E-03  4707   0.163E-02    0.833E-02
RMM:   7    -0.229674719105E+04    0.32576E-04   -0.14771E-04  3084   0.970E-03    0.376E-02
RMM:   8    -0.229674718281E+04    0.82386E-05   -0.35205E-05  2847   0.426E-03
  30 F= -.23169776E+04 E0= -.23169776E+04  d E =-.410257E-02  mag=     3.0000
       N       E                     dE             d eps       ncg     rms          rms(c)
DAV:   1    -0.229668546702E+04    0.61724E-01   -0.32589E+00  4384   0.117E+00    0.633E-01
RMM:   2    -0.229676361715E+04   -0.78150E-01   -0.67227E-01  6032   0.296E-01    0.157E+00
RMM:   3    -0.229675052181E+04    0.13095E-01   -0.58807E-02  5640   0.980E-02    0.378E-01
RMM:   4    -0.229675003263E+04    0.48918E-03   -0.58557E-03  4433   0.225E-02    0.168E-01
RMM:   5    -0.229674977367E+04    0.25896E-03   -0.47666E-04  4043   0.121E-02    0.136E-01
RMM:   6    -0.229674966444E+04    0.10923E-03   -0.57421E-04  4161   0.136E-02    0.342E-02
RMM:   7    -0.229674966411E+04    0.33007E-06   -0.58416E-05  2868   0.759E-03
  31 F= -.23169796E+04 E0= -.23169795E+04  d E =-.606508E-02  mag=     3.0000
       N       E                     dE             d eps       ncg     rms          rms(c)
DAV:   1    -0.229674532309E+04    0.43413E-02   -0.32010E-01  4464   0.347E-01    0.182E-01
RMM:   2    -0.229675199106E+04   -0.66680E-02   -0.62567E-02  6036   0.854E-02    0.348E-01
RMM:   3    -0.229675170684E+04    0.28423E-03   -0.46467E-03  3849   0.280E-02    0.181E-01
RMM:   4    -0.229675150675E+04    0.20009E-03   -0.50262E-04  3001   0.789E-03    0.551E-02
RMM:   5    -0.229675147107E+04    0.35680E-04   -0.64707E-05  2878   0.459E-03    0.298E-02
RMM:   6    -0.229675146886E+04    0.22124E-05   -0.30730E-05  2842   0.409E-03
  32 F= -.23169815E+04 E0= -.23169815E+04  d E =-.198302E-02  mag=     3.0000
       N       E                     dE             d eps       ncg     rms          rms(c)
DAV:   1    -0.229670014056E+04    0.51331E-01   -0.28818E+00  4416   0.104E+00    0.532E-01
RMM:   2    -0.229675818168E+04   -0.58041E-01   -0.56145E-01  6084   0.256E-01    0.896E-01
RMM:   3    -0.229675838955E+04   -0.20787E-03   -0.43738E-02  5567   0.885E-02    0.618E-01
RMM:   4    -0.229675604958E+04    0.23400E-02   -0.46284E-03  4510   0.226E-02    0.162E-01
RMM:   5    -0.229675576530E+04    0.28428E-03   -0.64123E-04  3894   0.116E-02    0.887E-02
RMM:   6    -0.229675574149E+04    0.23811E-04   -0.25792E-04  3515   0.988E-03    0.443E-02
RMM:   7    -0.229675573604E+04    0.54509E-05   -0.40985E-05  2876   0.576E-03
  33 F= -.23169863E+04 E0= -.23169863E+04  d E =-.678342E-02  mag=     3.0000
       N       E                     dE             d eps       ncg     rms          rms(c)
DAV:   1    -0.229653395214E+04    0.22179E+00   -0.11508E+01  4416   0.209E+00    0.105E+00
RMM:   2    -0.229675944302E+04   -0.22549E+00   -0.22445E+00  6122   0.516E-01    0.142E+00
RMM:   3    -0.229677345401E+04   -0.14011E-01   -0.19498E-01  5762   0.187E-01    0.143E+00
RMM:   4    -0.229676045513E+04    0.12999E-01   -0.19566E-02  5223   0.480E-02    0.330E-01
RMM:   5    -0.229675938371E+04    0.10714E-02   -0.33824E-03  4741   0.231E-02    0.188E-01
RMM:   6    -0.229675922756E+04    0.15615E-03   -0.12417E-03  4605   0.171E-02    0.895E-02
RMM:   7    -0.229675919015E+04    0.37416E-04   -0.20178E-04  3089   0.983E-03    0.482E-02
RMM:   8    -0.229675918132E+04    0.88256E-05   -0.54129E-05  2860   0.477E-03
  34 F= -.23169908E+04 E0= -.23169908E+04  d E =-.112898E-01  mag=     3.0000
       N       E                     dE             d eps       ncg     rms          rms(c)
DAV:   1    -0.229671779503E+04    0.41395E-01   -0.22098E+00  4384   0.954E-01    0.503E-01
RMM:   2    -0.229676816856E+04   -0.50374E-01   -0.47535E-01  6045   0.247E-01    0.921E-01
RMM:   3    -0.229676615115E+04    0.20174E-02   -0.37602E-02  5679   0.823E-02    0.495E-01
RMM:   4    -0.229676457304E+04    0.15781E-02   -0.38835E-03  4600   0.206E-02    0.151E-01
RMM:   5    -0.229676429171E+04    0.28133E-03   -0.55541E-04  4090   0.119E-02    0.843E-02
RMM:   6    -0.229676427179E+04    0.19920E-04   -0.21436E-04  3572   0.101E-02    0.337E-02
RMM:   7    -0.229676427111E+04    0.68359E-06   -0.36437E-05  2892   0.543E-03
  35 F= -.23169963E+04 E0= -.23169963E+04  d E =-.547987E-02  mag=     3.0000
       N       E                     dE             d eps       ncg     rms          rms(c)
DAV:   1    -0.229657378424E+04    0.19049E+00   -0.91414E+00  4384   0.195E+00    0.100E+00
RMM:   2    -0.229677702095E+04   -0.20324E+00   -0.19674E+00  6083   0.508E-01    0.161E+00
RMM:   3    -0.229677777500E+04   -0.75405E-03   -0.16584E-01  5841   0.167E-01    0.114E+00
RMM:   4    -0.229676916517E+04    0.86098E-02   -0.16057E-02  5216   0.435E-02    0.303E-01
RMM:   5    -0.229676802311E+04    0.11421E-02   -0.26808E-03  5015   0.240E-02    0.160E-01
RMM:   6    -0.229676793269E+04    0.90421E-04   -0.85114E-04  4535   0.170E-02    0.756E-02
RMM:   7    -0.229676790565E+04    0.27038E-04   -0.16179E-04  3194   0.847E-03    0.452E-02
RMM:   8    -0.229676789992E+04    0.57294E-05   -0.41923E-05  2853   0.493E-03
  36 F= -.23170007E+04 E0= -.23170007E+04  d E =-.988239E-02  mag=     3.0000
       N       E                     dE             d eps       ncg     rms          rms(c)
DAV:   1    -0.229673024182E+04    0.37664E-01   -0.18982E+00  4432   0.866E-01    0.494E-01
RMM:   2    -0.229677962458E+04   -0.49383E-01   -0.43428E-01  6337   0.234E-01    0.112E+00
RMM:   3    -0.229677352397E+04    0.61006E-02   -0.35577E-02  5683   0.732E-02    0.343E-01
RMM:   4    -0.229677281929E+04    0.70468E-03   -0.35588E-03  4128   0.179E-02    0.140E-01
RMM:   5    -0.229677260404E+04    0.21526E-03   -0.41775E-04  3870   0.102E-02    0.104E-01
RMM:   6    -0.229677255613E+04    0.47906E-04   -0.24606E-04  3129   0.960E-03    0.315E-02
RMM:   7    -0.229677255561E+04    0.51540E-06   -0.31972E-05  2876   0.479E-03
  37 F= -.23170055E+04 E0= -.23170055E+04  d E =-.478859E-02  mag=     3.0000
       N       E                     dE             d eps       ncg     rms          rms(c)
DAV:   1    -0.229639413473E+04    0.37842E+00   -0.17045E+01  4384   0.260E+00    0.143E+00
RMM:   2    -0.229681228002E+04   -0.41815E+00   -0.38949E+00  6327   0.696E-01    0.269E+00
RMM:   3    -0.229679764010E+04    0.14640E-01   -0.34720E-01  6008   0.224E-01    0.137E+00
RMM:   4    -0.229678493602E+04    0.12704E-01   -0.32046E-02  5205   0.567E-02    0.413E-01
RMM:   5    -0.229678283892E+04    0.20971E-02   -0.47307E-03  5097   0.305E-02    0.241E-01
RMM:   6    -0.229678261959E+04    0.21934E-03   -0.16333E-03  4518   0.214E-02    0.969E-02
RMM:   7    -0.229678257464E+04    0.44949E-04   -0.30413E-04  3269   0.996E-03    0.590E-02
RMM:   8    -0.229678257598E+04   -0.13411E-05   -0.70436E-05  2874   0.558E-03
  38 F= -.23170159E+04 E0= -.23170159E+04  d E =-.151520E-01  mag=     3.0000
       N       E                     dE             d eps       ncg     rms          rms(c)
DAV:   1    -0.229514362680E+04    0.16389E+01   -0.67803E+01  4384   0.524E+00    0.286E+00
RMM:   2    -0.229678732620E+04   -0.16437E+01   -0.16221E+01  6356   0.142E+00    0.365E+00
RMM:   3    -0.229691004710E+04   -0.12272E+00   -0.14482E+00  6099   0.464E-01    0.394E+00
RMM:   4    -0.229679310177E+04    0.11695E+00   -0.14049E-01  5505   0.136E-01    0.907E-01
RMM:   5    -0.229678887640E+04    0.42254E-02   -0.21210E-02  5325   0.520E-02    0.580E-01
RMM:   6    -0.229678552346E+04    0.33529E-02   -0.97669E-03  4808   0.446E-02    0.250E-01
RMM:   7    -0.229678519342E+04    0.33004E-03   -0.19455E-03  4474   0.295E-02    0.129E-01
RMM:   8    -0.229678524065E+04   -0.47233E-04   -0.58495E-04  4139   0.129E-02    0.564E-02
RMM:   9    -0.229678532569E+04   -0.85039E-04   -0.15031E-04  3066   0.914E-03    0.415E-02
RMM:  10    -0.229678534243E+04   -0.16735E-04   -0.33669E-05  2857   0.434E-03    0.237E-02
RMM:  11    -0.229678536453E+04   -0.22101E-04   -0.20790E-05  2840   0.367E-03    0.108E-02
RMM:  12    -0.229678538267E+04   -0.18147E-04   -0.10555E-05  2843   0.298E-03    0.605E-03
RMM:  13    -0.229678539270E+04   -0.10027E-04   -0.39807E-06  2787   0.247E-03    0.353E-03
RMM:  14    -0.229678540033E+04   -0.76257E-05   -0.28796E-06  2584   0.190E-03
  39 F= -.23170193E+04 E0= -.23170193E+04  d E =-.185702E-01  mag=     3.0000
       N       E                     dE             d eps       ncg     rms          rms(c)
DAV:   1    -0.229653613823E+04    0.24925E+00   -0.10920E+01  4384   0.210E+00    0.131E+00
RMM:   2    -0.229687476734E+04   -0.33863E+00   -0.26956E+00  6291   0.611E-01    0.353E+00
RMM:   3    -0.229679008289E+04    0.84684E-01   -0.25152E-01  5762   0.197E-01    0.574E-01
RMM:   4    -0.229678913457E+04    0.94831E-03   -0.24908E-02  4762   0.440E-02    0.323E-01
RMM:   5    -0.229678827858E+04    0.85599E-03   -0.18088E-03  4697   0.205E-02    0.304E-01
RMM:   6    -0.229678749355E+04    0.78503E-03   -0.27629E-03  4656   0.258E-02    0.686E-02
RMM:   7    -0.229678752377E+04   -0.30214E-04   -0.24710E-04  3219   0.106E-02    0.480E-02
RMM:   8    -0.229678751789E+04    0.58790E-05   -0.40489E-05  2866   0.440E-03
  40 F= -.23170212E+04 E0= -.23170212E+04  d E =-.204474E-01  mag=     3.0000
       N       E                     dE             d eps       ncg     rms          rms(c)
DAV:   1    -0.229671894079E+04    0.68583E-01   -0.31649E+00  4432   0.112E+00    0.662E-01
RMM:   2    -0.229680645475E+04   -0.87514E-01   -0.76403E-01  6355   0.313E-01    0.150E+00
RMM:   3    -0.229679589711E+04    0.10558E-01   -0.66771E-02  5842   0.967E-02    0.449E-01
RMM:   4    -0.229679460081E+04    0.12963E-02   -0.65187E-03  4497   0.235E-02    0.167E-01
RMM:   5    -0.229679423969E+04    0.36112E-03   -0.65275E-04  4116   0.123E-02    0.129E-01
RMM:   6    -0.229679414716E+04    0.92525E-04   -0.40293E-04  3445   0.116E-02    0.353E-02
RMM:   7    -0.229679414033E+04    0.68368E-05   -0.46835E-05  2891   0.523E-03
  41 F= -.23170278E+04 E0= -.23170278E+04  d E =-.666509E-02  mag=     3.0000
       N       E                     dE             d eps       ncg     rms          rms(c)
DAV:   1    -0.229610605007E+04    0.68810E+00   -0.28394E+01  4416   0.335E+00    0.195E+00
RMM:   2    -0.229684411469E+04   -0.73806E+00   -0.69259E+00  6402   0.943E-01    0.339E+00
RMM:   3    -0.229683934046E+04    0.47742E-02   -0.66079E-01  6085   0.303E-01    0.200E+00
RMM:   4    -0.229681037650E+04    0.28964E-01   -0.57502E-02  5440   0.781E-02    0.518E-01
RMM:   5    -0.229680725145E+04    0.31250E-02   -0.78281E-03  5233   0.371E-02    0.307E-01
RMM:   6    -0.229680669320E+04    0.55825E-03   -0.30759E-03  4751   0.273E-02    0.119E-01
RMM:   7    -0.229680662290E+04    0.70298E-04   -0.50170E-04  3742   0.133E-02    0.660E-02
RMM:   8    -0.229680663915E+04   -0.16251E-04   -0.10749E-04  3093   0.659E-03    0.282E-02
RMM:   9    -0.229680666299E+04   -0.23831E-04   -0.40754E-05  2864   0.504E-03    0.202E-02
RMM:  10    -0.229680666720E+04   -0.42106E-05   -0.96280E-06  2829   0.313E-03
  42 F= -.23170405E+04 E0= -.23170405E+04  d E =-.193468E-01  mag=     3.0000
       N       E                     dE             d eps       ncg     rms          rms(c)
DAV:   1    -0.229375434622E+04    0.30523E+01   -0.11335E+02  4392   0.673E+00    0.393E+00
RMM:   2    -0.229685615445E+04   -0.31018E+01   -0.29896E+01  6458   0.193E+00    0.579E+00
RMM:   3    -0.229697357809E+04   -0.11742E+00   -0.27222E+00  6061   0.620E-01    0.498E+00
RMM:   4    -0.229678862620E+04    0.18495E+00   -0.21489E-01  5652   0.172E-01    0.224E+00
RMM:   5    -0.229679867582E+04   -0.10050E-01   -0.44938E-02  5032   0.809E-02    0.103E+00
RMM:   6    -0.229679289099E+04    0.57848E-02   -0.15622E-02  4752   0.538E-02    0.600E-01
RMM:   7    -0.229679195106E+04    0.93993E-03   -0.12727E-02  4843   0.594E-02    0.338E-01
RMM:   8    -0.229679158270E+04    0.36836E-03   -0.19883E-03  5065   0.224E-02    0.870E-02
RMM:   9    -0.229679160294E+04   -0.20247E-04   -0.26838E-04  3714   0.101E-02    0.468E-02
RMM:  10    -0.229679168175E+04   -0.78803E-04   -0.71317E-05  3017   0.567E-03    0.301E-02
RMM:  11    -0.229679171340E+04   -0.31658E-04   -0.18272E-05  2842   0.418E-03    0.185E-02
RMM:  12    -0.229679174262E+04   -0.29213E-04   -0.12506E-05  2831   0.330E-03    0.106E-02
RMM:  13    -0.229679176436E+04   -0.21742E-04   -0.73662E-06  2808   0.304E-03    0.611E-03
RMM:  14    -0.229679177396E+04   -0.96010E-05   -0.40902E-06  2765   0.246E-03
  43 F= -.23170264E+04 E0= -.23170264E+04  d E =-.524129E-02  mag=     3.0038
       N       E                     dE             d eps       ncg     rms          rms(c)
DAV:   1    -0.229511274977E+04    0.16790E+01   -0.68509E+01  4400   0.526E+00    0.362E+00
RMM:   2    -0.229769865372E+04   -0.25859E+01   -0.19410E+01  6407   0.166E+00    0.958E+00
RMM:   3    -0.229682274710E+04    0.87591E+00   -0.18870E+00  5651   0.563E-01    0.134E+00
RMM:   4    -0.229681917692E+04    0.35702E-02   -0.19655E-01  5061   0.115E-01    0.816E-01
RMM:   5    -0.229681427630E+04    0.49006E-02   -0.12395E-02  5166   0.518E-02    0.820E-01
RMM:   6    -0.229680816645E+04    0.61098E-02   -0.19408E-02  4992   0.621E-02    0.293E-01
RMM:   7    -0.229680843681E+04   -0.27036E-03   -0.16979E-03  4630   0.249E-02    0.155E-01
RMM:   8    -0.229680841403E+04    0.22781E-04   -0.30381E-04  3433   0.926E-03    0.809E-02
RMM:   9    -0.229680841516E+04   -0.11318E-05   -0.11829E-04  2980   0.634E-03    0.528E-02
RMM:  10    -0.229680842216E+04   -0.69983E-05   -0.49099E-05  2887   0.512E-03
  44 F= -.23170424E+04 E0= -.23170424E+04  d E =-.212083E-01  mag=     3.0008
       N       E                     dE             d eps       ncg     rms          rms(c)
DAV:   1    -0.229676411244E+04    0.44303E-01   -0.20722E+00  4416   0.105E+00    0.587E-01
RMM:   2    -0.229682396113E+04   -0.59849E-01   -0.52700E-01  6150   0.292E-01    0.124E+00
RMM:   3    -0.229681713798E+04    0.68232E-02   -0.48158E-02  5851   0.908E-02    0.437E-01
RMM:   4    -0.229681575982E+04    0.13782E-02   -0.45358E-03  4767   0.225E-02    0.134E-01
RMM:   5    -0.229681548801E+04    0.27181E-03   -0.44980E-04  4227   0.127E-02    0.943E-02
RMM:   6    -0.229681543534E+04    0.52666E-04   -0.29710E-04  3975   0.121E-02    0.282E-02
RMM:   7    -0.229681542998E+04    0.53578E-05   -0.36514E-05  2893   0.603E-03
  45 F= -.23170495E+04 E0= -.23170495E+04  d E =-.707935E-02  mag=     3.0003
       N       E                     dE             d eps       ncg     rms          rms(c)
DAV:   1    -0.229670242518E+04    0.11301E+00   -0.46973E+00  4384   0.159E+00    0.882E-01
RMM:   2    -0.229683611075E+04   -0.13369E+00   -0.11948E+00  6140   0.445E-01    0.178E+00
RMM:   3    -0.229682347195E+04    0.12639E-01   -0.11279E-01  5930   0.139E-01    0.692E-01
RMM:   4    -0.229682001370E+04    0.34582E-02   -0.10363E-02  5138   0.342E-02    0.204E-01
RMM:   5    -0.229681939398E+04    0.61972E-03   -0.10712E-03  4890   0.189E-02    0.136E-01
RMM:   6    -0.229681928011E+04    0.11387E-03   -0.63186E-04  4273   0.165E-02    0.427E-02
RMM:   7    -0.229681926821E+04    0.11897E-04   -0.82786E-05  3103   0.738E-03    0.241E-02
RMM:   8    -0.229681926679E+04    0.14191E-05   -0.19334E-05  2838   0.417E-03
  46 F= -.23170534E+04 E0= -.23170534E+04  d E =-.110460E-01  mag=     3.0001
       N       E                     dE             d eps       ncg     rms          rms(c)
DAV:   1    -0.229677473709E+04    0.44531E-01   -0.20175E+00  4424   0.109E+00    0.613E-01
RMM:   2    -0.229684190534E+04   -0.67168E-01   -0.53728E-01  6187   0.304E-01    0.159E+00
RMM:   3    -0.229682596301E+04    0.15942E-01   -0.48261E-02  5845   0.925E-02    0.311E-01
RMM:   4    -0.229682546702E+04    0.49598E-03   -0.47038E-03  4618   0.215E-02    0.134E-01
RMM:   5    -0.229682526883E+04    0.19819E-03   -0.45767E-04  4173   0.123E-02    0.132E-01
RMM:   6    -0.229682514833E+04    0.12050E-03   -0.42523E-04  3976   0.129E-02    0.307E-02
RMM:   7    -0.229682514158E+04    0.67479E-05   -0.37996E-05  2883   0.602E-03
  47 F= -.23170591E+04 E0= -.23170591E+04  d E =-.569642E-02  mag=     3.0000
       N       E                     dE             d eps       ncg     rms          rms(c)
DAV:   1    -0.229671758223E+04    0.10757E+00   -0.44125E+00  4392   0.161E+00    0.904E-01
RMM:   2    -0.229686316820E+04   -0.14559E+00   -0.11775E+00  6178   0.447E-01    0.229E+00
RMM:   3    -0.229683020712E+04    0.32961E-01   -0.10794E-01  5921   0.137E-01    0.467E-01
RMM:   4    -0.229682903041E+04    0.11767E-02   -0.10293E-02  4868   0.317E-02    0.198E-01
RMM:   5    -0.229682859247E+04    0.43794E-03   -0.10547E-03  4773   0.182E-02    0.197E-01
RMM:   6    -0.229682832271E+04    0.26977E-03   -0.92896E-04  4361   0.180E-02    0.475E-02
RMM:   7    -0.229682830302E+04    0.19682E-04   -0.81490E-05  3023   0.751E-03    0.220E-02
RMM:   8    -0.229682830100E+04    0.20265E-05   -0.19388E-05  2840   0.374E-03
  48 F= -.23170620E+04 E0= -.23170620E+04  d E =-.860427E-02  mag=     3.0000
       N       E                     dE             d eps       ncg     rms          rms(c)
DAV:   1    -0.229675818422E+04    0.70119E-01   -0.29598E+00  4408   0.137E+00    0.772E-01
RMM:   2    -0.229686719611E+04   -0.10901E+00   -0.82727E-01  6166   0.382E-01    0.219E+00
RMM:   3    -0.229683571420E+04    0.31482E-01   -0.74512E-02  5939   0.116E-01    0.314E-01
RMM:   4    -0.229683525598E+04    0.45823E-03   -0.74044E-03  4885   0.271E-02    0.154E-01
RMM:   5    -0.229683500761E+04    0.24836E-03   -0.70771E-04  4585   0.156E-02    0.176E-01
RMM:   6    -0.229683478431E+04    0.22330E-03   -0.70543E-04  4264   0.160E-02    0.387E-02
RMM:   7    -0.229683477120E+04    0.13111E-04   -0.62675E-05  2945   0.681E-03    0.191E-02
RMM:   8    -0.229683476756E+04    0.36396E-05   -0.15744E-05  2833   0.333E-03
  49 F= -.23170678E+04 E0= -.23170678E+04  d E =-.579280E-02  mag=     3.0000
       N       E                     dE             d eps       ncg     rms          rms(c)
DAV:   1    -0.229679520956E+04    0.39562E-01   -0.15882E+00  4456   0.101E+00    0.566E-01
RMM:   2    -0.229685405166E+04   -0.58842E-01   -0.44620E-01  6155   0.281E-01    0.162E+00
RMM:   3    -0.229683705612E+04    0.16996E-01   -0.39796E-02  5879   0.844E-02    0.229E-01
RMM:   4    -0.229683682284E+04    0.23328E-03   -0.39808E-03  4647   0.199E-02    0.114E-01
RMM:   5    -0.229683668687E+04    0.13597E-03   -0.39053E-04  4118   0.118E-02    0.132E-01
RMM:   6    -0.229683655895E+04    0.12792E-03   -0.40156E-04  3961   0.124E-02    0.282E-02
RMM:   7    -0.229683655187E+04    0.70739E-05   -0.37068E-05  2900   0.559E-03
  50 F= -.23170691E+04 E0= -.23170691E+04  d E =-.708517E-02  mag=     3.0000
       N       E                     dE             d eps       ncg     rms          rms(c)
DAV:   1    -0.229679631699E+04    0.40242E-01   -0.18100E+00  4384   0.118E+00    0.624E-01
RMM:   2    -0.229686032837E+04   -0.64011E-01   -0.48454E-01  6059   0.319E-01    0.170E+00
RMM:   3    -0.229684207888E+04    0.18249E-01   -0.44089E-02  5915   0.932E-02    0.271E-01
RMM:   4    -0.229684167267E+04    0.40621E-03   -0.42288E-03  4811   0.229E-02    0.114E-01
RMM:   5    -0.229684150502E+04    0.16764E-03   -0.40565E-04  4422   0.139E-02    0.124E-01
RMM:   6    -0.229684138817E+04    0.11685E-03   -0.38094E-04  4163   0.135E-02    0.222E-02
RMM:   7    -0.229684138400E+04    0.41747E-05   -0.38299E-05  2898   0.677E-03
  51 F= -.23170736E+04 E0= -.23170736E+04  d E =-.444234E-02  mag=     3.0000
       N       E                     dE             d eps       ncg     rms          rms(c)
DAV:   1    -0.229676727835E+04    0.74110E-01   -0.30123E+00  4384   0.152E+00    0.804E-01
RMM:   2    -0.229687328096E+04   -0.10600E+00   -0.80448E-01  6074   0.412E-01    0.218E+00
RMM:   3    -0.229684339039E+04    0.29891E-01   -0.73523E-02  5949   0.120E-01    0.357E-01
RMM:   4    -0.229684272185E+04    0.66854E-03   -0.71481E-03  4930   0.295E-02    0.146E-01
RMM:   5    -0.229684244289E+04    0.27895E-03   -0.65139E-04  4924   0.175E-02    0.163E-01
RMM:   6    -0.229684224021E+04    0.20269E-03   -0.63778E-04  4518   0.167E-02    0.315E-02
RMM:   7    -0.229684223001E+04    0.10193E-04   -0.60403E-05  3027   0.752E-03    0.172E-02
RMM:   8    -0.229684222532E+04    0.46981E-05   -0.14940E-05  2827   0.350E-03
  52 F= -.23170739E+04 E0= -.23170739E+04  d E =-.478871E-02  mag=     3.0000
       N       E                     dE             d eps       ncg     rms          rms(c)
DAV:   1    -0.229682840447E+04    0.13826E-01   -0.57334E-01  4448   0.662E-01    0.348E-01
RMM:   2    -0.229684842032E+04   -0.20016E-01   -0.15236E-01  6058   0.178E-01    0.947E-01
RMM:   3    -0.229684281341E+04    0.56069E-02   -0.13572E-02  5697   0.524E-02    0.153E-01
RMM:   4    -0.229684270882E+04    0.10459E-03   -0.13291E-03  4164   0.131E-02    0.658E-02
RMM:   5    -0.229684265547E+04    0.53353E-04   -0.12234E-04  3308   0.809E-03    0.675E-02
RMM:   6    -0.229684262057E+04    0.34898E-04   -0.13349E-04  3509   0.876E-03    0.141E-02
RMM:   7    -0.229684261933E+04    0.12402E-05   -0.14270E-05  2853   0.490E-03
  53 F= -.23170745E+04 E0= -.23170745E+04  d E =-.539739E-02  mag=     3.0000
       N       E                     dE             d eps       ncg     rms          rms(c)
DAV:   1    -0.229681375217E+04    0.28868E-01   -0.12814E+00  4400   0.971E-01    0.512E-01
RMM:   2    -0.229685751976E+04   -0.43768E-01   -0.34727E-01  6202   0.262E-01    0.131E+00
RMM:   3    -0.229684724044E+04    0.10279E-01   -0.30595E-02  5836   0.730E-02    0.261E-01
RMM:   4    -0.229684690362E+04    0.33682E-03   -0.28416E-03  4549   0.179E-02    0.900E-02
RMM:   5    -0.229684679259E+04    0.11103E-03   -0.21212E-04  3689   0.944E-03    0.888E-02
RMM:   6    -0.229684673329E+04    0.59302E-04   -0.22846E-04  3789   0.109E-02    0.171E-02
RMM:   7    -0.229684673159E+04    0.17002E-05   -0.23845E-05  2888   0.519E-03
  54 F= -.23170784E+04 E0= -.23170784E+04  d E =-.384397E-02  mag=     3.0000
       N       E                     dE             d eps       ncg     rms          rms(c)
DAV:   1    -0.229658270780E+04    0.26403E+00   -0.10348E+01  4384   0.277E+00    0.147E+00
RMM:   2    -0.229694245314E+04   -0.35975E+00   -0.28591E+00  6307   0.763E-01    0.373E+00
RMM:   3    -0.229685690425E+04    0.85549E-01   -0.26848E-01  6087   0.213E-01    0.760E-01
RMM:   4    -0.229685301352E+04    0.38907E-02   -0.22337E-02  5154   0.503E-02    0.253E-01
RMM:   5    -0.229685226989E+04    0.74363E-03   -0.15740E-03  4963   0.252E-02    0.267E-01
RMM:   6    -0.229685175904E+04    0.51085E-03   -0.18486E-03  4680   0.278E-02    0.589E-02
RMM:   7    -0.229685173723E+04    0.21811E-04   -0.17782E-04  3584   0.110E-02    0.346E-02
RMM:   8    -0.229685172299E+04    0.14239E-04   -0.37790E-05  2849   0.479E-03    0.115E-02
RMM:   9    -0.229685172267E+04    0.32011E-06   -0.12314E-05  2836   0.280E-03
  55 F= -.23170826E+04 E0= -.23170826E+04  d E =-.811306E-02  mag=     3.0000
       N       E                     dE             d eps       ncg     rms          rms(c)
DAV:   1    -0.229682222763E+04    0.29495E-01   -0.13198E+00  4496   0.981E-01    0.516E-01
RMM:   2    -0.229686664283E+04   -0.44415E-01   -0.35216E-01  6251   0.269E-01    0.133E+00
RMM:   3    -0.229685633448E+04    0.10308E-01   -0.31551E-02  5905   0.752E-02    0.260E-01
RMM:   4    -0.229685601769E+04    0.31679E-03   -0.28695E-03  4606   0.181E-02    0.887E-02
RMM:   5    -0.229685591005E+04    0.10764E-03   -0.20261E-04  3745   0.961E-03    0.851E-02
RMM:   6    -0.229685585756E+04    0.52490E-04   -0.21722E-04  3735   0.108E-02    0.170E-02
RMM:   7    -0.229685585634E+04    0.12183E-05   -0.23817E-05  2880   0.521E-03
  56 F= -.23170864E+04 E0= -.23170864E+04  d E =-.380096E-02  mag=     3.0000
       N       E                     dE             d eps       ncg     rms          rms(c)
DAV:   1    -0.229655654820E+04    0.29931E+00   -0.11887E+01  4416   0.295E+00    0.156E+00
RMM:   2    -0.229696156520E+04   -0.40502E+00   -0.32187E+00  6313   0.816E-01    0.397E+00
RMM:   3    -0.229686710047E+04    0.94465E-01   -0.30744E-01  6120   0.229E-01    0.808E-01
RMM:   4    -0.229686283997E+04    0.42605E-02   -0.26183E-02  5246   0.539E-02    0.264E-01
RMM:   5    -0.229686200062E+04    0.83936E-03   -0.17882E-03  5029   0.270E-02    0.278E-01
RMM:   6    -0.229686145144E+04    0.54918E-03   -0.20691E-03  4759   0.292E-02    0.689E-02
RMM:   7    -0.229686142282E+04    0.28616E-04   -0.19690E-04  3610   0.116E-02    0.360E-02
RMM:   8    -0.229686140835E+04    0.14479E-04   -0.38076E-05  2849   0.490E-03    0.120E-02
RMM:   9    -0.229686140744E+04    0.90330E-06   -0.12618E-05  2837   0.290E-03
  57 F= -.23170910E+04 E0= -.23170910E+04  d E =-.840611E-02  mag=     3.0000
       N       E                     dE             d eps       ncg     rms          rms(c)
DAV:   1    -0.229680708027E+04    0.54328E-01   -0.25007E+00  4448   0.128E+00    0.704E-01
RMM:   2    -0.229689104002E+04   -0.83960E-01   -0.63001E-01  6263   0.355E-01    0.197E+00
RMM:   3    -0.229686727735E+04    0.23763E-01   -0.60598E-02  6031   0.103E-01    0.304E-01
RMM:   4    -0.229686680780E+04    0.46955E-03   -0.57441E-03  4912   0.248E-02    0.126E-01
RMM:   5    -0.229686660594E+04    0.20186E-03   -0.46170E-04  4365   0.135E-02    0.136E-01
RMM:   6    -0.229686646555E+04    0.14039E-03   -0.47344E-04  4193   0.141E-02    0.262E-02
RMM:   7    -0.229686646151E+04    0.40453E-05   -0.46287E-05  2918   0.648E-03
  58 F= -.23170956E+04 E0= -.23170956E+04  d E =-.461275E-02  mag=     3.0000
       N       E                     dE             d eps       ncg     rms          rms(c)
DAV:   1    -0.229677660629E+04    0.89859E-01   -0.38927E+00  4416   0.159E+00    0.882E-01
RMM:   2    -0.229690810926E+04   -0.13150E+00   -0.97924E-01  6275   0.443E-01    0.249E+00
RMM:   3    -0.229687003912E+04    0.38070E-01   -0.95088E-02  6078   0.130E-01    0.380E-01
RMM:   4    -0.229686934768E+04    0.69144E-03   -0.90779E-03  5068   0.311E-02    0.158E-01
RMM:   5    -0.229686903909E+04    0.30859E-03   -0.74236E-04  4648   0.169E-02    0.173E-01
RMM:   6    -0.229686881190E+04    0.22719E-03   -0.74101E-04  4500   0.171E-02    0.342E-02
RMM:   7    -0.229686880443E+04    0.74669E-05   -0.71918E-05  2999   0.751E-03
  59 F= -.23170975E+04 E0= -.23170975E+04  d E =-.642327E-02  mag=     3.0000
       N       E                     dE             d eps       ncg     rms          rms(c)
DAV:   1    -0.229683286779E+04    0.35944E-01   -0.17940E+00  4416   0.106E+00    0.575E-01
RMM:   2    -0.229688690276E+04   -0.54035E-01   -0.42393E-01  6235   0.288E-01    0.151E+00
RMM:   3    -0.229687355208E+04    0.13351E-01   -0.39370E-02  5953   0.851E-02    0.294E-01
RMM:   4    -0.229687307528E+04    0.47680E-03   -0.37840E-03  4688   0.205E-02    0.111E-01
RMM:   5    -0.229687292164E+04    0.15364E-03   -0.30744E-04  4134   0.114E-02    0.109E-01
RMM:   6    -0.229687283579E+04    0.85846E-04   -0.31850E-04  4020   0.120E-02    0.250E-02
RMM:   7    -0.229687283182E+04    0.39749E-05   -0.29289E-05  2888   0.604E-03
  60 F= -.23171014E+04 E0= -.23171014E+04  d E =-.390059E-02  mag=     3.0000
       N       E                     dE             d eps       ncg     rms          rms(c)
DAV:   1    -0.229682878418E+04    0.44052E-01   -0.20778E+00  4384   0.113E+00    0.614E-01
RMM:   2    -0.229689027587E+04   -0.61492E-01   -0.48210E-01  6228   0.308E-01    0.161E+00
RMM:   3    -0.229687517180E+04    0.15104E-01   -0.45570E-02  5973   0.920E-02    0.313E-01
RMM:   4    -0.229687464782E+04    0.52398E-03   -0.43956E-03  4785   0.221E-02    0.119E-01
RMM:   5    -0.229687446583E+04    0.18199E-03   -0.36910E-04  4238   0.124E-02    0.116E-01
RMM:   6    -0.229687436500E+04    0.10083E-03   -0.36693E-04  4102   0.127E-02    0.278E-02
RMM:   7    -0.229687435921E+04    0.57869E-05   -0.33369E-05  2893   0.640E-03
  61 F= -.23171028E+04 E0= -.23171028E+04  d E =-.530211E-02  mag=     3.0000
       N       E                     dE             d eps       ncg     rms          rms(c)
DAV:   1    -0.229683320746E+04    0.41158E-01   -0.20598E+00  4384   0.119E+00    0.601E-01
RMM:   2    -0.229688733431E+04   -0.54127E-01   -0.46176E-01  6134   0.312E-01    0.131E+00
RMM:   3    -0.229687866077E+04    0.86735E-02   -0.42353E-02  5917   0.934E-02    0.422E-01
RMM:   4    -0.229687749175E+04    0.11690E-02   -0.39329E-03  4863   0.236E-02    0.117E-01
RMM:   5    -0.229687729385E+04    0.19790E-03   -0.33956E-04  4386   0.130E-02    0.883E-02
RMM:   6    -0.229687723468E+04    0.59168E-04   -0.29935E-04  4184   0.126E-02    0.217E-02
RMM:   7    -0.229687723130E+04    0.33832E-05   -0.29486E-05  2898   0.729E-03
  62 F= -.23171059E+04 E0= -.23171059E+04  d E =-.317479E-02  mag=     3.0000
       N       E                     dE             d eps       ncg     rms          rms(c)
DAV:   1    -0.229687499375E+04    0.22409E-02   -0.10437E-01  4752   0.267E-01    0.136E-01
RMM:   2    -0.229687775705E+04   -0.27633E-02   -0.23528E-02  6093   0.706E-02    0.298E-01
RMM:   3    -0.229687730567E+04    0.45138E-03   -0.21351E-03  3798   0.216E-02    0.956E-02
RMM:   4    -0.229687724577E+04    0.59896E-04   -0.20121E-04  2961   0.630E-03    0.273E-02
RMM:   5    -0.229687723550E+04    0.10270E-04   -0.20094E-05  2869   0.382E-03    0.201E-02
RMM:   6    -0.229687723269E+04    0.28059E-05   -0.17489E-05  2836   0.390E-03
  63 F= -.23171060E+04 E0= -.23171060E+04  d E =-.324594E-02  mag=     3.0000
       N       E                     dE             d eps       ncg     rms          rms(c)
DAV:   1    -0.229686480266E+04    0.12433E-01   -0.67804E-01  4416   0.720E-01    0.331E-01
RMM:   2    -0.229688111454E+04   -0.16312E-01   -0.14147E-01  6099   0.178E-01    0.690E-01
RMM:   3    -0.229687913425E+04    0.19803E-02   -0.13688E-02  5616   0.585E-02    0.251E-01
RMM:   4    -0.229687871525E+04    0.41900E-03   -0.12948E-03  4420   0.144E-02    0.651E-02
RMM:   5    -0.229687865338E+04    0.61869E-04   -0.10706E-04  3356   0.788E-03    0.460E-02
RMM:   6    -0.229687863311E+04    0.20271E-04   -0.99583E-05  3673   0.848E-03    0.104E-02
RMM:   7    -0.229687863254E+04    0.56758E-06   -0.11223E-05  2849   0.505E-03
  64 F= -.23171076E+04 E0= -.23171076E+04  d E =-.159535E-02  mag=     3.0000
       N       E                     dE             d eps       ncg     rms          rms(c)
DAV:   1    -0.229687456545E+04    0.40677E-02   -0.20468E-01  4464   0.396E-01    0.183E-01
RMM:   2    -0.229687955232E+04   -0.49869E-02   -0.42948E-02  6136   0.988E-02    0.387E-01
RMM:   3    -0.229687889269E+04    0.65963E-03   -0.40474E-03  4707   0.314E-02    0.135E-01
RMM:   4    -0.229687877224E+04    0.12044E-03   -0.38190E-04  3091   0.841E-03    0.363E-02
RMM:   5    -0.229687875402E+04    0.18221E-04   -0.33877E-05  2896   0.498E-03    0.258E-02
RMM:   6    -0.229687874742E+04    0.66059E-05   -0.30819E-05  2858   0.527E-03
  65 F= -.23171078E+04 E0= -.23171078E+04  d E =-.181907E-02  mag=     3.0000
       N       E                     dE             d eps       ncg     rms          rms(c)
DAV:   1    -0.229686786020E+04    0.10894E-01   -0.67900E-01  4384   0.776E-01    0.305E-01
RMM:   2    -0.229688150468E+04   -0.13644E-01   -0.12433E-01  5984   0.175E-01    0.559E-01
RMM:   3    -0.229688061396E+04    0.89071E-03   -0.11757E-02  5618   0.576E-02    0.274E-01
RMM:   4    -0.229688008624E+04    0.52772E-03   -0.11136E-03  4514   0.146E-02    0.625E-02
RMM:   5    -0.229688002397E+04    0.62271E-04   -0.13901E-04  3548   0.848E-03    0.382E-02
RMM:   6    -0.229688000751E+04    0.16459E-04   -0.87409E-05  3778   0.831E-03    0.113E-02
RMM:   7    -0.229688000652E+04    0.98970E-06   -0.10983E-05  2829   0.522E-03
  66 F= -.23171092E+04 E0= -.23171092E+04  d E =-.134935E-02  mag=     3.0000
       N       E                     dE             d eps       ncg     rms          rms(c)
DAV:   1    -0.229687680843E+04    0.31991E-02   -0.17711E-01  4464   0.397E-01    0.156E-01
RMM:   2    -0.229688038990E+04   -0.35815E-02   -0.32593E-02  6047   0.905E-02    0.287E-01
RMM:   3    -0.229688015018E+04    0.23972E-03   -0.31206E-03  4461   0.302E-02    0.138E-01
RMM:   4    -0.229688001561E+04    0.13457E-03   -0.29214E-04  3068   0.813E-03    0.326E-02
RMM:   5    -0.229687999804E+04    0.17573E-04   -0.37178E-05  2892   0.517E-03    0.199E-02
RMM:   6    -0.229687999293E+04    0.51131E-05   -0.25433E-05  2872   0.513E-03
  67 F= -.23171092E+04 E0= -.23171092E+04  d E =-.138286E-02  mag=     3.0000
       N       E                     dE             d eps       ncg     rms          rms(c)
DAV:   1    -0.229687205462E+04    0.79434E-02   -0.52733E-01  4384   0.701E-01    0.251E-01
RMM:   2    -0.229688188085E+04   -0.98262E-02   -0.88962E-02  5928   0.150E-01    0.479E-01
RMM:   3    -0.229688105731E+04    0.82354E-03   -0.76887E-03  5425   0.496E-02    0.220E-01
RMM:   4    -0.229688073782E+04    0.31949E-03   -0.80097E-04  3909   0.122E-02    0.539E-02
RMM:   5    -0.229688069168E+04    0.46134E-04   -0.81775E-05  3181   0.718E-03    0.340E-02
RMM:   6    -0.229688068041E+04    0.11272E-04   -0.68653E-05  3405   0.744E-03    0.830E-03
RMM:   7    -0.229688068022E+04    0.19063E-06   -0.88126E-06  2828   0.486E-03
  68 F= -.23171101E+04 E0= -.23171101E+04  d E =-.933568E-03  mag=     3.0000
       N       E                     dE             d eps       ncg     rms          rms(c)
DAV:   1    -0.229687604398E+04    0.46364E-02   -0.28341E-01  4416   0.513E-01    0.183E-01
RMM:   2    -0.229688128433E+04   -0.52404E-02   -0.47440E-02  6022   0.110E-01    0.349E-01
RMM:   3    -0.229688085714E+04    0.42719E-03   -0.41728E-03  4939   0.358E-02    0.160E-01
RMM:   4    -0.229688068897E+04    0.16817E-03   -0.42957E-04  3183   0.920E-03    0.399E-02
RMM:   5    -0.229688066373E+04    0.25243E-04   -0.45279E-05  2938   0.571E-03    0.251E-02
RMM:   6    -0.229688065726E+04    0.64702E-05   -0.37914E-05  2939   0.588E-03
  69 F= -.23171103E+04 E0= -.23171103E+04  d E =-.109251E-02  mag=     3.0000
       N       E                     dE             d eps       ncg     rms          rms(c)
DAV:   1    -0.229687785641E+04    0.28073E-02   -0.26290E-01  4416   0.524E-01    0.170E-01
RMM:   2    -0.229688181283E+04   -0.39564E-02   -0.36905E-02  5825   0.106E-01    0.290E-01
RMM:   3    -0.229688154712E+04    0.26570E-03   -0.30783E-03  5001   0.360E-02    0.164E-01
RMM:   4    -0.229688135142E+04    0.19571E-03   -0.33572E-04  3363   0.956E-03    0.405E-02
RMM:   5    -0.229688132075E+04    0.30670E-04   -0.74330E-05  3349   0.706E-03    0.209E-02
RMM:   6    -0.229688131700E+04    0.37473E-05   -0.28742E-05  2905   0.618E-03
  70 F= -.23171112E+04 E0= -.23171112E+04  d E =-.942185E-03  mag=     3.0000
       N       E                     dE             d eps       ncg     rms          rms(c)
DAV:   1    -0.229687967530E+04    0.16454E-02   -0.11787E-01  4480   0.352E-01    0.115E-01
RMM:   2    -0.229688147904E+04   -0.18037E-02   -0.16765E-02  6098   0.727E-02    0.198E-01
RMM:   3    -0.229688134625E+04    0.13278E-03   -0.13930E-03  4064   0.232E-02    0.109E-01
RMM:   4    -0.229688125979E+04    0.86461E-04   -0.15120E-04  2944   0.723E-03    0.275E-02
RMM:   5    -0.229688124573E+04    0.14068E-04   -0.36933E-05  2929   0.539E-03    0.142E-02
RMM:   6    -0.229688124400E+04    0.17247E-05   -0.14831E-05  2834   0.492E-03
  71 F= -.23171114E+04 E0= -.23171114E+04  d E =-.105924E-02  mag=     3.0000
       N       E                     dE             d eps       ncg     rms          rms(c)
DAV:   1    -0.229687803399E+04    0.32117E-02   -0.30065E-01  4400   0.572E-01    0.177E-01
RMM:   2    -0.229688246802E+04   -0.44340E-02   -0.40247E-02  5827   0.111E-01    0.334E-01
RMM:   3    -0.229688201538E+04    0.45265E-03   -0.34532E-03  4972   0.391E-02    0.149E-01
RMM:   4    -0.229688184620E+04    0.16918E-03   -0.37370E-04  3439   0.957E-03    0.422E-02
RMM:   5    -0.229688180898E+04    0.37222E-04   -0.74409E-05  3477   0.716E-03    0.252E-02
RMM:   6    -0.229688180318E+04    0.57996E-05   -0.33535E-05  2933   0.642E-03
  72 F= -.23171121E+04 E0= -.23171121E+04  d E =-.726241E-03  mag=     3.0000
       N       E                     dE             d eps       ncg     rms          rms(c)
DAV:   1    -0.229688068043E+04    0.11286E-02   -0.84389E-02  4544   0.304E-01    0.949E-02
RMM:   2    -0.229688193365E+04   -0.12532E-02   -0.11426E-02  6076   0.609E-02    0.177E-01
RMM:   3    -0.229688180910E+04    0.12455E-03   -0.98380E-04  3730   0.197E-02    0.808E-02
RMM:   4    -0.229688176052E+04    0.48584E-04   -0.10619E-04  2909   0.608E-03    0.228E-02
RMM:   5    -0.229688174956E+04    0.10960E-04   -0.23778E-05  2876   0.441E-03    0.130E-02
RMM:   6    -0.229688174766E+04    0.18925E-05   -0.11317E-05  2826   0.417E-03
  73 F= -.23171121E+04 E0= -.23171121E+04  d E =-.759864E-03  mag=     3.0000
       N       E                     dE             d eps       ncg     rms          rms(c)
DAV:   1    -0.229687785482E+04    0.38947E-02   -0.33157E-01  4384   0.592E-01    0.192E-01
RMM:   2    -0.229688349232E+04   -0.56375E-02   -0.47810E-02  5914   0.118E-01    0.434E-01
RMM:   3    -0.229688247823E+04    0.10141E-02   -0.42196E-03  5128   0.400E-02    0.127E-01
RMM:   4    -0.229688235830E+04    0.11993E-03   -0.45153E-04  3513   0.984E-03    0.465E-02
RMM:   5    -0.229688232445E+04    0.33847E-04   -0.70998E-05  3333   0.721E-03    0.387E-02
RMM:   6    -0.229688231212E+04    0.12338E-04   -0.53464E-05  3040   0.695E-03    0.815E-03
RMM:   7    -0.229688231188E+04    0.23106E-06   -0.77149E-06  2812   0.467E-03
  74 F= -.23171128E+04 E0= -.23171128E+04  d E =-.678480E-03  mag=     3.0000
       N       E                     dE             d eps       ncg     rms          rms(c)
DAV:   1    -0.229688160128E+04    0.71083E-03   -0.52429E-02  4552   0.235E-01    0.774E-02
RMM:   2    -0.229688251527E+04   -0.91399E-03   -0.76262E-03  5967   0.478E-02    0.180E-01
RMM:   3    -0.229688233534E+04    0.17993E-03   -0.68300E-04  3408   0.169E-02    0.484E-02
RMM:   4    -0.229688231872E+04    0.16618E-04   -0.73940E-05  2895   0.482E-03    0.189E-02
RMM:   5    -0.229688231351E+04    0.52098E-05   -0.12756E-05  2856   0.335E-03
  75 F= -.23171128E+04 E0= -.23171128E+04  d E =-.725876E-03  mag=     3.0000
       N       E                     dE             d eps       ncg     rms          rms(c)
DAV:   1    -0.229687899814E+04    0.33206E-02   -0.27570E-01  4416   0.543E-01    0.189E-01
RMM:   2    -0.229688342328E+04   -0.44251E-02   -0.40356E-02  5919   0.112E-01    0.327E-01
RMM:   3    -0.229688306437E+04    0.35890E-03   -0.34271E-03  4981   0.363E-02    0.175E-01
RMM:   4    -0.229688284320E+04    0.22117E-03   -0.38612E-04  3712   0.100E-02    0.429E-02
RMM:   5    -0.229688281124E+04    0.31955E-04   -0.73373E-05  3382   0.741E-03    0.251E-02
RMM:   6    -0.229688280646E+04    0.47789E-05   -0.31619E-05  2906   0.645E-03
  76 F= -.23171135E+04 E0= -.23171135E+04  d E =-.638527E-03  mag=     3.0000
       N       E                     dE             d eps       ncg     rms          rms(c)
DAV:   1    -0.229688240184E+04    0.40941E-03   -0.25417E-02  4672   0.165E-01    0.586E-02
RMM:   2    -0.229688281692E+04   -0.41508E-03   -0.37902E-03  6075   0.361E-02    0.100E-01
RMM:   3    -0.229688278356E+04    0.33352E-04   -0.33164E-04  3025   0.114E-02    0.540E-02
RMM:   4    -0.229688276348E+04    0.20086E-04   -0.37804E-05  2862   0.423E-03    0.135E-02
RMM:   5    -0.229688276056E+04    0.29147E-05   -0.85081E-06  2831   0.276E-03
  77 F= -.23171135E+04 E0= -.23171135E+04  d E =-.637163E-03  mag=     3.0000
       N       E                     dE             d eps       ncg     rms          rms(c)
DAV:   1    -0.229687903665E+04    0.37268E-02   -0.25611E-01  4416   0.514E-01    0.177E-01
RMM:   2    -0.229688336431E+04   -0.43277E-02   -0.41223E-02  5928   0.108E-01    0.273E-01
RMM:   3    -0.229688328850E+04    0.75810E-04   -0.35424E-03  4779   0.335E-02    0.185E-01
RMM:   4    -0.229688303950E+04    0.24901E-03   -0.37861E-04  3305   0.950E-03    0.432E-02
RMM:   5    -0.229688300895E+04    0.30543E-04   -0.68206E-05  3073   0.676E-03    0.225E-02
RMM:   6    -0.229688300566E+04    0.32885E-05   -0.32954E-05  2949   0.626E-03
  78 F= -.23171139E+04 E0= -.23171139E+04  d E =-.431800E-03  mag=     3.0000
       N       E                     dE             d eps       ncg     rms          rms(c)
DAV:   1    -0.229688276777E+04    0.24119E-03   -0.11852E-02  4856   0.111E-01    0.403E-02
RMM:   2    -0.229688298291E+04   -0.21514E-03   -0.19761E-03  5775   0.252E-02    0.710E-02
RMM:   3    -0.229688296779E+04    0.15113E-04   -0.17797E-04  2904   0.837E-03    0.370E-02
RMM:   4    -0.229688295841E+04    0.93787E-05   -0.19323E-05  2847   0.314E-03
  79 F= -.23171139E+04 E0= -.23171139E+04  d E =-.425155E-03  mag=     3.0000
       N       E                     dE             d eps       ncg     rms          rms(c)
DAV:   1    -0.229688104769E+04    0.19201E-02   -0.15368E-01  4416   0.411E-01    0.150E-01
RMM:   2    -0.229688350235E+04   -0.24547E-02   -0.22162E-02  5838   0.838E-02    0.253E-01
RMM:   3    -0.229688328534E+04    0.21702E-03   -0.20198E-03  4394   0.279E-02    0.139E-01
RMM:   4    -0.229688313328E+04    0.15206E-03   -0.21733E-04  3231   0.835E-03    0.337E-02
RMM:   5    -0.229688311325E+04    0.20025E-04   -0.55093E-05  3269   0.654E-03    0.179E-02
RMM:   6    -0.229688311095E+04    0.23016E-05   -0.19690E-05  2833   0.556E-03
  80 F= -.23171142E+04 E0= -.23171142E+04  d E =-.315554E-03  mag=     3.0000
       N       E                     dE             d eps       ncg     rms          rms(c)
DAV:   1    -0.229688310803E+04    0.52276E-05   -0.16385E-05  3592   0.608E-03    0.422E-03
RMM:   2    -0.229688310860E+04   -0.57658E-06   -0.62332E-06  2704   0.270E-03
  81 F= -.23171142E+04 E0= -.23171142E+04  d E =-.315029E-03  mag=     3.0000
       N       E                     dE             d eps       ncg     rms          rms(c)
DAV:   1    -0.229688311079E+04   -0.27659E-05   -0.14505E-05  3520   0.430E-03    0.432E-03
RMM:   2    -0.229688311291E+04   -0.21135E-05   -0.42744E-06  2320   0.245E-03
  82 F= -.23171142E+04 E0= -.23171142E+04  d E =-.317629E-03  mag=     3.0000
       N       E                     dE             d eps       ncg     rms          rms(c)
DAV:   1    -0.229688222450E+04    0.88629E-03   -0.84992E-02  4416   0.306E-01    0.106E-01
RMM:   2    -0.229688349209E+04   -0.12676E-02   -0.10967E-02  5750   0.604E-02    0.201E-01
RMM:   3    -0.229688329614E+04    0.19595E-03   -0.96161E-04  3737   0.202E-02    0.845E-02
RMM:   4    -0.229688324069E+04    0.55446E-04   -0.11125E-04  2941   0.640E-03    0.242E-02
RMM:   5    -0.229688323013E+04    0.10568E-04   -0.28532E-05  2911   0.509E-03    0.150E-02
RMM:   6    -0.229688322824E+04    0.18840E-05   -0.12072E-05  2829   0.465E-03
  83 F= -.23171145E+04 E0= -.23171145E+04  d E =-.230915E-03  mag=     3.0000
       N       E                     dE             d eps       ncg     rms          rms(c)
DAV:   1    -0.229688315987E+04    0.70253E-04   -0.33917E-03  5000   0.615E-02    0.223E-02
RMM:   2    -0.229688321375E+04   -0.53876E-04   -0.46158E-04  4681   0.134E-02    0.429E-02
RMM:   3    -0.229688320505E+04    0.86964E-05   -0.44488E-05  2841   0.600E-03
  84 F= -.23171145E+04 E0= -.23171145E+04  d E =-.231162E-03  mag=     3.0000
       N       E                     dE             d eps       ncg     rms          rms(c)
DAV:   1    -0.229688233188E+04    0.88187E-03   -0.87121E-02  4416   0.305E-01    0.962E-02
RMM:   2    -0.229688349693E+04   -0.11650E-02   -0.10263E-02  5768   0.595E-02    0.182E-01
RMM:   3    -0.229688334781E+04    0.14912E-03   -0.92520E-04  3800   0.206E-02    0.780E-02
RMM:   4    -0.229688330054E+04    0.47275E-04   -0.10190E-04  2922   0.597E-03    0.245E-02
RMM:   5    -0.229688329005E+04    0.10484E-04   -0.27170E-05  2892   0.486E-03    0.145E-02
RMM:   6    -0.229688328864E+04    0.14086E-05   -0.11286E-05  2827   0.442E-03
  85 F= -.23171146E+04 E0= -.23171146E+04  d E =-.193827E-03  mag=     3.0000
       N       E                     dE             d eps       ncg     rms          rms(c)
DAV:   1    -0.229688318246E+04    0.10759E-03   -0.64162E-03  4728   0.830E-02    0.272E-02
RMM:   2    -0.229688327141E+04   -0.88951E-04   -0.77960E-04  5379   0.172E-02    0.518E-02
RMM:   3    -0.229688325938E+04    0.12032E-04   -0.71104E-05  2857   0.657E-03    0.220E-02
RMM:   4    -0.229688325588E+04    0.34955E-05   -0.82319E-06  2817   0.231E-03
  86 F= -.23171146E+04 E0= -.23171146E+04  d E =-.191284E-03  mag=     3.0000
       N       E                     dE             d eps       ncg     rms          rms(c)
DAV:   1    -0.229688253315E+04    0.72623E-03   -0.75436E-02  4416   0.286E-01    0.829E-02
RMM:   2    -0.229688343394E+04   -0.90079E-03   -0.84979E-03  5809   0.542E-02    0.129E-01
RMM:   3    -0.229688339957E+04    0.34368E-04   -0.71834E-04  3584   0.178E-02    0.858E-02
RMM:   4    -0.229688334523E+04    0.54338E-04   -0.76963E-05  2886   0.552E-03    0.208E-02
RMM:   5    -0.229688333790E+04    0.73255E-05   -0.20904E-05  2869   0.410E-03
  87 F= -.23171149E+04 E0= -.23171149E+04  d E =-.208796E-03  mag=     3.0000
       N       E                     dE             d eps       ncg     rms          rms(c)
DAV:   1    -0.229688241963E+04    0.92560E-03   -0.76062E-02  4432   0.287E-01    0.845E-02
RMM:   2    -0.229688332678E+04   -0.90715E-03   -0.86765E-03  6042   0.562E-02    0.123E-01
RMM:   3    -0.229688331073E+04    0.16049E-04   -0.72898E-04  3588   0.176E-02    0.925E-02
RMM:   4    -0.229688324840E+04    0.62326E-04   -0.78067E-05  2880   0.592E-03    0.207E-02
RMM:   5    -0.229688324151E+04    0.68908E-05   -0.21896E-05  2867   0.416E-03
  88 F= -.23171149E+04 E0= -.23171149E+04  d E =-.240352E-03  mag=     3.0000
       N       E                     dE             d eps       ncg     rms          rms(c)
DAV:   1    -0.229688269780E+04    0.55060E-03   -0.55152E-02  4432   0.246E-01    0.718E-02
RMM:   2    -0.229688336513E+04   -0.66733E-03   -0.63911E-03  6051   0.486E-02    0.102E-01
RMM:   3    -0.229688336157E+04    0.35676E-05   -0.52913E-04  3403   0.155E-02    0.805E-02
RMM:   4    -0.229688331532E+04    0.46246E-04   -0.58237E-05  2870   0.524E-03    0.168E-02
RMM:   5    -0.229688331115E+04    0.41697E-05   -0.13917E-05  2845   0.339E-03
  89 F= -.23171151E+04 E0= -.23171151E+04  d E =-.179055E-03  mag=     3.0000
       N       E                     dE             d eps       ncg     rms          rms(c)
DAV:   1    -0.229688203212E+04    0.12832E-02   -0.10851E-01  4432   0.345E-01    0.100E-01
RMM:   2    -0.229688335137E+04   -0.13193E-02   -0.12526E-02  5962   0.670E-02    0.149E-01
RMM:   3    -0.229688332630E+04    0.25078E-04   -0.10395E-03  3903   0.219E-02    0.109E-01
RMM:   4    -0.229688324093E+04    0.85370E-04   -0.11169E-04  2935   0.666E-03    0.234E-02
RMM:   5    -0.229688323207E+04    0.88594E-05   -0.25221E-05  2883   0.455E-03
  90 F= -.23171151E+04 E0= -.23171151E+04  d E =-.253375E-03  mag=     3.0000
       N       E                     dE             d eps       ncg     rms          rms(c)
DAV:   1    -0.229688277827E+04    0.46266E-03   -0.49179E-02  4432   0.234E-01    0.743E-02
RMM:   2    -0.229688342584E+04   -0.64757E-03   -0.61376E-03  6143   0.481E-02    0.108E-01
RMM:   3    -0.229688341380E+04    0.12044E-04   -0.52521E-04  3443   0.150E-02    0.808E-02
RMM:   4    -0.229688336619E+04    0.47603E-04   -0.57706E-05  2870   0.539E-03    0.165E-02
RMM:   5    -0.229688336198E+04    0.42180E-05   -0.14923E-05  2864   0.365E-03
  91 F= -.23171153E+04 E0= -.23171153E+04  d E =-.202723E-03  mag=     3.0000
       N       E                     dE             d eps       ncg     rms          rms(c)
DAV:   1    -0.229688282093E+04    0.54526E-03   -0.43524E-02  4448   0.220E-01    0.697E-02
RMM:   2    -0.229688339730E+04   -0.57637E-03   -0.54326E-03  6081   0.450E-02    0.104E-01
RMM:   3    -0.229688338113E+04    0.16167E-04   -0.46813E-04  3389   0.147E-02    0.740E-02
RMM:   4    -0.229688334094E+04    0.40190E-04   -0.50957E-05  2860   0.511E-03    0.157E-02
RMM:   5    -0.229688333676E+04    0.41831E-05   -0.13489E-05  2860   0.350E-03
  92 F= -.23171154E+04 E0= -.23171154E+04  d E =-.245982E-03  mag=     3.0000
       N       E                     dE             d eps       ncg     rms          rms(c)
DAV:   1    -0.229688274809E+04    0.59285E-03   -0.54653E-02  4416   0.244E-01    0.779E-02
RMM:   2    -0.229688350543E+04   -0.75733E-03   -0.69989E-03  6083   0.504E-02    0.125E-01
RMM:   3    -0.229688346393E+04    0.41499E-04   -0.60245E-04  3489   0.160E-02    0.777E-02
[...]
RMM:   3    -0.229688443800E+04    0.18872E-05   -0.16518E-05  2581   0.412E-03
 136 F= -.23171173E+04 E0= -.23171173E+04  d E =-.278907E-04  mag=     3.0000
       N       E                     dE             d eps       ncg     rms          rms(c)
DAV:   1    -0.229688441027E+04    0.29619E-04   -0.30881E-03  4400   0.572E-02    0.202E-02
RMM:   2    -0.229688445191E+04   -0.41635E-04   -0.37764E-04  4613   0.125E-02    0.323E-02
RMM:   3    -0.229688444863E+04    0.32783E-05   -0.35420E-05  2774   0.539E-03
 137 F= -.23171173E+04 E0= -.23171173E+04  d E =-.213160E-04  mag=     3.0000
       N       E                     dE             d eps       ncg     rms          rms(c)
DAV:   1    -0.229688443671E+04    0.15194E-04   -0.47957E-04  4728   0.226E-02    0.102E-02
RMM:   2    -0.229688444415E+04   -0.74395E-05   -0.62935E-05  2968   0.532E-03
 138 F= -.23171173E+04 E0= -.23171173E+04  d E =-.210772E-04  mag=     3.0000
       N       E                     dE             d eps       ncg     rms          rms(c)
DAV:   1    -0.229688444306E+04   -0.63473E-05   -0.78368E-05  4560   0.954E-03    0.745E-03
RMM:   2    -0.229688444614E+04   -0.30816E-05   -0.10293E-05  2391   0.226E-03
 139 F= -.23171173E+04 E0= -.23171173E+04  d E =-.214726E-04  mag=     3.0000
       N       E                     dE             d eps       ncg     rms          rms(c)
DAV:   1    -0.229688442829E+04    0.14766E-04   -0.18944E-03  4336   0.455E-02    0.166E-02
RMM:   2    -0.229688445915E+04   -0.30851E-04   -0.23073E-04  3815   0.996E-03    0.392E-02
RMM:   3    -0.229688445043E+04    0.87196E-05   -0.21984E-05  2449   0.503E-03
 140 F= -.23171173E+04 E0= -.23171173E+04  d E =-.130393E-04  mag=     3.0000
       N       E                     dE             d eps       ncg     rms          rms(c)
DAV:   1    -0.229688442609E+04    0.33057E-04   -0.17801E-03  4368   0.440E-02    0.156E-02
RMM:   2    -0.229688445023E+04   -0.24145E-04   -0.21943E-04  3706   0.972E-03    0.256E-02
RMM:   3    -0.229688444800E+04    0.22340E-05   -0.21467E-05  2681   0.479E-03
 141 F= -.23171173E+04 E0= -.23171173E+04  d E =-.191120E-04  mag=     3.0000
       N       E                     dE             d eps       ncg     rms          rms(c)
DAV:   1    -0.229688443205E+04    0.18185E-04   -0.17708E-03  4368   0.435E-02    0.156E-02
RMM:   2    -0.229688445685E+04   -0.24796E-04   -0.22142E-04  3780   0.984E-03    0.265E-02
RMM:   3    -0.229688445433E+04    0.25169E-05   -0.23731E-05  2645   0.497E-03
 142 F= -.23171174E+04 E0= -.23171174E+04  d E =-.178231E-04  mag=     3.0000
       N       E                     dE             d eps       ncg     rms          rms(c)
DAV:   1    -0.229688443036E+04    0.26489E-04   -0.14627E-03  4416   0.395E-02    0.148E-02
RMM:   2    -0.229688445091E+04   -0.20553E-04   -0.18349E-04  3579   0.897E-03    0.253E-02
RMM:   3    -0.229688444841E+04    0.24991E-05   -0.18707E-05  2696   0.456E-03
 143 F= -.23171174E+04 E0= -.23171174E+04  d E =-.223767E-04  mag=     3.0000
       N       E                     dE             d eps       ncg     rms          rms(c)
DAV:   1    -0.229688441368E+04    0.37233E-04   -0.24616E-03  4368   0.501E-02    0.179E-02
RMM:   2    -0.229688444923E+04   -0.35556E-04   -0.31236E-04  4121   0.113E-02    0.322E-02
RMM:   3    -0.229688444438E+04    0.48503E-05   -0.29701E-05  2729   0.511E-03
 144 F= -.23171174E+04 E0= -.23171174E+04  d E =-.177825E-04  mag=     3.0000
       N       E                     dE             d eps       ncg     rms          rms(c)
DAV:   1    -0.229688442536E+04    0.23873E-04   -0.69272E-04  4536   0.266E-02    0.111E-02
RMM:   2    -0.229688443599E+04   -0.10631E-04   -0.89296E-05  3140   0.630E-03    0.213E-02
RMM:   3    -0.229688443371E+04    0.22825E-05   -0.10059E-05  2390   0.355E-03
 145 F= -.23171174E+04 E0= -.23171174E+04  d E =-.187380E-04  mag=     3.0000
       N       E                     dE             d eps       ncg     rms          rms(c)
DAV:   1    -0.229688441042E+04    0.25573E-04   -0.21187E-03  4360   0.461E-02    0.163E-02
RMM:   2    -0.229688444028E+04   -0.29867E-04   -0.25833E-04  3875   0.102E-02    0.302E-02
RMM:   3    -0.229688443586E+04    0.44240E-05   -0.24530E-05  2576   0.501E-03
 146 F= -.23171174E+04 E0= -.23171174E+04  d E =-.168808E-04  mag=     3.0000
       N       E                     dE             d eps       ncg     rms          rms(c)
DAV:   1    -0.229688441720E+04    0.23088E-04   -0.99630E-04  4288   0.316E-02    0.123E-02
RMM:   2    -0.229688443183E+04   -0.14629E-04   -0.12252E-04  3250   0.727E-03    0.239E-02
RMM:   3    -0.229688442897E+04    0.28586E-05   -0.13345E-05  2502   0.395E-03
 147 F= -.23171174E+04 E0= -.23171174E+04  d E =-.201040E-04  mag=     3.0000
       N       E                     dE             d eps       ncg     rms          rms(c)
DAV:   1    -0.229688440786E+04    0.23965E-04   -0.23465E-03  4400   0.492E-02    0.175E-02
RMM:   2    -0.229688443925E+04   -0.31391E-04   -0.26954E-04  3983   0.108E-02    0.321E-02
RMM:   3    -0.229688443447E+04    0.47829E-05   -0.25691E-05  2698   0.519E-03
 148 F= -.23171174E+04 E0= -.23171174E+04  d E =-.203370E-04  mag=     3.0000
       N       E                     dE             d eps       ncg     rms          rms(c)
DAV:   1    -0.229688441562E+04    0.23628E-04   -0.10229E-03  4472   0.325E-02    0.128E-02
RMM:   2    -0.229688443001E+04   -0.14389E-04   -0.12205E-04  3272   0.737E-03    0.240E-02
RMM:   3    -0.229688442693E+04    0.30865E-05   -0.12213E-05  2510   0.392E-03
 149 F= -.23171174E+04 E0= -.23171174E+04  d E =-.226293E-04  mag=     3.0000
       N       E                     dE             d eps       ncg     rms          rms(c)
DAV:   1    -0.229688439076E+04    0.39249E-04   -0.29867E-03  4392   0.559E-02    0.192E-02
RMM:   2    -0.229688442972E+04   -0.38960E-04   -0.34234E-04  4388   0.122E-02    0.340E-02
RMM:   3    -0.229688442471E+04    0.50087E-05   -0.31555E-05  2763   0.538E-03
 150 F= -.23171174E+04 E0= -.23171174E+04  d E =-.166533E-04  mag=     3.0000
       N       E                     dE             d eps       ncg     rms          rms(c)
DAV:   1    -0.229688441425E+04    0.15476E-04   -0.33068E-04  4824   0.187E-02    0.881E-03
RMM:   2    -0.229688441939E+04   -0.51412E-05   -0.42392E-05  2714   0.446E-03
 151 F= -.23171174E+04 E0= -.23171174E+04  d E =-.176588E-04  mag=     3.0000
       N       E                     dE             d eps       ncg     rms          rms(c)
DAV:   1    -0.229688438426E+04    0.29985E-04   -0.26644E-03  4392   0.539E-02    0.190E-02
RMM:   2    -0.229688442338E+04   -0.39123E-04   -0.31641E-04  4232   0.121E-02    0.404E-02
RMM:   3    -0.229688441486E+04    0.85199E-05   -0.31899E-05  2655   0.572E-03
 152 F= -.23171175E+04 E0= -.23171175E+04  d E =-.174531E-04  mag=     3.0000
       N       E                     dE             d eps       ncg     rms          rms(c)
DAV:   1    -0.229688440145E+04    0.21940E-04   -0.40041E-04  4544   0.208E-02    0.893E-03
RMM:   2    -0.229688440673E+04   -0.52815E-05   -0.48964E-05  2892   0.491E-03
 153 F= -.23171175E+04 E0= -.23171175E+04  d E =-.179461E-04  mag=     3.0000
       N       E                     dE             d eps       ncg     rms          rms(c)
DAV:   1    -0.229688437493E+04    0.26515E-04   -0.25640E-03  4384   0.528E-02    0.196E-02
RMM:   2    -0.229688441796E+04   -0.43033E-04   -0.31136E-04  4185   0.122E-02    0.488E-02
RMM:   3    -0.229688440373E+04    0.14231E-04   -0.29675E-05  2695   0.569E-03    0.120E-02
RMM:   4    -0.229688440264E+04    0.10926E-05   -0.43043E-06  2436   0.207E-03
 154 F= -.23171175E+04 E0= -.23171175E+04  d E =-.156723E-04  mag=     3.0000
       N       E                     dE             d eps       ncg     rms          rms(c)
DAV:   1    -0.229688436192E+04    0.41815E-04   -0.21659E-03  4352   0.482E-02    0.149E-02
RMM:   2    -0.229688438459E+04   -0.22670E-04   -0.23937E-04  4001   0.103E-02    0.929E-03
RMM:   3    -0.229688438728E+04   -0.26888E-05   -0.21707E-05  2751   0.493E-03
 155 F= -.23171175E+04 E0= -.23171175E+04  d E =-.186881E-04  mag=     3.0000
       N       E                     dE             d eps       ncg     rms          rms(c)
DAV:   1    -0.229688438994E+04   -0.53537E-05   -0.24086E-04  4496   0.163E-02    0.682E-03
RMM:   2    -0.229688439383E+04   -0.38855E-05   -0.25798E-05  2508   0.365E-03
 156 F= -.23171175E+04 E0= -.23171175E+04  d E =-.192907E-04  mag=     3.0000
       N       E                     dE             d eps       ncg     rms          rms(c)
DAV:   1    -0.229688437209E+04    0.17854E-04   -0.14541E-03  4272   0.382E-02    0.113E-02
RMM:   2    -0.229688438692E+04   -0.14836E-04   -0.15467E-04  3442   0.869E-03    0.594E-03
RMM:   3    -0.229688438833E+04   -0.14053E-05   -0.20452E-05  2244   0.481E-03
 157 F= -.23171175E+04 E0= -.23171175E+04  d E =-.867361E-05  mag=     3.0000
       N       E                     dE             d eps       ncg     rms          rms(c)
DAV:   1    -0.229688437361E+04    0.13309E-04   -0.68039E-04  4176   0.263E-02    0.832E-03
RMM:   2    -0.229688438088E+04   -0.72661E-05   -0.77136E-05  2970   0.611E-03
 158 F= -.23171175E+04 E0= -.23171175E+04  d E =-.108694E-04  mag=     3.0000
       N       E                     dE             d eps       ncg     rms          rms(c)
DAV:   1    -0.229688437479E+04   -0.11763E-05   -0.91789E-04  4256   0.314E-02    0.106E-02
RMM:   2    -0.229688438470E+04   -0.99091E-05   -0.98428E-05  3234   0.765E-03
 159 F= -.23171175E+04 E0= -.23171175E+04  d E =-.143572E-04  mag=     3.0000
       N       E                     dE             d eps       ncg     rms          rms(c)
DAV:   1    -0.229688437861E+04   -0.38194E-05   -0.39231E-04  4376   0.210E-02    0.168E-02
RMM:   2    -0.229688441349E+04   -0.34877E-04   -0.77932E-05  2996   0.603E-03    0.699E-02
RMM:   3    -0.229688438149E+04    0.31995E-04   -0.17357E-05  2423   0.390E-03    0.465E-03
RMM:   4    -0.229688438116E+04    0.33682E-06   -0.26498E-06  2123   0.134E-03
 160 F= -.23171175E+04 E0= -.23171175E+04  d E =-.176067E-04  mag=     3.0000
       N       E                     dE             d eps       ncg     rms          rms(c)
DAV:   1    -0.229688435280E+04    0.28693E-04   -0.14961E-03  4336   0.398E-02    0.131E-02
RMM:   2    -0.229688436776E+04   -0.14959E-04   -0.15342E-04  3571   0.838E-03    0.117E-02
RMM:   3    -0.229688436951E+04   -0.17495E-05   -0.15614E-05  2645   0.454E-03
 161 F= -.23171175E+04 E0= -.23171175E+04  d E =-.195510E-04  mag=     3.0000
       N       E                     dE             d eps       ncg     rms          rms(c)
DAV:   1    -0.229688437148E+04   -0.37200E-05   -0.26466E-04  4312   0.169E-02    0.596E-03
RMM:   2    -0.229688437452E+04   -0.30411E-05   -0.26220E-05  2484   0.373E-03
 162 F= -.23171175E+04 E0= -.23171175E+04  d E =-.189805E-04  mag=     3.0000
       N       E                     dE             d eps       ncg     rms          rms(c)
DAV:   1    -0.229688435691E+04    0.14567E-04   -0.14913E-03  4296   0.391E-02    0.121E-02
RMM:   2    -0.229688437182E+04   -0.14908E-04   -0.15610E-04  3517   0.898E-03    0.649E-03
RMM:   3    -0.229688437357E+04   -0.17519E-05   -0.19319E-05  2298   0.475E-03
 163 F= -.23171175E+04 E0= -.23171175E+04  d E =-.979163E-05  mag=     3.0000
       N       E                     dE             d eps       ncg     rms          rms(c)
DAV:   1    -0.229688436951E+04    0.23123E-05   -0.13616E-04  4936   0.121E-02    0.596E-03
RMM:   2    -0.229688437240E+04   -0.28898E-05   -0.16626E-05  2388   0.301E-03
 164 F= -.23171175E+04 E0= -.23171175E+04  d E =-.118126E-04  mag=     3.0000
       N       E                     dE             d eps       ncg     rms          rms(c)
DAV:   1    -0.229688436109E+04    0.84177E-05   -0.84207E-04  4304   0.307E-02    0.106E-02
RMM:   2    -0.229688437181E+04   -0.10720E-04   -0.96287E-05  3008   0.719E-03    0.179E-02
RMM:   3    -0.229688437113E+04    0.67626E-06   -0.13134E-05  2267   0.429E-03
 165 F= -.23171175E+04 E0= -.23171175E+04  d E =-.940038E-05  mag=     3.0000
       N       E                     dE             d eps       ncg     rms          rms(c)
DAV:   1    -0.229688436801E+04    0.37954E-05   -0.23773E-05  3264   0.539E-03    0.345E-03
RMM:   2    -0.229688436826E+04   -0.24284E-06   -0.36758E-06  2249   0.224E-03
 166 F= -.23171175E+04 E0= -.23171175E+04  d E =-.832947E-05  mag=     3.0000
       N       E                     dE             d eps       ncg     rms          rms(c)
DAV:   1    -0.229688435346E+04    0.14557E-04   -0.77284E-04  4256   0.293E-02    0.107E-02
RMM:   2    -0.229688436405E+04   -0.10596E-04   -0.91771E-05  3052   0.655E-03    0.189E-02
RMM:   3    -0.229688436257E+04    0.14797E-05   -0.90882E-06  2262   0.371E-03
 167 F= -.23171175E+04 E0= -.23171175E+04  d E =-.893072E-05  mag=     3.0000
       N       E                     dE             d eps       ncg     rms          rms(c)
DAV:   1    -0.229688435946E+04    0.45913E-05   -0.21566E-05  3720   0.509E-03    0.325E-03
RMM:   2    -0.229688435977E+04   -0.31100E-06   -0.32087E-06  2238   0.195E-03
 168 F= -.23171175E+04 E0= -.23171175E+04  d E =-.859029E-05  mag=     3.0000
       N       E                     dE             d eps       ncg     rms          rms(c)
DAV:   1    -0.229688434916E+04    0.10303E-04   -0.68654E-04  4208   0.269E-02    0.102E-02
RMM:   2    -0.229688436017E+04   -0.11017E-04   -0.85880E-05  2888   0.621E-03    0.229E-02
RMM:   3    -0.229688435727E+04    0.29066E-05   -0.79629E-06  2237   0.351E-03
 169 F= -.23171176E+04 E0= -.23171176E+04  d E =-.625908E-05  mag=     3.0000
       N       E                     dE             d eps       ncg     rms          rms(c)
DAV:   1    -0.229688435681E+04    0.33628E-05   -0.10644E-06  2488   0.157E-03    0.263E-03
RMM:   2    -0.229688435683E+04   -0.15134E-07   -0.39102E-07  1740   0.894E-04
 170 F= -.23171176E+04 E0= -.23171176E+04  d E =-.589567E-05  mag=     3.0000
       N       E                     dE             d eps       ncg     rms          rms(c)
DAV:   1    -0.229688434879E+04    0.80186E-05   -0.54150E-04  4144   0.230E-02    0.868E-03
RMM:   2    -0.229688435830E+04   -0.95051E-05   -0.67460E-05  2759   0.515E-03
 171 F= -.23171176E+04 E0= -.23171176E+04  d E =-.951162E-05  mag=     3.0000
       N       E                     dE             d eps       ncg     rms          rms(c)
DAV:   1    -0.229688435461E+04   -0.58192E-05   -0.72741E-06  2512   0.422E-03    0.527E-03
RMM:   2    -0.229688435660E+04   -0.19870E-05   -0.30879E-06  2051   0.139E-03
 172 F= -.23171176E+04 E0= -.23171176E+04  d E =-.802479E-05  mag=     3.0000
       N       E                     dE             d eps       ncg     rms          rms(c)
DAV:   1    -0.229688434920E+04    0.54083E-05   -0.33113E-04  4112   0.186E-02    0.687E-03
RMM:   2    -0.229688435356E+04   -0.43559E-05   -0.36461E-05  2504   0.421E-03
 173 F= -.23171176E+04 E0= -.23171176E+04  d E =-.258946E-05  mag=     3.0000
       N       E                     dE             d eps       ncg     rms          rms(c)
DAV:   1    -0.229688435336E+04   -0.41604E-05   -0.86461E-06  2456   0.387E-03    0.627E-03
RMM:   2    -0.229688435730E+04   -0.39357E-05   -0.52080E-06  2044   0.195E-03
 174 F= -.23171176E+04 E0= -.23171176E+04  d E =-.574458E-05  mag=     3.0000
       N       E                     dE             d eps       ncg     rms          rms(c)
DAV:   1    -0.229688435021E+04    0.31524E-05   -0.14471E-04  4256   0.129E-02    0.446E-03
RMM:   2    -0.229688435185E+04   -0.16408E-05   -0.15251E-05  2300   0.292E-03
 175 F= -.23171176E+04 E0= -.23171176E+04  d E =0.719310E-06  mag=     3.0000
       N       E                     dE             d eps       ncg     rms          rms(c)
DAV:   1    -0.229688434939E+04    0.82335E-06   -0.54157E-05  3912   0.795E-03    0.614E-03
RMM:   2    -0.229688435383E+04   -0.44423E-05   -0.10137E-05  2274   0.232E-03
 176 F= -.23171176E+04 E0= -.23171176E+04  d E =-.402095E-05  mag=     3.0000
       N       E                     dE             d eps       ncg     rms          rms(c)
DAV:   1    -0.229688434272E+04    0.66678E-05   -0.21180E-04  4360   0.156E-02    0.543E-03
RMM:   2    -0.229688434490E+04   -0.21828E-05   -0.22538E-05  2375   0.375E-03
 177 F= -.23171176E+04 E0= -.23171176E+04  d E =-.617590E-06  mag=     3.0000
       N       E                     dE             d eps       ncg     rms          rms(c)
DAV:   1    -0.229688434424E+04   -0.15229E-05   -0.16577E-04  4128   0.134E-02    0.872E-03
RMM:   2    -0.229688435434E+04   -0.10094E-04   -0.29461E-05  2436   0.387E-03    0.358E-02
RMM:   3    -0.229688434588E+04    0.84596E-05   -0.59682E-06  2226   0.253E-03
 178 F= -.23171176E+04 E0= -.23171176E+04  d E =-.398320E-05  mag=     3.0000
       N       E                     dE             d eps       ncg     rms          rms(c)
DAV:   1    -0.229688434269E+04    0.11644E-04   -0.14568E-04  4128   0.123E-02    0.439E-03
RMM:   2    -0.229688434469E+04   -0.19908E-05   -0.16607E-05  2349   0.297E-03
 179 F= -.23171176E+04 E0= -.23171176E+04  d E =-.563474E-05  mag=     3.0000
       N       E                     dE             d eps       ncg     rms          rms(c)
DAV:   1    -0.229688434633E+04   -0.36343E-05   -0.18175E-04  4176   0.140E-02    0.552E-03
RMM:   2    -0.229688435003E+04   -0.36969E-05   -0.24300E-05  2364   0.371E-03
 180 F= -.23171176E+04 E0= -.23171176E+04  d E =-.592683E-05  mag=     3.0000
       N       E                     dE             d eps       ncg     rms          rms(c)
DAV:   1    -0.229688434855E+04   -0.22257E-05   -0.22509E-05  2776   0.570E-03    0.347E-03
RMM:   2    -0.229688434943E+04   -0.87428E-06   -0.45042E-06  2221   0.287E-03
 181 F= -.23171176E+04 E0= -.23171176E+04  d E =-.552126E-05  mag=     3.0000
       N       E                     dE             d eps       ncg     rms          rms(c)
DAV:   1    -0.229688434909E+04   -0.53272E-06   -0.90600E-05  4072   0.996E-03    0.386E-03
RMM:   2    -0.229688435037E+04   -0.12787E-05   -0.11309E-05  2286   0.257E-03
 182 F= -.23171176E+04 E0= -.23171176E+04  d E =-.413344E-05  mag=     3.0000
       N       E                     dE             d eps       ncg     rms          rms(c)
DAV:   1    -0.229688434119E+04    0.79016E-05   -0.32708E-04  4112   0.186E-02    0.780E-03
RMM:   2    -0.229688434720E+04   -0.60194E-05   -0.42797E-05  2483   0.489E-03
 183 F= -.23171176E+04 E0= -.23171176E+04  d E =-.716883E-05  mag=     3.0000
       N       E                     dE             d eps       ncg     rms          rms(c)
DAV:   1    -0.229688434792E+04   -0.67337E-05   -0.51598E-05  3688   0.796E-03    0.497E-03
RMM:   2    -0.229688434949E+04   -0.15739E-05   -0.69838E-06  2268   0.224E-03
 184 F= -.23171176E+04 E0= -.23171176E+04  d E =-.710956E-05  mag=     3.0000
       N       E                     dE             d eps       ncg     rms          rms(c)
DAV:   1    -0.229688434463E+04    0.32917E-05   -0.11168E-04  4096   0.110E-02    0.472E-03
RMM:   2    -0.229688434718E+04   -0.25551E-05   -0.13113E-05  2290   0.260E-03
 185 F= -.23171176E+04 E0= -.23171176E+04  d E =-.224340E-05  mag=     3.0000
       N       E                     dE             d eps       ncg     rms          rms(c)
DAV:   1    -0.229688434467E+04   -0.39872E-07   -0.10043E-05  2392   0.397E-03    0.253E-03
RMM:   2    -0.229688434521E+04   -0.53988E-06   -0.24165E-06  2190   0.223E-03
 186 F= -.23171176E+04 E0= -.23171176E+04  d E =-.147251E-05  mag=     3.0000
       N       E                     dE             d eps       ncg     rms          rms(c)
DAV:   1    -0.229688434376E+04    0.91008E-06   -0.11485E-04  4080   0.108E-02    0.379E-03
RMM:   2    -0.229688434538E+04   -0.16221E-05   -0.15052E-05  2318   0.261E-03
 187 F= -.23171176E+04 E0= -.23171176E+04  d E =-.399737E-05  mag=     3.0000
