       N       E                     dE             d eps       ncg     rms          rms(c)
DAV:   1     0.129054730399E+05    0.12905E+05   -0.83625E+05  4488   0.144E+03
DAV:   2    -0.104990694413E+04   -0.13955E+05   -0.13343E+05  5128   0.330E+02
DAV:   3    -0.247209889895E+04   -0.14222E+04   -0.14072E+04  5392   0.112E+02
DAV:   4    -0.251830981822E+04   -0.46211E+02   -0.45972E+02  6760   0.304E+01
DAV:   5    -0.251909483771E+04   -0.78502E+00   -0.78383E+00  6144   0.339E+00    0.170E+02
RMM:   6    -0.149142753191E+04    0.10277E+04   -0.19308E+03  4430   0.385E+01    0.725E+01
RMM:   7    -0.166220417002E+04   -0.17078E+03   -0.28764E+02  4942   0.142E+01    0.481E+01
RMM:   8    -0.171275302149E+04   -0.50549E+02   -0.38904E+01  5237   0.679E+00    0.378E+01
RMM:   9    -0.182375708688E+04   -0.11100E+03   -0.59506E+01  4992   0.733E+00    0.390E+01
RMM:  10    -0.191960914680E+04   -0.95852E+02   -0.53847E+01  5323   0.673E+00    0.290E+01
RMM:  11    -0.197529701595E+04   -0.55688E+02   -0.24206E+01  5356   0.417E+00    0.237E+01
RMM:  12    -0.204530794884E+04   -0.70011E+02   -0.25305E+01  4900   0.410E+00    0.174E+01
RMM:  13    -0.209287137660E+04   -0.47563E+02   -0.15183E+01  4994   0.304E+00    0.132E+01
RMM:  14    -0.220738323541E+04   -0.11451E+03   -0.81407E+01  4424   0.649E+00    0.114E+01
RMM:  15    -0.228084791197E+04   -0.73465E+02   -0.66636E+01  4515   0.558E+00    0.928E+00
RMM:  16    -0.230015040976E+04   -0.19302E+02   -0.18712E+01  4546   0.372E+00    0.676E+00
RMM:  17    -0.230713940686E+04   -0.69890E+01   -0.82728E+00  4752   0.185E+00    0.298E+00
RMM:  18    -0.230936520627E+04   -0.22258E+01   -0.12912E+00  4850   0.107E+00    0.214E+00
RMM:  19    -0.231077232236E+04   -0.14071E+01   -0.58168E-01  4709   0.525E-01    0.107E+00
RMM:  20    -0.231123821753E+04   -0.46590E+00   -0.19939E-01  4993   0.412E-01    0.765E-01
RMM:  21    -0.231129948497E+04   -0.61267E-01   -0.40074E-02  4952   0.171E-01    0.378E-01
RMM:  22    -0.231133481550E+04   -0.35331E-01   -0.17404E-02  4497   0.121E-01    0.162E-01
RMM:  23    -0.231135470428E+04   -0.19889E-01   -0.73452E-03  4641   0.753E-02    0.988E-02
RMM:  24    -0.231137001981E+04   -0.15316E-01   -0.51866E-03  4436   0.563E-02    0.945E-02
RMM:  25    -0.231137845782E+04   -0.84380E-02   -0.30093E-03  4504   0.448E-02    0.673E-02
RMM:  26    -0.231138240898E+04   -0.39512E-02   -0.15017E-03  4582   0.311E-02    0.379E-02
RMM:  27    -0.231138403928E+04   -0.16303E-02   -0.51110E-04  4072   0.193E-02    0.275E-02
RMM:  28    -0.231138495513E+04   -0.91585E-03   -0.28914E-04  3923   0.143E-02    0.100E-02
RMM:  29    -0.231138528011E+04   -0.32498E-03   -0.10524E-04  3682   0.102E-02    0.580E-03
RMM:  30    -0.231138540851E+04   -0.12840E-03   -0.38570E-05  3359   0.603E-03    0.358E-03
RMM:  31    -0.231138552627E+04   -0.11777E-03   -0.31179E-05  3234   0.532E-03    0.227E-03
RMM:  32    -0.231138556360E+04   -0.37325E-04   -0.19448E-05  3025   0.456E-03    0.131E-03
RMM:  33    -0.231138556833E+04   -0.47392E-05   -0.61324E-06  2724   0.301E-03
   1 F= -.23321809E+04 E0= -.23321809E+04  d E =-.233218E+04  mag=     7.0001
       N       E                     dE             d eps       ncg     rms          rms(c)
DAV:   1    -0.231150119748E+04   -0.11563E+00   -0.32230E+01  4912   0.302E+00    0.144E+00
RMM:   2    -0.231179484817E+04   -0.29365E+00   -0.30788E+00  6352   0.760E-01    0.110E+00
RMM:   3    -0.231180560632E+04   -0.10758E-01   -0.26028E-01  5805   0.222E-01    0.814E-01
RMM:   4    -0.231180385867E+04    0.17477E-02   -0.31367E-02  5604   0.565E-02    0.674E-01
RMM:   5    -0.231179970053E+04    0.41581E-02   -0.91332E-03  5332   0.407E-02    0.382E-01
RMM:   6    -0.231179909876E+04    0.60177E-03   -0.63157E-03  5181   0.363E-02    0.247E-01
RMM:   7    -0.231179853383E+04    0.56492E-03   -0.16906E-03  4781   0.205E-02    0.113E-01
RMM:   8    -0.231179835906E+04    0.17477E-03   -0.21076E-04  3480   0.792E-03    0.398E-02
RMM:   9    -0.231179831455E+04    0.44513E-04   -0.13200E-04  3377   0.701E-03    0.193E-02
RMM:  10    -0.231179830747E+04    0.70800E-05   -0.35793E-05  2941   0.520E-03
   2 F= -.23325948E+04 E0= -.23325948E+04  d E =-.413838E+00  mag=     7.0000
       N       E                     dE             d eps       ncg     rms          rms(c)
DAV:   1    -0.231179071556E+04    0.75990E-02   -0.50733E+00  4752   0.122E+00    0.546E-01
RMM:   2    -0.231183211890E+04   -0.41403E-01   -0.43594E-01  6398   0.278E-01    0.427E-01
RMM:   3    -0.231183446093E+04   -0.23420E-02   -0.43587E-02  5477   0.909E-02    0.349E-01
RMM:   4    -0.231183392457E+04    0.53637E-03   -0.47915E-03  4301   0.243E-02    0.242E-01
RMM:   5    -0.231183329824E+04    0.62633E-03   -0.12830E-03  4496   0.168E-02    0.107E-01
RMM:   6    -0.231183325699E+04    0.41248E-04   -0.64722E-04  4191   0.144E-02    0.795E-02
RMM:   7    -0.231183320382E+04    0.53175E-04   -0.18251E-04  3152   0.784E-03    0.401E-02
RMM:   8    -0.231183318585E+04    0.17966E-04   -0.24025E-05  2869   0.437E-03    0.149E-02
RMM:   9    -0.231183318116E+04    0.46873E-05   -0.23585E-05  2964   0.344E-03
   3 F= -.23326301E+04 E0= -.23326301E+04  d E =-.449187E+00  mag=     7.0000
       N       E                     dE             d eps       ncg     rms          rms(c)
DAV:   1    -0.231183001207E+04    0.31738E-02   -0.26306E+01  4584   0.306E+00    0.131E+00
RMM:   2    -0.231199351634E+04   -0.16350E+00   -0.18086E+00  6053   0.574E-01    0.730E-01
RMM:   3    -0.231199701786E+04   -0.35015E-02   -0.16216E-01  5305   0.232E-01    0.533E-01
RMM:   4    -0.231199656634E+04    0.45152E-03   -0.19710E-02  5687   0.567E-02    0.476E-01
RMM:   5    -0.231199480886E+04    0.17575E-02   -0.58994E-03  5229   0.341E-02    0.312E-01
RMM:   6    -0.231199392592E+04    0.88295E-03   -0.20377E-03  4890   0.224E-02    0.128E-01
RMM:   7    -0.231199396119E+04   -0.35274E-04   -0.66544E-04  4345   0.154E-02    0.134E-01
RMM:   8    -0.231199380232E+04    0.15888E-03   -0.22501E-04  3306   0.773E-03    0.388E-02
RMM:   9    -0.231199378008E+04    0.22238E-04   -0.62044E-05  2992   0.529E-03    0.204E-02
RMM:  10    -0.231199377108E+04    0.90041E-05   -0.36298E-05  2992   0.471E-03
   4 F= -.23327921E+04 E0= -.23327921E+04  d E =-.161989E+00  mag=     7.0000
       N       E                     dE             d eps       ncg     rms          rms(c)
DAV:   1    -0.231199236173E+04    0.14184E-02   -0.73565E-01  4848   0.497E-01    0.214E-01
RMM:   2    -0.231199671758E+04   -0.43559E-02   -0.48137E-02  6249   0.947E-02    0.115E-01
RMM:   3    -0.231199676907E+04   -0.51490E-04   -0.37754E-03  4123   0.361E-02    0.871E-02
RMM:   4    -0.231199676099E+04    0.80792E-05   -0.51994E-04  3329   0.968E-03    0.819E-02
RMM:   5    -0.231199669520E+04    0.65784E-04   -0.16814E-04  3183   0.706E-03    0.377E-02
RMM:   6    -0.231199668274E+04    0.12461E-04   -0.50342E-05  2945   0.550E-03    0.215E-02
RMM:   7    -0.231199668170E+04    0.10469E-05   -0.16616E-05  2859   0.378E-03
   5 F= -.23327953E+04 E0= -.23327953E+04  d E =-.165173E+00  mag=     7.0000
       N       E                     dE             d eps       ncg     rms          rms(c)
DAV:   1    -0.231188777833E+04    0.10890E+00   -0.11836E+01  4512   0.213E+00    0.104E+00
RMM:   2    -0.231204242238E+04   -0.15464E+00   -0.16313E+00  6203   0.500E-01    0.660E-01
RMM:   3    -0.231205169146E+04   -0.92691E-02   -0.16273E-01  5679   0.198E-01    0.459E-01
RMM:   4    -0.231205091757E+04    0.77389E-03   -0.17138E-02  5351   0.442E-02    0.330E-01
RMM:   5    -0.231204977824E+04    0.11393E-02   -0.40274E-03  4870   0.279E-02    0.211E-01
RMM:   6    -0.231204936394E+04    0.41430E-03   -0.15271E-03  4793   0.193E-02    0.963E-02
RMM:   7    -0.231204937616E+04   -0.12220E-04   -0.33996E-04  3363   0.107E-02    0.101E-01
RMM:   8    -0.231204927166E+04    0.10450E-03   -0.11593E-04  2966   0.622E-03    0.218E-02
RMM:   9    -0.231204926287E+04    0.87953E-05   -0.45210E-05  2947   0.371E-03
   6 F= -.23328457E+04 E0= -.23328457E+04  d E =-.504221E-01  mag=     7.0000
       N       E                     dE             d eps       ncg     rms          rms(c)
DAV:   1    -0.231204586760E+04    0.34041E-02   -0.48757E-01  4616   0.435E-01    0.212E-01
RMM:   2    -0.231205212127E+04   -0.62537E-02   -0.66155E-02  6303   0.994E-02    0.133E-01
RMM:   3    -0.231205249372E+04   -0.37245E-03   -0.64726E-03  4217   0.405E-02    0.963E-02
RMM:   4    -0.231205246767E+04    0.26044E-04   -0.73776E-04  3149   0.975E-03    0.692E-02
RMM:   5    -0.231205240935E+04    0.58327E-04   -0.14546E-04  3041   0.632E-03    0.365E-02
RMM:   6    -0.231205240817E+04    0.11780E-05   -0.62293E-05  2975   0.513E-03
   7 F= -.23328493E+04 E0= -.23328493E+04  d E =-.539810E-01  mag=     7.0000
       N       E                     dE             d eps       ncg     rms          rms(c)
DAV:   1    -0.231200920424E+04    0.43205E-01   -0.25911E+00  4544   0.106E+00    0.595E-01
RMM:   2    -0.231207237541E+04   -0.63171E-01   -0.65326E-01  6412   0.295E-01    0.414E-01
RMM:   3    -0.231207827684E+04   -0.59014E-02   -0.73716E-02  5566   0.118E-01    0.329E-01
RMM:   4    -0.231207766281E+04    0.61403E-03   -0.60095E-03  4152   0.231E-02    0.172E-01
RMM:   5    -0.231207724260E+04    0.42021E-03   -0.83643E-04  3611   0.124E-02    0.994E-02
RMM:   6    -0.231207711975E+04    0.12284E-03   -0.68651E-04  4005   0.110E-02    0.700E-02
RMM:   7    -0.231207709728E+04    0.22473E-04   -0.14613E-04  2975   0.818E-03    0.397E-02
RMM:   8    -0.231207708603E+04    0.11247E-04   -0.42124E-05  2998   0.412E-03    0.169E-02
RMM:   9    -0.231207708337E+04    0.26608E-05   -0.15148E-05  2818   0.324E-03
   8 F= -.23328723E+04 E0= -.23328723E+04  d E =-.230413E-01  mag=     7.0000
       N       E                     dE             d eps       ncg     rms          rms(c)
DAV:   1    -0.231198757211E+04    0.89514E-01   -0.39022E+00  4512   0.131E+00    0.734E-01
RMM:   2    -0.231208320467E+04   -0.95633E-01   -0.99146E-01  6414   0.366E-01    0.501E-01
RMM:   3    -0.231209220523E+04   -0.90006E-02   -0.11423E-01  5701   0.147E-01    0.388E-01
RMM:   4    -0.231209143434E+04    0.77088E-03   -0.93048E-03  4522   0.283E-02    0.212E-01
RMM:   5    -0.231209081327E+04    0.62107E-03   -0.12700E-03  3815   0.150E-02    0.126E-01
RMM:   6    -0.231209062997E+04    0.18330E-03   -0.10375E-03  4322   0.131E-02    0.978E-02
RMM:   7    -0.231209058262E+04    0.47351E-04   -0.25347E-04  3017   0.972E-03    0.504E-02
RMM:   8    -0.231209056484E+04    0.17780E-04   -0.71612E-05  3081   0.507E-03    0.230E-02
RMM:   9    -0.231209055953E+04    0.53149E-05   -0.25342E-05  2863   0.389E-03
   9 F= -.23328838E+04 E0= -.23328838E+04  d E =-.345763E-01  mag=     7.0000
       N       E                     dE             d eps       ncg     rms          rms(c)
DAV:   1    -0.231206728954E+04    0.23275E-01   -0.15585E+00  4512   0.110E+00    0.515E-01
RMM:   2    -0.231209878846E+04   -0.31499E-01   -0.33592E-01  5960   0.256E-01    0.323E-01
RMM:   3    -0.231210137917E+04   -0.25907E-02   -0.36594E-02  5568   0.108E-01    0.236E-01
RMM:   4    -0.231210101017E+04    0.36900E-03   -0.35483E-03  4882   0.242E-02    0.115E-01
RMM:   5    -0.231210079311E+04    0.21707E-03   -0.57460E-04  4500   0.151E-02    0.649E-02
RMM:   6    -0.231210075170E+04    0.41406E-04   -0.31294E-04  4489   0.115E-02    0.496E-02
RMM:   7    -0.231210073331E+04    0.18394E-04   -0.65983E-05  2960   0.777E-03    0.323E-02
RMM:   8    -0.231210072106E+04    0.12243E-04   -0.20508E-05  2876   0.377E-03    0.121E-02
RMM:   9    -0.231210071711E+04    0.39514E-05   -0.96966E-06  2857   0.284E-03
  10 F= -.23328925E+04 E0= -.23328925E+04  d E =-.866490E-02  mag=     7.0000
       N       E                     dE             d eps       ncg     rms          rms(c)
DAV:   1    -0.231210073037E+04   -0.93084E-05   -0.31984E-03  5456   0.503E-02    0.234E-02
RMM:   2    -0.231210079496E+04   -0.64592E-04   -0.69274E-04  4151   0.129E-02    0.159E-02
RMM:   3    -0.231210079975E+04   -0.47825E-05   -0.77476E-05  2864   0.661E-03
  11 F= -.23328925E+04 E0= -.23328925E+04  d E =-.868009E-02  mag=     7.0000
       N       E                     dE             d eps       ncg     rms          rms(c)
DAV:   1    -0.231207955198E+04    0.21243E-01   -0.12962E+00  4512   0.875E-01    0.421E-01
RMM:   2    -0.231210684099E+04   -0.27289E-01   -0.28132E-01  6201   0.208E-01    0.316E-01
RMM:   3    -0.231210902055E+04   -0.21796E-02   -0.30715E-02  5575   0.887E-02    0.200E-01
RMM:   4    -0.231210884312E+04    0.17744E-03   -0.28493E-03  3822   0.178E-02    0.101E-01
RMM:   5    -0.231210868999E+04    0.15313E-03   -0.28211E-04  3463   0.971E-03    0.572E-02
RMM:   6    -0.231210865744E+04    0.32547E-04   -0.26029E-04  3879   0.956E-03    0.301E-02
RMM:   7    -0.231210865389E+04    0.35525E-05   -0.35800E-05  2917   0.618E-03
  12 F= -.23328996E+04 E0= -.23328996E+04  d E =-.704579E-02  mag=     7.0000
       N       E                     dE             d eps       ncg     rms          rms(c)
DAV:   1    -0.231209197803E+04    0.16679E-01   -0.84279E-01  4512   0.705E-01    0.342E-01
RMM:   2    -0.231210965571E+04   -0.17678E-01   -0.18263E-01  6240   0.168E-01    0.263E-01
RMM:   3    -0.231211104407E+04   -0.13884E-02   -0.20008E-02  5376   0.721E-02    0.165E-01
RMM:   4    -0.231211091835E+04    0.12573E-03   -0.18617E-03  3466   0.146E-02    0.803E-02
RMM:   5    -0.231211082131E+04    0.97033E-04   -0.17805E-04  3205   0.797E-03    0.472E-02
RMM:   6    -0.231211081134E+04    0.99744E-05   -0.19048E-04  3567   0.833E-03    0.417E-02
RMM:   7    -0.231211079647E+04    0.14868E-04   -0.34623E-05  2907   0.557E-03    0.169E-02
RMM:   8    -0.231211079394E+04    0.25322E-05   -0.87093E-06  2787   0.243E-03
  13 F= -.23329010E+04 E0= -.23329010E+04  d E =-.851450E-02  mag=     7.0000
       N       E                     dE             d eps       ncg     rms          rms(c)
DAV:   1    -0.231208011713E+04    0.30679E-01   -0.18107E+00  4480   0.105E+00    0.497E-01
RMM:   2    -0.231211566764E+04   -0.35551E-01   -0.35911E-01  6117   0.247E-01    0.438E-01
RMM:   3    -0.231211748833E+04   -0.18207E-02   -0.35198E-02  5691   0.984E-02    0.247E-01
RMM:   4    -0.231211735425E+04    0.13408E-03   -0.37622E-03  4469   0.206E-02    0.110E-01
RMM:   5    -0.231211722870E+04    0.12555E-03   -0.23457E-04  3531   0.992E-03    0.677E-02
RMM:   6    -0.231211719413E+04    0.34570E-04   -0.22329E-04  3977   0.107E-02    0.225E-02
RMM:   7    -0.231211719625E+04   -0.21258E-05   -0.36160E-05  2917   0.647E-03
  14 F= -.23329069E+04 E0= -.23329069E+04  d E =-.583428E-02  mag=     7.0000
       N       E                     dE             d eps       ncg     rms          rms(c)
DAV:   1    -0.231211251836E+04    0.46758E-02   -0.25914E-01  4592   0.397E-01    0.189E-01
RMM:   2    -0.231211758113E+04   -0.50628E-02   -0.51405E-02  6249   0.934E-02    0.161E-01
RMM:   3    -0.231211785958E+04   -0.27845E-03   -0.50409E-03  4557   0.369E-02    0.939E-02
RMM:   4    -0.231211784047E+04    0.19106E-04   -0.54321E-04  3071   0.856E-03    0.413E-02
RMM:   5    -0.231211782838E+04    0.12095E-04   -0.37110E-05  2914   0.444E-03    0.329E-02
RMM:   6    -0.231211782937E+04   -0.99202E-06   -0.40277E-05  2883   0.433E-03
  15 F= -.23329073E+04 E0= -.23329073E+04  d E =-.621932E-02  mag=     7.0000
       N       E                     dE             d eps       ncg     rms          rms(c)
DAV:   1    -0.231209576524E+04    0.22063E-01   -0.11877E+00  4496   0.915E-01    0.415E-01
RMM:   2    -0.231211889001E+04   -0.23125E-01   -0.24179E-01  5845   0.205E-01    0.310E-01
RMM:   3    -0.231212043162E+04   -0.15416E-02   -0.24203E-02  5354   0.939E-02    0.209E-01
RMM:   4    -0.231212024967E+04    0.18194E-03   -0.23342E-03  4635   0.185E-02    0.106E-01
RMM:   5    -0.231212014192E+04    0.10776E-03   -0.27997E-04  3479   0.105E-02    0.820E-02
RMM:   6    -0.231212005937E+04    0.82546E-04   -0.26485E-04  4197   0.983E-03    0.539E-02
RMM:   7    -0.231212003177E+04    0.27603E-04   -0.95043E-05  3368   0.812E-03    0.284E-02
RMM:   8    -0.231212002448E+04    0.72821E-05   -0.27065E-05  2899   0.520E-03
  16 F= -.23329099E+04 E0= -.23329099E+04  d E =-.268647E-02  mag=     7.0000
       N       E                     dE             d eps       ncg     rms          rms(c)
DAV:   1    -0.231211990947E+04    0.12230E-03   -0.93281E-03  5248   0.811E-02    0.372E-02
RMM:   2    -0.231212009032E+04   -0.18085E-03   -0.18533E-03  5251   0.197E-02    0.316E-02
RMM:   3    -0.231212010108E+04   -0.10769E-04   -0.19092E-04  2887   0.830E-03    0.215E-02
RMM:   4    -0.231212009751E+04    0.35699E-05   -0.18347E-05  2871   0.260E-03
  17 F= -.23329100E+04 E0= -.23329100E+04  d E =-.271710E-02  mag=     7.0000
       N       E                     dE             d eps       ncg     rms          rms(c)
DAV:   1    -0.231211222864E+04    0.78724E-02   -0.41138E-01  4488   0.542E-01    0.245E-01
RMM:   2    -0.231212081169E+04   -0.85830E-02   -0.89075E-02  6097   0.126E-01    0.186E-01
RMM:   3    -0.231212137723E+04   -0.56554E-03   -0.87656E-03  5093   0.521E-02    0.129E-01
RMM:   4    -0.231212129275E+04    0.84478E-04   -0.89360E-04  3235   0.113E-02    0.581E-02
RMM:   5    -0.231212124477E+04    0.47978E-04   -0.81654E-05  2977   0.643E-03    0.355E-02
RMM:   6    -0.231212123300E+04    0.11772E-04   -0.93164E-05  3363   0.664E-03    0.295E-02
RMM:   7    -0.231212122775E+04    0.52471E-05   -0.22691E-05  2899   0.531E-03
  18 F= -.23329114E+04 E0= -.23329114E+04  d E =-.147023E-02  mag=     7.0000
       N       E                     dE             d eps       ncg     rms          rms(c)
DAV:   1    -0.231212102987E+04    0.20313E-03   -0.73424E-03  5192   0.725E-02    0.343E-02
RMM:   2    -0.231212118639E+04   -0.15651E-03   -0.16286E-03  5005   0.178E-02    0.312E-02
RMM:   3    -0.231212119534E+04   -0.89516E-05   -0.17471E-04  2900   0.828E-03    0.197E-02
RMM:   4    -0.231212119344E+04    0.18973E-05   -0.18315E-05  2877   0.241E-03
  19 F= -.23329114E+04 E0= -.23329114E+04  d E =-.148135E-02  mag=     7.0000
       N       E                     dE             d eps       ncg     rms          rms(c)
DAV:   1    -0.231211433037E+04    0.68650E-02   -0.35395E-01  4488   0.503E-01    0.224E-01
RMM:   2    -0.231212211586E+04   -0.77855E-02   -0.77235E-02  6067   0.115E-01    0.231E-01
RMM:   3    -0.231212236709E+04   -0.25123E-03   -0.81310E-03  4983   0.481E-02    0.109E-01
RMM:   4    -0.231212230753E+04    0.59564E-04   -0.83871E-04  3158   0.103E-02    0.483E-02
RMM:   5    -0.231212228380E+04    0.23731E-04   -0.45508E-05  2908   0.493E-03    0.382E-02
RMM:   6    -0.231212227425E+04    0.95501E-05   -0.56543E-05  2943   0.509E-03
  20 F= -.23329129E+04 E0= -.23329129E+04  d E =-.146094E-02  mag=     7.0000
       N       E                     dE             d eps       ncg     rms          rms(c)
DAV:   1    -0.231209727629E+04    0.25008E-01   -0.11169E+00  4480   0.894E-01    0.401E-01
RMM:   2    -0.231212182116E+04   -0.24545E-01   -0.24432E-01  5978   0.206E-01    0.405E-01
RMM:   3    -0.231212269033E+04   -0.86917E-03   -0.25815E-02  5521   0.868E-02    0.200E-01
RMM:   4    -0.231212248554E+04    0.20479E-03   -0.27019E-03  4173   0.177E-02    0.889E-02
RMM:   5    -0.231212242281E+04    0.62726E-04   -0.14645E-04  3025   0.790E-03    0.727E-02
RMM:   6    -0.231212237252E+04    0.50288E-04   -0.14280E-04  3348   0.773E-03    0.544E-02
RMM:   7    -0.231212234636E+04    0.26161E-04   -0.12187E-04  3233   0.818E-03    0.104E-02
RMM:   8    -0.231212234562E+04    0.73742E-06   -0.15363E-05  2892   0.477E-03
  21 F= -.23329136E+04 E0= -.23329136E+04  d E =-.219481E-02  mag=     7.0000
       N       E                     dE             d eps       ncg     rms          rms(c)
DAV:   1    -0.231212138838E+04    0.95798E-03   -0.59628E-02  4688   0.199E-01    0.916E-02
RMM:   2    -0.231212277012E+04   -0.13817E-02   -0.13688E-02  6186   0.474E-02    0.953E-02
RMM:   3    -0.231212281898E+04   -0.48856E-04   -0.14551E-03  3117   0.188E-02    0.427E-02
RMM:   4    -0.231212281302E+04    0.59596E-05   -0.15243E-04  2925   0.500E-03    0.195E-02
RMM:   5    -0.231212280873E+04    0.42913E-05   -0.67960E-06  2694   0.207E-03
  22 F= -.23329142E+04 E0= -.23329142E+04  d E =-.589007E-03  mag=     7.0000
       N       E                     dE             d eps       ncg     rms          rms(c)
DAV:   1    -0.231211120063E+04    0.11612E-01   -0.53497E-01  4480   0.596E-01    0.273E-01
RMM:   2    -0.231212362674E+04   -0.12426E-01   -0.12236E-01  6294   0.139E-01    0.300E-01
RMM:   3    -0.231212394319E+04   -0.31645E-03   -0.12652E-02  5171   0.556E-02    0.129E-01
RMM:   4    -0.231212387522E+04    0.67966E-04   -0.13084E-03  3232   0.118E-02    0.591E-02
RMM:   5    -0.231212383821E+04    0.37011E-04   -0.58811E-05  2920   0.536E-03    0.465E-02
RMM:   6    -0.231212382718E+04    0.11030E-04   -0.97724E-05  3031   0.599E-03    0.455E-02
RMM:   7    -0.231212381050E+04    0.16683E-04   -0.46507E-05  2896   0.525E-03    0.865E-03
RMM:   8    -0.231212381007E+04    0.43045E-06   -0.58947E-06  2828   0.280E-03
  23 F= -.23329156E+04 E0= -.23329156E+04  d E =-.196131E-02  mag=     7.0000
       N       E                     dE             d eps       ncg     rms          rms(c)
DAV:   1    -0.231207344014E+04    0.50370E-01   -0.21449E+00  4464   0.119E+00    0.555E-01
RMM:   2    -0.231212338759E+04   -0.49947E-01   -0.49117E-01  6170   0.279E-01    0.614E-01
RMM:   3    -0.231212465617E+04   -0.12686E-02   -0.53361E-02  5704   0.118E-01    0.261E-01
RMM:   4    -0.231212440702E+04    0.24915E-03   -0.54754E-03  4481   0.232E-02    0.119E-01
RMM:   5    -0.231212427331E+04    0.13371E-03   -0.24277E-04  3210   0.936E-03    0.997E-02
RMM:   6    -0.231212419455E+04    0.78762E-04   -0.29545E-04  3638   0.977E-03    0.822E-02
RMM:   7    -0.231212413963E+04    0.54918E-04   -0.25012E-04  3476   0.996E-03    0.202E-02
RMM:   8    -0.231212413578E+04    0.38511E-05   -0.22918E-05  2892   0.488E-03
  24 F= -.23329166E+04 E0= -.23329166E+04  d E =-.299720E-02  mag=     7.0000
       N       E                     dE             d eps       ncg     rms          rms(c)
DAV:   1    -0.231212268090E+04    0.14587E-02   -0.10634E-01  4672   0.270E-01    0.133E-01
RMM:   2    -0.231212519381E+04   -0.25129E-02   -0.24238E-02  6128   0.640E-02    0.170E-01
RMM:   3    -0.231212512954E+04    0.64274E-04   -0.23961E-03  3523   0.256E-02    0.606E-02
RMM:   4    -0.231212510854E+04    0.20998E-04   -0.25610E-04  2974   0.653E-03    0.287E-02
RMM:   5    -0.231212509695E+04    0.11591E-04   -0.22501E-05  2890   0.354E-03    0.227E-02
RMM:   6    -0.231212509411E+04    0.28421E-05   -0.31158E-05  2903   0.399E-03
  25 F= -.23329178E+04 E0= -.23329178E+04  d E =-.113057E-02  mag=     7.0000
       N       E                     dE             d eps       ncg     rms          rms(c)
DAV:   1    -0.231210466319E+04    0.20434E-01   -0.95480E-01  4480   0.809E-01    0.398E-01
RMM:   2    -0.231212704953E+04   -0.22386E-01   -0.21692E-01  5930   0.190E-01    0.493E-01
RMM:   3    -0.231212668565E+04    0.36387E-03   -0.22154E-02  5351   0.844E-02    0.181E-01
RMM:   4    -0.231212646416E+04    0.22149E-03   -0.22514E-03  4370   0.165E-02    0.870E-02
RMM:   5    -0.231212636490E+04    0.99260E-04   -0.18747E-04  3265   0.911E-03    0.737E-02
RMM:   6    -0.231212633978E+04    0.25121E-04   -0.20768E-04  3399   0.876E-03    0.564E-02
RMM:   7    -0.231212631436E+04    0.25420E-04   -0.97509E-05  2973   0.767E-03    0.184E-02
RMM:   8    -0.231212631252E+04    0.18392E-05   -0.12417E-05  2864   0.439E-03
  26 F= -.23329195E+04 E0= -.23329195E+04  d E =-.285254E-02  mag=     7.0000
       N       E                     dE             d eps       ncg     rms          rms(c)
DAV:   1    -0.231212129382E+04    0.50205E-02   -0.28501E-01  4544   0.436E-01    0.217E-01
RMM:   2    -0.231212766208E+04   -0.63683E-02   -0.62837E-02  5977   0.994E-02    0.241E-01
RMM:   3    -0.231212776765E+04   -0.10558E-03   -0.67841E-03  4750   0.439E-02    0.107E-01
RMM:   4    -0.231212767942E+04    0.88238E-04   -0.65548E-04  3145   0.921E-03    0.484E-02
RMM:   5    -0.231212763914E+04    0.40273E-04   -0.72650E-05  2957   0.555E-03    0.331E-02
RMM:   6    -0.231212763573E+04    0.34176E-05   -0.63147E-05  2954   0.558E-03
  27 F= -.23329211E+04 E0= -.23329211E+04  d E =-.158424E-02  mag=     7.0000
       N       E                     dE             d eps       ncg     rms          rms(c)
DAV:   1    -0.231211533207E+04    0.12307E-01   -0.56174E-01  4544   0.613E-01    0.304E-01
RMM:   2    -0.231212785358E+04   -0.12522E-01   -0.12421E-01  5929   0.139E-01    0.327E-01
RMM:   3    -0.231212817008E+04   -0.31651E-03   -0.13755E-02  5267   0.635E-02    0.150E-01
RMM:   4    -0.231212799549E+04    0.17459E-03   -0.12880E-03  3629   0.126E-02    0.711E-02
RMM:   5    -0.231212793359E+04    0.61898E-04   -0.13720E-04  3043   0.720E-03    0.582E-02
RMM:   6    -0.231212790267E+04    0.30921E-04   -0.12786E-04  3144   0.703E-03    0.360E-02
RMM:   7    -0.231212789251E+04    0.10167E-04   -0.46035E-05  2919   0.627E-03    0.106E-02
RMM:   8    -0.231212789343E+04   -0.92376E-06   -0.86496E-06  2855   0.403E-03
  28 F= -.23329217E+04 E0= -.23329217E+04  d E =-.220210E-02  mag=     7.0000
       N       E                     dE             d eps       ncg     rms          rms(c)
DAV:   1    -0.231211773468E+04    0.10158E-01   -0.43770E-01  4480   0.473E-01    0.260E-01
RMM:   2    -0.231212812559E+04   -0.10391E-01   -0.10353E-01  6204   0.110E-01    0.264E-01
RMM:   3    -0.231212861799E+04   -0.49240E-03   -0.11382E-02  4749   0.490E-02    0.129E-01
RMM:   4    -0.231212850079E+04    0.11720E-03   -0.10549E-03  3175   0.103E-02    0.602E-02
RMM:   5    -0.231212844549E+04    0.55306E-04   -0.87204E-05  2934   0.542E-03    0.387E-02
RMM:   6    -0.231212843452E+04    0.10967E-04   -0.83873E-05  2979   0.532E-03    0.330E-02
RMM:   7    -0.231212842598E+04    0.85374E-05   -0.28099E-05  2877   0.461E-03
  29 F= -.23329226E+04 E0= -.23329226E+04  d E =-.876081E-03  mag=     7.0000
       N       E                     dE             d eps       ncg     rms          rms(c)
DAV:   1    -0.231211884703E+04    0.95875E-02   -0.38561E-01  4480   0.443E-01    0.244E-01
RMM:   2    -0.231212804083E+04   -0.91938E-02   -0.91745E-02  6249   0.104E-01    0.251E-01
RMM:   3    -0.231212846595E+04   -0.42512E-03   -0.99894E-03  4662   0.455E-02    0.124E-01
RMM:   4    -0.231212835501E+04    0.11093E-03   -0.92482E-04  3105   0.986E-03    0.571E-02
RMM:   5    -0.231212830612E+04    0.48890E-04   -0.78763E-05  2924   0.521E-03    0.368E-02
RMM:   6    -0.231212829664E+04    0.94866E-05   -0.74843E-05  2962   0.513E-03
  30 F= -.23329228E+04 E0= -.23329228E+04  d E =-.106387E-02  mag=     7.0000
       N       E                     dE             d eps       ncg     rms          rms(c)
DAV:   1    -0.231211820819E+04    0.10098E-01   -0.45680E-01  4480   0.534E-01    0.272E-01
RMM:   2    -0.231212854442E+04   -0.10336E-01   -0.10535E-01  6078   0.121E-01    0.195E-01
RMM:   3    -0.231212945837E+04   -0.91395E-03   -0.12010E-02  5237   0.544E-02    0.130E-01
RMM:   4    -0.231212934749E+04    0.11087E-03   -0.11229E-03  3160   0.115E-02    0.618E-02
RMM:   5    -0.231212930424E+04    0.43257E-04   -0.84610E-05  2921   0.633E-03    0.348E-02
RMM:   6    -0.231212929230E+04    0.11940E-04   -0.72241E-05  3190   0.613E-03    0.209E-02
RMM:   7    -0.231212929080E+04    0.14963E-05   -0.16539E-05  2874   0.510E-03
  31 F= -.23329240E+04 E0= -.23329240E+04  d E =-.125352E-02  mag=     7.0000
       N       E                     dE             d eps       ncg     rms          rms(c)
DAV:   1    -0.231212482695E+04    0.44654E-02   -0.18576E-01  4512   0.340E-01    0.176E-01
RMM:   2    -0.231212906699E+04   -0.42400E-02   -0.42953E-02  6040   0.766E-02    0.139E-01
RMM:   3    -0.231212940216E+04   -0.33517E-03   -0.48220E-03  4213   0.366E-02    0.888E-02
RMM:   4    -0.231212935124E+04    0.50921E-04   -0.46273E-04  2962   0.814E-03    0.380E-02
RMM:   5    -0.231212933380E+04    0.17436E-04   -0.36610E-05  2889   0.434E-03    0.230E-02
RMM:   6    -0.231212933182E+04    0.19806E-05   -0.35326E-05  2901   0.428E-03
  32 F= -.23329242E+04 E0= -.23329242E+04  d E =-.145843E-02  mag=     7.0000
       N       E                     dE             d eps       ncg     rms          rms(c)
DAV:   1    -0.231211923165E+04    0.10102E-01   -0.41098E-01  4472   0.479E-01    0.257E-01
RMM:   2    -0.231212944765E+04   -0.10216E-01   -0.10480E-01  6154   0.115E-01    0.167E-01
RMM:   3    -0.231213046458E+04   -0.10169E-02   -0.12033E-02  4832   0.541E-02    0.107E-01
RMM:   4    -0.231213042615E+04    0.38432E-04   -0.11052E-03  3072   0.105E-02    0.575E-02
RMM:   5    -0.231213039514E+04    0.31009E-04   -0.56878E-05  2881   0.492E-03    0.376E-02
RMM:   6    -0.231213038412E+04    0.11025E-04   -0.64362E-05  2992   0.493E-03    0.372E-02
RMM:   7    -0.231213037501E+04    0.91073E-05   -0.25233E-05  2878   0.436E-03
  33 F= -.23329255E+04 E0= -.23329255E+04  d E =-.131960E-02  mag=     7.0000
       N       E                     dE             d eps       ncg     rms          rms(c)
DAV:   1    -0.231210752807E+04    0.22856E-01   -0.84814E-01  4464   0.689E-01    0.374E-01
RMM:   2    -0.231212880958E+04   -0.21282E-01   -0.21733E-01  6167   0.166E-01    0.269E-01
RMM:   3    -0.231213081887E+04   -0.20093E-02   -0.25105E-02  5446   0.761E-02    0.173E-01
RMM:   4    -0.231213066666E+04    0.15221E-03   -0.22958E-03  3374   0.151E-02    0.810E-02
RMM:   5    -0.231213060159E+04    0.65078E-04   -0.12538E-04  2916   0.691E-03    0.522E-02
RMM:   6    -0.231213057364E+04    0.27949E-04   -0.14342E-04  3736   0.724E-03    0.448E-02
RMM:   7    -0.231213055989E+04    0.13746E-04   -0.38141E-05  2878   0.599E-03    0.181E-02
RMM:   8    -0.231213055751E+04    0.23766E-05   -0.13403E-05  2877   0.262E-03
  34 F= -.23329261E+04 E0= -.23329261E+04  d E =-.189236E-02  mag=     7.0000
       N       E                     dE             d eps       ncg     rms          rms(c)
DAV:   1    -0.231211809594E+04    0.12464E-01   -0.47139E-01  4464   0.520E-01    0.288E-01
RMM:   2    -0.231213037714E+04   -0.12281E-01   -0.12503E-01  6106   0.128E-01    0.219E-01
RMM:   3    -0.231213142530E+04   -0.10482E-02   -0.14064E-02  5188   0.580E-02    0.133E-01
RMM:   4    -0.231213133449E+04    0.90810E-04   -0.13103E-03  3178   0.116E-02    0.604E-02
RMM:   5    -0.231213129380E+04    0.40681E-04   -0.68617E-05  2884   0.564E-03    0.398E-02
RMM:   6    -0.231213127808E+04    0.15723E-04   -0.95232E-05  3354   0.590E-03    0.339E-02
RMM:   7    -0.231213127033E+04    0.77540E-05   -0.23886E-05  2868   0.495E-03
  35 F= -.23329271E+04 E0= -.23329271E+04  d E =-.958091E-03  mag=     7.0000
       N       E                     dE             d eps       ncg     rms          rms(c)
DAV:   1    -0.231212658378E+04    0.46943E-02   -0.16762E-01  4480   0.310E-01    0.173E-01
RMM:   2    -0.231213097506E+04   -0.43913E-02   -0.44589E-02  6184   0.766E-02    0.140E-01
RMM:   3    -0.231213133150E+04   -0.35644E-03   -0.50409E-03  3994   0.360E-02    0.839E-02
RMM:   4    -0.231213128995E+04    0.41549E-04   -0.47246E-04  3005   0.797E-03    0.356E-02
RMM:   5    -0.231213127582E+04    0.14132E-04   -0.25492E-05  2870   0.369E-03    0.230E-02
RMM:   6    -0.231213126948E+04    0.63391E-05   -0.31766E-05  2951   0.382E-03
  36 F= -.23329272E+04 E0= -.23329272E+04  d E =-.109971E-02  mag=     7.0000
       N       E                     dE             d eps       ncg     rms          rms(c)
DAV:   1    -0.231212827124E+04    0.30046E-02   -0.13975E-01  4480   0.300E-01    0.163E-01
RMM:   2    -0.231213182425E+04   -0.35530E-02   -0.35413E-02  6141   0.731E-02    0.165E-01
RMM:   3    -0.231213195216E+04   -0.12790E-03   -0.38275E-03  4085   0.328E-02    0.781E-02
RMM:   4    -0.231213191246E+04    0.39698E-04   -0.37880E-04  3011   0.743E-03    0.345E-02
RMM:   5    -0.231213189626E+04    0.16199E-04   -0.30019E-05  2895   0.427E-03    0.239E-02
RMM:   6    -0.231213189553E+04    0.73582E-06   -0.33849E-05  2893   0.440E-03
  37 F= -.23329279E+04 E0= -.23329279E+04  d E =-.715383E-03  mag=     7.0000
       N       E                     dE             d eps       ncg     rms          rms(c)
DAV:   1    -0.231212857342E+04    0.33228E-02   -0.12979E-01  4480   0.289E-01    0.158E-01
RMM:   2    -0.231213189891E+04   -0.33255E-02   -0.33188E-02  6214   0.714E-02    0.159E-01
RMM:   3    -0.231213202579E+04   -0.12688E-03   -0.36441E-03  4045   0.314E-02    0.765E-02
RMM:   4    -0.231213198925E+04    0.36544E-04   -0.35678E-04  2999   0.745E-03    0.349E-02
RMM:   5    -0.231213197733E+04    0.11914E-04   -0.31136E-05  2895   0.414E-03    0.290E-02
RMM:   6    -0.231213197112E+04    0.62166E-05   -0.28248E-05  2872   0.401E-03
  38 F= -.23329281E+04 E0= -.23329281E+04  d E =-.874052E-03  mag=     7.0000
       N       E                     dE             d eps       ncg     rms          rms(c)
DAV:   1    -0.231212941546E+04    0.25619E-02   -0.11277E-01  4496   0.251E-01    0.146E-01
RMM:   2    -0.231213243241E+04   -0.30169E-02   -0.29628E-02  6300   0.630E-02    0.162E-01
RMM:   3    -0.231213247132E+04   -0.38919E-04   -0.28718E-03  3587   0.267E-02    0.701E-02
RMM:   4    -0.231213244778E+04    0.23541E-04   -0.31217E-04  3005   0.658E-03    0.313E-02
RMM:   5    -0.231213243977E+04    0.80157E-05   -0.21592E-05  2873   0.315E-03
  39 F= -.23329286E+04 E0= -.23329286E+04  d E =-.554290E-03  mag=     7.0000
       N       E                     dE             d eps       ncg     rms          rms(c)
DAV:   1    -0.231211856622E+04    0.13882E-01   -0.53399E-01  4464   0.546E-01    0.312E-01
RMM:   2    -0.231213277452E+04   -0.14208E-01   -0.13941E-01  6236   0.135E-01    0.349E-01
RMM:   3    -0.231213297238E+04   -0.19786E-03   -0.13569E-02  5289   0.552E-02    0.147E-01
RMM:   4    -0.231213284703E+04    0.12535E-03   -0.14357E-03  3367   0.121E-02    0.698E-02
RMM:   5    -0.231213279599E+04    0.51044E-04   -0.10255E-04  2977   0.624E-03    0.555E-02
RMM:   6    -0.231213278107E+04    0.14918E-04   -0.10859E-04  3003   0.625E-03    0.451E-02
RMM:   7    -0.231213276411E+04    0.16955E-04   -0.65919E-05  2926   0.616E-03    0.113E-02
RMM:   8    -0.231213276387E+04    0.24264E-06   -0.85113E-06  2857   0.355E-03
  40 F= -.23329291E+04 E0= -.23329291E+04  d E =-.105244E-02  mag=     7.0000
       N       E                     dE             d eps       ncg     rms          rms(c)
DAV:   1    -0.231212809692E+04    0.46672E-02   -0.20693E-01  4464   0.362E-01    0.199E-01
RMM:   2    -0.231213353951E+04   -0.54426E-02   -0.53579E-02  6070   0.884E-02    0.212E-01
RMM:   3    -0.231213362753E+04   -0.88013E-04   -0.51294E-03  4599   0.364E-02    0.977E-02
RMM:   4    -0.231213356812E+04    0.59409E-04   -0.55618E-04  3076   0.857E-03    0.409E-02
RMM:   5    -0.231213354801E+04    0.20107E-04   -0.41484E-05  2898   0.469E-03    0.320E-02
RMM:   6    -0.231213354220E+04    0.58130E-05   -0.38651E-05  2886   0.459E-03
  41 F= -.23329300E+04 E0= -.23329300E+04  d E =-.874911E-03  mag=     7.0000
       N       E                     dE             d eps       ncg     rms          rms(c)
DAV:   1    -0.231212763202E+04    0.59160E-02   -0.22900E-01  4464   0.380E-01    0.209E-01
RMM:   2    -0.231213367308E+04   -0.60411E-02   -0.59679E-02  6114   0.931E-02    0.219E-01
RMM:   3    -0.231213379606E+04   -0.12298E-03   -0.56031E-03  4819   0.388E-02    0.107E-01
RMM:   4    -0.231213372359E+04    0.72468E-04   -0.61195E-04  3113   0.904E-03    0.458E-02
RMM:   5    -0.231213370532E+04    0.18273E-04   -0.48865E-05  2909   0.489E-03    0.380E-02
RMM:   6    -0.231213369135E+04    0.13969E-04   -0.40969E-05  2878   0.468E-03    0.248E-02
RMM:   7    -0.231213368492E+04    0.64320E-05   -0.27134E-05  2878   0.472E-03
  42 F= -.23329302E+04 E0= -.23329302E+04  d E =-.111207E-02  mag=     7.0000
       N       E                     dE             d eps       ncg     rms          rms(c)
DAV:   1    -0.231212686941E+04    0.68219E-02   -0.25410E-01  4464   0.380E-01    0.219E-01
RMM:   2    -0.231213390227E+04   -0.70329E-02   -0.70067E-02  6344   0.980E-02    0.207E-01
RMM:   3    -0.231213424808E+04   -0.34581E-03   -0.73785E-03  4777   0.410E-02    0.108E-01
RMM:   4    -0.231213419092E+04    0.57159E-04   -0.75013E-04  3027   0.942E-03    0.451E-02
RMM:   5    -0.231213416994E+04    0.20977E-04   -0.39461E-05  2887   0.444E-03    0.336E-02
RMM:   6    -0.231213416253E+04    0.74084E-05   -0.38924E-05  2889   0.411E-03
  43 F= -.23329309E+04 E0= -.23329309E+04  d E =-.644841E-03  mag=     7.0000
       N       E                     dE             d eps       ncg     rms          rms(c)
DAV:   1    -0.231212897721E+04    0.51927E-02   -0.17957E-01  4472   0.320E-01    0.184E-01
RMM:   2    -0.231213395001E+04   -0.49728E-02   -0.49709E-02  6330   0.819E-02    0.166E-01
RMM:   3    -0.231213422624E+04   -0.27623E-03   -0.52168E-03  4167   0.346E-02    0.933E-02
RMM:   4    -0.231213417778E+04    0.48460E-04   -0.52848E-04  3008   0.822E-03    0.396E-02
RMM:   5    -0.231213416469E+04    0.13092E-04   -0.30979E-05  2874   0.378E-03    0.304E-02
RMM:   6    -0.231213415691E+04    0.77785E-05   -0.24823E-05  2861   0.336E-03
  44 F= -.23329310E+04 E0= -.23329310E+04  d E =-.773825E-03  mag=     7.0000
       N       E                     dE             d eps       ncg     rms          rms(c)
DAV:   1    -0.231212594915E+04    0.82155E-02   -0.30343E-01  4464   0.437E-01    0.243E-01
RMM:   2    -0.231213413084E+04   -0.81817E-02   -0.82055E-02  6150   0.110E-01    0.213E-01
RMM:   3    -0.231213460774E+04   -0.47689E-03   -0.86119E-03  5095   0.492E-02    0.123E-01
RMM:   4    -0.231213451595E+04    0.91788E-04   -0.87633E-04  3199   0.107E-02    0.512E-02
RMM:   5    -0.231213449128E+04    0.24666E-04   -0.54089E-05  2894   0.552E-03    0.373E-02
RMM:   6    -0.231213448176E+04    0.95239E-05   -0.50874E-05  2913   0.518E-03
  45 F= -.23329316E+04 E0= -.23329316E+04  d E =-.608474E-03  mag=     7.0000
       N       E                     dE             d eps       ncg     rms          rms(c)
DAV:   1    -0.231213405736E+04    0.43392E-03   -0.12500E-02  5128   0.890E-02    0.495E-02
RMM:   2    -0.231213439268E+04   -0.33532E-03   -0.34521E-03  5658   0.241E-02    0.330E-02
RMM:   3    -0.231213442568E+04   -0.33001E-04   -0.39826E-04  2898   0.108E-02    0.237E-02
RMM:   4    -0.231213442276E+04    0.29286E-05   -0.37994E-05  2900   0.295E-03
  46 F= -.23329316E+04 E0= -.23329316E+04  d E =-.606955E-03  mag=     7.0000
       N       E                     dE             d eps       ncg     rms          rms(c)
DAV:   1    -0.231212796330E+04    0.64624E-02   -0.24616E-01  4472   0.393E-01    0.209E-01
RMM:   2    -0.231213454110E+04   -0.65778E-02   -0.65974E-02  6120   0.976E-02    0.192E-01
RMM:   3    -0.231213492356E+04   -0.38245E-03   -0.71768E-03  4702   0.435E-02    0.101E-01
RMM:   4    -0.231213486365E+04    0.59907E-04   -0.69171E-04  3103   0.932E-03    0.460E-02
RMM:   5    -0.231213483876E+04    0.24888E-04   -0.41196E-05  2900   0.463E-03    0.322E-02
RMM:   6    -0.231213483424E+04    0.45174E-05   -0.56217E-05  2951   0.499E-03
  47 F= -.23329323E+04 E0= -.23329323E+04  d E =-.642569E-03  mag=     7.0000
       N       E                     dE             d eps       ncg     rms          rms(c)
DAV:   1    -0.231213091727E+04    0.39215E-02   -0.13661E-01  4480   0.293E-01    0.158E-01
RMM:   2    -0.231213454451E+04   -0.36272E-02   -0.36759E-02  6279   0.738E-02    0.135E-01
RMM:   3    -0.231213480178E+04   -0.25727E-03   -0.41206E-03  3889   0.309E-02    0.772E-02
RMM:   4    -0.231213476545E+04    0.36329E-04   -0.38722E-04  2985   0.756E-03    0.348E-02
RMM:   5    -0.231213475465E+04    0.10799E-04   -0.25308E-05  2885   0.362E-03    0.261E-02
RMM:   6    -0.231213474956E+04    0.50903E-05   -0.23547E-05  2862   0.342E-03
  48 F= -.23329324E+04 E0= -.23329324E+04  d E =-.726513E-03  mag=     7.0000
       N       E                     dE             d eps       ncg     rms          rms(c)
DAV:   1    -0.231212992598E+04    0.48287E-02   -0.18782E-01  4464   0.343E-01    0.180E-01
RMM:   2    -0.231213480917E+04   -0.48832E-02   -0.49335E-02  6311   0.853E-02    0.156E-01
RMM:   3    -0.231213514350E+04   -0.33433E-03   -0.54406E-03  4274   0.368E-02    0.866E-02
RMM:   4    -0.231213509845E+04    0.45048E-04   -0.51540E-04  3034   0.837E-03    0.387E-02
RMM:   5    -0.231213508206E+04    0.16395E-04   -0.31117E-05  2887   0.410E-03    0.266E-02
RMM:   6    -0.231213507882E+04    0.32360E-05   -0.37138E-05  2909   0.419E-03
  49 F= -.23329328E+04 E0= -.23329328E+04  d E =-.445758E-03  mag=     7.0000
       N       E                     dE             d eps       ncg     rms          rms(c)
DAV:   1    -0.231213236789E+04    0.27142E-02   -0.98006E-02  4480   0.248E-01    0.130E-01
RMM:   2    -0.231213491373E+04   -0.25458E-02   -0.25804E-02  6313   0.620E-02    0.110E-01
RMM:   3    -0.231213510245E+04   -0.18872E-03   -0.28976E-03  3392   0.261E-02    0.632E-02
RMM:   4    -0.231213507827E+04    0.24184E-04   -0.27048E-04  2959   0.657E-03    0.287E-02
RMM:   5    -0.231213507043E+04    0.78362E-05   -0.17633E-05  2865   0.306E-03
  50 F= -.23329329E+04 E0= -.23329329E+04  d E =-.518603E-03  mag=     7.0000
       N       E                     dE             d eps       ncg     rms          rms(c)
DAV:   1    -0.231213277595E+04    0.23023E-02   -0.11681E-01  4472   0.291E-01    0.135E-01
RMM:   2    -0.231213530525E+04   -0.25293E-02   -0.25500E-02  6031   0.659E-02    0.116E-01
RMM:   3    -0.231213548807E+04   -0.18282E-03   -0.29222E-03  3669   0.294E-02    0.709E-02
RMM:   4    -0.231213545404E+04    0.34031E-04   -0.27474E-04  2956   0.719E-03    0.314E-02
RMM:   5    -0.231213544115E+04    0.12880E-04   -0.25686E-05  2886   0.412E-03    0.191E-02
RMM:   6    -0.231213544065E+04    0.50440E-06   -0.27462E-05  2895   0.431E-03
  51 F= -.23329333E+04 E0= -.23329333E+04  d E =-.424477E-03  mag=     7.0000
       N       E                     dE             d eps       ncg     rms          rms(c)
DAV:   1    -0.231213417469E+04    0.12665E-02   -0.55436E-02  4544   0.200E-01    0.950E-02
RMM:   2    -0.231213537116E+04   -0.11965E-02   -0.12190E-02  6200   0.466E-02    0.721E-02
RMM:   3    -0.231213547112E+04   -0.99963E-04   -0.14156E-03  3185   0.203E-02    0.476E-02
RMM:   4    -0.231213545674E+04    0.14380E-04   -0.13428E-04  2931   0.524E-03    0.219E-02
RMM:   5    -0.231213545157E+04    0.51711E-05   -0.12247E-05  2858   0.279E-03
  52 F= -.23329333E+04 E0= -.23329333E+04  d E =-.471838E-03  mag=     7.0000
       N       E                     dE             d eps       ncg     rms          rms(c)
DAV:   1    -0.231213268308E+04    0.27737E-02   -0.13767E-01  4464   0.302E-01    0.138E-01
RMM:   2    -0.231213556707E+04   -0.28840E-02   -0.29238E-02  6090   0.671E-02    0.113E-01
RMM:   3    -0.231213579074E+04   -0.22367E-03   -0.32895E-03  3737   0.298E-02    0.737E-02
RMM:   4    -0.231213575044E+04    0.40297E-04   -0.30539E-04  2961   0.741E-03    0.334E-02
RMM:   5    -0.231213573582E+04    0.14621E-04   -0.31700E-05  2890   0.399E-03    0.191E-02
RMM:   6    -0.231213573165E+04    0.41660E-05   -0.22665E-05  2899   0.387E-03
  53 F= -.23329338E+04 E0= -.23329338E+04  d E =-.408379E-03  mag=     7.0000
       N       E                     dE             d eps       ncg     rms          rms(c)
DAV:   1    -0.231213366101E+04    0.20748E-02   -0.91507E-02  4464   0.246E-01    0.115E-01
RMM:   2    -0.231213557579E+04   -0.19148E-02   -0.19509E-02  6216   0.555E-02    0.889E-02
RMM:   3    -0.231213573309E+04   -0.15730E-03   -0.21921E-03  3306   0.236E-02    0.609E-02
RMM:   4    -0.231213570665E+04    0.26440E-04   -0.20407E-04  2942   0.611E-03    0.267E-02
RMM:   5    -0.231213569753E+04    0.91189E-05   -0.20684E-05  2876   0.322E-03
  54 F= -.23329338E+04 E0= -.23329338E+04  d E =-.477950E-03  mag=     7.0000
       N       E                     dE             d eps       ncg     rms          rms(c)
DAV:   1    -0.231213228923E+04    0.34174E-02   -0.18218E-01  4464   0.358E-01    0.160E-01
RMM:   2    -0.231213573459E+04   -0.34454E-02   -0.35149E-02  6012   0.763E-02    0.115E-01
RMM:   3    -0.231213600825E+04   -0.27366E-03   -0.38357E-03  4056   0.339E-02    0.809E-02
RMM:   4    -0.231213596435E+04    0.43903E-04   -0.36121E-04  2974   0.798E-03    0.380E-02
RMM:   5    -0.231213594430E+04    0.20049E-04   -0.43252E-05  2906   0.488E-03    0.205E-02
RMM:   6    -0.231213594040E+04    0.38977E-05   -0.30445E-05  2945   0.470E-03
  55 F= -.23329342E+04 E0= -.23329342E+04  d E =-.418861E-03  mag=     7.0000
       N       E                     dE             d eps       ncg     rms          rms(c)
DAV:   1    -0.231213541539E+04    0.52891E-03   -0.23670E-02  4720   0.129E-01    0.584E-02
RMM:   2    -0.231213586698E+04   -0.45160E-03   -0.46223E-03  5874   0.296E-02    0.436E-02
RMM:   3    -0.231213590492E+04   -0.37933E-04   -0.52237E-04  2925   0.125E-02    0.326E-02
RMM:   4    -0.231213589816E+04    0.67615E-05   -0.49238E-05  2901   0.352E-03
  56 F= -.23329343E+04 E0= -.23329343E+04  d E =-.439597E-03  mag=     7.0000
       N       E                     dE             d eps       ncg     rms          rms(c)
DAV:   1    -0.231213260797E+04    0.32969E-02   -0.16921E-01  4464   0.338E-01    0.154E-01
RMM:   2    -0.231213590273E+04   -0.32948E-02   -0.33422E-02  5940   0.717E-02    0.126E-01
RMM:   3    -0.231213614042E+04   -0.23769E-03   -0.37139E-03  4022   0.336E-02    0.796E-02
RMM:   4    -0.231213609822E+04    0.42199E-04   -0.34263E-04  2977   0.749E-03    0.386E-02
RMM:   5    -0.231213607888E+04    0.19346E-04   -0.43987E-05  2912   0.461E-03    0.221E-02
RMM:   6    -0.231213607756E+04    0.13191E-05   -0.30473E-05  2936   0.436E-03
  57 F= -.23329347E+04 E0= -.23329347E+04  d E =-.403357E-03  mag=     7.0000
       N       E                     dE             d eps       ncg     rms          rms(c)
DAV:   1    -0.231213538714E+04    0.69173E-03   -0.29493E-02  4528   0.141E-01    0.660E-02
RMM:   2    -0.231213595885E+04   -0.57171E-03   -0.59021E-03  5992   0.317E-02    0.458E-02
RMM:   3    -0.231213601039E+04   -0.51533E-04   -0.67262E-04  2940   0.134E-02    0.313E-02
RMM:   4    -0.231213600372E+04    0.66664E-05   -0.60516E-05  2908   0.385E-03
  58 F= -.23329347E+04 E0= -.23329347E+04  d E =-.422556E-03  mag=     7.0000
       N       E                     dE             d eps       ncg     rms          rms(c)
DAV:   1    -0.231213298460E+04    0.30258E-02   -0.15082E-01  4464   0.332E-01    0.147E-01
RMM:   2    -0.231213587740E+04   -0.28928E-02   -0.29523E-02  5918   0.710E-02    0.113E-01
RMM:   3    -0.231213609785E+04   -0.22045E-03   -0.33173E-03  4047   0.326E-02    0.745E-02
RMM:   4    -0.231213605658E+04    0.41271E-04   -0.30404E-04  2980   0.756E-03    0.381E-02
RMM:   5    -0.231213603738E+04    0.19203E-04   -0.47058E-05  2917   0.490E-03    0.218E-02
RMM:   6    -0.231213603556E+04    0.18168E-05   -0.31264E-05  2916   0.477E-03
  59 F= -.23329350E+04 E0= -.23329350E+04  d E =-.273319E-03  mag=     7.0000
       N       E                     dE             d eps       ncg     rms          rms(c)
DAV:   1    -0.231213602352E+04    0.13859E-04   -0.11164E-04  4832   0.104E-02    0.974E-03
RMM:   2    -0.231213602770E+04   -0.41782E-05   -0.32965E-05  2839   0.345E-03
  60 F= -.23329350E+04 E0= -.23329350E+04  d E =-.272134E-03  mag=     7.0000
       N       E                     dE             d eps       ncg     rms          rms(c)
DAV:   1    -0.231213400498E+04    0.20185E-02   -0.96714E-02  4472   0.269E-01    0.121E-01
RMM:   2    -0.231213593963E+04   -0.19347E-02   -0.19772E-02  5964   0.595E-02    0.879E-02
RMM:   3    -0.231213609732E+04   -0.15769E-03   -0.21668E-03  3540   0.254E-02    0.615E-02
RMM:   4    -0.231213607058E+04    0.26741E-04   -0.20566E-04  2938   0.664E-03    0.286E-02
RMM:   5    -0.231213606027E+04    0.10313E-04   -0.26080E-05  2881   0.407E-03    0.151E-02
RMM:   6    -0.231213605876E+04    0.15063E-05   -0.16193E-05  2907   0.380E-03
  61 F= -.23329352E+04 E0= -.23329352E+04  d E =-.201632E-03  mag=     7.0000
       N       E                     dE             d eps       ncg     rms          rms(c)
DAV:   1    -0.231213604859E+04    0.11681E-04   -0.11427E-04  4896   0.101E-02    0.760E-03
RMM:   2    -0.231213605212E+04   -0.35267E-05   -0.30802E-05  2751   0.325E-03
  62 F= -.23329352E+04 E0= -.23329352E+04  d E =-.200936E-03  mag=     7.0000
       N       E                     dE             d eps       ncg     rms          rms(c)
DAV:   1    -0.231213435143E+04    0.16972E-02   -0.81875E-02  4472   0.251E-01    0.114E-01
RMM:   2    -0.231213606524E+04   -0.17138E-02   -0.17567E-02  5939   0.565E-02    0.772E-02
RMM:   3    -0.231213622006E+04   -0.15482E-03   -0.19780E-03  3539   0.257E-02    0.574E-02
RMM:   4    -0.231213619756E+04    0.22503E-04   -0.19149E-04  2939   0.640E-03    0.263E-02
RMM:   5    -0.231213618956E+04    0.80019E-05   -0.20257E-05  2872   0.369E-03
  63 F= -.23329354E+04 E0= -.23329354E+04  d E =-.239765E-03  mag=     7.0000
       N       E                     dE             d eps       ncg     rms          rms(c)
DAV:   1    -0.231213604868E+04    0.14888E-03   -0.50261E-03  5144   0.624E-02    0.310E-02
RMM:   2    -0.231213615985E+04   -0.11117E-03   -0.11259E-03  4481   0.155E-02    0.305E-02
RMM:   3    -0.231213616653E+04   -0.66736E-05   -0.13715E-04  2876   0.779E-03    0.175E-02
RMM:   4    -0.231213616510E+04    0.14268E-05   -0.13660E-05  2871   0.235E-03
  64 F= -.23329354E+04 E0= -.23329354E+04  d E =-.241129E-03  mag=     7.0000
       N       E                     dE             d eps       ncg     rms          rms(c)
DAV:   1    -0.231213432603E+04    0.18405E-02   -0.88302E-02  4464   0.258E-01    0.114E-01
RMM:   2    -0.231213614998E+04   -0.18240E-02   -0.18697E-02  5973   0.570E-02    0.721E-02
RMM:   3    -0.231213631718E+04   -0.16720E-03   -0.20672E-03  3425   0.253E-02    0.531E-02
RMM:   4    -0.231213630335E+04    0.13824E-04   -0.20223E-04  2949   0.606E-03    0.277E-02
RMM:   5    -0.231213629468E+04    0.86779E-05   -0.17628E-05  2866   0.338E-03
  65 F= -.23329356E+04 E0= -.23329356E+04  d E =-.205496E-03  mag=     7.0000
       N       E                     dE             d eps       ncg     rms          rms(c)
DAV:   1    -0.231213601121E+04    0.29214E-03   -0.11459E-02  4712   0.929E-02    0.425E-02
RMM:   2    -0.231213625154E+04   -0.24033E-03   -0.24849E-03  5443   0.220E-02    0.291E-02
RMM:   3    -0.231213627598E+04   -0.24444E-04   -0.29686E-04  2887   0.980E-03    0.248E-02
RMM:   4    -0.231213627274E+04    0.32476E-05   -0.28606E-05  2892   0.281E-03
  66 F= -.23329356E+04 E0= -.23329356E+04  d E =-.211151E-03  mag=     7.0000
       N       E                     dE             d eps       ncg     rms          rms(c)
DAV:   1    -0.231213468032E+04    0.15957E-02   -0.82183E-02  4464   0.253E-01    0.109E-01
RMM:   2    -0.231213625493E+04   -0.15746E-02   -0.16017E-02  5995   0.552E-02    0.781E-02
RMM:   3    -0.231213637368E+04   -0.11875E-03   -0.16608E-03  3408   0.236E-02    0.566E-02
RMM:   4    -0.231213635492E+04    0.18757E-04   -0.17175E-04  2941   0.605E-03    0.275E-02
RMM:   5    -0.231213634636E+04    0.85672E-05   -0.20539E-05  2875   0.375E-03
  67 F= -.23329358E+04 E0= -.23329358E+04  d E =-.201276E-03  mag=     7.0000
       N       E                     dE             d eps       ncg     rms          rms(c)
DAV:   1    -0.231213598668E+04    0.36825E-03   -0.14936E-02  4616   0.108E-01    0.472E-02
RMM:   2    -0.231213627045E+04   -0.28377E-03   -0.29491E-03  5740   0.251E-02    0.248E-02
RMM:   3    -0.231213629679E+04   -0.26341E-04   -0.31638E-04  2893   0.103E-02    0.172E-02
RMM:   4    -0.231213629677E+04    0.12325E-07   -0.32617E-05  2904   0.273E-03
  68 F= -.23329358E+04 E0= -.23329358E+04  d E =-.206476E-03  mag=     7.0000
       N       E                     dE             d eps       ncg     rms          rms(c)
DAV:   1    -0.231213519001E+04    0.11068E-02   -0.58085E-02  4464   0.199E-01    0.914E-02
RMM:   2    -0.231213632958E+04   -0.11396E-02   -0.11432E-02  6111   0.439E-02    0.831E-02
RMM:   3    -0.231213638977E+04   -0.60184E-04   -0.12005E-03  3126   0.182E-02    0.493E-02
RMM:   4    -0.231213637495E+04    0.14813E-04   -0.12192E-04  2936   0.489E-03    0.225E-02
RMM:   5    -0.231213636989E+04    0.50632E-05   -0.13085E-05  2852   0.273E-03
  69 F= -.23329360E+04 E0= -.23329360E+04  d E =-.194276E-03  mag=     7.0000
       N       E                     dE             d eps       ncg     rms          rms(c)
DAV:   1    -0.231213073505E+04    0.56399E-02   -0.27037E-01  4464   0.429E-01    0.199E-01
RMM:   2    -0.231213600010E+04   -0.52651E-02   -0.53195E-02  6131   0.947E-02    0.171E-01
RMM:   3    -0.231213630415E+04   -0.30405E-03   -0.55318E-03  4519   0.376E-02    0.105E-01
RMM:   4    -0.231213624235E+04    0.61806E-04   -0.56072E-04  3065   0.910E-03    0.468E-02
RMM:   5    -0.231213622037E+04    0.21974E-04   -0.55267E-05  2915   0.521E-03    0.302E-02
RMM:   6    -0.231213622012E+04    0.25683E-06   -0.45053E-05  2933   0.500E-03
  70 F= -.23329361E+04 E0= -.23329361E+04  d E =-.302471E-03  mag=     7.0000
       N       E                     dE             d eps       ncg     rms          rms(c)
DAV:   1    -0.231213550534E+04    0.71503E-03   -0.36795E-02  4528   0.153E-01    0.733E-02
RMM:   2    -0.231213623649E+04   -0.73115E-03   -0.74894E-03  6011   0.358E-02    0.534E-02
RMM:   3    -0.231213630214E+04   -0.65646E-04   -0.86182E-04  2971   0.142E-02    0.381E-02
RMM:   4    -0.231213629300E+04    0.91391E-05   -0.78844E-05  2915   0.423E-03
  71 F= -.23329363E+04 E0= -.23329363E+04  d E =-.158760E-03  mag=     7.0000
       N       E                     dE             d eps       ncg     rms          rms(c)
DAV:   1    -0.231213254819E+04    0.37539E-02   -0.17869E-01  4464   0.336E-01    0.157E-01
RMM:   2    -0.231213612954E+04   -0.35814E-02   -0.36036E-02  6154   0.752E-02    0.135E-01
RMM:   3    -0.231213636035E+04   -0.23081E-03   -0.38677E-03  3822   0.318E-02    0.843E-02
RMM:   4    -0.231213632135E+04    0.38999E-04   -0.38147E-04  3023   0.768E-03    0.421E-02
RMM:   5    -0.231213630809E+04    0.13259E-04   -0.39775E-05  2915   0.408E-03    0.308E-02
RMM:   6    -0.231213630358E+04    0.45184E-05   -0.35508E-05  2904   0.404E-03
  72 F= -.23329365E+04 E0= -.23329365E+04  d E =-.355277E-03  mag=     7.0000
       N       E                     dE             d eps       ncg     rms          rms(c)
DAV:   1    -0.231212078775E+04    0.15520E-01   -0.71434E-01  4464   0.673E-01    0.320E-01
RMM:   2    -0.231213510416E+04   -0.14316E-01   -0.14471E-01  5948   0.150E-01    0.270E-01
RMM:   3    -0.231213602645E+04   -0.92229E-03   -0.15640E-02  5199   0.657E-02    0.165E-01
RMM:   4    -0.231213586759E+04    0.15885E-03   -0.14912E-03  3511   0.135E-02    0.787E-02
RMM:   5    -0.231213582547E+04    0.42121E-04   -0.13585E-04  2971   0.672E-03    0.579E-02
RMM:   6    -0.231213580162E+04    0.23849E-04   -0.10816E-04  3026   0.640E-03    0.393E-02
RMM:   7    -0.231213579143E+04    0.10189E-04   -0.46027E-05  2940   0.573E-03    0.182E-02
RMM:   8    -0.231213579014E+04    0.12981E-05   -0.11243E-05  2884   0.375E-03
  73 F= -.23329363E+04 E0= -.23329363E+04  d E =-.203441E-03  mag=     7.0000
       N       E                     dE             d eps       ncg     rms          rms(c)
DAV:   1    -0.231213088637E+04    0.49051E-02   -0.25325E-01  4464   0.401E-01    0.189E-01
RMM:   2    -0.231213591818E+04   -0.50318E-02   -0.50840E-02  6275   0.896E-02    0.159E-01
RMM:   3    -0.231213627599E+04   -0.35780E-03   -0.55943E-03  4321   0.372E-02    0.106E-01
RMM:   4    -0.231213620247E+04    0.73516E-04   -0.53680E-04  3033   0.884E-03    0.442E-02
RMM:   5    -0.231213618301E+04    0.19463E-04   -0.51488E-05  2918   0.462E-03    0.284E-02
RMM:   6    -0.231213618146E+04    0.15431E-05   -0.39218E-05  2911   0.443E-03
  74 F= -.23329365E+04 E0= -.23329365E+04  d E =-.381508E-03  mag=     7.0000
       N       E                     dE             d eps       ncg     rms          rms(c)
DAV:   1    -0.231213404915E+04    0.21339E-02   -0.10725E-01  4464   0.268E-01    0.128E-01
RMM:   2    -0.231213625286E+04   -0.22037E-02   -0.22189E-02  6261   0.617E-02    0.108E-01
RMM:   3    -0.231213638832E+04   -0.13546E-03   -0.23367E-03  3497   0.247E-02    0.678E-02
RMM:   4    -0.231213635919E+04    0.29132E-04   -0.22134E-04  2944   0.656E-03    0.275E-02
RMM:   5    -0.231213634975E+04    0.94379E-05   -0.22055E-05  2900   0.343E-03
  75 F= -.23329368E+04 E0= -.23329368E+04  d E =-.302637E-03  mag=     7.0000
       N       E                     dE             d eps       ncg     rms          rms(c)
DAV:   1    -0.231212581249E+04    0.10547E-01   -0.47675E-01  4464   0.565E-01    0.268E-01
RMM:   2    -0.231213555343E+04   -0.97409E-02   -0.99292E-02  6120   0.128E-01    0.194E-01
RMM:   3    -0.231213629714E+04   -0.74371E-03   -0.10381E-02  5136   0.531E-02    0.137E-01
RMM:   4    -0.231213620248E+04    0.94662E-04   -0.10366E-03  3166   0.118E-02    0.640E-02
RMM:   5    -0.231213616920E+04    0.33279E-04   -0.97488E-05  2938   0.645E-03    0.424E-02
RMM:   6    -0.231213615963E+04    0.95740E-05   -0.72182E-05  3006   0.608E-03
  76 F= -.23329369E+04 E0= -.23329369E+04  d E =-.391452E-03  mag=     7.0000
       N       E                     dE             d eps       ncg     rms          rms(c)
DAV:   1    -0.231213540011E+04    0.76909E-03   -0.41917E-02  4512   0.168E-01    0.817E-02
RMM:   2    -0.231213627477E+04   -0.87466E-03   -0.86350E-03  6148   0.404E-02    0.850E-02
RMM:   3    -0.231213630305E+04   -0.28276E-04   -0.94716E-04  3035   0.159E-02    0.420E-02
RMM:   4    -0.231213629280E+04    0.10248E-04   -0.90314E-05  2912   0.454E-03    0.162E-02
RMM:   5    -0.231213628963E+04    0.31687E-05   -0.78826E-06  2842   0.217E-03
  77 F= -.23329369E+04 E0= -.23329369E+04  d E =-.440579E-03  mag=     7.0000
       N       E                     dE             d eps       ncg     rms          rms(c)
DAV:   1    -0.231213327333E+04    0.30195E-02   -0.13870E-01  4464   0.293E-01    0.143E-01
RMM:   2    -0.231213620961E+04   -0.29363E-02   -0.29983E-02  6238   0.685E-02    0.993E-02
RMM:   3    -0.231213644442E+04   -0.23481E-03   -0.30880E-03  3480   0.270E-02    0.725E-02
RMM:   4    -0.231213642488E+04    0.19537E-04   -0.31094E-04  2949   0.675E-03    0.306E-02
RMM:   5    -0.231213641502E+04    0.98564E-05   -0.22410E-05  2871   0.334E-03
  78 F= -.23329372E+04 E0= -.23329372E+04  d E =-.278432E-03  mag=     7.0000
       N       E                     dE             d eps       ncg     rms          rms(c)
DAV:   1    -0.231213345934E+04    0.29655E-02   -0.12588E-01  4464   0.279E-01    0.133E-01
RMM:   2    -0.231213610306E+04   -0.26437E-02   -0.27226E-02  6237   0.656E-02    0.735E-02
RMM:   3    -0.231213634104E+04   -0.23798E-03   -0.28745E-03  3288   0.258E-02    0.522E-02
RMM:   4    -0.231213634171E+04   -0.67377E-06   -0.27976E-04  2937   0.618E-03    0.316E-02
RMM:   5    -0.231213633190E+04    0.98140E-05   -0.22031E-05  2882   0.329E-03
  79 F= -.23329373E+04 E0= -.23329373E+04  d E =-.340437E-03  mag=     7.0000
       N       E                     dE             d eps       ncg     rms          rms(c)
DAV:   1    -0.231213472964E+04    0.16121E-02   -0.85271E-02  4464   0.244E-01    0.113E-01
RMM:   2    -0.231213635472E+04   -0.16251E-02   -0.16791E-02  6120   0.556E-02    0.668E-02
RMM:   3    -0.231213651230E+04   -0.15758E-03   -0.18553E-03  3372   0.231E-02    0.560E-02
RMM:   4    -0.231213649006E+04    0.22238E-04   -0.18108E-04  2942   0.620E-03    0.273E-02
RMM:   5    -0.231213648293E+04    0.71289E-05   -0.18708E-05  2903   0.331E-03
  80 F= -.23329375E+04 E0= -.23329375E+04  d E =-.238934E-03  mag=     7.0000
       N       E                     dE             d eps       ncg     rms          rms(c)
DAV:   1    -0.231213571820E+04    0.77186E-03   -0.35672E-02  4576   0.157E-01    0.731E-02
RMM:   2    -0.231213639835E+04   -0.68015E-03   -0.70380E-03  6067   0.362E-02    0.427E-02
RMM:   3    -0.231213646288E+04   -0.64529E-04   -0.76366E-04  2987   0.150E-02    0.355E-02
RMM:   4    -0.231213645638E+04    0.65039E-05   -0.76446E-05  2916   0.403E-03
  81 F= -.23329376E+04 E0= -.23329376E+04  d E =-.268928E-03  mag=     7.0000
       N       E                     dE             d eps       ncg     rms          rms(c)
DAV:   1    -0.231213484729E+04    0.16156E-02   -0.84235E-02  4464   0.238E-01    0.108E-01
RMM:   2    -0.231213643683E+04   -0.15895E-02   -0.16285E-02  6066   0.531E-02    0.745E-02
RMM:   3    -0.231213658877E+04   -0.15194E-03   -0.18429E-03  3276   0.224E-02    0.617E-02
RMM:   4    -0.231213656216E+04    0.26617E-04   -0.17698E-04  2934   0.589E-03    0.290E-02
RMM:   5    -0.231213655493E+04    0.72236E-05   -0.20812E-05  2907   0.335E-03
  82 F= -.23329377E+04 E0= -.23329377E+04  d E =-.192495E-03  mag=     7.0000
       N       E                     dE             d eps       ncg     rms          rms(c)
DAV:   1    -0.231213608693E+04    0.47523E-03   -0.21110E-02  4608   0.119E-01    0.554E-02
RMM:   2    -0.231213648491E+04   -0.39798E-03   -0.41285E-03  5799   0.277E-02    0.321E-02
RMM:   3    -0.231213652599E+04   -0.41080E-04   -0.46848E-04  2931   0.117E-02    0.259E-02
RMM:   4    -0.231213652187E+04    0.41161E-05   -0.45490E-05  2908   0.330E-03
  83 F= -.23329378E+04 E0= -.23329378E+04  d E =-.206508E-03  mag=     7.0000
       N       E                     dE             d eps       ncg     rms          rms(c)
DAV:   1    -0.231213502301E+04    0.15030E-02   -0.86841E-02  4464   0.256E-01    0.110E-01
RMM:   2    -0.231213648683E+04   -0.14638E-02   -0.15164E-02  5969   0.551E-02    0.653E-02
RMM:   3    -0.231213662911E+04   -0.14228E-03   -0.16984E-03  3438   0.236E-02    0.574E-02
RMM:   4    -0.231213660844E+04    0.20666E-04   -0.16448E-04  2938   0.596E-03    0.300E-02
RMM:   5    -0.231213659997E+04    0.84720E-05   -0.22916E-05  2907   0.369E-03
  84 F= -.23329379E+04 E0= -.23329379E+04  d E =-.176212E-03  mag=     7.0000
       N       E                     dE             d eps       ncg     rms          rms(c)
DAV:   1    -0.231213653655E+04    0.71891E-04   -0.23440E-03  5184   0.422E-02    0.191E-02
RMM:   2    -0.231213657737E+04   -0.40820E-04   -0.43070E-04  3441   0.102E-02    0.101E-02
RMM:   3    -0.231213658185E+04   -0.44824E-05   -0.53080E-05  2792   0.595E-03
  85 F= -.23329379E+04 E0= -.23329379E+04  d E =-.174656E-03  mag=     7.0000
       N       E                     dE             d eps       ncg     rms          rms(c)
DAV:   1    -0.231213518270E+04    0.13947E-02   -0.78197E-02  4472   0.234E-01    0.102E-01
RMM:   2    -0.231213649338E+04   -0.13107E-02   -0.13593E-02  5985   0.506E-02    0.573E-02
RMM:   3    -0.231213661507E+04   -0.12170E-03   -0.14570E-03  3257   0.212E-02    0.474E-02
RMM:   4    -0.231213660645E+04    0.86189E-05   -0.14663E-04  2927   0.545E-03    0.284E-02
RMM:   5    -0.231213659892E+04    0.75286E-05   -0.20096E-05  2901   0.339E-03
  86 F= -.23329381E+04 E0= -.23329381E+04  d E =-.134887E-03  mag=     7.0000
       N       E                     dE             d eps       ncg     rms          rms(c)
DAV:   1    -0.231213656740E+04    0.39050E-04   -0.83447E-04  5096   0.247E-02    0.125E-02
RMM:   2    -0.231213658308E+04   -0.15674E-04   -0.16088E-04  3071   0.626E-03    0.123E-02
RMM:   3    -0.231213658380E+04   -0.71908E-06   -0.20331E-05  2641   0.406E-03
  87 F= -.23329381E+04 E0= -.23329381E+04  d E =-.132444E-03  mag=     7.0000
       N       E                     dE             d eps       ncg     rms          rms(c)
DAV:   1    -0.231213547536E+04    0.11077E-02   -0.65905E-02  4472   0.229E-01    0.962E-02
RMM:   2    -0.231213652566E+04   -0.10503E-02   -0.10971E-02  5921   0.485E-02    0.498E-02
RMM:   3    -0.231213662034E+04   -0.94670E-04   -0.11715E-03  3224   0.197E-02    0.405E-02
RMM:   4    -0.231213661655E+04    0.37850E-05   -0.11912E-04  2921   0.521E-03    0.282E-02
RMM:   5    -0.231213660940E+04    0.71517E-05   -0.18184E-05  2886   0.334E-03
  88 F= -.23329382E+04 E0= -.23329382E+04  d E =-.155103E-03  mag=     7.0000
       N       E                     dE             d eps       ncg     rms          rms(c)
DAV:   1    -0.231213654611E+04    0.70441E-04   -0.21031E-03  5208   0.410E-02    0.185E-02
RMM:   2    -0.231213658161E+04   -0.35501E-04   -0.37049E-04  3386   0.982E-03    0.139E-02
RMM:   3    -0.231213658462E+04   -0.30054E-05   -0.44388E-05  2768   0.571E-03
  89 F= -.23329382E+04 E0= -.23329382E+04  d E =-.154073E-03  mag=     7.0000
       N       E                     dE             d eps       ncg     rms          rms(c)
DAV:   1    -0.231213563403E+04    0.94758E-03   -0.51830E-02  4472   0.195E-01    0.835E-02
RMM:   2    -0.231213651577E+04   -0.88174E-03   -0.92218E-03  6007   0.434E-02    0.459E-02
RMM:   3    -0.231213659459E+04   -0.78824E-04   -0.96509E-04  3108   0.174E-02    0.362E-02
RMM:   4    -0.231213659182E+04    0.27721E-05   -0.96776E-05  2916   0.455E-03
  90 F= -.23329384E+04 E0= -.23329384E+04  d E =-.131742E-03  mag=     7.0000
       N       E                     dE             d eps       ncg     rms          rms(c)
DAV:   1    -0.231213653824E+04    0.56355E-04   -0.14795E-03  5104   0.335E-02    0.193E-02
RMM:   2    -0.231213656539E+04   -0.27152E-04   -0.27571E-04  3199   0.788E-03    0.202E-02
RMM:   3    -0.231213656594E+04   -0.54954E-06   -0.36653E-05  2728   0.480E-03
  91 F= -.23329383E+04 E0= -.23329383E+04  d E =-.127364E-03  mag=     7.0000
       N       E                     dE             d eps       ncg     rms          rms(c)
DAV:   1    -0.231213586486E+04    0.70053E-03   -0.48068E-02  4472   0.196E-01    0.809E-02
RMM:   2    -0.231213654356E+04   -0.67870E-03   -0.71846E-03  5869   0.418E-02    0.404E-02
RMM:   3    -0.231213659657E+04   -0.53007E-04   -0.73018E-04  3148   0.173E-02    0.266E-02
RMM:   4    -0.231213659689E+04   -0.32726E-06   -0.75752E-05  2934   0.447E-03
  92 F= -.23329385E+04 E0= -.23329385E+04  d E =-.130297E-03  mag=     7.0000
       N       E                     dE             d eps       ncg     rms          rms(c)
DAV:   1    -0.231213657555E+04    0.21018E-04   -0.50102E-04  5208   0.206E-02    0.196E-02
RMM:   2    -0.231213659573E+04   -0.20178E-04   -0.10952E-04  2995   0.531E-03    0.418E-02
RMM:   3    -0.231213658116E+04    0.14561E-04   -0.19249E-05  2625   0.334E-03    0.707E-03
RMM:   4    -0.231213658088E+04    0.28826E-06   -0.31013E-06  2262   0.118E-03
  93 F= -.23329385E+04 E0= -.23329385E+04  d E =-.124794E-03  mag=     7.0000
       N       E                     dE             d eps       ncg     rms          rms(c)
DAV:   1    -0.231213593070E+04    0.65046E-03   -0.46756E-02  4468   0.190E-01    0.776E-02
RMM:   2    -0.231213651500E+04   -0.58430E-03   -0.62042E-03  5922   0.398E-02    0.387E-02
RMM:   3    -0.231213656412E+04   -0.49114E-04   -0.64614E-04  3090   0.158E-02    0.314E-02
RMM:   4    -0.231213656166E+04    0.24529E-05   -0.67140E-05  2921   0.426E-03
  94 F= -.23329386E+04 E0= -.23329386E+04  d E =-.818685E-04  mag=     7.0000
       N       E                     dE             d eps       ncg     rms          rms(c)
DAV:   1    -0.231213655569E+04    0.84225E-05   -0.13216E-05  3960   0.502E-03    0.117E-02
RMM:   2    -0.231213655666E+04   -0.96773E-06   -0.71741E-06  2591   0.225E-03
  95 F= -.23329385E+04 E0= -.23329385E+04  d E =-.776266E-04  mag=     7.0000
       N       E                     dE             d eps       ncg     rms          rms(c)
DAV:   1    -0.231213602388E+04    0.53182E-03   -0.42368E-02  4472   0.185E-01    0.743E-02
RMM:   2    -0.231213651620E+04   -0.49232E-03   -0.52421E-03  5951   0.388E-02    0.386E-02
RMM:   3    -0.231213655876E+04   -0.42558E-04   -0.56052E-04  3177   0.159E-02    0.358E-02
RMM:   4    -0.231213655333E+04    0.54219E-05   -0.59755E-05  2909   0.417E-03
  96 F= -.23329387E+04 E0= -.23329387E+04  d E =-.104832E-03  mag=     7.0000
       N       E                     dE             d eps       ncg     rms          rms(c)
DAV:   1    -0.231213653744E+04    0.21313E-04   -0.20733E-04  5232   0.134E-02    0.120E-02
RMM:   2    -0.231213653987E+04   -0.24269E-05   -0.30472E-05  2693   0.326E-03
  97 F= -.23329386E+04 E0= -.23329386E+04  d E =-.992818E-04  mag=     7.0000
       N       E                     dE             d eps       ncg     rms          rms(c)
DAV:   1    -0.231213602495E+04    0.51250E-03   -0.39513E-02  4464   0.175E-01    0.703E-02
RMM:   2    -0.231213648613E+04   -0.46118E-03   -0.48961E-03  5937   0.370E-02    0.362E-02
RMM:   3    -0.231213652757E+04   -0.41441E-04   -0.52994E-04  3088   0.156E-02    0.331E-02
RMM:   4    -0.231213652308E+04    0.44921E-05   -0.56296E-05  2909   0.402E-03
  98 F= -.23329387E+04 E0= -.23329387E+04  d E =-.954210E-04  mag=     7.0000
       N       E                     dE             d eps       ncg     rms          rms(c)
DAV:   1    -0.231213646115E+04    0.66423E-04   -0.24650E-03  5024   0.436E-02    0.203E-02
RMM:   2    -0.231213649055E+04   -0.29399E-04   -0.31352E-04  3441   0.971E-03    0.132E-02
RMM:   3    -0.231213649348E+04   -0.29331E-05   -0.38684E-05  2819   0.539E-03
  99 F= -.23329387E+04 E0= -.23329387E+04  d E =-.943851E-04  mag=     7.0000
       N       E                     dE             d eps       ncg     rms          rms(c)
DAV:   1    -0.231213608301E+04    0.40754E-03   -0.33482E-02  4472   0.159E-01    0.652E-02
RMM:   2    -0.231213646871E+04   -0.38570E-03   -0.41043E-03  5905   0.339E-02    0.345E-02
RMM:   3    -0.231213650006E+04   -0.31349E-04   -0.42318E-04  3015   0.138E-02    0.301E-02
RMM:   4    -0.231213649797E+04    0.20891E-05   -0.46372E-05  2908   0.381E-03
 100 F= -.23329388E+04 E0= -.23329388E+04  d E =-.956436E-04  mag=     7.0000
       N       E                     dE             d eps       ncg     rms          rms(c)
DAV:   1    -0.231213644947E+04    0.50584E-04   -0.19686E-03  5136   0.386E-02    0.202E-02
RMM:   2    -0.231213647396E+04   -0.24486E-04   -0.25081E-04  3316   0.866E-03    0.194E-02
RMM:   3    -0.231213647476E+04   -0.80148E-06   -0.31073E-05  2720   0.485E-03
 101 F= -.23329388E+04 E0= -.23329388E+04  d E =-.949867E-04  mag=     7.0000
       N       E                     dE             d eps       ncg     rms          rms(c)
DAV:   1    -0.231213609849E+04    0.37547E-03   -0.28042E-02  4452   0.147E-01    0.610E-02
RMM:   2    -0.231213642679E+04   -0.32831E-03   -0.35173E-03  5878   0.317E-02    0.298E-02
RMM:   3    -0.231213645268E+04   -0.25888E-04   -0.36723E-04  2977   0.129E-02    0.207E-02
RMM:   4    -0.231213645239E+04    0.29204E-06   -0.35949E-05  2918   0.331E-03
 102 F= -.23329389E+04 E0= -.23329389E+04  d E =-.860566E-04  mag=     7.0000
       N       E                     dE             d eps       ncg     rms          rms(c)
DAV:   1    -0.231213636528E+04    0.87405E-04   -0.39056E-03  4720   0.550E-02    0.267E-02
RMM:   2    -0.231213641498E+04   -0.49701E-04   -0.50353E-04  3921   0.121E-02    0.274E-02
RMM:   3    -0.231213641409E+04    0.88998E-06   -0.55540E-05  2874   0.623E-03
 103 F= -.23329389E+04 E0= -.23329389E+04  d E =-.886948E-04  mag=     7.0000
       N       E                     dE             d eps       ncg     rms          rms(c)
DAV:   1    -0.231213600444E+04    0.41054E-03   -0.28097E-02  4456   0.147E-01    0.617E-02
RMM:   2    -0.231213634516E+04   -0.34073E-03   -0.36157E-03  5865   0.318E-02    0.349E-02
RMM:   3    -0.231213637266E+04   -0.27500E-04   -0.36904E-04  2987   0.126E-02    0.307E-02
RMM:   4    -0.231213636863E+04    0.40306E-05   -0.37884E-05  2899   0.361E-03
 104 F= -.23329390E+04 E0= -.23329390E+04  d E =-.717485E-04  mag=     7.0000
       N       E                     dE             d eps       ncg     rms          rms(c)
DAV:   1    -0.231213633986E+04    0.32807E-04   -0.62103E-04  5088   0.222E-02    0.164E-02
RMM:   2    -0.231213635061E+04   -0.10752E-04   -0.93191E-05  2986   0.535E-03    0.229E-02
RMM:   3    -0.231213634766E+04    0.29447E-05   -0.14903E-05  2511   0.326E-03
 105 F= -.23329390E+04 E0= -.23329390E+04  d E =-.686877E-04  mag=     7.0000
       N       E                     dE             d eps       ncg     rms          rms(c)
DAV:   1    -0.231213611312E+04    0.23748E-03   -0.19481E-02  4456   0.128E-01    0.522E-02
RMM:   2    -0.231213632091E+04   -0.20778E-03   -0.22355E-03  5814   0.269E-02    0.266E-02
RMM:   3    -0.231213633536E+04   -0.14457E-04   -0.23004E-04  2956   0.108E-02    0.207E-02
RMM:   4    -0.231213633394E+04    0.14257E-05   -0.23104E-05  2898   0.308E-03
 106 F= -.23329391E+04 E0= -.23329391E+04  d E =-.677779E-04  mag=     7.0000
       N       E                     dE             d eps       ncg     rms          rms(c)
DAV:   1    -0.231213632251E+04    0.12854E-04   -0.16811E-04  5160   0.124E-02    0.116E-02
RMM:   2    -0.231213632802E+04   -0.55069E-05   -0.30860E-05  2748   0.323E-03
 107 F= -.23329391E+04 E0= -.23329391E+04  d E =-.697532E-04  mag=     7.0000
       N       E                     dE             d eps       ncg     rms          rms(c)
DAV:   1    -0.231213616474E+04    0.15777E-03   -0.12801E-02  4456   0.101E-01    0.408E-02
RMM:   2    -0.231213629084E+04   -0.12609E-03   -0.13370E-03  5528   0.216E-02    0.245E-02
RMM:   3    -0.231213629865E+04   -0.78101E-05   -0.12879E-04  2905   0.940E-03    0.230E-02
RMM:   4    -0.231213629508E+04    0.35604E-05   -0.15686E-05  2877   0.283E-03
 108 F= -.23329391E+04 E0= -.23329391E+04  d E =-.372594E-04  mag=     7.0000
       N       E                     dE             d eps       ncg     rms          rms(c)
DAV:   1    -0.231213628598E+04    0.12662E-04   -0.10104E-04  5184   0.937E-03    0.102E-02
RMM:   2    -0.231213628933E+04   -0.33513E-05   -0.19330E-05  2595   0.254E-03
 109 F= -.23329391E+04 E0= -.23329391E+04  d E =-.381163E-04  mag=     7.0000
       N       E                     dE             d eps       ncg     rms          rms(c)
DAV:   1    -0.231213617025E+04    0.11574E-03   -0.10145E-02  4456   0.907E-02    0.359E-02
RMM:   2    -0.231213626642E+04   -0.96177E-04   -0.10154E-03  5444   0.193E-02    0.233E-02
RMM:   3    -0.231213627229E+04   -0.58670E-05   -0.99827E-05  2898   0.846E-03
 110 F= -.23329391E+04 E0= -.23329391E+04  d E =-.437162E-04  mag=     7.0000
       N       E                     dE             d eps       ncg     rms          rms(c)
DAV:   1    -0.231213625356E+04    0.12858E-04   -0.39819E-04  5088   0.185E-02    0.142E-02
RMM:   2    -0.231213625816E+04   -0.45949E-05   -0.48518E-05  2757   0.426E-03
 111 F= -.23329391E+04 E0= -.23329391E+04  d E =-.417323E-04  mag=     7.0000
       N       E                     dE             d eps       ncg     rms          rms(c)
DAV:   1    -0.231213619657E+04    0.56998E-04   -0.57804E-03  4456   0.741E-02    0.303E-02
RMM:   2    -0.231213624660E+04   -0.50034E-04   -0.55341E-04  4765   0.162E-02    0.162E-02
RMM:   3    -0.231213625012E+04   -0.35225E-05   -0.62015E-05  2879   0.792E-03
 112 F= -.23329392E+04 E0= -.23329392E+04  d E =-.329824E-04  mag=     7.0000
       N       E                     dE             d eps       ncg     rms          rms(c)
DAV:   1    -0.231213624518E+04    0.14255E-05   -0.49156E-05  4608   0.748E-03    0.114E-02
RMM:   2    -0.231213624845E+04   -0.32791E-05   -0.14486E-05  2555   0.304E-03
 113 F= -.23329392E+04 E0= -.23329392E+04  d E =-.349195E-04  mag=     7.0000
       N       E                     dE             d eps       ncg     rms          rms(c)
DAV:   1    -0.231213619535E+04    0.49824E-04   -0.46743E-03  4472   0.648E-02    0.263E-02
RMM:   2    -0.231213623799E+04   -0.42636E-04   -0.45794E-04  4544   0.139E-02    0.178E-02
RMM:   3    -0.231213624079E+04   -0.27987E-05   -0.46917E-05  2868   0.683E-03
 114 F= -.23329392E+04 E0= -.23329392E+04  d E =-.274229E-04  mag=     7.0000
       N       E                     dE             d eps       ncg     rms          rms(c)
DAV:   1    -0.231213623189E+04    0.60937E-05   -0.98187E-05  5224   0.982E-03    0.937E-03
RMM:   2    -0.231213623297E+04   -0.10763E-05   -0.12429E-05  2475   0.244E-03
 115 F= -.23329392E+04 E0= -.23329392E+04  d E =-.246769E-04  mag=     7.0000
       N       E                     dE             d eps       ncg     rms          rms(c)
DAV:   1    -0.231213617189E+04    0.60006E-04   -0.36784E-03  4440   0.558E-02    0.225E-02
RMM:   2    -0.231213621047E+04   -0.38581E-04   -0.41623E-04  4119   0.125E-02    0.125E-02
RMM:   3    -0.231213621298E+04   -0.25151E-05   -0.41914E-05  2818   0.636E-03
 116 F= -.23329392E+04 E0= -.23329392E+04  d E =-.201453E-04  mag=     7.0000
       N       E                     dE             d eps       ncg     rms          rms(c)
DAV:   1    -0.231213620964E+04    0.82616E-06   -0.21663E-05  4208   0.457E-03    0.756E-03
RMM:   2    -0.231213621022E+04   -0.57496E-06   -0.54579E-06  2322   0.241E-03
 117 F= -.23329392E+04 E0= -.23329392E+04  d E =-.201456E-04  mag=     7.0000
       N       E                     dE             d eps       ncg     rms          rms(c)
DAV:   1    -0.231213615978E+04    0.49863E-04   -0.32820E-03  4440   0.544E-02    0.226E-02
RMM:   2    -0.231213619477E+04   -0.34991E-04   -0.36832E-04  4108   0.118E-02    0.161E-02
RMM:   3    -0.231213619692E+04   -0.21511E-05   -0.38561E-05  2783   0.608E-03
 118 F= -.23329393E+04 E0= -.23329393E+04  d E =-.278116E-04  mag=     7.0000
       N       E                     dE             d eps       ncg     rms          rms(c)
DAV:   1    -0.231213617083E+04    0.23945E-04   -0.68845E-04  4816   0.250E-02    0.126E-02
RMM:   2    -0.231213617787E+04   -0.70469E-05   -0.80658E-05  2989   0.584E-03
 119 F= -.23329393E+04 E0= -.23329393E+04  d E =-.278086E-04  mag=     7.0000
       N       E                     dE             d eps       ncg     rms          rms(c)
DAV:   1    -0.231213611130E+04    0.59529E-04   -0.31074E-03  4400   0.511E-02    0.220E-02
RMM:   2    -0.231213615129E+04   -0.39993E-04   -0.40679E-04  4021   0.124E-02    0.200E-02
RMM:   3    -0.231213615243E+04   -0.11385E-05   -0.48593E-05  2837   0.644E-03
 120 F= -.23329393E+04 E0= -.23329393E+04  d E =-.208370E-04  mag=     7.0000
       N       E                     dE             d eps       ncg     rms          rms(c)
DAV:   1    -0.231213615188E+04   -0.58787E-06   -0.62562E-06  3792   0.330E-03    0.659E-03
RMM:   2    -0.231213615185E+04    0.31883E-07   -0.27047E-06  2303   0.182E-03
 121 F= -.23329393E+04 E0= -.23329393E+04  d E =-.196023E-04  mag=     7.0000
       N       E                     dE             d eps       ncg     rms          rms(c)
DAV:   1    -0.231213610240E+04    0.49482E-04   -0.35277E-03  4440   0.553E-02    0.221E-02
RMM:   2    -0.231213613948E+04   -0.37083E-04   -0.39890E-04  4137   0.122E-02    0.115E-02
RMM:   3    -0.231213614190E+04   -0.24248E-05   -0.40453E-05  2738   0.618E-03
 122 F= -.23329393E+04 E0= -.23329393E+04  d E =-.253238E-04  mag=     7.0000
       N       E                     dE             d eps       ncg     rms          rms(c)
[...]
RMM:   2    -0.231213561718E+04   -0.92978E-05   -0.97512E-05  2994   0.576E-03
 159 F= -.23329397E+04 E0= -.23329397E+04  d E =-.177379E-04  mag=     7.0000
       N       E                     dE             d eps       ncg     rms          rms(c)
DAV:   1    -0.231213558830E+04    0.19576E-04   -0.14552E-03  4264   0.311E-02    0.170E-02
RMM:   2    -0.231213561175E+04   -0.23444E-04   -0.21391E-04  3286   0.824E-03    0.235E-02
RMM:   3    -0.231213560876E+04    0.29850E-05   -0.25833E-05  2503   0.456E-03
 160 F= -.23329398E+04 E0= -.23329398E+04  d E =-.176809E-04  mag=     7.0000
       N       E                     dE             d eps       ncg     rms          rms(c)
DAV:   1    -0.231213556458E+04    0.47164E-04   -0.17390E-03  4312   0.338E-02    0.169E-02
RMM:   2    -0.231213558756E+04   -0.22975E-04   -0.23709E-04  3305   0.854E-03    0.136E-02
RMM:   3    -0.231213558870E+04   -0.11374E-05   -0.24574E-05  2721   0.449E-03
 161 F= -.23329398E+04 E0= -.23329398E+04  d E =-.263640E-04  mag=     7.0000
       N       E                     dE             d eps       ncg     rms          rms(c)
DAV:   1    -0.231213555585E+04    0.31713E-04   -0.20328E-03  4256   0.352E-02    0.172E-02
RMM:   2    -0.231213558252E+04   -0.26675E-04   -0.27860E-04  3387   0.898E-03    0.117E-02
RMM:   3    -0.231213558432E+04   -0.18022E-05   -0.28484E-05  2554   0.468E-03
 162 F= -.23329398E+04 E0= -.23329398E+04  d E =-.202865E-04  mag=     7.0000
       N       E                     dE             d eps       ncg     rms          rms(c)
DAV:   1    -0.231213556267E+04    0.19854E-04   -0.70367E-04  4408   0.207E-02    0.115E-02
RMM:   2    -0.231213557178E+04   -0.91119E-05   -0.98389E-05  2988   0.547E-03
 163 F= -.23329398E+04 E0= -.23329398E+04  d E =-.222843E-04  mag=     7.0000
       N       E                     dE             d eps       ncg     rms          rms(c)
DAV:   1    -0.231213553375E+04    0.28919E-04   -0.22806E-03  4344   0.389E-02    0.186E-02
RMM:   2    -0.231213556344E+04   -0.29695E-04   -0.31197E-04  3451   0.992E-03    0.122E-02
RMM:   3    -0.231213556588E+04   -0.24415E-05   -0.34674E-05  2565   0.535E-03
 164 F= -.23329398E+04 E0= -.23329398E+04  d E =-.209201E-04  mag=     7.0000
       N       E                     dE             d eps       ncg     rms          rms(c)
DAV:   1    -0.231213552549E+04    0.37948E-04   -0.16925E-03  4344   0.334E-02    0.167E-02
RMM:   2    -0.231213554687E+04   -0.21378E-04   -0.22964E-04  3309   0.837E-03    0.961E-03
RMM:   3    -0.231213554804E+04   -0.11719E-05   -0.22208E-05  2742   0.444E-03
 165 F= -.23329398E+04 E0= -.23329398E+04  d E =-.262866E-04  mag=     7.0000
       N       E                     dE             d eps       ncg     rms          rms(c)
DAV:   1    -0.231213549607E+04    0.50807E-04   -0.23752E-03  4336   0.401E-02    0.186E-02
RMM:   2    -0.231213552582E+04   -0.29757E-04   -0.31668E-04  3513   0.982E-03    0.107E-02
RMM:   3    -0.231213552830E+04   -0.24807E-05   -0.35343E-05  2695   0.514E-03
 166 F= -.23329398E+04 E0= -.23329398E+04  d E =-.228815E-04  mag=     7.0000
       N       E                     dE             d eps       ncg     rms          rms(c)
DAV:   1    -0.231213544710E+04    0.78723E-04   -0.29363E-03  4400   0.444E-02    0.218E-02
RMM:   2    -0.231213548538E+04   -0.38283E-04   -0.40245E-04  3657   0.109E-02    0.164E-02
RMM:   3    -0.231213548725E+04   -0.18647E-05   -0.39122E-05  2849   0.546E-03
 167 F= -.23329398E+04 E0= -.23329398E+04  d E =-.291910E-04  mag=     7.0000
       N       E                     dE             d eps       ncg     rms          rms(c)
DAV:   1    -0.231213544433E+04    0.41055E-04   -0.14138E-03  4368   0.283E-02    0.151E-02
RMM:   2    -0.231213546364E+04   -0.19314E-04   -0.20267E-04  3245   0.720E-03    0.999E-03
RMM:   3    -0.231213546514E+04   -0.14933E-05   -0.22404E-05  2565   0.404E-03
 168 F= -.23329399E+04 E0= -.23329399E+04  d E =-.124138E-04  mag=     7.0000
       N       E                     dE             d eps       ncg     rms          rms(c)
DAV:   1    -0.231213528225E+04    0.18139E-03   -0.81261E-03  4424   0.677E-02    0.328E-02
RMM:   2    -0.231213539266E+04   -0.11040E-03   -0.11511E-03  4484   0.166E-02    0.234E-02
RMM:   3    -0.231213539954E+04   -0.68799E-05   -0.10676E-04  2893   0.706E-03    0.193E-02
RMM:   4    -0.231213539725E+04    0.22894E-05   -0.12233E-05  2803   0.223E-03
 169 F= -.23329399E+04 E0= -.23329399E+04  d E =-.272538E-04  mag=     7.0000
       N       E                     dE             d eps       ncg     rms          rms(c)
DAV:   1    -0.231213535553E+04    0.44003E-04   -0.23714E-03  4240   0.364E-02    0.193E-02
RMM:   2    -0.231213538793E+04   -0.32397E-04   -0.31919E-04  3452   0.876E-03    0.219E-02
RMM:   3    -0.231213538719E+04    0.73672E-06   -0.33274E-05  2638   0.436E-03
 170 F= -.23329399E+04 E0= -.23329399E+04  d E =-.305007E-04  mag=     7.0000
       N       E                     dE             d eps       ncg     rms          rms(c)
DAV:   1    -0.231213516539E+04    0.22254E-03   -0.11930E-02  4456   0.810E-02    0.402E-02
RMM:   2    -0.231213531952E+04   -0.15413E-03   -0.16008E-03  5106   0.196E-02    0.311E-02
RMM:   3    -0.231213532847E+04   -0.89543E-05   -0.15856E-04  2908   0.814E-03    0.248E-02
RMM:   4    -0.231213532421E+04    0.42668E-05   -0.17436E-05  2885   0.253E-03
 171 F= -.23329399E+04 E0= -.23329399E+04  d E =-.580353E-04  mag=     7.0000
       N       E                     dE             d eps       ncg     rms          rms(c)
DAV:   1    -0.231213527396E+04    0.54512E-04   -0.30609E-03  4352   0.425E-02    0.217E-02
RMM:   2    -0.231213531302E+04   -0.39055E-04   -0.39411E-04  3594   0.994E-03    0.222E-02
RMM:   3    -0.231213531336E+04   -0.34763E-06   -0.41280E-05  2778   0.479E-03
 172 F= -.23329400E+04 E0= -.23329400E+04  d E =-.273472E-04  mag=     7.0000
       N       E                     dE             d eps       ncg     rms          rms(c)
DAV:   1    -0.231213521625E+04    0.96763E-04   -0.50176E-03  4392   0.541E-02    0.269E-02
RMM:   2    -0.231213527886E+04   -0.62607E-04   -0.65409E-04  3939   0.130E-02    0.196E-02
RMM:   3    -0.231213528233E+04   -0.34678E-05   -0.59776E-05  2874   0.595E-03
 173 F= -.23329400E+04 E0= -.23329400E+04  d E =-.449099E-04  mag=     7.0000
       N       E                     dE             d eps       ncg     rms          rms(c)
DAV:   1    -0.231213491702E+04    0.36184E-03   -0.20107E-02  4456   0.108E-01    0.523E-02
RMM:   2    -0.231213516335E+04   -0.24633E-03   -0.25768E-03  5594   0.256E-02    0.374E-02
RMM:   3    -0.231213517833E+04   -0.14986E-04   -0.25044E-04  2936   0.973E-03    0.313E-02
RMM:   4    -0.231213517180E+04    0.65308E-05   -0.28299E-05  2904   0.311E-03
 174 F= -.23329400E+04 E0= -.23329400E+04  d E =-.316219E-04  mag=     7.0000
       N       E                     dE             d eps       ncg     rms          rms(c)
DAV:   1    -0.231213513988E+04    0.38448E-04   -0.85709E-03  4400   0.709E-02    0.319E-02
RMM:   2    -0.231213524295E+04   -0.10307E-03   -0.10899E-03  4714   0.170E-02    0.199E-02
RMM:   3    -0.231213524924E+04   -0.62872E-05   -0.10410E-04  2789   0.741E-03    0.157E-02
RMM:   4    -0.231213524782E+04    0.14235E-05   -0.10326E-05  2523   0.214E-03
 175 F= -.23329400E+04 E0= -.23329400E+04  d E =-.449056E-04  mag=     7.0000
       N       E                     dE             d eps       ncg     rms          rms(c)
DAV:   1    -0.231213520162E+04    0.47625E-04   -0.22133E-03  4224   0.315E-02    0.162E-02
RMM:   2    -0.231213523081E+04   -0.29198E-04   -0.31071E-04  3361   0.798E-03    0.104E-02
RMM:   3    -0.231213523276E+04   -0.19437E-05   -0.28572E-05  2468   0.402E-03
 176 F= -.23329400E+04 E0= -.23329400E+04  d E =-.203247E-04  mag=     7.0000
       N       E                     dE             d eps       ncg     rms          rms(c)
DAV:   1    -0.231213490492E+04    0.32589E-03   -0.18416E-02  4456   0.909E-02    0.473E-02
RMM:   2    -0.231213515598E+04   -0.25106E-03   -0.25853E-03  5132   0.226E-02    0.392E-02
RMM:   3    -0.231213517021E+04   -0.14234E-04   -0.25566E-04  2939   0.865E-03    0.284E-02
RMM:   4    -0.231213516513E+04    0.50881E-05   -0.26947E-05  2883   0.270E-03
 177 F= -.23329400E+04 E0= -.23329400E+04  d E =-.552345E-04  mag=     7.0000
       N       E                     dE             d eps       ncg     rms          rms(c)
DAV:   1    -0.231213392435E+04    0.12459E-02   -0.73316E-02  4456   0.181E-01    0.955E-02
RMM:   2    -0.231213492008E+04   -0.99573E-03   -0.10241E-02  6013   0.439E-02    0.839E-02
RMM:   3    -0.231213496991E+04   -0.49825E-04   -0.10056E-03  3153   0.158E-02    0.593E-02
RMM:   4    -0.231213494398E+04    0.25930E-04   -0.10217E-04  2941   0.484E-03    0.281E-02
RMM:   5    -0.231213493895E+04    0.50264E-05   -0.22435E-05  2894   0.321E-03
 178 F= -.23329400E+04 E0= -.23329400E+04  d E =-.342796E-04  mag=     7.0000
       N       E                     dE             d eps       ncg     rms          rms(c)
DAV:   1    -0.231213475936E+04    0.18461E-03   -0.23190E-02  4456   0.102E-01    0.531E-02
RMM:   2    -0.231213507066E+04   -0.31130E-03   -0.31907E-03  5352   0.247E-02    0.497E-02
RMM:   3    -0.231213508680E+04   -0.16139E-04   -0.35012E-04  2973   0.989E-03    0.308E-02
RMM:   4    -0.231213508029E+04    0.65167E-05   -0.30583E-05  2770   0.284E-03
 179 F= -.23329400E+04 E0= -.23329400E+04  d E =-.611312E-04  mag=     7.0000
       N       E                     dE             d eps       ncg     rms          rms(c)
DAV:   1    -0.231213501826E+04    0.68541E-04   -0.31626E-03  4176   0.366E-02    0.226E-02
RMM:   2    -0.231213506757E+04   -0.49311E-04   -0.47812E-04  3545   0.958E-03    0.291E-02
RMM:   3    -0.231213506318E+04    0.43922E-05   -0.47524E-05  2643   0.455E-03
 180 F= -.23329401E+04 E0= -.23329401E+04  d E =-.275477E-04  mag=     7.0000
       N       E                     dE             d eps       ncg     rms          rms(c)
DAV:   1    -0.231213459010E+04    0.47748E-03   -0.28061E-02  4456   0.109E-01    0.579E-02
RMM:   2    -0.231213498245E+04   -0.39236E-03   -0.40075E-03  5344   0.270E-02    0.510E-02
RMM:   3    -0.231213500207E+04   -0.19614E-04   -0.40150E-04  2977   0.101E-02    0.345E-02
RMM:   4    -0.231213499453E+04    0.75390E-05   -0.41734E-05  2898   0.313E-03
 181 F= -.23329401E+04 E0= -.23329401E+04  d E =-.928989E-04  mag=     7.0000
       N       E                     dE             d eps       ncg     rms          rms(c)
DAV:   1    -0.231213318597E+04    0.18161E-02   -0.11162E-01  4456   0.218E-01    0.117E-01
RMM:   2    -0.231213473853E+04   -0.15526E-02   -0.15934E-02  6085   0.528E-02    0.103E-01
RMM:   3    -0.231213482025E+04   -0.81720E-04   -0.15711E-03  3238   0.188E-02    0.724E-02
RMM:   4    -0.231213478168E+04    0.38575E-04   -0.15678E-04  2958   0.561E-03    0.340E-02
RMM:   5    -0.231213477360E+04    0.80726E-05   -0.31645E-05  2909   0.349E-03
 182 F= -.23329402E+04 E0= -.23329402E+04  d E =-.140201E-03  mag=     7.0000
       N       E                     dE             d eps       ncg     rms          rms(c)
DAV:   1    -0.231213442092E+04    0.36076E-03   -0.23370E-02  4440   0.103E-01    0.563E-02
RMM:   2    -0.231213474301E+04   -0.32209E-03   -0.32404E-03  5362   0.255E-02    0.588E-02
RMM:   3    -0.231213474305E+04   -0.48138E-07   -0.34468E-04  2957   0.103E-02    0.319E-02
RMM:   4    -0.231213473541E+04    0.76475E-05   -0.33726E-05  2911   0.314E-03
 183 F= -.23329403E+04 E0= -.23329403E+04  d E =-.816668E-04  mag=     7.0000
       N       E                     dE             d eps       ncg     rms          rms(c)
DAV:   1    -0.231213356511E+04    0.11779E-02   -0.75887E-02  4456   0.184E-01    0.979E-02
RMM:   2    -0.231213458217E+04   -0.10171E-02   -0.10342E-02  6006   0.439E-02    0.948E-02
RMM:   3    -0.231213461593E+04   -0.33761E-04   -0.10353E-03  3154   0.164E-02    0.600E-02
RMM:   4    -0.231213458792E+04    0.28010E-04   -0.10051E-04  2947   0.483E-03    0.273E-02
RMM:   5    -0.231213458266E+04    0.52538E-05   -0.24224E-05  2918   0.320E-03
 184 F= -.23329403E+04 E0= -.23329403E+04  d E =-.144271E-03  mag=     7.0000
       N       E                     dE             d eps       ncg     rms          rms(c)
DAV:   1    -0.231213440796E+04    0.17996E-03   -0.75139E-03  4512   0.582E-02    0.341E-02
RMM:   2    -0.231213451699E+04   -0.10903E-03   -0.10668E-03  4129   0.146E-02    0.411E-02
RMM:   3    -0.231213451033E+04    0.66672E-05   -0.11615E-04  2895   0.686E-03    0.174E-02
RMM:   4    -0.231213450830E+04    0.20299E-05   -0.12217E-05  2826   0.211E-03
 185 F= -.23329403E+04 E0= -.23329403E+04  d E =-.138254E-03  mag=     7.0000
       N       E                     dE             d eps       ncg     rms          rms(c)
DAV:   1    -0.231213405027E+04    0.46005E-03   -0.26839E-02  4456   0.107E-01    0.591E-02
RMM:   2    -0.231213442698E+04   -0.37671E-03   -0.38106E-03  5293   0.261E-02    0.595E-02
RMM:   3    -0.231213443831E+04   -0.11336E-04   -0.38769E-04  2986   0.995E-03    0.355E-02
RMM:   4    -0.231213442918E+04    0.91286E-05   -0.37541E-05  2894   0.307E-03
 186 F= -.23329404E+04 E0= -.23329404E+04  d E =-.658650E-04  mag=     7.0000
       N       E                     dE             d eps       ncg     rms          rms(c)
DAV:   1    -0.231213213009E+04    0.23082E-02   -0.14204E-01  4456   0.247E-01    0.130E-01
RMM:   2    -0.231213406841E+04   -0.19383E-02   -0.20086E-02  6125   0.594E-02    0.104E-01
RMM:   3    -0.231213419236E+04   -0.12395E-03   -0.19462E-03  3306   0.210E-02    0.803E-02
RMM:   4    -0.231213414665E+04    0.45718E-04   -0.19209E-04  2960   0.617E-03    0.380E-02
RMM:   5    -0.231213413692E+04    0.97215E-05   -0.40224E-05  2922   0.388E-03
 187 F= -.23329404E+04 E0= -.23329404E+04  d E =-.107471E-03  mag=     7.0000
       N       E                     dE             d eps       ncg     rms          rms(c)
DAV:   1    -0.231213364597E+04    0.50067E-03   -0.33396E-02  4456   0.137E-01    0.696E-02
RMM:   2    -0.231213409159E+04   -0.44561E-03   -0.45937E-03  5805   0.329E-02    0.626E-02
RMM:   3    -0.231213410215E+04   -0.10567E-04   -0.44856E-04  3015   0.122E-02    0.418E-02
RMM:   4    -0.231213408846E+04    0.13695E-04   -0.47863E-05  2916   0.393E-03    0.184E-02
RMM:   5    -0.231213408777E+04    0.68793E-06   -0.12699E-05  2833   0.253E-03
 188 F= -.23329405E+04 E0= -.23329405E+04  d E =-.105333E-03  mag=     7.0000
       N       E                     dE             d eps       ncg     rms          rms(c)
DAV:   1    -0.231213359816E+04    0.49030E-03   -0.27883E-02  4496   0.124E-01    0.607E-02
RMM:   2    -0.231213395570E+04   -0.35754E-03   -0.37766E-03  5779   0.295E-02    0.423E-02
RMM:   3    -0.231213397859E+04   -0.22890E-04   -0.34897E-04  2968   0.110E-02    0.364E-02
RMM:   4    -0.231213396971E+04    0.88797E-05   -0.37558E-05  2905   0.343E-03
 189 F= -.23329406E+04 E0= -.23329406E+04  d E =-.128254E-03  mag=     7.0000
       N       E                     dE             d eps       ncg     rms          rms(c)
DAV:   1    -0.231213384705E+04    0.13154E-03   -0.12090E-02  4512   0.893E-02    0.427E-02
RMM:   2    -0.231213397641E+04   -0.12936E-03   -0.13183E-03  5214   0.194E-02    0.410E-02
RMM:   3    -0.231213397747E+04   -0.10623E-05   -0.13932E-04  2918   0.847E-03    0.279E-02
RMM:   4    -0.231213397042E+04    0.70538E-05   -0.14891E-05  2890   0.267E-03
 190 F= -.23329406E+04 E0= -.23329406E+04  d E =-.501166E-04  mag=     7.0000
       N       E                     dE             d eps       ncg     rms          rms(c)
DAV:   1    -0.231213390219E+04    0.75287E-04   -0.41112E-03  4808   0.517E-02    0.242E-02
RMM:   2    -0.231213394293E+04   -0.40740E-04   -0.44261E-04  3861   0.114E-02    0.154E-02
RMM:   3    -0.231213394629E+04   -0.33597E-05   -0.48949E-05  2872   0.582E-03
 191 F= -.23329406E+04 E0= -.23329406E+04  d E =-.551031E-04  mag=     7.0000
       N       E                     dE             d eps       ncg     rms          rms(c)
DAV:   1    -0.231213386274E+04    0.80186E-04   -0.72080E-03  4448   0.738E-02    0.335E-02
RMM:   2    -0.231213392892E+04   -0.66175E-04   -0.71482E-04  4707   0.160E-02    0.195E-02
RMM:   3    -0.231213393225E+04   -0.33385E-05   -0.64032E-05  2892   0.694E-03
 192 F= -.23329406E+04 E0= -.23329406E+04  d E =-.313250E-04  mag=     7.0000
       N       E                     dE             d eps       ncg     rms          rms(c)
DAV:   1    -0.231213391361E+04    0.15308E-04   -0.47412E-04  5088   0.192E-02    0.133E-02
RMM:   2    -0.231213391787E+04   -0.42627E-05   -0.51479E-05  2774   0.443E-03
 193 F= -.23329406E+04 E0= -.23329406E+04  d E =-.286970E-04  mag=     7.0000
       N       E                     dE             d eps       ncg     rms          rms(c)
DAV:   1    -0.231213385488E+04    0.58727E-04   -0.45293E-03  4456   0.635E-02    0.282E-02
RMM:   2    -0.231213389643E+04   -0.41545E-04   -0.45298E-04  4346   0.142E-02    0.169E-02
RMM:   3    -0.231213390074E+04   -0.43139E-05   -0.51523E-05  2887   0.712E-03
 194 F= -.23329407E+04 E0= -.23329407E+04  d E =-.323100E-04  mag=     7.0000
       N       E                     dE             d eps       ncg     rms          rms(c)
DAV:   1    -0.231213389196E+04    0.44652E-05   -0.51188E-05  4592   0.777E-03    0.897E-03
RMM:   2    -0.231213389303E+04   -0.10690E-05   -0.95865E-06  2453   0.300E-03
 195 F= -.23329407E+04 E0= -.23329407E+04  d E =-.297005E-04  mag=     7.0000
       N       E                     dE             d eps       ncg     rms          rms(c)
DAV:   1    -0.231213386369E+04    0.28271E-04   -0.20000E-03  4440   0.447E-02    0.192E-02
RMM:   2    -0.231213387968E+04   -0.15990E-04   -0.17291E-04  3629   0.960E-03    0.138E-02
RMM:   3    -0.231213388081E+04   -0.11290E-05   -0.20994E-05  2737   0.542E-03
 196 F= -.23329407E+04 E0= -.23329407E+04  d E =-.199291E-04  mag=     7.0000
       N       E                     dE             d eps       ncg     rms          rms(c)
DAV:   1    -0.231213387295E+04    0.67342E-05   -0.63861E-05  5136   0.843E-03    0.662E-03
RMM:   2    -0.231213387349E+04   -0.54692E-06   -0.70745E-06  2402   0.214E-03
 197 F= -.23329407E+04 E0= -.23329407E+04  d E =-.184789E-04  mag=     7.0000
       N       E                     dE             d eps       ncg     rms          rms(c)
DAV:   1    -0.231213385168E+04    0.21269E-04   -0.15104E-03  4448   0.386E-02    0.156E-02
RMM:   2    -0.231213386380E+04   -0.12122E-04   -0.13194E-04  3351   0.839E-03    0.988E-03
RMM:   3    -0.231213386485E+04   -0.10520E-05   -0.16248E-05  2556   0.487E-03
 198 F= -.23329407E+04 E0= -.23329407E+04  d E =-.122250E-04  mag=     7.0000
       N       E                     dE             d eps       ncg     rms          rms(c)
DAV:   1    -0.231213386275E+04    0.10468E-05   -0.67038E-06  3720   0.322E-03    0.453E-03
RMM:   2    -0.231213386297E+04   -0.22081E-06   -0.18657E-06  2227   0.179E-03
 199 F= -.23329407E+04 E0= -.23329407E+04  d E =-.115076E-04  mag=     7.0000
       N       E                     dE             d eps       ncg     rms          rms(c)
DAV:   1    -0.231213384716E+04    0.15588E-04   -0.12160E-03  4360   0.338E-02    0.130E-02
RMM:   2    -0.231213385824E+04   -0.11075E-04   -0.11861E-04  3082   0.706E-03    0.763E-03
RMM:   3    -0.231213385912E+04   -0.88356E-06   -0.13239E-05  2339   0.401E-03
 200 F= -.23329407E+04 E0= -.23329407E+04  d E =-.100615E-04  mag=     7.0000
       N       E                     dE             d eps       ncg     rms          rms(c)
DAV:   1    -0.231213385617E+04    0.20648E-05   -0.29292E-05  4104   0.560E-03    0.472E-03
RMM:   2    -0.231213385664E+04   -0.46432E-06   -0.44372E-06  2293   0.218E-03
 201 F= -.23329407E+04 E0= -.23329407E+04  d E =-.976123E-05  mag=     7.0000
