       N       E                     dE             d eps       ncg     rms          rms(c)
DAV:   1     0.127454472071E+05    0.12745E+05   -0.84846E+05  4640   0.143E+03
DAV:   2    -0.121932445279E+04   -0.13965E+05   -0.13389E+05  5120   0.325E+02
DAV:   3    -0.249614054114E+04   -0.12768E+04   -0.12660E+04  5440   0.107E+02
DAV:   4    -0.252710779722E+04   -0.30967E+02   -0.30784E+02  5680   0.212E+01
DAV:   5    -0.252810663696E+04   -0.99884E+00   -0.99695E+00  5760   0.313E+00    0.170E+02
RMM:   6    -0.149425116023E+04    0.10339E+04   -0.19333E+03  4509   0.379E+01    0.726E+01
RMM:   7    -0.166099766845E+04   -0.16675E+03   -0.28910E+02  5149   0.143E+01    0.510E+01
RMM:   8    -0.171829549501E+04   -0.57298E+02   -0.55865E+01  5372   0.744E+00    0.473E+01
RMM:   9    -0.177365163725E+04   -0.55356E+02   -0.63238E+01  4957   0.732E+00    0.357E+01
RMM:  10    -0.191855328222E+04   -0.14490E+03   -0.67850E+01  5214   0.805E+00    0.347E+01
RMM:  11    -0.196393645295E+04   -0.45383E+02   -0.25208E+01  5356   0.446E+00    0.228E+01
RMM:  12    -0.201631917004E+04   -0.52383E+02   -0.19012E+01  5328   0.337E+00    0.195E+01
RMM:  13    -0.208228662166E+04   -0.65967E+02   -0.24446E+01  5110   0.374E+00    0.139E+01
RMM:  14    -0.219509261475E+04   -0.11281E+03   -0.80456E+01  4562   0.639E+00    0.965E+00
RMM:  15    -0.228165832561E+04   -0.86566E+02   -0.77296E+01  4732   0.613E+00    0.688E+00
RMM:  16    -0.230918071047E+04   -0.27522E+02   -0.26654E+01  4660   0.402E+00    0.431E+00
RMM:  17    -0.231845378843E+04   -0.92731E+01   -0.10436E+01  4872   0.220E+00    0.501E+00
RMM:  18    -0.231881515344E+04   -0.36137E+00   -0.88699E-01  5406   0.947E-01    0.450E+00
RMM:  19    -0.231959128602E+04   -0.77613E+00   -0.35373E-01  4588   0.392E-01    0.352E+00
RMM:  20    -0.232115882544E+04   -0.15675E+01   -0.86729E-01  4547   0.562E-01    0.159E+00
RMM:  21    -0.232170357425E+04   -0.54475E+00   -0.27940E-01  4896   0.347E-01    0.107E+00
RMM:  22    -0.232180053289E+04   -0.96959E-01   -0.10334E-01  5084   0.200E-01    0.653E-01
RMM:  23    -0.232184629139E+04   -0.45758E-01   -0.22099E-02  4863   0.100E-01    0.825E-01
RMM:  24    -0.232185464561E+04   -0.83542E-02   -0.35267E-03  5353   0.407E-02    0.103E+00
RMM:  25    -0.232188374045E+04   -0.29095E-01   -0.12822E-02  4527   0.612E-02    0.567E-01
RMM:  26    -0.232191329535E+04   -0.29555E-01   -0.12622E-02  4527   0.686E-02    0.638E-01
RMM:  27    -0.232192166394E+04   -0.83686E-02   -0.77584E-03  4676   0.498E-02    0.822E-01
RMM:  28    -0.232192148588E+04    0.17806E-03   -0.20119E-03  4796   0.225E-02    0.955E-01
RMM:  29    -0.232193341240E+04   -0.11927E-01   -0.11696E-02  4685   0.495E-02    0.561E-01
RMM:  30    -0.232195014457E+04   -0.16732E-01   -0.70322E-03  4533   0.504E-02    0.692E-01
RMM:  31    -0.232197471224E+04   -0.24568E-01   -0.17730E-02  4919   0.643E-02    0.180E+00
RMM:  32    -0.232196596654E+04    0.87457E-02   -0.28299E-03  4642   0.329E-02    0.119E+00
RMM:  33    -0.232196696552E+04   -0.99898E-03   -0.83966E-04  4027   0.150E-02    0.106E+00
RMM:  34    -0.232196769063E+04   -0.72511E-03   -0.10253E-02  4610   0.448E-02    0.528E-01
RMM:  35    -0.232196901151E+04   -0.13209E-02   -0.47487E-03  4542   0.395E-02    0.606E-01
RMM:  36    -0.232196554977E+04    0.34617E-02   -0.45747E-03  4942   0.319E-02    0.850E-01
RMM:  37    -0.232195875775E+04    0.67920E-02   -0.33982E-03  4645   0.258E-02    0.118E+00
RMM:  38    -0.232195499977E+04    0.37580E-02   -0.10109E-03  4284   0.158E-02    0.133E+00
RMM:  39    -0.232195895113E+04   -0.39514E-02   -0.31812E-04  3381   0.813E-03    0.118E+00
RMM:  40    -0.232196996760E+04   -0.11016E-01   -0.66572E-03  4705   0.334E-02    0.663E-01
RMM:  41    -0.232197523275E+04   -0.52651E-02   -0.49912E-03  4569   0.324E-02    0.506E-01
RMM:  42    -0.232198020583E+04   -0.49731E-02   -0.48893E-03  5106   0.289E-02    0.685E-01
RMM:  43    -0.232198345224E+04   -0.32464E-02   -0.15301E-03  4478   0.176E-02    0.924E-01
RMM:  44    -0.232198545040E+04   -0.19982E-02   -0.50958E-04  3834   0.999E-03    0.108E+00
RMM:  45    -0.232198424673E+04    0.12037E-02   -0.67897E-05  2962   0.591E-03    0.100E+00
RMM:  46    -0.232197696324E+04    0.72835E-02   -0.57692E-03  4658   0.297E-02    0.528E-01
RMM:  47    -0.232197356776E+04    0.33955E-02   -0.36830E-03  4517   0.284E-02    0.568E-01
RMM:  48    -0.232197076650E+04    0.28013E-02   -0.21261E-03  4892   0.191E-02    0.706E-01
RMM:  49    -0.232196366714E+04    0.70994E-02   -0.38118E-03  4781   0.255E-02    0.107E+00
RMM:  50    -0.232195970834E+04    0.39588E-02   -0.11271E-03  4144   0.167E-02    0.124E+00
RMM:  51    -0.232196014158E+04   -0.43324E-03   -0.10612E-04  3052   0.497E-03    0.122E+00
RMM:  52    -0.232196263469E+04   -0.24931E-02   -0.21921E-04  3095   0.677E-03    0.111E+00
RMM:  53    -0.232196750336E+04   -0.48687E-02   -0.13534E-03  4186   0.153E-02    0.861E-01
RMM:  54    -0.232197230545E+04   -0.48021E-02   -0.24575E-03  4392   0.209E-02    0.603E-01
RMM:  55    -0.232197685005E+04   -0.45446E-02   -0.43546E-03  5007   0.275E-02    0.471E-01
RMM:  56    -0.232197952837E+04   -0.26783E-02   -0.20811E-03  4576   0.194E-02    0.564E-01
RMM:  57    -0.232197974116E+04   -0.21279E-03   -0.24345E-04  3199   0.770E-03    0.582E-01
RMM:  58    -0.232197913022E+04    0.61094E-03   -0.44053E-05  2879   0.409E-03    0.552E-01
RMM:  59    -0.232197860776E+04    0.52245E-03   -0.49992E-05  2813   0.342E-03    0.527E-01
RMM:  60    -0.232197782740E+04    0.78036E-03   -0.12630E-04  3047   0.476E-03    0.496E-01
RMM:  61    -0.232197520741E+04    0.26200E-02   -0.13814E-03  4315   0.148E-02    0.490E-01
RMM:  62    -0.232197312431E+04    0.20831E-02   -0.97054E-04  3977   0.139E-02    0.563E-01
RMM:  63    -0.232197211564E+04    0.10087E-02   -0.31305E-04  3428   0.799E-03    0.608E-01
RMM:  64    -0.232197104258E+04    0.10731E-02   -0.17147E-04  3237   0.657E-03    0.660E-01
RMM:  65    -0.232197089617E+04    0.14641E-03   -0.21061E-05  2930   0.387E-03    0.666E-01
RMM:  66    -0.232197046249E+04    0.43368E-03   -0.26473E-05  2824   0.288E-03    0.689E-01
RMM:  67    -0.232197061223E+04   -0.14974E-03   -0.26160E-06  2518   0.203E-03    0.680E-01
RMM:  68    -0.232197074003E+04   -0.12780E-03   -0.22719E-06  2180   0.102E-03    0.674E-01
RMM:  69    -0.232197067423E+04    0.65806E-04   -0.39758E-07  1908   0.818E-04    0.677E-01
RMM:  70    -0.232197087261E+04   -0.19838E-03   -0.30816E-06  1895   0.977E-04    0.667E-01
RMM:  71    -0.232197132496E+04   -0.45235E-03   -0.22313E-05  2702   0.211E-03    0.643E-01
RMM:  72    -0.232197234999E+04   -0.10250E-02   -0.12506E-04  2993   0.454E-03    0.591E-01
RMM:  73    -0.232197340059E+04   -0.10506E-02   -0.18123E-04  3159   0.543E-03    0.543E-01
RMM:  74    -0.232197381989E+04   -0.41930E-03   -0.55217E-05  2844   0.338E-03    0.527E-01
RMM:  75    -0.232197396659E+04   -0.14670E-03   -0.13417E-05  2682   0.213E-03    0.522E-01
RMM:  76    -0.232197395629E+04    0.10300E-04   -0.11462E-06  2301   0.135E-03    0.523E-01
RMM:  77    -0.232197394848E+04    0.78094E-05   -0.40255E-07  1934   0.860E-04
   1 F= -.23433642E+04 E0= -.23433608E+04  d E =-.675743E-02  mag=     4.1266
       N       E                     dE             d eps       ncg     rms          rms(c)
DAV:   1    -0.232192721971E+04    0.46737E-01   -0.21671E+00  4480   0.724E-01    0.673E-01
RMM:   2    -0.232193089315E+04   -0.36734E-02   -0.33293E-02  4718   0.864E-02    0.639E-01
RMM:   3    -0.232193225224E+04   -0.13591E-02   -0.73665E-03  5168   0.506E-02    0.840E-01
RMM:   4    -0.232193185212E+04    0.40011E-03   -0.10520E-03  4009   0.134E-02    0.834E-01
RMM:   5    -0.232192964682E+04    0.22053E-02   -0.48634E-03  4791   0.288E-02    0.678E-01
RMM:   6    -0.232192633316E+04    0.33137E-02   -0.66957E-03  5421   0.349E-02    0.594E-01
RMM:   7    -0.232191910596E+04    0.72272E-02   -0.75959E-03  5254   0.374E-02    0.855E-01
RMM:   8    -0.232191090029E+04    0.82057E-02   -0.48140E-03  4583   0.314E-02    0.119E+00
RMM:   9    -0.232192446534E+04   -0.13565E-01   -0.10778E-02  4775   0.427E-02    0.550E-01
RMM:  10    -0.232192657011E+04   -0.21048E-02   -0.29534E-03  4778   0.274E-02    0.459E-01
RMM:  11    -0.232192730702E+04   -0.73692E-03   -0.10834E-03  4626   0.149E-02    0.397E-01
RMM:  12    -0.232192877757E+04   -0.14705E-02   -0.95393E-04  4105   0.144E-02    0.426E-01
RMM:  13    -0.232192943382E+04   -0.65625E-03   -0.27367E-04  3517   0.931E-03    0.463E-01
RMM:  14    -0.232192779668E+04    0.16371E-02   -0.67892E-04  3733   0.114E-02    0.410E-01
RMM:  15    -0.232192496932E+04    0.28274E-02   -0.25838E-03  4451   0.213E-02    0.504E-01
RMM:  16    -0.232192404395E+04    0.92537E-03   -0.48736E-04  3586   0.115E-02    0.556E-01
RMM:  17    -0.232192472924E+04   -0.68529E-03   -0.52521E-05  2971   0.405E-03    0.518E-01
RMM:  18    -0.232192727219E+04   -0.25429E-02   -0.14797E-03  4280   0.157E-02    0.414E-01
RMM:  19    -0.232193095725E+04   -0.36851E-02   -0.36622E-03  4723   0.259E-02    0.556E-01
RMM:  20    -0.232193835760E+04   -0.74003E-02   -0.52056E-03  4979   0.299E-02    0.114E+00
RMM:  21    -0.232193732822E+04    0.10294E-02   -0.38506E-04  3335   0.133E-02    0.109E+00
RMM:  22    -0.232193743402E+04   -0.10580E-03   -0.82586E-05  2996   0.391E-03    0.111E+00
RMM:  23    -0.232193742196E+04    0.12063E-04   -0.40454E-06  2670   0.211E-03    0.111E+00
RMM:  24    -0.232193737153E+04    0.50422E-04   -0.12275E-06  2264   0.128E-03    0.110E+00
RMM:  25    -0.232193618511E+04    0.11864E-02   -0.67809E-05  2894   0.352E-03    0.102E+00
RMM:  26    -0.232193292422E+04    0.32609E-02   -0.81816E-04  4002   0.113E-02    0.763E-01
RMM:  27    -0.232192891288E+04    0.40113E-02   -0.29112E-03  4562   0.222E-02    0.478E-01
RMM:  28    -0.232192659012E+04    0.23228E-02   -0.23302E-03  4549   0.212E-02    0.456E-01
RMM:  29    -0.232192313639E+04    0.34537E-02   -0.30952E-03  4774   0.227E-02    0.626E-01
RMM:  30    -0.232191946231E+04    0.36741E-02   -0.18047E-03  4367   0.196E-02    0.838E-01
RMM:  31    -0.232191732998E+04    0.21323E-02   -0.66497E-04  4009   0.118E-02    0.952E-01
RMM:  32    -0.232191741312E+04   -0.83145E-04   -0.50865E-05  3003   0.491E-03    0.947E-01
RMM:  33    -0.232192057571E+04   -0.31626E-02   -0.63667E-04  3670   0.103E-02    0.771E-01
RMM:  34    -0.232192473621E+04   -0.41605E-02   -0.23458E-03  4544   0.204E-02    0.522E-01
RMM:  35    -0.232192888286E+04   -0.41467E-02   -0.51172E-03  4849   0.298E-02    0.433E-01
RMM:  36    -0.232193177600E+04   -0.28931E-02   -0.27346E-03  4589   0.226E-02    0.614E-01
RMM:  37    -0.232193422385E+04   -0.24479E-02   -0.11873E-03  4331   0.147E-02    0.821E-01
RMM:  38    -0.232193759030E+04   -0.33664E-02   -0.91071E-04  4157   0.133E-02    0.109E+00
RMM:  39    -0.232194117236E+04   -0.35821E-02   -0.63296E-04  3900   0.119E-02    0.135E+00
RMM:  40    -0.232194488793E+04   -0.37156E-02   -0.52583E-04  3779   0.107E-02    0.158E+00
RMM:  41    -0.232194617548E+04   -0.12875E-02   -0.11518E-04  3055   0.680E-03    0.166E+00
RMM:  42    -0.232194615243E+04    0.23049E-04   -0.20020E-05  2922   0.356E-03    0.167E+00
RMM:  43    -0.232194570388E+04    0.44855E-03   -0.46317E-06  2720   0.210E-03    0.165E+00
RMM:  44    -0.232194470384E+04    0.10000E-02   -0.20162E-05  2566   0.220E-03    0.160E+00
RMM:  45    -0.232194491249E+04   -0.20865E-03   -0.53736E-06  2416   0.159E-03    0.160E+00
RMM:  46    -0.232194707380E+04   -0.21613E-02   -0.86828E-05  2931   0.366E-03    0.171E+00
RMM:  47    -0.232194427078E+04    0.28030E-02   -0.12406E-04  2956   0.506E-03    0.158E+00
RMM:  48    -0.232194721293E+04   -0.29421E-02   -0.12821E-04  2941   0.536E-03    0.172E+00
RMM:  49    -0.232194776598E+04   -0.55305E-03   -0.23604E-05  2727   0.308E-03    0.175E+00
RMM:  50    -0.232194596004E+04    0.18059E-02   -0.37302E-05  2594   0.268E-03    0.167E+00
RMM:  51    -0.232194306378E+04    0.28963E-02   -0.18701E-04  3160   0.552E-03    0.151E+00
RMM:  52    -0.232193878918E+04    0.42746E-02   -0.55313E-04  3915   0.935E-03    0.123E+00
RMM:  53    -0.232193544793E+04    0.33412E-02   -0.64248E-04  3706   0.110E-02    0.963E-01
RMM:  54    -0.232193135391E+04    0.40940E-02   -0.17094E-03  4628   0.166E-02    0.616E-01
RMM:  55    -0.232192941879E+04    0.19351E-02   -0.10517E-03  4069   0.151E-02    0.466E-01
RMM:  56    -0.232192764596E+04    0.17728E-02   -0.12146E-03  4465   0.147E-02    0.411E-01
RMM:  57    -0.232192719653E+04    0.44943E-03   -0.19538E-04  3204   0.824E-03    0.410E-01
RMM:  58    -0.232192639852E+04    0.79801E-03   -0.24818E-04  3455   0.692E-03    0.427E-01
RMM:  59    -0.232192566489E+04    0.73363E-03   -0.17281E-04  3142   0.682E-03    0.451E-01
RMM:  60    -0.232192554816E+04    0.11673E-03   -0.31263E-05  2953   0.382E-03    0.456E-01
RMM:  61    -0.232192559951E+04   -0.51341E-04   -0.37723E-06  2731   0.206E-03    0.455E-01
RMM:  62    -0.232192520878E+04    0.39073E-03   -0.34177E-05  2880   0.281E-03    0.473E-01
RMM:  63    -0.232192443832E+04    0.77046E-03   -0.11802E-04  3124   0.472E-03    0.515E-01
RMM:  64    -0.232192306260E+04    0.13757E-02   -0.31670E-04  3375   0.750E-03    0.595E-01
RMM:  65    -0.232192145377E+04    0.16088E-02   -0.35586E-04  3512   0.850E-03    0.689E-01
RMM:  66    -0.232192020025E+04    0.12535E-02   -0.21417E-04  3203   0.716E-03    0.761E-01
RMM:  67    -0.232191935237E+04    0.84788E-03   -0.10794E-04  3066   0.581E-03    0.810E-01
RMM:  68    -0.232191934391E+04    0.84650E-05   -0.10885E-05  2830   0.332E-03
   2 F= -.23433091E+04 E0= -.23433083E+04  d E =-.169393E-02  mag=     4.3038
       N       E                     dE             d eps       ncg     rms          rms(c)
DAV:   1    -0.232196455123E+04   -0.45199E-01   -0.84490E+00  4480   0.145E+00    0.125E+00
RMM:   2    -0.232197374791E+04   -0.91967E-02   -0.12090E-01  4836   0.167E-01    0.108E+00
RMM:   3    -0.232198321586E+04   -0.94680E-02   -0.35395E-02  5590   0.106E-01    0.189E+00
RMM:   4    -0.232198032886E+04    0.28870E-02   -0.53458E-03  4864   0.294E-02    0.195E+00
RMM:   5    -0.232197425974E+04    0.60691E-02   -0.19647E-02  5337   0.545E-02    0.132E+00
RMM:   6    -0.232196083856E+04    0.13421E-01   -0.19486E-02  6020   0.581E-02    0.692E-01
RMM:   7    -0.232195787441E+04    0.29641E-02   -0.54711E-03  4868   0.322E-02    0.715E-01
RMM:   8    -0.232195415777E+04    0.37166E-02   -0.31176E-03  4514   0.273E-02    0.856E-01
RMM:   9    -0.232195123634E+04    0.29214E-02   -0.18868E-03  4842   0.203E-02    0.106E+00
RMM:  10    -0.232195193198E+04   -0.69564E-03   -0.12137E-04  3093   0.614E-03    0.103E+00
RMM:  11    -0.232195509793E+04   -0.31660E-02   -0.17329E-03  4276   0.190E-02    0.770E-01
RMM:  12    -0.232195973173E+04   -0.46338E-02   -0.51757E-03  4623   0.316E-02    0.502E-01
RMM:  13    -0.232196199047E+04   -0.22587E-02   -0.19403E-03  4360   0.209E-02    0.518E-01
RMM:  14    -0.232196348580E+04   -0.14953E-02   -0.69405E-04  4104   0.111E-02    0.577E-01
RMM:  15    -0.232196496186E+04   -0.14761E-02   -0.45095E-04  3638   0.984E-03    0.664E-01
RMM:  16    -0.232195984802E+04    0.51138E-02   -0.49659E-03  4550   0.288E-02    0.559E-01
RMM:  17    -0.232195526443E+04    0.45836E-02   -0.42489E-03  4697   0.292E-02    0.779E-01
RMM:  18    -0.232193918715E+04    0.16077E-01   -0.13037E-02  5130   0.473E-02    0.150E+00
RMM:  19    -0.232195018331E+04   -0.10996E-01   -0.23825E-03  4556   0.232E-02    0.107E+00
RMM:  20    -0.232195780944E+04   -0.76261E-02   -0.40873E-03  4694   0.270E-02    0.724E-01
RMM:  21    -0.232196349976E+04   -0.56903E-02   -0.49466E-03  4771   0.302E-02    0.605E-01
RMM:  22    -0.232196721631E+04   -0.37166E-02   -0.28695E-03  4697   0.225E-02    0.743E-01
RMM:  23    -0.232197115397E+04   -0.39377E-02   -0.18112E-03  4605   0.181E-02    0.999E-01
RMM:  24    -0.232197261091E+04   -0.14569E-02   -0.40009E-04  3413   0.102E-02    0.111E+00
RMM:  25    -0.232197281486E+04   -0.20395E-03   -0.57307E-05  3008   0.462E-03    0.113E+00
RMM:  26    -0.232197017264E+04    0.26422E-02   -0.32316E-04  3263   0.753E-03    0.952E-01
RMM:  27    -0.232196708014E+04    0.30925E-02   -0.86117E-04  4046   0.122E-02    0.749E-01
RMM:  28    -0.232196238993E+04    0.46902E-02   -0.32324E-03  4713   0.231E-02    0.599E-01
RMM:  29    -0.232196014686E+04    0.22431E-02   -0.13271E-03  4160   0.168E-02    0.639E-01
RMM:  30    -0.232195941465E+04    0.73221E-03   -0.33031E-04  3370   0.759E-03    0.662E-01
RMM:  31    -0.232196103469E+04   -0.16200E-02   -0.25625E-04  3195   0.765E-03    0.615E-01
RMM:  32    -0.232196349997E+04   -0.24653E-02   -0.95060E-04  4109   0.128E-02    0.599E-01
RMM:  33    -0.232196724166E+04   -0.37417E-02   -0.20501E-03  4357   0.186E-02    0.737E-01
RMM:  34    -0.232196831617E+04   -0.10745E-02   -0.37223E-04  3380   0.971E-03    0.805E-01
RMM:  35    -0.232196817219E+04    0.14398E-03   -0.43601E-05  2918   0.375E-03    0.801E-01
RMM:  36    -0.232196796155E+04    0.21064E-03   -0.81953E-06  2589   0.228E-03    0.793E-01
RMM:  37    -0.232196766414E+04    0.29741E-03   -0.24039E-05  2732   0.255E-03    0.785E-01
RMM:  38    -0.232196461220E+04    0.30519E-02   -0.12320E-03  4268   0.138E-02    0.662E-01
RMM:  39    -0.232196181496E+04    0.27972E-02   -0.15096E-03  4208   0.170E-02    0.650E-01
RMM:  40    -0.232195949113E+04    0.23238E-02   -0.12081E-03  4425   0.147E-02    0.720E-01
RMM:  41    -0.232195683898E+04    0.26521E-02   -0.10169E-03  4180   0.140E-02    0.837E-01
RMM:  42    -0.232195578069E+04    0.10583E-02   -0.25001E-04  3255   0.798E-03    0.887E-01
RMM:  43    -0.232195590764E+04   -0.12694E-03   -0.20281E-05  2897   0.355E-03    0.881E-01
RMM:  44    -0.232195590977E+04   -0.21334E-05   -0.26516E-06  2561   0.180E-03
   3 F= -.23433467E+04 E0= -.23433449E+04  d E =-.350225E-02  mag=     4.3139
       N       E                     dE             d eps       ncg     rms          rms(c)
DAV:   1    -0.232196510389E+04   -0.91963E-02   -0.38774E+00  4480   0.974E-01    0.106E+00
RMM:   2    -0.232197509393E+04   -0.99900E-02   -0.51026E-02  4813   0.108E-01    0.843E-01
RMM:   3    -0.232198178333E+04   -0.66894E-02   -0.21054E-02  5967   0.703E-02    0.133E+00
RMM:   4    -0.232197551455E+04    0.62688E-02   -0.10617E-02  5087   0.447E-02    0.125E+00
RMM:   5    -0.232197731815E+04   -0.18036E-02   -0.39243E-03  4817   0.286E-02    0.116E+00
RMM:   6    -0.232196833006E+04    0.89881E-02   -0.12356E-02  5052   0.470E-02    0.607E-01
RMM:   7    -0.232196325245E+04    0.50776E-02   -0.10660E-02  5125   0.433E-02    0.920E-01
RMM:   8    -0.232195004162E+04    0.13211E-01   -0.89835E-03  4836   0.431E-02    0.145E+00
RMM:   9    -0.232194973655E+04    0.30507E-03   -0.71261E-04  4029   0.161E-02    0.145E+00
RMM:  10    -0.232195303628E+04   -0.32997E-02   -0.25424E-04  3430   0.750E-03    0.136E+00
RMM:  11    -0.232196847882E+04   -0.15443E-01   -0.81434E-03  4659   0.394E-02    0.937E-01
RMM:  12    -0.232197737259E+04   -0.88938E-02   -0.10418E-02  4842   0.485E-02    0.109E+00
RMM:  13    -0.232198056431E+04   -0.31917E-02   -0.31077E-03  4625   0.263E-02    0.135E+00
RMM:  14    -0.232197343474E+04    0.71296E-02   -0.53919E-03  4527   0.304E-02    0.899E-01
RMM:  15    -0.232196841346E+04    0.50213E-02   -0.36905E-03  4559   0.278E-02    0.922E-01
RMM:  16    -0.232195957846E+04    0.88350E-02   -0.54440E-03  5089   0.315E-02    0.126E+00
RMM:  17    -0.232195973126E+04   -0.15280E-03   -0.26178E-04  3347   0.100E-02    0.125E+00
RMM:  18    -0.232196122894E+04   -0.14977E-02   -0.74892E-05  3055   0.457E-03    0.120E+00
RMM:  19    -0.232196149090E+04   -0.26196E-03   -0.21222E-05  2931   0.315E-03    0.118E+00
RMM:  20    -0.232196106441E+04    0.42649E-03   -0.83132E-05  3158   0.503E-03    0.118E+00
RMM:  21    -0.232196154506E+04   -0.48065E-03   -0.53615E-04  4059   0.119E-02    0.110E+00
RMM:  22    -0.232196229174E+04   -0.74668E-03   -0.12642E-03  4352   0.184E-02    0.982E-01
RMM:  23    -0.232196269041E+04   -0.39867E-03   -0.10208E-03  4332   0.165E-02    0.886E-01
RMM:  24    -0.232196442339E+04   -0.17330E-02   -0.10378E-03  4532   0.163E-02    0.749E-01
RMM:  25    -0.232196692359E+04   -0.25002E-02   -0.11939E-03  4489   0.166E-02    0.584E-01
RMM:  26    -0.232196843174E+04   -0.15081E-02   -0.68541E-04  4058   0.127E-02    0.487E-01
RMM:  27    -0.232196992133E+04   -0.14896E-02   -0.75489E-04  4133   0.131E-02    0.401E-01
RMM:  28    -0.232197111459E+04   -0.11933E-02   -0.60482E-04  3899   0.118E-02    0.355E-01
RMM:  29    -0.232197184608E+04   -0.73149E-03   -0.29031E-04  3511   0.872E-03    0.343E-01
RMM:  30    -0.232197142603E+04    0.42004E-03   -0.44016E-05  2964   0.498E-03    0.349E-01
RMM:  31    -0.232197190767E+04   -0.48163E-03   -0.64244E-05  2931   0.384E-03    0.342E-01
RMM:  32    -0.232197235225E+04   -0.44458E-03   -0.84534E-05  3051   0.457E-03    0.341E-01
RMM:  33    -0.232197193699E+04    0.41526E-03   -0.41354E-05  2747   0.359E-03    0.343E-01
RMM:  34    -0.232197121816E+04    0.71882E-03   -0.20104E-04  3203   0.604E-03    0.358E-01
RMM:  35    -0.232197442097E+04   -0.32028E-02   -0.27182E-03  4561   0.208E-02    0.414E-01
RMM:  36    -0.232197306327E+04    0.13577E-02   -0.40951E-04  3590   0.104E-02    0.368E-01
RMM:  37    -0.232197018916E+04    0.28741E-02   -0.31221E-03  4780   0.228E-02    0.424E-01
RMM:  38    -0.232196821987E+04    0.19693E-02   -0.13607E-03  4180   0.177E-02    0.535E-01
RMM:  39    -0.232197146810E+04   -0.32482E-02   -0.18596E-03  4278   0.176E-02    0.377E-01
RMM:  40    -0.232197322788E+04   -0.17598E-02   -0.13200E-03  4165   0.161E-02    0.399E-01
RMM:  41    -0.232197728232E+04   -0.40544E-02   -0.35097E-03  4985   0.242E-02    0.676E-01
RMM:  42    -0.232197872957E+04   -0.14472E-02   -0.56419E-04  3651   0.128E-02    0.803E-01
RMM:  43    -0.232197837699E+04    0.35258E-03   -0.66416E-05  2991   0.487E-03    0.786E-01
RMM:  44    -0.232198128273E+04   -0.29057E-02   -0.52639E-04  3924   0.945E-03    0.101E+00
RMM:  45    -0.232198089539E+04    0.38734E-03   -0.41079E-05  2878   0.535E-03    0.992E-01
RMM:  46    -0.232198084086E+04    0.54529E-04   -0.77674E-06  2661   0.174E-03    0.991E-01
RMM:  47    -0.232198093824E+04   -0.97377E-04   -0.18479E-06  2461   0.142E-03    0.999E-01
RMM:  48    -0.232197999064E+04    0.94760E-03   -0.49672E-05  2767   0.307E-03    0.932E-01
RMM:  49    -0.232197875261E+04    0.12380E-02   -0.12757E-04  3098   0.458E-03    0.833E-01
RMM:  50    -0.232197786862E+04    0.88400E-03   -0.11032E-04  2994   0.465E-03    0.761E-01
RMM:  51    -0.232197568664E+04    0.21820E-02   -0.67475E-04  4099   0.104E-02    0.594E-01
RMM:  52    -0.232197607672E+04   -0.39007E-03   -0.57458E-05  2947   0.634E-03    0.626E-01
RMM:  53    -0.232197425869E+04    0.18180E-02   -0.61309E-04  3938   0.999E-03    0.501E-01
RMM:  54    -0.232197261516E+04    0.16435E-02   -0.91326E-04  4087   0.135E-02    0.439E-01
RMM:  55    -0.232197116742E+04    0.14477E-02   -0.92668E-04  4154   0.133E-02    0.444E-01
RMM:  56    -0.232197027633E+04    0.89108E-03   -0.39297E-04  3509   0.979E-03    0.476E-01
RMM:  57    -0.232196923948E+04    0.10369E-02   -0.36793E-04  3780   0.897E-03    0.529E-01
RMM:  58    -0.232196985847E+04   -0.61899E-03   -0.57801E-05  2970   0.529E-03    0.496E-01
RMM:  59    -0.232197073200E+04   -0.87353E-03   -0.21893E-04  3108   0.627E-03    0.456E-01
RMM:  60    -0.232197123516E+04   -0.50316E-03   -0.11066E-04  2979   0.485E-03    0.441E-01
RMM:  61    -0.232197228640E+04   -0.10512E-02   -0.41152E-04  3512   0.842E-03    0.431E-01
RMM:  62    -0.232197501174E+04   -0.27253E-02   -0.20802E-03  4612   0.183E-02    0.552E-01
RMM:  63    -0.232197841796E+04   -0.34062E-02   -0.19117E-03  4332   0.188E-02    0.826E-01
RMM:  64    -0.232198373215E+04   -0.53142E-02   -0.19963E-03  4735   0.183E-02    0.124E+00
RMM:  65    -0.232199602244E+04   -0.12290E-01   -0.36590E-03  4872   0.248E-02    0.190E+00
RMM:  66    -0.232201003102E+04   -0.14009E-01   -0.29122E-03  4679   0.235E-02    0.233E+00
RMM:  67    -0.232201545145E+04   -0.54204E-02   -0.83860E-04  3987   0.136E-02    0.243E+00
RMM:  68    -0.232201828939E+04   -0.28379E-02   -0.21494E-04  3219   0.689E-03    0.248E+00
RMM:  69    -0.232201838699E+04   -0.97607E-04   -0.15404E-05  2956   0.384E-03    0.248E+00
RMM:  70    -0.232201856334E+04   -0.17635E-03   -0.51120E-06  2782   0.208E-03    0.248E+00
RMM:  71    -0.232201968460E+04   -0.11213E-02   -0.97619E-06  2753   0.216E-03    0.250E+00
RMM:  72    -0.232202410848E+04   -0.44239E-02   -0.16362E-04  3182   0.554E-03    0.252E+00
RMM:  73    -0.232202307847E+04    0.10300E-02   -0.11014E-05  2706   0.330E-03    0.252E+00
RMM:  74    -0.232202256479E+04    0.51368E-03   -0.34721E-06  2276   0.122E-03    0.252E+00
RMM:  75    -0.232202280035E+04   -0.23556E-03   -0.52932E-07  1888   0.868E-04    0.252E+00
RMM:  76    -0.232202273931E+04    0.61035E-04   -0.56178E-07  1810   0.740E-04    0.252E+00
RMM:  77    -0.232202197121E+04    0.76811E-03   -0.12871E-05  2585   0.173E-03    0.252E+00
RMM:  78    -0.232202199650E+04   -0.25291E-04   -0.83349E-07  2110   0.995E-04    0.251E+00
RMM:  79    -0.232202115547E+04    0.84103E-03   -0.70566E-06  2188   0.124E-03    0.251E+00
RMM:  80    -0.232202084721E+04    0.30826E-03   -0.39866E-06  2328   0.122E-03    0.251E+00
RMM:  81    -0.232202254735E+04   -0.17001E-02   -0.16553E-05  2360   0.179E-03    0.252E+00
RMM:  82    -0.232201582335E+04    0.67240E-02   -0.28357E-04  3268   0.660E-03    0.247E+00
RMM:  83    -0.232202795845E+04   -0.12135E-01   -0.10285E-03  3980   0.128E-02    0.251E+00
RMM:  84    -0.232202973092E+04   -0.17725E-02   -0.12530E-04  3005   0.644E-03    0.252E+00
RMM:  85    -0.232202721627E+04    0.25146E-02   -0.29432E-05  2752   0.368E-03    0.252E+00
RMM:  86    -0.232202832745E+04   -0.11112E-02   -0.74913E-06  2377   0.159E-03    0.252E+00
RMM:  87    -0.232205504423E+04   -0.26717E-01   -0.56281E-03  4854   0.292E-02    0.228E+00
RMM:  88    -0.232203351159E+04    0.21533E-01   -0.28177E-03  4947   0.209E-02    0.251E+00
RMM:  89    -0.232202918904E+04    0.43225E-02   -0.31365E-04  3446   0.918E-03    0.251E+00
RMM:  90    -0.232203285059E+04   -0.36615E-02   -0.56239E-05  2919   0.448E-03    0.250E+00
RMM:  91    -0.232203236248E+04    0.48811E-03   -0.30198E-06  2557   0.181E-03    0.250E+00
RMM:  92    -0.232204832574E+04   -0.15963E-01   -0.18389E-03  4413   0.169E-02    0.237E+00
RMM:  93    -0.232204634995E+04    0.19758E-02   -0.63044E-05  2921   0.585E-03    0.240E+00
RMM:  94    -0.232204725866E+04   -0.90871E-03   -0.20456E-05  2717   0.198E-03    0.239E+00
RMM:  95    -0.232204620061E+04    0.10581E-02   -0.80097E-06  2409   0.165E-03    0.240E+00
RMM:  96    -0.232204586054E+04    0.34007E-03   -0.20944E-06  1928   0.102E-03    0.241E+00
RMM:  97    -0.232206734922E+04   -0.21489E-01   -0.37852E-03  4802   0.240E-02    0.208E+00
RMM:  98    -0.232206972168E+04   -0.23725E-02   -0.38578E-04  3451   0.114E-02    0.204E+00
RMM:  99    -0.232206972001E+04    0.16742E-05   -0.60287E-05  2945   0.337E-03
   4 F= -.23434601E+04 E0= -.23434595E+04  d E =-.109974E-02  mag=     2.7799
       N       E                     dE             d eps       ncg     rms          rms(c)
DAV:   1    -0.232208695780E+04   -0.17236E-01   -0.74295E+00  4480   0.135E+00    0.217E+00
RMM:   2    -0.232214079667E+04   -0.53839E-01   -0.16587E-01  4725   0.181E-01    0.148E+00
RMM:   3    -0.232220820544E+04   -0.67409E-01   -0.10390E-01  6123   0.128E-01    0.269E+00
RMM:   4    -0.232215027978E+04    0.57926E-01   -0.43208E-02  5965   0.869E-02    0.119E+00
RMM:   5    -0.232214250718E+04    0.77726E-02   -0.16795E-02  5796   0.560E-02    0.604E-01
RMM:   6    -0.232214619459E+04   -0.36874E-02   -0.86293E-03  4778   0.439E-02    0.495E-01
RMM:   7    -0.232214889638E+04   -0.27018E-02   -0.58379E-03  5118   0.366E-02    0.470E-01
RMM:   8    -0.232214770056E+04    0.11958E-02   -0.35891E-03  5506   0.294E-02    0.268E-01
RMM:   9    -0.232215032145E+04   -0.26209E-02   -0.21851E-03  4529   0.249E-02    0.101E-01
RMM:  10    -0.232215332419E+04   -0.30027E-02   -0.76911E-04  4139   0.187E-02    0.628E-02
RMM:  11    -0.232215589281E+04   -0.25686E-02   -0.50946E-04  4023   0.146E-02    0.395E-02
RMM:  12    -0.232215772732E+04   -0.18345E-02   -0.39557E-04  3993   0.137E-02    0.234E-02
RMM:  13    -0.232215853354E+04   -0.80622E-03   -0.15714E-04  3865   0.963E-03    0.144E-02
RMM:  14    -0.232215891503E+04   -0.38149E-03   -0.69097E-05  3638   0.626E-03    0.798E-03
RMM:  15    -0.232215904860E+04   -0.13357E-03   -0.19567E-05  3087   0.463E-03    0.401E-03
RMM:  16    -0.232215909727E+04   -0.48669E-04   -0.95599E-06  2913   0.323E-03    0.209E-03
RMM:  17    -0.232215911001E+04   -0.12744E-04   -0.43160E-06  2735   0.269E-03    0.102E-03
RMM:  18    -0.232215911267E+04   -0.26550E-05   -0.23071E-06  2526   0.185E-03
   5 F= -.23435492E+04 E0= -.23435492E+04  d E =-.130785E-11  mag=     1.9999
       N       E                     dE             d eps       ncg     rms          rms(c)
DAV:   1    -0.232213749074E+04    0.21619E-01   -0.40696E+00  4480   0.982E-01    0.452E-01
RMM:   2    -0.232213816768E+04   -0.67693E-03   -0.24596E-02  4538   0.679E-02    0.396E-01
RMM:   3    -0.232213848961E+04   -0.32194E-03   -0.51372E-03  5244   0.371E-02    0.474E-01
RMM:   4    -0.232213678936E+04    0.17003E-02   -0.25244E-03  4841   0.217E-02    0.265E-01
RMM:   5    -0.232213679835E+04   -0.89905E-05   -0.17407E-03  4722   0.182E-02    0.220E-01
RMM:   6    -0.232213610554E+04    0.69280E-03   -0.55878E-04  4139   0.125E-02    0.510E-02
RMM:   7    -0.232213609143E+04    0.14116E-04   -0.11273E-04  3017   0.565E-03    0.460E-02
RMM:   8    -0.232213606593E+04    0.25501E-04   -0.35598E-05  2996   0.401E-03    0.120E-02
RMM:   9    -0.232213606952E+04   -0.35949E-05   -0.13724E-05  2904   0.298E-03
   6 F= -.23435263E+04 E0= -.23435263E+04  d E =-.930050E-11  mag=     2.0000
       N       E                     dE             d eps       ncg     rms          rms(c)
DAV:   1    -0.232215935444E+04   -0.23289E-01   -0.78397E+00  4480   0.139E+00    0.618E-01
RMM:   2    -0.232216116874E+04   -0.18143E-02   -0.46709E-02  4369   0.948E-02    0.444E-01
RMM:   3    -0.232216332314E+04   -0.21544E-02   -0.77884E-03  5378   0.501E-02    0.666E-01
RMM:   4    -0.232216005293E+04    0.32702E-02   -0.52751E-03  5265   0.307E-02    0.352E-01
RMM:   5    -0.232216017716E+04   -0.12422E-03   -0.27356E-03  4891   0.228E-02    0.318E-01
RMM:   6    -0.232215884923E+04    0.13279E-02   -0.88142E-04  4468   0.150E-02    0.620E-02
RMM:   7    -0.232215882583E+04    0.23397E-04   -0.16850E-04  3242   0.661E-03    0.533E-02
RMM:   8    -0.232215878556E+04    0.40278E-04   -0.52914E-05  2909   0.460E-03    0.154E-02
RMM:   9    -0.232215877794E+04    0.76125E-05   -0.27586E-05  3077   0.315E-03
   7 F= -.23435490E+04 E0= -.23435490E+04  d E =-.102461E-10  mag=     2.0000
       N       E                     dE             d eps       ncg     rms          rms(c)
DAV:   1    -0.232215534901E+04    0.34365E-02   -0.67662E+00  4480   0.133E+00    0.526E-01
RMM:   2    -0.232215803580E+04   -0.26868E-02   -0.63811E-02  4127   0.116E-01    0.334E-01
RMM:   3    -0.232215893878E+04   -0.90297E-03   -0.88323E-03  5095   0.565E-02    0.522E-01
RMM:   4    -0.232215638385E+04    0.25549E-02   -0.45039E-03  5122   0.296E-02    0.268E-01
RMM:   5    -0.232215584891E+04    0.53495E-03   -0.12799E-03  4495   0.164E-02    0.161E-01
RMM:   6    -0.232215551801E+04    0.33090E-03   -0.31405E-04  3640   0.955E-03    0.634E-02
RMM:   7    -0.232215551766E+04    0.35630E-06   -0.11637E-04  3123   0.598E-03    0.557E-02
RMM:   8    -0.232215549261E+04    0.25050E-04   -0.54704E-05  2984   0.468E-03    0.195E-02
RMM:   9    -0.232215549852E+04   -0.59188E-05   -0.15758E-05  2952   0.334E-03
   8 F= -.23435465E+04 E0= -.23435465E+04  d E =-.169015E-11  mag=     2.0000
       N       E                     dE             d eps       ncg     rms          rms(c)
DAV:   1    -0.232210645490E+04    0.49038E-01   -0.20413E+01  4480   0.225E+00    0.989E-01
RMM:   2    -0.232211374213E+04   -0.72872E-02   -0.23593E-01  4402   0.206E-01    0.570E-01
RMM:   3    -0.232211794052E+04   -0.41984E-02   -0.27186E-02  5653   0.984E-02    0.887E-01
RMM:   4    -0.232210674899E+04    0.11192E-01   -0.12836E-02  5938   0.546E-02    0.294E-01
RMM:   5    -0.232210730962E+04   -0.56062E-03   -0.45072E-03  4977   0.270E-02    0.386E-01
RMM:   6    -0.232210601601E+04    0.12936E-02   -0.14209E-03  4501   0.182E-02    0.163E-01
RMM:   7    -0.232210577938E+04    0.23663E-03   -0.54576E-04  3609   0.105E-02    0.978E-02
RMM:   8    -0.232210565607E+04    0.12331E-03   -0.12667E-04  3478   0.702E-03    0.316E-02
RMM:   9    -0.232210564582E+04    0.10253E-04   -0.49160E-05  3093   0.521E-03    0.116E-02
RMM:  10    -0.232210564466E+04    0.11589E-05   -0.17669E-05  2975   0.403E-03
   9 F= -.23434951E+04 E0= -.23434951E+04  d E =-.302635E-11  mag=     2.0000
       N       E                     dE             d eps       ncg     rms          rms(c)
DAV:   1    -0.232216596431E+04   -0.60318E-01   -0.99287E+00  4480   0.160E+00    0.598E-01
RMM:   2    -0.232216950669E+04   -0.35424E-02   -0.91847E-02  4115   0.127E-01    0.327E-01
RMM:   3    -0.232217032102E+04   -0.81433E-03   -0.86401E-03  5281   0.541E-02    0.507E-01
RMM:   4    -0.232216792622E+04    0.23948E-02   -0.44486E-03  5368   0.300E-02    0.292E-01
RMM:   5    -0.232216761545E+04    0.31078E-03   -0.17422E-03  4360   0.176E-02    0.215E-01
RMM:   6    -0.232216709863E+04    0.51682E-03   -0.55631E-04  4148   0.121E-02    0.611E-02
RMM:   7    -0.232216710658E+04   -0.79477E-05   -0.15951E-04  3128   0.630E-03    0.685E-02
RMM:   8    -0.232216705392E+04    0.52662E-04   -0.53056E-05  3003   0.469E-03    0.185E-02
RMM:   9    -0.232216705517E+04   -0.12546E-05   -0.14012E-05  2876   0.293E-03
  10 F= -.23435573E+04 E0= -.23435573E+04  d E =-.338280E-11  mag=     2.0000
       N       E                     dE             d eps       ncg     rms          rms(c)
DAV:   1    -0.232215454040E+04    0.12514E-01   -0.19691E+01  4640   0.218E+00    0.671E-01
RMM:   2    -0.232215734808E+04   -0.28077E-02   -0.88672E-02  4134   0.139E-01    0.388E-01
RMM:   3    -0.232216141087E+04   -0.40628E-02   -0.11603E-02  5462   0.613E-02    0.739E-01
RMM:   4    -0.232215562292E+04    0.57880E-02   -0.65999E-03  5325   0.354E-02    0.285E-01
RMM:   5    -0.232215526910E+04    0.35382E-03   -0.17479E-03  4682   0.184E-02    0.223E-01
RMM:   6    -0.232215472523E+04    0.54387E-03   -0.43116E-04  3689   0.106E-02    0.499E-02
RMM:   7    -0.232215472079E+04    0.44412E-05   -0.72331E-05  3077   0.508E-03
  11 F= -.23435450E+04 E0= -.23435450E+04  d E =-.162387E-10  mag=     2.0000
       N       E                     dE             d eps       ncg     rms          rms(c)
DAV:   1    -0.232214344532E+04    0.11280E-01   -0.10261E+01  4480   0.149E+00    0.375E-01
RMM:   2    -0.232214683667E+04   -0.33913E-02   -0.49304E-02  4055   0.946E-02    0.244E-01
RMM:   3    -0.232214673669E+04    0.99980E-04   -0.36899E-03  5271   0.322E-02    0.312E-01
RMM:   4    -0.232214597214E+04    0.76455E-03   -0.21211E-03  4757   0.203E-02    0.203E-01
RMM:   5    -0.232214588471E+04    0.87426E-04   -0.84610E-04  4207   0.131E-02    0.183E-01
RMM:   6    -0.232214550515E+04    0.37956E-03   -0.28094E-04  3422   0.885E-03    0.483E-02
RMM:   7    -0.232214549981E+04    0.53417E-05   -0.83699E-05  2859   0.477E-03
  12 F= -.23435359E+04 E0= -.23435359E+04  d E =-.659569E-11  mag=     2.0000
       N       E                     dE             d eps       ncg     rms          rms(c)
DAV:   1    -0.232216951947E+04   -0.24014E-01   -0.20536E+01  4480   0.217E+00    0.518E-01
RMM:   2    -0.232217540875E+04   -0.58893E-02   -0.91080E-02  4041   0.130E-01    0.293E-01
RMM:   3    -0.232217490828E+04    0.50047E-03   -0.60916E-03  5096   0.452E-02    0.360E-01
RMM:   4    -0.232217413144E+04    0.77685E-03   -0.31397E-03  5222   0.247E-02    0.253E-01
RMM:   5    -0.232217380192E+04    0.32952E-03   -0.93926E-04  4109   0.141E-02    0.170E-01
RMM:   6    -0.232217347876E+04    0.32316E-03   -0.26606E-04  3158   0.899E-03    0.483E-02
RMM:   7    -0.232217346690E+04    0.11866E-04   -0.47729E-05  2960   0.409E-03    0.285E-02
RMM:   8    -0.232217346203E+04    0.48638E-05   -0.25316E-05  2662   0.310E-03
  13 F= -.23435636E+04 E0= -.23435636E+04  d E =-.119025E-11  mag=     2.0000
       N       E                     dE             d eps       ncg     rms          rms(c)
DAV:   1    -0.232215872701E+04    0.14740E-01   -0.54451E+00  4480   0.110E+00    0.345E-01
RMM:   2    -0.232216033523E+04   -0.16082E-02   -0.26221E-02  3859   0.716E-02    0.194E-01
RMM:   3    -0.232215987164E+04    0.46359E-03   -0.15021E-03  4281   0.235E-02    0.118E-01
RMM:   4    -0.232216002396E+04   -0.15231E-03   -0.82894E-04  4060   0.127E-02    0.157E-01
RMM:   5    -0.232215980369E+04    0.22026E-03   -0.22453E-04  3233   0.774E-03    0.873E-02
RMM:   6    -0.232215971900E+04    0.84692E-04   -0.68725E-05  2739   0.459E-03    0.157E-02
RMM:   7    -0.232215971717E+04    0.18304E-05   -0.11524E-05  2565   0.237E-03
  14 F= -.23435493E+04 E0= -.23435493E+04  d E =-.154825E-10  mag=     2.0000
       N       E                     dE             d eps       ncg     rms          rms(c)
DAV:   1    -0.232215731966E+04    0.23993E-02   -0.12364E+00  4960   0.376E-01    0.420E-01
RMM:   2    -0.232215601848E+04    0.13012E-02   -0.10174E-02  4539   0.362E-02    0.268E-01
RMM:   3    -0.232215695139E+04   -0.93292E-03   -0.35242E-03  5223   0.296E-02    0.371E-01
RMM:   4    -0.232215564219E+04    0.13092E-02   -0.20167E-03  5017   0.200E-02    0.199E-01
RMM:   5    -0.232215566146E+04   -0.19270E-04   -0.82042E-04  3983   0.123E-02    0.192E-01
RMM:   6    -0.232215526969E+04    0.39178E-03   -0.28580E-04  3123   0.837E-03    0.505E-02
RMM:   7    -0.232215525982E+04    0.98675E-05   -0.86236E-05  2856   0.458E-03
  15 F= -.23435462E+04 E0= -.23435462E+04  d E =-.108591E-10  mag=     2.0000
       N       E                     dE             d eps       ncg     rms          rms(c)
DAV:   1    -0.232216486828E+04   -0.95986E-02   -0.60909E-01  4880   0.261E-01    0.330E-01
RMM:   2    -0.232216373239E+04    0.11359E-02   -0.44222E-03  4055   0.236E-02    0.186E-01
RMM:   3    -0.232216390217E+04   -0.16978E-03   -0.14858E-03  4473   0.180E-02    0.199E-01
RMM:   4    -0.232216349810E+04    0.40407E-03   -0.90742E-04  4361   0.136E-02    0.120E-01
RMM:   5    -0.232216346823E+04    0.29870E-04   -0.29244E-04  3155   0.764E-03    0.115E-01
RMM:   6    -0.232216333659E+04    0.13164E-03   -0.10441E-04  2705   0.520E-03    0.328E-02
RMM:   7    -0.232216332956E+04    0.70375E-05   -0.27933E-05  2520   0.280E-03
  16 F= -.23435533E+04 E0= -.23435533E+04  d E =-.481677E-11  mag=     2.0000
       N       E                     dE             d eps       ncg     rms          rms(c)
DAV:   1    -0.232215753206E+04    0.58045E-02   -0.11887E+00  4560   0.367E-01    0.418E-01
RMM:   2    -0.232215629685E+04    0.12352E-02   -0.50468E-03  3914   0.270E-02    0.237E-01
RMM:   3    -0.232215664810E+04   -0.35125E-03   -0.21804E-03  4750   0.213E-02    0.279E-01
RMM:   4    -0.232215612429E+04    0.52381E-03   -0.13259E-03  4263   0.153E-02    0.173E-01
RMM:   5    -0.232215595137E+04    0.17292E-03   -0.37015E-04  3500   0.892E-03    0.109E-01
RMM:   6    -0.232215580909E+04    0.14228E-03   -0.10110E-04  2893   0.593E-03    0.268E-02
RMM:   7    -0.232215580358E+04    0.55046E-05   -0.22159E-05  2700   0.305E-03
  17 F= -.23435463E+04 E0= -.23435463E+04  d E =-.159009E-11  mag=     2.0000
       N       E                     dE             d eps       ncg     rms          rms(c)
DAV:   1    -0.232215817609E+04   -0.23670E-02   -0.63583E-01  4960   0.269E-01    0.375E-01
RMM:   2    -0.232215655060E+04    0.16255E-02   -0.70366E-03  4086   0.285E-02    0.202E-01
RMM:   3    -0.232215627612E+04    0.27447E-03   -0.12213E-03  4124   0.190E-02    0.150E-01
RMM:   4    -0.232215650738E+04   -0.23125E-03   -0.97146E-04  4171   0.130E-02    0.209E-01
RMM:   5    -0.232215615721E+04    0.35017E-03   -0.35873E-04  3324   0.876E-03    0.101E-01
RMM:   6    -0.232215601693E+04    0.14028E-03   -0.11560E-04  3050   0.625E-03    0.202E-02
RMM:   7    -0.232215601970E+04   -0.27738E-05   -0.27018E-05  2702   0.303E-03
  18 F= -.23435460E+04 E0= -.23435460E+04  d E =-.620571E-11  mag=     2.0000
       N       E                     dE             d eps       ncg     rms          rms(c)
DAV:   1    -0.232215698976E+04   -0.97284E-03   -0.12403E+00  4960   0.368E-01    0.535E-01
RMM:   2    -0.232215331838E+04    0.36714E-02   -0.13992E-02  4291   0.405E-02    0.277E-01
RMM:   3    -0.232215244008E+04    0.87830E-03   -0.20138E-03  4185   0.250E-02    0.123E-01
RMM:   4    -0.232215259238E+04   -0.15230E-03   -0.98461E-04  4136   0.142E-02    0.152E-01
RMM:   5    -0.232215243786E+04    0.15452E-03   -0.37894E-04  3250   0.106E-02    0.104E-01
RMM:   6    -0.232215233135E+04    0.10652E-03   -0.88629E-05  2937   0.527E-03    0.391E-02
RMM:   7    -0.232215231541E+04    0.15937E-04   -0.32001E-05  2652   0.366E-03    0.195E-02
RMM:   8    -0.232215231292E+04    0.24892E-05   -0.10129E-05  2708   0.231E-03
  19 F= -.23435429E+04 E0= -.23435429E+04  d E =-.138829E-11  mag=     2.0000
       N       E                     dE             d eps       ncg     rms          rms(c)
DAV:   1    -0.232216290881E+04   -0.10593E-01   -0.56836E-01  4560   0.326E-01    0.279E-01
RMM:   2    -0.232216208252E+04    0.82629E-03   -0.45603E-03  4219   0.274E-02    0.161E-01
RMM:   3    -0.232216248558E+04   -0.40306E-03   -0.12612E-03  3969   0.171E-02    0.266E-01
RMM:   4    -0.232216196383E+04    0.52176E-03   -0.86093E-04  3990   0.120E-02    0.138E-01
RMM:   5    -0.232216185636E+04    0.10746E-03   -0.30906E-04  3420   0.831E-03    0.919E-02
RMM:   6    -0.232216176151E+04    0.94851E-04   -0.11134E-04  2851   0.573E-03    0.300E-02
RMM:   7    -0.232216175178E+04    0.97354E-05   -0.14656E-05  2626   0.282E-03
  20 F= -.23435522E+04 E0= -.23435522E+04  d E =-.138655E-10  mag=     2.0000
       N       E                     dE             d eps       ncg     rms          rms(c)
DAV:   1    -0.232216114397E+04    0.61754E-03   -0.10325E+00  4480   0.452E-01    0.215E-01
RMM:   2    -0.232216107775E+04    0.66221E-04   -0.34012E-03  3942   0.263E-02    0.165E-01
RMM:   3    -0.232216154900E+04   -0.47125E-03   -0.12213E-03  3792   0.166E-02    0.276E-01
RMM:   4    -0.232216097820E+04    0.57080E-03   -0.77009E-04  4100   0.118E-02    0.131E-01
RMM:   5    -0.232216081687E+04    0.16133E-03   -0.33084E-04  3237   0.872E-03    0.632E-02
RMM:   6    -0.232216076799E+04    0.48882E-04   -0.69351E-05  3129   0.523E-03    0.210E-02
RMM:   7    -0.232216076757E+04    0.42115E-06   -0.13935E-05  2723   0.258E-03
  21 F= -.23435508E+04 E0= -.23435508E+04  d E =-.106171E-10  mag=     2.0000
       N       E                     dE             d eps       ncg     rms          rms(c)
DAV:   1    -0.232217952643E+04   -0.18758E-01   -0.52422E-01  4480   0.335E-01    0.135E-01
RMM:   2    -0.232218021281E+04   -0.68638E-03   -0.23979E-03  4013   0.222E-02    0.254E-01
RMM:   3    -0.232217953773E+04    0.67508E-03   -0.55322E-04  3410   0.126E-02    0.908E-02
RMM:   4    -0.232217969356E+04   -0.15584E-03   -0.36084E-04  3567   0.856E-03    0.133E-01
RMM:   5    -0.232217948766E+04    0.20590E-03   -0.15501E-04  3284   0.670E-03    0.221E-02
RMM:   6    -0.232217948941E+04   -0.17471E-05   -0.27731E-05  2700   0.298E-03
  22 F= -.23435693E+04 E0= -.23435693E+04  d E =-.134477E-10  mag=     2.0000
       N       E                     dE             d eps       ncg     rms          rms(c)
DAV:   1    -0.232213998468E+04    0.39503E-01   -0.10562E+00  4480   0.476E-01    0.270E-01
RMM:   2    -0.232214186630E+04   -0.18816E-02   -0.73762E-03  4852   0.384E-02    0.470E-01
RMM:   3    -0.232213952156E+04    0.23447E-02   -0.21259E-03  4412   0.229E-02    0.196E-01
RMM:   4    -0.232213970114E+04   -0.17957E-03   -0.11373E-03  4377   0.146E-02    0.235E-01
RMM:   5    -0.232213918339E+04    0.51774E-03   -0.67268E-04  4213   0.117E-02    0.894E-02
RMM:   6    -0.232213908164E+04    0.10175E-03   -0.10432E-04  3288   0.582E-03    0.213E-02
RMM:   7    -0.232213908153E+04    0.11025E-06   -0.22303E-05  2812   0.352E-03
  23 F= -.23435298E+04 E0= -.23435298E+04  d E =-.124250E-10  mag=     2.0000
       N       E                     dE             d eps       ncg     rms          rms(c)
DAV:   1    -0.232219519160E+04   -0.56110E-01   -0.53130E-01  4560   0.329E-01    0.170E-01
RMM:   2    -0.232219640930E+04   -0.12177E-02   -0.37597E-03  4607   0.275E-02    0.354E-01
RMM:   3    -0.232219498518E+04    0.14241E-02   -0.10098E-03  3878   0.165E-02    0.110E-01
RMM:   4    -0.232219514830E+04   -0.16311E-03   -0.54179E-04  3862   0.103E-02    0.161E-01
RMM:   5    -0.232219489450E+04    0.25379E-03   -0.26848E-04  3609   0.818E-03    0.547E-02
RMM:   6    -0.232219487567E+04    0.18831E-04   -0.76163E-05  3004   0.463E-03    0.326E-02
RMM:   7    -0.232219486409E+04    0.11585E-04   -0.21463E-05  2588   0.308E-03    0.104E-02
RMM:   8    -0.232219486280E+04    0.12848E-05   -0.58237E-06  2342   0.171E-03
  24 F= -.23435849E+04 E0= -.23435849E+04  d E =-.125508E-10  mag=     2.0000
       N       E                     dE             d eps       ncg     rms          rms(c)
DAV:   1    -0.232212765339E+04    0.67211E-01   -0.10283E+00  4480   0.484E-01    0.256E-01
RMM:   2    -0.232212857366E+04   -0.92028E-03   -0.61945E-03  4943   0.333E-02    0.336E-01
RMM:   3    -0.232212723736E+04    0.13363E-02   -0.19453E-03  4425   0.215E-02    0.157E-01
RMM:   4    -0.232212789111E+04   -0.65375E-03   -0.12503E-03  4370   0.130E-02    0.282E-01
RMM:   5    -0.232212700282E+04    0.88829E-03   -0.52617E-04  3505   0.104E-02    0.703E-02
RMM:   6    -0.232212698388E+04    0.18943E-04   -0.17373E-04  2918   0.587E-03    0.590E-02
RMM:   7    -0.232212695081E+04    0.33072E-04   -0.33931E-05  2801   0.373E-03    0.116E-02
RMM:   8    -0.232212695023E+04    0.57978E-06   -0.88799E-06  2730   0.218E-03
  25 F= -.23435174E+04 E0= -.23435174E+04  d E =-.120900E-10  mag=     2.0000
