       N       E                     dE             d eps       ncg     rms          rms(c)
DAV:   1     0.131485501572E+05    0.13149E+05   -0.84549E+05  4544   0.144E+03
DAV:   2    -0.101495084156E+04   -0.14164E+05   -0.13532E+05  4936   0.331E+02
DAV:   3    -0.248536955038E+04   -0.14704E+04   -0.14522E+04  5528   0.115E+02
DAV:   4    -0.253041764071E+04   -0.45048E+02   -0.44787E+02  6744   0.289E+01
DAV:   5    -0.253134829469E+04   -0.93065E+00   -0.92843E+00  6184   0.351E+00    0.170E+02
RMM:   6    -0.149579711446E+04    0.10356E+04   -0.19643E+03  4484   0.383E+01    0.724E+01
RMM:   7    -0.166515179889E+04   -0.16935E+03   -0.29064E+02  5183   0.144E+01    0.497E+01
RMM:   8    -0.171992808089E+04   -0.54776E+02   -0.55018E+01  5367   0.741E+00    0.431E+01
RMM:   9    -0.179608845145E+04   -0.76160E+02   -0.58360E+01  5166   0.710E+00    0.353E+01
RMM:  10    -0.192486100840E+04   -0.12877E+03   -0.62347E+01  5383   0.763E+00    0.256E+01
RMM:  11    -0.198980137198E+04   -0.64940E+02   -0.24467E+01  5470   0.428E+00    0.246E+01
RMM:  12    -0.205405096651E+04   -0.64250E+02   -0.23220E+01  5099   0.386E+00    0.162E+01
RMM:  13    -0.212065099149E+04   -0.66600E+02   -0.27641E+01  5064   0.402E+00    0.139E+01
RMM:  14    -0.221635964878E+04   -0.95709E+02   -0.66497E+01  4646   0.601E+00    0.109E+01
RMM:  15    -0.229141367373E+04   -0.75054E+02   -0.65941E+01  4768   0.571E+00    0.733E+00
RMM:  16    -0.231789185407E+04   -0.26478E+02   -0.27035E+01  4630   0.396E+00    0.434E+00
RMM:  17    -0.232403686995E+04   -0.61450E+01   -0.74593E+00  5154   0.200E+00    0.183E+00
RMM:  18    -0.232567897441E+04   -0.16421E+01   -0.14150E+00  5239   0.928E-01    0.105E+00
RMM:  19    -0.232606749715E+04   -0.38852E+00   -0.27653E-01  4819   0.465E-01    0.516E-01
RMM:  20    -0.232620911131E+04   -0.14161E+00   -0.92285E-02  4832   0.247E-01    0.274E-01
RMM:  21    -0.232624785945E+04   -0.38748E-01   -0.24066E-02  4848   0.138E-01    0.227E-01
RMM:  22    -0.232627203461E+04   -0.24175E-01   -0.10866E-02  4499   0.816E-02    0.165E-01
RMM:  23    -0.232628401978E+04   -0.11985E-01   -0.56756E-03  4678   0.653E-02    0.154E-01
RMM:  24    -0.232628932444E+04   -0.53047E-02   -0.16346E-03  4951   0.370E-02    0.139E-01
RMM:  25    -0.232629521794E+04   -0.58935E-02   -0.17046E-03  4496   0.297E-02    0.153E-01
RMM:  26    -0.232629543422E+04   -0.21628E-03   -0.13672E-04  3891   0.145E-02    0.147E-01
RMM:  27    -0.232630054289E+04   -0.51087E-02   -0.15144E-03  4367   0.237E-02    0.230E-01
RMM:  28    -0.232630252715E+04   -0.19843E-02   -0.72360E-04  4039   0.175E-02    0.330E-01
RMM:  29    -0.232630166359E+04    0.86355E-03   -0.10221E-03  4101   0.168E-02    0.120E-01
RMM:  30    -0.232630293927E+04   -0.12757E-02   -0.55613E-04  3964   0.135E-02    0.996E-02
RMM:  31    -0.232630361267E+04   -0.67340E-03   -0.70344E-04  4211   0.138E-02    0.848E-02
RMM:  32    -0.232630363923E+04   -0.26564E-04   -0.19170E-04  3427   0.853E-03    0.932E-02
RMM:  33    -0.232630367387E+04   -0.34641E-04   -0.18241E-05  2930   0.402E-03    0.943E-02
RMM:  34    -0.232630415680E+04   -0.48293E-03   -0.35987E-04  3805   0.921E-03    0.912E-02
RMM:  35    -0.232630457908E+04   -0.42228E-03   -0.76333E-04  4077   0.133E-02    0.122E-01
RMM:  36    -0.232630424457E+04    0.33451E-03   -0.26627E-03  4605   0.226E-02    0.809E-02
RMM:  37    -0.232630253065E+04    0.17139E-02   -0.69120E-03  4899   0.387E-02    0.352E-01
RMM:  38    -0.232630307323E+04   -0.54258E-03   -0.26114E-04  3563   0.129E-02    0.293E-01
RMM:  39    -0.232630370842E+04   -0.63519E-03   -0.20455E-04  3583   0.766E-03    0.230E-01
RMM:  40    -0.232630501149E+04   -0.13031E-02   -0.22680E-03  4521   0.218E-02    0.990E-02
RMM:  41    -0.232630543005E+04   -0.41856E-03   -0.10983E-03  4073   0.173E-02    0.790E-02
RMM:  42    -0.232630586378E+04   -0.43373E-03   -0.10917E-03  4770   0.150E-02    0.106E-01
RMM:  43    -0.232630637366E+04   -0.50988E-03   -0.77697E-04  4122   0.139E-02    0.166E-01
RMM:  44    -0.232630666065E+04   -0.28699E-03   -0.26046E-04  3572   0.861E-03    0.192E-01
RMM:  45    -0.232630664002E+04    0.20632E-04   -0.20813E-05  2925   0.417E-03    0.183E-01
RMM:  46    -0.232630666051E+04   -0.20495E-04   -0.47283E-06  2756   0.200E-03    0.187E-01
RMM:  47    -0.232630661646E+04    0.44048E-04   -0.23707E-06  2566   0.186E-03    0.180E-01
RMM:  48    -0.232630658616E+04    0.30303E-04   -0.14328E-06  2080   0.986E-04    0.177E-01
RMM:  49    -0.232630625545E+04    0.33071E-03   -0.16868E-04  3103   0.572E-03    0.127E-01
RMM:  50    -0.232630591569E+04    0.33976E-03   -0.34960E-04  3819   0.834E-03    0.910E-02
RMM:  51    -0.232630565344E+04    0.26225E-03   -0.39728E-04  3613   0.916E-03    0.763E-02
RMM:  52    -0.232630536263E+04    0.29081E-03   -0.66255E-04  4273   0.118E-02    0.804E-02
RMM:  53    -0.232630495095E+04    0.41168E-03   -0.94953E-04  4309   0.147E-02    0.128E-01
RMM:  54    -0.232630430524E+04    0.64571E-03   -0.10364E-03  4559   0.154E-02    0.216E-01
RMM:  55    -0.232630380627E+04    0.49897E-03   -0.39392E-04  3763   0.101E-02    0.276E-01
RMM:  56    -0.232630381687E+04   -0.10608E-04   -0.26539E-05  2943   0.417E-03    0.275E-01
RMM:  57    -0.232630374611E+04    0.70763E-04   -0.95207E-06  2813   0.250E-03    0.284E-01
RMM:  58    -0.232630379909E+04   -0.52985E-04   -0.27990E-06  2605   0.203E-03    0.277E-01
RMM:  59    -0.232630380969E+04   -0.10599E-04   -0.57728E-07  2129   0.875E-04    0.275E-01
RMM:  60    -0.232630381243E+04   -0.27349E-05   -0.19545E-07  1894   0.769E-04
   1 F= -.23477243E+04 E0= -.23477210E+04  d E =-.234772E+04  mag=     5.0426
       N       E                     dE             d eps       ncg     rms          rms(c)
DAV:   1    -0.232629807841E+04    0.57313E-02   -0.56257E+00  4784   0.195E+00    0.809E-01
RMM:   2    -0.232641730047E+04   -0.11922E+00   -0.12109E+00  6363   0.482E-01    0.630E-01
RMM:   3    -0.232643201777E+04   -0.14717E-01   -0.16048E-01  5659   0.262E-01    0.845E-01
RMM:   4    -0.232642977009E+04    0.22477E-02   -0.12515E-02  5444   0.389E-02    0.636E-01
RMM:   5    -0.232642894532E+04    0.82478E-03   -0.43352E-03  5116   0.305E-02    0.688E-01
RMM:   6    -0.232642825878E+04    0.68654E-03   -0.10244E-03  4541   0.202E-02    0.704E-01
RMM:   7    -0.232642765707E+04    0.60171E-03   -0.49479E-03  4808   0.303E-02    0.437E-01
RMM:   8    -0.232642708469E+04    0.57237E-03   -0.54058E-03  5512   0.341E-02    0.511E-01
RMM:   9    -0.232642498765E+04    0.20970E-02   -0.22985E-03  5125   0.232E-02    0.397E-01
RMM:  10    -0.232642209336E+04    0.28943E-02   -0.36996E-03  4934   0.280E-02    0.615E-01
RMM:  11    -0.232642534370E+04   -0.32503E-02   -0.29161E-03  4881   0.253E-02    0.394E-01
RMM:  12    -0.232642646083E+04   -0.11171E-02   -0.18170E-03  4608   0.220E-02    0.301E-01
RMM:  13    -0.232642776827E+04   -0.13074E-02   -0.23900E-03  4816   0.229E-02    0.317E-01
RMM:  14    -0.232642744386E+04    0.32441E-03   -0.10559E-04  3089   0.891E-03    0.280E-01
RMM:  15    -0.232642696848E+04    0.47538E-03   -0.29296E-04  3608   0.825E-03    0.287E-01
RMM:  16    -0.232642351813E+04    0.34503E-02   -0.82019E-03  4872   0.408E-02    0.509E-01
RMM:  17    -0.232642060199E+04    0.29161E-02   -0.29187E-03  4610   0.287E-02    0.720E-01
RMM:  18    -0.232642558158E+04   -0.49796E-02   -0.43850E-03  4663   0.293E-02    0.417E-01
RMM:  19    -0.232642698718E+04   -0.14056E-02   -0.19801E-03  4533   0.224E-02    0.339E-01
RMM:  20    -0.232642857638E+04   -0.15892E-02   -0.22829E-03  5168   0.217E-02    0.350E-01
RMM:  21    -0.232643151293E+04   -0.29365E-02   -0.37650E-03  4957   0.283E-02    0.529E-01
RMM:  22    -0.232642996703E+04    0.15459E-02   -0.54012E-04  3904   0.138E-02    0.363E-01
RMM:  23    -0.232642910203E+04    0.86500E-03   -0.45152E-04  3715   0.966E-03    0.347E-01
RMM:  24    -0.232642777485E+04    0.13272E-02   -0.12588E-03  4566   0.161E-02    0.308E-01
RMM:  25    -0.232642564106E+04    0.21338E-02   -0.30653E-03  4962   0.256E-02    0.377E-01
RMM:  26    -0.232642453015E+04    0.11109E-02   -0.90200E-04  4388   0.154E-02    0.450E-01
RMM:  27    -0.232642462196E+04   -0.91809E-04   -0.68635E-05  2998   0.476E-03    0.447E-01
RMM:  28    -0.232642496409E+04   -0.34214E-03   -0.40199E-05  2818   0.390E-03    0.423E-01
RMM:  29    -0.232642610218E+04   -0.11381E-02   -0.62379E-04  4117   0.111E-02    0.360E-01
RMM:  30    -0.232642884742E+04   -0.27452E-02   -0.45530E-03  4895   0.305E-02    0.359E-01
RMM:  31    -0.232643140973E+04   -0.25623E-02   -0.38665E-03  4968   0.297E-02    0.494E-01
RMM:  32    -0.232643661357E+04   -0.52038E-02   -0.54637E-03  5100   0.329E-02    0.811E-01
RMM:  33    -0.232643614453E+04    0.46904E-03   -0.36554E-04  3452   0.141E-02    0.720E-01
RMM:  34    -0.232643576185E+04    0.38268E-03   -0.60641E-05  2974   0.388E-03    0.715E-01
RMM:  35    -0.232643599843E+04   -0.23657E-03   -0.10768E-05  2754   0.234E-03    0.734E-01
RMM:  36    -0.232643658241E+04   -0.58398E-03   -0.41015E-05  2956   0.323E-03    0.766E-01
RMM:  37    -0.232643843751E+04   -0.18551E-02   -0.29799E-04  3705   0.769E-03    0.871E-01
RMM:  38    -0.232643745142E+04    0.98609E-03   -0.62678E-05  2906   0.529E-03    0.795E-01
RMM:  39    -0.232643759086E+04   -0.13944E-03   -0.33330E-06  2543   0.215E-03    0.821E-01
RMM:  40    -0.232643861258E+04   -0.10217E-02   -0.68634E-05  2849   0.352E-03    0.879E-01
RMM:  41    -0.232643818633E+04    0.42624E-03   -0.12869E-05  2623   0.252E-03    0.846E-01
RMM:  42    -0.232643827479E+04   -0.88452E-04   -0.78910E-07  2109   0.114E-03    0.859E-01
RMM:  43    -0.232643826612E+04    0.86663E-05   -0.43388E-07  1499   0.740E-04
   2 F= -.23478581E+04 E0= -.23478434E+04  d E =-.133782E+00  mag=     4.3013
       N       E                     dE             d eps       ncg     rms          rms(c)
DAV:   1    -0.232643404398E+04    0.42308E-02   -0.19139E+00  4640   0.114E+00    0.122E+00
RMM:   2    -0.232650105638E+04   -0.67012E-01   -0.45623E-01  6250   0.297E-01    0.171E+00
RMM:   3    -0.232650430235E+04   -0.32460E-02   -0.57584E-02  5530   0.154E-01    0.168E+00
RMM:   4    -0.232650473733E+04   -0.43498E-03   -0.53647E-03  4357   0.208E-02    0.169E+00
RMM:   5    -0.232650271610E+04    0.20212E-02   -0.12196E-02  5684   0.493E-02    0.166E+00
RMM:   6    -0.232650004465E+04    0.26714E-02   -0.15101E-03  4251   0.182E-02    0.167E+00
RMM:   7    -0.232654745898E+04   -0.47414E-01   -0.56348E-02  5218   0.115E-01    0.170E+00
RMM:   8    -0.232654209248E+04    0.53665E-02   -0.32225E-02  5794   0.910E-02    0.157E+00
RMM:   9    -0.232652328334E+04    0.18809E-01   -0.10589E-02  5531   0.529E-02    0.115E+00
RMM:  10    -0.232652297712E+04    0.30622E-03   -0.31225E-03  5370   0.328E-02    0.104E+00
RMM:  11    -0.232652025446E+04    0.27227E-02   -0.45314E-03  5335   0.316E-02    0.849E-01
RMM:  12    -0.232652324826E+04   -0.29938E-02   -0.10476E-02  5341   0.520E-02    0.496E-01
RMM:  13    -0.232652613052E+04   -0.28823E-02   -0.10407E-02  5565   0.512E-02    0.289E-01
RMM:  14    -0.232653305122E+04   -0.69207E-02   -0.62105E-03  5206   0.450E-02    0.320E-01
RMM:  15    -0.232653373365E+04   -0.68243E-03   -0.59395E-04  4409   0.200E-02    0.308E-01
RMM:  16    -0.232653471575E+04   -0.98210E-03   -0.61325E-04  4382   0.148E-02    0.291E-01
RMM:  17    -0.232653489469E+04   -0.17894E-03   -0.16766E-04  3578   0.951E-03    0.249E-01
RMM:  18    -0.232653557800E+04   -0.68331E-03   -0.63648E-04  4414   0.132E-02    0.170E-01
RMM:  19    -0.232653584940E+04   -0.27140E-03   -0.74633E-04  4816   0.162E-02    0.909E-02
RMM:  20    -0.232653592045E+04   -0.71047E-04   -0.23894E-04  4182   0.982E-03    0.454E-02
RMM:  21    -0.232653596940E+04   -0.48952E-04   -0.13499E-04  3534   0.720E-03    0.175E-02
RMM:  22    -0.232653600437E+04   -0.34978E-04   -0.69817E-05  3105   0.631E-03    0.281E-02
RMM:  23    -0.232653601992E+04   -0.15549E-04   -0.23029E-05  2966   0.455E-03    0.349E-02
RMM:  24    -0.232653600961E+04    0.10319E-04   -0.10592E-05  2881   0.310E-03    0.211E-02
RMM:  25    -0.232653600674E+04    0.28612E-05   -0.66373E-06  2709   0.198E-03
   3 F= -.23479555E+04 E0= -.23479468E+04  d E =-.231248E+00  mag=     3.0022
       N       E                     dE             d eps       ncg     rms          rms(c)
DAV:   1    -0.232633693536E+04    0.19907E+00   -0.77187E+00  4576   0.229E+00    0.895E-01
RMM:   2    -0.232651271393E+04   -0.17578E+00   -0.17472E+00  6239   0.586E-01    0.106E+00
RMM:   3    -0.232652707841E+04   -0.14364E-01   -0.23813E-01  5533   0.362E-01    0.829E-01
RMM:   4    -0.232652030400E+04    0.67744E-02   -0.18550E-02  6075   0.571E-02    0.359E-01
RMM:   5    -0.232652042227E+04   -0.11828E-03   -0.46985E-03  5988   0.296E-02    0.417E-01
RMM:   6    -0.232651835286E+04    0.20694E-02   -0.38966E-03  6052   0.293E-02    0.157E-01
RMM:   7    -0.232651846545E+04   -0.11259E-03   -0.86195E-04  4790   0.155E-02    0.154E-01
RMM:   8    -0.232651815588E+04    0.30957E-03   -0.29764E-04  3606   0.928E-03    0.484E-02
RMM:   9    -0.232651813607E+04    0.19812E-04   -0.54433E-05  3019   0.573E-03    0.205E-02
RMM:  10    -0.232651813585E+04    0.21479E-06   -0.20377E-05  2944   0.436E-03
   4 F= -.23479372E+04 E0= -.23479328E+04  d E =-.212953E+00  mag=     3.0005
       N       E                     dE             d eps       ncg     rms          rms(c)
DAV:   1    -0.232646759582E+04    0.50540E-01   -0.32904E+00  4576   0.151E+00    0.665E-01
RMM:   2    -0.232655389504E+04   -0.86299E-01   -0.80011E-01  6565   0.402E-01    0.101E+00
RMM:   3    -0.232654872853E+04    0.51665E-02   -0.96554E-02  6282   0.161E-01    0.481E-01
RMM:   4    -0.232654700011E+04    0.17284E-02   -0.96384E-03  5818   0.372E-02    0.285E-01
RMM:   5    -0.232654670639E+04    0.29372E-03   -0.22256E-03  5465   0.209E-02    0.254E-01
RMM:   6    -0.232654595740E+04    0.74899E-03   -0.12546E-03  5196   0.180E-02    0.104E-01
RMM:   7    -0.232654593245E+04    0.24953E-04   -0.40754E-04  4124   0.115E-02    0.839E-02
RMM:   8    -0.232654589453E+04    0.37914E-04   -0.17537E-04  3234   0.769E-03    0.646E-02
RMM:   9    -0.232654584360E+04    0.50929E-04   -0.70234E-05  3192   0.676E-03    0.191E-02
RMM:  10    -0.232654584581E+04   -0.22053E-05   -0.15383E-05  2943   0.465E-03
   5 F= -.23479652E+04 E0= -.23479582E+04  d E =-.240925E+00  mag=     3.0001
       N       E                     dE             d eps       ncg     rms          rms(c)
DAV:   1    -0.232647933376E+04    0.66510E-01   -0.63573E+00  4544   0.246E+00    0.100E+00
RMM:   2    -0.232658757315E+04   -0.10824E+00   -0.11053E+00  6294   0.568E-01    0.934E-01
RMM:   3    -0.232659160368E+04   -0.40305E-02   -0.13657E-01  6183   0.245E-01    0.809E-01
RMM:   4    -0.232658370043E+04    0.79032E-02   -0.12764E-02  6141   0.602E-02    0.275E-01
RMM:   5    -0.232658458873E+04   -0.88830E-03   -0.49851E-03  5792   0.365E-02    0.414E-01
RMM:   6    -0.232658240802E+04    0.21807E-02   -0.29009E-03  5754   0.287E-02    0.112E-01
RMM:   7    -0.232658239023E+04    0.17788E-04   -0.67797E-04  4899   0.162E-02    0.103E-01
RMM:   8    -0.232658224796E+04    0.14227E-03   -0.23398E-04  3676   0.871E-03    0.336E-02
RMM:   9    -0.232658222333E+04    0.24634E-04   -0.40237E-05  3034   0.571E-03    0.150E-02
RMM:  10    -0.232658221444E+04    0.88845E-05   -0.19899E-05  2987   0.456E-03
   6 F= -.23480015E+04 E0= -.23479992E+04  d E =-.363248E-01  mag=     3.0000
       N       E                     dE             d eps       ncg     rms          rms(c)
DAV:   1    -0.232658220563E+04    0.17695E-04   -0.52539E-04  4792   0.236E-02    0.107E-02
RMM:   2    -0.232658221367E+04   -0.80384E-05   -0.10067E-04  3285   0.658E-03    0.880E-03
RMM:   3    -0.232658221466E+04   -0.98665E-06   -0.15546E-05  2871   0.450E-03
   7 F= -.23480015E+04 E0= -.23479992E+04  d E =-.363250E-01  mag=     3.0000
       N       E                     dE             d eps       ncg     rms          rms(c)
DAV:   1    -0.232645327314E+04    0.12894E+00   -0.74580E+00  4544   0.248E+00    0.912E-01
RMM:   2    -0.232661033066E+04   -0.15706E+00   -0.16664E+00  6558   0.622E-01    0.734E-01
RMM:   3    -0.232662473108E+04   -0.14400E-01   -0.21083E-01  6403   0.254E-01    0.668E-01
RMM:   4    -0.232661982037E+04    0.49107E-02   -0.17577E-02  6259   0.556E-02    0.283E-01
RMM:   5    -0.232661927212E+04    0.54825E-03   -0.30614E-03  5602   0.246E-02    0.271E-01
RMM:   6    -0.232661845495E+04    0.81716E-03   -0.23272E-03  5402   0.240E-02    0.125E-01
RMM:   7    -0.232661832958E+04    0.12537E-03   -0.54714E-04  4880   0.131E-02    0.750E-02
RMM:   8    -0.232661830708E+04    0.22506E-04   -0.15591E-04  3071   0.860E-03    0.599E-02
RMM:   9    -0.232661827085E+04    0.36229E-04   -0.43188E-05  2985   0.531E-03    0.186E-02
RMM:  10    -0.232661826801E+04    0.28368E-05   -0.18641E-05  2959   0.369E-03
   8 F= -.23480377E+04 E0= -.23480371E+04  d E =-.361153E-01  mag=     3.0000
       N       E                     dE             d eps       ncg     rms          rms(c)
DAV:   1    -0.232658011701E+04    0.38154E-01   -0.19523E+00  4544   0.127E+00    0.464E-01
RMM:   2    -0.232662108702E+04   -0.40970E-01   -0.43515E-01  6566   0.319E-01    0.369E-01
RMM:   3    -0.232662485796E+04   -0.37709E-02   -0.54442E-02  6346   0.128E-01    0.337E-01
RMM:   4    -0.232662360841E+04    0.12495E-02   -0.45263E-03  5417   0.282E-02    0.142E-01
RMM:   5    -0.232662348740E+04    0.12101E-03   -0.78059E-04  4938   0.133E-02    0.140E-01
RMM:   6    -0.232662324959E+04    0.23780E-03   -0.59416E-04  4247   0.130E-02    0.558E-02
RMM:   7    -0.232662322170E+04    0.27893E-04   -0.13419E-04  3618   0.780E-03    0.164E-02
RMM:   8    -0.232662322095E+04    0.74835E-06   -0.13828E-05  2964   0.501E-03
   9 F= -.23480427E+04 E0= -.23480425E+04  d E =-.411356E-01  mag=     3.0000
       N       E                     dE             d eps       ncg     rms          rms(c)
DAV:   1    -0.232653300646E+04    0.90215E-01   -0.52079E+00  4528   0.207E+00    0.738E-01
RMM:   2    -0.232664108315E+04   -0.10808E+00   -0.11421E+00  6565   0.524E-01    0.545E-01
RMM:   3    -0.232664991057E+04   -0.88274E-02   -0.13110E-01  6305   0.202E-01    0.486E-01
RMM:   4    -0.232664776618E+04    0.21444E-02   -0.11558E-02  5888   0.442E-02    0.242E-01
RMM:   5    -0.232664758107E+04    0.18511E-03   -0.18392E-03  5420   0.208E-02    0.244E-01
RMM:   6    -0.232664695843E+04    0.62265E-03   -0.15374E-03  5419   0.198E-02    0.119E-01
RMM:   7    -0.232664687420E+04    0.84226E-04   -0.54043E-04  5056   0.133E-02    0.809E-02
RMM:   8    -0.232664680033E+04    0.73871E-04   -0.14853E-04  3020   0.789E-03    0.352E-02
RMM:   9    -0.232664678347E+04    0.16855E-04   -0.22345E-05  2969   0.444E-03    0.140E-02
RMM:  10    -0.232664678415E+04   -0.67631E-06   -0.14620E-05  2933   0.337E-03
  10 F= -.23480658E+04 E0= -.23480657E+04  d E =-.231442E-01  mag=     3.0000
       N       E                     dE             d eps       ncg     rms          rms(c)
DAV:   1    -0.232663338280E+04    0.13401E-01   -0.70702E-01  4576   0.762E-01    0.268E-01
RMM:   2    -0.232664789142E+04   -0.14509E-01   -0.15400E-01  6578   0.194E-01    0.186E-01
RMM:   3    -0.232664910996E+04   -0.12185E-02   -0.17129E-02  5852   0.729E-02    0.172E-01
RMM:   4    -0.232664884907E+04    0.26089E-03   -0.15629E-03  3499   0.162E-02    0.864E-02
RMM:   5    -0.232664882529E+04    0.23777E-04   -0.23891E-04  3506   0.893E-03    0.908E-02
RMM:   6    -0.232664873436E+04    0.90928E-04   -0.20639E-04  3754   0.876E-03    0.407E-02
RMM:   7    -0.232664872765E+04    0.67099E-05   -0.71578E-05  3082   0.638E-03
  11 F= -.23480676E+04 E0= -.23480675E+04  d E =-.249491E-01  mag=     3.0000
       N       E                     dE             d eps       ncg     rms          rms(c)
DAV:   1    -0.232660165517E+04    0.47079E-01   -0.29066E+00  4528   0.171E+00    0.620E-01
RMM:   2    -0.232665811169E+04   -0.56457E-01   -0.60407E-01  6432   0.423E-01    0.416E-01
RMM:   3    -0.232666403850E+04   -0.59268E-02   -0.76915E-02  6198   0.173E-01    0.471E-01
RMM:   4    -0.232666143285E+04    0.26056E-02   -0.63339E-03  5969   0.389E-02    0.165E-01
RMM:   5    -0.232666133003E+04    0.10282E-03   -0.14144E-03  5417   0.199E-02    0.179E-01
RMM:   6    -0.232666102061E+04    0.30942E-03   -0.91003E-04  5062   0.172E-02    0.105E-01
RMM:   7    -0.232666094941E+04    0.71205E-04   -0.30963E-04  4763   0.108E-02    0.781E-02
RMM:   8    -0.232666087024E+04    0.79172E-04   -0.87330E-05  3000   0.760E-03    0.187E-02
RMM:   9    -0.232666086039E+04    0.98452E-05   -0.17952E-05  2955   0.372E-03
  12 F= -.23480792E+04 E0= -.23480791E+04  d E =-.116003E-01  mag=     3.0000
       N       E                     dE             d eps       ncg     rms          rms(c)
DAV:   1    -0.232666057901E+04    0.29123E-03   -0.18328E-02  5472   0.136E-01    0.495E-02
RMM:   2    -0.232666093949E+04   -0.36048E-03   -0.38674E-03  6277   0.350E-02    0.346E-02
RMM:   3    -0.232666097404E+04   -0.34554E-04   -0.48033E-04  3016   0.142E-02    0.386E-02
RMM:   4    -0.232666095620E+04    0.17839E-04   -0.41489E-05  2953   0.443E-03    0.133E-02
RMM:   5    -0.232666095365E+04    0.25519E-05   -0.11029E-05  2890   0.246E-03
  13 F= -.23480793E+04 E0= -.23480792E+04  d E =-.116523E-01  mag=     3.0000
       N       E                     dE             d eps       ncg     rms          rms(c)
DAV:   1    -0.232664238163E+04    0.18575E-01   -0.15937E+00  4576   0.126E+00    0.412E-01
RMM:   2    -0.232667155447E+04   -0.29173E-01   -0.31519E-01  6469   0.300E-01    0.212E-01
RMM:   3    -0.232667454001E+04   -0.29855E-02   -0.36708E-02  6010   0.117E-01    0.238E-01
RMM:   4    -0.232667416376E+04    0.37625E-03   -0.31583E-03  4669   0.243E-02    0.122E-01
RMM:   5    -0.232667398214E+04    0.18162E-03   -0.45919E-04  4528   0.135E-02    0.724E-02
RMM:   6    -0.232667402426E+04   -0.42115E-04   -0.26886E-04  3962   0.109E-02    0.832E-02
RMM:   7    -0.232667393590E+04    0.88352E-04   -0.11496E-04  3201   0.742E-03    0.233E-02
RMM:   8    -0.232667393441E+04    0.14962E-05   -0.26984E-05  2946   0.493E-03
  14 F= -.23480918E+04 E0= -.23480917E+04  d E =-.125027E-01  mag=     3.0000
       N       E                     dE             d eps       ncg     rms          rms(c)
DAV:   1    -0.232659780688E+04    0.76129E-01   -0.42429E+00  4544   0.205E+00    0.676E-01
RMM:   2    -0.232667580297E+04   -0.77996E-01   -0.84396E-01  6478   0.489E-01    0.344E-01
RMM:   3    -0.232668358909E+04   -0.77861E-02   -0.96765E-02  6065   0.188E-01    0.384E-01
RMM:   4    -0.232668256561E+04    0.10235E-02   -0.82735E-03  5828   0.396E-02    0.198E-01
RMM:   5    -0.232668209746E+04    0.46815E-03   -0.12306E-03  4942   0.204E-02    0.121E-01
RMM:   6    -0.232668221056E+04   -0.11310E-03   -0.71673E-04  4928   0.162E-02    0.142E-01
RMM:   7    -0.232668195005E+04    0.26051E-03   -0.32568E-04  4448   0.107E-02    0.356E-02
RMM:   8    -0.232668194701E+04    0.30416E-05   -0.70507E-05  2954   0.626E-03
  15 F= -.23480991E+04 E0= -.23480989E+04  d E =-.197743E-01  mag=     3.0000
       N       E                     dE             d eps       ncg     rms          rms(c)
DAV:   1    -0.232667234197E+04    0.96081E-02   -0.85767E-01  4576   0.884E-01    0.300E-01
RMM:   2    -0.232668963838E+04   -0.17296E-01   -0.18278E-01  6529   0.217E-01    0.219E-01
RMM:   3    -0.232669139413E+04   -0.17558E-02   -0.21695E-02  6093   0.832E-02    0.215E-01
RMM:   4    -0.232669089592E+04    0.49821E-03   -0.19501E-03  4254   0.186E-02    0.912E-02
RMM:   5    -0.232669083853E+04    0.57388E-04   -0.29694E-04  3705   0.102E-02    0.692E-02
RMM:   6    -0.232669081712E+04    0.21407E-04   -0.16306E-04  3140   0.799E-03    0.531E-02
RMM:   7    -0.232669079711E+04    0.20017E-04   -0.61655E-05  2962   0.652E-03    0.267E-02
RMM:   8    -0.232669079078E+04    0.63245E-05   -0.19942E-05  2910   0.465E-03
  16 F= -.23481078E+04 E0= -.23481076E+04  d E =-.872775E-02  mag=     3.0000
       N       E                     dE             d eps       ncg     rms          rms(c)
DAV:   1    -0.232654008570E+04    0.15071E+00   -0.77079E+00  4544   0.265E+00    0.894E-01
RMM:   2    -0.232669573984E+04   -0.15565E+00   -0.16471E+00  6530   0.650E-01    0.620E-01
RMM:   3    -0.232671148090E+04   -0.15741E-01   -0.19743E-01  6338   0.252E-01    0.599E-01
RMM:   4    -0.232670787252E+04    0.36084E-02   -0.17709E-02  6296   0.549E-02    0.280E-01
RMM:   5    -0.232670698549E+04    0.88703E-03   -0.22377E-03  5255   0.248E-02    0.161E-01
RMM:   6    -0.232670717903E+04   -0.19353E-03   -0.14677E-03  5505   0.199E-02    0.195E-01
RMM:   7    -0.232670674921E+04    0.42982E-03   -0.68533E-04  4719   0.145E-02    0.613E-02
RMM:   8    -0.232670673577E+04    0.13436E-04   -0.15560E-04  3081   0.773E-03    0.523E-02
RMM:   9    -0.232670669736E+04    0.38407E-04   -0.50942E-05  2954   0.545E-03    0.234E-02
RMM:  10    -0.232670668893E+04    0.84328E-05   -0.25627E-05  2930   0.378E-03
  17 F= -.23481234E+04 E0= -.23481232E+04  d E =-.243631E-01  mag=     3.0000
       N       E                     dE             d eps       ncg     rms          rms(c)
DAV:   1    -0.232666995262E+04    0.36745E-01   -0.18040E+00  4560   0.128E+00    0.431E-01
RMM:   2    -0.232670615479E+04   -0.36202E-01   -0.38349E-01  6521   0.316E-01    0.292E-01
RMM:   3    -0.232670983540E+04   -0.36806E-02   -0.45765E-02  6212   0.122E-01    0.283E-01
RMM:   4    -0.232670903700E+04    0.79840E-03   -0.40950E-03  5377   0.264E-02    0.135E-01
RMM:   5    -0.232670885459E+04    0.18241E-03   -0.55670E-04  4405   0.132E-02    0.868E-02
RMM:   6    -0.232670884977E+04    0.48204E-05   -0.34605E-04  3934   0.108E-02    0.821E-02
RMM:   7    -0.232670878100E+04    0.68774E-04   -0.14083E-04  3241   0.809E-03    0.344E-02
RMM:   8    -0.232670877208E+04    0.89216E-05   -0.36307E-05  2930   0.566E-03
  18 F= -.23481254E+04 E0= -.23481252E+04  d E =-.263658E-01  mag=     3.0000
       N       E                     dE             d eps       ncg     rms          rms(c)
DAV:   1    -0.232666809171E+04    0.40689E-01   -0.21562E+00  4512   0.133E+00    0.482E-01
RMM:   2    -0.232671843085E+04   -0.50339E-01   -0.52741E-01  6595   0.343E-01    0.379E-01
RMM:   3    -0.232672290877E+04   -0.44779E-02   -0.62414E-02  6313   0.134E-01    0.329E-01
RMM:   4    -0.232672180817E+04    0.11006E-02   -0.53682E-03  5558   0.292E-02    0.150E-01
RMM:   5    -0.232672156039E+04    0.24778E-03   -0.65709E-04  4451   0.133E-02    0.971E-02
RMM:   6    -0.232672156567E+04   -0.52881E-05   -0.48252E-04  4152   0.118E-02    0.924E-02
RMM:   7    -0.232672147414E+04    0.91532E-04   -0.16681E-04  3202   0.843E-03    0.374E-02
RMM:   8    -0.232672146720E+04    0.69457E-05   -0.42261E-05  2928   0.582E-03
  19 F= -.23481382E+04 E0= -.23481380E+04  d E =-.128227E-01  mag=     3.0000
       N       E                     dE             d eps       ncg     rms          rms(c)
DAV:   1    -0.232631626360E+04    0.40521E+00   -0.16807E+01  4512   0.371E+00    0.135E+00
RMM:   2    -0.232671123401E+04   -0.39497E+00   -0.41325E+00  6588   0.953E-01    0.107E+00
RMM:   3    -0.232674629223E+04   -0.35058E-01   -0.50693E-01  6404   0.383E-01    0.888E-01
RMM:   4    -0.232673854522E+04    0.77470E-02   -0.42594E-02  6473   0.815E-02    0.434E-01
RMM:   5    -0.232673635795E+04    0.21873E-02   -0.48830E-03  5696   0.333E-02    0.276E-01
RMM:   6    -0.232673677477E+04   -0.41682E-03   -0.48023E-03  5969   0.337E-02    0.322E-01
RMM:   7    -0.232673559773E+04    0.11770E-02   -0.14148E-03  5500   0.196E-02    0.837E-02
RMM:   8    -0.232673559012E+04    0.76072E-05   -0.32177E-04  3523   0.100E-02    0.909E-02
RMM:   9    -0.232673549578E+04    0.94343E-04   -0.14532E-04  3108   0.757E-03    0.405E-02
RMM:  10    -0.232673547371E+04    0.22069E-04   -0.59885E-05  2947   0.521E-03    0.133E-02
RMM:  11    -0.232673547195E+04    0.17631E-05   -0.20338E-05  2959   0.385E-03
  20 F= -.23481528E+04 E0= -.23481526E+04  d E =-.273827E-01  mag=     2.9999
       N       E                     dE             d eps       ncg     rms          rms(c)
DAV:   1    -0.232665762297E+04    0.77851E-01   -0.36889E+00  4512   0.174E+00    0.629E-01
RMM:   2    -0.232674072490E+04   -0.83102E-01   -0.87966E-01  6572   0.449E-01    0.422E-01
RMM:   3    -0.232674868648E+04   -0.79616E-02   -0.10374E-01  6325   0.178E-01    0.390E-01
RMM:   4    -0.232674738780E+04    0.12987E-02   -0.90472E-03  5965   0.379E-02    0.208E-01
RMM:   5    -0.232674687665E+04    0.51114E-03   -0.10719E-03  4960   0.167E-02    0.129E-01
RMM:   6    -0.232674686026E+04    0.16389E-04   -0.10212E-03  5137   0.170E-02    0.120E-01
RMM:   7    -0.232674668114E+04    0.17913E-03   -0.36088E-04  4289   0.108E-02    0.377E-02
RMM:   8    -0.232674667426E+04    0.68719E-05   -0.55637E-05  2948   0.613E-03
  21 F= -.23481645E+04 E0= -.23481643E+04  d E =-.117423E-01  mag=     2.9998
       N       E                     dE             d eps       ncg     rms          rms(c)
DAV:   1    -0.232663230030E+04    0.11438E+00   -0.48634E+00  4512   0.199E+00    0.728E-01
RMM:   2    -0.232674225348E+04   -0.10995E+00   -0.11620E+00  6564   0.512E-01    0.512E-01
RMM:   3    -0.232675258230E+04   -0.10329E-01   -0.13710E-01  6348   0.204E-01    0.469E-01
RMM:   4    -0.232675057747E+04    0.20048E-02   -0.12016E-02  6093   0.439E-02    0.242E-01
RMM:   5    -0.232674994494E+04    0.63252E-03   -0.14475E-03  5094   0.192E-02    0.156E-01
RMM:   6    -0.232674991631E+04    0.28632E-04   -0.13484E-03  5330   0.184E-02    0.152E-01
RMM:   7    -0.232674966180E+04    0.25451E-03   -0.55986E-04  4633   0.129E-02    0.566E-02
RMM:   8    -0.232674964205E+04    0.19750E-04   -0.10378E-04  2995   0.723E-03    0.414E-02
RMM:   9    -0.232674961433E+04    0.27712E-04   -0.34265E-05  2960   0.447E-03    0.232E-02
RMM:  10    -0.232674960574E+04    0.85951E-05   -0.23875E-05  2916   0.371E-03
  22 F= -.23481682E+04 E0= -.23481680E+04  d E =-.153572E-01  mag=     2.9998
       N       E                     dE             d eps       ncg     rms          rms(c)
DAV:   1    -0.232670406637E+04    0.45548E-01   -0.27853E+00  4512   0.156E+00    0.526E-01
RMM:   2    -0.232675716373E+04   -0.53097E-01   -0.56036E-01  6591   0.388E-01    0.386E-01
RMM:   3    -0.232676222609E+04   -0.50624E-02   -0.64231E-02  6258   0.147E-01    0.392E-01
RMM:   4    -0.232676069367E+04    0.15324E-02   -0.58210E-03  5619   0.330E-02    0.170E-01
RMM:   5    -0.232676042884E+04    0.26483E-03   -0.87097E-04  4883   0.156E-02    0.128E-01
RMM:   6    -0.232676034046E+04    0.88379E-04   -0.78689E-04  4842   0.157E-02    0.938E-02
RMM:   7    -0.232676023163E+04    0.10883E-03   -0.24426E-04  4441   0.968E-03    0.225E-02
RMM:   8    -0.232676022169E+04    0.99429E-05   -0.25324E-05  2968   0.557E-03
  23 F= -.23481790E+04 E0= -.23481789E+04  d E =-.108804E-01  mag=     2.9999
       N       E                     dE             d eps       ncg     rms          rms(c)
DAV:   1    -0.232667854005E+04    0.81692E-01   -0.42711E+00  4512   0.194E+00    0.653E-01
RMM:   2    -0.232676012614E+04   -0.81586E-01   -0.85959E-01  6599   0.480E-01    0.500E-01
RMM:   3    -0.232676786800E+04   -0.77419E-02   -0.99157E-02  6339   0.182E-01    0.499E-01
RMM:   4    -0.232676531934E+04    0.25487E-02   -0.89692E-03  5927   0.411E-02    0.210E-01
RMM:   5    -0.232676491687E+04    0.40247E-03   -0.13316E-03  5203   0.189E-02    0.159E-01
RMM:   6    -0.232676478846E+04    0.12841E-03   -0.12321E-03  5269   0.189E-02    0.120E-01
RMM:   7    -0.232676461109E+04    0.17737E-03   -0.39535E-04  4902   0.118E-02    0.296E-02
RMM:   8    -0.232676459376E+04    0.17333E-04   -0.40446E-05  3011   0.606E-03    0.224E-02
RMM:   9    -0.232676459276E+04    0.99288E-06   -0.25076E-05  2929   0.362E-03
  24 F= -.23481838E+04 E0= -.23481837E+04  d E =-.156091E-01  mag=     2.9999
       N       E                     dE             d eps       ncg     rms          rms(c)
DAV:   1    -0.232671615798E+04    0.48436E-01   -0.34764E+00  4512   0.178E+00    0.576E-01
RMM:   2    -0.232677710536E+04   -0.60947E-01   -0.63002E-01  6533   0.425E-01    0.530E-01
RMM:   3    -0.232678148267E+04   -0.43773E-02   -0.73645E-02  6238   0.162E-01    0.441E-01
RMM:   4    -0.232677939516E+04    0.20875E-02   -0.64872E-03  5745   0.361E-02    0.175E-01
RMM:   5    -0.232677924290E+04    0.15226E-03   -0.11281E-03  5337   0.179E-02    0.163E-01
RMM:   6    -0.232677898143E+04    0.26147E-03   -0.88537E-04  5196   0.163E-02    0.912E-02
RMM:   7    -0.232677891807E+04    0.63356E-04   -0.27304E-04  4495   0.104E-02    0.485E-02
RMM:   8    -0.232677889227E+04    0.25803E-04   -0.67081E-05  2927   0.652E-03    0.268E-02
RMM:   9    -0.232677887994E+04    0.12331E-04   -0.15455E-05  2944   0.314E-03    0.133E-02
RMM:  10    -0.232677887662E+04    0.33257E-05   -0.13251E-05  2910   0.289E-03
  25 F= -.23481980E+04 E0= -.23481979E+04  d E =-.142141E-01  mag=     2.9999
       N       E                     dE             d eps       ncg     rms          rms(c)
DAV:   1    -0.232672250786E+04    0.56372E-01   -0.34461E+00  4528   0.178E+00    0.572E-01
RMM:   2    -0.232678290835E+04   -0.60400E-01   -0.62364E-01  6546   0.424E-01    0.533E-01
RMM:   3    -0.232678715993E+04   -0.42516E-02   -0.73153E-02  6239   0.162E-01    0.439E-01
RMM:   4    -0.232678509139E+04    0.20685E-02   -0.64617E-03  5732   0.359E-02    0.173E-01
RMM:   5    -0.232678492871E+04    0.16269E-03   -0.11045E-03  5329   0.180E-02    0.161E-01
RMM:   6    -0.232678467305E+04    0.25565E-03   -0.85622E-04  5203   0.163E-02    0.910E-02
RMM:   7    -0.232678460614E+04    0.66916E-04   -0.26564E-04  4488   0.103E-02    0.475E-02
RMM:   8    -0.232678458093E+04    0.25206E-04   -0.64741E-05  2924   0.640E-03    0.260E-02
RMM:   9    -0.232678456859E+04    0.12346E-04   -0.15211E-05  2943   0.315E-03    0.130E-02
RMM:  10    -0.232678456511E+04    0.34764E-05   -0.13099E-05  2909   0.293E-03
  26 F= -.23482036E+04 E0= -.23482036E+04  d E =-.198417E-01  mag=     3.0000
       N       E                     dE             d eps       ncg     rms          rms(c)
DAV:   1    -0.232675106849E+04    0.33500E-01   -0.26824E+00  4544   0.163E+00    0.527E-01
RMM:   2    -0.232679148678E+04   -0.40418E-01   -0.42078E-01  6262   0.367E-01    0.439E-01
RMM:   3    -0.232679468516E+04   -0.31984E-02   -0.50025E-02  5973   0.150E-01    0.408E-01
RMM:   4    -0.232679271408E+04    0.19711E-02   -0.43752E-03  5804   0.334E-02    0.150E-01
RMM:   5    -0.232679263302E+04    0.81065E-04   -0.10898E-03  5374   0.189E-02    0.150E-01
RMM:   6    -0.232679236478E+04    0.26824E-03   -0.66343E-04  5111   0.152E-02    0.718E-02
RMM:   7    -0.232679231182E+04    0.52957E-04   -0.15328E-04  4087   0.898E-03    0.330E-02
RMM:   8    -0.232679230162E+04    0.10207E-04   -0.46279E-05  2925   0.639E-03    0.239E-02
RMM:   9    -0.232679229131E+04    0.10310E-04   -0.14709E-05  2920   0.330E-03    0.117E-02
RMM:  10    -0.232679228795E+04    0.33526E-05   -0.91598E-06  2909   0.286E-03
  27 F= -.23482114E+04 E0= -.23482113E+04  d E =-.776890E-02  mag=     3.0000
       N       E                     dE             d eps       ncg     rms          rms(c)
DAV:   1    -0.232679100926E+04    0.12820E-02   -0.96896E-02  4896   0.310E-01    0.995E-02
RMM:   2    -0.232679246152E+04   -0.14523E-02   -0.15168E-02  6318   0.705E-02    0.802E-02
RMM:   3    -0.232679258020E+04   -0.11868E-03   -0.17747E-03  3797   0.278E-02    0.783E-02
RMM:   4    -0.232679250828E+04    0.71917E-04   -0.15683E-04  2997   0.769E-03    0.287E-02
RMM:   5    -0.232679250432E+04    0.39618E-05   -0.44597E-05  2966   0.486E-03
  28 F= -.23482116E+04 E0= -.23482116E+04  d E =-.799440E-02  mag=     2.9999
       N       E                     dE             d eps       ncg     rms          rms(c)
DAV:   1    -0.232677490681E+04    0.17601E-01   -0.15416E+00  4544   0.122E+00    0.349E-01
RMM:   2    -0.232679632131E+04   -0.21415E-01   -0.22664E-01  6459   0.263E-01    0.254E-01
RMM:   3    -0.232679821621E+04   -0.18949E-02   -0.25195E-02  5914   0.998E-02    0.246E-01
RMM:   4    -0.232679762561E+04    0.59060E-03   -0.23407E-03  5020   0.225E-02    0.123E-01
RMM:   5    -0.232679752054E+04    0.10507E-03   -0.51393E-04  4554   0.134E-02    0.974E-02
RMM:   6    -0.232679744806E+04    0.72481E-04   -0.34692E-04  3978   0.115E-02    0.650E-02
RMM:   7    -0.232679739757E+04    0.50490E-04   -0.99549E-05  3497   0.743E-03    0.164E-02
RMM:   8    -0.232679739584E+04    0.17332E-05   -0.18994E-05  2948   0.527E-03
  29 F= -.23482166E+04 E0= -.23482165E+04  d E =-.496225E-02  mag=     2.9999
       N       E                     dE             d eps       ncg     rms          rms(c)
DAV:   1    -0.232677990957E+04    0.17488E-01   -0.12575E+00  4528   0.110E+00    0.317E-01
RMM:   2    -0.232679740082E+04   -0.17491E-01   -0.18509E-01  6459   0.237E-01    0.235E-01
RMM:   3    -0.232679899329E+04   -0.15925E-02   -0.20761E-02  5850   0.894E-02    0.231E-01
RMM:   4    -0.232679846135E+04    0.53194E-03   -0.19248E-03  4804   0.204E-02    0.109E-01
RMM:   5    -0.232679837396E+04    0.87390E-04   -0.39137E-04  4337   0.119E-02    0.873E-02
RMM:   6    -0.232679831344E+04    0.60523E-04   -0.29042E-04  3744   0.107E-02    0.574E-02
RMM:   7    -0.232679827385E+04    0.39582E-04   -0.81993E-05  3390   0.712E-03    0.161E-02
RMM:   8    -0.232679827257E+04    0.12790E-05   -0.18226E-05  2933   0.518E-03
  30 F= -.23482175E+04 E0= -.23482175E+04  d E =-.590557E-02  mag=     2.9999
       N       E                     dE             d eps       ncg     rms          rms(c)
DAV:   1    -0.232678906237E+04    0.92115E-02   -0.97778E-01  4544   0.981E-01    0.265E-01
RMM:   2    -0.232680127394E+04   -0.12212E-01   -0.13135E-01  6508   0.202E-01    0.153E-01
RMM:   3    -0.232680232229E+04   -0.10483E-02   -0.14269E-02  5868   0.764E-02    0.137E-01
RMM:   4    -0.232680224232E+04    0.79968E-04   -0.13527E-03  3790   0.163E-02    0.104E-01
RMM:   5    -0.232680212406E+04    0.11826E-03   -0.27673E-04  3768   0.110E-02    0.583E-02
RMM:   6    -0.232680213460E+04   -0.10537E-04   -0.21994E-04  3734   0.942E-03    0.621E-02
RMM:   7    -0.232680208407E+04    0.50532E-04   -0.68924E-05  3022   0.671E-03    0.121E-02
RMM:   8    -0.232680208143E+04    0.26394E-05   -0.91977E-06  2920   0.390E-03
  31 F= -.23482213E+04 E0= -.23482213E+04  d E =-.383369E-02  mag=     3.0000
       N       E                     dE             d eps       ncg     rms          rms(c)
DAV:   1    -0.232674006276E+04    0.62021E-01   -0.48932E+00  4512   0.220E+00    0.592E-01
RMM:   2    -0.232680119614E+04   -0.61133E-01   -0.65730E-01  6504   0.451E-01    0.343E-01
RMM:   3    -0.232680656301E+04   -0.53669E-02   -0.74243E-02  6082   0.171E-01    0.296E-01
RMM:   4    -0.232680624747E+04    0.31553E-03   -0.68342E-03  5885   0.358E-02    0.238E-01
RMM:   5    -0.232680564815E+04    0.59932E-03   -0.13188E-03  5014   0.198E-02    0.132E-01
RMM:   6    -0.232680570535E+04   -0.57195E-04   -0.12116E-03  5447   0.186E-02    0.149E-01
RMM:   7    -0.232680541906E+04    0.28628E-03   -0.38226E-04  4480   0.121E-02    0.330E-02
RMM:   8    -0.232680539828E+04    0.20782E-04   -0.43601E-05  3029   0.526E-03    0.186E-02
RMM:   9    -0.232680539263E+04    0.56458E-05   -0.20977E-05  2949   0.370E-03
  32 F= -.23482247E+04 E0= -.23482247E+04  d E =-.720303E-02  mag=     3.0000
       N       E                     dE             d eps       ncg     rms          rms(c)
DAV:   1    -0.232679671961E+04    0.86787E-02   -0.11173E+00  4544   0.106E+00    0.317E-01
RMM:   2    -0.232680938593E+04   -0.12666E-01   -0.13807E-01  6326   0.222E-01    0.150E-01
RMM:   3    -0.232681032911E+04   -0.94319E-03   -0.15228E-02  5870   0.853E-02    0.101E-01
RMM:   4    -0.232681041334E+04   -0.84231E-04   -0.15017E-03  4940   0.189E-02    0.116E-01
RMM:   5    -0.232681027895E+04    0.13440E-03   -0.37239E-04  4205   0.124E-02    0.648E-02
RMM:   6    -0.232681025834E+04    0.20606E-04   -0.13923E-04  4034   0.821E-03    0.483E-02
RMM:   7    -0.232681022914E+04    0.29207E-04   -0.47866E-05  2939   0.640E-03    0.120E-02
RMM:   8    -0.232681022757E+04    0.15669E-05   -0.83007E-06  2904   0.278E-03
  33 F= -.23482294E+04 E0= -.23482294E+04  d E =-.471425E-02  mag=     3.0000
       N       E                     dE             d eps       ncg     rms          rms(c)
DAV:   1    -0.232680696094E+04    0.32682E-02   -0.31923E-01  4656   0.566E-01    0.170E-01
RMM:   2    -0.232681058877E+04   -0.36278E-02   -0.39461E-02  6349   0.119E-01    0.826E-02
RMM:   3    -0.232681087827E+04   -0.28950E-03   -0.43586E-03  5483   0.456E-02    0.715E-02
RMM:   4    -0.232681088031E+04   -0.20354E-05   -0.43760E-04  3142   0.102E-02    0.638E-02
RMM:   5    -0.232681082390E+04    0.56412E-04   -0.10951E-04  3304   0.787E-03    0.247E-02
RMM:   6    -0.232681082411E+04   -0.21092E-06   -0.41490E-05  3060   0.624E-03
  34 F= -.23482300E+04 E0= -.23482299E+04  d E =-.524871E-02  mag=     3.0000
       N       E                     dE             d eps       ncg     rms          rms(c)
DAV:   1    -0.232680372334E+04    0.71006E-02   -0.85768E-01  4528   0.923E-01    0.276E-01
RMM:   2    -0.232681433760E+04   -0.10614E-01   -0.11412E-01  6383   0.196E-01    0.154E-01
RMM:   3    -0.232681526390E+04   -0.92630E-03   -0.11992E-02  5937   0.723E-02    0.148E-01
RMM:   4    -0.232681509208E+04    0.17182E-03   -0.12746E-03  4153   0.167E-02    0.933E-02
RMM:   5    -0.232681501655E+04    0.75531E-04   -0.25084E-04  4127   0.107E-02    0.640E-02
RMM:   6    -0.232681499286E+04    0.23688E-04   -0.16913E-04  3262   0.907E-03    0.436E-02
RMM:   7    -0.232681497570E+04    0.17159E-04   -0.46192E-05  2999   0.635E-03    0.229E-02
RMM:   8    -0.232681497110E+04    0.45991E-05   -0.13037E-05  2905   0.424E-03
  35 F= -.23482338E+04 E0= -.23482338E+04  d E =-.386991E-02  mag=     3.0000
       N       E                     dE             d eps       ncg     rms          rms(c)
DAV:   1    -0.232677647382E+04    0.38502E-01   -0.29664E+00  4512   0.172E+00    0.511E-01
RMM:   2    -0.232681309058E+04   -0.36617E-01   -0.39415E-01  6451   0.365E-01    0.277E-01
RMM:   3    -0.232681616863E+04   -0.30781E-02   -0.41554E-02  6112   0.133E-01    0.245E-01
RMM:   4    -0.232681583735E+04    0.33128E-03   -0.43780E-03  5864   0.300E-02    0.181E-01
RMM:   5    -0.232681551477E+04    0.32258E-03   -0.81760E-04  5054   0.173E-02    0.106E-01
RMM:   6    -0.232681547248E+04    0.42291E-04   -0.59207E-04  4841   0.152E-02    0.828E-02
RMM:   7    -0.232681537634E+04    0.96147E-04   -0.15305E-04  4030   0.867E-03    0.192E-02
RMM:   8    -0.232681537478E+04    0.15549E-05   -0.23434E-05  2956   0.515E-03
  36 F= -.23482337E+04 E0= -.23482337E+04  d E =-.377439E-02  mag=     3.0000
       N       E                     dE             d eps       ncg     rms          rms(c)
DAV:   1    -0.232680702827E+04    0.83481E-02   -0.71598E-01  4528   0.845E-01    0.247E-01
RMM:   2    -0.232681582627E+04   -0.87980E-02   -0.94522E-02  6430   0.179E-01    0.134E-01
RMM:   3    -0.232681658573E+04   -0.75946E-03   -0.99032E-03  5947   0.644E-02    0.131E-01
RMM:   4    -0.232681646406E+04    0.12168E-03   -0.10301E-03  3810   0.150E-02    0.874E-02
RMM:   5    -0.232681639480E+04    0.69254E-04   -0.22407E-04  4028   0.105E-02    0.612E-02
RMM:   6    -0.232681637435E+04    0.20455E-04   -0.13108E-04  3123   0.821E-03    0.432E-02
RMM:   7    -0.232681635580E+04    0.18546E-04   -0.40514E-05  2936   0.599E-03    0.159E-02
RMM:   8    -0.232681635456E+04    0.12410E-05   -0.12411E-05  2907   0.401E-03
  37 F= -.23482350E+04 E0= -.23482349E+04  d E =-.499681E-02  mag=     3.0000
       N       E                     dE             d eps       ncg     rms          rms(c)
DAV:   1    -0.232680694714E+04    0.94087E-02   -0.10422E+00  4512   0.100E+00    0.288E-01
RMM:   2    -0.232681973348E+04   -0.12786E-01   -0.13713E-01  6458   0.210E-01    0.175E-01
RMM:   3    -0.232682088025E+04   -0.11468E-02   -0.14797E-02  5965   0.781E-02    0.169E-01
RMM:   4    -0.232682060702E+04    0.27322E-03   -0.14792E-03  4219   0.177E-02    0.944E-02
RMM:   5    -0.232682052133E+04    0.85691E-04   -0.31824E-04  4309   0.117E-02    0.678E-02
RMM:   6    -0.232682048109E+04    0.40247E-04   -0.19513E-04  3598   0.983E-03    0.395E-02
RMM:   7    -0.232682046093E+04    0.20153E-04   -0.39962E-05  3017   0.607E-03    0.992E-03
RMM:   8    -0.232682046053E+04    0.40472E-06   -0.80820E-06  2911   0.391E-03
  38 F= -.23482389E+04 E0= -.23482389E+04  d E =-.396432E-02  mag=     3.0000
       N       E                     dE             d eps       ncg     rms          rms(c)
DAV:   1    -0.232678069950E+04    0.39761E-01   -0.31689E+00  4512   0.175E+00    0.506E-01
RMM:   2    -0.232681970444E+04   -0.39005E-01   -0.41863E-01  6427   0.366E-01    0.313E-01
RMM:   3    -0.232682323543E+04   -0.35310E-02   -0.45902E-02  6136   0.135E-01    0.301E-01
RMM:   4    -0.232682236012E+04    0.87531E-03   -0.45641E-03  5818   0.306E-02    0.166E-01
RMM:   5    -0.232682212453E+04    0.23558E-03   -0.90850E-04  5099   0.178E-02    0.124E-01
RMM:   6    -0.232682199592E+04    0.12861E-03   -0.62585E-04  5087   0.154E-02    0.781E-02
RMM:   7    -0.232682193401E+04    0.61908E-04   -0.15550E-04  3919   0.860E-03    0.374E-02
RMM:   8    -0.232682192523E+04    0.87796E-05   -0.42451E-05  2932   0.592E-03
  39 F= -.23482402E+04 E0= -.23482401E+04  d E =-.519496E-02  mag=     3.0000
       N       E                     dE             d eps       ncg     rms          rms(c)
DAV:   1    -0.232681852795E+04    0.34061E-02   -0.28633E-01  4576   0.526E-01    0.148E-01
RMM:   2    -0.232682202031E+04   -0.34924E-02   -0.37447E-02  6437   0.110E-01    0.856E-02
RMM:   3    -0.232682232772E+04   -0.30741E-03   -0.40272E-03  5105   0.403E-02    0.822E-02
RMM:   4    -0.232682227292E+04    0.54799E-04   -0.39405E-04  3017   0.958E-03    0.506E-02
RMM:   5    -0.232682224475E+04    0.28170E-04   -0.89612E-05  3127   0.696E-03    0.332E-02
RMM:   6    -0.232682224021E+04    0.45384E-05   -0.53798E-05  2951   0.624E-03
  40 F= -.23482405E+04 E0= -.23482405E+04  d E =-.557861E-02  mag=     3.0000
       N       E                     dE             d eps       ncg     rms          rms(c)
DAV:   1    -0.232681480956E+04    0.74352E-02   -0.75187E-01  4528   0.839E-01    0.242E-01
RMM:   2    -0.232682513345E+04   -0.10324E-01   -0.11006E-01  6543   0.177E-01    0.166E-01
RMM:   3    -0.232682614640E+04   -0.10129E-02   -0.11867E-02  5737   0.653E-02    0.187E-01
RMM:   4    -0.232682580429E+04    0.34210E-03   -0.11620E-03  3578   0.153E-02    0.775E-02
RMM:   5    -0.232682578449E+04    0.19803E-04   -0.23960E-04  3990   0.987E-03    0.824E-02
RMM:   6    -0.232682570969E+04    0.74801E-04   -0.17856E-04  3363   0.872E-03    0.346E-02
RMM:   7    -0.232682569885E+04    0.10836E-04   -0.33872E-05  2967   0.574E-03    0.121E-02
RMM:   8    -0.232682569856E+04    0.29644E-06   -0.10310E-05  2906   0.389E-03
  41 F= -.23482439E+04 E0= -.23482439E+04  d E =-.335925E-02  mag=     2.9999
       N       E                     dE             d eps       ncg     rms          rms(c)
DAV:   1    -0.232676417200E+04    0.61527E-01   -0.44149E+00  4512   0.203E+00    0.590E-01
RMM:   2    -0.232682424797E+04   -0.60076E-01   -0.64608E-01  6479   0.427E-01    0.362E-01
RMM:   3    -0.232683039578E+04   -0.61478E-02   -0.72502E-02  6084   0.157E-01    0.398E-01
RMM:   4    -0.232682902192E+04    0.13739E-02   -0.69324E-03  5836   0.350E-02    0.195E-01
RMM:   5    -0.232682872959E+04    0.29233E-03   -0.12498E-03  5199   0.200E-02    0.165E-01
RMM:   6    -0.232682856278E+04    0.16681E-03   -0.95965E-04  5143   0.174E-02    0.119E-01
RMM:   7    -0.232682841214E+04    0.15064E-03   -0.25679E-04  4291   0.102E-02    0.391E-02
RMM:   8    -0.232682839994E+04    0.12195E-04   -0.66937E-05  2970   0.698E-03    0.333E-02
RMM:   9    -0.232682838294E+04    0.16997E-04   -0.23262E-05  2949   0.382E-03    0.119E-02
RMM:  10    -0.232682838068E+04    0.22620E-05   -0.94066E-06  2940   0.279E-03
  42 F= -.23482463E+04 E0= -.23482463E+04  d E =-.581157E-02  mag=     2.9999
       N       E                     dE             d eps       ncg     rms          rms(c)
DAV:   1    -0.232681064783E+04    0.17735E-01   -0.13402E+00  4512   0.112E+00    0.330E-01
RMM:   2    -0.232683070878E+04   -0.20061E-01   -0.21165E-01  6524   0.242E-01    0.261E-01
RMM:   3    -0.232683269819E+04   -0.19894E-02   -0.23959E-02  5905   0.917E-02    0.280E-01
RMM:   4    -0.232683192145E+04    0.77674E-03   -0.22646E-03  4688   0.210E-02    0.104E-01
RMM:   5    -0.232683180815E+04    0.11330E-03   -0.45273E-04  4540   0.125E-02    0.787E-02
RMM:   6    -0.232683178836E+04    0.19791E-04   -0.28819E-04  3605   0.111E-02    0.644E-02
RMM:   7    -0.232683173811E+04    0.50245E-04   -0.67361E-05  2992   0.672E-03    0.189E-02
RMM:   8    -0.232683173617E+04    0.19410E-05   -0.18284E-05  2918   0.458E-03
  43 F= -.23482496E+04 E0= -.23482495E+04  d E =-.320545E-02  mag=     2.9999
       N       E                     dE             d eps       ncg     rms          rms(c)
DAV:   1    -0.232680653527E+04    0.25203E-01   -0.16749E+00  4512   0.125E+00    0.372E-01
RMM:   2    -0.232683164924E+04   -0.25114E-01   -0.26499E-01  6500   0.270E-01    0.297E-01
RMM:   3    -0.232683412887E+04   -0.24796E-02   -0.30027E-02  5979   0.101E-01    0.318E-01
RMM:   4    -0.232683312013E+04    0.10087E-02   -0.28394E-03  5003   0.233E-02    0.116E-01
RMM:   5    -0.232683298656E+04    0.13357E-03   -0.56388E-04  4693   0.137E-02    0.900E-02
RMM:   6    -0.232683295810E+04    0.28463E-04   -0.36376E-04  3905   0.120E-02    0.727E-02
RMM:   7    -0.232683289374E+04    0.64354E-04   -0.85535E-05  3061   0.706E-03    0.209E-02
RMM:   8    -0.232683289111E+04    0.26325E-05   -0.22622E-05  2922   0.495E-03
  44 F= -.23482505E+04 E0= -.23482505E+04  d E =-.419674E-02  mag=     2.9999
       N       E                     dE             d eps       ncg     rms          rms(c)
DAV:   1    -0.232683047591E+04    0.24178E-02   -0.39163E-01  4608   0.644E-01    0.215E-01
RMM:   2    -0.232683537459E+04   -0.48987E-02   -0.49908E-02  6265   0.136E-01    0.195E-01
RMM:   3    -0.232683563853E+04   -0.26394E-03   -0.57712E-03  5658   0.533E-02    0.173E-01
RMM:   4    -0.232683529185E+04    0.34668E-03   -0.61448E-04  4294   0.135E-02    0.602E-02
RMM:   5    -0.232683529112E+04    0.73135E-06   -0.18377E-04  3250   0.922E-03    0.642E-02
RMM:   6    -0.232683523426E+04    0.56859E-04   -0.13605E-04  3966   0.878E-03    0.174E-02
RMM:   7    -0.232683523213E+04    0.21301E-05   -0.18874E-05  2963   0.536E-03
  45 F= -.23482529E+04 E0= -.23482529E+04  d E =-.238706E-02  mag=     2.9999
       N       E                     dE             d eps       ncg     rms          rms(c)
DAV:   1    -0.232683171159E+04    0.35227E-02   -0.30016E-01  4560   0.564E-01    0.187E-01
RMM:   2    -0.232683546212E+04   -0.37505E-02   -0.38241E-02  6218   0.120E-01    0.167E-01
RMM:   3    -0.232683568256E+04   -0.22044E-03   -0.44677E-03  5477   0.497E-02    0.152E-01
RMM:   4    -0.232683541695E+04    0.26562E-03   -0.47088E-04  3793   0.120E-02    0.538E-02
RMM:   5    -0.232683541313E+04    0.38236E-05   -0.13780E-04  3088   0.830E-03    0.560E-02
RMM:   6    -0.232683536936E+04    0.43764E-04   -0.10823E-04  3680   0.809E-03    0.155E-02
RMM:   7    -0.232683536756E+04    0.18047E-05   -0.16875E-05  2951   0.525E-03
  46 F= -.23482531E+04 E0= -.23482531E+04  d E =-.256273E-02  mag=     2.9999
       N       E                     dE             d eps       ncg     rms          rms(c)
DAV:   1    -0.232683507432E+04    0.29504E-03   -0.37815E-02  4736   0.200E-01    0.651E-02
RMM:   2    -0.232683553420E+04   -0.45989E-03   -0.47207E-03  6238   0.427E-02    0.570E-02
RMM:   3    -0.232683556309E+04   -0.28885E-04   -0.55566E-04  3160   0.163E-02    0.528E-02
RMM:   4    -0.232683553060E+04    0.32491E-04   -0.57888E-05  2939   0.554E-03    0.188E-02
RMM:   5    -0.232683552995E+04    0.64893E-06   -0.19061E-05  2914   0.330E-03
  47 F= -.23482533E+04 E0= -.23482532E+04  d E =-.271091E-02  mag=     2.9999
       N       E                     dE             d eps       ncg     rms          rms(c)
DAV:   1    -0.232683417579E+04    0.13548E-02   -0.26485E-01  4544   0.540E-01    0.167E-01
RMM:   2    -0.232683693084E+04   -0.27551E-02   -0.28666E-02  6224   0.108E-01    0.134E-01
RMM:   3    -0.232683711837E+04   -0.18753E-03   -0.32482E-03  5390   0.431E-02    0.132E-01
RMM:   4    -0.232683692415E+04    0.19422E-03   -0.35782E-04  3473   0.108E-02    0.537E-02
RMM:   5    -0.232683690958E+04    0.14567E-04   -0.95675E-05  3006   0.748E-03    0.464E-02
RMM:   6    -0.232683687932E+04    0.30263E-04   -0.89949E-05  3651   0.761E-03    0.140E-02
RMM:   7    -0.232683687818E+04    0.11370E-05   -0.14268E-05  2950   0.518E-03
  48 F= -.23482547E+04 E0= -.23482547E+04  d E =-.141753E-02  mag=     2.9999
       N       E                     dE             d eps       ncg     rms          rms(c)
DAV:   1    -0.232683578682E+04    0.10925E-02   -0.10721E-01  4576   0.344E-01    0.108E-01
RMM:   2    -0.232683691148E+04   -0.11247E-02   -0.11713E-02  6287   0.701E-02    0.874E-02
RMM:   3    -0.232683698834E+04   -0.76862E-04   -0.12938E-03  4167   0.280E-02    0.856E-02
RMM:   4    -0.232683690524E+04    0.83103E-04   -0.14444E-04  3006   0.805E-03    0.342E-02
RMM:   5    -0.232683690111E+04    0.41241E-05   -0.44701E-05  2952   0.525E-03
  49 F= -.23482547E+04 E0= -.23482547E+04  d E =-.148467E-02  mag=     2.9999
       N       E                     dE             d eps       ncg     rms          rms(c)
DAV:   1    -0.232683448091E+04    0.24243E-02   -0.33666E-01  4528   0.630E-01    0.158E-01
RMM:   2    -0.232683775793E+04   -0.32770E-02   -0.34743E-02  6323   0.122E-01    0.114E-01
RMM:   3    -0.232683801602E+04   -0.25809E-03   -0.35663E-03  5606   0.450E-02    0.118E-01
RMM:   4    -0.232683786061E+04    0.15541E-03   -0.34841E-04  3258   0.109E-02    0.521E-02
RMM:   5    -0.232683785758E+04    0.30281E-05   -0.10933E-04  3048   0.789E-03    0.505E-02
RMM:   6    -0.232683782872E+04    0.28865E-04   -0.91114E-05  3372   0.768E-03    0.173E-02
RMM:   7    -0.232683782888E+04   -0.16793E-06   -0.15091E-05  2946   0.517E-03
  50 F= -.23482559E+04 E0= -.23482559E+04  d E =-.112331E-02  mag=     2.9999
       N       E                     dE             d eps       ncg     rms          rms(c)
DAV:   1    -0.232683584014E+04    0.19886E-02   -0.20127E-01  4544   0.487E-01    0.123E-01
RMM:   2    -0.232683780766E+04   -0.19675E-02   -0.20985E-02  6268   0.942E-02    0.834E-02
RMM:   3    -0.232683796795E+04   -0.16029E-03   -0.20878E-03  5062   0.358E-02    0.917E-02
RMM:   4    -0.232683787629E+04    0.91657E-04   -0.20721E-04  3045   0.879E-03    0.398E-02
RMM:   5    -0.232683787066E+04    0.56328E-05   -0.59011E-05  2959   0.612E-03
  51 F= -.23482561E+04 E0= -.23482561E+04  d E =-.131701E-02  mag=     3.0000
       N       E                     dE             d eps       ncg     rms          rms(c)
DAV:   1    -0.232683458329E+04    0.32930E-02   -0.42252E-01  4512   0.729E-01    0.199E-01
RMM:   2    -0.232683850249E+04   -0.39192E-02   -0.41201E-02  6096   0.139E-01    0.129E-01
RMM:   3    -0.232683888070E+04   -0.37821E-03   -0.43449E-03  5810   0.575E-02    0.155E-01
RMM:   4    -0.232683855352E+04    0.32718E-03   -0.45375E-04  4186   0.137E-02    0.515E-02
RMM:   5    -0.232683854055E+04    0.12968E-04   -0.16225E-04  4029   0.101E-02    0.502E-02
RMM:   6    -0.232683851641E+04    0.24137E-04   -0.72538E-05  3040   0.725E-03    0.279E-02
RMM:   7    -0.232683850886E+04    0.75499E-05   -0.19195E-05  2922   0.523E-03
  52 F= -.23482571E+04 E0= -.23482571E+04  d E =-.107302E-02  mag=     3.0000
       N       E                     dE             d eps       ncg     rms          rms(c)
DAV:   1    -0.232683805444E+04    0.46197E-03   -0.30605E-02  4896   0.196E-01    0.541E-02
RMM:   2    -0.232683834165E+04   -0.28721E-03   -0.30544E-03  6276   0.391E-02    0.308E-02
RMM:   3    -0.232683836858E+04   -0.26935E-04   -0.31139E-04  3224   0.141E-02    0.387E-02
RMM:   4    -0.232683834926E+04    0.19319E-04   -0.34337E-05  2941   0.499E-03    0.144E-02
RMM:   5    -0.232683834678E+04    0.24890E-05   -0.11351E-05  2913   0.315E-03
  53 F= -.23482571E+04 E0= -.23482571E+04  d E =-.102868E-02  mag=     3.0000
       N       E                     dE             d eps       ncg     rms          rms(c)
DAV:   1    -0.232683412430E+04    0.42250E-02   -0.41322E-01  4512   0.710E-01    0.173E-01
RMM:   2    -0.232683868185E+04   -0.45576E-02   -0.46703E-02  6104   0.136E-01    0.149E-01
RMM:   3    -0.232683890698E+04   -0.22513E-03   -0.50407E-03  5680   0.547E-02    0.124E-01
RMM:   4    -0.232683870119E+04    0.20580E-03   -0.46852E-04  3703   0.122E-02    0.534E-02
RMM:   5    -0.232683869155E+04    0.96347E-05   -0.12082E-04  3133   0.808E-03    0.546E-02
RMM:   6    -0.232683865056E+04    0.40991E-04   -0.10745E-04  3834   0.805E-03    0.211E-02
RMM:   7    -0.232683865119E+04   -0.63253E-06   -0.25487E-05  2933   0.558E-03
  54 F= -.23482578E+04 E0= -.23482578E+04  d E =-.723624E-03  mag=     3.0000
       N       E                     dE             d eps       ncg     rms          rms(c)
DAV:   1    -0.232683830118E+04    0.34938E-03   -0.21533E-02  4904   0.163E-01    0.417E-02
RMM:   2    -0.232683854287E+04   -0.24169E-03   -0.25154E-03  6207   0.328E-02    0.340E-02
RMM:   3    -0.232683855759E+04   -0.14724E-04   -0.27538E-04  3022   0.123E-02    0.309E-02
RMM:   4    -0.232683854555E+04    0.12049E-04   -0.26983E-05  2947   0.425E-03    0.127E-02
RMM:   5    -0.232683854490E+04    0.64405E-06   -0.70256E-06  2895   0.217E-03
  55 F= -.23482578E+04 E0= -.23482578E+04  d E =-.713944E-03  mag=     3.0000
       N       E                     dE             d eps       ncg     rms          rms(c)
DAV:   1    -0.232683770470E+04    0.84085E-03   -0.15517E-01  4512   0.432E-01    0.131E-01
RMM:   2    -0.232683903101E+04   -0.13263E-02   -0.13384E-02  5978   0.812E-02    0.114E-01
RMM:   3    -0.232683905395E+04   -0.22934E-04   -0.13968E-03  4593   0.328E-02    0.101E-01
RMM:   4    -0.232683891937E+04    0.13457E-03   -0.16676E-04  3449   0.934E-03    0.392E-02
RMM:   5    -0.232683891685E+04    0.25199E-05   -0.78243E-05  3069   0.728E-03
  56 F= -.23482584E+04 E0= -.23482584E+04  d E =-.554242E-03  mag=     3.0000
       N       E                     dE             d eps       ncg     rms          rms(c)
DAV:   1    -0.232683885380E+04    0.65571E-04   -0.10372E-03  5616   0.379E-02    0.136E-02
RMM:   2    -0.232683886283E+04   -0.90287E-05   -0.11287E-04  3402   0.859E-03    0.103E-02
RMM:   3    -0.232683886364E+04   -0.80511E-06   -0.14231E-05  2743   0.521E-03
  57 F= -.23482583E+04 E0= -.23482583E+04  d E =-.517294E-03  mag=     3.0000
       N       E                     dE             d eps       ncg     rms          rms(c)
DAV:   1    -0.232683743063E+04    0.14322E-02   -0.16328E-01  4544   0.431E-01    0.119E-01
RMM:   2    -0.232683921151E+04   -0.17809E-02   -0.17345E-02  6099   0.832E-02    0.132E-01
RMM:   3    -0.232683917399E+04    0.37520E-04   -0.17326E-03  4544   0.317E-02    0.841E-02
RMM:   4    -0.232683909806E+04    0.75927E-04   -0.19798E-04  3038   0.853E-03    0.407E-02
RMM:   5    -0.232683908783E+04    0.10235E-04   -0.53893E-05  3002   0.566E-03    0.354E-02
RMM:   6    -0.232683907229E+04    0.15541E-04   -0.49310E-05  3188   0.599E-03    0.127E-02
RMM:   7    -0.232683907415E+04   -0.18664E-05   -0.13237E-05  2911   0.468E-03
  58 F= -.23482587E+04 E0= -.23482587E+04  d E =-.425830E-03  mag=     3.0000
       N       E                     dE             d eps       ncg     rms          rms(c)
DAV:   1    -0.232683888790E+04    0.18438E-03   -0.12158E-02  4776   0.118E-01    0.338E-02
RMM:   2    -0.232683902245E+04   -0.13455E-03   -0.13291E-03  5993   0.238E-02    0.349E-02
RMM:   3    -0.232683902257E+04   -0.11873E-06   -0.13562E-04  2946   0.934E-03    0.249E-02
RMM:   4    -0.232683901624E+04    0.63282E-05   -0.16024E-05  2941   0.315E-03
  59 F= -.23482587E+04 E0= -.23482587E+04  d E =-.427142E-03  mag=     3.0000
       N       E                     dE             d eps       ncg     rms          rms(c)
DAV:   1    -0.232683817188E+04    0.85069E-03   -0.10953E-01  4544   0.369E-01    0.110E-01
RMM:   2    -0.232683913014E+04   -0.95826E-03   -0.10134E-02  6053   0.710E-02    0.747E-02
RMM:   3    -0.232683920765E+04   -0.77513E-04   -0.10789E-03  4581   0.295E-02    0.886E-02
RMM:   4    -0.232683911080E+04    0.96847E-04   -0.11664E-04  3005   0.811E-03    0.303E-02
RMM:   5    -0.232683910932E+04    0.14877E-05   -0.54814E-05  3013   0.639E-03
  60 F= -.23482591E+04 E0= -.23482590E+04  d E =-.308360E-03  mag=     3.0000
       N       E                     dE             d eps       ncg     rms          rms(c)
DAV:   1    -0.232683909787E+04    0.12933E-04   -0.59952E-05  4720   0.126E-02    0.115E-02
RMM:   2    -0.232683910672E+04   -0.88447E-05   -0.24466E-05  2858   0.415E-03
  61 F= -.23482590E+04 E0= -.23482590E+04  d E =-.304400E-03  mag=     3.0000
       N       E                     dE             d eps       ncg     rms          rms(c)
DAV:   1    -0.232683813492E+04    0.96295E-03   -0.10210E-01  4544   0.346E-01    0.897E-02
RMM:   2    -0.232683914501E+04   -0.10101E-02   -0.10608E-02  6221   0.682E-02    0.608E-02
RMM:   3    -0.232683922144E+04   -0.76431E-04   -0.10470E-03  4293   0.263E-02    0.680E-02
RMM:   4    -0.232683916611E+04    0.55332E-04   -0.10491E-04  2973   0.725E-03    0.276E-02
RMM:   5    -0.232683916202E+04    0.40909E-05   -0.36263E-05  2958   0.520E-03
  62 F= -.23482593E+04 E0= -.23482593E+04  d E =-.294450E-03  mag=     3.0000
       N       E                     dE             d eps       ncg     rms          rms(c)
DAV:   1    -0.232683878945E+04    0.37666E-03   -0.25216E-02  4576   0.173E-01    0.473E-02
RMM:   2    -0.232683906016E+04   -0.27071E-03   -0.27002E-03  6315   0.362E-02    0.456E-02
RMM:   3    -0.232683905996E+04    0.19527E-06   -0.27322E-04  3138   0.126E-02    0.337E-02
RMM:   4    -0.232683904507E+04    0.14900E-04   -0.28697E-05  2944   0.482E-03    0.143E-02
RMM:   5    -0.232683904623E+04   -0.11657E-05   -0.13414E-05  2924   0.297E-03
  63 F= -.23482593E+04 E0= -.23482593E+04  d E =-.298883E-03  mag=     3.0000
       N       E                     dE             d eps       ncg     rms          rms(c)
DAV:   1    -0.232683830614E+04    0.73893E-03   -0.91819E-02  4512   0.322E-01    0.855E-02
RMM:   2    -0.232683917802E+04   -0.87189E-03   -0.86489E-03  6123   0.623E-02    0.818E-02
RMM:   3    -0.232683919820E+04   -0.20174E-04   -0.86584E-04  4118   0.236E-02    0.660E-02
RMM:   4    -0.232683914005E+04    0.58146E-04   -0.88197E-05  2985   0.706E-03    0.245E-02
RMM:   5    -0.232683914312E+04   -0.30678E-05   -0.39523E-05  2975   0.522E-03
  64 F= -.23482596E+04 E0= -.23482596E+04  d E =-.282890E-03  mag=     3.0000
       N       E                     dE             d eps       ncg     rms          rms(c)
DAV:   1    -0.232683887379E+04    0.26626E-03   -0.19443E-02  4680   0.148E-01    0.403E-02
RMM:   2    -0.232683905872E+04   -0.18493E-03   -0.18720E-03  6246   0.309E-02    0.354E-02
RMM:   3    -0.232683906640E+04   -0.76760E-05   -0.19912E-04  3029   0.109E-02    0.316E-02
RMM:   4    -0.232683905275E+04    0.13650E-04   -0.20296E-05  2937   0.425E-03    0.116E-02
RMM:   5    -0.232683905107E+04    0.16815E-05   -0.10359E-05  2919   0.285E-03
  65 F= -.23482596E+04 E0= -.23482596E+04  d E =-.277356E-03  mag=     3.0000
       N       E                     dE             d eps       ncg     rms          rms(c)
DAV:   1    -0.232683844010E+04    0.61265E-03   -0.75580E-02  4512   0.283E-01    0.787E-02
RMM:   2    -0.232683924015E+04   -0.80005E-03   -0.76957E-03  6293   0.557E-02    0.913E-02
RMM:   3    -0.232683922353E+04    0.16628E-04   -0.81153E-04  3785   0.211E-02    0.557E-02
RMM:   4    -0.232683918242E+04    0.41108E-04   -0.78747E-05  2980   0.641E-03    0.218E-02
RMM:   5    -0.232683918425E+04   -0.18303E-05   -0.30399E-05  2962   0.451E-03
  66 F= -.23482599E+04 E0= -.23482599E+04  d E =-.277208E-03  mag=     3.0000
       N       E                     dE             d eps       ncg     rms          rms(c)
DAV:   1    -0.232683829221E+04    0.89021E-03   -0.79677E-02  4512   0.290E-01    0.796E-02
RMM:   2    -0.232683910599E+04   -0.81378E-03   -0.81083E-03  6433   0.581E-02    0.783E-02
RMM:   3    -0.232683912765E+04   -0.21653E-04   -0.86667E-04  3747   0.211E-02    0.603E-02
RMM:   4    -0.232683907857E+04    0.49075E-04   -0.85053E-05  2986   0.689E-03    0.227E-02
RMM:   5    -0.232683906982E+04    0.87504E-05   -0.34289E-05  3014   0.514E-03
  67 F= -.23482599E+04 E0= -.23482599E+04  d E =-.311660E-03  mag=     3.0000
       N       E                     dE             d eps       ncg     rms          rms(c)
DAV:   1    -0.232683816092E+04    0.91765E-03   -0.94362E-02  4512   0.309E-01    0.875E-02
RMM:   2    -0.232683915562E+04   -0.99470E-03   -0.10015E-02  6424   0.633E-02    0.782E-02
RMM:   3    -0.232683920732E+04   -0.51706E-04   -0.10779E-03  3937   0.233E-02    0.675E-02
RMM:   4    -0.232683914788E+04    0.59446E-04   -0.10538E-04  2985   0.729E-03    0.242E-02
RMM:   5    -0.232683914031E+04    0.75718E-05   -0.33749E-05  2980   0.498E-03
  68 F= -.23482602E+04 E0= -.23482602E+04  d E =-.267960E-03  mag=     3.0000
       N       E                     dE             d eps       ncg     rms          rms(c)
DAV:   1    -0.232683788512E+04    0.12628E-02   -0.10419E-01  4512   0.325E-01    0.921E-02
RMM:   2    -0.232683898267E+04   -0.10975E-02   -0.11053E-02  6422   0.662E-02    0.828E-02
RMM:   3    -0.232683903841E+04   -0.55736E-04   -0.12029E-03  4065   0.249E-02    0.705E-02
RMM:   4    -0.232683897403E+04    0.64383E-04   -0.11618E-04  2987   0.751E-03    0.261E-02
RMM:   5    -0.232683896553E+04    0.84970E-05   -0.39560E-05  2980   0.540E-03
  69 F= -.23482602E+04 E0= -.23482602E+04  d E =-.301084E-03  mag=     3.0000
       N       E                     dE             d eps       ncg     rms          rms(c)
DAV:   1    -0.232683832078E+04    0.65325E-03   -0.59364E-02  4512   0.240E-01    0.677E-02
RMM:   2    -0.232683900915E+04   -0.68838E-03   -0.70620E-03  6487   0.513E-02    0.542E-02
RMM:   3    -0.232683906214E+04   -0.52984E-04   -0.77791E-04  3429   0.187E-02    0.521E-02
RMM:   4    -0.232683903135E+04    0.30784E-04   -0.74676E-05  2967   0.614E-03    0.207E-02
RMM:   5    -0.232683902796E+04    0.33924E-05   -0.20741E-05  2920   0.373E-03
  70 F= -.23482605E+04 E0= -.23482605E+04  d E =-.235414E-03  mag=     3.0000
       N       E                     dE             d eps       ncg     rms          rms(c)
DAV:   1    -0.232683519121E+04    0.38401E-02   -0.30952E-01  4512   0.548E-01    0.154E-01
RMM:   2    -0.232683883766E+04   -0.36464E-02   -0.36614E-02  6426   0.113E-01    0.147E-01
RMM:   3    -0.232683901482E+04   -0.17716E-03   -0.39060E-03  5313   0.413E-02    0.118E-01
RMM:   4    -0.232683884930E+04    0.16552E-03   -0.37220E-04  3138   0.103E-02    0.446E-02
RMM:   5    -0.232683882063E+04    0.28664E-04   -0.89237E-05  3364   0.767E-03    0.192E-02
RMM:   6    -0.232683882590E+04   -0.52638E-05   -0.39989E-05  2976   0.644E-03
  71 F= -.23482607E+04 E0= -.23482607E+04  d E =-.427097E-03  mag=     3.0000
       N       E                     dE             d eps       ncg     rms          rms(c)
DAV:   1    -0.232683776014E+04    0.10605E-02   -0.10130E-01  4512   0.315E-01    0.964E-02
RMM:   2    -0.232683899531E+04   -0.12352E-02   -0.12689E-02  6417   0.673E-02    0.762E-02
RMM:   3    -0.232683909312E+04   -0.97806E-04   -0.13905E-03  4093   0.248E-02    0.768E-02
RMM:   4    -0.232683902490E+04    0.68217E-04   -0.13849E-04  2987   0.725E-03    0.274E-02
RMM:   5    -0.232683902198E+04    0.29193E-05   -0.34249E-05  2979   0.459E-03
  72 F= -.23482611E+04 E0= -.23482611E+04  d E =-.400625E-03  mag=     3.0000
       N       E                     dE             d eps       ncg     rms          rms(c)
DAV:   1    -0.232683725808E+04    0.17668E-02   -0.13512E-01  4512   0.364E-01    0.111E-01
RMM:   2    -0.232683892510E+04   -0.16670E-02   -0.16872E-02  6458   0.776E-02    0.996E-02
RMM:   3    -0.232683901729E+04   -0.92191E-04   -0.18571E-03  4370   0.281E-02    0.853E-02
RMM:   4    -0.232683892989E+04    0.87398E-04   -0.17939E-04  3024   0.810E-03    0.332E-02
RMM:   5    -0.232683893118E+04   -0.12850E-05   -0.56922E-05  2994   0.578E-03
  73 F= -.23482612E+04 E0= -.23482612E+04  d E =-.546547E-03  mag=     3.0000
       N       E                     dE             d eps       ncg     rms          rms(c)
DAV:   1    -0.232683781243E+04    0.11175E-02   -0.10024E-01  4512   0.312E-01    0.936E-02
RMM:   2    -0.232683901162E+04   -0.11992E-02   -0.12320E-02  6462   0.669E-02    0.732E-02
RMM:   3    -0.232683910693E+04   -0.95313E-04   -0.13475E-03  3946   0.247E-02    0.736E-02
RMM:   4    -0.232683904092E+04    0.66016E-04   -0.13208E-04  2994   0.751E-03    0.278E-02
RMM:   5    -0.232683903826E+04    0.26571E-05   -0.41918E-05  2968   0.516E-03
  74 F= -.23482615E+04 E0= -.23482615E+04  d E =-.300706E-03  mag=     3.0000
       N       E                     dE             d eps       ncg     rms          rms(c)
DAV:   1    -0.232683801436E+04    0.10266E-02   -0.73657E-02  4544   0.268E-01    0.808E-02
RMM:   2    -0.232683890537E+04   -0.89101E-03   -0.90943E-03  6453   0.574E-02    0.667E-02
RMM:   3    -0.232683896518E+04   -0.59809E-04   -0.99464E-04  3657   0.213E-02    0.617E-02
RMM:   4    -0.232683891700E+04    0.48180E-04   -0.99240E-05  2982   0.686E-03    0.245E-02
RMM:   5    -0.232683891716E+04   -0.16304E-06   -0.32723E-05  2947   0.442E-03
  75 F= -.23482616E+04 E0= -.23482616E+04  d E =-.345874E-03  mag=     3.0000
       N       E                     dE             d eps       ncg     rms          rms(c)
DAV:   1    -0.232683775910E+04    0.11579E-02   -0.98721E-02  4512   0.303E-01    0.897E-02
RMM:   2    -0.232683897483E+04   -0.12157E-02   -0.12195E-02  6458   0.635E-02    0.854E-02
RMM:   3    -0.232683903417E+04   -0.59343E-04   -0.13245E-03  3877   0.237E-02    0.682E-02
RMM:   4    -0.232683897612E+04    0.58055E-04   -0.12783E-04  2996   0.714E-03    0.260E-02
RMM:   5    -0.232683897135E+04    0.47710E-05   -0.36540E-05  2969   0.484E-03
  76 F= -.23482618E+04 E0= -.23482618E+04  d E =-.285919E-03  mag=     3.0000
       N       E                     dE             d eps       ncg     rms          rms(c)
DAV:   1    -0.232683484547E+04    0.41306E-02   -0.31537E-01  4512   0.541E-01    0.160E-01
RMM:   2    -0.232683872892E+04   -0.38834E-02   -0.38814E-02  6438   0.112E-01    0.155E-01
RMM:   3    -0.232683890254E+04   -0.17363E-03   -0.41977E-03  5413   0.423E-02    0.121E-01
RMM:   4    -0.232683871450E+04    0.18804E-03   -0.40192E-04  3178   0.105E-02    0.460E-02
RMM:   5    -0.232683870482E+04    0.96838E-05   -0.11158E-04  3273   0.790E-03    0.421E-02
RMM:   6    -0.232683868520E+04    0.19616E-04   -0.61051E-05  3075   0.659E-03    0.202E-02
RMM:   7    -0.232683868204E+04    0.31654E-05   -0.14804E-05  2933   0.446E-03
  77 F= -.23482620E+04 E0= -.23482620E+04  d E =-.410468E-03  mag=     3.0000
       N       E                     dE             d eps       ncg     rms          rms(c)
DAV:   1    -0.232683794893E+04    0.73627E-03   -0.67917E-02  4576   0.245E-01    0.746E-02
RMM:   2    -0.232683880408E+04   -0.85515E-03   -0.83985E-03  6467   0.522E-02    0.812E-02
RMM:   3    -0.232683881838E+04   -0.14300E-04   -0.89007E-04  3448   0.191E-02    0.541E-02
RMM:   4    -0.232683878314E+04    0.35242E-04   -0.86392E-05  2982   0.612E-03    0.203E-02
RMM:   5    -0.232683878018E+04    0.29552E-05   -0.20135E-05  2942   0.364E-03
  78 F= -.23482623E+04 E0= -.23482623E+04  d E =-.289947E-03  mag=     3.0000
       N       E                     dE             d eps       ncg     rms          rms(c)
DAV:   1    -0.232683109259E+04    0.76905E-02   -0.61147E-01  4512   0.736E-01    0.219E-01
RMM:   2    -0.232683870367E+04   -0.76111E-02   -0.74768E-02  6405   0.153E-01    0.239E-01
RMM:   3    -0.232683886764E+04   -0.16397E-03   -0.80510E-03  5720   0.567E-02    0.159E-01
RMM:   4    -0.232683856025E+04    0.30739E-03   -0.74831E-04  3653   0.135E-02    0.624E-02
RMM:   5    -0.232683854571E+04    0.14542E-04   -0.19504E-04  3705   0.954E-03    0.586E-02
RMM:   6    -0.232683850687E+04    0.38840E-04   -0.11901E-04  3255   0.807E-03    0.254E-02
RMM:   7    -0.232683849987E+04    0.69997E-05   -0.20199E-05  2956   0.519E-03
  79 F= -.23482626E+04 E0= -.23482626E+04  d E =-.586157E-03  mag=     3.0000
       N       E                     dE             d eps       ncg     rms          rms(c)
DAV:   1    -0.232683729515E+04    0.12117E-02   -0.11714E-01  4512   0.328E-01    0.103E-01
RMM:   2    -0.232683873408E+04   -0.14389E-02   -0.14039E-02  6409   0.696E-02    0.110E-01
RMM:   3    -0.232683875035E+04   -0.16268E-04   -0.14904E-03  4238   0.262E-02    0.750E-02
RMM:   4    -0.232683868214E+04    0.68211E-04   -0.14072E-04  3002   0.743E-03    0.269E-02
RMM:   5    -0.232683868024E+04    0.18922E-05   -0.37834E-05  2991   0.508E-03
  80 F= -.23482630E+04 E0= -.23482630E+04  d E =-.406538E-03  mag=     3.0000
       N       E                     dE             d eps       ncg     rms          rms(c)
DAV:   1    -0.232683606912E+04    0.26130E-02   -0.20706E-01  4512   0.436E-01    0.135E-01
RMM:   2    -0.232683857031E+04   -0.25012E-02   -0.24649E-02  6403   0.924E-02    0.138E-01
RMM:   3    -0.232683863558E+04   -0.65273E-04   -0.27015E-03  4985   0.348E-02    0.999E-02
RMM:   4    -0.232683851757E+04    0.11801E-03   -0.24618E-04  3076   0.897E-03    0.373E-02
RMM:   5    -0.232683851728E+04    0.29258E-06   -0.76493E-05  3090   0.675E-03
  81 F= -.23482631E+04 E0= -.23482631E+04  d E =-.545673E-03  mag=     3.0000
       N       E                     dE             d eps       ncg     rms          rms(c)
DAV:   1    -0.232683711846E+04    0.13991E-02   -0.12329E-01  4512   0.334E-01    0.104E-01
RMM:   2    -0.232683862155E+04   -0.15031E-02   -0.15165E-02  6511   0.726E-02    0.951E-02
RMM:   3    -0.232683870193E+04   -0.80385E-04   -0.17102E-03  4242   0.271E-02    0.793E-02
RMM:   4    -0.232683862854E+04    0.73392E-04   -0.14886E-04  2973   0.766E-03    0.286E-02
RMM:   5    -0.232683862017E+04    0.83692E-05   -0.46634E-05  3021   0.554E-03
  82 F= -.23482634E+04 E0= -.23482634E+04  d E =-.309456E-03  mag=     3.0000
       N       E                     dE             d eps       ncg     rms          rms(c)
DAV:   1    -0.232683686314E+04    0.17654E-02   -0.13246E-01  4512   0.346E-01    0.108E-01
RMM:   2    -0.232683846822E+04   -0.16051E-02   -0.16281E-02  6467   0.747E-02    0.935E-02
RMM:   3    -0.232683855899E+04   -0.90763E-04   -0.18056E-03  4331   0.281E-02    0.796E-02
RMM:   4    -0.232683848439E+04    0.74596E-04   -0.16195E-04  2977   0.784E-03    0.304E-02
RMM:   5    -0.232683848218E+04    0.22152E-05   -0.51402E-05  2998   0.550E-03
  83 F= -.23482635E+04 E0= -.23482635E+04  d E =-.385523E-03  mag=     3.0000
       N       E                     dE             d eps       ncg     rms          rms(c)
DAV:   1    -0.232683667662E+04    0.18078E-02   -0.15409E-01  4512   0.367E-01    0.115E-01
RMM:   2    -0.232683851223E+04   -0.18356E-02   -0.18829E-02  6472   0.795E-02    0.926E-02
RMM:   3    -0.232683865300E+04   -0.14077E-03   -0.20605E-03  4423   0.297E-02    0.915E-02
RMM:   4    -0.232683855590E+04    0.97104E-04   -0.19427E-04  3013   0.835E-03    0.338E-02
RMM:   5    -0.232683854768E+04    0.82161E-05   -0.57378E-05  3025   0.608E-03
  84 F= -.23482638E+04 E0= -.23482638E+04  d E =-.320317E-03  mag=     3.0000
       N       E                     dE             d eps       ncg     rms          rms(c)
DAV:   1    -0.232683793618E+04    0.61972E-03   -0.39530E-02  4608   0.186E-01    0.616E-02
RMM:   2    -0.232683843219E+04   -0.49601E-03   -0.48968E-03  6440   0.416E-02    0.646E-02
RMM:   3    -0.232683844142E+04   -0.92267E-05   -0.60462E-04  3106   0.157E-02    0.434E-02
RMM:   4    -0.232683842005E+04    0.21370E-04   -0.51021E-05  2953   0.530E-03    0.171E-02
RMM:   5    -0.232683842394E+04   -0.38943E-05   -0.19792E-05  2953   0.323E-03
  85 F= -.23482638E+04 E0= -.23482638E+04  d E =-.326452E-03  mag=     3.0000
       N       E                     dE             d eps       ncg     rms          rms(c)
DAV:   1    -0.232683673212E+04    0.16879E-02   -0.14943E-01  4512   0.359E-01    0.117E-01
RMM:   2    -0.232683848031E+04   -0.17482E-02   -0.17629E-02  6329   0.764E-02    0.104E-01
RMM:   3    -0.232683859396E+04   -0.11365E-03   -0.19891E-03  4441   0.295E-02    0.943E-02
RMM:   4    -0.232683848417E+04    0.10979E-03   -0.18435E-04  3042   0.837E-03    0.317E-02
RMM:   5    -0.232683847916E+04    0.50088E-05   -0.59304E-05  3088   0.597E-03
  86 F= -.23482641E+04 E0= -.23482641E+04  d E =-.312680E-03  mag=     3.0000
       N       E                     dE             d eps       ncg     rms          rms(c)
DAV:   1    -0.232683790254E+04    0.58164E-03   -0.36763E-02  4576   0.179E-01    0.595E-02
RMM:   2    -0.232683833888E+04   -0.43634E-03   -0.44499E-03  6388   0.398E-02    0.502E-02
RMM:   3    -0.232683836577E+04   -0.26894E-04   -0.50368E-04  3180   0.150E-02    0.445E-02
RMM:   4    -0.232683834287E+04    0.22898E-04   -0.48696E-05  2955   0.532E-03    0.179E-02
RMM:   5    -0.232683834417E+04   -0.12960E-05   -0.19487E-05  2916   0.316E-03
  87 F= -.23482641E+04 E0= -.23482641E+04  d E =-.306487E-03  mag=     3.0000
       N       E                     dE             d eps       ncg     rms          rms(c)
DAV:   1    -0.232683623904E+04    0.21038E-02   -0.16742E-01  4512   0.379E-01    0.123E-01
RMM:   2    -0.232683833749E+04   -0.20985E-02   -0.21311E-02  6241   0.805E-02    0.103E-01
RMM:   3    -0.232683848007E+04   -0.14258E-03   -0.22423E-03  4545   0.314E-02    0.978E-02
RMM:   4    -0.232683835893E+04    0.12115E-03   -0.22259E-04  3047   0.870E-03    0.340E-02
RMM:   5    -0.232683834456E+04    0.14366E-04   -0.64425E-05  3137   0.630E-03    0.210E-02
RMM:   6    -0.232683834757E+04   -0.30139E-05   -0.30694E-05  2932   0.531E-03
  88 F= -.23482644E+04 E0= -.23482644E+04  d E =-.301766E-03  mag=     3.0000
       N       E                     dE             d eps       ncg     rms          rms(c)
DAV:   1    -0.232683783792E+04    0.50664E-03   -0.29357E-02  4608   0.159E-01    0.530E-02
RMM:   2    -0.232683821184E+04   -0.37392E-03   -0.38089E-03  6222   0.345E-02    0.442E-02
RMM:   3    -0.232683823887E+04   -0.27027E-04   -0.40669E-04  3041   0.132E-02    0.432E-02
RMM:   4    -0.232683821636E+04    0.22510E-04   -0.41496E-05  2945   0.459E-03    0.146E-02
RMM:   5    -0.232683821616E+04    0.20122E-06   -0.11155E-05  2893   0.251E-03
  89 F= -.23482644E+04 E0= -.23482644E+04  d E =-.296001E-03  mag=     3.0000
       N       E                     dE             d eps       ncg     rms          rms(c)
DAV:   1    -0.232683572768E+04    0.24887E-02   -0.18720E-01  4512   0.404E-01    0.136E-01
RMM:   2    -0.232683822172E+04   -0.24940E-02   -0.25026E-02  6214   0.876E-02    0.122E-01
[...]
RMM:   3    -0.232683698682E+04    0.39411E-06   -0.21889E-05  2817   0.527E-03
 124 F= -.23482675E+04 E0= -.23482675E+04  d E =-.539287E-04  mag=     3.0000
       N       E                     dE             d eps       ncg     rms          rms(c)
DAV:   1    -0.232683681165E+04    0.17557E-03   -0.16700E-02  4512   0.125E-01    0.385E-02
RMM:   2    -0.232683696467E+04   -0.15303E-03   -0.15528E-03  6069   0.263E-02    0.304E-02
RMM:   3    -0.232683697243E+04   -0.77620E-05   -0.14602E-04  2958   0.954E-03    0.311E-02
RMM:   4    -0.232683696048E+04    0.11952E-04   -0.17775E-05  2929   0.358E-03    0.123E-02
RMM:   5    -0.232683696090E+04   -0.41391E-06   -0.79900E-06  2847   0.221E-03
 125 F= -.23482675E+04 E0= -.23482675E+04  d E =-.607207E-04  mag=     3.0000
       N       E                     dE             d eps       ncg     rms          rms(c)
DAV:   1    -0.232683685140E+04    0.10908E-03   -0.65423E-03  4592   0.786E-02    0.246E-02
RMM:   2    -0.232683691282E+04   -0.61418E-04   -0.61178E-04  5634   0.167E-02    0.218E-02
RMM:   3    -0.232683691467E+04   -0.18533E-05   -0.61561E-05  2926   0.641E-03
 126 F= -.23482675E+04 E0= -.23482675E+04  d E =-.692648E-04  mag=     3.0000
       N       E                     dE             d eps       ncg     rms          rms(c)
DAV:   1    -0.232683671808E+04    0.19474E-03   -0.19015E-02  4512   0.135E-01    0.439E-02
RMM:   2    -0.232683690329E+04   -0.18522E-03   -0.18578E-03  6067   0.281E-02    0.371E-02
RMM:   3    -0.232683690827E+04   -0.49748E-05   -0.17080E-04  2997   0.102E-02    0.344E-02
RMM:   4    -0.232683689284E+04    0.15424E-04   -0.21169E-05  2935   0.388E-03    0.137E-02
RMM:   5    -0.232683689378E+04   -0.93554E-06   -0.11031E-05  2842   0.252E-03
 127 F= -.23482676E+04 E0= -.23482676E+04  d E =-.664680E-04  mag=     3.0000
       N       E                     dE             d eps       ncg     rms          rms(c)
DAV:   1    -0.232683679173E+04    0.10112E-03   -0.55641E-03  4640   0.733E-02    0.238E-02
RMM:   2    -0.232683684567E+04   -0.53936E-04   -0.54160E-04  5449   0.157E-02    0.198E-02
RMM:   3    -0.232683684810E+04   -0.24313E-05   -0.57748E-05  2914   0.650E-03
 128 F= -.23482676E+04 E0= -.23482676E+04  d E =-.686543E-04  mag=     3.0000
       N       E                     dE             d eps       ncg     rms          rms(c)
DAV:   1    -0.232683660379E+04    0.24187E-03   -0.19980E-02  4512   0.137E-01    0.442E-02
RMM:   2    -0.232683682288E+04   -0.21908E-03   -0.22031E-03  6113   0.296E-02    0.377E-02
RMM:   3    -0.232683683145E+04   -0.85712E-05   -0.21524E-04  3010   0.111E-02    0.346E-02
RMM:   4    -0.232683681651E+04    0.14942E-04   -0.25180E-05  2946   0.396E-03    0.142E-02
RMM:   5    -0.232683681745E+04   -0.94691E-06   -0.10889E-05  2857   0.253E-03
 129 F= -.23482677E+04 E0= -.23482677E+04  d E =-.542494E-04  mag=     3.0000
       N       E                     dE             d eps       ncg     rms          rms(c)
DAV:   1    -0.232683672067E+04    0.95835E-04   -0.47796E-03  4608   0.674E-02    0.220E-02
RMM:   2    -0.232683677382E+04   -0.53148E-04   -0.53294E-04  5290   0.151E-02    0.193E-02
RMM:   3    -0.232683677578E+04   -0.19633E-05   -0.56245E-05  2917   0.624E-03
 130 F= -.23482677E+04 E0= -.23482677E+04  d E =-.546450E-04  mag=     3.0000
       N       E                     dE             d eps       ncg     rms          rms(c)
DAV:   1    -0.232683649281E+04    0.28101E-03   -0.20750E-02  4512   0.142E-01    0.468E-02
RMM:   2    -0.232683673853E+04   -0.24572E-03   -0.24977E-03  6116   0.315E-02    0.373E-02
RMM:   3    -0.232683675311E+04   -0.14575E-04   -0.24732E-04  3048   0.119E-02    0.378E-02
RMM:   4    -0.232683673583E+04    0.17277E-04   -0.28629E-05  2943   0.416E-03    0.148E-02
RMM:   5    -0.232683673640E+04   -0.57122E-06   -0.11709E-05  2887   0.268E-03
 131 F= -.23482677E+04 E0= -.23482677E+04  d E =-.641882E-04  mag=     3.0000
       N       E                     dE             d eps       ncg     rms          rms(c)
DAV:   1    -0.232683669415E+04    0.41678E-04   -0.11120E-03  5096   0.333E-02    0.121E-02
RMM:   2    -0.232683670931E+04   -0.15161E-04   -0.14212E-04  3572   0.814E-03    0.134E-02
RMM:   3    -0.232683670843E+04    0.88426E-06   -0.17770E-05  2610   0.467E-03
 132 F= -.23482677E+04 E0= -.23482677E+04  d E =-.607858E-04  mag=     3.0000
       N       E                     dE             d eps       ncg     rms          rms(c)
DAV:   1    -0.232683641993E+04    0.28938E-03   -0.18524E-02  4512   0.134E-01    0.452E-02
RMM:   2    -0.232683665693E+04   -0.23699E-03   -0.24196E-03  6111   0.305E-02    0.351E-02
RMM:   3    -0.232683667409E+04   -0.17162E-04   -0.25273E-04  3034   0.121E-02    0.371E-02
RMM:   4    -0.232683665774E+04    0.16352E-04   -0.27160E-05  2937   0.400E-03    0.135E-02
RMM:   5    -0.232683665785E+04   -0.11626E-06   -0.10306E-05  2892   0.249E-03
 133 F= -.23482678E+04 E0= -.23482678E+04  d E =-.708892E-04  mag=     3.0000
       N       E                     dE             d eps       ncg     rms          rms(c)
DAV:   1    -0.232683654525E+04    0.11249E-03   -0.40812E-03  4592   0.633E-02    0.219E-02
RMM:   2    -0.232683659864E+04   -0.53387E-04   -0.54397E-04  5235   0.152E-02    0.174E-02
RMM:   3    -0.232683660203E+04   -0.33884E-05   -0.56738E-05  2919   0.627E-03
 134 F= -.23482678E+04 E0= -.23482678E+04  d E =-.727834E-04  mag=     3.0000
       N       E                     dE             d eps       ncg     rms          rms(c)
DAV:   1    -0.232683630981E+04    0.28883E-03   -0.18116E-02  4512   0.131E-01    0.440E-02
RMM:   2    -0.232683654395E+04   -0.23414E-03   -0.23821E-03  6106   0.298E-02    0.349E-02
RMM:   3    -0.232683655812E+04   -0.14166E-04   -0.24294E-04  3011   0.113E-02    0.341E-02
RMM:   4    -0.232683654494E+04    0.13178E-04   -0.27584E-05  2946   0.387E-03    0.146E-02
RMM:   5    -0.232683654471E+04    0.22564E-06   -0.98053E-06  2871   0.237E-03
 135 F= -.23482678E+04 E0= -.23482678E+04  d E =-.496328E-04  mag=     3.0000
       N       E                     dE             d eps       ncg     rms          rms(c)
DAV:   1    -0.232683650191E+04    0.43030E-04   -0.10012E-03  5048   0.314E-02    0.115E-02
RMM:   2    -0.232683651631E+04   -0.14405E-04   -0.13916E-04  3554   0.774E-03    0.119E-02
RMM:   3    -0.232683651597E+04    0.34699E-06   -0.17364E-05  2600   0.450E-03
 136 F= -.23482678E+04 E0= -.23482678E+04  d E =-.467243E-04  mag=     3.0000
       N       E                     dE             d eps       ncg     rms          rms(c)
DAV:   1    -0.232683637400E+04    0.14231E-03   -0.12553E-02  4512   0.114E-01    0.395E-02
RMM:   2    -0.232683650970E+04   -0.13570E-03   -0.13930E-03  6007   0.246E-02    0.294E-02
RMM:   3    -0.232683651926E+04   -0.95520E-05   -0.14359E-04  2968   0.101E-02    0.321E-02
RMM:   4    -0.232683650629E+04    0.12963E-04   -0.17929E-05  2921   0.356E-03    0.116E-02
RMM:   5    -0.232683650646E+04   -0.17081E-06   -0.78898E-06  2864   0.229E-03
 137 F= -.23482679E+04 E0= -.23482679E+04  d E =-.501254E-04  mag=     3.0000
       N       E                     dE             d eps       ncg     rms          rms(c)
DAV:   1    -0.232683650183E+04    0.44669E-05   -0.12384E-05  4072   0.517E-03    0.354E-03
RMM:   2    -0.232683650255E+04   -0.72339E-06   -0.37493E-06  2336   0.230E-03
 138 F= -.23482679E+04 E0= -.23482679E+04  d E =-.480868E-04  mag=     3.0000
       N       E                     dE             d eps       ncg     rms          rms(c)
DAV:   1    -0.232683638047E+04    0.12136E-03   -0.90662E-03  4512   0.956E-02    0.337E-02
RMM:   2    -0.232683648153E+04   -0.10106E-03   -0.10250E-03  5962   0.206E-02    0.273E-02
RMM:   3    -0.232683648811E+04   -0.65840E-05   -0.10791E-04  2922   0.849E-03    0.280E-02
RMM:   4    -0.232683647781E+04    0.10299E-04   -0.12522E-05  2895   0.308E-03    0.875E-03
RMM:   5    -0.232683647760E+04    0.21556E-06   -0.55690E-06  2783   0.202E-03
 139 F= -.23482679E+04 E0= -.23482679E+04  d E =-.366390E-04  mag=     3.0000
       N       E                     dE             d eps       ncg     rms          rms(c)
DAV:   1    -0.232683647055E+04    0.72628E-05   -0.53591E-05  5056   0.807E-03    0.439E-03
RMM:   2    -0.232683647186E+04   -0.13154E-05   -0.89003E-06  2474   0.235E-03
 140 F= -.23482679E+04 E0= -.23482679E+04  d E =-.358693E-04  mag=     3.0000
       N       E                     dE             d eps       ncg     rms          rms(c)
DAV:   1    -0.232683637791E+04    0.92635E-04   -0.51880E-03  4528   0.722E-02    0.249E-02
RMM:   2    -0.232683643763E+04   -0.59714E-04   -0.60939E-04  5579   0.160E-02    0.198E-02
RMM:   3    -0.232683644173E+04   -0.41003E-05   -0.64791E-05  2902   0.708E-03
 141 F= -.23482680E+04 E0= -.23482680E+04  d E =-.349266E-04  mag=     3.0000
       N       E                     dE             d eps       ncg     rms          rms(c)
DAV:   1    -0.232683641094E+04    0.26687E-04   -0.49234E-04  4968   0.225E-02    0.108E-02
RMM:   2    -0.232683641650E+04   -0.55586E-05   -0.65103E-05  2889   0.537E-03
 142 F= -.23482680E+04 E0= -.23482680E+04  d E =-.298525E-04  mag=     3.0000
       N       E                     dE             d eps       ncg     rms          rms(c)
DAV:   1    -0.232683633008E+04    0.80860E-04   -0.48771E-03  4544   0.717E-02    0.250E-02
RMM:   2    -0.232683638987E+04   -0.59795E-04   -0.60283E-04  5521   0.169E-02    0.205E-02
RMM:   3    -0.232683639106E+04   -0.11837E-05   -0.63563E-05  2909   0.713E-03
 143 F= -.23482680E+04 E0= -.23482680E+04  d E =-.281402E-04  mag=     3.0000
       N       E                     dE             d eps       ncg     rms          rms(c)
DAV:   1    -0.232683638096E+04    0.89118E-05   -0.63511E-05  5160   0.896E-03    0.863E-03
RMM:   2    -0.232683638296E+04   -0.19963E-05   -0.12392E-05  2494   0.276E-03
 144 F= -.23482680E+04 E0= -.23482680E+04  d E =-.258490E-04  mag=     3.0000
       N       E                     dE             d eps       ncg     rms          rms(c)
DAV:   1    -0.232683630043E+04    0.80537E-04   -0.41813E-03  4544   0.669E-02    0.231E-02
RMM:   2    -0.232683635146E+04   -0.51034E-04   -0.52165E-04  5455   0.150E-02    0.185E-02
RMM:   3    -0.232683635541E+04   -0.39509E-05   -0.58262E-05  2897   0.686E-03
 145 F= -.23482680E+04 E0= -.23482680E+04  d E =-.215112E-04  mag=     3.0000
       N       E                     dE             d eps       ncg     rms          rms(c)
DAV:   1    -0.232683634557E+04    0.58913E-05   -0.52079E-05  4768   0.778E-03    0.748E-03
RMM:   2    -0.232683634669E+04   -0.11184E-05   -0.91875E-06  2460   0.286E-03
 146 F= -.23482680E+04 E0= -.23482680E+04  d E =-.176090E-04  mag=     3.0000
       N       E                     dE             d eps       ncg     rms          rms(c)
DAV:   1    -0.232683627037E+04    0.75198E-04   -0.33078E-03  4528   0.594E-02    0.208E-02
RMM:   2    -0.232683631361E+04   -0.43239E-04   -0.45135E-04  5114   0.137E-02    0.138E-02
RMM:   3    -0.232683631751E+04   -0.38997E-05   -0.47421E-05  2863   0.636E-03
 147 F= -.23482680E+04 E0= -.23482680E+04  d E =-.222434E-04  mag=     3.0000
       N       E                     dE             d eps       ncg     rms          rms(c)
DAV:   1    -0.232683628753E+04    0.26080E-04   -0.49436E-04  4880   0.232E-02    0.104E-02
RMM:   2    -0.232683629432E+04   -0.67890E-05   -0.74955E-05  3067   0.575E-03
 148 F= -.23482680E+04 E0= -.23482680E+04  d E =-.190824E-04  mag=     3.0000
       N       E                     dE             d eps       ncg     rms          rms(c)
DAV:   1    -0.232683621359E+04    0.73940E-04   -0.27418E-03  4480   0.530E-02    0.195E-02
RMM:   2    -0.232683625675E+04   -0.43154E-04   -0.41724E-04  4829   0.137E-02    0.202E-02
RMM:   3    -0.232683625684E+04   -0.92725E-07   -0.52752E-05  2827   0.641E-03
 149 F= -.23482680E+04 E0= -.23482680E+04  d E =-.166490E-04  mag=     3.0000
       N       E                     dE             d eps       ncg     rms          rms(c)
DAV:   1    -0.232683624834E+04    0.84028E-05   -0.41137E-05  4656   0.704E-03    0.790E-03
RMM:   2    -0.232683625132E+04   -0.29796E-05   -0.12013E-05  2473   0.312E-03
 150 F= -.23482680E+04 E0= -.23482680E+04  d E =-.173820E-04  mag=     3.0000
       N       E                     dE             d eps       ncg     rms          rms(c)
DAV:   1    -0.232683618617E+04    0.62176E-04   -0.26627E-03  4496   0.525E-02    0.193E-02
RMM:   2    -0.232683622487E+04   -0.38708E-04   -0.37159E-04  4761   0.124E-02    0.212E-02
RMM:   3    -0.232683622458E+04    0.28967E-06   -0.43715E-05  2814   0.601E-03
 151 F= -.23482680E+04 E0= -.23482680E+04  d E =-.140785E-04  mag=     3.0000
       N       E                     dE             d eps       ncg     rms          rms(c)
DAV:   1    -0.232683621682E+04    0.80578E-05   -0.40231E-05  4464   0.669E-03    0.605E-03
RMM:   2    -0.232683621731E+04   -0.49621E-06   -0.74330E-06  2402   0.262E-03
 152 F= -.23482680E+04 E0= -.23482680E+04  d E =-.115382E-04  mag=     3.0000
       N       E                     dE             d eps       ncg     rms          rms(c)
DAV:   1    -0.232683616453E+04    0.52286E-04   -0.20799E-03  4496   0.468E-02    0.174E-02
RMM:   2    -0.232683619366E+04   -0.29132E-04   -0.29684E-04  4325   0.112E-02    0.144E-02
RMM:   3    -0.232683619585E+04   -0.21874E-05   -0.36516E-05  2732   0.605E-03
 153 F= -.23482681E+04 E0= -.23482681E+04  d E =-.170868E-04  mag=     3.0000
       N       E                     dE             d eps       ncg     rms          rms(c)
DAV:   1    -0.232683618217E+04    0.11493E-04   -0.12118E-04  5304   0.115E-02    0.657E-03
RMM:   2    -0.232683618374E+04   -0.15746E-05   -0.19571E-05  2476   0.307E-03
 154 F= -.23482681E+04 E0= -.23482681E+04  d E =-.142428E-04  mag=     3.0000
       N       E                     dE             d eps       ncg     rms          rms(c)
DAV:   1    -0.232683614177E+04    0.40398E-04   -0.11558E-03  4408   0.342E-02    0.142E-02
RMM:   2    -0.232683616620E+04   -0.24432E-04   -0.19636E-04  3551   0.900E-03    0.239E-02
RMM:   3    -0.232683616045E+04    0.57559E-05   -0.23756E-05  2477   0.519E-03
 155 F= -.23482681E+04 E0= -.23482681E+04  d E =-.100995E-04  mag=     3.0000
       N       E                     dE             d eps       ncg     rms          rms(c)
DAV:   1    -0.232683615924E+04    0.69599E-05   -0.37449E-06  3080   0.219E-03    0.430E-03
RMM:   2    -0.232683615947E+04   -0.22615E-06   -0.11688E-06  2161   0.135E-03
 156 F= -.23482681E+04 E0= -.23482681E+04  d E =-.973196E-05  mag=     3.0000
       N       E                     dE             d eps       ncg     rms          rms(c)
DAV:   1    -0.232683612269E+04    0.36555E-04   -0.11483E-03  4384   0.348E-02    0.128E-02
RMM:   2    -0.232683613982E+04   -0.17133E-04   -0.17103E-04  3423   0.818E-03    0.116E-02
RMM:   3    -0.232683614060E+04   -0.77901E-06   -0.20617E-05  2402   0.507E-03
 157 F= -.23482681E+04 E0= -.23482681E+04  d E =-.117117E-04  mag=     3.0000
       N       E                     dE             d eps       ncg     rms          rms(c)
DAV:   1    -0.232683612383E+04    0.15990E-04   -0.18115E-04  5136   0.139E-02    0.644E-03
RMM:   2    -0.232683612670E+04   -0.28728E-05   -0.29962E-05  2479   0.372E-03
 158 F= -.23482681E+04 E0= -.23482681E+04  d E =-.100608E-04  mag=     3.0000
       N       E                     dE             d eps       ncg     rms          rms(c)
DAV:   1    -0.232683609673E+04    0.27099E-04   -0.80923E-04  4288   0.286E-02    0.122E-02
RMM:   2    -0.232683611518E+04   -0.18450E-04   -0.14848E-04  3301   0.778E-03    0.217E-02
RMM:   3    -0.232683611047E+04    0.47124E-05   -0.16635E-05  2396   0.451E-03
 159 F= -.23482681E+04 E0= -.23482681E+04  d E =-.777035E-05  mag=     3.0000
       N       E                     dE             d eps       ncg     rms          rms(c)
DAV:   1    -0.232683609750E+04    0.17684E-04   -0.16757E-04  5008   0.130E-02    0.640E-03
RMM:   2    -0.232683610073E+04   -0.32283E-05   -0.29587E-05  2502   0.359E-03
 160 F= -.23482681E+04 E0= -.23482681E+04  d E =-.899280E-05  mag=     3.0000
       N       E                     dE             d eps       ncg     rms          rms(c)
DAV:   1    -0.232683609050E+04    0.69978E-05   -0.35009E-04  4240   0.198E-02    0.798E-03
RMM:   2    -0.232683609690E+04   -0.63970E-05   -0.56890E-05  2622   0.553E-03
 161 F= -.23482681E+04 E0= -.23482681E+04  d E =-.843119E-05  mag=     3.0000
       N       E                     dE             d eps       ncg     rms          rms(c)
DAV:   1    -0.232683609229E+04   -0.17907E-05   -0.49343E-05  3776   0.808E-03    0.613E-03
RMM:   2    -0.232683609540E+04   -0.31064E-05   -0.13108E-05  2353   0.359E-03
 162 F= -.23482681E+04 E0= -.23482681E+04  d E =-.108983E-04  mag=     3.0000
       N       E                     dE             d eps       ncg     rms          rms(c)
DAV:   1    -0.232683608069E+04    0.11598E-04   -0.37453E-04  4312   0.210E-02    0.839E-03
RMM:   2    -0.232683608539E+04   -0.47013E-05   -0.51325E-05  2825   0.543E-03
 163 F= -.23482681E+04 E0= -.23482681E+04  d E =-.297414E-05  mag=     3.0000
       N       E                     dE             d eps       ncg     rms          rms(c)
DAV:   1    -0.232683608447E+04   -0.37748E-05   -0.14794E-05  3336   0.521E-03    0.802E-03
RMM:   2    -0.232683609134E+04   -0.68709E-05   -0.13097E-05  2380   0.289E-03
 164 F= -.23482681E+04 E0= -.23482681E+04  d E =-.104830E-04  mag=     3.0000
       N       E                     dE             d eps       ncg     rms          rms(c)
DAV:   1    -0.232683607783E+04    0.66423E-05   -0.23549E-04  4672   0.161E-02    0.593E-03
RMM:   2    -0.232683608123E+04   -0.34031E-05   -0.37216E-05  2516   0.422E-03
 165 F= -.23482681E+04 E0= -.23482681E+04  d E =0.271427E-05  mag=     3.0000
       N       E                     dE             d eps       ncg     rms          rms(c)
DAV:   1    -0.232683608082E+04   -0.29978E-05   -0.64615E-06  2448   0.372E-03    0.280E-03
RMM:   2    -0.232683608126E+04   -0.44104E-06   -0.19104E-06  2231   0.160E-03
 166 F= -.23482681E+04 E0= -.23482681E+04  d E =0.186931E-05  mag=     3.0000
       N       E                     dE             d eps       ncg     rms          rms(c)
DAV:   1    -0.232683607329E+04    0.75289E-05   -0.12944E-04  4160   0.112E-02    0.429E-03
RMM:   2    -0.232683607576E+04   -0.24630E-05   -0.25944E-05  2418   0.327E-03
 167 F= -.23482681E+04 E0= -.23482681E+04  d E =-.239820E-05  mag=     3.0000
       N       E                     dE             d eps       ncg     rms          rms(c)
DAV:   1    -0.232683607312E+04    0.17132E-06   -0.16936E-05  2576   0.468E-03    0.349E-03
RMM:   2    -0.232683607442E+04   -0.13019E-05   -0.60588E-06  2294   0.265E-03
 168 F= -.23482681E+04 E0= -.23482681E+04  d E =-.367805E-05  mag=     3.0000
       N       E                     dE             d eps       ncg     rms          rms(c)
DAV:   1    -0.232683606990E+04    0.32251E-05   -0.87532E-05  3984   0.907E-03    0.351E-03
RMM:   2    -0.232683607170E+04   -0.17990E-05   -0.17774E-05  2355   0.273E-03
 169 F= -.23482681E+04 E0= -.23482681E+04  d E =-.272239E-05  mag=     3.0000
       N       E                     dE             d eps       ncg     rms          rms(c)
DAV:   1    -0.232683606872E+04    0.11801E-05   -0.28033E-05  2744   0.536E-03    0.364E-03
RMM:   2    -0.232683607024E+04   -0.15189E-05   -0.77420E-06  2323   0.271E-03
 170 F= -.23482681E+04 E0= -.23482681E+04  d E =-.427293E-05  mag=     3.0000
       N       E                     dE             d eps       ncg     rms          rms(c)
DAV:   1    -0.232683606377E+04    0.49526E-05   -0.10236E-04  4080   0.970E-03    0.390E-03
RMM:   2    -0.232683606580E+04   -0.20325E-05   -0.20423E-05  2367   0.286E-03
 171 F= -.23482681E+04 E0= -.23482681E+04  d E =-.257255E-05  mag=     3.0000
