       N       E                     dE             d eps       ncg     rms          rms(c)
DAV:   1     0.130868898282E+05    0.13087E+05   -0.84181E+05  4536   0.145E+03
DAV:   2    -0.994497866319E+03   -0.14081E+05   -0.13449E+05  4904   0.331E+02
DAV:   3    -0.247110499053E+04   -0.14766E+04   -0.14583E+04  5544   0.115E+02
DAV:   4    -0.251756195599E+04   -0.46457E+02   -0.46224E+02  6680   0.297E+01
DAV:   5    -0.251837632425E+04   -0.81437E+00   -0.81263E+00  6376   0.349E+00    0.170E+02
RMM:   6    -0.149037075364E+04    0.10280E+04   -0.19395E+03  4455   0.384E+01    0.752E+01
RMM:   7    -0.167563263159E+04   -0.18526E+03   -0.36134E+02  5089   0.146E+01    0.574E+01
RMM:   8    -0.170199252846E+04   -0.26360E+02   -0.67781E+01  5446   0.753E+00    0.474E+01
RMM:   9    -0.174068867079E+04   -0.38696E+02   -0.54901E+01  4977   0.638E+00    0.371E+01
RMM:  10    -0.188555215947E+04   -0.14486E+03   -0.82085E+01  5042   0.866E+00    0.429E+01
RMM:  11    -0.194319515736E+04   -0.57643E+02   -0.39373E+01  5286   0.584E+00    0.273E+01
RMM:  12    -0.198955285535E+04   -0.46358E+02   -0.19678E+01  5452   0.370E+00    0.216E+01
RMM:  13    -0.207076117015E+04   -0.81208E+02   -0.32520E+01  4816   0.448E+00    0.163E+01
RMM:  14    -0.212656521306E+04   -0.55804E+02   -0.22810E+01  5071   0.373E+00    0.119E+01
RMM:  15    -0.222967869665E+04   -0.10311E+03   -0.82326E+01  4539   0.634E+00    0.121E+01
RMM:  16    -0.227459989407E+04   -0.44921E+02   -0.36642E+01  4837   0.450E+00    0.758E+00
RMM:  17    -0.229558687035E+04   -0.20987E+02   -0.17265E+01  4651   0.303E+00    0.518E+00
RMM:  18    -0.230224505985E+04   -0.66582E+01   -0.56821E+00  4908   0.177E+00    0.365E+00
RMM:  19    -0.230730852027E+04   -0.50635E+01   -0.29994E+00  4570   0.125E+00    0.513E+00
RMM:  20    -0.230756820264E+04   -0.25968E+00   -0.28387E-01  5000   0.655E-01    0.463E+00
RMM:  21    -0.230861505111E+04   -0.10468E+01   -0.28375E-01  4552   0.331E-01    0.319E+00
RMM:  22    -0.230935311883E+04   -0.73807E+00   -0.28887E-01  4665   0.363E-01    0.150E+00
RMM:  23    -0.230958384293E+04   -0.23072E+00   -0.82229E-02  4832   0.215E-01    0.120E+00
RMM:  24    -0.230964016759E+04   -0.56325E-01   -0.49342E-02  4805   0.141E-01    0.488E-01
RMM:  25    -0.230967825006E+04   -0.38082E-01   -0.14799E-02  4665   0.103E-01    0.254E-01
RMM:  26    -0.230970597637E+04   -0.27726E-01   -0.70383E-03  4506   0.583E-02    0.177E-01
RMM:  27    -0.230973426462E+04   -0.28288E-01   -0.50045E-03  4454   0.531E-02    0.135E-01
RMM:  28    -0.230975580880E+04   -0.21544E-01   -0.49791E-03  4477   0.495E-02    0.820E-02
RMM:  29    -0.230976850092E+04   -0.12692E-01   -0.30488E-03  4587   0.415E-02    0.469E-02
RMM:  30    -0.230977563372E+04   -0.71328E-02   -0.19931E-03  4526   0.298E-02    0.326E-02
RMM:  31    -0.230977821801E+04   -0.25843E-02   -0.79324E-04  4275   0.227E-02    0.157E-02
RMM:  32    -0.230977897161E+04   -0.75360E-03   -0.25140E-04  4203   0.109E-02    0.854E-03
RMM:  33    -0.230977922118E+04   -0.24956E-03   -0.48671E-05  3549   0.657E-03    0.526E-03
RMM:  34    -0.230977934608E+04   -0.12490E-03   -0.22722E-05  3117   0.403E-03    0.241E-03
RMM:  35    -0.230977939329E+04   -0.47215E-04   -0.94608E-06  2866   0.330E-03    0.145E-03
RMM:  36    -0.230977940765E+04   -0.14363E-04   -0.48220E-06  2695   0.255E-03    0.992E-04
RMM:  37    -0.230977941430E+04   -0.66486E-05   -0.28849E-06  2435   0.193E-03
   1 F= -.23310031E+04 E0= -.23310029E+04  d E =-.233100E+04  mag=     3.0000
       N       E                     dE             d eps       ncg     rms          rms(c)
DAV:   1    -0.230931795026E+04    0.46146E+00   -0.71766E+01  4856   0.537E+00    0.248E+00
RMM:   2    -0.231072703505E+04   -0.14091E+01   -0.12747E+01  6415   0.169E+00    0.492E+00
RMM:   3    -0.231037141784E+04    0.35562E+00   -0.81179E-01  6148   0.523E-01    0.122E+00
RMM:   4    -0.231035867339E+04    0.12744E-01   -0.10712E-01  5447   0.120E-01    0.753E-01
RMM:   5    -0.231035190249E+04    0.67709E-02   -0.18038E-02  5986   0.706E-02    0.696E-01
RMM:   6    -0.231034686214E+04    0.50403E-02   -0.18582E-02  5392   0.615E-02    0.453E-01
RMM:   7    -0.231034451657E+04    0.23456E-02   -0.44680E-03  5198   0.402E-02    0.197E-01
RMM:   8    -0.231034383040E+04    0.68616E-03   -0.10951E-03  4839   0.173E-02    0.100E-01
RMM:   9    -0.231034369823E+04    0.13218E-03   -0.32679E-04  4456   0.137E-02    0.116E-01
RMM:  10    -0.231034357062E+04    0.12760E-03   -0.12859E-04  3444   0.707E-03    0.397E-02
RMM:  11    -0.231034349104E+04    0.79583E-04   -0.13845E-04  4061   0.837E-03    0.228E-02
RMM:  12    -0.231034346659E+04    0.24447E-04   -0.80236E-05  3718   0.751E-03    0.119E-02
RMM:  13    -0.231034346854E+04   -0.19426E-05   -0.28215E-05  3108   0.535E-03
   2 F= -.23315709E+04 E0= -.23315707E+04  d E =-.567834E+00  mag=     3.0000
       N       E                     dE             d eps       ncg     rms          rms(c)
DAV:   1    -0.231033897049E+04    0.44961E-02   -0.53622E-01  5062   0.498E-01    0.217E-01
RMM:   2    -0.231034870417E+04   -0.97337E-02   -0.91574E-02  6326   0.143E-01    0.402E-01
RMM:   3    -0.231034745103E+04    0.12531E-02   -0.99865E-03  4767   0.726E-02    0.129E-01
RMM:   4    -0.231034736083E+04    0.90203E-04   -0.11787E-03  3692   0.134E-02    0.864E-02
RMM:   5    -0.231034734956E+04    0.11263E-04   -0.25277E-04  3265   0.863E-03    0.104E-01
RMM:   6    -0.231034726148E+04    0.88078E-04   -0.13771E-04  3098   0.693E-03    0.649E-02
RMM:   7    -0.231034720991E+04    0.51571E-04   -0.11238E-04  3237   0.653E-03    0.262E-02
RMM:   8    -0.231034720678E+04    0.31347E-05   -0.24673E-05  2917   0.477E-03
   3 F= -.23315751E+04 E0= -.23315748E+04  d E =-.571953E+00  mag=     3.0000
       N       E                     dE             d eps       ncg     rms          rms(c)
DAV:   1    -0.231034324839E+04    0.39615E-02   -0.59470E+00  4608   0.251E+00    0.912E-01
RMM:   2    -0.231041415246E+04   -0.70904E-01   -0.76662E-01  6163   0.584E-01    0.503E-01
RMM:   3    -0.231042212282E+04   -0.79704E-02   -0.83536E-02  5950   0.230E-01    0.726E-01
RMM:   4    -0.231041553110E+04    0.65917E-02   -0.84389E-03  6271   0.564E-02    0.258E-01
RMM:   5    -0.231041577510E+04   -0.24401E-03   -0.39058E-03  5396   0.393E-02    0.336E-01
RMM:   6    -0.231041423168E+04    0.15434E-02   -0.16768E-03  5385   0.269E-02    0.886E-02
RMM:   7    -0.231041418630E+04    0.45385E-04   -0.39552E-04  5040   0.135E-02    0.893E-02
RMM:   8    -0.231041409880E+04    0.87495E-04   -0.13353E-04  3243   0.835E-03    0.456E-02
RMM:   9    -0.231041405804E+04    0.40762E-04   -0.42297E-05  3167   0.536E-03    0.187E-02
RMM:  10    -0.231041404092E+04    0.17123E-04   -0.26392E-05  3069   0.498E-03    0.130E-02
RMM:  11    -0.231041403388E+04    0.70370E-05   -0.17116E-05  2929   0.473E-03
   4 F= -.23316412E+04 E0= -.23316409E+04  d E =-.660995E-01  mag=     3.0000
       N       E                     dE             d eps       ncg     rms          rms(c)
DAV:   1    -0.231041331042E+04    0.73050E-03   -0.22757E-01  5096   0.490E-01    0.179E-01
RMM:   2    -0.231041613196E+04   -0.28215E-02   -0.30155E-02  6194   0.116E-01    0.113E-01
RMM:   3    -0.231041639981E+04   -0.26785E-03   -0.32879E-03  5509   0.452E-02    0.145E-01
RMM:   4    -0.231041612814E+04    0.27167E-03   -0.33470E-04  3795   0.118E-02    0.551E-02
RMM:   5    -0.231041613397E+04   -0.58290E-05   -0.13546E-04  3409   0.901E-03    0.665E-02
RMM:   6    -0.231041607328E+04    0.60686E-04   -0.89988E-05  3577   0.737E-03    0.204E-02
RMM:   7    -0.231041607163E+04    0.16519E-05   -0.27303E-05  2963   0.563E-03
   5 F= -.23316431E+04 E0= -.23316428E+04  d E =-.680032E-01  mag=     3.0000
       N       E                     dE             d eps       ncg     rms          rms(c)
DAV:   1    -0.231036912466E+04    0.46949E-01   -0.42368E+00  4592   0.221E+00    0.780E-01
RMM:   2    -0.231044428929E+04   -0.75165E-01   -0.82860E-01  6094   0.572E-01    0.587E-01
RMM:   3    -0.231045193027E+04   -0.76410E-02   -0.95918E-02  5859   0.259E-01    0.717E-01
RMM:   4    -0.231044597224E+04    0.59580E-02   -0.97814E-03  6056   0.546E-02    0.262E-01
RMM:   5    -0.231044528607E+04    0.68617E-03   -0.22594E-03  5320   0.287E-02    0.188E-01
RMM:   6    -0.231044515678E+04    0.12930E-03   -0.14624E-03  5527   0.224E-02    0.205E-01
RMM:   7    -0.231044465703E+04    0.49974E-03   -0.69487E-04  5226   0.168E-02    0.535E-02
RMM:   8    -0.231044463602E+04    0.21016E-04   -0.13020E-04  3830   0.777E-03    0.563E-02
RMM:   9    -0.231044459649E+04    0.39527E-04   -0.49948E-05  3034   0.613E-03    0.199E-02
RMM:  10    -0.231044458102E+04    0.15469E-04   -0.21342E-05  2963   0.406E-03    0.831E-03
RMM:  11    -0.231044457590E+04    0.51217E-05   -0.10446E-05  2886   0.372E-03
   6 F= -.23316704E+04 E0= -.23316702E+04  d E =-.273442E-01  mag=     3.0000
       N       E                     dE             d eps       ncg     rms          rms(c)
DAV:   1    -0.231044443480E+04    0.14622E-03   -0.85007E-03  5424   0.100E-01    0.360E-02
RMM:   2    -0.231044459380E+04   -0.15900E-03   -0.17244E-03  5788   0.267E-02    0.296E-02
RMM:   3    -0.231044460648E+04   -0.12681E-04   -0.18046E-04  3116   0.107E-02    0.337E-02
RMM:   4    -0.231044459308E+04    0.13401E-04   -0.18437E-05  2938   0.340E-03    0.115E-02
RMM:   5    -0.231044459255E+04    0.53545E-06   -0.49797E-06  2713   0.187E-03
   7 F= -.23316705E+04 E0= -.23316703E+04  d E =-.274114E-01  mag=     3.0000
       N       E                     dE             d eps       ncg     rms          rms(c)
DAV:   1    -0.231042072063E+04    0.23872E-01   -0.24648E+00  4592   0.149E+00    0.456E-01
RMM:   2    -0.231046499304E+04   -0.44272E-01   -0.44787E-01  6466   0.382E-01    0.554E-01
RMM:   3    -0.231046553591E+04   -0.54286E-03   -0.38178E-02  6166   0.114E-01    0.353E-01
RMM:   4    -0.231046448888E+04    0.10470E-02   -0.36775E-03  5554   0.277E-02    0.167E-01
RMM:   5    -0.231046432261E+04    0.16627E-03   -0.51989E-04  3680   0.134E-02    0.135E-01
RMM:   6    -0.231046408418E+04    0.23843E-03   -0.53029E-04  4726   0.141E-02    0.673E-02
RMM:   7    -0.231046404900E+04    0.35176E-04   -0.19181E-04  3804   0.110E-02    0.359E-02
RMM:   8    -0.231046404527E+04    0.37371E-05   -0.41464E-05  2932   0.514E-03
   8 F= -.23316901E+04 E0= -.23316900E+04  d E =-.196455E-01  mag=     3.0000
       N       E                     dE             d eps       ncg     rms          rms(c)
DAV:   1    -0.231010924558E+04    0.35480E+00   -0.21569E+01  4492   0.441E+00    0.132E+00
RMM:   2    -0.231048300368E+04   -0.37376E+00   -0.38540E+00  6460   0.109E+00    0.132E+00
RMM:   3    -0.231050399359E+04   -0.20990E-01   -0.34432E-01  6243   0.338E-01    0.120E+00
RMM:   4    -0.231049116871E+04    0.12825E-01   -0.32358E-02  6285   0.841E-02    0.442E-01
RMM:   5    -0.231049064515E+04    0.52357E-03   -0.51802E-03  5626   0.368E-02    0.436E-01
RMM:   6    -0.231048837645E+04    0.22687E-02   -0.40350E-03  5396   0.357E-02    0.212E-01
RMM:   7    -0.231048795443E+04    0.42202E-03   -0.19646E-03  5387   0.281E-02    0.986E-02
RMM:   8    -0.231048785222E+04    0.10221E-03   -0.26940E-04  4266   0.121E-02    0.504E-02
RMM:   9    -0.231048786663E+04   -0.14410E-04   -0.95136E-05  3173   0.679E-03    0.644E-02
RMM:  10    -0.231048780777E+04    0.58858E-04   -0.58362E-05  2939   0.592E-03    0.157E-02
RMM:  11    -0.231048780204E+04    0.57280E-05   -0.25316E-05  2966   0.399E-03
   9 F= -.23317142E+04 E0= -.23317141E+04  d E =-.437163E-01  mag=     3.0000
       N       E                     dE             d eps       ncg     rms          rms(c)
DAV:   1    -0.231047653556E+04    0.11272E-01   -0.13114E+00  4592   0.115E+00    0.395E-01
RMM:   2    -0.231050098476E+04   -0.24449E-01   -0.24712E-01  6312   0.299E-01    0.458E-01
RMM:   3    -0.231050094544E+04    0.39320E-04   -0.21922E-02  6052   0.965E-02    0.313E-01
RMM:   4    -0.231050007012E+04    0.87532E-03   -0.22312E-03  5490   0.242E-02    0.145E-01
RMM:   5    -0.231049991104E+04    0.15908E-03   -0.44966E-04  3866   0.137E-02    0.111E-01
RMM:   6    -0.231049972605E+04    0.18499E-03   -0.44069E-04  4790   0.139E-02    0.475E-02
RMM:   7    -0.231049970540E+04    0.20647E-04   -0.11156E-04  3584   0.103E-02    0.342E-02
RMM:   8    -0.231049969672E+04    0.86887E-05   -0.36216E-05  2928   0.467E-03
  10 F= -.23317264E+04 E0= -.23317264E+04  d E =-.122399E-01  mag=     3.0000
       N       E                     dE             d eps       ncg     rms          rms(c)
DAV:   1    -0.231043751349E+04    0.62192E-01   -0.39400E+00  4560   0.200E+00    0.680E-01
RMM:   2    -0.231051020444E+04   -0.72691E-01   -0.74114E-01  6282   0.512E-01    0.752E-01
RMM:   3    -0.231051118899E+04   -0.98455E-03   -0.65959E-02  6121   0.166E-01    0.566E-01
RMM:   4    -0.231050823065E+04    0.29583E-02   -0.66084E-03  5853   0.419E-02    0.241E-01
RMM:   5    -0.231050785668E+04    0.37397E-03   -0.13970E-03  5036   0.227E-02    0.202E-01
RMM:   6    -0.231050722590E+04    0.63078E-03   -0.12650E-03  5046   0.227E-02    0.764E-02
RMM:   7    -0.231050715725E+04    0.68650E-04   -0.31277E-04  4520   0.153E-02    0.530E-02
RMM:   8    -0.231050713291E+04    0.24338E-04   -0.93907E-05  3348   0.654E-03    0.428E-02
RMM:   9    -0.231050710293E+04    0.29978E-04   -0.30380E-05  2952   0.560E-03    0.160E-02
RMM:  10    -0.231050708605E+04    0.16880E-04   -0.21748E-05  2954   0.353E-03    0.747E-03
RMM:  11    -0.231050708071E+04    0.53425E-05   -0.83145E-06  2859   0.356E-03
  11 F= -.23317344E+04 E0= -.23317343E+04  d E =-.201832E-01  mag=     3.0000
       N       E                     dE             d eps       ncg     rms          rms(c)
DAV:   1    -0.231050052209E+04    0.65640E-02   -0.73908E-01  4640   0.815E-01    0.303E-01
RMM:   2    -0.231051685001E+04   -0.16328E-01   -0.16729E-01  6445   0.222E-01    0.378E-01
RMM:   3    -0.231051715221E+04   -0.30220E-03   -0.19203E-02  5938   0.873E-02    0.252E-01
RMM:   4    -0.231051667135E+04    0.48086E-03   -0.15935E-03  4362   0.181E-02    0.111E-01
RMM:   5    -0.231051658680E+04    0.84548E-04   -0.27136E-04  3281   0.952E-03    0.923E-02
RMM:   6    -0.231051649010E+04    0.96703E-04   -0.24443E-04  4287   0.101E-02    0.433E-02
RMM:   7    -0.231051647235E+04    0.17746E-04   -0.80170E-05  3268   0.733E-03    0.229E-02
RMM:   8    -0.231051647309E+04   -0.73890E-06   -0.21944E-05  2905   0.410E-03
  12 F= -.23317441E+04 E0= -.23317441E+04  d E =-.976932E-02  mag=     3.0000
       N       E                     dE             d eps       ncg     rms          rms(c)
DAV:   1    -0.231038599257E+04    0.13048E+00   -0.66506E+00  4492   0.245E+00    0.905E-01
RMM:   2    -0.231053120358E+04   -0.14521E+00   -0.15050E+00  6432   0.658E-01    0.106E+00
RMM:   3    -0.231053694792E+04   -0.57443E-02   -0.17581E-01  6215   0.266E-01    0.793E-01
RMM:   4    -0.231053217609E+04    0.47718E-02   -0.14470E-02  5994   0.548E-02    0.341E-01
RMM:   5    -0.231053138263E+04    0.79345E-03   -0.25600E-03  5201   0.256E-02    0.286E-01
RMM:   6    -0.231053036869E+04    0.10139E-02   -0.20553E-03  5093   0.267E-02    0.106E-01
RMM:   7    -0.231053031719E+04    0.51502E-04   -0.58686E-04  4528   0.176E-02    0.716E-02
RMM:   8    -0.231053029808E+04    0.19110E-04   -0.16158E-04  3362   0.767E-03    0.573E-02
RMM:   9    -0.231053025907E+04    0.39008E-04   -0.46181E-05  2978   0.587E-03    0.218E-02
RMM:  10    -0.231053025309E+04    0.59855E-05   -0.18214E-05  2977   0.317E-03
  13 F= -.23317590E+04 E0= -.23317590E+04  d E =-.246341E-01  mag=     3.0000
       N       E                     dE             d eps       ncg     rms          rms(c)
DAV:   1    -0.231050647095E+04    0.23788E-01   -0.18512E+00  4528   0.132E+00    0.482E-01
RMM:   2    -0.231054237045E+04   -0.35900E-01   -0.37851E-01  6228   0.346E-01    0.476E-01
RMM:   3    -0.231054466375E+04   -0.22933E-02   -0.43997E-02  5960   0.138E-01    0.438E-01
RMM:   4    -0.231054290345E+04    0.17603E-02   -0.37069E-03  5688   0.301E-02    0.160E-01
RMM:   5    -0.231054283264E+04    0.70810E-04   -0.79531E-04  4498   0.157E-02    0.171E-01
RMM:   6    -0.231054253815E+04    0.29449E-03   -0.68321E-04  5102   0.155E-02    0.927E-02
RMM:   7    -0.231054241497E+04    0.12318E-03   -0.26676E-04  4114   0.116E-02    0.216E-02
RMM:   8    -0.231054241417E+04    0.80472E-06   -0.33454E-05  2963   0.530E-03
  14 F= -.23317716E+04 E0= -.23317716E+04  d E =-.125768E-01  mag=     3.0000
       N       E                     dE             d eps       ncg     rms          rms(c)
DAV:   1    -0.231050408788E+04    0.38327E-01   -0.21480E+00  4512   0.143E+00    0.521E-01
RMM:   2    -0.231054555749E+04   -0.41470E-01   -0.43872E-01  6217   0.371E-01    0.507E-01
RMM:   3    -0.231054846832E+04   -0.29108E-02   -0.52729E-02  5988   0.149E-01    0.475E-01
RMM:   4    -0.231054641886E+04    0.20495E-02   -0.43676E-03  5729   0.323E-02    0.173E-01
RMM:   5    -0.231054633147E+04    0.87397E-04   -0.92363E-04  4666   0.167E-02    0.185E-01
RMM:   6    -0.231054597266E+04    0.35880E-03   -0.79554E-04  5161   0.167E-02    0.987E-02
RMM:   7    -0.231054582551E+04    0.14716E-03   -0.31341E-04  4281   0.124E-02    0.217E-02
RMM:   8    -0.231054581313E+04    0.12376E-04   -0.27383E-05  3013   0.516E-03    0.123E-02
RMM:   9    -0.231054580934E+04    0.37948E-05   -0.12563E-05  2938   0.394E-03
  15 F= -.23317754E+04 E0= -.23317754E+04  d E =-.164121E-01  mag=     3.0000
       N       E                     dE             d eps       ncg     rms          rms(c)
DAV:   1    -0.231051275478E+04    0.33058E-01   -0.19016E+00  4528   0.129E+00    0.423E-01
RMM:   2    -0.231055189144E+04   -0.39137E-01   -0.41914E-01  6421   0.340E-01    0.300E-01
RMM:   3    -0.231055626135E+04   -0.43699E-02   -0.48907E-02  5934   0.129E-01    0.409E-01
RMM:   4    -0.231055457647E+04    0.16849E-02   -0.38573E-03  5079   0.274E-02    0.131E-01
RMM:   5    -0.231055456566E+04    0.10807E-04   -0.63486E-04  4200   0.133E-02    0.152E-01
RMM:   6    -0.231055433211E+04    0.23355E-03   -0.43708E-04  4712   0.120E-02    0.793E-02
RMM:   7    -0.231055427072E+04    0.61392E-04   -0.17457E-04  3473   0.882E-03    0.348E-02
RMM:   8    -0.231055426900E+04    0.17173E-05   -0.42199E-05  2971   0.565E-03
  16 F= -.23317842E+04 E0= -.23317841E+04  d E =-.874049E-02  mag=     3.0000
       N       E                     dE             d eps       ncg     rms          rms(c)
DAV:   1    -0.231027287677E+04    0.28139E+00   -0.13207E+01  4488   0.339E+00    0.111E+00
RMM:   2    -0.231054133593E+04   -0.26846E+00   -0.28955E+00  6403   0.881E-01    0.712E-01
RMM:   3    -0.231057472935E+04   -0.33393E-01   -0.37160E-01  5954   0.361E-01    0.990E-01
RMM:   4    -0.231056488557E+04    0.98438E-02   -0.27357E-02  6245   0.705E-02    0.343E-01
RMM:   5    -0.231056468575E+04    0.19982E-03   -0.41452E-03  5450   0.312E-02    0.393E-01
RMM:   6    -0.231056329897E+04    0.13868E-02   -0.25751E-03  5734   0.273E-02    0.218E-01
RMM:   7    -0.231056284620E+04    0.45277E-03   -0.13583E-03  5104   0.208E-02    0.111E-01
RMM:   8    -0.231056277362E+04    0.72577E-04   -0.34323E-04  3846   0.120E-02    0.823E-02
RMM:   9    -0.231056271054E+04    0.63085E-04   -0.11217E-04  3104   0.730E-03    0.346E-02
RMM:  10    -0.231056269538E+04    0.15153E-04   -0.22700E-05  2931   0.434E-03    0.137E-02
RMM:  11    -0.231056269257E+04    0.28181E-05   -0.11610E-05  2942   0.318E-03
  17 F= -.23317933E+04 E0= -.23317933E+04  d E =-.178930E-01  mag=     3.0000
       N       E                     dE             d eps       ncg     rms          rms(c)
DAV:   1    -0.231048349125E+04    0.79204E-01   -0.41488E+00  4488   0.191E+00    0.627E-01
RMM:   2    -0.231056967679E+04   -0.86186E-01   -0.92298E-01  6301   0.514E-01    0.377E-01
RMM:   3    -0.231057745933E+04   -0.77825E-02   -0.10924E-01  5943   0.201E-01    0.422E-01
RMM:   4    -0.231057631662E+04    0.11427E-02   -0.83776E-03  5908   0.394E-02    0.224E-01
RMM:   5    -0.231057594717E+04    0.36945E-03   -0.12012E-03  5320   0.195E-02    0.201E-01
RMM:   6    -0.231057564278E+04    0.30439E-03   -0.91885E-04  5007   0.168E-02    0.129E-01
RMM:   7    -0.231057556678E+04    0.76001E-04   -0.40604E-04  4745   0.128E-02    0.885E-02
RMM:   8    -0.231057547141E+04    0.95372E-04   -0.99072E-05  3050   0.807E-03    0.233E-02
RMM:   9    -0.231057546487E+04    0.65347E-05   -0.19089E-05  2981   0.411E-03
  18 F= -.23318062E+04 E0= -.23318061E+04  d E =-.128369E-01  mag=     3.0000
       N       E                     dE             d eps       ncg     rms          rms(c)
DAV:   1    -0.231055537125E+04    0.20100E-01   -0.96687E-01  4592   0.923E-01    0.303E-01
RMM:   2    -0.231057551734E+04   -0.20146E-01   -0.21598E-01  6308   0.249E-01    0.184E-01
RMM:   3    -0.231057735191E+04   -0.18346E-02   -0.24727E-02  5883   0.938E-02    0.221E-01
RMM:   4    -0.231057695119E+04    0.40071E-03   -0.19316E-03  4107   0.194E-02    0.105E-01
RMM:   5    -0.231057688655E+04    0.64639E-04   -0.32200E-04  4214   0.114E-02    0.106E-01
RMM:   6    -0.231057679510E+04    0.91451E-04   -0.22325E-04  3617   0.927E-03    0.558E-02
RMM:   7    -0.231057677920E+04    0.15898E-04   -0.79950E-05  3194   0.739E-03    0.349E-02
RMM:   8    -0.231057676542E+04    0.13780E-04   -0.24776E-05  2920   0.541E-03    0.140E-02
RMM:   9    -0.231057676333E+04    0.20940E-05   -0.83000E-06  2917   0.314E-03
  19 F= -.23318075E+04 E0= -.23318075E+04  d E =-.141624E-01  mag=     3.0000
       N       E                     dE             d eps       ncg     rms          rms(c)
DAV:   1    -0.231054606761E+04    0.30698E-01   -0.20952E+00  4508   0.137E+00    0.439E-01
RMM:   2    -0.231058289046E+04   -0.36823E-01   -0.39096E-01  6268   0.349E-01    0.273E-01
RMM:   3    -0.231058647332E+04   -0.35829E-02   -0.42139E-02  5938   0.124E-01    0.338E-01
RMM:   4    -0.231058534912E+04    0.11242E-02   -0.35148E-03  5090   0.288E-02    0.132E-01
RMM:   5    -0.231058535080E+04   -0.16805E-05   -0.67518E-04  4956   0.151E-02    0.174E-01
RMM:   6    -0.231058509061E+04    0.26019E-03   -0.39591E-04  4596   0.122E-02    0.627E-02
RMM:   7    -0.231058506603E+04    0.24572E-04   -0.17806E-04  4064   0.933E-03    0.312E-02
RMM:   8    -0.231058505585E+04    0.10181E-04   -0.30144E-05  3003   0.599E-03    0.133E-02
RMM:   9    -0.231058505648E+04   -0.62729E-06   -0.10592E-05  2874   0.351E-03
  20 F= -.23318156E+04 E0= -.23318156E+04  d E =-.814793E-02  mag=     3.0000
       N       E                     dE             d eps       ncg     rms          rms(c)
DAV:   1    -0.231056827156E+04    0.16784E-01   -0.99337E-01  4528   0.944E-01    0.303E-01
RMM:   2    -0.231058576897E+04   -0.17497E-01   -0.18517E-01  6265   0.240E-01    0.196E-01
RMM:   3    -0.231058746787E+04   -0.16989E-02   -0.19658E-02  5920   0.839E-02    0.246E-01
RMM:   4    -0.231058685194E+04    0.61593E-03   -0.16736E-03  4065   0.201E-02    0.912E-02
RMM:   5    -0.231058686660E+04   -0.14661E-04   -0.35539E-04  4222   0.112E-02    0.125E-01
RMM:   6    -0.231058672774E+04    0.13886E-03   -0.21403E-04  3950   0.942E-03    0.417E-02
RMM:   7    -0.231058671712E+04    0.10627E-04   -0.86559E-05  3325   0.735E-03    0.215E-02
RMM:   8    -0.231058671440E+04    0.27118E-05   -0.18833E-05  2953   0.510E-03
  21 F= -.23318172E+04 E0= -.23318172E+04  d E =-.969991E-02  mag=     3.0000
       N       E                     dE             d eps       ncg     rms          rms(c)
DAV:   1    -0.231055675986E+04    0.29957E-01   -0.19674E+00  4504   0.137E+00    0.425E-01
RMM:   2    -0.231059410630E+04   -0.37346E-01   -0.39284E-01  6407   0.352E-01    0.345E-01
RMM:   3    -0.231059675777E+04   -0.26515E-02   -0.40509E-02  6069   0.121E-01    0.316E-01
RMM:   4    -0.231059568431E+04    0.10735E-02   -0.34116E-03  5289   0.288E-02    0.124E-01
RMM:   5    -0.231059570856E+04   -0.24245E-04   -0.62460E-04  4768   0.145E-02    0.170E-01
RMM:   6    -0.231059545028E+04    0.25827E-03   -0.37471E-04  4377   0.122E-02    0.547E-02
RMM:   7    -0.231059543432E+04    0.15967E-04   -0.14607E-04  4011   0.885E-03    0.308E-02
RMM:   8    -0.231059542755E+04    0.67662E-05   -0.28622E-05  2947   0.593E-03
  22 F= -.23318255E+04 E0= -.23318255E+04  d E =-.833350E-02  mag=     3.0000
       N       E                     dE             d eps       ncg     rms          rms(c)
DAV:   1    -0.231053252262E+04    0.62912E-01   -0.33869E+00  4488   0.180E+00    0.558E-01
RMM:   2    -0.231059679054E+04   -0.64268E-01   -0.67510E-01  6427   0.461E-01    0.456E-01
RMM:   3    -0.231060136146E+04   -0.45709E-02   -0.69564E-02  6140   0.158E-01    0.424E-01
RMM:   4    -0.231059937883E+04    0.19826E-02   -0.58284E-03  5705   0.378E-02    0.162E-01
RMM:   5    -0.231059944287E+04   -0.64043E-04   -0.10942E-03  5193   0.187E-02    0.227E-01
RMM:   6    -0.231059897610E+04    0.46677E-03   -0.64110E-04  4952   0.153E-02    0.701E-02
RMM:   7    -0.231059894134E+04    0.34765E-04   -0.23697E-04  4519   0.108E-02    0.356E-02
RMM:   8    -0.231059892853E+04    0.12806E-04   -0.38813E-05  3066   0.660E-03    0.240E-02
RMM:   9    -0.231059892611E+04    0.24202E-05   -0.21529E-05  2904   0.398E-03
  23 F= -.23318285E+04 E0= -.23318285E+04  d E =-.113238E-01  mag=     3.0000
       N       E                     dE             d eps       ncg     rms          rms(c)
DAV:   1    -0.231058010701E+04    0.18822E-01   -0.12105E+00  4528   0.108E+00    0.340E-01
RMM:   2    -0.231060428455E+04   -0.24178E-01   -0.25301E-01  6461   0.284E-01    0.286E-01
RMM:   3    -0.231060574544E+04   -0.14609E-02   -0.24732E-02  6070   0.921E-02    0.252E-01
RMM:   4    -0.231060519474E+04    0.55069E-03   -0.21718E-03  5001   0.215E-02    0.108E-01
RMM:   5    -0.231060520606E+04   -0.11319E-04   -0.34385E-04  3552   0.106E-02    0.123E-01
RMM:   6    -0.231060502618E+04    0.17989E-03   -0.24777E-04  3903   0.107E-02    0.436E-02
RMM:   7    -0.231060502912E+04   -0.29453E-05   -0.11220E-04  3624   0.799E-03    0.345E-02
RMM:   8    -0.231060502068E+04    0.84414E-05   -0.27710E-05  2911   0.552E-03
  24 F= -.23318344E+04 E0= -.23318344E+04  d E =-.588093E-02  mag=     3.0000
       N       E                     dE             d eps       ncg     rms          rms(c)
DAV:   1    -0.231038336519E+04    0.22166E+00   -0.10874E+01  4488   0.323E+00    0.102E+00
RMM:   2    -0.231060175581E+04   -0.21839E+00   -0.22877E+00  6450   0.846E-01    0.859E-01
RMM:   3    -0.231061544483E+04   -0.13689E-01   -0.22508E-01  6245   0.274E-01    0.788E-01
RMM:   4    -0.231061013002E+04    0.53148E-02   -0.19567E-02  6260   0.651E-02    0.330E-01
RMM:   5    -0.231061013042E+04   -0.40226E-06   -0.32480E-03  5649   0.281E-02    0.364E-01
RMM:   6    -0.231060857169E+04    0.15587E-02   -0.20612E-03  5321   0.265E-02    0.144E-01
RMM:   7    -0.231060846334E+04    0.10834E-03   -0.10527E-03  5211   0.203E-02    0.856E-02
RMM:   8    -0.231060841931E+04    0.44039E-04   -0.16995E-04  3541   0.109E-02    0.644E-02
RMM:   9    -0.231060839412E+04    0.25183E-04   -0.74922E-05  3032   0.606E-03    0.463E-02
RMM:  10    -0.231060836674E+04    0.27387E-04   -0.48994E-05  3019   0.526E-03    0.182E-02
RMM:  11    -0.231060836179E+04    0.49490E-05   -0.18595E-05  2902   0.391E-03
  25 F= -.23318371E+04 E0= -.23318371E+04  d E =-.857262E-02  mag=     3.0000
       N       E                     dE             d eps       ncg     rms          rms(c)
DAV:   1    -0.231057817119E+04    0.30196E-01   -0.15217E+00  4524   0.121E+00    0.382E-01
RMM:   2    -0.231060897491E+04   -0.30804E-01   -0.32173E-01  6477   0.325E-01    0.333E-01
RMM:   3    -0.231061067693E+04   -0.17020E-02   -0.31542E-02  6108   0.103E-01    0.281E-01
RMM:   4    -0.231061002327E+04    0.65366E-03   -0.27604E-03  5297   0.236E-02    0.134E-01
RMM:   5    -0.231060996143E+04    0.61840E-04   -0.40424E-04  3320   0.113E-02    0.127E-01
RMM:   6    -0.231060975779E+04    0.20364E-03   -0.36455E-04  4269   0.123E-02    0.486E-02
RMM:   7    -0.231060976747E+04   -0.96774E-05   -0.17478E-04  3936   0.929E-03    0.500E-02
RMM:   8    -0.231060974143E+04    0.26037E-04   -0.43143E-05  2954   0.581E-03    0.233E-02
RMM:   9    -0.231060973477E+04    0.66545E-05   -0.11820E-05  2924   0.314E-03
  26 F= -.23318387E+04 E0= -.23318387E+04  d E =-.101896E-01  mag=     3.0000
       N       E                     dE             d eps       ncg     rms          rms(c)
DAV:   1    -0.231059201717E+04    0.17724E-01   -0.10773E+00  4512   0.990E-01    0.348E-01
RMM:   2    -0.231061639852E+04   -0.24381E-01   -0.24800E-01  6384   0.269E-01    0.392E-01
RMM:   3    -0.231061694037E+04   -0.54185E-03   -0.25739E-02  6018   0.929E-02    0.255E-01
RMM:   4    -0.231061642484E+04    0.51553E-03   -0.22554E-03  5003   0.215E-02    0.119E-01
RMM:   5    -0.231061636571E+04    0.59135E-04   -0.34173E-04  3504   0.106E-02    0.125E-01
RMM:   6    -0.231061614986E+04    0.21585E-03   -0.35538E-04  4523   0.124E-02    0.398E-02
RMM:   7    -0.231061615068E+04   -0.82067E-06   -0.10158E-04  3253   0.868E-03    0.319E-02
RMM:   8    -0.231061614163E+04    0.90456E-05   -0.26492E-05  2922   0.488E-03
  27 F= -.23318453E+04 E0= -.23318453E+04  d E =-.664286E-02  mag=     3.0000
       N       E                     dE             d eps       ncg     rms          rms(c)
DAV:   1    -0.231049888213E+04    0.11727E+00   -0.52811E+00  4488   0.219E+00    0.773E-01
RMM:   2    -0.231061868060E+04   -0.11980E+00   -0.12214E+00  6373   0.594E-01    0.875E-01
RMM:   3    -0.231062161278E+04   -0.29322E-02   -0.12877E-01  6220   0.206E-01    0.570E-01
RMM:   4    -0.231061892491E+04    0.26879E-02   -0.11115E-02  5931   0.476E-02    0.254E-01
RMM:   5    -0.231061878901E+04    0.13590E-03   -0.17097E-03  5322   0.214E-02    0.288E-01
RMM:   6    -0.231061768930E+04    0.10997E-02   -0.15974E-03  5061   0.244E-02    0.970E-02
RMM:   7    -0.231061776312E+04   -0.73821E-04   -0.59632E-04  4544   0.172E-02    0.105E-01
RMM:   8    -0.231061763039E+04    0.13273E-03   -0.16149E-04  3455   0.832E-03    0.438E-02
RMM:   9    -0.231061760803E+04    0.22358E-04   -0.41285E-05  3012   0.550E-03    0.179E-02
RMM:  10    -0.231061760414E+04    0.38907E-05   -0.19429E-05  2929   0.403E-03
  28 F= -.23318473E+04 E0= -.23318473E+04  d E =-.862358E-02  mag=     3.0000
       N       E                     dE             d eps       ncg     rms          rms(c)
DAV:   1    -0.231060169312E+04    0.15915E-01   -0.77777E-01  4528   0.842E-01    0.294E-01
RMM:   2    -0.231061929458E+04   -0.17601E-01   -0.17908E-01  6431   0.233E-01    0.326E-01
RMM:   3    -0.231061966955E+04   -0.37497E-03   -0.18720E-02  5938   0.811E-02    0.208E-01
RMM:   4    -0.231061933200E+04    0.33755E-03   -0.16370E-03  4583   0.181E-02    0.105E-01
RMM:   5    -0.231061927719E+04    0.54813E-04   -0.24147E-04  3257   0.930E-03    0.104E-01
RMM:   6    -0.231061912908E+04    0.14810E-03   -0.27418E-04  4331   0.110E-02    0.331E-02
RMM:   7    -0.231061912446E+04    0.46219E-05   -0.76387E-05  3250   0.734E-03
  29 F= -.23318486E+04 E0= -.23318486E+04  d E =-.994549E-02  mag=     3.0000
       N       E                     dE             d eps       ncg     rms          rms(c)
DAV:   1    -0.231058566863E+04    0.33460E-01   -0.17155E+00  4504   0.123E+00    0.436E-01
RMM:   2    -0.231062403546E+04   -0.38367E-01   -0.40163E-01  6395   0.332E-01    0.371E-01
RMM:   3    -0.231062647890E+04   -0.24434E-02   -0.41411E-02  6096   0.117E-01    0.355E-01
RMM:   4    -0.231062536859E+04    0.11103E-02   -0.35579E-03  5510   0.270E-02    0.128E-01
RMM:   5    -0.231062540190E+04   -0.33310E-04   -0.59033E-04  4471   0.124E-02    0.173E-01
RMM:   6    -0.231062502760E+04    0.37430E-03   -0.47379E-04  4490   0.133E-02    0.497E-02
RMM:   7    -0.231062501054E+04    0.17059E-04   -0.16491E-04  3825   0.884E-03    0.330E-02
RMM:   8    -0.231062500372E+04    0.68221E-05   -0.38397E-05  2967   0.599E-03
  30 F= -.23318547E+04 E0= -.23318547E+04  d E =-.603623E-02  mag=     3.0000
       N       E                     dE             d eps       ncg     rms          rms(c)
DAV:   1    -0.231058078544E+04    0.44225E-01   -0.19788E+00  4504   0.132E+00    0.469E-01
RMM:   2    -0.231062477736E+04   -0.43992E-01   -0.46316E-01  6400   0.356E-01    0.383E-01
RMM:   3    -0.231062777099E+04   -0.29936E-02   -0.47893E-02  6085   0.126E-01    0.377E-01
RMM:   4    -0.231062651865E+04    0.12523E-02   -0.41049E-03  5619   0.290E-02    0.136E-01
RMM:   5    -0.231062657709E+04   -0.58447E-04   -0.70675E-04  4821   0.135E-02    0.188E-01
RMM:   6    -0.231062614904E+04    0.42806E-03   -0.52244E-04  4502   0.139E-02    0.550E-02
RMM:   7    -0.231062612547E+04    0.23571E-04   -0.17943E-04  4044   0.912E-03    0.327E-02
RMM:   8    -0.231062612092E+04    0.45488E-05   -0.40631E-05  2957   0.628E-03
  31 F= -.23318560E+04 E0= -.23318559E+04  d E =-.731995E-02  mag=     3.0000
       N       E                     dE             d eps       ncg     rms          rms(c)
DAV:   1    -0.231060625995E+04    0.19866E-01   -0.10753E+00  4528   0.917E-01    0.305E-01
RMM:   2    -0.231062893143E+04   -0.22671E-01   -0.24221E-01  6556   0.242E-01    0.170E-01
RMM:   3    -0.231063095622E+04   -0.20248E-02   -0.26345E-02  5834   0.855E-02    0.149E-01
RMM:   4    -0.231063094012E+04    0.16104E-04   -0.22120E-03  3666   0.177E-02    0.111E-01
RMM:   5    -0.231063077578E+04    0.16434E-03   -0.21757E-04  3510   0.948E-03    0.567E-02
RMM:   6    -0.231063080003E+04   -0.24245E-04   -0.16661E-04  3579   0.808E-03    0.801E-02
RMM:   7    -0.231063073850E+04    0.61526E-04   -0.87905E-05  2980   0.708E-03    0.210E-02
RMM:   8    -0.231063073381E+04    0.46928E-05   -0.13084E-05  2918   0.411E-03
  32 F= -.23318604E+04 E0= -.23318604E+04  d E =-.441168E-02  mag=     3.0000
       N       E                     dE             d eps       ncg     rms          rms(c)
DAV:   1    -0.231044132351E+04    0.18941E+00   -0.84936E+00  4488   0.258E+00    0.862E-01
RMM:   2    -0.231062188660E+04   -0.18056E+00   -0.19236E+00  6555   0.672E-01    0.501E-01
RMM:   3    -0.231063783201E+04   -0.15945E-01   -0.21449E-01  6051   0.239E-01    0.466E-01
RMM:   4    -0.231063755959E+04    0.27242E-03   -0.17438E-02  6077   0.489E-02    0.317E-01
RMM:   5    -0.231063654345E+04    0.10161E-02   -0.17306E-03  5224   0.203E-02    0.208E-01
RMM:   6    -0.231063654384E+04   -0.39433E-06   -0.13049E-03  4864   0.200E-02    0.222E-01
RMM:   7    -0.231063595574E+04    0.58810E-03   -0.83318E-04  5134   0.158E-02    0.728E-02
RMM:   8    -0.231063593498E+04    0.20760E-04   -0.18966E-04  3423   0.108E-02    0.572E-02
RMM:   9    -0.231063590745E+04    0.27531E-04   -0.75354E-05  2999   0.624E-03    0.415E-02
RMM:  10    -0.231063588609E+04    0.21358E-04   -0.31489E-05  2941   0.498E-03    0.156E-02
RMM:  11    -0.231063588135E+04    0.47419E-05   -0.13198E-05  2949   0.308E-03
  33 F= -.23318650E+04 E0= -.23318649E+04  d E =-.900126E-02  mag=     3.0000
       N       E                     dE             d eps       ncg     rms          rms(c)
DAV:   1    -0.231060613708E+04    0.29749E-01   -0.16694E+00  4508   0.118E+00    0.413E-01
RMM:   2    -0.231064128467E+04   -0.35148E-01   -0.37256E-01  6357   0.309E-01    0.306E-01
RMM:   3    -0.231064523573E+04   -0.39511E-02   -0.41314E-02  6019   0.117E-01    0.404E-01
RMM:   4    -0.231064378993E+04    0.14458E-02   -0.37195E-03  5133   0.273E-02    0.124E-01
RMM:   5    -0.231064372777E+04    0.62158E-04   -0.48487E-04  4391   0.122E-02    0.125E-01
RMM:   6    -0.231064354985E+04    0.17792E-03   -0.38787E-04  4311   0.119E-02    0.695E-02
RMM:   7    -0.231064350778E+04    0.42065E-04   -0.17231E-04  4261   0.910E-03    0.369E-02
RMM:   8    -0.231064350198E+04    0.58065E-05   -0.45014E-05  2961   0.637E-03
  34 F= -.23318722E+04 E0= -.23318722E+04  d E =-.726747E-02  mag=     3.0000
       N       E                     dE             d eps       ncg     rms          rms(c)
DAV:   1    -0.231056028651E+04    0.83221E-01   -0.38242E+00  4496   0.179E+00    0.628E-01
RMM:   2    -0.231064098586E+04   -0.80699E-01   -0.85700E-01  6344   0.469E-01    0.454E-01
RMM:   3    -0.231065018631E+04   -0.92004E-02   -0.96269E-02  6069   0.177E-01    0.610E-01
RMM:   4    -0.231064689693E+04    0.32894E-02   -0.85460E-03  5819   0.410E-02    0.192E-01
RMM:   5    -0.231064678501E+04    0.11193E-03   -0.11347E-03  4977   0.175E-02    0.197E-01
RMM:   6    -0.231064633613E+04    0.44888E-03   -0.88804E-04  5008   0.170E-02    0.105E-01
RMM:   7    -0.231064625308E+04    0.83042E-04   -0.43185E-04  5008   0.133E-02    0.712E-02
RMM:   8    -0.231064621485E+04    0.38236E-04   -0.12087E-04  3107   0.850E-03    0.406E-02
RMM:   9    -0.231064619722E+04    0.17624E-04   -0.23976E-05  2909   0.480E-03    0.186E-02
RMM:  10    -0.231064619236E+04    0.48624E-05   -0.16729E-05  2929   0.371E-03
  35 F= -.23318744E+04 E0= -.23318744E+04  d E =-.942710E-02  mag=     3.0000
       N       E                     dE             d eps       ncg     rms          rms(c)
DAV:   1    -0.231063949754E+04    0.66997E-02   -0.31500E-01  4656   0.514E-01    0.180E-01
RMM:   2    -0.231064620831E+04   -0.67108E-02   -0.70545E-02  6376   0.135E-01    0.153E-01
RMM:   3    -0.231064685699E+04   -0.64867E-03   -0.75477E-03  5613   0.507E-02    0.176E-01
RMM:   4    -0.231064656874E+04    0.28824E-03   -0.68183E-04  3213   0.124E-02    0.540E-02
RMM:   5    -0.231064654794E+04    0.20802E-04   -0.10370E-04  3072   0.672E-03    0.485E-02
RMM:   6    -0.231064652552E+04    0.22420E-04   -0.76628E-05  3064   0.658E-03    0.328E-02
RMM:   7    -0.231064651420E+04    0.11325E-04   -0.31105E-05  2980   0.538E-03    0.695E-03
RMM:   8    -0.231064651461E+04   -0.41549E-06   -0.59777E-06  2853   0.391E-03
  36 F= -.23318749E+04 E0= -.23318748E+04  d E =-.990100E-02  mag=     3.0000
       N       E                     dE             d eps       ncg     rms          rms(c)
DAV:   1    -0.231060466244E+04    0.41852E-01   -0.22171E+00  4504   0.137E+00    0.475E-01
RMM:   2    -0.231065212290E+04   -0.47460E-01   -0.50236E-01  6359   0.359E-01    0.401E-01
RMM:   3    -0.231065685614E+04   -0.47332E-02   -0.52472E-02  6076   0.134E-01    0.511E-01
RMM:   4    -0.231065454740E+04    0.23087E-02   -0.48755E-03  5410   0.322E-02    0.143E-01
RMM:   5    -0.231065450162E+04    0.45783E-04   -0.69803E-04  4572   0.138E-02    0.155E-01
RMM:   6    -0.231065421344E+04    0.28818E-03   -0.54393E-04  4761   0.139E-02    0.770E-02
RMM:   7    -0.231065417783E+04    0.35610E-04   -0.25392E-04  4435   0.107E-02    0.537E-02
RMM:   8    -0.231065415607E+04    0.21763E-04   -0.65563E-05  2989   0.668E-03    0.300E-02
RMM:   9    -0.231065414591E+04    0.10154E-04   -0.14312E-05  2886   0.391E-03    0.136E-02
RMM:  10    -0.231065414317E+04    0.27418E-05   -0.99999E-06  2914   0.290E-03
  37 F= -.23318821E+04 E0= -.23318821E+04  d E =-.725008E-02  mag=     3.0000
       N       E                     dE             d eps       ncg     rms          rms(c)
DAV:   1    -0.231063997814E+04    0.14168E-01   -0.69437E-01  4528   0.770E-01    0.268E-01
RMM:   2    -0.231065490481E+04   -0.14927E-01   -0.15721E-01  6345   0.201E-01    0.243E-01
RMM:   3    -0.231065625104E+04   -0.13462E-02   -0.16191E-02  5921   0.737E-02    0.285E-01
RMM:   4    -0.231065554110E+04    0.70993E-03   -0.15087E-03  3866   0.181E-02    0.800E-02
RMM:   5    -0.231065552516E+04    0.15946E-04   -0.22295E-04  3339   0.880E-03    0.851E-02
RMM:   6    -0.231065543571E+04    0.89449E-04   -0.18214E-04  3774   0.919E-03    0.422E-02
RMM:   7    -0.231065542327E+04    0.12439E-04   -0.77850E-05  3396   0.689E-03    0.238E-02
RMM:   8    -0.231065542120E+04    0.20631E-05   -0.20260E-05  2910   0.520E-03
  38 F= -.23318832E+04 E0= -.23318832E+04  d E =-.831629E-02  mag=     3.0000
       N       E                     dE             d eps       ncg     rms          rms(c)
DAV:   1    -0.231064425101E+04    0.11172E-01   -0.96566E-01  4488   0.992E-01    0.311E-01
RMM:   2    -0.231065938167E+04   -0.15131E-01   -0.16445E-01  6142   0.233E-01    0.175E-01
RMM:   3    -0.231066085497E+04   -0.14733E-02   -0.16234E-02  5835   0.855E-02    0.266E-01
RMM:   4    -0.231066023197E+04    0.62300E-03   -0.16332E-03  4321   0.201E-02    0.918E-02
RMM:   5    -0.231066018276E+04    0.49208E-04   -0.31852E-04  4452   0.117E-02    0.101E-01
RMM:   6    -0.231066009092E+04    0.91848E-04   -0.23675E-04  3905   0.105E-02    0.441E-02
RMM:   7    -0.231066007616E+04    0.14761E-04   -0.81601E-05  3699   0.736E-03    0.208E-02
RMM:   8    -0.231066007412E+04    0.20324E-05   -0.17489E-05  2933   0.545E-03
  39 F= -.23318875E+04 E0= -.23318875E+04  d E =-.432833E-02  mag=     3.0000
       N       E                     dE             d eps       ncg     rms          rms(c)
DAV:   1    -0.231065431668E+04    0.57595E-02   -0.39318E-01  4560   0.633E-01    0.200E-01
RMM:   2    -0.231066049021E+04   -0.61735E-02   -0.67203E-02  6207   0.149E-01    0.115E-01
RMM:   3    -0.231066111335E+04   -0.62315E-03   -0.66858E-03  5675   0.539E-02    0.178E-01
RMM:   4    -0.231066083262E+04    0.28073E-03   -0.66903E-04  3367   0.131E-02    0.578E-02
RMM:   5    -0.231066081026E+04    0.22354E-04   -0.13608E-04  3625   0.827E-03    0.620E-02
RMM:   6    -0.231066077484E+04    0.35428E-04   -0.92313E-05  3093   0.756E-03    0.284E-02
RMM:   7    -0.231066076637E+04    0.84629E-05   -0.34847E-05  3026   0.592E-03
  40 F= -.23318880E+04 E0= -.23318880E+04  d E =-.481404E-02  mag=     3.0000
       N       E                     dE             d eps       ncg     rms          rms(c)
DAV:   1    -0.231065121751E+04    0.95573E-02   -0.88494E-01  4488   0.943E-01    0.270E-01
RMM:   2    -0.231066404132E+04   -0.12824E-01   -0.13500E-01  6336   0.215E-01    0.221E-01
RMM:   3    -0.231066480265E+04   -0.76133E-03   -0.13811E-02  5913   0.766E-02    0.181E-01
RMM:   4    -0.231066447400E+04    0.32865E-03   -0.12818E-03  4539   0.175E-02    0.795E-02
RMM:   5    -0.231066437279E+04    0.10122E-03   -0.21144E-04  4265   0.103E-02    0.411E-02
RMM:   6    -0.231066438293E+04   -0.10142E-04   -0.14397E-04  3866   0.966E-03    0.447E-02
RMM:   7    -0.231066435985E+04    0.23082E-04   -0.35001E-05  2936   0.584E-03    0.185E-02
RMM:   8    -0.231066435578E+04    0.40711E-05   -0.79407E-06  2897   0.314E-03
  41 F= -.23318916E+04 E0= -.23318916E+04  d E =-.362976E-02  mag=     3.0000
       N       E                     dE             d eps       ncg     rms          rms(c)
DAV:   1    -0.231064338678E+04    0.20973E-01   -0.15242E+00  4488   0.124E+00    0.354E-01
RMM:   2    -0.231066558469E+04   -0.22198E-01   -0.23261E-01  6228   0.280E-01    0.304E-01
RMM:   3    -0.231066678384E+04   -0.11992E-02   -0.23816E-02  5977   0.986E-02    0.246E-01
RMM:   4    -0.231066622830E+04    0.55554E-03   -0.22151E-03  5283   0.225E-02    0.111E-01
RMM:   5    -0.231066624571E+04   -0.17410E-04   -0.40473E-04  4356   0.122E-02    0.137E-01
RMM:   6    -0.231066602213E+04    0.22358E-03   -0.32356E-04  4332   0.117E-02    0.515E-02
RMM:   7    -0.231066601368E+04    0.84504E-05   -0.13920E-04  3808   0.897E-03    0.349E-02
RMM:   8    -0.231066600364E+04    0.10038E-04   -0.28848E-05  2924   0.560E-03    0.247E-02
RMM:   9    -0.231066599680E+04    0.68421E-05   -0.96675E-06  2916   0.307E-03
  42 F= -.23318933E+04 E0= -.23318933E+04  d E =-.532882E-02  mag=     3.0000
       N       E                     dE             d eps       ncg     rms          rms(c)
DAV:   1    -0.231065174128E+04    0.14262E-01   -0.13532E+00  4492   0.119E+00    0.351E-01
RMM:   2    -0.231067070078E+04   -0.18959E-01   -0.19259E-01  6217   0.271E-01    0.361E-01
RMM:   3    -0.231067081764E+04   -0.11685E-03   -0.18399E-02  5978   0.972E-02    0.240E-01
RMM:   4    -0.231067024125E+04    0.57639E-03   -0.17835E-03  5331   0.222E-02    0.104E-01
RMM:   5    -0.231067031003E+04   -0.68784E-04   -0.39865E-04  4294   0.128E-02    0.146E-01
RMM:   6    -0.231067005148E+04    0.25855E-03   -0.34991E-04  4495   0.126E-02    0.426E-02
RMM:   7    -0.231067004987E+04    0.16062E-05   -0.89385E-05  3277   0.871E-03
  43 F= -.23318980E+04 E0= -.23318979E+04  d E =-.463519E-02  mag=     3.0000
       N       E                     dE             d eps       ncg     rms          rms(c)
DAV:   1    -0.231064846377E+04    0.21588E-01   -0.15745E+00  4488   0.128E+00    0.379E-01
RMM:   2    -0.231067033663E+04   -0.21873E-01   -0.22425E-01  6206   0.293E-01    0.367E-01
RMM:   3    -0.231067072690E+04   -0.39026E-03   -0.21292E-02  6015   0.104E-01    0.264E-01
RMM:   4    -0.231066998642E+04    0.74047E-03   -0.20624E-03  5501   0.241E-02    0.107E-01
RMM:   5    -0.231066999458E+04   -0.81570E-05   -0.48561E-04  4747   0.141E-02    0.132E-01
RMM:   6    -0.231066979818E+04    0.19640E-03   -0.33143E-04  4420   0.123E-02    0.607E-02
RMM:   7    -0.231066979661E+04    0.15634E-05   -0.11417E-04  3385   0.823E-03    0.483E-02
RMM:   8    -0.231066976742E+04    0.29189E-04   -0.36808E-05  2928   0.577E-03    0.216E-02
RMM:   9    -0.231066976174E+04    0.56874E-05   -0.92435E-06  2897   0.313E-03
  44 F= -.23318983E+04 E0= -.23318983E+04  d E =-.498371E-02  mag=     3.0000
       N       E                     dE             d eps       ncg     rms          rms(c)
DAV:   1    -0.231066724631E+04    0.25211E-02   -0.23641E-01  4624   0.497E-01    0.145E-01
RMM:   2    -0.231067049538E+04   -0.32491E-02   -0.33228E-02  6263   0.113E-01    0.140E-01
RMM:   3    -0.231067056382E+04   -0.68436E-04   -0.31602E-03  4993   0.399E-02    0.102E-01
RMM:   4    -0.231067045670E+04    0.10712E-03   -0.30033E-04  3213   0.986E-03    0.436E-02
RMM:   5    -0.231067046738E+04   -0.10688E-04   -0.69818E-05  3034   0.645E-03    0.604E-02
RMM:   6    -0.231067042400E+04    0.43382E-04   -0.66287E-05  3077   0.667E-03    0.164E-02
RMM:   7    -0.231067042521E+04   -0.12039E-05   -0.18442E-05  2961   0.494E-03
  45 F= -.23318987E+04 E0= -.23318987E+04  d E =-.539961E-02  mag=     3.0000
       N       E                     dE             d eps       ncg     rms          rms(c)
DAV:   1    -0.231065953815E+04    0.10886E-01   -0.11261E+00  4496   0.106E+00    0.299E-01
RMM:   2    -0.231067355734E+04   -0.14019E-01   -0.14499E-01  6083   0.237E-01    0.270E-01
RMM:   3    -0.231067402549E+04   -0.46816E-03   -0.13389E-02  5892   0.820E-02    0.236E-01
RMM:   4    -0.231067349916E+04    0.52633E-03   -0.13068E-03  5185   0.196E-02    0.951E-02
RMM:   5    -0.231067355436E+04   -0.55199E-04   -0.35641E-04  4066   0.119E-02    0.132E-01
RMM:   6    -0.231067334493E+04    0.20943E-03   -0.28012E-04  4362   0.116E-02    0.396E-02
RMM:   7    -0.231067333964E+04    0.52922E-05   -0.91929E-05  3260   0.812E-03
  46 F= -.23319020E+04 E0= -.23319020E+04  d E =-.327000E-02  mag=     3.0000
       N       E                     dE             d eps       ncg     rms          rms(c)
DAV:   1    -0.231065677235E+04    0.16573E-01   -0.13047E+00  4488   0.114E+00    0.324E-01
RMM:   2    -0.231067296409E+04   -0.16192E-01   -0.16857E-01  6136   0.256E-01    0.277E-01
RMM:   3    -0.231067366092E+04   -0.69683E-03   -0.15886E-02  5923   0.914E-02    0.256E-01
RMM:   4    -0.231067298748E+04    0.67344E-03   -0.15591E-03  5375   0.216E-02    0.966E-02
RMM:   5    -0.231067298229E+04    0.51907E-05   -0.42339E-04  4542   0.131E-02    0.116E-01
RMM:   6    -0.231067284240E+04    0.13988E-03   -0.26468E-04  3984   0.115E-02    0.603E-02
RMM:   7    -0.231067282428E+04    0.18126E-04   -0.11735E-04  3424   0.795E-03    0.380E-02
RMM:   8    -0.231067280815E+04    0.16130E-04   -0.31217E-05  2912   0.563E-03    0.234E-02
RMM:   9    -0.231067280126E+04    0.68845E-05   -0.79343E-06  2878   0.303E-03
  47 F= -.23319018E+04 E0= -.23319018E+04  d E =-.312410E-02  mag=     3.0000
       N       E                     dE             d eps       ncg     rms          rms(c)
DAV:   1    -0.231066969692E+04    0.31112E-02   -0.31356E-01  4528   0.558E-01    0.157E-01
RMM:   2    -0.231067356959E+04   -0.38727E-02   -0.40202E-02  6175   0.125E-01    0.135E-01
RMM:   3    -0.231067372677E+04   -0.15718E-03   -0.37023E-03  5246   0.430E-02    0.123E-01
RMM:   4    -0.231067357985E+04    0.14692E-03   -0.35493E-04  3305   0.107E-02    0.493E-02
RMM:   5    -0.231067359393E+04   -0.14079E-04   -0.10114E-04  3121   0.734E-03    0.679E-02
RMM:   6    -0.231067354187E+04    0.52055E-04   -0.78700E-05  3079   0.722E-03    0.219E-02
RMM:   7    -0.231067354187E+04    0.27212E-08   -0.30475E-05  3009   0.554E-03
  48 F= -.23319024E+04 E0= -.23319024E+04  d E =-.367119E-02  mag=     3.0000
       N       E                     dE             d eps       ncg     rms          rms(c)
DAV:   1    -0.231066507265E+04    0.84692E-02   -0.11274E+00  4488   0.105E+00    0.289E-01
RMM:   2    -0.231067669591E+04   -0.11623E-01   -0.12557E-01  6020   0.224E-01    0.157E-01
RMM:   3    -0.231067727924E+04   -0.58333E-03   -0.11168E-02  5721   0.784E-02    0.184E-01
RMM:   4    -0.231067699911E+04    0.28013E-03   -0.10964E-03  4638   0.177E-02    0.906E-02
RMM:   5    -0.231067689494E+04    0.10416E-03   -0.28596E-04  4330   0.120E-02    0.491E-02
RMM:   6    -0.231067691443E+04   -0.19484E-04   -0.14295E-04  3332   0.103E-02    0.652E-02
RMM:   7    -0.231067687441E+04    0.40020E-04   -0.44120E-05  2968   0.613E-03    0.182E-02
RMM:   8    -0.231067687109E+04    0.33221E-05   -0.10158E-05  2888   0.382E-03
  49 F= -.23319058E+04 E0= -.23319058E+04  d E =-.338363E-02  mag=     3.0000
       N       E                     dE             d eps       ncg     rms          rms(c)
DAV:   1    -0.231066917954E+04    0.76949E-02   -0.80401E-01  4496   0.883E-01    0.247E-01
RMM:   2    -0.231067747570E+04   -0.82962E-02   -0.89931E-02  6015   0.189E-01    0.128E-01
RMM:   3    -0.231067787703E+04   -0.40133E-03   -0.79255E-03  5620   0.655E-02    0.143E-01
RMM:   4    -0.231067772134E+04    0.15569E-03   -0.78461E-04  3995   0.150E-02    0.797E-02
RMM:   5    -0.231067764127E+04    0.80068E-04   -0.19515E-04  4212   0.105E-02    0.410E-02
RMM:   6    -0.231067765368E+04   -0.12403E-04   -0.92152E-05  3182   0.818E-03    0.478E-02
RMM:   7    -0.231067763073E+04    0.22945E-04   -0.35634E-05  2942   0.581E-03    0.205E-02
RMM:   8    -0.231067762683E+04    0.39027E-05   -0.80310E-06  2896   0.348E-03
  50 F= -.23319066E+04 E0= -.23319066E+04  d E =-.418908E-02  mag=     3.0000
       N       E                     dE             d eps       ncg     rms          rms(c)
DAV:   1    -0.231066794909E+04    0.96816E-02   -0.12037E+00  4488   0.107E+00    0.298E-01
RMM:   2    -0.231068132586E+04   -0.13377E-01   -0.14187E-01  6016   0.237E-01    0.218E-01
RMM:   3    -0.231068218966E+04   -0.86380E-03   -0.13097E-02  5817   0.819E-02    0.279E-01
RMM:   4    -0.231068137459E+04    0.81507E-03   -0.12732E-03  4942   0.198E-02    0.916E-02
RMM:   5    -0.231068141357E+04   -0.38978E-04   -0.33104E-04  4029   0.115E-02    0.116E-01
RMM:   6    -0.231068125253E+04    0.16104E-03   -0.26523E-04  4464   0.108E-02    0.390E-02
RMM:   7    -0.231068124077E+04    0.11764E-04   -0.72735E-05  3198   0.746E-03    0.195E-02
RMM:   8    -0.231068123694E+04    0.38325E-05   -0.15090E-05  2919   0.424E-03
  51 F= -.23319102E+04 E0= -.23319102E+04  d E =-.359134E-02  mag=     3.0000
       N       E                     dE             d eps       ncg     rms          rms(c)
DAV:   1    -0.231067016137E+04    0.11079E-01   -0.10986E+00  4492   0.103E+00    0.285E-01
RMM:   2    -0.231068232225E+04   -0.12161E-01   -0.12960E-01  6021   0.227E-01    0.197E-01
RMM:   3    -0.231068312163E+04   -0.79938E-03   -0.11744E-02  5826   0.756E-02    0.264E-01
RMM:   4    -0.231068243145E+04    0.69018E-03   -0.11598E-03  4735   0.186E-02    0.880E-02
RMM:   5    -0.231068245623E+04   -0.24775E-04   -0.29772E-04  4001   0.110E-02    0.108E-01
RMM:   6    -0.231068232141E+04    0.13481E-03   -0.25023E-04  4350   0.104E-02    0.401E-02
RMM:   7    -0.231068230775E+04    0.13667E-04   -0.66197E-05  3174   0.711E-03    0.213E-02
RMM:   8    -0.231068230418E+04    0.35632E-05   -0.17454E-05  2914   0.445E-03
  52 F= -.23319112E+04 E0= -.23319112E+04  d E =-.464440E-02  mag=     3.0000
       N       E                     dE             d eps       ncg     rms          rms(c)
DAV:   1    -0.231067075580E+04    0.11552E-01   -0.13336E+00  4492   0.110E+00    0.314E-01
RMM:   2    -0.231068647951E+04   -0.15724E-01   -0.16260E-01  6116   0.251E-01    0.284E-01
RMM:   3    -0.231068694067E+04   -0.46116E-03   -0.15243E-02  5915   0.861E-02    0.276E-01
RMM:   4    -0.231068615731E+04    0.78336E-03   -0.14127E-03  5224   0.204E-02    0.104E-01
RMM:   5    -0.231068615188E+04    0.54298E-05   -0.32675E-04  3546   0.109E-02    0.113E-01
RMM:   6    -0.231068599995E+04    0.15193E-03   -0.30647E-04  4511   0.115E-02    0.454E-02
RMM:   7    -0.231068598832E+04    0.11634E-04   -0.10285E-04  3357   0.834E-03    0.307E-02
RMM:   8    -0.231068598172E+04    0.65906E-05   -0.30920E-05  2934   0.505E-03
  53 F= -.23319149E+04 E0= -.23319149E+04  d E =-.371925E-02  mag=     3.0000
       N       E                     dE             d eps       ncg     rms          rms(c)
DAV:   1    -0.231066777022E+04    0.18218E-01   -0.17031E+00  4492   0.125E+00    0.356E-01
RMM:   2    -0.231068786071E+04   -0.20090E-01   -0.20780E-01  6123   0.284E-01    0.320E-01
RMM:   3    -0.231068845947E+04   -0.59875E-03   -0.19516E-02  5943   0.953E-02    0.313E-01
RMM:   4    -0.231068744791E+04    0.10116E-02   -0.18198E-03  5399   0.230E-02    0.118E-01
RMM:   5    -0.231068743695E+04    0.10958E-04   -0.40591E-04  3813   0.120E-02    0.128E-01
RMM:   6    -0.231068724233E+04    0.19462E-03   -0.38891E-04  4673   0.125E-02    0.514E-02
RMM:   7    -0.231068722489E+04    0.17440E-04   -0.12918E-04  3498   0.920E-03    0.335E-02
RMM:   8    -0.231068721736E+04    0.75318E-05   -0.38224E-05  2938   0.531E-03
  54 F= -.23319162E+04 E0= -.23319162E+04  d E =-.501007E-02  mag=     3.0000
       N       E                     dE             d eps       ncg     rms          rms(c)
DAV:   1    -0.231067017676E+04    0.17048E-01   -0.19651E+00  4488   0.127E+00    0.362E-01
RMM:   2    -0.231069130712E+04   -0.21130E-01   -0.22137E-01  6092   0.288E-01    0.285E-01
RMM:   3    -0.231069204422E+04   -0.73709E-03   -0.19836E-02  5912   0.942E-02    0.315E-01
RMM:   4    -0.231069096221E+04    0.10820E-02   -0.18870E-03  5463   0.230E-02    0.119E-01
RMM:   5    -0.231069100055E+04   -0.38334E-04   -0.47397E-04  4081   0.127E-02    0.142E-01
RMM:   6    -0.231069077931E+04    0.22124E-03   -0.42357E-04  4673   0.127E-02    0.579E-02
RMM:   7    -0.231069074700E+04    0.32307E-04   -0.13664E-04  3410   0.905E-03    0.232E-02
RMM:   8    -0.231069074129E+04    0.57078E-05   -0.19603E-05  2916   0.474E-03
  55 F= -.23319199E+04 E0= -.23319199E+04  d E =-.368293E-02  mag=     3.0000
       N       E                     dE             d eps       ncg     rms          rms(c)
DAV:   1    -0.231068080453E+04    0.99425E-02   -0.10061E+00  4528   0.906E-01    0.260E-01
RMM:   2    -0.231069161295E+04   -0.10808E-01   -0.11327E-01  6090   0.206E-01    0.206E-01
RMM:   3    -0.231069198609E+04   -0.37314E-03   -0.10116E-02  5824   0.664E-02    0.230E-01
RMM:   4    -0.231069143038E+04    0.55571E-03   -0.97501E-04  4558   0.165E-02    0.854E-02
RMM:   5    -0.231069144624E+04   -0.15860E-04   -0.24015E-04  3366   0.958E-03    0.101E-01
RMM:   6    -0.231069133481E+04    0.11143E-03   -0.22196E-04  4153   0.995E-03    0.425E-02
RMM:   7    -0.231069131819E+04    0.16618E-04   -0.71284E-05  3222   0.697E-03    0.191E-02
RMM:   8    -0.231069131619E+04    0.19983E-05   -0.15459E-05  2900   0.423E-03
  56 F= -.23319206E+04 E0= -.23319206E+04  d E =-.437785E-02  mag=     3.0000
       N       E                     dE             d eps       ncg     rms          rms(c)
DAV:   1    -0.231066936358E+04    0.21955E-01   -0.23969E+00  4488   0.138E+00    0.404E-01
RMM:   2    -0.231069555693E+04   -0.26193E-01   -0.28030E-01  5985   0.317E-01    0.237E-01
RMM:   3    -0.231069615777E+04   -0.60084E-03   -0.22637E-02  5728   0.103E-01    0.275E-01
RMM:   4    -0.231069532449E+04    0.83328E-03   -0.22438E-03  5198   0.240E-02    0.137E-01
RMM:   5    -0.231069534022E+04   -0.15725E-04   -0.60107E-04  4603   0.148E-02    0.164E-01
RMM:   6    -0.231069506837E+04    0.27184E-03   -0.48410E-04  4791   0.131E-02    0.590E-02
RMM:   7    -0.231069503691E+04    0.31464E-04   -0.12580E-04  3364   0.865E-03    0.229E-02
RMM:   8    -0.231069502871E+04    0.81982E-05   -0.18143E-05  2914   0.458E-03
  57 F= -.23319245E+04 E0= -.23319245E+04  d E =-.393729E-02  mag=     3.0000
       N       E                     dE             d eps       ncg     rms          rms(c)
DAV:   1    -0.231067917688E+04    0.15860E-01   -0.15104E+00  4496   0.110E+00    0.321E-01
RMM:   2    -0.231069565217E+04   -0.16475E-01   -0.17612E-01  6012   0.251E-01    0.192E-01
RMM:   3    -0.231069605622E+04   -0.40405E-03   -0.14386E-02  5655   0.825E-02    0.228E-01
RMM:   4    -0.231069548770E+04    0.56852E-03   -0.14181E-03  4556   0.194E-02    0.109E-01
RMM:   5    -0.231069550136E+04   -0.13662E-04   -0.39121E-04  4021   0.121E-02    0.132E-01
RMM:   6    -0.231069532215E+04    0.17921E-03   -0.32388E-04  4514   0.111E-02    0.477E-02
RMM:   7    -0.231069530048E+04    0.21676E-04   -0.85019E-05  3203   0.763E-03    0.197E-02
RMM:   8    -0.231069529601E+04    0.44683E-05   -0.14654E-05  2895   0.415E-03
  58 F= -.23319250E+04 E0= -.23319250E+04  d E =-.438906E-02  mag=     3.0000
       N       E                     dE             d eps       ncg     rms          rms(c)
DAV:   1    -0.231067467156E+04    0.20629E-01   -0.20252E+00  4488   0.126E+00    0.367E-01
RMM:   2    -0.231069818743E+04   -0.23516E-01   -0.25098E-01  6046   0.292E-01    0.233E-01
RMM:   3    -0.231069866119E+04   -0.47376E-03   -0.20576E-02  5811   0.960E-02    0.246E-01
RMM:   4    -0.231069802345E+04    0.63774E-03   -0.19854E-03  4991   0.218E-02    0.114E-01
RMM:   5    -0.231069785346E+04    0.16999E-03   -0.45258E-04  4365   0.129E-02    0.651E-02
RMM:   6    -0.231069784326E+04    0.10206E-04   -0.25175E-04  3881   0.120E-02    0.606E-02
RMM:   7    -0.231069781908E+04    0.24180E-04   -0.62586E-05  3000   0.655E-03    0.323E-02
RMM:   8    -0.231069780657E+04    0.12511E-04   -0.13304E-05  2893   0.371E-03    0.117E-02
RMM:   9    -0.231069780597E+04    0.59196E-06   -0.53952E-06  2896   0.221E-03
  59 F= -.23319277E+04 E0= -.23319277E+04  d E =-.273918E-02  mag=     3.0000
       N       E                     dE             d eps       ncg     rms          rms(c)
DAV:   1    -0.231064630934E+04    0.51497E-01   -0.44842E+00  4488   0.188E+00    0.545E-01
RMM:   2    -0.231069853964E+04   -0.52230E-01   -0.55682E-01  6049   0.436E-01    0.351E-01
RMM:   3    -0.231069953010E+04   -0.99046E-03   -0.45791E-02  5864   0.144E-01    0.370E-01
RMM:   4    -0.231069813117E+04    0.13989E-02   -0.43818E-03  5809   0.325E-02    0.173E-01
RMM:   5    -0.231069786330E+04    0.26787E-03   -0.10108E-03  4841   0.182E-02    0.139E-01
RMM:   6    -0.231069782981E+04    0.33493E-04   -0.69010E-04  4652   0.158E-02    0.127E-01
RMM:   7    -0.231069766040E+04    0.16941E-03   -0.25789E-04  3835   0.106E-02    0.475E-02
RMM:   8    -0.231069764615E+04    0.14246E-04   -0.50249E-05  2931   0.600E-03    0.322E-02
RMM:   9    -0.231069763496E+04    0.11191E-04   -0.19011E-05  2904   0.338E-03    0.190E-02
RMM:  10    -0.231069763081E+04    0.41496E-05   -0.76487E-06  2888   0.250E-03
  60 F= -.23319279E+04 E0= -.23319279E+04  d E =-.291219E-02  mag=     3.0000
       N       E                     dE             d eps       ncg     rms          rms(c)
DAV:   1    -0.231068732399E+04    0.10311E-01   -0.97430E-01  4512   0.873E-01    0.252E-01
RMM:   2    -0.231069852703E+04   -0.11203E-01   -0.11932E-01  6047   0.199E-01    0.161E-01
RMM:   3    -0.231069873205E+04   -0.20502E-03   -0.96405E-03  5718   0.645E-02    0.186E-01
RMM:   4    -0.231069842605E+04    0.30600E-03   -0.93550E-04  3741   0.151E-02    0.830E-02
RMM:   5    -0.231069842558E+04    0.47332E-06   -0.25186E-04  3604   0.976E-03    0.940E-02
RMM:   6    -0.231069833204E+04    0.93534E-04   -0.16135E-04  3307   0.901E-03    0.410E-02
RMM:   7    -0.231069831790E+04    0.14139E-04   -0.65547E-05  3190   0.628E-03    0.145E-02
RMM:   8    -0.231069831599E+04    0.19094E-05   -0.88809E-06  2879   0.408E-03
  61 F= -.23319284E+04 E0= -.23319284E+04  d E =-.343413E-02  mag=     3.0000
       N       E                     dE             d eps       ncg     rms          rms(c)
DAV:   1    -0.231069540433E+04    0.29136E-02   -0.47525E-01  4528   0.655E-01    0.215E-01
RMM:   2    -0.231070057141E+04   -0.51671E-02   -0.56012E-02  5987   0.148E-01    0.127E-01
RMM:   3    -0.231070079658E+04   -0.22517E-03   -0.49895E-03  5613   0.563E-02    0.153E-01
RMM:   4    -0.231070058439E+04    0.21219E-03   -0.53776E-04  3918   0.137E-02    0.763E-02
RMM:   5    -0.231070056295E+04    0.21432E-04   -0.18996E-04  3741   0.102E-02    0.736E-02
RMM:   6    -0.231070050510E+04    0.57858E-04   -0.14338E-04  3647   0.899E-03    0.363E-02
RMM:   7    -0.231070048893E+04    0.16167E-04   -0.41830E-05  3109   0.623E-03    0.121E-02
RMM:   8    -0.231070048747E+04    0.14592E-05   -0.91967E-06  2876   0.391E-03
  62 F= -.23319307E+04 E0= -.23319307E+04  d E =-.225257E-02  mag=     3.0000
       N       E                     dE             d eps       ncg     rms          rms(c)
DAV:   1    -0.231069987469E+04    0.61424E-03   -0.69836E-02  4672   0.251E-01    0.841E-02
RMM:   2    -0.231070063682E+04   -0.76213E-03   -0.83107E-03  6044   0.575E-02    0.482E-02
RMM:   3    -0.231070066764E+04   -0.30819E-04   -0.74179E-04  3742   0.207E-02    0.550E-02
RMM:   4    -0.231070064024E+04    0.27398E-04   -0.79326E-05  2951   0.621E-03    0.292E-02
RMM:   5    -0.231070063981E+04    0.43704E-06   -0.30550E-05  2972   0.442E-03
  63 F= -.23319309E+04 E0= -.23319309E+04  d E =-.243606E-02  mag=     3.0000
       N       E                     dE             d eps       ncg     rms          rms(c)
DAV:   1    -0.231069865011E+04    0.19901E-02   -0.29990E-01  4528   0.537E-01    0.159E-01
RMM:   2    -0.231070222275E+04   -0.35726E-02   -0.38188E-02  6083   0.118E-01    0.994E-02
RMM:   3    -0.231070239563E+04   -0.17288E-03   -0.35745E-03  5207   0.441E-02    0.106E-01
RMM:   4    -0.231070225514E+04    0.14049E-03   -0.32176E-04  3229   0.105E-02    0.479E-02
RMM:   5    -0.231070224904E+04    0.61075E-05   -0.98325E-05  3266   0.710E-03
  64 F= -.23319325E+04 E0= -.23319325E+04  d E =-.160545E-02  mag=     3.0000
       N       E                     dE             d eps       ncg     rms          rms(c)
DAV:   1    -0.231069591455E+04    0.63406E-02   -0.57581E-01  4488   0.744E-01    0.223E-01
RMM:   2    -0.231070286081E+04   -0.69463E-02   -0.73659E-02  6148   0.163E-01    0.167E-01
RMM:   3    -0.231070328511E+04   -0.42430E-03   -0.69718E-03  5790   0.622E-02    0.200E-01
RMM:   4    -0.231070286590E+04    0.41921E-03   -0.67099E-04  4010   0.153E-02    0.763E-02
RMM:   5    -0.231070287794E+04   -0.12036E-04   -0.21112E-04  3429   0.983E-03    0.890E-02
RMM:   6    -0.231070277124E+04    0.10670E-03   -0.19460E-04  4246   0.985E-03    0.273E-02
RMM:   7    -0.231070276676E+04    0.44779E-05   -0.48099E-05  3079   0.654E-03
  65 F= -.23319330E+04 E0= -.23319330E+04  d E =-.211813E-02  mag=     3.0000
       N       E                     dE             d eps       ncg     rms          rms(c)
DAV:   1    -0.231070038954E+04    0.23817E-02   -0.32083E-01  4496   0.547E-01    0.152E-01
RMM:   2    -0.231070377780E+04   -0.33883E-02   -0.36461E-02  6067   0.118E-01    0.852E-02
RMM:   3    -0.231070393878E+04   -0.16098E-03   -0.32805E-03  5047   0.430E-02    0.103E-01
RMM:   4    -0.231070383163E+04    0.10715E-03   -0.30230E-04  3170   0.990E-03    0.515E-02
RMM:   5    -0.231070382390E+04    0.77284E-05   -0.74181E-05  3056   0.629E-03
  66 F= -.23319341E+04 E0= -.23319341E+04  d E =-.107290E-02  mag=     3.0000
       N       E                     dE             d eps       ncg     rms          rms(c)
DAV:   1    -0.231069903230E+04    0.47993E-02   -0.48054E-01  4492   0.670E-01    0.185E-01
RMM:   2    -0.231070413744E+04   -0.51051E-02   -0.54241E-02  6119   0.144E-01    0.125E-01
RMM:   3    -0.231070437059E+04   -0.23315E-03   -0.49761E-03  5678   0.529E-02    0.138E-01
RMM:   4    -0.231070414890E+04    0.22169E-03   -0.45375E-04  3524   0.125E-02    0.604E-02
RMM:   5    -0.231070418907E+04   -0.40163E-04   -0.17785E-04  3493   0.929E-03    0.904E-02
RMM:   6    -0.231070408820E+04    0.10086E-03   -0.11873E-04  3568   0.844E-03    0.166E-02
RMM:   7    -0.231070409106E+04   -0.28637E-05   -0.26895E-05  2969   0.549E-03
  67 F= -.23319343E+04 E0= -.23319343E+04  d E =-.135954E-02  mag=     3.0000
       N       E                     dE             d eps       ncg     rms          rms(c)
DAV:   1    -0.231070280533E+04    0.12829E-02   -0.25543E-01  4528   0.462E-01    0.134E-01
RMM:   2    -0.231070509636E+04   -0.22910E-02   -0.24809E-02  6013   0.994E-02    0.665E-02
RMM:   3    -0.231070519571E+04   -0.99347E-04   -0.22615E-03  4586   0.373E-02    0.911E-02
RMM:   4    -0.231070512984E+04    0.65866E-04   -0.20053E-04  3097   0.854E-03    0.435E-02
RMM:   5    -0.231070510694E+04    0.22900E-04   -0.57512E-05  3156   0.586E-03    0.287E-02
RMM:   6    -0.231070510259E+04    0.43504E-05   -0.46115E-05  2961   0.612E-03
  68 F= -.23319355E+04 E0= -.23319354E+04  d E =-.110262E-02  mag=     3.0000
       N       E                     dE             d eps       ncg     rms          rms(c)
DAV:   1    -0.231070170503E+04    0.34019E-02   -0.40174E-01  4492   0.579E-01    0.168E-01
RMM:   2    -0.231070531543E+04   -0.36104E-02   -0.39092E-02  5884   0.123E-01    0.811E-02
RMM:   3    -0.231070542482E+04   -0.10938E-03   -0.34969E-03  5035   0.436E-02    0.951E-02
RMM:   4    -0.231070537248E+04    0.52339E-04   -0.31445E-04  3227   0.983E-03    0.612E-02
RMM:   5    -0.231070532694E+04    0.45541E-04   -0.82042E-05  3298   0.691E-03    0.354E-02
RMM:   6    -0.231070532299E+04    0.39534E-05   -0.71741E-05  3062   0.727E-03
  69 F= -.23319358E+04 E0= -.23319358E+04  d E =-.143809E-02  mag=     3.0000
       N       E                     dE             d eps       ncg     rms          rms(c)
DAV:   1    -0.231070406584E+04    0.12611E-02   -0.22186E-01  4496   0.413E-01    0.114E-01
RMM:   2    -0.231070609700E+04   -0.20312E-02   -0.21784E-02  6231   0.905E-02    0.574E-02
RMM:   3    -0.231070612438E+04   -0.27381E-04   -0.18486E-03  4359   0.305E-02    0.493E-02
RMM:   4    -0.231070611990E+04    0.44786E-05   -0.16624E-04  3111   0.753E-03    0.468E-02
RMM:   5    -0.231070609862E+04    0.21282E-04   -0.37637E-05  2984   0.490E-03    0.311E-02
RMM:   6    -0.231070609551E+04    0.31017E-05   -0.37985E-05  2930   0.477E-03
  70 F= -.23319367E+04 E0= -.23319367E+04  d E =-.958009E-03  mag=     3.0000
       N       E                     dE             d eps       ncg     rms          rms(c)
DAV:   1    -0.231069344110E+04    0.12658E-01   -0.14150E+00  4488   0.104E+00    0.284E-01
RMM:   2    -0.231070633631E+04   -0.12895E-01   -0.13783E-01  5972   0.225E-01    0.139E-01
RMM:   3    -0.231070655959E+04   -0.22328E-03   -0.11767E-02  5593   0.796E-02    0.134E-01
RMM:   4    -0.231070652801E+04    0.31578E-04   -0.10684E-03  4122   0.168E-02    0.116E-01
RMM:   5    -0.231070639468E+04    0.13332E-03   -0.24454E-04  4101   0.111E-02    0.822E-02
RMM:   6    -0.231070634494E+04    0.49746E-04   -0.23115E-04  3784   0.996E-03    0.546E-02
RMM:   7    -0.231070631559E+04    0.29353E-04   -0.61355E-05  3136   0.690E-03    0.188E-02
RMM:   8    -0.231070631318E+04    0.24009E-05   -0.14406E-05  2886   0.450E-03
  71 F= -.23319374E+04 E0= -.23319374E+04  d E =-.164649E-02  mag=     3.0000
       N       E                     dE             d eps       ncg     rms          rms(c)
DAV:   1    -0.231070368748E+04    0.26281E-02   -0.33610E-01  4496   0.502E-01    0.138E-01
RMM:   2    -0.231070707212E+04   -0.33846E-02   -0.35474E-02  6204   0.112E-01    0.842E-02
RMM:   3    -0.231070718489E+04   -0.11277E-03   -0.30723E-03  4834   0.384E-02    0.938E-02
RMM:   4    -0.231070707603E+04    0.10885E-03   -0.27979E-04  3169   0.944E-03    0.411E-02
RMM:   5    -0.231070705588E+04    0.20153E-04   -0.71900E-05  3120   0.624E-03    0.289E-02
RMM:   6    -0.231070705676E+04   -0.87712E-06   -0.37573E-05  2979   0.558E-03
  72 F= -.23319384E+04 E0= -.23319384E+04  d E =-.100079E-02  mag=     3.0000
       N       E                     dE             d eps       ncg     rms          rms(c)
DAV:   1    -0.231068528265E+04    0.21773E-01   -0.21718E+00  4488   0.128E+00    0.350E-01
RMM:   2    -0.231070717072E+04   -0.21888E-01   -0.23018E-01  6078   0.287E-01    0.199E-01
RMM:   3    -0.231070777545E+04   -0.60472E-03   -0.19560E-02  5861   0.971E-02    0.213E-01
RMM:   4    -0.231070730944E+04    0.46600E-03   -0.18118E-03  4866   0.215E-02    0.115E-01
RMM:   5    -0.231070724284E+04    0.66603E-04   -0.42401E-04  4427   0.128E-02    0.116E-01
RMM:   6    -0.231070712118E+04    0.12166E-03   -0.27513E-04  3550   0.112E-02    0.640E-02
RMM:   7    -0.231070708306E+04    0.38123E-04   -0.10983E-04  3512   0.783E-03    0.239E-02
RMM:   8    -0.231070707891E+04    0.41444E-05   -0.24307E-05  2909   0.561E-03
  73 F= -.23319391E+04 E0= -.23319391E+04  d E =-.168222E-02  mag=     3.0000
       N       E                     dE             d eps       ncg     rms          rms(c)
DAV:   1    -0.231070137838E+04    0.57047E-02   -0.63541E-01  4488   0.662E-01    0.188E-01
RMM:   2    -0.231070820203E+04   -0.68236E-02   -0.71218E-02  6325   0.154E-01    0.125E-01
RMM:   3    -0.231070849358E+04   -0.29155E-03   -0.66255E-03  5389   0.522E-02    0.129E-01
RMM:   4    -0.231070829697E+04    0.19660E-03   -0.57495E-04  3342   0.123E-02    0.610E-02
RMM:   5    -0.231070827095E+04    0.26020E-04   -0.11646E-04  3210   0.713E-03    0.587E-02
RMM:   6    -0.231070824850E+04    0.22449E-04   -0.84326E-05  3025   0.666E-03    0.434E-02
RMM:   7    -0.231070823094E+04    0.17563E-04   -0.49149E-05  3109   0.559E-03    0.117E-02
RMM:   8    -0.231070822946E+04    0.14827E-05   -0.77061E-06  2873   0.406E-03
  74 F= -.23319404E+04 E0= -.23319404E+04  d E =-.129841E-02  mag=     3.0000
       N       E                     dE             d eps       ncg     rms          rms(c)
DAV:   1    -0.231069729331E+04    0.10938E-01   -0.10513E+00  4488   0.851E-01    0.241E-01
RMM:   2    -0.231070867379E+04   -0.11380E-01   -0.11801E-01  6166   0.198E-01    0.175E-01
RMM:   3    -0.231070910679E+04   -0.43301E-03   -0.11020E-02  5836   0.682E-02    0.174E-01
RMM:   4    -0.231070873948E+04    0.36732E-03   -0.96662E-04  3751   0.157E-02    0.791E-02
RMM:   5    -0.231070870554E+04    0.33940E-04   -0.19203E-04  3372   0.855E-03    0.817E-02
RMM:   6    -0.231070865227E+04    0.53268E-04   -0.14564E-04  3183   0.809E-03    0.540E-02
RMM:   7    -0.231070862287E+04    0.29398E-04   -0.87044E-05  3256   0.699E-03    0.146E-02
RMM:   8    -0.231070862051E+04    0.23583E-05   -0.12171E-05  2891   0.493E-03
  75 F= -.23319410E+04 E0= -.23319410E+04  d E =-.188251E-02  mag=     3.0000
       N       E                     dE             d eps       ncg     rms          rms(c)
DAV:   1    -0.231070415532E+04    0.44676E-02   -0.54741E-01  4488   0.619E-01    0.191E-01
RMM:   2    -0.231071011316E+04   -0.59578E-02   -0.62896E-02  6098   0.146E-01    0.113E-01
RMM:   3    -0.231071034431E+04   -0.23115E-03   -0.58547E-03  5481   0.505E-02    0.118E-01
RMM:   4    -0.231071020621E+04    0.13810E-03   -0.50705E-04  3357   0.115E-02    0.622E-02
RMM:   5    -0.231071017247E+04    0.33744E-04   -0.11218E-04  3182   0.752E-03    0.516E-02
RMM:   6    -0.231071016369E+04    0.87727E-05   -0.88798E-05  3131   0.714E-03
  76 F= -.23319425E+04 E0= -.23319425E+04  d E =-.149698E-02  mag=     3.0000
       N       E                     dE             d eps       ncg     rms          rms(c)
DAV:   1    -0.231070409928E+04    0.60732E-02   -0.58989E-01  4488   0.644E-01    0.199E-01
RMM:   2    -0.231071051458E+04   -0.64153E-02   -0.68025E-02  6142   0.152E-01    0.115E-01
RMM:   3    -0.231071075534E+04   -0.24077E-03   -0.64187E-03  5648   0.533E-02    0.122E-01
RMM:   4    -0.231071064002E+04    0.11533E-03   -0.55546E-04  3381   0.118E-02    0.735E-02
RMM:   5    -0.231071060287E+04    0.37146E-04   -0.10727E-04  3187   0.725E-03    0.619E-02
RMM:   6    -0.231071057766E+04    0.25213E-04   -0.11900E-04  3261   0.773E-03    0.469E-02
RMM:   7    -0.231071054909E+04    0.28568E-04   -0.52403E-05  3135   0.638E-03    0.125E-02
RMM:   8    -0.231071054707E+04    0.20221E-05   -0.98357E-06  2873   0.426E-03
  77 F= -.23319428E+04 E0= -.23319428E+04  d E =-.183311E-02  mag=     3.0000
       N       E                     dE             d eps       ncg     rms          rms(c)
DAV:   1    -0.231070411658E+04    0.64325E-02   -0.67415E-01  4488   0.675E-01    0.205E-01
RMM:   2    -0.231071165747E+04   -0.75409E-02   -0.80122E-02  6134   0.160E-01    0.106E-01
RMM:   3    -0.231071194812E+04   -0.29065E-03   -0.70540E-03  5478   0.548E-02    0.148E-01
RMM:   4    -0.231071177966E+04    0.16846E-03   -0.60499E-04  3344   0.118E-02    0.642E-02
RMM:   5    -0.231071174075E+04    0.38910E-04   -0.11416E-04  3316   0.714E-03    0.523E-02
RMM:   6    -0.231071172412E+04    0.16632E-04   -0.10272E-04  3060   0.750E-03    0.387E-02
RMM:   7    -0.231071170591E+04    0.18211E-04   -0.35319E-05  3036   0.554E-03    0.125E-02
RMM:   8    -0.231071170410E+04    0.18077E-05   -0.73341E-06  2877   0.366E-03
  78 F= -.23319441E+04 E0= -.23319441E+04  d E =-.124284E-02  mag=     3.0000
       N       E                     dE             d eps       ncg     rms          rms(c)
DAV:   1    -0.231070157546E+04    0.10130E-01   -0.92626E-01  4488   0.792E-01    0.241E-01
RMM:   2    -0.231071198197E+04   -0.10407E-01   -0.11025E-01  6050   0.188E-01    0.131E-01
RMM:   3    -0.231071241619E+04   -0.43423E-03   -0.97936E-03  5613   0.635E-02    0.183E-01
RMM:   4    -0.231071211412E+04    0.30207E-03   -0.84460E-04  3473   0.141E-02    0.759E-02
RMM:   5    -0.231071208733E+04    0.26797E-04   -0.16921E-04  3382   0.827E-03    0.752E-02
RMM:   6    -0.231071202472E+04    0.62601E-04   -0.15854E-04  3277   0.874E-03    0.372E-02
RMM:   7    -0.231071201010E+04    0.14627E-04   -0.51182E-05  3124   0.626E-03    0.151E-02
RMM:   8    -0.231071200834E+04    0.17610E-05   -0.12017E-05  2889   0.427E-03
  79 F= -.23319445E+04 E0= -.23319445E+04  d E =-.164981E-02  mag=     3.0000
       N       E                     dE             d eps       ncg     rms          rms(c)
DAV:   1    -0.231070345773E+04    0.85524E-02   -0.10307E+00  4488   0.824E-01    0.248E-01
RMM:   2    -0.231071317356E+04   -0.97158E-02   -0.10368E-01  6004   0.189E-01    0.111E-01
RMM:   3    -0.231071327207E+04   -0.98508E-04   -0.84771E-03  5482   0.629E-02    0.793E-02
RMM:   4    -0.231071333096E+04   -0.58892E-04   -0.76957E-04  3876   0.139E-02    0.988E-02
RMM:   5    -0.231071321457E+04    0.11640E-03   -0.15748E-04  3353   0.974E-03    0.506E-02
RMM:   6    -0.231071322045E+04   -0.58869E-05   -0.13394E-04  3351   0.804E-03    0.570E-02
RMM:   7    -0.231071318653E+04    0.33918E-04   -0.37676E-05  3016   0.604E-03    0.114E-02
RMM:   8    -0.231071318497E+04    0.15632E-05   -0.67916E-06  2863   0.318E-03
  80 F= -.23319459E+04 E0= -.23319459E+04  d E =-.146035E-02  mag=     3.0000
       N       E                     dE             d eps       ncg     rms          rms(c)
DAV:   1    -0.231071125556E+04    0.19310E-02   -0.20630E-01  4528   0.369E-01    0.112E-01
RMM:   2    -0.231071322665E+04   -0.19711E-02   -0.20887E-02  6076   0.846E-02    0.589E-02
RMM:   3    -0.231071326702E+04   -0.40362E-04   -0.16665E-03  4055   0.278E-02    0.647E-02
RMM:   4    -0.231071322287E+04    0.44150E-04   -0.15589E-04  3050   0.727E-03    0.344E-02
RMM:   5    -0.231071320838E+04    0.14490E-04   -0.39172E-05  3036   0.470E-03    0.225E-02
RMM:   6    -0.231071320687E+04    0.15104E-05   -0.27719E-05  2952   0.447E-03
  81 F= -.23319461E+04 E0= -.23319461E+04  d E =-.161023E-02  mag=     3.0000
       N       E                     dE             d eps       ncg     rms          rms(c)
DAV:   1    -0.231070652698E+04    0.66814E-02   -0.82102E-01  4488   0.726E-01    0.216E-01
RMM:   2    -0.231071436061E+04   -0.78336E-02   -0.82510E-02  6097   0.167E-01    0.127E-01
RMM:   3    -0.231071459565E+04   -0.23504E-03   -0.67174E-03  5653   0.555E-02    0.160E-01
RMM:   4    -0.231071436052E+04    0.23513E-03   -0.65574E-04  3346   0.133E-02    0.713E-02
RMM:   5    -0.231071432452E+04    0.35994E-04   -0.14671E-04  3297   0.815E-03    0.604E-02
RMM:   6    -0.231071429891E+04    0.25616E-04   -0.13303E-04  3288   0.816E-03    0.457E-02
RMM:   7    -0.231071427248E+04    0.26428E-04   -0.54437E-05  3081   0.632E-03    0.144E-02
RMM:   8    -0.231071427100E+04    0.14744E-05   -0.11479E-05  2888   0.428E-03
  82 F= -.23319474E+04 E0= -.23319474E+04  d E =-.135076E-02  mag=     3.0000
       N       E                     dE             d eps       ncg     rms          rms(c)
DAV:   1    -0.231071142414E+04    0.28483E-02   -0.30587E-01  4496   0.443E-01    0.133E-01
RMM:   2    -0.231071435360E+04   -0.29295E-02   -0.30764E-02  6072   0.102E-01    0.840E-02
RMM:   3    -0.231071445998E+04   -0.10637E-03   -0.25341E-03  4555   0.332E-02    0.112E-01
RMM:   4    -0.231071433898E+04    0.12099E-03   -0.24997E-04  3078   0.903E-03    0.415E-02
RMM:   5    -0.231071433115E+04    0.78358E-05   -0.59118E-05  3086   0.526E-03
  83 F= -.23319477E+04 E0= -.23319477E+04  d E =-.158736E-02  mag=     3.0000
       N       E                     dE             d eps       ncg     rms          rms(c)
DAV:   1    -0.231070624139E+04    0.80976E-02   -0.86960E-01  4488   0.773E-01    0.230E-01
RMM:   2    -0.231071555037E+04   -0.93090E-02   -0.96102E-02  6162   0.181E-01    0.172E-01
RMM:   3    -0.231071576650E+04   -0.21613E-03   -0.80307E-03  5766   0.609E-02    0.191E-01
RMM:   4    -0.231071534813E+04    0.41837E-03   -0.76137E-04  3623   0.151E-02    0.706E-02
RMM:   5    -0.231071537009E+04   -0.21966E-04   -0.20867E-04  3328   0.956E-03    0.892E-02
RMM:   6    -0.231071526929E+04    0.10080E-03   -0.14869E-04  3718   0.878E-03    0.302E-02
RMM:   7    -0.231071526762E+04    0.16628E-05   -0.49113E-05  3035   0.622E-03
  84 F= -.23319489E+04 E0= -.23319489E+04  d E =-.126608E-02  mag=     3.0000
       N       E                     dE             d eps       ncg     rms          rms(c)
DAV:   1    -0.231071148393E+04    0.37854E-02   -0.35889E-01  4492   0.496E-01    0.151E-01
RMM:   2    -0.231071529990E+04   -0.38160E-02   -0.39925E-02  6232   0.118E-01    0.948E-02
RMM:   3    -0.231071542064E+04   -0.12074E-03   -0.32943E-03  5003   0.400E-02    0.118E-01
RMM:   4    -0.231071526858E+04    0.15206E-03   -0.32495E-04  3151   0.103E-02    0.461E-02
RMM:   5    -0.231071526218E+04    0.63995E-05   -0.76459E-05  3095   0.613E-03
  85 F= -.23319492E+04 E0= -.23319491E+04  d E =-.147392E-02  mag=     3.0000
       N       E                     dE             d eps       ncg     rms          rms(c)
DAV:   1    -0.231070547789E+04    0.97907E-02   -0.10461E+00  4488   0.833E-01    0.249E-01
[...]
       N       E                     dE             d eps       ncg     rms          rms(c)
DAV:   1    -0.231074706390E+04    0.12115E-02   -0.14465E-01  4492   0.364E-01    0.110E-01
RMM:   2    -0.231074862117E+04   -0.15573E-02   -0.16656E-02  6089   0.806E-02    0.574E-02
RMM:   3    -0.231074867475E+04   -0.53581E-04   -0.14399E-03  4420   0.284E-02    0.586E-02
RMM:   4    -0.231074865394E+04    0.20811E-04   -0.15100E-04  3030   0.714E-03    0.380E-02
RMM:   5    -0.231074863759E+04    0.16349E-04   -0.43012E-05  2977   0.550E-03    0.244E-02
RMM:   6    -0.231074863863E+04   -0.10388E-05   -0.28995E-05  2971   0.521E-03
 173 F= -.23319812E+04 E0= -.23319812E+04  d E =-.340394E-03  mag=     3.0000
       N       E                     dE             d eps       ncg     rms          rms(c)
DAV:   1    -0.231074849186E+04    0.14573E-03   -0.13054E-02  4896   0.110E-01    0.350E-02
RMM:   2    -0.231074863638E+04   -0.14452E-03   -0.15672E-03  6007   0.256E-02    0.206E-02
RMM:   3    -0.231074864642E+04   -0.10045E-04   -0.14501E-04  3013   0.897E-03    0.284E-02
RMM:   4    -0.231074863837E+04    0.80517E-05   -0.17058E-05  2898   0.321E-03
 174 F= -.23319812E+04 E0= -.23319812E+04  d E =-.330473E-03  mag=     3.0000
       N       E                     dE             d eps       ncg     rms          rms(c)
DAV:   1    -0.231074723573E+04    0.14107E-02   -0.15386E-01  4492   0.369E-01    0.112E-01
RMM:   2    -0.231074902885E+04   -0.17931E-02   -0.18820E-02  6054   0.824E-02    0.807E-02
RMM:   3    -0.231074913525E+04   -0.10641E-03   -0.16810E-03  4521   0.293E-02    0.100E-01
RMM:   4    -0.231074903662E+04    0.98635E-04   -0.17952E-04  3025   0.808E-03    0.319E-02
RMM:   5    -0.231074903341E+04    0.32112E-05   -0.47208E-05  3046   0.529E-03
 175 F= -.23319816E+04 E0= -.23319815E+04  d E =-.321615E-03  mag=     3.0000
       N       E                     dE             d eps       ncg     rms          rms(c)
DAV:   1    -0.231074870807E+04    0.32855E-03   -0.29610E-02  4688   0.162E-01    0.513E-02
RMM:   2    -0.231074907023E+04   -0.36216E-03   -0.36564E-03  6222   0.373E-02    0.529E-02
RMM:   3    -0.231074906982E+04    0.40411E-06   -0.35428E-04  3223   0.131E-02    0.417E-02
RMM:   4    -0.231074904963E+04    0.20192E-04   -0.37450E-05  2947   0.472E-03    0.188E-02
RMM:   5    -0.231074904988E+04   -0.25096E-06   -0.11392E-05  2852   0.274E-03
 176 F= -.23319815E+04 E0= -.23319815E+04  d E =-.305458E-03  mag=     3.0000
       N       E                     dE             d eps       ncg     rms          rms(c)
DAV:   1    -0.231074774542E+04    0.13042E-02   -0.12985E-01  4492   0.340E-01    0.104E-01
RMM:   2    -0.231074935038E+04   -0.16050E-02   -0.17070E-02  6064   0.777E-02    0.599E-02
RMM:   3    -0.231074943510E+04   -0.84723E-04   -0.14832E-03  4253   0.266E-02    0.744E-02
RMM:   4    -0.231074938192E+04    0.53183E-04   -0.15408E-04  3011   0.721E-03    0.286E-02
RMM:   5    -0.231074937035E+04    0.11568E-04   -0.33574E-05  3006   0.454E-03    0.198E-02
RMM:   6    -0.231074937147E+04   -0.11180E-05   -0.21666E-05  2935   0.444E-03
 177 F= -.23319819E+04 E0= -.23319818E+04  d E =-.315389E-03  mag=     3.0000
       N       E                     dE             d eps       ncg     rms          rms(c)
DAV:   1    -0.231074838824E+04    0.98211E-03   -0.80671E-02  4528   0.268E-01    0.831E-02
RMM:   2    -0.231074939013E+04   -0.10019E-02   -0.10688E-02  6163   0.614E-02    0.485E-02
RMM:   3    -0.231074944113E+04   -0.50996E-04   -0.91677E-04  3763   0.207E-02    0.605E-02
RMM:   4    -0.231074940900E+04    0.32132E-04   -0.97043E-05  2966   0.589E-03    0.239E-02
RMM:   5    -0.231074940473E+04    0.42732E-05   -0.21587E-05  2954   0.364E-03
 178 F= -.23319819E+04 E0= -.23319819E+04  d E =-.343601E-03  mag=     3.0000
       N       E                     dE             d eps       ncg     rms          rms(c)
DAV:   1    -0.231074757720E+04    0.18318E-02   -0.16306E-01  4488   0.376E-01    0.116E-01
RMM:   2    -0.231074973242E+04   -0.21552E-02   -0.22371E-02  6177   0.878E-02    0.914E-02
RMM:   3    -0.231074983910E+04   -0.10668E-03   -0.20984E-03  4603   0.310E-02    0.963E-02
RMM:   4    -0.231074973625E+04    0.10285E-03   -0.20993E-04  3135   0.835E-03    0.338E-02
RMM:   5    -0.231074973792E+04   -0.16742E-05   -0.43149E-05  2954   0.486E-03
 179 F= -.23319822E+04 E0= -.23319822E+04  d E =-.348369E-03  mag=     3.0000
       N       E                     dE             d eps       ncg     rms          rms(c)
DAV:   1    -0.231074910171E+04    0.63454E-03   -0.47236E-02  4680   0.203E-01    0.638E-02
RMM:   2    -0.231074974464E+04   -0.64294E-03   -0.65285E-03  6313   0.482E-02    0.657E-02
RMM:   3    -0.231074976755E+04   -0.22903E-04   -0.64894E-04  3423   0.170E-02    0.618E-02
RMM:   4    -0.231074972958E+04    0.37968E-04   -0.62298E-05  2944   0.571E-03    0.200E-02
RMM:   5    -0.231074973275E+04   -0.31744E-05   -0.21118E-05  2935   0.345E-03
 180 F= -.23319822E+04 E0= -.23319822E+04  d E =-.351304E-03  mag=     3.0000
       N       E                     dE             d eps       ncg     rms          rms(c)
DAV:   1    -0.231074754393E+04    0.21857E-02   -0.19888E-01  4488   0.414E-01    0.133E-01
RMM:   2    -0.231075012783E+04   -0.25839E-02   -0.27072E-02  6122   0.963E-02    0.959E-02
RMM:   3    -0.231075029382E+04   -0.16599E-03   -0.25367E-03  4915   0.344E-02    0.117E-01
RMM:   4    -0.231075016374E+04    0.13008E-03   -0.25896E-04  3096   0.909E-03    0.366E-02
RMM:   5    -0.231075015702E+04    0.67125E-05   -0.60686E-05  3065   0.598E-03
 181 F= -.23319826E+04 E0= -.23319826E+04  d E =-.385726E-03  mag=     3.0000
       N       E                     dE             d eps       ncg     rms          rms(c)
DAV:   1    -0.231074970549E+04    0.45825E-03   -0.35091E-02  4672   0.174E-01    0.584E-02
RMM:   2    -0.231075020204E+04   -0.49655E-03   -0.48340E-03  6327   0.416E-02    0.689E-02
RMM:   3    -0.231075018324E+04    0.18796E-04   -0.47935E-04  3325   0.147E-02    0.442E-02
RMM:   4    -0.231075016305E+04    0.20194E-04   -0.49857E-05  2972   0.512E-03    0.238E-02
RMM:   5    -0.231075016111E+04    0.19443E-05   -0.13599E-05  2875   0.292E-03
 182 F= -.23319826E+04 E0= -.23319826E+04  d E =-.373357E-03  mag=     3.0000
       N       E                     dE             d eps       ncg     rms          rms(c)
DAV:   1    -0.231074788616E+04    0.22769E-02   -0.19150E-01  4488   0.396E-01    0.124E-01
RMM:   2    -0.231075056501E+04   -0.26788E-02   -0.27976E-02  6184   0.948E-02    0.967E-02
RMM:   3    -0.231075072528E+04   -0.16027E-03   -0.26137E-03  4757   0.326E-02    0.110E-01
RMM:   4    -0.231075061239E+04    0.11289E-03   -0.26652E-04  3082   0.877E-03    0.367E-02
RMM:   5    -0.231075060587E+04    0.65237E-05   -0.50222E-05  3057   0.517E-03
 183 F= -.23319830E+04 E0= -.23319829E+04  d E =-.371793E-03  mag=     3.0000
       N       E                     dE             d eps       ncg     rms          rms(c)
DAV:   1    -0.231074955550E+04    0.10569E-02   -0.79158E-02  4528   0.254E-01    0.805E-02
RMM:   2    -0.231075069854E+04   -0.11430E-02   -0.11569E-02  6407   0.616E-02    0.840E-02
RMM:   3    -0.231075071457E+04   -0.16032E-04   -0.11207E-03  3730   0.209E-02    0.634E-02
RMM:   4    -0.231075067139E+04    0.43181E-04   -0.10826E-04  3027   0.650E-03    0.250E-02
RMM:   5    -0.231075067296E+04   -0.15748E-05   -0.28788E-05  2947   0.408E-03
 184 F= -.23319830E+04 E0= -.23319830E+04  d E =-.391551E-03  mag=     3.0000
       N       E                     dE             d eps       ncg     rms          rms(c)
DAV:   1    -0.231074833691E+04    0.23345E-02   -0.20183E-01  4488   0.412E-01    0.132E-01
RMM:   2    -0.231075118384E+04   -0.28469E-02   -0.29282E-02  6226   0.989E-02    0.119E-01
RMM:   3    -0.231075131970E+04   -0.13586E-03   -0.27231E-03  4883   0.345E-02    0.123E-01
RMM:   4    -0.231075117356E+04    0.14614E-03   -0.27656E-04  3092   0.942E-03    0.377E-02
RMM:   5    -0.231075117400E+04   -0.43439E-06   -0.61799E-05  3062   0.569E-03
 185 F= -.23319834E+04 E0= -.23319834E+04  d E =-.446472E-03  mag=     3.0000
       N       E                     dE             d eps       ncg     rms          rms(c)
DAV:   1    -0.231074936572E+04    0.18078E-02   -0.13509E-01  4508   0.337E-01    0.107E-01
RMM:   2    -0.231075126146E+04   -0.18957E-02   -0.19556E-02  6319   0.805E-02    0.953E-02
RMM:   3    -0.231075133905E+04   -0.77594E-04   -0.18594E-03  4397   0.283E-02    0.912E-02
RMM:   4    -0.231075125385E+04    0.85206E-04   -0.18023E-04  3058   0.791E-03    0.307E-02
RMM:   5    -0.231075124383E+04    0.10018E-04   -0.49583E-05  3043   0.547E-03    0.289E-02
RMM:   6    -0.231075123816E+04    0.56732E-05   -0.26722E-05  2951   0.504E-03
 186 F= -.23319835E+04 E0= -.23319834E+04  d E =-.465451E-03  mag=     3.0000
       N       E                     dE             d eps       ncg     rms          rms(c)
DAV:   1    -0.231074892345E+04    0.23204E-02   -0.19289E-01  4488   0.398E-01    0.127E-01
RMM:   2    -0.231075168890E+04   -0.27654E-02   -0.28628E-02  6237   0.956E-02    0.109E-01
RMM:   3    -0.231075181599E+04   -0.12709E-03   -0.26268E-03  4718   0.315E-02    0.111E-01
RMM:   4    -0.231075170712E+04    0.10887E-03   -0.26996E-04  3092   0.867E-03    0.369E-02
RMM:   5    -0.231075170231E+04    0.48095E-05   -0.46552E-05  3018   0.489E-03
 187 F= -.23319839E+04 E0= -.23319838E+04  d E =-.412502E-03  mag=     3.0000
       N       E                     dE             d eps       ncg     rms          rms(c)
DAV:   1    -0.231074771449E+04    0.39926E-02   -0.29196E-01  4488   0.489E-01    0.152E-01
RMM:   2    -0.231075189427E+04   -0.41798E-02   -0.42882E-02  6259   0.117E-01    0.140E-01
RMM:   3    -0.231075204495E+04   -0.15068E-03   -0.40145E-03  5234   0.403E-02    0.126E-01
RMM:   4    -0.231075189660E+04    0.14835E-03   -0.39014E-04  3225   0.100E-02    0.449E-02
RMM:   5    -0.231075188625E+04    0.10349E-04   -0.80784E-05  3113   0.663E-03    0.477E-02
RMM:   6    -0.231075186242E+04    0.23838E-04   -0.53504E-05  3019   0.611E-03    0.292E-02
RMM:   7    -0.231075185635E+04    0.60652E-05   -0.30957E-05  2985   0.520E-03
 188 F= -.23319840E+04 E0= -.23319839E+04  d E =-.502380E-03  mag=     3.0000
       N       E                     dE             d eps       ncg     rms          rms(c)
DAV:   1    -0.231074964107E+04    0.22213E-02   -0.18803E-01  4524   0.388E-01    0.125E-01
RMM:   2    -0.231075240155E+04   -0.27605E-02   -0.28761E-02  6397   0.947E-02    0.103E-01
RMM:   3    -0.231075255463E+04   -0.15308E-03   -0.26810E-03  4647   0.325E-02    0.109E-01
RMM:   4    -0.231075244740E+04    0.10723E-03   -0.27545E-04  3090   0.890E-03    0.353E-02
RMM:   5    -0.231075243934E+04    0.80662E-05   -0.41085E-05  3027   0.481E-03
 189 F= -.23319845E+04 E0= -.23319844E+04  d E =-.508836E-03  mag=     3.0000
       N       E                     dE             d eps       ncg     rms          rms(c)
DAV:   1    -0.231074555478E+04    0.68926E-02   -0.49399E-01  4488   0.628E-01    0.197E-01
RMM:   2    -0.231075283811E+04   -0.72833E-02   -0.74813E-02  6309   0.151E-01    0.185E-01
RMM:   3    -0.231075310271E+04   -0.26460E-03   -0.70724E-03  5659   0.525E-02    0.162E-01
RMM:   4    -0.231075286379E+04    0.23892E-03   -0.69590E-04  3533   0.126E-02    0.590E-02
RMM:   5    -0.231075284118E+04    0.22616E-04   -0.12223E-04  3272   0.794E-03    0.597E-02
RMM:   6    -0.231075280423E+04    0.36950E-04   -0.86742E-05  3202   0.726E-03    0.403E-02
RMM:   7    -0.231075279017E+04    0.14058E-04   -0.61504E-05  3169   0.651E-03    0.208E-02
RMM:   8    -0.231075278559E+04    0.45848E-05   -0.16328E-05  2895   0.484E-03
 190 F= -.23319847E+04 E0= -.23319847E+04  d E =-.733787E-03  mag=     3.0000
       N       E                     dE             d eps       ncg     rms          rms(c)
DAV:   1    -0.231074850459E+04    0.42856E-02   -0.31232E-01  4488   0.499E-01    0.165E-01
RMM:   2    -0.231075348776E+04   -0.49832E-02   -0.51642E-02  6217   0.124E-01    0.147E-01
RMM:   3    -0.231075373465E+04   -0.24689E-03   -0.47973E-03  5355   0.420E-02    0.147E-01
RMM:   4    -0.231075354378E+04    0.19087E-03   -0.49278E-04  3212   0.108E-02    0.477E-02
RMM:   5    -0.231075353482E+04    0.89595E-05   -0.76317E-05  3075   0.613E-03
 191 F= -.23319853E+04 E0= -.23319853E+04  d E =-.626768E-03  mag=     3.0000
       N       E                     dE             d eps       ncg     rms          rms(c)
DAV:   1    -0.231075018164E+04    0.33621E-02   -0.22246E-01  4528   0.422E-01    0.136E-01
RMM:   2    -0.231075374704E+04   -0.35654E-02   -0.36448E-02  6390   0.105E-01    0.135E-01
RMM:   3    -0.231075385789E+04   -0.11084E-03   -0.34818E-03  4951   0.365E-02    0.110E-01
RMM:   4    -0.231075374556E+04    0.11232E-03   -0.33237E-04  3182   0.919E-03    0.422E-02
RMM:   5    -0.231075373021E+04    0.15351E-04   -0.73051E-05  3117   0.629E-03    0.393E-02
RMM:   6    -0.231075371748E+04    0.12735E-04   -0.48150E-05  3017   0.595E-03    0.297E-02
RMM:   7    -0.231075371063E+04    0.68439E-05   -0.24726E-05  2942   0.472E-03
 192 F= -.23319854E+04 E0= -.23319854E+04  d E =-.697902E-03  mag=     3.0000
       N       E                     dE             d eps       ncg     rms          rms(c)
DAV:   1    -0.231074931865E+04    0.43988E-02   -0.30074E-01  4488   0.494E-01    0.166E-01
RMM:   2    -0.231075436725E+04   -0.50486E-02   -0.52520E-02  6374   0.126E-01    0.143E-01
RMM:   3    -0.231075463508E+04   -0.26783E-03   -0.49330E-03  5357   0.438E-02    0.144E-01
RMM:   4    -0.231075445047E+04    0.18460E-03   -0.50054E-04  3248   0.110E-02    0.476E-02
RMM:   5    -0.231075443736E+04    0.13117E-04   -0.74534E-05  3093   0.635E-03    0.463E-02
RMM:   6    -0.231075441495E+04    0.22404E-04   -0.50853E-05  3013   0.561E-03    0.307E-02
RMM:   7    -0.231075440446E+04    0.10489E-04   -0.39167E-05  3064   0.528E-03    0.136E-02
RMM:   8    -0.231075440308E+04    0.13835E-05   -0.10799E-05  2869   0.420E-03
 193 F= -.23319860E+04 E0= -.23319859E+04  d E =-.583249E-03  mag=     3.0000
       N       E                     dE             d eps       ncg     rms          rms(c)
DAV:   1    -0.231075295843E+04    0.14460E-02   -0.92577E-02  4624   0.274E-01    0.927E-02
RMM:   2    -0.231075451146E+04   -0.15530E-02   -0.16164E-02  6233   0.695E-02    0.803E-02
RMM:   3    -0.231075459539E+04   -0.83934E-04   -0.15100E-03  3904   0.233E-02    0.828E-02
RMM:   4    -0.231075453478E+04    0.60616E-04   -0.15557E-04  2996   0.698E-03    0.265E-02
RMM:   5    -0.231075453188E+04    0.28953E-05   -0.25602E-05  2928   0.374E-03
 194 F= -.23319861E+04 E0= -.23319860E+04  d E =-.650996E-03  mag=     3.0000
       N       E                     dE             d eps       ncg     rms          rms(c)
DAV:   1    -0.231075007464E+04    0.44601E-02   -0.31212E-01  4520   0.510E-01    0.170E-01
RMM:   2    -0.231075520777E+04   -0.51331E-02   -0.52663E-02  6217   0.127E-01    0.157E-01
RMM:   3    -0.231075544890E+04   -0.24113E-03   -0.51148E-03  5422   0.443E-02    0.148E-01
RMM:   4    -0.231075525162E+04    0.19728E-03   -0.50900E-04  3299   0.110E-02    0.495E-02
RMM:   5    -0.231075524140E+04    0.10219E-04   -0.87761E-05  3111   0.677E-03    0.520E-02
RMM:   6    -0.231075521068E+04    0.30718E-04   -0.60054E-05  3055   0.607E-03    0.300E-02
RMM:   7    -0.231075520243E+04    0.82473E-05   -0.39746E-05  3060   0.555E-03
 195 F= -.23319866E+04 E0= -.23319866E+04  d E =-.552981E-03  mag=     3.0000
       N       E                     dE             d eps       ncg     rms          rms(c)
DAV:   1    -0.231075365467E+04    0.15560E-02   -0.10001E-01  4608   0.288E-01    0.990E-02
RMM:   2    -0.231075530140E+04   -0.16467E-02   -0.17079E-02  6397   0.729E-02    0.839E-02
RMM:   3    -0.231075540218E+04   -0.10078E-03   -0.16531E-03  4077   0.256E-02    0.891E-02
RMM:   4    -0.231075532590E+04    0.76279E-04   -0.16943E-04  3015   0.769E-03    0.271E-02
RMM:   5    -0.231075532176E+04    0.41403E-05   -0.27964E-05  2961   0.398E-03
 196 F= -.23319867E+04 E0= -.23319866E+04  d E =-.605105E-03  mag=     3.0000
       N       E                     dE             d eps       ncg     rms          rms(c)
DAV:   1    -0.231075027746E+04    0.50484E-02   -0.33670E-01  4488   0.524E-01    0.176E-01
RMM:   2    -0.231075602564E+04   -0.57482E-02   -0.59015E-02  6241   0.132E-01    0.163E-01
RMM:   3    -0.231075629505E+04   -0.26940E-03   -0.57407E-03  5492   0.470E-02    0.151E-01
RMM:   4    -0.231075608790E+04    0.20714E-03   -0.56828E-04  3339   0.114E-02    0.511E-02
RMM:   5    -0.231075607256E+04    0.15342E-04   -0.90601E-05  3153   0.694E-03    0.521E-02
RMM:   6    -0.231075604346E+04    0.29098E-04   -0.62250E-05  3051   0.621E-03    0.330E-02
RMM:   7    -0.231075603264E+04    0.10821E-04   -0.45520E-05  3087   0.583E-03    0.137E-02
RMM:   8    -0.231075603098E+04    0.16619E-05   -0.10826E-05  2882   0.438E-03
 197 F= -.23319872E+04 E0= -.23319872E+04  d E =-.546546E-03  mag=     3.0000
       N       E                     dE             d eps       ncg     rms          rms(c)
DAV:   1    -0.231075498274E+04    0.10499E-02   -0.67625E-02  4608   0.235E-01    0.813E-02
RMM:   2    -0.231075613605E+04   -0.11533E-02   -0.11957E-02  6215   0.594E-02    0.726E-02
RMM:   3    -0.231075620481E+04   -0.68756E-04   -0.11524E-03  3663   0.203E-02    0.756E-02
RMM:   4    -0.231075615250E+04    0.52312E-04   -0.11902E-04  2975   0.636E-03    0.222E-02
RMM:   5    -0.231075614968E+04    0.28222E-05   -0.20012E-05  2898   0.330E-03
 198 F= -.23319872E+04 E0= -.23319872E+04  d E =-.591934E-03  mag=     3.0000
       N       E                     dE             d eps       ncg     rms          rms(c)
DAV:   1    -0.231075013260E+04    0.60199E-02   -0.37113E-01  4488   0.542E-01    0.188E-01
RMM:   2    -0.231075693898E+04   -0.68064E-02   -0.69851E-02  6283   0.142E-01    0.180E-01
RMM:   3    -0.231075723674E+04   -0.29776E-03   -0.66718E-03  5548   0.487E-02    0.162E-01
RMM:   4    -0.231075700698E+04    0.22976E-03   -0.66371E-04  3398   0.120E-02    0.553E-02
RMM:   5    -0.231075699425E+04    0.12729E-04   -0.10181E-04  3145   0.708E-03    0.569E-02
RMM:   6    -0.231075695479E+04    0.39464E-04   -0.69948E-05  3097   0.634E-03    0.314E-02
RMM:   7    -0.231075694749E+04    0.72961E-05   -0.48937E-05  3077   0.592E-03
 199 F= -.23319879E+04 E0= -.23319879E+04  d E =-.666100E-03  mag=     3.0000
       N       E                     dE             d eps       ncg     rms          rms(c)
DAV:   1    -0.231075413652E+04    0.28183E-02   -0.16103E-01  4512   0.357E-01    0.127E-01
RMM:   2    -0.231075707331E+04   -0.29368E-02   -0.30567E-02  6438   0.946E-02    0.108E-01
RMM:   3    -0.231075724968E+04   -0.17637E-03   -0.29086E-03  4644   0.327E-02    0.113E-01
RMM:   4    -0.231075713336E+04    0.11632E-03   -0.29679E-04  3100   0.898E-03    0.351E-02
RMM:   5    -0.231075712482E+04    0.85389E-05   -0.42139E-05  3008   0.480E-03
 200 F= -.23319880E+04 E0= -.23319880E+04  d E =-.755644E-03  mag=     3.0000
       N       E                     dE             d eps       ncg     rms          rms(c)
DAV:   1    -0.231075167023E+04    0.54631E-02   -0.32549E-01  4488   0.500E-01    0.173E-01
RMM:   2    -0.231075779587E+04   -0.61256E-02   -0.62712E-02  6380   0.133E-01    0.170E-01
RMM:   3    -0.231075802989E+04   -0.23402E-03   -0.60195E-03  5392   0.456E-02    0.142E-01
RMM:   4    -0.231075785527E+04    0.17463E-03   -0.58130E-04  3292   0.110E-02    0.509E-02
RMM:   5    -0.231075783835E+04    0.16920E-04   -0.85388E-05  3113   0.655E-03    0.504E-02
RMM:   6    -0.231075781187E+04    0.26471E-04   -0.62160E-05  3055   0.609E-03    0.338E-02
RMM:   7    -0.231075780302E+04    0.88569E-05   -0.45030E-05  3052   0.561E-03
 201 F= -.23319886E+04 E0= -.23319886E+04  d E =-.603730E-03  mag=     3.0000
