       N       E                     dE             d eps       ncg     rms          rms(c)
DAV:   1     0.127538258311E+05    0.12754E+05   -0.84245E+05  4700   0.140E+03
DAV:   2    -0.117258224416E+04   -0.13926E+05   -0.13306E+05  5150   0.321E+02
DAV:   3    -0.249190166940E+04   -0.13193E+04   -0.13059E+04  5650   0.107E+02
DAV:   4    -0.252521761937E+04   -0.33316E+02   -0.33125E+02  6100   0.227E+01
DAV:   5    -0.252610312460E+04   -0.88551E+00   -0.88350E+00  5900   0.298E+00    0.170E+02
RMM:   6    -0.149589346151E+04    0.10302E+04   -0.18681E+03  4634   0.365E+01    0.722E+01
RMM:   7    -0.166288176624E+04   -0.16699E+03   -0.27019E+02  5262   0.138E+01    0.516E+01
RMM:   8    -0.172034165030E+04   -0.57460E+02   -0.68491E+01  5469   0.777E+00    0.460E+01
RMM:   9    -0.178129638553E+04   -0.60955E+02   -0.60079E+01  5141   0.706E+00    0.392E+01
RMM:  10    -0.187936423751E+04   -0.98068E+02   -0.61380E+01  5492   0.733E+00    0.354E+01
RMM:  11    -0.196055561553E+04   -0.81191E+02   -0.39758E+01  5579   0.553E+00    0.230E+01
RMM:  12    -0.203589414970E+04   -0.75339E+02   -0.27232E+01  5267   0.410E+00    0.182E+01
RMM:  13    -0.209978514895E+04   -0.63891E+02   -0.25628E+01  5382   0.378E+00    0.153E+01
RMM:  14    -0.218198024257E+04   -0.82195E+02   -0.49674E+01  4773   0.498E+00    0.106E+01
RMM:  15    -0.227131300211E+04   -0.89333E+02   -0.73456E+01  4705   0.595E+00    0.753E+00
RMM:  16    -0.230436230418E+04   -0.33049E+02   -0.29833E+01  4668   0.413E+00    0.496E+00
RMM:  17    -0.231452611436E+04   -0.10164E+02   -0.10926E+01  4887   0.234E+00    0.232E+00
RMM:  18    -0.231721082779E+04   -0.26847E+01   -0.21496E+00  5226   0.117E+00    0.127E+00
RMM:  19    -0.231808452054E+04   -0.87369E+00   -0.56556E-01  4920   0.514E-01    0.802E-01
RMM:  20    -0.231831090012E+04   -0.22638E+00   -0.15507E-01  4989   0.340E-01    0.483E-01
RMM:  21    -0.231837610877E+04   -0.65209E-01   -0.46919E-02  4933   0.152E-01    0.294E-01
RMM:  22    -0.231839298308E+04   -0.16874E-01   -0.92635E-03  4937   0.855E-02    0.173E-01
RMM:  23    -0.231841310959E+04   -0.20127E-01   -0.64988E-03  4630   0.623E-02    0.971E-02
RMM:  24    -0.231842504667E+04   -0.11937E-01   -0.35278E-03  4626   0.518E-02    0.637E-02
RMM:  25    -0.231843481194E+04   -0.97653E-02   -0.31158E-03  4623   0.431E-02    0.406E-02
RMM:  26    -0.231843933399E+04   -0.45221E-02   -0.15223E-03  4682   0.349E-02    0.223E-02
RMM:  27    -0.231844151533E+04   -0.21813E-02   -0.87654E-04  4350   0.205E-02    0.140E-02
RMM:  28    -0.231844207881E+04   -0.56348E-03   -0.21143E-04  4045   0.151E-02    0.691E-03
RMM:  29    -0.231844229236E+04   -0.21355E-03   -0.74855E-05  3777   0.659E-03    0.490E-03
RMM:  30    -0.231844239726E+04   -0.10490E-03   -0.22604E-05  3303   0.547E-03    0.286E-03
RMM:  31    -0.231844246458E+04   -0.67322E-04   -0.15951E-05  3150   0.326E-03    0.186E-03
RMM:  32    -0.231844248514E+04   -0.20559E-04   -0.61614E-06  2997   0.282E-03    0.110E-03
RMM:  33    -0.231844249023E+04   -0.50835E-05   -0.33093E-06  2571   0.194E-03
   1 F= -.23397349E+04 E0= -.23397349E+04  d E =-.318787E-08  mag=     5.0000
       N       E                     dE             d eps       ncg     rms          rms(c)
DAV:   1    -0.231843462380E+04    0.78613E-02   -0.19053E+00  4600   0.728E-01    0.354E-01
RMM:   2    -0.231843488070E+04   -0.25690E-03   -0.14742E-02  4681   0.582E-02    0.210E-01
RMM:   3    -0.231843465672E+04    0.22399E-03   -0.23978E-03  4399   0.331E-02    0.199E-01
RMM:   4    -0.231843435646E+04    0.30025E-03   -0.13224E-03  4952   0.166E-02    0.136E-01
RMM:   5    -0.231843411345E+04    0.24301E-03   -0.26421E-04  3802   0.934E-03    0.388E-02
RMM:   6    -0.231843411573E+04   -0.22764E-05   -0.74135E-05  3047   0.508E-03
   2 F= -.23397274E+04 E0= -.23397274E+04  d E =-.151356E-07  mag=     5.0000
       N       E                     dE             d eps       ncg     rms          rms(c)
DAV:   1    -0.231844060213E+04   -0.64887E-02   -0.75392E+00  4700   0.146E+00    0.713E-01
RMM:   2    -0.231844119466E+04   -0.59253E-03   -0.58223E-02  5122   0.130E-01    0.423E-01
RMM:   3    -0.231844037652E+04    0.81814E-03   -0.93365E-03  5089   0.637E-02    0.399E-01
RMM:   4    -0.231843938198E+04    0.99454E-03   -0.53372E-03  5881   0.325E-02    0.281E-01
RMM:   5    -0.231843847811E+04    0.90386E-03   -0.11301E-03  4931   0.189E-02    0.959E-02
RMM:   6    -0.231843846744E+04    0.10673E-04   -0.33663E-04  3730   0.925E-03    0.897E-02
RMM:   7    -0.231843838090E+04    0.86536E-04   -0.90357E-05  3326   0.624E-03    0.224E-02
RMM:   8    -0.231843839731E+04   -0.16403E-04   -0.43382E-05  3140   0.391E-03    0.314E-02
RMM:   9    -0.231843838883E+04    0.84741E-05   -0.15071E-05  2956   0.313E-03
   3 F= -.23397303E+04 E0= -.23397303E+04  d E =-.144117E-08  mag=     5.0000
       N       E                     dE             d eps       ncg     rms          rms(c)
DAV:   1    -0.231843512181E+04    0.32755E-02   -0.37541E+00  4600   0.102E+00    0.440E-01
RMM:   2    -0.231843660661E+04   -0.14848E-02   -0.24377E-02  4652   0.810E-02    0.292E-01
RMM:   3    -0.231843720862E+04   -0.60200E-03   -0.48294E-03  4764   0.449E-02    0.370E-01
RMM:   4    -0.231843553520E+04    0.16734E-02   -0.23194E-03  5211   0.224E-02    0.116E-01
RMM:   5    -0.231843562887E+04   -0.93668E-04   -0.54927E-04  4156   0.114E-02    0.127E-01
RMM:   6    -0.231843546395E+04    0.16491E-03   -0.19370E-04  3233   0.731E-03    0.293E-02
RMM:   7    -0.231843546863E+04   -0.46775E-05   -0.41861E-05  3112   0.389E-03
   4 F= -.23397278E+04 E0= -.23397278E+04  d E =-.110673E-07  mag=     5.0000
       N       E                     dE             d eps       ncg     rms          rms(c)
DAV:   1    -0.231843547567E+04   -0.11715E-04   -0.76089E+00  4600   0.143E+00    0.650E-01
RMM:   2    -0.231843940820E+04   -0.39325E-02   -0.50905E-02  4820   0.112E-01    0.589E-01
RMM:   3    -0.231843758722E+04    0.18210E-02   -0.12178E-02  5287   0.650E-02    0.498E-01
RMM:   4    -0.231843462986E+04    0.29574E-02   -0.45910E-03  5495   0.331E-02    0.186E-01
RMM:   5    -0.231843480937E+04   -0.17951E-03   -0.16551E-03  4972   0.202E-02    0.227E-01
RMM:   6    -0.231843428548E+04    0.52389E-03   -0.51170E-04  4017   0.109E-02    0.487E-02
RMM:   7    -0.231843429058E+04   -0.51043E-05   -0.10777E-04  3254   0.615E-03    0.441E-02
RMM:   8    -0.231843428151E+04    0.90702E-05   -0.57897E-05  3141   0.446E-03
   5 F= -.23397267E+04 E0= -.23397267E+04  d E =-.147644E-08  mag=     5.0000
       N       E                     dE             d eps       ncg     rms          rms(c)
DAV:   1    -0.231843145965E+04    0.28309E-02   -0.40679E+00  4600   0.109E+00    0.567E-01
RMM:   2    -0.231843218083E+04   -0.72118E-03   -0.51526E-02  4995   0.110E-01    0.398E-01
RMM:   3    -0.231843101048E+04    0.11703E-02   -0.79624E-03  4819   0.604E-02    0.383E-01
RMM:   4    -0.231843026594E+04    0.74454E-03   -0.51975E-03  5768   0.326E-02    0.314E-01
RMM:   5    -0.231842889511E+04    0.13708E-02   -0.98451E-04  5173   0.183E-02    0.651E-02
RMM:   6    -0.231842896337E+04   -0.68256E-04   -0.29069E-04  3647   0.846E-03    0.898E-02
RMM:   7    -0.231842887206E+04    0.91304E-04   -0.88776E-05  3124   0.586E-03    0.224E-02
RMM:   8    -0.231842889241E+04   -0.20352E-04   -0.36414E-05  3271   0.371E-03    0.214E-02
RMM:   9    -0.231842889681E+04   -0.43952E-05   -0.15872E-05  3003   0.336E-03
   6 F= -.23397207E+04 E0= -.23397207E+04  d E =-.398535E-08  mag=     5.0000
       N       E                     dE             d eps       ncg     rms          rms(c)
DAV:   1    -0.231841827066E+04    0.10622E-01   -0.81903E+00  4600   0.149E+00    0.822E-01
RMM:   2    -0.231841785252E+04    0.41814E-03   -0.90361E-02  5021   0.153E-01    0.633E-01
RMM:   3    -0.231841682102E+04    0.10315E-02   -0.18119E-02  5396   0.834E-02    0.641E-01
RMM:   4    -0.231841156876E+04    0.52523E-02   -0.11191E-02  5811   0.511E-02    0.256E-01
RMM:   5    -0.231841056036E+04    0.10084E-02   -0.19574E-03  5034   0.266E-02    0.172E-01
RMM:   6    -0.231841028041E+04    0.27995E-03   -0.63380E-04  3958   0.125E-02    0.848E-02
RMM:   7    -0.231841021331E+04    0.67098E-04   -0.10278E-04  3599   0.631E-03    0.402E-02
RMM:   8    -0.231841022093E+04   -0.76199E-05   -0.71482E-05  3172   0.529E-03
   7 F= -.23397033E+04 E0= -.23397033E+04  d E =-.281966E-08  mag=     5.0000
       N       E                     dE             d eps       ncg     rms          rms(c)
DAV:   1    -0.231843809073E+04   -0.27877E-01   -0.78862E+00  4650   0.147E+00    0.556E-01
RMM:   2    -0.231844371631E+04   -0.56256E-02   -0.10833E-01  4875   0.161E-01    0.404E-01
RMM:   3    -0.231844269026E+04    0.10260E-02   -0.11917E-02  4943   0.806E-02    0.415E-01
RMM:   4    -0.231844049806E+04    0.21922E-02   -0.64694E-03  5222   0.389E-02    0.211E-01
RMM:   5    -0.231843965784E+04    0.84022E-03   -0.10116E-03  4495   0.226E-02    0.792E-02
RMM:   6    -0.231843969177E+04   -0.33931E-04   -0.35511E-04  3977   0.102E-02    0.904E-02
RMM:   7    -0.231843960355E+04    0.88223E-04   -0.79169E-05  3228   0.600E-03    0.265E-02
RMM:   8    -0.231843962238E+04   -0.18837E-04   -0.45982E-05  3165   0.414E-03    0.373E-02
RMM:   9    -0.231843961735E+04    0.50357E-05   -0.26781E-05  3126   0.388E-03
   8 F= -.23397317E+04 E0= -.23397317E+04  d E =-.241719E-08  mag=     5.0000
       N       E                     dE             d eps       ncg     rms          rms(c)
DAV:   1    -0.231842712899E+04    0.12493E-01   -0.20240E+01  4600   0.231E+00    0.566E-01
RMM:   2    -0.231843600657E+04   -0.88776E-02   -0.13264E-01  4500   0.182E-01    0.354E-01
RMM:   3    -0.231843511371E+04    0.89286E-03   -0.11503E-02  5361   0.830E-02    0.464E-01
RMM:   4    -0.231843272463E+04    0.23891E-02   -0.53412E-03  5774   0.364E-02    0.179E-01
RMM:   5    -0.231843268639E+04    0.38240E-04   -0.93305E-04  4406   0.187E-02    0.126E-01
RMM:   6    -0.231843253029E+04    0.15611E-03   -0.28784E-04  3364   0.924E-03    0.485E-02
RMM:   7    -0.231843251464E+04    0.15643E-04   -0.41671E-05  3219   0.464E-03    0.192E-02
RMM:   8    -0.231843252459E+04   -0.99501E-05   -0.25353E-05  3078   0.366E-03
   9 F= -.23397252E+04 E0= -.23397252E+04  d E =-.464639E-08  mag=     5.0000
       N       E                     dE             d eps       ncg     rms          rms(c)
DAV:   1    -0.231843150606E+04    0.10086E-02   -0.99884E+00  4600   0.160E+00    0.373E-01
RMM:   2    -0.231843577983E+04   -0.42738E-02   -0.60371E-02  4392   0.119E-01    0.217E-01
RMM:   3    -0.231843537526E+04    0.40457E-03   -0.48084E-03  4502   0.562E-02    0.276E-01
RMM:   4    -0.231843453822E+04    0.83703E-03   -0.21916E-03  4674   0.222E-02    0.108E-01
RMM:   5    -0.231843447791E+04    0.60314E-04   -0.29905E-04  3598   0.118E-02    0.547E-02
RMM:   6    -0.231843446266E+04    0.15251E-04   -0.79086E-05  3117   0.565E-03    0.334E-02
RMM:   7    -0.231843445310E+04    0.95573E-05   -0.12786E-05  2884   0.289E-03
  10 F= -.23397260E+04 E0= -.23397260E+04  d E =-.168576E-08  mag=     5.0000
       N       E                     dE             d eps       ncg     rms          rms(c)
DAV:   1    -0.231843714821E+04   -0.26856E-02   -0.19841E+01  4600   0.223E+00    0.588E-01
RMM:   2    -0.231844675718E+04   -0.96090E-02   -0.13664E-01  4866   0.197E-01    0.388E-01
RMM:   3    -0.231844709794E+04   -0.34077E-03   -0.14437E-02  5437   0.934E-02    0.558E-01
RMM:   4    -0.231844327702E+04    0.38209E-02   -0.50529E-03  5860   0.360E-02    0.156E-01
RMM:   5    -0.231844342249E+04   -0.14547E-03   -0.14865E-03  4654   0.193E-02    0.176E-01
RMM:   6    -0.231844307017E+04    0.35232E-03   -0.46454E-04  3824   0.111E-02    0.382E-02
RMM:   7    -0.231844306719E+04    0.29742E-05   -0.66201E-05  3370   0.514E-03
  11 F= -.23397362E+04 E0= -.23397362E+04  d E =-.614483E-08  mag=     5.0000
       N       E                     dE             d eps       ncg     rms          rms(c)
DAV:   1    -0.231841430013E+04    0.28770E-01   -0.10145E+01  4600   0.170E+00    0.591E-01
RMM:   2    -0.231841884698E+04   -0.45469E-02   -0.98285E-02  4566   0.151E-01    0.386E-01
RMM:   3    -0.231841971118E+04   -0.86420E-03   -0.12129E-02  5365   0.756E-02    0.546E-01
RMM:   4    -0.231841581980E+04    0.38914E-02   -0.60766E-03  5459   0.378E-02    0.155E-01
RMM:   5    -0.231841566939E+04    0.15041E-03   -0.10548E-03  4469   0.203E-02    0.119E-01
RMM:   6    -0.231841553499E+04    0.13440E-03   -0.34810E-04  3528   0.953E-03    0.607E-02
RMM:   7    -0.231841548389E+04    0.51105E-04   -0.50452E-05  3293   0.545E-03    0.196E-02
RMM:   8    -0.231841548408E+04   -0.19143E-06   -0.33915E-05  3277   0.407E-03
  12 F= -.23397073E+04 E0= -.23397073E+04  d E =-.253574E-08  mag=     5.0000
       N       E                     dE             d eps       ncg     rms          rms(c)
DAV:   1    -0.231842275707E+04   -0.72732E-02   -0.19938E+01  4600   0.233E+00    0.857E-01
RMM:   2    -0.231843143526E+04   -0.86782E-02   -0.20077E-01  4739   0.225E-01    0.523E-01
RMM:   3    -0.231843227405E+04   -0.83879E-03   -0.25192E-02  5317   0.118E-01    0.759E-01
RMM:   4    -0.231842422899E+04    0.80451E-02   -0.11310E-02  5760   0.484E-02    0.197E-01
RMM:   5    -0.231842400672E+04    0.22226E-03   -0.22301E-03  5065   0.247E-02    0.193E-01
RMM:   6    -0.231842361608E+04    0.39064E-03   -0.69712E-04  4406   0.128E-02    0.718E-02
RMM:   7    -0.231842367285E+04   -0.56769E-04   -0.17966E-04  4027   0.760E-03    0.546E-02
RMM:   8    -0.231842369382E+04   -0.20974E-04   -0.82322E-05  3142   0.552E-03    0.337E-02
RMM:   9    -0.231842372059E+04   -0.26768E-04   -0.24428E-05  3103   0.384E-03    0.106E-02
RMM:  10    -0.231842375645E+04   -0.35861E-04   -0.16934E-05  3096   0.314E-03    0.580E-03
RMM:  11    -0.231842378019E+04   -0.23734E-04   -0.80751E-06  2949   0.296E-03    0.372E-03
RMM:  12    -0.231842379304E+04   -0.12855E-04   -0.62547E-06  2923   0.241E-03    0.211E-03
RMM:  13    -0.231842379896E+04   -0.59178E-05   -0.37449E-06  2806   0.220E-03
  13 F= -.23397167E+04 E0= -.23397167E+04  d E =-.414172E-08  mag=     5.0000
       N       E                     dE             d eps       ncg     rms          rms(c)
DAV:   1    -0.231844052820E+04   -0.16735E-01   -0.53008E+00  4800   0.120E+00    0.485E-01
RMM:   2    -0.231844326514E+04   -0.27369E-02   -0.63187E-02  4449   0.120E-01    0.278E-01
RMM:   3    -0.231844307490E+04    0.19024E-03   -0.65619E-03  4746   0.613E-02    0.383E-01
RMM:   4    -0.231844136911E+04    0.17058E-02   -0.29620E-03  5379   0.258E-02    0.141E-01
RMM:   5    -0.231844117143E+04    0.19768E-03   -0.71137E-04  4549   0.143E-02    0.856E-02
RMM:   6    -0.231844111068E+04    0.60750E-04   -0.23332E-04  3441   0.840E-03    0.594E-02
RMM:   7    -0.231844105969E+04    0.50994E-04   -0.46284E-05  3304   0.480E-03    0.217E-02
RMM:   8    -0.231844106121E+04   -0.15210E-05   -0.23982E-05  3035   0.353E-03
  14 F= -.23397324E+04 E0= -.23397324E+04  d E =-.171625E-08  mag=     5.0000
       N       E                     dE             d eps       ncg     rms          rms(c)
DAV:   1    -0.231844592955E+04   -0.48699E-02   -0.10748E+00  4850   0.421E-01    0.516E-01
RMM:   2    -0.231844312051E+04    0.28090E-02   -0.18017E-02  5018   0.546E-02    0.270E-01
RMM:   3    -0.231844236244E+04    0.75806E-03   -0.28586E-03  4680   0.351E-02    0.191E-01
RMM:   4    -0.231844271574E+04   -0.35330E-03   -0.18619E-03  5243   0.188E-02    0.244E-01
RMM:   5    -0.231844197281E+04    0.74293E-03   -0.59412E-04  4467   0.121E-02    0.544E-02
RMM:   6    -0.231844198900E+04   -0.16193E-04   -0.14261E-04  3238   0.592E-03    0.626E-02
RMM:   7    -0.231844193938E+04    0.49619E-04   -0.49116E-05  2964   0.421E-03    0.147E-02
RMM:   8    -0.231844194296E+04   -0.35804E-05   -0.12922E-05  2889   0.238E-03
  15 F= -.23397357E+04 E0= -.23397357E+04  d E =-.825699E-08  mag=     5.0000
       N       E                     dE             d eps       ncg     rms          rms(c)
DAV:   1    -0.231843322376E+04    0.87156E-02   -0.53692E-01  4800   0.300E-01    0.249E-01
RMM:   2    -0.231843307028E+04    0.15348E-03   -0.51679E-03  4774   0.304E-02    0.185E-01
RMM:   3    -0.231843322263E+04   -0.15235E-03   -0.15630E-03  4340   0.189E-02    0.222E-01
RMM:   4    -0.231843262280E+04    0.59983E-03   -0.64446E-04  3951   0.114E-02    0.559E-02
RMM:   5    -0.231843263853E+04   -0.15725E-04   -0.16005E-04  3369   0.663E-03    0.643E-02
RMM:   6    -0.231843259647E+04    0.42060E-04   -0.61864E-05  2990   0.456E-03    0.211E-02
RMM:   7    -0.231843259236E+04    0.41062E-05   -0.94939E-06  2823   0.227E-03
  16 F= -.23397248E+04 E0= -.23397248E+04  d E =-.363369E-08  mag=     5.0000
       N       E                     dE             d eps       ncg     rms          rms(c)
DAV:   1    -0.231844987742E+04   -0.17281E-01   -0.10894E+00  4600   0.403E-01    0.262E-01
RMM:   2    -0.231845063329E+04   -0.75586E-03   -0.61638E-03  4753   0.330E-02    0.263E-01
RMM:   3    -0.231845017330E+04    0.45998E-03   -0.17193E-03  4020   0.206E-02    0.187E-01
RMM:   4    -0.231844982276E+04    0.35054E-03   -0.52362E-04  3868   0.111E-02    0.774E-02
RMM:   5    -0.231844984790E+04   -0.25137E-04   -0.23121E-04  3423   0.852E-03    0.823E-02
RMM:   6    -0.231844977364E+04    0.74256E-04   -0.79993E-05  3139   0.532E-03    0.200E-02
RMM:   7    -0.231844977181E+04    0.18323E-05   -0.13012E-05  2815   0.249E-03
  17 F= -.23397424E+04 E0= -.23397424E+04  d E =-.291140E-08  mag=     5.0000
       N       E                     dE             d eps       ncg     rms          rms(c)
DAV:   1    -0.231844303893E+04    0.67347E-02   -0.56030E-01  4600   0.293E-01    0.235E-01
RMM:   2    -0.231844335654E+04   -0.31761E-03   -0.45140E-03  4437   0.274E-02    0.204E-01
RMM:   3    -0.231844319069E+04    0.16585E-03   -0.13289E-03  3711   0.186E-02    0.172E-01
RMM:   4    -0.231844284037E+04    0.35032E-03   -0.47653E-04  3938   0.104E-02    0.668E-02
RMM:   5    -0.231844281327E+04    0.27095E-04   -0.12861E-04  3475   0.627E-03    0.420E-02
RMM:   6    -0.231844279790E+04    0.15376E-04   -0.43678E-05  2929   0.408E-03    0.205E-02
RMM:   7    -0.231844279304E+04    0.48628E-05   -0.70401E-06  2684   0.217E-03
  18 F= -.23397348E+04 E0= -.23397348E+04  d E =-.642846E-08  mag=     5.0000
       N       E                     dE             d eps       ncg     rms          rms(c)
DAV:   1    -0.231844031481E+04    0.24831E-02   -0.11030E+00  4600   0.409E-01    0.318E-01
RMM:   2    -0.231844040580E+04   -0.90995E-04   -0.77633E-03  4428   0.364E-02    0.210E-01
RMM:   3    -0.231844046700E+04   -0.61201E-04   -0.18808E-03  3868   0.241E-02    0.224E-01
RMM:   4    -0.231843997523E+04    0.49177E-03   -0.98949E-04  4559   0.141E-02    0.113E-01
RMM:   5    -0.231843984205E+04    0.13318E-03   -0.23355E-04  3824   0.784E-03    0.453E-02
RMM:   6    -0.231843983146E+04    0.10589E-04   -0.63976E-05  2980   0.462E-03    0.335E-02
RMM:   7    -0.231843981905E+04    0.12415E-04   -0.13728E-05  2886   0.258E-03    0.117E-02
RMM:   8    -0.231843982009E+04   -0.10459E-05   -0.66582E-06  2658   0.182E-03
  19 F= -.23397326E+04 E0= -.23397326E+04  d E =-.167634E-08  mag=     5.0000
