       N       E                     dE             d eps       ncg     rms          rms(c)
DAV:   1     0.126849337992E+05    0.12685E+05   -0.82956E+05  4448   0.144E+03
DAV:   2    -0.107668583845E+04   -0.13762E+05   -0.13182E+05  5280   0.330E+02
DAV:   3    -0.246950437250E+04   -0.13928E+04   -0.13799E+04  5328   0.110E+02
DAV:   4    -0.251470048035E+04   -0.45196E+02   -0.44949E+02  6672   0.296E+01
DAV:   5    -0.251556349946E+04   -0.86302E+00   -0.86103E+00  5544   0.321E+00    0.170E+02
RMM:   6    -0.148037290457E+04    0.10352E+04   -0.19378E+03  4389   0.387E+01    0.726E+01
RMM:   7    -0.165128743951E+04   -0.17091E+03   -0.28689E+02  4971   0.139E+01    0.521E+01
RMM:   8    -0.170553037297E+04   -0.54243E+02   -0.66248E+01  5125   0.803E+00    0.452E+01
RMM:   9    -0.176473759742E+04   -0.59207E+02   -0.66988E+01  4812   0.780E+00    0.341E+01
RMM:  10    -0.190458681835E+04   -0.13985E+03   -0.65497E+01  4937   0.798E+00    0.233E+01
RMM:  11    -0.199885826428E+04   -0.94271E+02   -0.38273E+01  4756   0.525E+00    0.164E+01
RMM:  12    -0.208728986864E+04   -0.88432E+02   -0.39491E+01  4567   0.487E+00    0.148E+01
RMM:  13    -0.219326093747E+04   -0.10597E+03   -0.71063E+01  4589   0.633E+00    0.119E+01
RMM:  14    -0.226417394283E+04   -0.70913E+02   -0.55452E+01  4631   0.544E+00    0.933E+00
RMM:  15    -0.229464356419E+04   -0.30470E+02   -0.27519E+01  4694   0.400E+00    0.517E+00
RMM:  16    -0.230330098630E+04   -0.86574E+01   -0.95768E+00  4851   0.229E+00    0.262E+00
RMM:  17    -0.230742001022E+04   -0.41190E+01   -0.32625E+00  5013   0.119E+00    0.154E+00
RMM:  18    -0.230838576368E+04   -0.96575E+00   -0.74487E-01  5039   0.594E-01    0.903E-01
RMM:  19    -0.230891309581E+04   -0.52733E+00   -0.35685E-01  4634   0.326E-01    0.500E-01
RMM:  20    -0.230900939133E+04   -0.96296E-01   -0.89696E-02  4581   0.229E-01    0.270E-01
RMM:  21    -0.230903608742E+04   -0.26696E-01   -0.21971E-02  4846   0.116E-01    0.151E-01
RMM:  22    -0.230905055756E+04   -0.14470E-01   -0.68489E-03  4533   0.695E-02    0.134E-01
RMM:  23    -0.230906410670E+04   -0.13549E-01   -0.41189E-03  4413   0.534E-02    0.927E-02
RMM:  24    -0.230907223678E+04   -0.81301E-02   -0.24638E-03  4457   0.408E-02    0.570E-02
RMM:  25    -0.230907719929E+04   -0.49625E-02   -0.16851E-03  4522   0.323E-02    0.352E-02
RMM:  26    -0.230907960266E+04   -0.24034E-02   -0.78992E-04  4155   0.240E-02    0.180E-02
RMM:  27    -0.230908075782E+04   -0.11552E-02   -0.43694E-04  3950   0.164E-02    0.890E-03
RMM:  28    -0.230908106425E+04   -0.30643E-03   -0.14010E-04  3673   0.123E-02    0.678E-03
RMM:  29    -0.230908118928E+04   -0.12503E-03   -0.66362E-05  3542   0.756E-03    0.363E-03
RMM:  30    -0.230908123973E+04   -0.50444E-04   -0.24499E-05  3088   0.564E-03    0.261E-03
RMM:  31    -0.230908126367E+04   -0.23942E-04   -0.11243E-05  2874   0.358E-03    0.121E-03
RMM:  32    -0.230908127067E+04   -0.69951E-05   -0.51613E-06  2561   0.271E-03
   1 F= -.23294807E+04 E0= -.23294807E+04  d E =-.232948E+04  mag=     4.0000
       N       E                     dE             d eps       ncg     rms          rms(c)
DAV:   1    -0.230911975196E+04   -0.38488E-01   -0.61268E+00  5096   0.224E+00    0.696E-01
RMM:   2    -0.230913375960E+04   -0.14008E-01   -0.17191E-01  4789   0.377E-01    0.385E-01
RMM:   3    -0.230913356887E+04    0.19073E-03   -0.13664E-02  5283   0.154E-01    0.667E-01
RMM:   4    -0.230913043832E+04    0.31306E-02   -0.34594E-03  5531   0.406E-02    0.195E-01
RMM:   5    -0.230912977003E+04    0.66829E-03   -0.24985E-03  4865   0.381E-02    0.726E-02
RMM:   6    -0.230912969522E+04    0.74809E-04   -0.23978E-04  4996   0.169E-02    0.417E-02
RMM:   7    -0.230912966880E+04    0.26415E-04   -0.62501E-05  3562   0.580E-03    0.188E-02
RMM:   8    -0.230912965795E+04    0.10851E-04   -0.22990E-05  2891   0.552E-03    0.178E-02
RMM:   9    -0.230912965252E+04    0.54355E-05   -0.12785E-05  2826   0.426E-03
   2 F= -.23295290E+04 E0= -.23295290E+04  d E =-.483505E-01  mag=     4.0000
       N       E                     dE             d eps       ncg     rms          rms(c)
DAV:   1    -0.230913133829E+04   -0.16803E-02   -0.46454E-01  4888   0.627E-01    0.193E-01
RMM:   2    -0.230913237537E+04   -0.10371E-02   -0.12985E-02  4849   0.107E-01    0.107E-01
RMM:   3    -0.230913237035E+04    0.50220E-05   -0.10510E-03  5364   0.424E-02    0.187E-01
RMM:   4    -0.230913212360E+04    0.24675E-03   -0.26088E-04  4183   0.112E-02    0.536E-02
RMM:   5    -0.230913207131E+04    0.52294E-04   -0.19822E-04  4284   0.116E-02    0.201E-02
RMM:   6    -0.230913206522E+04    0.60922E-05   -0.22051E-05  2940   0.733E-03
   3 F= -.23295314E+04 E0= -.23295314E+04  d E =-.507509E-01  mag=     4.0000
       N       E                     dE             d eps       ncg     rms          rms(c)
DAV:   1    -0.230914324627E+04   -0.11175E-01   -0.81065E+00  4528   0.273E+00    0.758E-01
RMM:   2    -0.230916966375E+04   -0.26417E-01   -0.29747E-01  5843   0.457E-01    0.295E-01
RMM:   3    -0.230916816489E+04    0.14989E-02   -0.17713E-02  4828   0.144E-01    0.253E-01
RMM:   4    -0.230916839000E+04   -0.22511E-03   -0.33668E-03  5263   0.407E-02    0.352E-01
RMM:   5    -0.230916729214E+04    0.10979E-02   -0.17775E-03  4716   0.320E-02    0.623E-02
RMM:   6    -0.230916730316E+04   -0.11015E-04   -0.32065E-04  4335   0.196E-02    0.251E-02
RMM:   7    -0.230916729088E+04    0.12274E-04   -0.53458E-05  3490   0.639E-03    0.199E-02
RMM:   8    -0.230916728237E+04    0.85107E-05   -0.16327E-05  2883   0.468E-03
   4 F= -.23295662E+04 E0= -.23295662E+04  d E =-.347954E-01  mag=     4.0000
       N       E                     dE             d eps       ncg     rms          rms(c)
DAV:   1    -0.230916475177E+04    0.25391E-02   -0.29925E+00  4592   0.165E+00    0.459E-01
RMM:   2    -0.230917442252E+04   -0.96707E-02   -0.10919E-01  5884   0.278E-01    0.185E-01
RMM:   3    -0.230917409420E+04    0.32832E-03   -0.70250E-03  4947   0.880E-02    0.224E-01
RMM:   4    -0.230917387389E+04    0.22031E-03   -0.11347E-03  5124   0.232E-02    0.158E-01
RMM:   5    -0.230917357492E+04    0.29897E-03   -0.70672E-04  4546   0.198E-02    0.422E-02
RMM:   6    -0.230917356890E+04    0.60220E-05   -0.10941E-04  3977   0.125E-02    0.142E-02
RMM:   7    -0.230917356257E+04    0.63280E-05   -0.21560E-05  2994   0.408E-03
   5 F= -.23295722E+04 E0= -.23295722E+04  d E =-.407957E-01  mag=     4.0000
       N       E                     dE             d eps       ncg     rms          rms(c)
DAV:   1    -0.230913560825E+04    0.37961E-01   -0.75742E+00  4464   0.263E+00    0.676E-01
RMM:   2    -0.230920080372E+04   -0.65195E-01   -0.67368E-01  6093   0.512E-01    0.497E-01
RMM:   3    -0.230920683328E+04   -0.60296E-02   -0.63979E-02  5682   0.159E-01    0.755E-01
RMM:   4    -0.230920360107E+04    0.32322E-02   -0.74045E-03  6026   0.390E-02    0.194E-01
RMM:   5    -0.230920305780E+04    0.54326E-03   -0.14818E-03  4584   0.244E-02    0.105E-01
RMM:   6    -0.230920293184E+04    0.12596E-03   -0.67862E-04  4871   0.201E-02    0.353E-02
RMM:   7    -0.230920292344E+04    0.84025E-05   -0.64400E-05  3624   0.949E-03
   6 F= -.23296012E+04 E0= -.23296012E+04  d E =-.289379E-01  mag=     4.0000
       N       E                     dE             d eps       ncg     rms          rms(c)
DAV:   1    -0.230914930613E+04    0.53626E-01   -0.68450E+00  4464   0.251E+00    0.644E-01
RMM:   2    -0.230920826175E+04   -0.58956E-01   -0.60889E-01  6055   0.489E-01    0.486E-01
RMM:   3    -0.230921376285E+04   -0.55011E-02   -0.58057E-02  5637   0.153E-01    0.735E-01
RMM:   4    -0.230921070241E+04    0.30604E-02   -0.68043E-03  5993   0.377E-02    0.184E-01
RMM:   5    -0.230921019702E+04    0.50539E-03   -0.13439E-03  4630   0.237E-02    0.996E-02
RMM:   6    -0.230921007780E+04    0.11922E-03   -0.62494E-04  4900   0.193E-02    0.330E-02
RMM:   7    -0.230921007170E+04    0.61048E-05   -0.59142E-05  3628   0.895E-03
   7 F= -.23296079E+04 E0= -.23296079E+04  d E =-.356634E-01  mag=     4.0000
       N       E                     dE             d eps       ncg     rms          rms(c)
DAV:   1    -0.230914038110E+04    0.69697E-01   -0.78157E+00  4448   0.275E+00    0.774E-01
RMM:   2    -0.230922177078E+04   -0.81390E-01   -0.84922E-01  6045   0.545E-01    0.379E-01
RMM:   3    -0.230922810219E+04   -0.63314E-02   -0.85444E-02  5622   0.179E-01    0.470E-01
RMM:   4    -0.230922758388E+04    0.51831E-03   -0.90605E-03  5993   0.363E-02    0.255E-01
RMM:   5    -0.230922691273E+04    0.67115E-03   -0.10917E-03  4534   0.198E-02    0.121E-01
RMM:   6    -0.230922670461E+04    0.20811E-03   -0.90855E-04  5039   0.214E-02    0.527E-02
RMM:   7    -0.230922669648E+04    0.81347E-05   -0.98967E-05  4118   0.120E-02
   8 F= -.23296236E+04 E0= -.23296236E+04  d E =-.157459E-01  mag=     4.0000
       N       E                     dE             d eps       ncg     rms          rms(c)
DAV:   1    -0.230919729304E+04    0.29412E-01   -0.28061E+00  4512   0.165E+00    0.466E-01
RMM:   2    -0.230922654313E+04   -0.29250E-01   -0.30523E-01  6038   0.327E-01    0.238E-01
RMM:   3    -0.230922895506E+04   -0.24119E-02   -0.30174E-02  5603   0.104E-01    0.340E-01
RMM:   4    -0.230922850495E+04    0.45011E-03   -0.32698E-03  5354   0.222E-02    0.136E-01
RMM:   5    -0.230922827216E+04    0.23279E-03   -0.46093E-04  4279   0.136E-02    0.671E-02
RMM:   6    -0.230922820829E+04    0.63872E-04   -0.28299E-04  4535   0.131E-02    0.238E-02
RMM:   7    -0.230922820684E+04    0.14576E-05   -0.28985E-05  3015   0.783E-03
   9 F= -.23296246E+04 E0= -.23296246E+04  d E =-.167224E-01  mag=     4.0000
       N       E                     dE             d eps       ncg     rms          rms(c)
DAV:   1    -0.230915273790E+04    0.75470E-01   -0.86775E+00  4432   0.288E+00    0.842E-01
RMM:   2    -0.230924198597E+04   -0.89248E-01   -0.91131E-01  5973   0.564E-01    0.769E-01
RMM:   3    -0.230924707133E+04   -0.50854E-02   -0.92210E-02  5757   0.186E-01    0.770E-01
RMM:   4    -0.230924360593E+04    0.34654E-02   -0.99095E-03  5848   0.460E-02    0.228E-01
RMM:   5    -0.230924294830E+04    0.65763E-03   -0.19871E-03  4975   0.267E-02    0.140E-01
RMM:   6    -0.230924278825E+04    0.16005E-03   -0.11229E-03  5249   0.234E-02    0.123E-01
RMM:   7    -0.230924269817E+04    0.90082E-04   -0.23438E-04  4442   0.140E-02    0.313E-02
RMM:   8    -0.230924269241E+04    0.57588E-05   -0.25047E-05  2891   0.444E-03
  10 F= -.23296389E+04 E0= -.23296389E+04  d E =-.142478E-01  mag=     4.0000
       N       E                     dE             d eps       ncg     rms          rms(c)
DAV:   1    -0.230923767756E+04    0.50206E-02   -0.53477E-01  4656   0.714E-01    0.209E-01
RMM:   2    -0.230924315103E+04   -0.54735E-02   -0.56226E-02  6026   0.142E-01    0.175E-01
RMM:   3    -0.230924351315E+04   -0.36212E-03   -0.55745E-03  5530   0.447E-02    0.193E-01
RMM:   4    -0.230924329574E+04    0.21741E-03   -0.62800E-04  3727   0.116E-02    0.579E-02
RMM:   5    -0.230924325147E+04    0.44265E-04   -0.11946E-04  3431   0.809E-03    0.352E-02
RMM:   6    -0.230924324360E+04    0.78720E-05   -0.82129E-05  3805   0.764E-03
  11 F= -.23296394E+04 E0= -.23296394E+04  d E =-.147310E-01  mag=     4.0000
       N       E                     dE             d eps       ncg     rms          rms(c)
DAV:   1    -0.230919484167E+04    0.48410E-01   -0.65102E+00  4432   0.243E+00    0.760E-01
RMM:   2    -0.230926825292E+04   -0.73411E-01   -0.68409E-01  5990   0.481E-01    0.125E+00
RMM:   3    -0.230926122241E+04    0.70305E-02   -0.55465E-02  5770   0.138E-01    0.524E-01
RMM:   4    -0.230925964844E+04    0.15740E-02   -0.70563E-03  5153   0.381E-02    0.195E-01
RMM:   5    -0.230925912443E+04    0.52401E-03   -0.12358E-03  5058   0.257E-02    0.143E-01
RMM:   6    -0.230925893663E+04    0.18780E-03   -0.94348E-04  5050   0.216E-02    0.303E-02
RMM:   7    -0.230925893304E+04    0.35978E-05   -0.97894E-05  3540   0.105E-02
  12 F= -.23296551E+04 E0= -.23296551E+04  d E =-.157199E-01  mag=     4.0000
       N       E                     dE             d eps       ncg     rms          rms(c)
DAV:   1    -0.230923869431E+04    0.20242E-01   -0.22653E+00  4448   0.144E+00    0.451E-01
RMM:   2    -0.230926427359E+04   -0.25579E-01   -0.23841E-01  6000   0.287E-01    0.735E-01
RMM:   3    -0.230926181038E+04    0.24632E-02   -0.18954E-02  5747   0.811E-02    0.310E-01
RMM:   4    -0.230926125527E+04    0.55512E-03   -0.24865E-03  5059   0.226E-02    0.115E-01
RMM:   5    -0.230926107083E+04    0.18444E-03   -0.45007E-04  4745   0.154E-02    0.849E-02
RMM:   6    -0.230926100009E+04    0.70733E-04   -0.33736E-04  4678   0.133E-02    0.177E-02
RMM:   7    -0.230926099854E+04    0.15555E-05   -0.34056E-05  2954   0.728E-03
  13 F= -.23296571E+04 E0= -.23296571E+04  d E =-.177753E-01  mag=     4.0000
       N       E                     dE             d eps       ncg     rms          rms(c)
DAV:   1    -0.230921302415E+04    0.47976E-01   -0.56547E+00  4416   0.233E+00    0.720E-01
RMM:   2    -0.230927950911E+04   -0.66485E-01   -0.62545E-01  6009   0.462E-01    0.113E+00
RMM:   3    -0.230927548899E+04    0.40201E-02   -0.58496E-02  5787   0.137E-01    0.503E-01
RMM:   4    -0.230927403636E+04    0.14526E-02   -0.68372E-03  5309   0.360E-02    0.173E-01
RMM:   5    -0.230927361133E+04    0.42503E-03   -0.95587E-04  4886   0.221E-02    0.122E-01
RMM:   6    -0.230927345558E+04    0.15575E-03   -0.81039E-04  4996   0.207E-02    0.340E-02
RMM:   7    -0.230927345329E+04    0.22940E-05   -0.93111E-05  3541   0.107E-02
  14 F= -.23296693E+04 E0= -.23296693E+04  d E =-.121694E-01  mag=     4.0000
       N       E                     dE             d eps       ncg     rms          rms(c)
DAV:   1    -0.230921248194E+04    0.60974E-01   -0.59692E+00  4416   0.239E+00    0.739E-01
RMM:   2    -0.230928237709E+04   -0.69895E-01   -0.65947E-01  5991   0.474E-01    0.115E+00
RMM:   3    -0.230927845471E+04    0.39224E-02   -0.61789E-02  5773   0.141E-01    0.527E-01
RMM:   4    -0.230927684416E+04    0.16105E-02   -0.71924E-03  5347   0.370E-02    0.179E-01
RMM:   5    -0.230927638575E+04    0.45841E-03   -0.10201E-03  4880   0.227E-02    0.124E-01
RMM:   6    -0.230927621394E+04    0.17181E-03   -0.85201E-04  5008   0.212E-02    0.363E-02
RMM:   7    -0.230927620896E+04    0.49805E-05   -0.10093E-04  3658   0.109E-02    0.167E-02
RMM:   8    -0.230927620612E+04    0.28385E-05   -0.14873E-05  2862   0.360E-03
  15 F= -.23296717E+04 E0= -.23296717E+04  d E =-.145840E-01  mag=     4.0000
       N       E                     dE             d eps       ncg     rms          rms(c)
DAV:   1    -0.230925119635E+04    0.25013E-01   -0.29025E+00  4496   0.164E+00    0.493E-01
RMM:   2    -0.230928680024E+04   -0.35604E-01   -0.34479E-01  6087   0.329E-01    0.699E-01
RMM:   3    -0.230928621817E+04    0.58207E-03   -0.31094E-02  5797   0.958E-02    0.381E-01
RMM:   4    -0.230928538075E+04    0.83742E-03   -0.36999E-03  5295   0.250E-02    0.124E-01
RMM:   5    -0.230928517484E+04    0.20591E-03   -0.46120E-04  4414   0.142E-02    0.818E-02
RMM:   6    -0.230928510803E+04    0.66804E-04   -0.39763E-04  4725   0.146E-02    0.301E-02
RMM:   7    -0.230928510606E+04    0.19792E-05   -0.44403E-05  3002   0.798E-03
  16 F= -.23296803E+04 E0= -.23296803E+04  d E =-.856712E-02  mag=     4.0000
       N       E                     dE             d eps       ncg     rms          rms(c)
DAV:   1    -0.230912527164E+04    0.15984E+00   -0.14320E+01  4400   0.366E+00    0.110E+00
RMM:   2    -0.230930093136E+04   -0.17566E+00   -0.17014E+00  6069   0.725E-01    0.158E+00
RMM:   3    -0.230929844717E+04    0.24842E-02   -0.16403E-01  5835   0.221E-01    0.841E-01
RMM:   4    -0.230929466572E+04    0.37815E-02   -0.18620E-02  5525   0.554E-02    0.277E-01
RMM:   5    -0.230929366781E+04    0.99791E-03   -0.23431E-03  4889   0.309E-02    0.186E-01
RMM:   6    -0.230929330738E+04    0.36043E-03   -0.19271E-03  5172   0.308E-02    0.711E-02
RMM:   7    -0.230929329845E+04    0.89225E-05   -0.24544E-04  4411   0.156E-02    0.256E-02
RMM:   8    -0.230929329845E+04    0.49185E-08   -0.31208E-05  2963   0.468E-03
  17 F= -.23296877E+04 E0= -.23296877E+04  d E =-.159518E-01  mag=     4.0000
       N       E                     dE             d eps       ncg     rms          rms(c)
DAV:   1    -0.230929241888E+04    0.87957E-03   -0.85884E-01  4736   0.915E-01    0.289E-01
RMM:   2    -0.230930085174E+04   -0.84329E-02   -0.88830E-02  5923   0.184E-01    0.166E-01
RMM:   3    -0.230930142462E+04   -0.57288E-03   -0.89549E-03  5560   0.604E-02    0.203E-01
RMM:   4    -0.230930121949E+04    0.20513E-03   -0.10259E-03  4618   0.147E-02    0.940E-02
RMM:   5    -0.230930113659E+04    0.82907E-04   -0.24329E-04  4142   0.113E-02    0.470E-02
RMM:   6    -0.230930112380E+04    0.12787E-04   -0.10913E-04  4149   0.867E-03    0.343E-02
RMM:   7    -0.230930111741E+04    0.63926E-05   -0.20127E-05  2846   0.581E-03
  18 F= -.23296953E+04 E0= -.23296953E+04  d E =-.763203E-02  mag=     4.0000
       N       E                     dE             d eps       ncg     rms          rms(c)
DAV:   1    -0.230928297682E+04    0.18147E-01   -0.22791E+00  4416   0.149E+00    0.470E-01
RMM:   2    -0.230930531454E+04   -0.22338E-01   -0.23588E-01  5904   0.299E-01    0.258E-01
RMM:   3    -0.230930667397E+04   -0.13594E-02   -0.23672E-02  5591   0.971E-02    0.287E-01
RMM:   4    -0.230930634319E+04    0.33077E-03   -0.26647E-03  5526   0.231E-02    0.162E-01
RMM:   5    -0.230930611173E+04    0.23147E-03   -0.63813E-04  4928   0.171E-02    0.856E-02
RMM:   6    -0.230930605850E+04    0.53227E-04   -0.28376E-04  4829   0.123E-02    0.613E-02
RMM:   7    -0.230930603415E+04    0.24355E-04   -0.54306E-05  3045   0.765E-03    0.115E-02
RMM:   8    -0.230930603327E+04    0.88019E-06   -0.12315E-05  2852   0.377E-03
  19 F= -.23296999E+04 E0= -.23296999E+04  d E =-.122347E-01  mag=     4.0000
       N       E                     dE             d eps       ncg     rms          rms(c)
DAV:   1    -0.230930571390E+04    0.32025E-03   -0.84955E-01  4448   0.902E-01    0.251E-01
RMM:   2    -0.230931246648E+04   -0.67526E-02   -0.71062E-02  5938   0.172E-01    0.117E-01
RMM:   3    -0.230931273902E+04   -0.27255E-03   -0.68370E-03  5335   0.532E-02    0.748E-02
RMM:   4    -0.230931274235E+04   -0.33280E-05   -0.72900E-04  4170   0.126E-02    0.730E-02
RMM:   5    -0.230931273805E+04    0.42983E-05   -0.18083E-04  3598   0.959E-03    0.753E-02
RMM:   6    -0.230931270004E+04    0.38016E-04   -0.67557E-05  3401   0.679E-03    0.277E-02
RMM:   7    -0.230931269682E+04    0.32171E-05   -0.13798E-05  2860   0.496E-03
  20 F= -.23297064E+04 E0= -.23297064E+04  d E =-.651803E-02  mag=     4.0000
       N       E                     dE             d eps       ncg     rms          rms(c)
DAV:   1    -0.230925804714E+04    0.54653E-01   -0.76416E+00  4400   0.270E+00    0.751E-01
RMM:   2    -0.230931915854E+04   -0.61111E-01   -0.64156E-01  5872   0.509E-01    0.390E-01
RMM:   3    -0.230932179908E+04   -0.26405E-02   -0.61816E-02  5521   0.159E-01    0.357E-01
RMM:   4    -0.230932161222E+04    0.18686E-03   -0.67110E-03  5746   0.356E-02    0.281E-01
RMM:   5    -0.230932100961E+04    0.60261E-03   -0.16793E-03  5130   0.260E-02    0.158E-01
RMM:   6    -0.230932081562E+04    0.19400E-03   -0.78518E-04  5139   0.192E-02    0.866E-02
RMM:   7    -0.230932077140E+04    0.44218E-04   -0.12205E-04  3899   0.117E-02    0.196E-02
RMM:   8    -0.230932076689E+04    0.45092E-05   -0.22376E-05  2871   0.382E-03
  21 F= -.23297140E+04 E0= -.23297140E+04  d E =-.141280E-01  mag=     4.0000
       N       E                     dE             d eps       ncg     rms          rms(c)
DAV:   1    -0.230931324292E+04    0.75285E-02   -0.19843E+00  4416   0.137E+00    0.361E-01
RMM:   2    -0.230932882858E+04   -0.15586E-01   -0.16151E-01  5952   0.263E-01    0.238E-01
RMM:   3    -0.230932940591E+04   -0.57734E-03   -0.12907E-02  5580   0.748E-02    0.289E-01
RMM:   4    -0.230932895175E+04    0.45416E-03   -0.17264E-03  5200   0.192E-02    0.117E-01
RMM:   5    -0.230932879690E+04    0.15485E-03   -0.36918E-04  4245   0.132E-02    0.596E-02
RMM:   6    -0.230932877144E+04    0.25465E-04   -0.21345E-04  4598   0.118E-02    0.424E-02
RMM:   7    -0.230932875957E+04    0.11866E-04   -0.32074E-05  2927   0.664E-03    0.101E-02
RMM:   8    -0.230932875900E+04    0.57250E-06   -0.53686E-06  2829   0.303E-03
  22 F= -.23297215E+04 E0= -.23297215E+04  d E =-.750867E-02  mag=     4.0000
       N       E                     dE             d eps       ncg     rms          rms(c)
DAV:   1    -0.230930303372E+04    0.25726E-01   -0.38928E+00  4400   0.192E+00    0.505E-01
RMM:   2    -0.230933306529E+04   -0.30032E-01   -0.31153E-01  5935   0.368E-01    0.335E-01
RMM:   3    -0.230933461882E+04   -0.15535E-02   -0.28362E-02  5623   0.110E-01    0.399E-01
RMM:   4    -0.230933379276E+04    0.82607E-03   -0.34915E-03  5683   0.269E-02    0.168E-01
RMM:   5    -0.230933348089E+04    0.31187E-03   -0.73703E-04  4680   0.180E-02    0.877E-02
RMM:   6    -0.230933342102E+04    0.59865E-04   -0.43566E-04  5123   0.155E-02    0.636E-02
RMM:   7    -0.230933339214E+04    0.28888E-04   -0.65259E-05  3219   0.799E-03    0.143E-02
RMM:   8    -0.230933339027E+04    0.18675E-05   -0.10926E-05  2849   0.339E-03
  23 F= -.23297255E+04 E0= -.23297255E+04  d E =-.114562E-01  mag=     4.0000
       N       E                     dE             d eps       ncg     rms          rms(c)
DAV:   1    -0.230932579161E+04    0.76005E-02   -0.14037E+00  4448   0.118E+00    0.352E-01
RMM:   2    -0.230933944176E+04   -0.13650E-01   -0.14129E-01  5965   0.239E-01    0.259E-01
RMM:   3    -0.230934017577E+04   -0.73401E-03   -0.12507E-02  5667   0.737E-02    0.324E-01
RMM:   4    -0.230933957000E+04    0.60577E-03   -0.15710E-03  5228   0.190E-02    0.101E-01
RMM:   5    -0.230933944818E+04    0.12182E-03   -0.36009E-04  4257   0.122E-02    0.568E-02
RMM:   6    -0.230933941851E+04    0.29674E-04   -0.18231E-04  4542   0.111E-02    0.397E-02
RMM:   7    -0.230933940853E+04    0.99723E-05   -0.31743E-05  2904   0.685E-03
  24 F= -.23297313E+04 E0= -.23297313E+04  d E =-.580869E-02  mag=     4.0000
       N       E                     dE             d eps       ncg     rms          rms(c)
DAV:   1    -0.230932679407E+04    0.12624E-01   -0.14709E+00  4416   0.120E+00    0.362E-01
RMM:   2    -0.230934113730E+04   -0.14343E-01   -0.14817E-01  5979   0.245E-01    0.278E-01
RMM:   3    -0.230934192108E+04   -0.78378E-03   -0.13130E-02  5687   0.725E-02    0.346E-01
RMM:   4    -0.230934122533E+04    0.69576E-03   -0.16843E-03  5262   0.197E-02    0.102E-01
RMM:   5    -0.230934109868E+04    0.12665E-03   -0.37616E-04  4283   0.123E-02    0.580E-02
RMM:   6    -0.230934106458E+04    0.34097E-04   -0.19519E-04  4579   0.113E-02    0.395E-02
RMM:   7    -0.230934105402E+04    0.10557E-04   -0.32994E-05  2920   0.693E-03    0.113E-02
RMM:   8    -0.230934105333E+04    0.68976E-06   -0.60647E-06  2833   0.315E-03
  25 F= -.23297327E+04 E0= -.23297327E+04  d E =-.723298E-02  mag=     4.0000
       N       E                     dE             d eps       ncg     rms          rms(c)
DAV:   1    -0.230933241923E+04    0.86348E-02   -0.12530E+00  4424   0.110E+00    0.307E-01
RMM:   2    -0.230934545443E+04   -0.13035E-01   -0.13376E-01  6043   0.222E-01    0.225E-01
RMM:   3    -0.230934610471E+04   -0.65028E-03   -0.11130E-02  5656   0.625E-02    0.272E-01
RMM:   4    -0.230934572863E+04    0.37608E-03   -0.14425E-03  4644   0.162E-02    0.936E-02
RMM:   5    -0.230934563078E+04    0.97848E-04   -0.24125E-04  3966   0.102E-02    0.567E-02
RMM:   6    -0.230934560510E+04    0.25679E-04   -0.17204E-04  4426   0.101E-02    0.430E-02
RMM:   7    -0.230934559469E+04    0.10414E-04   -0.30348E-05  2884   0.672E-03    0.104E-02
RMM:   8    -0.230934559530E+04   -0.61185E-06   -0.48408E-06  2825   0.265E-03
  26 F= -.23297371E+04 E0= -.23297371E+04  d E =-.442925E-02  mag=     4.0000
       N       E                     dE             d eps       ncg     rms          rms(c)
DAV:   1    -0.230929531749E+04    0.50277E-01   -0.51201E+00  4400   0.222E+00    0.621E-01
RMM:   2    -0.230934771811E+04   -0.52401E-01   -0.53723E-01  6009   0.446E-01    0.476E-01
RMM:   3    -0.230935126758E+04   -0.35495E-02   -0.54139E-02  5726   0.134E-01    0.568E-01
RMM:   4    -0.230934963446E+04    0.16331E-02   -0.62650E-03  5906   0.331E-02    0.189E-01
RMM:   5    -0.230934924355E+04    0.39091E-03   -0.10081E-03  4740   0.188E-02    0.116E-01
RMM:   6    -0.230934913158E+04    0.11197E-03   -0.68688E-04  5283   0.181E-02    0.862E-02
RMM:   7    -0.230934908882E+04    0.42760E-04   -0.12238E-04  3624   0.996E-03    0.202E-02
RMM:   8    -0.230934909028E+04   -0.14619E-05   -0.15230E-05  2866   0.380E-03
  27 F= -.23297404E+04 E0= -.23297404E+04  d E =-.768197E-02  mag=     4.0000
       N       E                     dE             d eps       ncg     rms          rms(c)
DAV:   1    -0.230933121549E+04    0.17873E-01   -0.20908E+00  4408   0.141E+00    0.404E-01
RMM:   2    -0.230935488194E+04   -0.23666E-01   -0.24754E-01  5972   0.288E-01    0.222E-01
RMM:   3    -0.230935646848E+04   -0.15865E-02   -0.26005E-02  5612   0.910E-02    0.188E-01
RMM:   4    -0.230935652242E+04   -0.53942E-04   -0.26778E-03  5006   0.190E-02    0.150E-01
RMM:   5    -0.230935633656E+04    0.18586E-03   -0.49345E-04  4457   0.134E-02    0.999E-02
RMM:   6    -0.230935627521E+04    0.61350E-04   -0.29961E-04  4592   0.113E-02    0.719E-02
RMM:   7    -0.230935624752E+04    0.27684E-04   -0.70527E-05  3180   0.803E-03    0.235E-02
RMM:   8    -0.230935624765E+04   -0.13105E-06   -0.16268E-05  2859   0.376E-03
  28 F= -.23297473E+04 E0= -.23297473E+04  d E =-.692098E-02  mag=     4.0000
       N       E                     dE             d eps       ncg     rms          rms(c)
DAV:   1    -0.230931218960E+04    0.44058E-01   -0.39862E+00  4400   0.195E+00    0.558E-01
RMM:   2    -0.230935750127E+04   -0.45312E-01   -0.47349E-01  5965   0.396E-01    0.320E-01
RMM:   3    -0.230936053413E+04   -0.30329E-02   -0.49021E-02  5651   0.123E-01    0.292E-01
RMM:   4    -0.230936051032E+04    0.23806E-04   -0.50669E-03  5633   0.262E-02    0.202E-01
RMM:   5    -0.230936014509E+04    0.36524E-03   -0.90179E-04  4882   0.174E-02    0.133E-01
RMM:   6    -0.230936003494E+04    0.11015E-03   -0.59200E-04  5021   0.151E-02    0.103E-01
RMM:   7    -0.230935997157E+04    0.63369E-04   -0.13942E-04  3555   0.102E-02    0.235E-02
RMM:   8    -0.230935997154E+04    0.33819E-07   -0.24047E-05  2870   0.408E-03
  29 F= -.23297507E+04 E0= -.23297507E+04  d E =-.103014E-01  mag=     4.0000
       N       E                     dE             d eps       ncg     rms          rms(c)
DAV:   1    -0.230933035411E+04    0.29617E-01   -0.30515E+00  4400   0.170E+00    0.498E-01
RMM:   2    -0.230936503915E+04   -0.34685E-01   -0.36238E-01  5978   0.348E-01    0.264E-01
RMM:   3    -0.230936726088E+04   -0.22217E-02   -0.36994E-02  5631   0.109E-01    0.216E-01
RMM:   4    -0.230936736126E+04   -0.10038E-03   -0.38764E-03  5309   0.230E-02    0.185E-01
RMM:   5    -0.230936708035E+04    0.28091E-03   -0.77329E-04  4832   0.162E-02    0.119E-01
RMM:   6    -0.230936698023E+04    0.10012E-03   -0.41577E-04  4790   0.130E-02    0.767E-02
RMM:   7    -0.230936694779E+04    0.32437E-04   -0.87789E-05  3315   0.892E-03    0.261E-02
RMM:   8    -0.230936694622E+04    0.15754E-05   -0.19333E-05  2863   0.381E-03
  30 F= -.23297574E+04 E0= -.23297574E+04  d E =-.667131E-02  mag=     4.0000
       N       E                     dE             d eps       ncg     rms          rms(c)
DAV:   1    -0.230935200811E+04    0.14940E-01   -0.13655E+00  4448   0.114E+00    0.333E-01
RMM:   2    -0.230936753943E+04   -0.15531E-01   -0.16238E-01  5978   0.235E-01    0.173E-01
RMM:   3    -0.230936853147E+04   -0.99204E-03   -0.16643E-02  5580   0.733E-02    0.136E-01
RMM:   4    -0.230936858544E+04   -0.53967E-04   -0.17441E-03  4477   0.156E-02    0.124E-01
RMM:   5    -0.230936846022E+04    0.12522E-03   -0.35527E-04  4279   0.117E-02    0.803E-02
RMM:   6    -0.230936841362E+04    0.46600E-04   -0.18426E-04  4233   0.924E-03    0.498E-02
RMM:   7    -0.230936839953E+04    0.14088E-04   -0.41069E-05  3039   0.682E-03    0.197E-02
RMM:   8    -0.230936839830E+04    0.12344E-05   -0.11574E-05  2854   0.334E-03
  31 F= -.23297586E+04 E0= -.23297586E+04  d E =-.791473E-02  mag=     4.0000
       N       E                     dE             d eps       ncg     rms          rms(c)
DAV:   1    -0.230934065384E+04    0.27746E-01   -0.29061E+00  4400   0.163E+00    0.476E-01
RMM:   2    -0.230937401223E+04   -0.33358E-01   -0.34421E-01  6054   0.342E-01    0.323E-01
RMM:   3    -0.230937615208E+04   -0.21398E-02   -0.31870E-02  5755   0.993E-02    0.399E-01
RMM:   4    -0.230937538324E+04    0.76884E-03   -0.36706E-03  5490   0.240E-02    0.145E-01
RMM:   5    -0.230937512716E+04    0.25608E-03   -0.62788E-04  4433   0.149E-02    0.837E-02
RMM:   6    -0.230937507041E+04    0.56746E-04   -0.41070E-04  5056   0.144E-02    0.557E-02
RMM:   7    -0.230937505144E+04    0.18973E-04   -0.55539E-05  3038   0.759E-03    0.137E-02
RMM:   8    -0.230937505153E+04   -0.91299E-07   -0.84501E-06  2855   0.326E-03
  32 F= -.23297650E+04 E0= -.23297650E+04  d E =-.635817E-02  mag=     4.0000
       N       E                     dE             d eps       ncg     rms          rms(c)
DAV:   1    -0.230935110330E+04    0.23948E-01   -0.21955E+00  4400   0.141E+00    0.414E-01
RMM:   2    -0.230937623050E+04   -0.25127E-01   -0.25962E-01  6053   0.298E-01    0.271E-01
RMM:   3    -0.230937782752E+04   -0.15970E-02   -0.23942E-02  5735   0.867E-02    0.334E-01
RMM:   4    -0.230937731499E+04    0.51253E-03   -0.27868E-03  5181   0.207E-02    0.128E-01
RMM:   5    -0.230937711417E+04    0.20083E-03   -0.46723E-04  4279   0.134E-02    0.738E-02
RMM:   6    -0.230937707075E+04    0.43412E-04   -0.31130E-04  4812   0.128E-02    0.519E-02
RMM:   7    -0.230937705406E+04    0.16694E-04   -0.46032E-05  2975   0.729E-03    0.118E-02
RMM:   8    -0.230937705438E+04   -0.32037E-06   -0.76190E-06  2853   0.320E-03
  33 F= -.23297667E+04 E0= -.23297667E+04  d E =-.809707E-02  mag=     4.0000
       N       E                     dE             d eps       ncg     rms          rms(c)
DAV:   1    -0.230934389707E+04    0.33157E-01   -0.34843E+00  4400   0.174E+00    0.531E-01
RMM:   2    -0.230938218861E+04   -0.38292E-01   -0.39599E-01  6059   0.370E-01    0.387E-01
RMM:   3    -0.230938464499E+04   -0.24564E-02   -0.36525E-02  5763   0.109E-01    0.498E-01
RMM:   4    -0.230938329951E+04    0.13455E-02   -0.43350E-03  5697   0.274E-02    0.154E-01
RMM:   5    -0.230938300434E+04    0.29517E-03   -0.73401E-04  4521   0.158E-02    0.910E-02
RMM:   6    -0.230938292201E+04    0.82336E-04   -0.52786E-04  5230   0.158E-02    0.491E-02
RMM:   7    -0.230938290666E+04    0.15341E-04   -0.49713E-05  3010   0.761E-03    0.137E-02
RMM:   8    -0.230938290631E+04    0.35061E-06   -0.89334E-06  2858   0.323E-03
  34 F= -.23297722E+04 E0= -.23297722E+04  d E =-.552743E-02  mag=     4.0000
       N       E                     dE             d eps       ncg     rms          rms(c)
DAV:   1    -0.230937815988E+04    0.47468E-02   -0.47602E-01  4544   0.644E-01    0.196E-01
RMM:   2    -0.230938339544E+04   -0.52356E-02   -0.54051E-02  6066   0.138E-01    0.146E-01
RMM:   3    -0.230938371860E+04   -0.32317E-03   -0.48561E-03  5424   0.405E-02    0.186E-01
RMM:   4    -0.230938353018E+04    0.18842E-03   -0.59450E-04  3388   0.106E-02    0.568E-02
RMM:   5    -0.230938348742E+04    0.42758E-04   -0.10275E-04  3272   0.717E-03    0.333E-02
RMM:   6    -0.230938347780E+04    0.96182E-05   -0.73846E-05  3544   0.728E-03
  35 F= -.23297727E+04 E0= -.23297727E+04  d E =-.597486E-02  mag=     4.0000
       N       E                     dE             d eps       ncg     rms          rms(c)
DAV:   1    -0.230936576982E+04    0.17718E-01   -0.20541E+00  4400   0.131E+00    0.395E-01
RMM:   2    -0.230938758403E+04   -0.21814E-01   -0.22702E-01  6014   0.279E-01    0.242E-01
RMM:   3    -0.230938868608E+04   -0.11021E-02   -0.19430E-02  5719   0.772E-02    0.294E-01
RMM:   4    -0.230938832821E+04    0.35787E-03   -0.23595E-03  4775   0.190E-02    0.128E-01
RMM:   5    -0.230938813332E+04    0.19488E-03   -0.42696E-04  4238   0.132E-02    0.696E-02
RMM:   6    -0.230938809558E+04    0.37746E-04   -0.26136E-04  4632   0.122E-02    0.338E-02
RMM:   7    -0.230938809016E+04    0.54144E-05   -0.28306E-05  2926   0.656E-03
  36 F= -.23297771E+04 E0= -.23297771E+04  d E =-.443082E-02  mag=     4.0000
       N       E                     dE             d eps       ncg     rms          rms(c)
DAV:   1    -0.230935492773E+04    0.33168E-01   -0.30948E+00  4400   0.161E+00    0.485E-01
RMM:   2    -0.230938803140E+04   -0.33104E-01   -0.34427E-01  6051   0.342E-01    0.297E-01
RMM:   3    -0.230938947137E+04   -0.14400E-02   -0.29317E-02  5737   0.970E-02    0.353E-01
RMM:   4    -0.230938897132E+04    0.50005E-03   -0.35417E-03  5359   0.234E-02    0.159E-01
RMM:   5    -0.230938867806E+04    0.29326E-03   -0.64475E-04  4517   0.157E-02    0.889E-02
RMM:   6    -0.230938861528E+04    0.62785E-04   -0.40563E-04  5067   0.145E-02    0.462E-02
RMM:   7    -0.230938860459E+04    0.10689E-04   -0.44320E-05  3007   0.706E-03    0.131E-02
RMM:   8    -0.230938860495E+04   -0.36464E-06   -0.92038E-06  2852   0.338E-03
  37 F= -.23297774E+04 E0= -.23297774E+04  d E =-.471367E-02  mag=     4.0000
       N       E                     dE             d eps       ncg     rms          rms(c)
DAV:   1    -0.230938269209E+04    0.59125E-02   -0.58831E-01  4416   0.700E-01    0.212E-01
RMM:   2    -0.230938899893E+04   -0.63068E-02   -0.65561E-02  6090   0.151E-01    0.131E-01
RMM:   3    -0.230938925221E+04   -0.25328E-03   -0.51653E-03  5414   0.393E-02    0.159E-01
RMM:   4    -0.230938914874E+04    0.10347E-03   -0.66676E-04  3250   0.107E-02    0.688E-02
RMM:   5    -0.230938909339E+04    0.55358E-04   -0.13252E-04  3437   0.791E-03    0.413E-02
RMM:   6    -0.230938908206E+04    0.11326E-04   -0.82349E-05  3336   0.746E-03    0.259E-02
RMM:   7    -0.230938907848E+04    0.35824E-05   -0.17549E-05  2887   0.544E-03
  38 F= -.23297780E+04 E0= -.23297780E+04  d E =-.528966E-02  mag=     4.0000
       N       E                     dE             d eps       ncg     rms          rms(c)
DAV:   1    -0.230937298152E+04    0.16101E-01   -0.14734E+00  4400   0.110E+00    0.341E-01
RMM:   2    -0.230939231732E+04   -0.19336E-01   -0.20111E-01  6114   0.241E-01    0.184E-01
RMM:   3    -0.230939314425E+04   -0.82693E-03   -0.17160E-02  5534   0.658E-02    0.130E-01
RMM:   4    -0.230939327644E+04   -0.13220E-03   -0.19774E-03  4206   0.157E-02    0.166E-01
RMM:   5    -0.230939304951E+04    0.22693E-03   -0.31170E-04  3840   0.103E-02    0.582E-02
RMM:   6    -0.230939301979E+04    0.29723E-04   -0.21078E-04  4086   0.953E-03    0.196E-02
RMM:   7    -0.230939301740E+04    0.23919E-05   -0.26308E-05  2898   0.655E-03
  39 F= -.23297818E+04 E0= -.23297818E+04  d E =-.384402E-02  mag=     4.0000
       N       E                     dE             d eps       ncg     rms          rms(c)
DAV:   1    -0.230931936970E+04    0.73650E-01   -0.55919E+00  4400   0.213E+00    0.668E-01
RMM:   2    -0.230939193588E+04   -0.72566E-01   -0.75596E-01  6147   0.467E-01    0.354E-01
RMM:   3    -0.230939603637E+04   -0.41005E-02   -0.75814E-02  5661   0.138E-01    0.210E-01
RMM:   4    -0.230939625960E+04   -0.22323E-03   -0.76974E-03  4710   0.311E-02    0.215E-01
RMM:   5    -0.230939607289E+04    0.18671E-03   -0.10753E-03  4880   0.187E-02    0.192E-01
RMM:   6    -0.230939581766E+04    0.25523E-03   -0.62671E-04  4559   0.141E-02    0.445E-02
RMM:   7    -0.230939580480E+04    0.12866E-04   -0.12339E-04  3489   0.100E-02    0.167E-02
RMM:   8    -0.230939581318E+04   -0.83861E-05   -0.25890E-05  2902   0.384E-03
  40 F= -.23297844E+04 E0= -.23297844E+04  d E =-.644703E-02  mag=     4.0000
       N       E                     dE             d eps       ncg     rms          rms(c)
DAV:   1    -0.230938133080E+04    0.14474E-01   -0.11422E+00  4416   0.964E-01    0.318E-01
RMM:   2    -0.230939825533E+04   -0.16925E-01   -0.17542E-01  6238   0.221E-01    0.178E-01
RMM:   3    -0.230939949450E+04   -0.12392E-02   -0.17910E-02  5540   0.645E-02    0.166E-01
RMM:   4    -0.230939950900E+04   -0.14499E-04   -0.19271E-03  3632   0.144E-02    0.124E-01
RMM:   5    -0.230939935425E+04    0.15475E-03   -0.24553E-04  3855   0.967E-03    0.511E-02
RMM:   6    -0.230939933909E+04    0.15161E-04   -0.16062E-04  3805   0.891E-03    0.179E-02
RMM:   7    -0.230939934042E+04   -0.13250E-05   -0.24664E-05  2930   0.601E-03
  41 F= -.23297878E+04 E0= -.23297878E+04  d E =-.337790E-02  mag=     4.0000
       N       E                     dE             d eps       ncg     rms          rms(c)
DAV:   1    -0.230930745607E+04    0.91883E-01   -0.60365E+00  4400   0.222E+00    0.730E-01
RMM:   2    -0.230939716987E+04   -0.89714E-01   -0.93020E-01  6173   0.502E-01    0.415E-01
RMM:   3    -0.230940359670E+04   -0.64268E-02   -0.94349E-02  5653   0.150E-01    0.372E-01
RMM:   4    -0.230940373974E+04   -0.14304E-03   -0.99677E-03  5758   0.327E-02    0.298E-01
RMM:   5    -0.230940292613E+04    0.81361E-03   -0.12529E-03  4848   0.185E-02    0.127E-01
RMM:   6    -0.230940277695E+04    0.14919E-03   -0.10661E-03  4997   0.182E-02    0.359E-02
RMM:   7    -0.230940277785E+04   -0.90763E-06   -0.10817E-04  3354   0.105E-02    0.192E-02
RMM:   8    -0.230940278565E+04   -0.77943E-05   -0.20130E-05  2878   0.375E-03
  42 F= -.23297909E+04 E0= -.23297909E+04  d E =-.647240E-02  mag=     4.0000
       N       E                     dE             d eps       ncg     rms          rms(c)
DAV:   1    -0.230939301355E+04    0.97643E-02   -0.82734E-01  4416   0.806E-01    0.283E-01
RMM:   2    -0.230940542108E+04   -0.12408E-01   -0.12872E-01  6154   0.190E-01    0.154E-01
RMM:   3    -0.230940629366E+04   -0.87258E-03   -0.13429E-02  5434   0.584E-02    0.121E-01
RMM:   4    -0.230940636784E+04   -0.74178E-04   -0.14673E-03  3541   0.131E-02    0.124E-01
RMM:   5    -0.230940623232E+04    0.13551E-03   -0.21635E-04  3675   0.922E-03    0.466E-02
RMM:   6    -0.230940621830E+04    0.14028E-04   -0.11990E-04  3512   0.787E-03    0.189E-02
RMM:   7    -0.230940621692E+04    0.13722E-05   -0.23950E-05  2942   0.565E-03
  43 F= -.23297941E+04 E0= -.23297941E+04  d E =-.323672E-02  mag=     4.0000
       N       E                     dE             d eps       ncg     rms          rms(c)
DAV:   1    -0.230936390521E+04    0.42313E-01   -0.28108E+00  4400   0.149E+00    0.523E-01
RMM:   2    -0.230940600974E+04   -0.42105E-01   -0.43718E-01  6178   0.348E-01    0.286E-01
RMM:   3    -0.230940892799E+04   -0.29183E-02   -0.45283E-02  5589   0.108E-01    0.217E-01
RMM:   4    -0.230940921364E+04   -0.28565E-03   -0.49254E-03  5227   0.237E-02    0.237E-01
RMM:   5    -0.230940874436E+04    0.46928E-03   -0.71107E-04  4741   0.146E-02    0.885E-02
RMM:   6    -0.230940867630E+04    0.68058E-04   -0.44080E-04  4441   0.126E-02    0.308E-02
RMM:   7    -0.230940866898E+04    0.73263E-05   -0.69449E-05  3127   0.831E-03
  44 F= -.23297962E+04 E0= -.23297962E+04  d E =-.532760E-02  mag=     4.0000
       N       E                     dE             d eps       ncg     rms          rms(c)
DAV:   1    -0.230939888647E+04    0.97898E-02   -0.96786E-01  4408   0.864E-01    0.293E-01
RMM:   2    -0.230941147749E+04   -0.12591E-01   -0.13138E-01  6156   0.195E-01    0.158E-01
RMM:   3    -0.230941208136E+04   -0.60386E-03   -0.11912E-02  5472   0.561E-02    0.982E-02
RMM:   4    -0.230941215064E+04   -0.69284E-04   -0.13600E-03  3902   0.134E-02    0.116E-01
RMM:   5    -0.230941206796E+04    0.82677E-04   -0.22291E-04  3481   0.881E-03    0.729E-02
RMM:   6    -0.230941203026E+04    0.37703E-04   -0.12769E-04  3852   0.771E-03    0.190E-02
RMM:   7    -0.230941203006E+04    0.19887E-06   -0.21570E-05  2935   0.550E-03
  45 F= -.23297994E+04 E0= -.23297994E+04  d E =-.321888E-02  mag=     4.0000
       N       E                     dE             d eps       ncg     rms          rms(c)
DAV:   1    -0.230932559250E+04    0.86438E-01   -0.66333E+00  4400   0.226E+00    0.760E-01
RMM:   2    -0.230941150684E+04   -0.85914E-01   -0.89523E-01  6129   0.504E-01    0.413E-01
RMM:   3    -0.230941603701E+04   -0.45302E-02   -0.86432E-02  5669   0.153E-01    0.253E-01
RMM:   4    -0.230941635592E+04   -0.31892E-03   -0.92419E-03  5323   0.342E-02    0.269E-01
RMM:   5    -0.230941602418E+04    0.33174E-03   -0.14520E-03  5061   0.200E-02    0.222E-01
RMM:   6    -0.230941564059E+04    0.38360E-03   -0.91568E-04  4787   0.167E-02    0.459E-02
RMM:   7    -0.230941563411E+04    0.64752E-05   -0.13975E-04  3511   0.109E-02    0.305E-02
RMM:   8    -0.230941563309E+04    0.10211E-05   -0.23428E-05  2869   0.348E-03
  46 F= -.23298027E+04 E0= -.23298027E+04  d E =-.644308E-02  mag=     4.0000
       N       E                     dE             d eps       ncg     rms          rms(c)
DAV:   1    -0.230940351064E+04    0.12123E-01   -0.12277E+00  4416   0.930E-01    0.308E-01
RMM:   2    -0.230941877779E+04   -0.15267E-01   -0.15904E-01  6276   0.208E-01    0.179E-01
RMM:   3    -0.230941954595E+04   -0.76816E-03   -0.14330E-02  5532   0.578E-02    0.146E-01
RMM:   4    -0.230941960278E+04   -0.56833E-04   -0.16811E-03  3548   0.137E-02    0.132E-01
RMM:   5    -0.230941944835E+04    0.15442E-03   -0.27613E-04  3666   0.958E-03    0.640E-02
RMM:   6    -0.230941942144E+04    0.26911E-04   -0.18442E-04  3898   0.906E-03    0.237E-02
RMM:   7    -0.230941942065E+04    0.79791E-06   -0.23493E-05  2921   0.568E-03
  47 F= -.23298064E+04 E0= -.23298064E+04  d E =-.371677E-02  mag=     4.0000
       N       E                     dE             d eps       ncg     rms          rms(c)
DAV:   1    -0.230928091382E+04    0.13851E+00   -0.11026E+01  4400   0.279E+00    0.926E-01
RMM:   2    -0.230941891749E+04   -0.13800E+00   -0.14402E+00  6223   0.615E-01    0.537E-01
RMM:   3    -0.230942557106E+04   -0.66536E-02   -0.13832E-01  5765   0.181E-01    0.422E-01
RMM:   4    -0.230942621715E+04   -0.64609E-03   -0.15344E-02  5893   0.402E-02    0.416E-01
RMM:   5    -0.230942482530E+04    0.13919E-02   -0.24117E-03  5171   0.233E-02    0.206E-01
RMM:   6    -0.230942445835E+04    0.36694E-03   -0.19205E-03  5078   0.229E-02    0.541E-02
RMM:   7    -0.230942445512E+04    0.32364E-05   -0.22086E-04  3645   0.140E-02    0.400E-02
RMM:   8    -0.230942445497E+04    0.14962E-06   -0.40735E-05  2931   0.414E-03
  48 F= -.23298112E+04 E0= -.23298112E+04  d E =-.852476E-02  mag=     4.0000
       N       E                     dE             d eps       ncg     rms          rms(c)
DAV:   1    -0.230939695520E+04    0.27500E-01   -0.23214E+00  4400   0.133E+00    0.462E-01
RMM:   2    -0.230942778712E+04   -0.30832E-01   -0.32330E-01  6084   0.298E-01    0.245E-01
RMM:   3    -0.230942943637E+04   -0.16493E-02   -0.32011E-02  5570   0.906E-02    0.142E-01
RMM:   4    -0.230942941913E+04    0.17241E-04   -0.33414E-03  4493   0.215E-02    0.894E-02
RMM:   5    -0.230942936454E+04    0.54589E-04   -0.50957E-04  4382   0.153E-02    0.697E-02
RMM:   6    -0.230942936513E+04   -0.59168E-06   -0.15433E-04  3386   0.812E-03    0.680E-02
RMM:   7    -0.230942933760E+04    0.27535E-04   -0.49359E-05  3030   0.556E-03    0.140E-02
RMM:   8    -0.230942934182E+04   -0.42258E-05   -0.99425E-06  2852   0.289E-03
  49 F= -.23298161E+04 E0= -.23298161E+04  d E =-.488786E-02  mag=     4.0000
       N       E                     dE             d eps       ncg     rms          rms(c)
DAV:   1    -0.230941356703E+04    0.15771E-01   -0.12241E+00  4416   0.966E-01    0.336E-01
RMM:   2    -0.230942980593E+04   -0.16239E-01   -0.17030E-01  6075   0.217E-01    0.177E-01
RMM:   3    -0.230943066245E+04   -0.85652E-03   -0.16729E-02  5479   0.644E-02    0.104E-01
RMM:   4    -0.230943066964E+04   -0.71946E-05   -0.18239E-03  4352   0.160E-02    0.810E-02
RMM:   5    -0.230943070403E+04   -0.34389E-04   -0.29543E-04  3688   0.105E-02    0.124E-01
RMM:   6    -0.230943060350E+04    0.10053E-03   -0.14907E-04  3445   0.771E-03    0.221E-02
RMM:   7    -0.230943060276E+04    0.74136E-06   -0.33516E-05  2992   0.552E-03
  50 F= -.23298173E+04 E0= -.23298173E+04  d E =-.614688E-02  mag=     4.0000
       N       E                     dE             d eps       ncg     rms          rms(c)
DAV:   1    -0.230941613524E+04    0.14468E-01   -0.11086E+00  4408   0.950E-01    0.328E-01
RMM:   2    -0.230943290300E+04   -0.16768E-01   -0.17452E-01  6092   0.216E-01    0.203E-01
RMM:   3    -0.230943420632E+04   -0.13033E-02   -0.18177E-02  5498   0.663E-02    0.203E-01
RMM:   4    -0.230943411237E+04    0.93945E-04   -0.19809E-03  3979   0.155E-02    0.123E-01
RMM:   5    -0.230943394696E+04    0.16541E-03   -0.31188E-04  4080   0.108E-02    0.555E-02
RMM:   6    -0.230943392229E+04    0.24669E-04   -0.18024E-04  3962   0.946E-03    0.259E-02
RMM:   7    -0.230943391977E+04    0.25205E-05   -0.28624E-05  2962   0.636E-03
  51 F= -.23298207E+04 E0= -.23298207E+04  d E =-.338511E-02  mag=     4.0000
       N       E                     dE             d eps       ncg     rms          rms(c)
DAV:   1    -0.230941633288E+04    0.17589E-01   -0.11649E+00  4400   0.974E-01    0.336E-01
RMM:   2    -0.230943398684E+04   -0.17654E-01   -0.18362E-01  6085   0.222E-01    0.215E-01
RMM:   3    -0.230943539475E+04   -0.14079E-02   -0.19208E-02  5531   0.698E-02    0.227E-01
RMM:   4    -0.230943523099E+04    0.16376E-03   -0.20943E-03  4149   0.162E-02    0.122E-01
RMM:   5    -0.230943505838E+04    0.17261E-03   -0.32599E-04  4163   0.110E-02    0.554E-02
RMM:   6    -0.230943503148E+04    0.26899E-04   -0.18335E-04  3984   0.971E-03    0.239E-02
RMM:   7    -0.230943502977E+04    0.17073E-05   -0.28387E-05  2942   0.646E-03
  52 F= -.23298219E+04 E0= -.23298219E+04  d E =-.456480E-02  mag=     4.0000
       N       E                     dE             d eps       ncg     rms          rms(c)
DAV:   1    -0.230941263078E+04    0.22401E-01   -0.16188E+00  4400   0.118E+00    0.394E-01
RMM:   2    -0.230943677711E+04   -0.24146E-01   -0.25078E-01  6088   0.262E-01    0.255E-01
RMM:   3    -0.230943878391E+04   -0.20068E-02   -0.26841E-02  5559   0.825E-02    0.268E-01
RMM:   4    -0.230943854048E+04    0.24343E-03   -0.28362E-03  4664   0.188E-02    0.139E-01
RMM:   5    -0.230943832663E+04    0.21385E-03   -0.38392E-04  4216   0.115E-02    0.656E-02
RMM:   6    -0.230943828875E+04    0.37883E-04   -0.28511E-04  4332   0.110E-02    0.320E-02
RMM:   7    -0.230943828565E+04    0.30932E-05   -0.38840E-05  2987   0.737E-03
  53 F= -.23298252E+04 E0= -.23298252E+04  d E =-.324851E-02  mag=     4.0000
       N       E                     dE             d eps       ncg     rms          rms(c)
DAV:   1    -0.230941537065E+04    0.22918E-01   -0.15053E+00  4416   0.113E+00    0.380E-01
RMM:   2    -0.230943783218E+04   -0.22462E-01   -0.23338E-01  6046   0.252E-01    0.245E-01
RMM:   3    -0.230943969421E+04   -0.18620E-02   -0.24945E-02  5559   0.788E-02    0.257E-01
RMM:   4    -0.230943947276E+04    0.22145E-03   -0.26363E-03  4550   0.181E-02    0.134E-01
RMM:   5    -0.230943927372E+04    0.19904E-03   -0.35680E-04  4153   0.112E-02    0.636E-02
RMM:   6    -0.230943923923E+04    0.34498E-04   -0.26549E-04  4283   0.107E-02    0.316E-02
RMM:   7    -0.230943923639E+04    0.28369E-05   -0.36952E-05  2981   0.734E-03
  54 F= -.23298261E+04 E0= -.23298261E+04  d E =-.419070E-02  mag=     4.0000
       N       E                     dE             d eps       ncg     rms          rms(c)
DAV:   1    -0.230941908419E+04    0.20155E-01   -0.15598E+00  4400   0.114E+00    0.368E-01
RMM:   2    -0.230944097385E+04   -0.21890E-01   -0.22898E-01  6096   0.250E-01    0.229E-01
RMM:   3    -0.230944257537E+04   -0.16015E-02   -0.24189E-02  5552   0.777E-02    0.212E-01
RMM:   4    -0.230944251630E+04    0.59062E-04   -0.25036E-03  4337   0.175E-02    0.145E-01
RMM:   5    -0.230944231106E+04    0.20524E-03   -0.33877E-04  3963   0.111E-02    0.661E-02
RMM:   6    -0.230944227377E+04    0.37284E-04   -0.29809E-04  4364   0.110E-02    0.353E-02
RMM:   7    -0.230944226900E+04    0.47710E-05   -0.43387E-05  2949   0.786E-03
  55 F= -.23298291E+04 E0= -.23298291E+04  d E =-.297297E-02  mag=     4.0000
       N       E                     dE             d eps       ncg     rms          rms(c)
DAV:   1    -0.230941084373E+04    0.31430E-01   -0.21914E+00  4400   0.135E+00    0.437E-01
RMM:   2    -0.230944156893E+04   -0.30725E-01   -0.32134E-01  6072   0.296E-01    0.273E-01
RMM:   3    -0.230944381154E+04   -0.22426E-02   -0.34126E-02  5600   0.927E-02    0.251E-01
RMM:   4    -0.230944373298E+04    0.78553E-04   -0.35154E-03  4936   0.206E-02    0.174E-01
RMM:   5    -0.230944344360E+04    0.28938E-03   -0.48458E-04  4257   0.125E-02    0.794E-02
RMM:   6    -0.230944338322E+04    0.60383E-04   -0.42625E-04  4697   0.126E-02    0.427E-02
RMM:   7    -0.230944337502E+04    0.81992E-05   -0.60493E-05  3008   0.852E-03
  56 F= -.23298301E+04 E0= -.23298301E+04  d E =-.400660E-02  mag=     4.0000
       N       E                     dE             d eps       ncg     rms          rms(c)
DAV:   1    -0.230941649912E+04    0.26884E-01   -0.23039E+00  4400   0.135E+00    0.429E-01
RMM:   2    -0.230944528989E+04   -0.28791E-01   -0.30186E-01  6067   0.291E-01    0.272E-01
RMM:   3    -0.230944731959E+04   -0.20297E-02   -0.32237E-02  5612   0.896E-02    0.254E-01
RMM:   4    -0.230944720597E+04    0.11363E-03   -0.33142E-03  4889   0.204E-02    0.172E-01
RMM:   5    -0.230944692873E+04    0.27723E-03   -0.49202E-04  4154   0.125E-02    0.777E-02
RMM:   6    -0.230944688743E+04    0.41302E-04   -0.41941E-04  4650   0.124E-02    0.451E-02
RMM:   7    -0.230944687952E+04    0.79077E-05   -0.56253E-05  3022   0.824E-03
  57 F= -.23298336E+04 E0= -.23298336E+04  d E =-.352327E-02  mag=     4.0000
       N       E                     dE             d eps       ncg     rms          rms(c)
DAV:   1    -0.230940904672E+04    0.37841E-01   -0.29532E+00  4400   0.153E+00    0.486E-01
RMM:   2    -0.230944625420E+04   -0.37207E-01   -0.38983E-01  6081   0.330E-01    0.309E-01
RMM:   3    -0.230944858168E+04   -0.23275E-02   -0.41397E-02  5638   0.101E-01    0.285E-01
RMM:   4    -0.230944844924E+04    0.13245E-03   -0.42369E-03  5198   0.231E-02    0.196E-01
RMM:   5    -0.230944809568E+04    0.35355E-03   -0.63987E-04  4335   0.138E-02    0.897E-02
RMM:   6    -0.230944803581E+04    0.59876E-04   -0.54747E-04  4863   0.138E-02    0.533E-02
RMM:   7    -0.230944802301E+04    0.12793E-04   -0.74947E-05  3078   0.910E-03    0.148E-02
RMM:   8    -0.230944802557E+04   -0.25564E-05   -0.13633E-05  2860   0.312E-03
  58 F= -.23298348E+04 E0= -.23298348E+04  d E =-.468818E-02  mag=     4.0000
       N       E                     dE             d eps       ncg     rms          rms(c)
DAV:   1    -0.230942672120E+04    0.21302E-01   -0.17649E+00  4408   0.117E+00    0.381E-01
RMM:   2    -0.230945001800E+04   -0.23297E-01   -0.24228E-01  6085   0.257E-01    0.265E-01
RMM:   3    -0.230945159722E+04   -0.15792E-02   -0.25899E-02  5609   0.782E-02    0.274E-01
RMM:   4    -0.230945129953E+04    0.29769E-03   -0.26720E-03  4598   0.186E-02    0.139E-01
RMM:   5    -0.230945109426E+04    0.20527E-03   -0.39548E-04  3977   0.115E-02    0.665E-02
RMM:   6    -0.230945106322E+04    0.31039E-04   -0.32923E-04  4366   0.113E-02    0.388E-02
RMM:   7    -0.230945105791E+04    0.53097E-05   -0.44055E-05  2933   0.746E-03
  59 F= -.23298378E+04 E0= -.23298378E+04  d E =-.302370E-02  mag=     4.0000
       N       E                     dE             d eps       ncg     rms          rms(c)
DAV:   1    -0.230940339901E+04    0.47664E-01   -0.35463E+00  4400   0.166E+00    0.544E-01
RMM:   2    -0.230945036613E+04   -0.46967E-01   -0.48793E-01  6078   0.365E-01    0.401E-01
RMM:   3    -0.230945356409E+04   -0.31980E-02   -0.52824E-02  5706   0.113E-01    0.411E-01
RMM:   4    -0.230945284357E+04    0.72052E-03   -0.54346E-03  5509   0.267E-02    0.195E-01
RMM:   5    -0.230945244915E+04    0.39443E-03   -0.79493E-04  4381   0.150E-02    0.967E-02
RMM:   6    -0.230945237614E+04    0.73010E-04   -0.70262E-04  5015   0.153E-02    0.572E-02
RMM:   7    -0.230945236099E+04    0.15150E-04   -0.87115E-05  3103   0.915E-03    0.183E-02
RMM:   8    -0.230945236287E+04   -0.18859E-05   -0.15106E-05  2856   0.354E-03
  60 F= -.23298391E+04 E0= -.23298391E+04  d E =-.431697E-02  mag=     4.0000
       N       E                     dE             d eps       ncg     rms          rms(c)
DAV:   1    -0.230942527158E+04    0.27089E-01   -0.18021E+00  4400   0.118E+00    0.418E-01
RMM:   2    -0.230945399711E+04   -0.28726E-01   -0.29412E-01  6144   0.274E-01    0.373E-01
RMM:   3    -0.230945639719E+04   -0.24001E-02   -0.33323E-02  5697   0.860E-02    0.363E-01
RMM:   4    -0.230945570240E+04    0.69478E-03   -0.33934E-03  4984   0.210E-02    0.130E-01
RMM:   5    -0.230945549829E+04    0.20411E-03   -0.45136E-04  4062   0.117E-02    0.693E-02
RMM:   6    -0.230945545745E+04    0.40846E-04   -0.34641E-04  4429   0.117E-02    0.381E-02
RMM:   7    -0.230945545308E+04    0.43721E-05   -0.37725E-05  2950   0.701E-03
  61 F= -.23298421E+04 E0= -.23298421E+04  d E =-.302001E-02  mag=     4.0000
       N       E                     dE             d eps       ncg     rms          rms(c)
DAV:   1    -0.230942214337E+04    0.33314E-01   -0.20520E+00  4400   0.126E+00    0.448E-01
RMM:   2    -0.230945485076E+04   -0.32707E-01   -0.33503E-01  6129   0.292E-01    0.402E-01
RMM:   3    -0.230945759175E+04   -0.27410E-02   -0.38084E-02  5696   0.929E-02    0.391E-01
RMM:   4    -0.230945679456E+04    0.79718E-03   -0.38785E-03  5141   0.225E-02    0.139E-01
RMM:   5    -0.230945656854E+04    0.22602E-03   -0.51019E-04  4164   0.123E-02    0.743E-02
RMM:   6    -0.230945652118E+04    0.47365E-04   -0.38024E-04  4538   0.123E-02    0.414E-02
RMM:   7    -0.230945651650E+04    0.46757E-05   -0.45095E-05  2974   0.745E-03
  62 F= -.23298431E+04 E0= -.23298431E+04  d E =-.401165E-02  mag=     4.0000
       N       E                     dE             d eps       ncg     rms          rms(c)
DAV:   1    -0.230943371710E+04    0.22804E-01   -0.13842E+00  4400   0.104E+00    0.398E-01
RMM:   2    -0.230945777355E+04   -0.24056E-01   -0.24618E-01  6094   0.249E-01    0.365E-01
RMM:   3    -0.230946001093E+04   -0.22374E-02   -0.30094E-02  5666   0.827E-02    0.354E-01
RMM:   4    -0.230945931961E+04    0.69132E-03   -0.30084E-03  4915   0.200E-02    0.115E-01
RMM:   5    -0.230945915093E+04    0.16869E-03   -0.37894E-04  4100   0.111E-02    0.614E-02
RMM:   6    -0.230945911420E+04    0.36725E-04   -0.27506E-04  4324   0.109E-02    0.339E-02
RMM:   7    -0.230945911174E+04    0.24572E-05   -0.34024E-05  2942   0.707E-03
  63 F= -.23298458E+04 E0= -.23298458E+04  d E =-.265831E-02  mag=     4.0000
       N       E                     dE             d eps       ncg     rms          rms(c)
DAV:   1    -0.230944347114E+04    0.15643E-01   -0.86080E-01  4448   0.820E-01    0.314E-01
RMM:   2    -0.230945841636E+04   -0.14945E-01   -0.15299E-01  6079   0.196E-01    0.287E-01
RMM:   3    -0.230945981349E+04   -0.13971E-02   -0.18640E-02  5560   0.659E-02    0.281E-01
RMM:   4    -0.230945937179E+04    0.44169E-03   -0.18749E-03  4218   0.159E-02    0.908E-02
RMM:   5    -0.230945926444E+04    0.10735E-03   -0.24065E-04  3729   0.929E-03    0.481E-02
RMM:   6    -0.230945924146E+04    0.22981E-04   -0.16755E-04  4059   0.914E-03    0.264E-02
RMM:   7    -0.230945924099E+04    0.46429E-06   -0.21967E-05  2905   0.604E-03
  64 F= -.23298460E+04 E0= -.23298460E+04  d E =-.283899E-02  mag=     4.0000
       N       E                     dE             d eps       ncg     rms          rms(c)
DAV:   1    -0.230945748338E+04    0.17581E-02   -0.10501E-01  4576   0.286E-01    0.108E-01
RMM:   2    -0.230945928621E+04   -0.18028E-02   -0.18478E-02  6079   0.688E-02    0.902E-02
RMM:   3    -0.230945947031E+04   -0.18410E-03   -0.22544E-03  3515   0.221E-02    0.988E-02
RMM:   4    -0.230945941145E+04    0.58869E-04   -0.22216E-04  2929   0.659E-03    0.318E-02
RMM:   5    -0.230945939816E+04    0.13287E-04   -0.37624E-05  2889   0.412E-03    0.160E-02
RMM:   6    -0.230945939577E+04    0.23859E-05   -0.18260E-05  2872   0.376E-03
  65 F= -.23298461E+04 E0= -.23298461E+04  d E =-.297567E-02  mag=     4.0000
       N       E                     dE             d eps       ncg     rms          rms(c)
DAV:   1    -0.230943266100E+04    0.26737E-01   -0.17031E+00  4400   0.114E+00    0.414E-01
RMM:   2    -0.230946037400E+04   -0.27713E-01   -0.28488E-01  6174   0.265E-01    0.353E-01
RMM:   3    -0.230946300425E+04   -0.26303E-02   -0.35051E-02  5698   0.852E-02    0.349E-01
RMM:   4    -0.230946237753E+04    0.62672E-03   -0.34397E-03  4825   0.204E-02    0.133E-01
RMM:   5    -0.230946216669E+04    0.21084E-03   -0.41354E-04  4043   0.112E-02    0.690E-02
RMM:   6    -0.230946211679E+04    0.49903E-04   -0.34156E-04  4374   0.116E-02    0.402E-02
RMM:   7    -0.230946211085E+04    0.59312E-05   -0.44402E-05  2990   0.747E-03
  66 F= -.23298489E+04 E0= -.23298489E+04  d E =-.282487E-02  mag=     4.0000
       N       E                     dE             d eps       ncg     rms          rms(c)
DAV:   1    -0.230939249110E+04    0.69626E-01   -0.40057E+00  4400   0.174E+00    0.640E-01
RMM:   2    -0.230945808497E+04   -0.65594E-01   -0.67327E-01  6143   0.404E-01    0.573E-01
RMM:   3    -0.230946407291E+04   -0.59879E-02   -0.83555E-02  5748   0.133E-01    0.538E-01
RMM:   4    -0.230946262771E+04    0.14452E-02   -0.81345E-03  5609   0.315E-02    0.205E-01
RMM:   5    -0.230946215662E+04    0.47109E-03   -0.95495E-04  4568   0.161E-02    0.110E-01
RMM:   6    -0.230946204020E+04    0.11642E-03   -0.87251E-04  5005   0.167E-02    0.662E-02
RMM:   7    -0.230946202948E+04    0.10713E-04   -0.10976E-04  3267   0.102E-02    0.249E-02
RMM:   8    -0.230946203456E+04   -0.50741E-05   -0.16805E-05  2861   0.375E-03
  67 F= -.23298490E+04 E0= -.23298490E+04  d E =-.292428E-02  mag=     4.0000
       N       E                     dE             d eps       ncg     rms          rms(c)
DAV:   1    -0.230944931213E+04    0.12717E-01   -0.77534E-01  4400   0.766E-01    0.278E-01
RMM:   2    -0.230946187509E+04   -0.12563E-01   -0.13008E-01  6162   0.180E-01    0.213E-01
RMM:   3    -0.230946318165E+04   -0.13066E-02   -0.15731E-02  5414   0.564E-02    0.248E-01
RMM:   4    -0.230946282421E+04    0.35744E-03   -0.15608E-03  3644   0.140E-02    0.884E-02
RMM:   5    -0.230946272761E+04    0.96604E-04   -0.21226E-04  3510   0.860E-03    0.468E-02
RMM:   6    -0.230946269986E+04    0.27750E-04   -0.13164E-04  3549   0.780E-03    0.191E-02
RMM:   7    -0.230946269988E+04   -0.20547E-07   -0.30639E-05  2974   0.616E-03
  68 F= -.23298496E+04 E0= -.23298496E+04  d E =-.351117E-02  mag=     4.0000
       N       E                     dE             d eps       ncg     rms          rms(c)
DAV:   1    -0.230944326820E+04    0.19432E-01   -0.14271E+00  4400   0.103E+00    0.357E-01
RMM:   2    -0.230946409539E+04   -0.20827E-01   -0.21563E-01  6087   0.230E-01    0.279E-01
RMM:   3    -0.230946590208E+04   -0.18067E-02   -0.25777E-02  5627   0.718E-02    0.282E-01
RMM:   4    -0.230946552139E+04    0.38069E-03   -0.25548E-03  4245   0.173E-02    0.124E-01
RMM:   5    -0.230946534702E+04    0.17437E-03   -0.31736E-04  3715   0.101E-02    0.613E-02
RMM:   6    -0.230946530550E+04    0.41527E-04   -0.28096E-04  4293   0.106E-02    0.351E-02
RMM:   7    -0.230946529931E+04    0.61850E-05   -0.37459E-05  2946   0.703E-03
  69 F= -.23298523E+04 E0= -.23298523E+04  d E =-.265716E-02  mag=     4.0000
       N       E                     dE             d eps       ncg     rms          rms(c)
DAV:   1    -0.230941587601E+04    0.49429E-01   -0.32456E+00  4400   0.155E+00    0.544E-01
RMM:   2    -0.230946350805E+04   -0.47632E-01   -0.49309E-01  6133   0.348E-01    0.441E-01
RMM:   3    -0.230946756415E+04   -0.40561E-02   -0.59603E-02  5731   0.112E-01    0.427E-01
RMM:   4    -0.230946672653E+04    0.83762E-03   -0.58706E-03  5365   0.263E-02    0.188E-01
RMM:   5    -0.230946635251E+04    0.37402E-03   -0.72066E-04  4289   0.140E-02    0.969E-02
RMM:   6    -0.230946626180E+04    0.90711E-04   -0.68776E-04  4927   0.148E-02    0.633E-02
RMM:   7    -0.230946623986E+04    0.21937E-04   -0.96098E-05  3150   0.952E-03    0.210E-02
RMM:   8    -0.230946623960E+04    0.25975E-06   -0.14358E-05  2851   0.349E-03
  70 F= -.23298533E+04 E0= -.23298533E+04  d E =-.369055E-02  mag=     4.0000
       N       E                     dE             d eps       ncg     rms          rms(c)
DAV:   1    -0.230943569788E+04    0.30542E-01   -0.20811E+00  4400   0.123E+00    0.437E-01
RMM:   2    -0.230946658708E+04   -0.30889E-01   -0.32012E-01  6125   0.280E-01    0.341E-01
RMM:   3    -0.230946925055E+04   -0.26635E-02   -0.38335E-02  5682   0.892E-02    0.337E-01
RMM:   4    -0.230946873217E+04    0.51838E-03   -0.38046E-03  4865   0.211E-02    0.151E-01
RMM:   5    -0.230946848673E+04    0.24544E-03   -0.46954E-04  3967   0.117E-02    0.764E-02
RMM:   6    -0.230946843503E+04    0.51707E-04   -0.43894E-04  4535   0.123E-02    0.495E-02
RMM:   7    -0.230946842394E+04    0.11089E-04   -0.58490E-05  3017   0.802E-03    0.154E-02
RMM:   8    -0.230946842524E+04   -0.13066E-05   -0.91584E-06  2846   0.298E-03
  71 F= -.23298557E+04 E0= -.23298557E+04  d E =-.237466E-02  mag=     4.0000
       N       E                     dE             d eps       ncg     rms          rms(c)
DAV:   1    -0.230945713297E+04    0.11291E-01   -0.73526E-01  4448   0.732E-01    0.259E-01
RMM:   2    -0.230946803571E+04   -0.10903E-01   -0.11317E-01  6132   0.167E-01    0.193E-01
RMM:   3    -0.230946898023E+04   -0.94452E-03   -0.13300E-02  5342   0.517E-02    0.198E-01
RMM:   4    -0.230946879782E+04    0.18241E-03   -0.13382E-03  3476   0.127E-02    0.891E-02
RMM:   5    -0.230946870875E+04    0.89064E-04   -0.17018E-04  3241   0.783E-03    0.438E-02
RMM:   6    -0.230946869226E+04    0.16493E-04   -0.14525E-04  3720   0.810E-03    0.262E-02
RMM:   7    -0.230946869004E+04    0.22223E-05   -0.20697E-05  2890   0.576E-03
  72 F= -.23298561E+04 E0= -.23298561E+04  d E =-.275398E-02  mag=     4.0000
       N       E                     dE             d eps       ncg     rms          rms(c)
DAV:   1    -0.230946005138E+04    0.86409E-02   -0.66562E-01  4408   0.747E-01    0.276E-01
RMM:   2    -0.230947037835E+04   -0.10327E-01   -0.10637E-01  6015   0.171E-01    0.241E-01
RMM:   3    -0.230947127076E+04   -0.89241E-03   -0.12373E-02  5459   0.568E-02    0.249E-01
RMM:   4    -0.230947089748E+04    0.37328E-03   -0.12991E-03  4159   0.143E-02    0.798E-02
RMM:   5    -0.230947081459E+04    0.82888E-04   -0.18793E-04  3714   0.913E-03    0.392E-02
RMM:   6    -0.230947080002E+04    0.14564E-04   -0.11793E-04  3932   0.866E-03    0.195E-02
RMM:   7    -0.230947080067E+04   -0.65073E-06   -0.14692E-05  2859   0.561E-03
  73 F= -.23298583E+04 E0= -.23298583E+04  d E =-.224172E-02  mag=     4.0000
       N       E                     dE             d eps       ncg     rms          rms(c)
DAV:   1    -0.230946359432E+04    0.72057E-02   -0.47173E-01  4416   0.628E-01    0.232E-01
RMM:   2    -0.230947090711E+04   -0.73128E-02   -0.75422E-02  6000   0.144E-01    0.198E-01
RMM:   3    -0.230947155057E+04   -0.64346E-03   -0.87533E-03  5325   0.492E-02    0.209E-01
RMM:   4    -0.230947128513E+04    0.26544E-03   -0.90807E-04  3641   0.123E-02    0.675E-02
RMM:   5    -0.230947122597E+04    0.59159E-04   -0.14712E-04  3391   0.803E-03    0.330E-02
RMM:   6    -0.230947121570E+04    0.10267E-04   -0.84579E-05  3564   0.774E-03    0.161E-02
RMM:   7    -0.230947121655E+04   -0.84555E-06   -0.11745E-05  2852   0.524E-03
  74 F= -.23298588E+04 E0= -.23298588E+04  d E =-.276810E-02  mag=     4.0000
       N       E                     dE             d eps       ncg     rms          rms(c)
DAV:   1    -0.230946427739E+04    0.69383E-02   -0.56179E-01  4400   0.690E-01    0.246E-01
RMM:   2    -0.230947281719E+04   -0.85398E-02   -0.87267E-02  6048   0.153E-01    0.236E-01
RMM:   3    -0.230947348754E+04   -0.67035E-03   -0.10061E-02  5397   0.508E-02    0.223E-01
RMM:   4    -0.230947318410E+04    0.30343E-03   -0.10498E-03  3768   0.128E-02    0.692E-02
RMM:   5    -0.230947312105E+04    0.63049E-04   -0.15000E-04  3431   0.801E-03    0.355E-02
RMM:   6    -0.230947311154E+04    0.95138E-05   -0.95316E-05  3651   0.791E-03
  75 F= -.23298607E+04 E0= -.23298607E+04  d E =-.190014E-02  mag=     4.0000
       N       E                     dE             d eps       ncg     rms          rms(c)
DAV:   1    -0.230944640091E+04    0.26720E-01   -0.17712E+00  4400   0.122E+00    0.438E-01
RMM:   2    -0.230947339403E+04   -0.26993E-01   -0.27530E-01  5952   0.271E-01    0.426E-01
RMM:   3    -0.230947535007E+04   -0.19560E-02   -0.32450E-02  5659   0.867E-02    0.391E-01
RMM:   4    -0.230947444113E+04    0.90895E-03   -0.33148E-03  5172   0.219E-02    0.124E-01
RMM:   5    -0.230947424786E+04    0.19327E-03   -0.47211E-04  4330   0.125E-02    0.640E-02
RMM:   6    -0.230947421334E+04    0.34521E-04   -0.29826E-04  4480   0.120E-02    0.278E-02
RMM:   7    -0.230947421510E+04   -0.17583E-05   -0.27313E-05  2907   0.722E-03
  76 F= -.23298618E+04 E0= -.23298618E+04  d E =-.301348E-02  mag=     4.0000
       N       E                     dE             d eps       ncg     rms          rms(c)
DAV:   1    -0.230946109057E+04    0.13123E-01   -0.10123E+00  4400   0.897E-01    0.313E-01
RMM:   2    -0.230947571691E+04   -0.14626E-01   -0.15050E-01  6015   0.198E-01    0.285E-01
RMM:   3    -0.230947681463E+04   -0.10977E-02   -0.17285E-02  5584   0.628E-02    0.275E-01
RMM:   4    -0.230947637925E+04    0.43538E-03   -0.18091E-03  4488   0.161E-02    0.964E-02
RMM:   5    -0.230947626317E+04    0.11608E-03   -0.26652E-04  3818   0.101E-02    0.479E-02
RMM:   6    -0.230947624859E+04    0.14575E-04   -0.17654E-04  4069   0.975E-03    0.250E-02
RMM:   7    -0.230947624875E+04   -0.15943E-06   -0.20143E-05  2874   0.588E-03
  77 F= -.23298639E+04 E0= -.23298639E+04  d E =-.204828E-02  mag=     4.0000
       N       E                     dE             d eps       ncg     rms          rms(c)
DAV:   1    -0.230946379590E+04    0.12453E-01   -0.84653E-01  4408   0.821E-01    0.286E-01
RMM:   2    -0.230947603351E+04   -0.12238E-01   -0.12589E-01  6024   0.181E-01    0.262E-01
RMM:   3    -0.230947695012E+04   -0.91661E-03   -0.14430E-02  5530   0.594E-02    0.253E-01
RMM:   4    -0.230947657505E+04    0.37508E-03   -0.15111E-03  4210   0.149E-02    0.881E-02
RMM:   5    -0.230947647706E+04    0.97991E-04   -0.21982E-04  3699   0.954E-03    0.435E-02
RMM:   6    -0.230947646413E+04    0.12921E-04   -0.14914E-04  3958   0.921E-03    0.217E-02
RMM:   7    -0.230947646385E+04    0.28283E-06   -0.16231E-05  2857   0.554E-03
  78 F= -.23298641E+04 E0= -.23298641E+04  d E =-.227827E-02  mag=     4.0000
       N       E                     dE             d eps       ncg     rms          rms(c)
DAV:   1    -0.230946124430E+04    0.15220E-01   -0.11234E+00  4400   0.934E-01    0.323E-01
RMM:   2    -0.230947725435E+04   -0.16010E-01   -0.16627E-01  6057   0.204E-01    0.256E-01
RMM:   3    -0.230947856121E+04   -0.13069E-02   -0.19095E-02  5572   0.666E-02    0.267E-01
RMM:   4    -0.230947817834E+04    0.38287E-03   -0.19953E-03  4256   0.163E-02    0.107E-01
RMM:   5    -0.230947805028E+04    0.12805E-03   -0.24937E-04  3664   0.977E-03    0.515E-02
RMM:   6    -0.230947803336E+04    0.16922E-04   -0.20471E-04  4130   0.982E-03    0.296E-02
RMM:   7    -0.230947803193E+04    0.14337E-05   -0.22603E-05  2886   0.625E-03
  79 F= -.23298658E+04 E0= -.23298658E+04  d E =-.170711E-02  mag=     4.0000
       N       E                     dE             d eps       ncg     rms          rms(c)
DAV:   1    -0.230944813416E+04    0.29899E-01   -0.19821E+00  4400   0.124E+00    0.431E-01
RMM:   2    -0.230947644973E+04   -0.28316E-01   -0.29372E-01  6032   0.271E-01    0.349E-01
RMM:   3    -0.230947870563E+04   -0.22559E-02   -0.34043E-02  5691   0.878E-02    0.352E-01
RMM:   4    -0.230947805222E+04    0.65341E-03   -0.35214E-03  5144   0.214E-02    0.142E-01
RMM:   5    -0.230947782811E+04    0.22411E-03   -0.45511E-04  4088   0.120E-02    0.700E-02
RMM:   6    -0.230947779466E+04    0.33447E-04   -0.37521E-04  4515   0.122E-02    0.420E-02
RMM:   7    -0.230947779169E+04    0.29693E-05   -0.40846E-05  2961   0.754E-03
  80 F= -.23298658E+04 E0= -.23298658E+04  d E =-.165385E-02  mag=     4.0000
       N       E                     dE             d eps       ncg     rms          rms(c)
DAV:   1    -0.230947161101E+04    0.61837E-02   -0.44487E-01  4432   0.588E-01    0.200E-01
RMM:   2    -0.230947786797E+04   -0.62570E-02   -0.65245E-02  6018   0.129E-01    0.137E-01
RMM:   3    -0.230947844324E+04   -0.57528E-03   -0.76557E-03  5026   0.410E-02    0.163E-01
RMM:   4    -0.230947829035E+04    0.15289E-03   -0.77298E-04  3235   0.104E-02    0.673E-02
RMM:   5    -0.230947823720E+04    0.53157E-04   -0.11621E-04  3203   0.704E-03    0.318E-02
RMM:   6    -0.230947822547E+04    0.11726E-04   -0.70179E-05  3128   0.644E-03    0.103E-02
RMM:   7    -0.230947822644E+04   -0.97483E-06   -0.11840E-05  2867   0.490E-03
  81 F= -.23298661E+04 E0= -.23298661E+04  d E =-.199970E-02  mag=     4.0000
       N       E                     dE             d eps       ncg     rms          rms(c)
DAV:   1    -0.230946908911E+04    0.91364E-02   -0.73160E-01  4400   0.786E-01    0.279E-01
RMM:   2    -0.230947968119E+04   -0.10592E-01   -0.11111E-01  5941   0.172E-01    0.182E-01
RMM:   3    -0.230948059631E+04   -0.91511E-03   -0.12592E-02  5483   0.544E-02    0.199E-01
RMM:   4    -0.230948039719E+04    0.19912E-03   -0.13142E-03  3945   0.138E-02    0.974E-02
RMM:   5    -0.230948028963E+04    0.10757E-03   -0.19839E-04  3787   0.974E-03    0.409E-02
RMM:   6    -0.230948027188E+04    0.17743E-04   -0.13554E-04  3970   0.891E-03    0.197E-02
RMM:   7    -0.230948027138E+04    0.50475E-06   -0.16483E-05  2867   0.596E-03
  82 F= -.23298682E+04 E0= -.23298682E+04  d E =-.212927E-02  mag=     4.0000
       N       E                     dE             d eps       ncg     rms          rms(c)
DAV:   1    -0.230947684055E+04    0.34313E-02   -0.23724E-01  4448   0.448E-01    0.161E-01
RMM:   2    -0.230948031404E+04   -0.34735E-02   -0.36529E-02  5987   0.990E-02    0.103E-01
RMM:   3    -0.230948059457E+04   -0.28053E-03   -0.40542E-03  4734   0.344E-02    0.115E-01
RMM:   4    -0.230948052847E+04    0.66098E-04   -0.43520E-04  3039   0.866E-03    0.549E-02
RMM:   5    -0.230948049404E+04    0.34426E-04   -0.64875E-05  2964   0.622E-03    0.234E-02
RMM:   6    -0.230948048957E+04    0.44682E-05   -0.43492E-05  3025   0.597E-03
  83 F= -.23298685E+04 E0= -.23298685E+04  d E =-.239565E-02  mag=     4.0000
       N       E                     dE             d eps       ncg     rms          rms(c)
DAV:   1    -0.230947064225E+04    0.98518E-02   -0.75997E-01  4400   0.828E-01    0.286E-01
RMM:   2    -0.230948163468E+04   -0.10992E-01   -0.11500E-01  5905   0.177E-01    0.186E-01
RMM:   3    -0.230948265857E+04   -0.10239E-02   -0.13040E-02  5487   0.592E-02    0.211E-01
RMM:   4    -0.230948242230E+04    0.23627E-03   -0.13609E-03  3962   0.140E-02    0.917E-02
RMM:   5    -0.230948232615E+04    0.96154E-04   -0.17996E-04  3690   0.915E-03    0.417E-02
RMM:   6    -0.230948231151E+04    0.14641E-04   -0.13461E-04  4000   0.875E-03    0.197E-02
RMM:   7    -0.230948231229E+04   -0.78324E-06   -0.18213E-05  2869   0.614E-03
  84 F= -.23298703E+04 E0= -.23298703E+04  d E =-.178939E-02  mag=     4.0000
       N       E                     dE             d eps       ncg     rms          rms(c)
DAV:   1    -0.230947673676E+04    0.55747E-02   -0.38479E-01  4416   0.589E-01    0.204E-01
RMM:   2    -0.230948232696E+04   -0.55902E-02   -0.58411E-02  5977   0.126E-01    0.137E-01
RMM:   3    -0.230948284192E+04   -0.51496E-03   -0.64921E-03  5161   0.426E-02    0.156E-01
RMM:   4    -0.230948270601E+04    0.13591E-03   -0.68860E-04  3211   0.103E-02    0.641E-02
RMM:   5    -0.230948265766E+04    0.48354E-04   -0.90976E-05  3099   0.701E-03    0.300E-02
RMM:   6    -0.230948265079E+04    0.68694E-05   -0.72393E-05  3382   0.695E-03
  85 F= -.23298706E+04 E0= -.23298706E+04  d E =-.210418E-02  mag=     4.0000
       N       E                     dE             d eps       ncg     rms          rms(c)
DAV:   1    -0.230947293259E+04    0.97251E-02   -0.73766E-01  4400   0.810E-01    0.275E-01
RMM:   2    -0.230948381444E+04   -0.10882E-01   -0.11294E-01  5941   0.174E-01    0.212E-01
RMM:   3    -0.230948481978E+04   -0.10053E-02   -0.12787E-02  5534   0.587E-02    0.233E-01
RMM:   4    -0.230948449641E+04    0.32337E-03   -0.13457E-03  3984   0.143E-02    0.848E-02
RMM:   5    -0.230948440460E+04    0.91814E-04   -0.18005E-04  3789   0.907E-03    0.413E-02
RMM:   6    -0.230948438811E+04    0.16491E-04   -0.12754E-04  3962   0.868E-03    0.179E-02
RMM:   7    -0.230948438890E+04   -0.79296E-06   -0.15751E-05  2859   0.584E-03
  86 F= -.23298723E+04 E0= -.23298723E+04  d E =-.167064E-02  mag=     4.0000
       N       E                     dE             d eps       ncg     rms          rms(c)
DAV:   1    -0.230948018404E+04    0.42041E-02   -0.29071E-01  4448   0.509E-01    0.173E-01
RMM:   2    -0.230948448379E+04   -0.42998E-02   -0.44599E-02  5992   0.109E-01    0.135E-01
RMM:   3    -0.230948488076E+04   -0.39697E-03   -0.50416E-03  4923   0.368E-02    0.147E-01
RMM:   4    -0.230948474942E+04    0.13134E-03   -0.53400E-04  3119   0.940E-03    0.528E-02
RMM:   5    -0.230948471279E+04    0.36633E-04   -0.74271E-05  3053   0.631E-03    0.264E-02
RMM:   6    -0.230948470603E+04    0.67589E-05   -0.52581E-05  3169   0.624E-03
  87 F= -.23298726E+04 E0= -.23298726E+04  d E =-.194606E-02  mag=     4.0000
       N       E                     dE             d eps       ncg     rms          rms(c)
DAV:   1    -0.230947882653E+04    0.58863E-02   -0.49328E-01  4408   0.676E-01    0.231E-01
RMM:   2    -0.230948575772E+04   -0.69312E-02   -0.71672E-02  5883   0.144E-01    0.199E-01
RMM:   3    -0.230948630980E+04   -0.55208E-03   -0.80658E-03  5402   0.502E-02    0.209E-01
RMM:   4    -0.230948603245E+04    0.27735E-03   -0.87639E-04  3862   0.126E-02    0.668E-02
RMM:   5    -0.230948596956E+04    0.62892E-04   -0.14991E-04  3681   0.861E-03    0.309E-02
RMM:   6    -0.230948596179E+04    0.77697E-05   -0.78448E-05  3616   0.784E-03
  88 F= -.23298739E+04 E0= -.23298739E+04  d E =-.130632E-02  mag=     4.0000
       N       E                     dE             d eps       ncg     rms          rms(c)
DAV:   1    -0.230948450588E+04    0.14637E-02   -0.10510E-01  4560   0.312E-01    0.108E-01
RMM:   2    -0.230948599960E+04   -0.14937E-02   -0.15469E-02  6191   0.681E-02    0.929E-02
RMM:   3    -0.230948611766E+04   -0.11806E-03   -0.17173E-03  3847   0.222E-02    0.994E-02
RMM:   4    -0.230948605467E+04    0.62988E-04   -0.18994E-04  2916   0.709E-03    0.308E-02
RMM:   5    -0.230948604181E+04    0.12868E-04   -0.34582E-05  2878   0.468E-03    0.144E-02
RMM:   6    -0.230948604059E+04    0.12157E-05   -0.17044E-05  2876   0.436E-03
  89 F= -.23298740E+04 E0= -.23298740E+04  d E =-.140875E-02  mag=     4.0000
       N       E                     dE             d eps       ncg     rms          rms(c)
DAV:   1    -0.230948011631E+04    0.59255E-02   -0.49050E-01  4408   0.666E-01    0.220E-01
RMM:   2    -0.230948706786E+04   -0.69516E-02   -0.71363E-02  5965   0.140E-01    0.211E-01
RMM:   3    -0.230948752922E+04   -0.46136E-03   -0.77093E-03  5357   0.478E-02    0.197E-01
RMM:   4    -0.230948728886E+04    0.24036E-03   -0.85834E-04  3642   0.120E-02    0.644E-02
RMM:   5    -0.230948723025E+04    0.58608E-04   -0.11898E-04  3334   0.786E-03    0.323E-02
RMM:   6    -0.230948722148E+04    0.87678E-05   -0.90318E-05  3616   0.785E-03
  90 F= -.23298752E+04 E0= -.23298752E+04  d E =-.123338E-02  mag=     4.0000
       N       E                     dE             d eps       ncg     rms          rms(c)
DAV:   1    -0.230948271796E+04    0.45123E-02   -0.32532E-01  4416   0.542E-01    0.180E-01
RMM:   2    -0.230948734269E+04   -0.46247E-02   -0.47558E-02  6081   0.116E-01    0.173E-01
RMM:   3    -0.230948764775E+04   -0.30506E-03   -0.51075E-03  5259   0.374E-02    0.164E-01
RMM:   4    -0.230948748168E+04    0.16607E-03   -0.57249E-04  3261   0.100E-02    0.524E-02
RMM:   5    -0.230948744340E+04    0.38280E-04   -0.81863E-05  3089   0.660E-03    0.263E-02
RMM:   6    -0.230948743820E+04    0.52013E-05   -0.57085E-05  3205   0.665E-03
  91 F= -.23298755E+04 E0= -.23298755E+04  d E =-.149313E-02  mag=     4.0000
       N       E                     dE             d eps       ncg     rms          rms(c)
DAV:   1    -0.230947939273E+04    0.80507E-02   -0.65609E-01  4400   0.770E-01    0.262E-01
RMM:   2    -0.230948861220E+04   -0.92195E-02   -0.95042E-02  6034   0.166E-01    0.239E-01
RMM:   3    -0.230948925288E+04   -0.64068E-03   -0.10186E-02  5587   0.567E-02    0.238E-01
RMM:   4    -0.230948888514E+04    0.36774E-03   -0.11385E-03  4226   0.142E-02    0.743E-02
RMM:   5    -0.230948881104E+04    0.74101E-04   -0.16130E-04  3667   0.897E-03    0.372E-02
RMM:   6    -0.230948879806E+04    0.12979E-04   -0.11366E-04  3927   0.879E-03    0.152E-02
RMM:   7    -0.230948879905E+04   -0.98764E-06   -0.11365E-05  2852   0.533E-03
  92 F= -.23298767E+04 E0= -.23298767E+04  d E =-.124600E-02  mag=     4.0000
       N       E                     dE             d eps       ncg     rms          rms(c)
DAV:   1    -0.230948686859E+04    0.19295E-02   -0.14129E-01  4496   0.357E-01    0.121E-01
RMM:   2    -0.230948885370E+04   -0.19851E-02   -0.20497E-02  5990   0.774E-02    0.108E-01
RMM:   3    -0.230948899388E+04   -0.14018E-03   -0.21621E-03  4184   0.263E-02    0.110E-01
RMM:   4    -0.230948891488E+04    0.78999E-04   -0.24527E-04  2969   0.741E-03    0.348E-02
RMM:   5    -0.230948889804E+04    0.16846E-04   -0.36701E-05  2876   0.494E-03    0.173E-02
RMM:   6    -0.230948889525E+04    0.27857E-05   -0.26287E-05  2938   0.479E-03
  93 F= -.23298767E+04 E0= -.23298767E+04  d E =-.128886E-02  mag=     4.0000
       N       E                     dE             d eps       ncg     rms          rms(c)
DAV:   1    -0.230948085266E+04    0.80454E-02   -0.60462E-01  4440   0.718E-01    0.247E-01
RMM:   2    -0.230948995452E+04   -0.91019E-02   -0.93613E-02  5942   0.156E-01    0.231E-01
RMM:   3    -0.230949058253E+04   -0.62802E-03   -0.10004E-02  5416   0.514E-02    0.222E-01
RMM:   4    -0.230949027611E+04    0.30642E-03   -0.11051E-03  3744   0.128E-02    0.712E-02
RMM:   5    -0.230949021241E+04    0.63701E-04   -0.12491E-04  3212   0.766E-03    0.379E-02
RMM:   6    -0.230949019806E+04    0.14353E-04   -0.11595E-04  3805   0.820E-03    0.147E-02
RMM:   7    -0.230949019832E+04   -0.26266E-06   -0.10847E-05  2857   0.520E-03
  94 F= -.23298779E+04 E0= -.23298779E+04  d E =-.116328E-02  mag=     4.0000
       N       E                     dE             d eps       ncg     rms          rms(c)
[...]
RMM:   3    -0.230953912436E+04   -0.12645E-04   -0.17397E-04  2830   0.874E-03    0.290E-02
RMM:   4    -0.230953911910E+04    0.52679E-05   -0.19073E-05  2833   0.268E-03
 357 F= -.23299271E+04 E0= -.23299271E+04  d E =-.474013E-04  mag=     4.0000
       N       E                     dE             d eps       ncg     rms          rms(c)
DAV:   1    -0.230953909144E+04    0.32920E-04   -0.13798E-03  4848   0.318E-02    0.134E-02
RMM:   2    -0.230953911076E+04   -0.19316E-04   -0.20701E-04  3480   0.781E-03    0.111E-02
RMM:   3    -0.230953911280E+04   -0.20379E-05   -0.28900E-05  2676   0.426E-03
 358 F= -.23299271E+04 E0= -.23299271E+04  d E =-.482567E-04  mag=     4.0000
       N       E                     dE             d eps       ncg     rms          rms(c)
DAV:   1    -0.230953895931E+04    0.15145E-03   -0.10701E-02  4400   0.848E-02    0.348E-02
RMM:   2    -0.230953912288E+04   -0.16357E-03   -0.17125E-03  5511   0.210E-02    0.210E-02
RMM:   3    -0.230953913244E+04   -0.95547E-05   -0.17677E-04  2830   0.815E-03    0.184E-02
RMM:   4    -0.230953913224E+04    0.19275E-06   -0.21382E-05  2835   0.221E-03
 359 F= -.23299271E+04 E0= -.23299271E+04  d E =-.421192E-04  mag=     4.0000
       N       E                     dE             d eps       ncg     rms          rms(c)
DAV:   1    -0.230953910212E+04    0.30315E-04   -0.13939E-03  4648   0.306E-02    0.149E-02
RMM:   2    -0.230953912732E+04   -0.25199E-04   -0.22095E-04  3523   0.743E-03    0.282E-02
RMM:   3    -0.230953912400E+04    0.33210E-05   -0.28745E-05  2663   0.396E-03
 360 F= -.23299271E+04 E0= -.23299271E+04  d E =-.421770E-04  mag=     4.0000
       N       E                     dE             d eps       ncg     rms          rms(c)
DAV:   1    -0.230953902100E+04    0.10633E-03   -0.84456E-03  4400   0.766E-02    0.314E-02
RMM:   2    -0.230953914754E+04   -0.12654E-03   -0.13193E-03  5292   0.187E-02    0.212E-02
RMM:   3    -0.230953915557E+04   -0.80317E-05   -0.13528E-04  2828   0.750E-03    0.227E-02
RMM:   4    -0.230953915318E+04    0.23869E-05   -0.16960E-05  2815   0.218E-03
 361 F= -.23299272E+04 E0= -.23299272E+04  d E =-.467050E-04  mag=     4.0000
       N       E                     dE             d eps       ncg     rms          rms(c)
DAV:   1    -0.230953907636E+04    0.79204E-04   -0.45656E-03  4352   0.563E-02    0.235E-02
RMM:   2    -0.230953914493E+04   -0.68564E-04   -0.70440E-04  4407   0.136E-02    0.240E-02
RMM:   3    -0.230953914992E+04   -0.49958E-05   -0.89243E-05  2819   0.596E-03
 362 F= -.23299272E+04 E0= -.23299272E+04  d E =-.564596E-04  mag=     4.0000
       N       E                     dE             d eps       ncg     rms          rms(c)
DAV:   1    -0.230953902193E+04    0.12300E-03   -0.96318E-03  4400   0.826E-02    0.342E-02
RMM:   2    -0.230953917444E+04   -0.15251E-03   -0.15792E-03  5479   0.208E-02    0.247E-02
RMM:   3    -0.230953918433E+04   -0.98885E-05   -0.16647E-04  2830   0.788E-03    0.255E-02
RMM:   4    -0.230953918160E+04    0.27334E-05   -0.21430E-05  2833   0.240E-03
 363 F= -.23299272E+04 E0= -.23299272E+04  d E =-.479038E-04  mag=     4.0000
       N       E                     dE             d eps       ncg     rms          rms(c)
DAV:   1    -0.230953913445E+04    0.49883E-04   -0.26364E-03  4624   0.432E-02    0.197E-02
RMM:   2    -0.230953917967E+04   -0.45228E-04   -0.42531E-04  3930   0.107E-02    0.317E-02
RMM:   3    -0.230953917721E+04    0.24669E-05   -0.54048E-05  2807   0.502E-03
 364 F= -.23299272E+04 E0= -.23299272E+04  d E =-.521294E-04  mag=     4.0000
       N       E                     dE             d eps       ncg     rms          rms(c)
DAV:   1    -0.230953901433E+04    0.16535E-03   -0.10843E-02  4400   0.878E-02    0.369E-02
RMM:   2    -0.230953918792E+04   -0.17360E-03   -0.17922E-03  5603   0.222E-02    0.307E-02
RMM:   3    -0.230953919905E+04   -0.11124E-04   -0.18788E-04  2832   0.853E-03    0.318E-02
RMM:   4    -0.230953919320E+04    0.58503E-05   -0.24120E-05  2844   0.267E-03
 365 F= -.23299273E+04 E0= -.23299273E+04  d E =-.434453E-04  mag=     4.0000
       N       E                     dE             d eps       ncg     rms          rms(c)
DAV:   1    -0.230953917824E+04    0.20806E-04   -0.45919E-04  5032   0.181E-02    0.986E-03
RMM:   2    -0.230953918703E+04   -0.87922E-05   -0.77873E-05  3136   0.464E-03
 366 F= -.23299273E+04 E0= -.23299273E+04  d E =-.431343E-04  mag=     4.0000
       N       E                     dE             d eps       ncg     rms          rms(c)
DAV:   1    -0.230953903744E+04    0.14080E-03   -0.11026E-02  4384   0.886E-02    0.364E-02
RMM:   2    -0.230953920496E+04   -0.16752E-03   -0.17170E-03  5550   0.221E-02    0.329E-02
RMM:   3    -0.230953921828E+04   -0.13322E-04   -0.20738E-04  2834   0.899E-03    0.331E-02
RMM:   4    -0.230953921094E+04    0.73370E-05   -0.22477E-05  2838   0.284E-03
 367 F= -.23299273E+04 E0= -.23299273E+04  d E =-.426793E-04  mag=     4.0000
       N       E                     dE             d eps       ncg     rms          rms(c)
DAV:   1    -0.230953919937E+04    0.18916E-04   -0.41754E-04  4960   0.173E-02    0.821E-03
RMM:   2    -0.230953920551E+04   -0.61474E-05   -0.66030E-05  3033   0.449E-03
 368 F= -.23299273E+04 E0= -.23299273E+04  d E =-.410851E-04  mag=     4.0000
       N       E                     dE             d eps       ncg     rms          rms(c)
DAV:   1    -0.230953911161E+04    0.87757E-04   -0.84214E-03  4400   0.814E-02    0.345E-02
RMM:   2    -0.230953923614E+04   -0.12454E-03   -0.12296E-03  5324   0.197E-02    0.423E-02
RMM:   3    -0.230953923900E+04   -0.28524E-05   -0.15350E-04  2831   0.849E-03    0.297E-02
RMM:   4    -0.230953923251E+04    0.64896E-05   -0.16384E-05  2832   0.276E-03
 369 F= -.23299274E+04 E0= -.23299274E+04  d E =-.482380E-04  mag=     4.0000
       N       E                     dE             d eps       ncg     rms          rms(c)
DAV:   1    -0.230953920174E+04    0.37256E-04   -0.15812E-03  4768   0.352E-02    0.145E-02
RMM:   2    -0.230953922243E+04   -0.20684E-04   -0.22515E-04  3596   0.866E-03    0.811E-03
RMM:   3    -0.230953922343E+04   -0.10030E-05   -0.26698E-05  2760   0.445E-03
 370 F= -.23299274E+04 E0= -.23299274E+04  d E =-.486183E-04  mag=     4.0000
       N       E                     dE             d eps       ncg     rms          rms(c)
DAV:   1    -0.230953909640E+04    0.12603E-03   -0.92491E-03  4400   0.801E-02    0.342E-02
RMM:   2    -0.230953924177E+04   -0.14537E-03   -0.14659E-03  5407   0.201E-02    0.393E-02
RMM:   3    -0.230953924763E+04   -0.58573E-05   -0.17089E-04  2827   0.796E-03    0.307E-02
RMM:   4    -0.230953924112E+04    0.65126E-05   -0.20356E-05  2835   0.257E-03
 371 F= -.23299274E+04 E0= -.23299274E+04  d E =-.368069E-04  mag=     4.0000
       N       E                     dE             d eps       ncg     rms          rms(c)
DAV:   1    -0.230953922842E+04    0.19206E-04   -0.43553E-04  4960   0.174E-02    0.804E-03
RMM:   2    -0.230953923462E+04   -0.61944E-05   -0.68116E-05  3003   0.444E-03
 372 F= -.23299274E+04 E0= -.23299274E+04  d E =-.346240E-04  mag=     4.0000
       N       E                     dE             d eps       ncg     rms          rms(c)
DAV:   1    -0.230953914817E+04    0.80250E-04   -0.66770E-03  4384   0.690E-02    0.285E-02
RMM:   2    -0.230953925065E+04   -0.10248E-03   -0.10741E-03  4932   0.174E-02    0.180E-02
RMM:   3    -0.230953926029E+04   -0.96434E-05   -0.13278E-04  2825   0.760E-03    0.220E-02
RMM:   4    -0.230953925776E+04    0.25324E-05   -0.14354E-05  2782   0.233E-03
 373 F= -.23299275E+04 E0= -.23299275E+04  d E =-.421880E-04  mag=     4.0000
       N       E                     dE             d eps       ncg     rms          rms(c)
DAV:   1    -0.230953917625E+04    0.84046E-04   -0.45857E-03  4352   0.570E-02    0.237E-02
RMM:   2    -0.230953924386E+04   -0.67613E-04   -0.71522E-04  4448   0.142E-02    0.153E-02
RMM:   3    -0.230953924976E+04   -0.58992E-05   -0.85529E-05  2823   0.623E-03
 374 F= -.23299275E+04 E0= -.23299275E+04  d E =-.501267E-04  mag=     4.0000
       N       E                     dE             d eps       ncg     rms          rms(c)
DAV:   1    -0.230953913278E+04    0.11108E-03   -0.83960E-03  4400   0.769E-02    0.323E-02
RMM:   2    -0.230953926676E+04   -0.13398E-03   -0.14024E-03  5301   0.196E-02    0.184E-02
RMM:   3    -0.230953927457E+04   -0.78062E-05   -0.15266E-04  2830   0.743E-03    0.119E-02
RMM:   4    -0.230953927402E+04    0.54968E-06   -0.18301E-05  2847   0.215E-03
 375 F= -.23299275E+04 E0= -.23299275E+04  d E =-.446710E-04  mag=     4.0000
       N       E                     dE             d eps       ncg     rms          rms(c)
DAV:   1    -0.230953923194E+04    0.42633E-04   -0.21248E-03  4672   0.387E-02    0.172E-02
RMM:   2    -0.230953926748E+04   -0.35543E-04   -0.35667E-04  3822   0.979E-03    0.200E-02
RMM:   3    -0.230953926920E+04   -0.17266E-05   -0.42690E-05  2790   0.476E-03
 376 F= -.23299275E+04 E0= -.23299275E+04  d E =-.502961E-04  mag=     4.0000
       N       E                     dE             d eps       ncg     rms          rms(c)
DAV:   1    -0.230953916835E+04    0.99130E-04   -0.79304E-03  4400   0.776E-02    0.320E-02
RMM:   2    -0.230953927985E+04   -0.11150E-03   -0.11740E-03  5312   0.186E-02    0.190E-02
RMM:   3    -0.230953928904E+04   -0.91856E-05   -0.14551E-04  2826   0.810E-03    0.221E-02
RMM:   4    -0.230953928683E+04    0.22009E-05   -0.16636E-05  2818   0.227E-03
 377 F= -.23299276E+04 E0= -.23299276E+04  d E =-.450321E-04  mag=     4.0000
       N       E                     dE             d eps       ncg     rms          rms(c)
DAV:   1    -0.230953925734E+04    0.31692E-04   -0.13063E-03  4840   0.315E-02    0.135E-02
RMM:   2    -0.230953927560E+04   -0.18256E-04   -0.19516E-04  3498   0.762E-03    0.872E-03
RMM:   3    -0.230953927695E+04   -0.13472E-05   -0.23718E-05  2694   0.406E-03
 378 F= -.23299276E+04 E0= -.23299276E+04  d E =-.465284E-04  mag=     4.0000
       N       E                     dE             d eps       ncg     rms          rms(c)
DAV:   1    -0.230953916991E+04    0.10569E-03   -0.88250E-03  4400   0.810E-02    0.336E-02
RMM:   2    -0.230953929616E+04   -0.12625E-03   -0.13164E-03  5419   0.195E-02    0.257E-02
RMM:   3    -0.230953930821E+04   -0.12049E-04   -0.16415E-04  2826   0.819E-03    0.320E-02
RMM:   4    -0.230953930136E+04    0.68512E-05   -0.18495E-05  2823   0.250E-03
 379 F= -.23299276E+04 E0= -.23299276E+04  d E =-.399317E-04  mag=     4.0000
       N       E                     dE             d eps       ncg     rms          rms(c)
DAV:   1    -0.230953928769E+04    0.20517E-04   -0.57980E-04  4944   0.208E-02    0.909E-03
RMM:   2    -0.230953929596E+04   -0.82635E-05   -0.88667E-05  3123   0.515E-03
 380 F= -.23299276E+04 E0= -.23299276E+04  d E =-.386600E-04  mag=     4.0000
       N       E                     dE             d eps       ncg     rms          rms(c)
DAV:   1    -0.230953918857E+04    0.99124E-04   -0.76810E-03  4400   0.733E-02    0.300E-02
RMM:   2    -0.230953930944E+04   -0.12087E-03   -0.12628E-03  5210   0.187E-02    0.197E-02
RMM:   3    -0.230953932049E+04   -0.11049E-04   -0.15231E-04  2836   0.788E-03    0.246E-02
RMM:   4    -0.230953931820E+04    0.22931E-05   -0.16944E-05  2792   0.240E-03
 381 F= -.23299276E+04 E0= -.23299276E+04  d E =-.417950E-04  mag=     4.0000
       N       E                     dE             d eps       ncg     rms          rms(c)
DAV:   1    -0.230953929868E+04    0.21813E-04   -0.86795E-04  4720   0.245E-02    0.111E-02
RMM:   2    -0.230953931244E+04   -0.13760E-04   -0.13914E-04  3351   0.633E-03    0.130E-02
RMM:   3    -0.230953931305E+04   -0.60850E-06   -0.18803E-05  2474   0.362E-03
 382 F= -.23299276E+04 E0= -.23299276E+04  d E =-.433649E-04  mag=     4.0000
       N       E                     dE             d eps       ncg     rms          rms(c)
DAV:   1    -0.230953920747E+04    0.10497E-03   -0.75800E-03  4400   0.746E-02    0.309E-02
RMM:   2    -0.230953932200E+04   -0.11453E-03   -0.12012E-03  5360   0.184E-02    0.214E-02
RMM:   3    -0.230953933245E+04   -0.10449E-04   -0.14580E-04  2827   0.771E-03    0.261E-02
RMM:   4    -0.230953932836E+04    0.40882E-05   -0.16472E-05  2805   0.225E-03
 383 F= -.23299277E+04 E0= -.23299277E+04  d E =-.399680E-04  mag=     4.0000
       N       E                     dE             d eps       ncg     rms          rms(c)
DAV:   1    -0.230953932115E+04    0.11299E-04   -0.15374E-04  5064   0.107E-02    0.579E-03
RMM:   2    -0.230953932351E+04   -0.23624E-05   -0.26351E-05  2561   0.282E-03
 384 F= -.23299277E+04 E0= -.23299277E+04  d E =-.388397E-04  mag=     4.0000
       N       E                     dE             d eps       ncg     rms          rms(c)
DAV:   1    -0.230953923728E+04    0.83869E-04   -0.51936E-03  4368   0.616E-02    0.254E-02
RMM:   2    -0.230953932173E+04   -0.84448E-04   -0.89012E-04  4803   0.160E-02    0.141E-02
RMM:   3    -0.230953932882E+04   -0.70877E-05   -0.10879E-04  2814   0.717E-03    0.124E-02
RMM:   4    -0.230953932905E+04   -0.22841E-06   -0.11986E-05  2677   0.198E-03
 385 F= -.23299277E+04 E0= -.23299277E+04  d E =-.346435E-04  mag=     4.0000
       N       E                     dE             d eps       ncg     rms          rms(c)
DAV:   1    -0.230953930901E+04    0.19806E-04   -0.58986E-04  4720   0.207E-02    0.930E-03
RMM:   2    -0.230953931872E+04   -0.97041E-05   -0.10130E-04  3203   0.543E-03    0.883E-03
RMM:   3    -0.230953931964E+04   -0.92405E-06   -0.14490E-05  2324   0.334E-03
 386 F= -.23299277E+04 E0= -.23299277E+04  d E =-.352257E-04  mag=     4.0000
       N       E                     dE             d eps       ncg     rms          rms(c)
DAV:   1    -0.230953922912E+04    0.89597E-04   -0.56640E-03  4352   0.628E-02    0.263E-02
RMM:   2    -0.230953932867E+04   -0.99549E-04   -0.10283E-03  4990   0.162E-02    0.219E-02
RMM:   3    -0.230953933710E+04   -0.84320E-05   -0.12071E-04  2820   0.678E-03    0.220E-02
RMM:   4    -0.230953933459E+04    0.25142E-05   -0.13972E-05  2716   0.200E-03
 387 F= -.23299277E+04 E0= -.23299277E+04  d E =-.327621E-04  mag=     4.0000
       N       E                     dE             d eps       ncg     rms          rms(c)
DAV:   1    -0.230953932562E+04    0.11477E-04   -0.26948E-04  4960   0.137E-02    0.762E-03
RMM:   2    -0.230953933142E+04   -0.57925E-05   -0.50575E-05  2804   0.360E-03
 388 F= -.23299277E+04 E0= -.23299277E+04  d E =-.335970E-04  mag=     4.0000
       N       E                     dE             d eps       ncg     rms          rms(c)
DAV:   1    -0.230953925584E+04    0.69786E-04   -0.53186E-03  4368   0.622E-02    0.258E-02
RMM:   2    -0.230953934532E+04   -0.89481E-04   -0.91805E-04  4783   0.159E-02    0.235E-02
RMM:   3    -0.230953935312E+04   -0.77976E-05   -0.11483E-04  2815   0.724E-03    0.233E-02
RMM:   4    -0.230953934955E+04    0.35625E-05   -0.12192E-05  2692   0.224E-03
 389 F= -.23299278E+04 E0= -.23299278E+04  d E =-.296292E-04  mag=     4.0000
       N       E                     dE             d eps       ncg     rms          rms(c)
DAV:   1    -0.230953933349E+04    0.19629E-04   -0.70364E-04  4600   0.226E-02    0.968E-03
RMM:   2    -0.230953934496E+04   -0.11469E-04   -0.12108E-04  3263   0.593E-03    0.821E-03
RMM:   3    -0.230953934614E+04   -0.11830E-05   -0.17297E-05  2371   0.357E-03
 390 F= -.23299278E+04 E0= -.23299278E+04  d E =-.305218E-04  mag=     4.0000
       N       E                     dE             d eps       ncg     rms          rms(c)
DAV:   1    -0.230953928568E+04    0.59280E-04   -0.33741E-03  4288   0.461E-02    0.196E-02
RMM:   2    -0.230953934544E+04   -0.59768E-04   -0.62260E-04  4046   0.121E-02    0.133E-02
RMM:   3    -0.230953934989E+04   -0.44502E-05   -0.68850E-05  2742   0.539E-03
 391 F= -.23299278E+04 E0= -.23299278E+04  d E =-.207964E-04  mag=     4.0000
       N       E                     dE             d eps       ncg     rms          rms(c)
DAV:   1    -0.230953933828E+04    0.71618E-05   -0.36156E-04  4784   0.151E-02    0.933E-03
RMM:   2    -0.230953934592E+04   -0.76412E-05   -0.71631E-05  2897   0.427E-03
 392 F= -.23299278E+04 E0= -.23299278E+04  d E =-.223839E-04  mag=     4.0000
       N       E                     dE             d eps       ncg     rms          rms(c)
DAV:   1    -0.230953930764E+04    0.30645E-04   -0.23824E-03  4320   0.432E-02    0.172E-02
RMM:   2    -0.230953934723E+04   -0.39598E-04   -0.41243E-04  3976   0.110E-02    0.108E-02
RMM:   3    -0.230953935059E+04   -0.33597E-05   -0.50461E-05  2554   0.572E-03
 393 F= -.23299278E+04 E0= -.23299278E+04  d E =-.270783E-04  mag=     4.0000
       N       E                     dE             d eps       ncg     rms          rms(c)
DAV:   1    -0.230953930147E+04    0.45768E-04   -0.20570E-03  4320   0.401E-02    0.190E-02
RMM:   2    -0.230953933716E+04   -0.35696E-04   -0.35131E-04  3837   0.103E-02    0.252E-02
RMM:   3    -0.230953933774E+04   -0.58013E-06   -0.49636E-05  2793   0.521E-03
 394 F= -.23299278E+04 E0= -.23299278E+04  d E =-.351031E-04  mag=     4.0000
       N       E                     dE             d eps       ncg     rms          rms(c)
DAV:   1    -0.230953928086E+04    0.56307E-04   -0.29062E-03  4304   0.454E-02    0.195E-02
RMM:   2    -0.230953933199E+04   -0.51132E-04   -0.52847E-04  4095   0.121E-02    0.158E-02
RMM:   3    -0.230953933567E+04   -0.36827E-05   -0.59088E-05  2804   0.554E-03
 395 F= -.23299279E+04 E0= -.23299279E+04  d E =-.165670E-04  mag=     4.0000
       N       E                     dE             d eps       ncg     rms          rms(c)
DAV:   1    -0.230953933069E+04    0.12960E-05   -0.75935E-05  4336   0.719E-03    0.811E-03
RMM:   2    -0.230953933260E+04   -0.19087E-05   -0.16142E-05  2378   0.292E-03
 396 F= -.23299279E+04 E0= -.23299279E+04  d E =-.162779E-04  mag=     4.0000
       N       E                     dE             d eps       ncg     rms          rms(c)
DAV:   1    -0.230953928992E+04    0.40772E-04   -0.29833E-03  4352   0.482E-02    0.196E-02
RMM:   2    -0.230953933949E+04   -0.49567E-04   -0.51934E-04  4289   0.125E-02    0.126E-02
RMM:   3    -0.230953934304E+04   -0.35545E-05   -0.59719E-05  2709   0.601E-03
 397 F= -.23299279E+04 E0= -.23299279E+04  d E =-.206169E-04  mag=     4.0000
       N       E                     dE             d eps       ncg     rms          rms(c)
DAV:   1    -0.230953934031E+04   -0.82003E-06   -0.71400E-05  4288   0.734E-03    0.847E-03
RMM:   2    -0.230953934321E+04   -0.29036E-05   -0.17545E-05  2352   0.294E-03
 398 F= -.23299279E+04 E0= -.23299279E+04  d E =-.222842E-04  mag=     4.0000
       N       E                     dE             d eps       ncg     rms          rms(c)
DAV:   1    -0.230953930068E+04    0.39630E-04   -0.27259E-03  4352   0.473E-02    0.194E-02
RMM:   2    -0.230953934529E+04   -0.44614E-04   -0.46493E-04  4318   0.123E-02    0.151E-02
RMM:   3    -0.230953934866E+04   -0.33721E-05   -0.51687E-05  2756   0.596E-03
 399 F= -.23299279E+04 E0= -.23299279E+04  d E =-.179897E-04  mag=     4.0000
       N       E                     dE             d eps       ncg     rms          rms(c)
DAV:   1    -0.230953934698E+04   -0.16858E-05   -0.15156E-05  3688   0.295E-03    0.705E-03
RMM:   2    -0.230953934740E+04   -0.42695E-06   -0.33607E-06  2229   0.161E-03
 400 F= -.23299279E+04 E0= -.23299279E+04  d E =-.169118E-04  mag=     4.0000
       N       E                     dE             d eps       ncg     rms          rms(c)
DAV:   1    -0.230953931694E+04    0.30040E-04   -0.19507E-03  4288   0.383E-02    0.157E-02
RMM:   2    -0.230953934952E+04   -0.32581E-04   -0.34156E-04  3800   0.101E-02    0.102E-02
RMM:   3    -0.230953935190E+04   -0.23805E-05   -0.38974E-05  2413   0.492E-03
 401 F= -.23299279E+04 E0= -.23299279E+04  d E =-.153340E-04  mag=     4.0000
