       N       E                     dE             d eps       ncg     rms          rms(c)
DAV:   1     0.125005857392E+05    0.12501E+05   -0.84451E+05  4640   0.142E+03
DAV:   2    -0.125264228449E+04   -0.13753E+05   -0.13213E+05  5040   0.323E+02
DAV:   3    -0.249821377955E+04   -0.12456E+04   -0.12349E+04  5440   0.105E+02
DAV:   4    -0.252658062486E+04   -0.28367E+02   -0.28197E+02  5680   0.196E+01
DAV:   5    -0.252742311970E+04   -0.84249E+00   -0.84095E+00  5760   0.285E+00    0.171E+02
RMM:   6    -0.149078636616E+04    0.10366E+04   -0.19162E+03  4508   0.378E+01    0.723E+01
RMM:   7    -0.166488125633E+04   -0.17409E+03   -0.28222E+02  5098   0.138E+01    0.504E+01
RMM:   8    -0.171930573223E+04   -0.54424E+02   -0.69136E+01  5209   0.801E+00    0.423E+01
RMM:   9    -0.179713384339E+04   -0.77828E+02   -0.58529E+01  5103   0.717E+00    0.348E+01
RMM:  10    -0.193006548621E+04   -0.13293E+03   -0.58213E+01  5387   0.723E+00    0.236E+01
RMM:  11    -0.203624475125E+04   -0.10618E+03   -0.44235E+01  5176   0.522E+00    0.180E+01
RMM:  12    -0.208372555678E+04   -0.47481E+02   -0.17363E+01  5218   0.340E+00    0.169E+01
RMM:  13    -0.218165207828E+04   -0.97927E+02   -0.52928E+01  4562   0.549E+00    0.128E+01
RMM:  14    -0.227340373569E+04   -0.91752E+02   -0.75873E+01  4599   0.617E+00    0.700E+00
RMM:  15    -0.230813011080E+04   -0.34726E+02   -0.33098E+01  4737   0.445E+00    0.421E+00
RMM:  16    -0.231684604473E+04   -0.87159E+01   -0.11221E+01  5078   0.236E+00    0.294E+00
RMM:  17    -0.231889224863E+04   -0.20462E+01   -0.24110E+00  5317   0.963E-01    0.238E+00
RMM:  18    -0.232013079728E+04   -0.12385E+01   -0.11369E+00  4769   0.619E-01    0.175E+00
RMM:  19    -0.232071796034E+04   -0.58716E+00   -0.34186E-01  4952   0.399E-01    0.980E-01
RMM:  20    -0.232086514297E+04   -0.14718E+00   -0.91723E-02  5106   0.177E-01    0.642E-01
RMM:  21    -0.232091620958E+04   -0.51067E-01   -0.31990E-02  4669   0.125E-01    0.265E-01
RMM:  22    -0.232095073072E+04   -0.34521E-01   -0.13927E-02  4605   0.985E-02    0.155E-01
RMM:  23    -0.232096349738E+04   -0.12767E-01   -0.50039E-03  4578   0.643E-02    0.101E-01
RMM:  24    -0.232097504316E+04   -0.11546E-01   -0.36140E-03  4514   0.466E-02    0.583E-02
RMM:  25    -0.232098383592E+04   -0.87928E-02   -0.28547E-03  4513   0.423E-02    0.357E-02
RMM:  26    -0.232098805602E+04   -0.42201E-02   -0.16660E-03  4741   0.328E-02    0.228E-02
RMM:  27    -0.232098957603E+04   -0.15200E-02   -0.66309E-04  4267   0.207E-02    0.137E-02
RMM:  28    -0.232099016165E+04   -0.58562E-03   -0.21083E-04  3963   0.127E-02    0.806E-03
RMM:  29    -0.232099043315E+04   -0.27149E-03   -0.91230E-05  3708   0.850E-03    0.465E-03
RMM:  30    -0.232099056784E+04   -0.13469E-03   -0.43053E-05  3468   0.608E-03    0.281E-03
RMM:  31    -0.232099061270E+04   -0.44858E-04   -0.18324E-05  3096   0.452E-03    0.166E-03
RMM:  32    -0.232099063202E+04   -0.19324E-04   -0.97977E-06  2944   0.327E-03    0.104E-03
RMM:  33    -0.232099063689E+04   -0.48663E-05   -0.37268E-06  2487   0.227E-03
   1 F= -.23419255E+04 E0= -.23419241E+04  d E =-.287065E-02  mag=     5.9675
       N       E                     dE             d eps       ncg     rms          rms(c)
DAV:   1    -0.232097965702E+04    0.10975E-01   -0.19467E+00  4480   0.611E-01    0.330E-01
RMM:   2    -0.232098041548E+04   -0.75846E-03   -0.10238E-02  4303   0.446E-02    0.270E-01
RMM:   3    -0.232098054057E+04   -0.12509E-03   -0.22787E-03  4752   0.229E-02    0.311E-01
RMM:   4    -0.232097982663E+04    0.71394E-03   -0.99157E-04  4228   0.142E-02    0.751E-02
RMM:   5    -0.232097988219E+04   -0.55559E-04   -0.24326E-04  3353   0.798E-03    0.953E-02
RMM:   6    -0.232097982039E+04    0.61801E-04   -0.10815E-04  3010   0.534E-03    0.336E-02
RMM:   7    -0.232097981059E+04    0.97995E-05   -0.15801E-05  2669   0.272E-03
   2 F= -.23419151E+04 E0= -.23419140E+04  d E =-.233495E-02  mag=     5.9722
       N       E                     dE             d eps       ncg     rms          rms(c)
DAV:   1    -0.232096786561E+04    0.11955E-01   -0.77199E+00  4480   0.123E+00    0.642E-01
RMM:   2    -0.232097074991E+04   -0.28843E-02   -0.35410E-02  4506   0.860E-02    0.544E-01
RMM:   3    -0.232097094887E+04   -0.19895E-03   -0.78085E-03  5361   0.417E-02    0.593E-01
RMM:   4    -0.232096839175E+04    0.25571E-02   -0.37688E-03  4786   0.267E-02    0.150E-01
RMM:   5    -0.232096863490E+04   -0.24315E-03   -0.96315E-04  4129   0.150E-02    0.206E-01
RMM:   6    -0.232096835248E+04    0.28243E-03   -0.45360E-04  3725   0.937E-03    0.657E-02
RMM:   7    -0.232096831158E+04    0.40901E-04   -0.67724E-05  3061   0.462E-03    0.190E-02
RMM:   8    -0.232096830961E+04    0.19712E-05   -0.23137E-05  2921   0.291E-03
   3 F= -.23419029E+04 E0= -.23419011E+04  d E =-.349136E-02  mag=     5.9624
       N       E                     dE             d eps       ncg     rms          rms(c)
DAV:   1    -0.232090521730E+04    0.63094E-01   -0.36272E+00  4640   0.855E-01    0.436E-01
RMM:   2    -0.232090680977E+04   -0.15925E-02   -0.19052E-02  4787   0.632E-02    0.434E-01
RMM:   3    -0.232090604587E+04    0.76391E-03   -0.37658E-03  5122   0.303E-02    0.375E-01
RMM:   4    -0.232090525681E+04    0.78906E-03   -0.17042E-03  4711   0.190E-02    0.161E-01
RMM:   5    -0.232090546694E+04   -0.21013E-03   -0.81685E-04  4037   0.125E-02    0.220E-01
RMM:   6    -0.232090510098E+04    0.36596E-03   -0.32934E-04  3559   0.878E-03    0.266E-02
RMM:   7    -0.232090510123E+04   -0.25186E-06   -0.51871E-05  3013   0.368E-03
   4 F= -.23418401E+04 E0= -.23418380E+04  d E =-.430828E-02  mag=     5.9527
       N       E                     dE             d eps       ncg     rms          rms(c)
DAV:   1    -0.232106020509E+04   -0.15510E+00   -0.75731E+00  4480   0.118E+00    0.614E-01
RMM:   2    -0.232106292488E+04   -0.27198E-02   -0.44565E-02  4752   0.907E-02    0.529E-01
RMM:   3    -0.232106264024E+04    0.28464E-03   -0.72541E-03  5140   0.449E-02    0.573E-01
RMM:   4    -0.232106046570E+04    0.21745E-02   -0.37893E-03  4979   0.287E-02    0.228E-01
RMM:   5    -0.232106054358E+04   -0.77878E-04   -0.14827E-03  4502   0.173E-02    0.228E-01
RMM:   6    -0.232106013727E+04    0.40631E-03   -0.58727E-04  3658   0.114E-02    0.603E-02
RMM:   7    -0.232106011859E+04    0.18682E-04   -0.75284E-05  3171   0.473E-03    0.274E-02
RMM:   8    -0.232106011625E+04    0.23390E-05   -0.21359E-05  2930   0.350E-03
   5 F= -.23419950E+04 E0= -.23419940E+04  d E =-.188118E-02  mag=     5.9724
       N       E                     dE             d eps       ncg     rms          rms(c)
DAV:   1    -0.232100479284E+04    0.55326E-01   -0.40449E+00  4480   0.867E-01    0.414E-01
RMM:   2    -0.232100508090E+04   -0.28806E-03   -0.19149E-02  4261   0.594E-02    0.268E-01
RMM:   3    -0.232100574345E+04   -0.66255E-03   -0.37825E-03  5230   0.305E-02    0.416E-01
RMM:   4    -0.232100434294E+04    0.14005E-02   -0.16269E-03  4558   0.183E-02    0.122E-01
RMM:   5    -0.232100436072E+04   -0.17778E-04   -0.46212E-04  4041   0.991E-03    0.118E-01
RMM:   6    -0.232100425958E+04    0.10115E-03   -0.17292E-04  3120   0.714E-03    0.366E-02
RMM:   7    -0.232100425127E+04    0.83049E-05   -0.30508E-05  2956   0.332E-03
   6 F= -.23419395E+04 E0= -.23419380E+04  d E =-.288296E-02  mag=     5.9694
       N       E                     dE             d eps       ncg     rms          rms(c)
DAV:   1    -0.232094690239E+04    0.57357E-01   -0.78401E+00  4480   0.117E+00    0.610E-01
RMM:   2    -0.232094655081E+04    0.35158E-03   -0.56036E-02  4355   0.969E-02    0.385E-01
RMM:   3    -0.232094542875E+04    0.11221E-02   -0.69202E-03  5527   0.435E-02    0.458E-01
RMM:   4    -0.232094445364E+04    0.97511E-03   -0.45088E-03  5487   0.300E-02    0.338E-01
RMM:   5    -0.232094349794E+04    0.95570E-03   -0.95241E-04  4477   0.181E-02    0.807E-02
RMM:   6    -0.232094350974E+04   -0.11801E-04   -0.28489E-04  3335   0.873E-03    0.989E-02
RMM:   7    -0.232094342351E+04    0.86229E-04   -0.89874E-05  3221   0.618E-03    0.236E-02
RMM:   8    -0.232094341430E+04    0.92087E-05   -0.41556E-05  3076   0.445E-03
   7 F= -.23418780E+04 E0= -.23418766E+04  d E =-.283936E-02  mag=     5.9665
       N       E                     dE             d eps       ncg     rms          rms(c)
DAV:   1    -0.232094494642E+04   -0.15229E-02   -0.67499E+00  4800   0.116E+00    0.519E-01
RMM:   2    -0.232094851143E+04   -0.35650E-02   -0.62280E-02  4179   0.974E-02    0.294E-01
RMM:   3    -0.232094887947E+04   -0.36804E-03   -0.42750E-03  5147   0.318E-02    0.423E-01
RMM:   4    -0.232094773816E+04    0.11413E-02   -0.24196E-03  5023   0.219E-02    0.177E-01
RMM:   5    -0.232094756755E+04    0.17061E-03   -0.44526E-04  3860   0.111E-02    0.909E-02
RMM:   6    -0.232094750738E+04    0.60171E-04   -0.11351E-04  3014   0.682E-03    0.378E-02
RMM:   7    -0.232094749965E+04    0.77268E-05   -0.20420E-05  2895   0.360E-03
   8 F= -.23418820E+04 E0= -.23418805E+04  d E =-.302156E-02  mag=     5.9660
       N       E                     dE             d eps       ncg     rms          rms(c)
DAV:   1    -0.232100874413E+04   -0.61237E-01   -0.20517E+01  4480   0.197E+00    0.851E-01
RMM:   2    -0.232100651644E+04    0.22277E-02   -0.10986E-01  4216   0.135E-01    0.447E-01
RMM:   3    -0.232100810766E+04   -0.15912E-02   -0.13371E-02  5672   0.536E-02    0.702E-01
RMM:   4    -0.232100425374E+04    0.38539E-02   -0.48225E-03  5223   0.307E-02    0.177E-01
RMM:   5    -0.232100454839E+04   -0.29465E-03   -0.15136E-03  4639   0.165E-02    0.223E-01
RMM:   6    -0.232100420424E+04    0.34415E-03   -0.59518E-04  3671   0.114E-02    0.719E-02
RMM:   7    -0.232100416760E+04    0.36634E-04   -0.72174E-05  3125   0.497E-03    0.225E-02
RMM:   8    -0.232100416435E+04    0.32595E-05   -0.36430E-05  2879   0.309E-03
   9 F= -.23419395E+04 E0= -.23419381E+04  d E =-.268692E-02  mag=     5.9686
       N       E                     dE             d eps       ncg     rms          rms(c)
DAV:   1    -0.232099520367E+04    0.89639E-02   -0.10445E+01  4480   0.144E+00    0.425E-01
RMM:   2    -0.232099752012E+04   -0.23165E-02   -0.45774E-02  4111   0.898E-02    0.263E-01
RMM:   3    -0.232099827364E+04   -0.75352E-03   -0.43069E-03  5222   0.305E-02    0.454E-01
RMM:   4    -0.232099658587E+04    0.16878E-02   -0.17772E-03  4645   0.198E-02    0.102E-01
RMM:   5    -0.232099671796E+04   -0.13208E-03   -0.58792E-04  3734   0.108E-02    0.143E-01
RMM:   6    -0.232099656272E+04    0.15524E-03   -0.20819E-04  3198   0.745E-03    0.373E-02
RMM:   7    -0.232099655411E+04    0.86020E-05   -0.24220E-05  2847   0.326E-03
  10 F= -.23419320E+04 E0= -.23419306E+04  d E =-.274312E-02  mag=     5.9687
       N       E                     dE             d eps       ncg     rms          rms(c)
DAV:   1    -0.232095925769E+04    0.37305E-01   -0.20470E+01  4480   0.204E+00    0.769E-01
RMM:   2    -0.232096022985E+04   -0.97216E-03   -0.10214E-01  4211   0.129E-01    0.437E-01
RMM:   3    -0.232096025853E+04   -0.28680E-04   -0.11722E-02  5461   0.465E-02    0.538E-01
RMM:   4    -0.232095830048E+04    0.19580E-02   -0.51931E-03  5254   0.320E-02    0.271E-01
RMM:   5    -0.232095788155E+04    0.41894E-03   -0.11368E-03  4573   0.152E-02    0.118E-01
RMM:   6    -0.232095785635E+04    0.25197E-04   -0.34850E-04  3253   0.883E-03    0.109E-01
RMM:   7    -0.232095776776E+04    0.88590E-04   -0.83595E-05  3099   0.534E-03    0.217E-02
RMM:   8    -0.232095776877E+04   -0.10090E-05   -0.33192E-05  3010   0.326E-03
  11 F= -.23418922E+04 E0= -.23418907E+04  d E =-.295751E-02  mag=     5.9662
       N       E                     dE             d eps       ncg     rms          rms(c)
DAV:   1    -0.232096792953E+04   -0.10162E-01   -0.10331E+01  4480   0.150E+00    0.585E-01
RMM:   2    -0.232096828180E+04   -0.35228E-03   -0.53383E-02  4179   0.979E-02    0.317E-01
RMM:   3    -0.232096972892E+04   -0.14471E-02   -0.69541E-03  5496   0.373E-02    0.584E-01
RMM:   4    -0.232096692518E+04    0.28037E-02   -0.26235E-03  4922   0.234E-02    0.131E-01
RMM:   5    -0.232096708696E+04   -0.16178E-03   -0.86207E-04  4282   0.124E-02    0.192E-01
RMM:   6    -0.232096680049E+04    0.28647E-03   -0.42777E-04  3563   0.940E-03    0.490E-02
RMM:   7    -0.232096677799E+04    0.22493E-04   -0.55388E-05  3114   0.448E-03    0.193E-02
RMM:   8    -0.232096677442E+04    0.35706E-05   -0.37858E-05  2959   0.344E-03
  12 F= -.23419015E+04 E0= -.23419000E+04  d E =-.297947E-02  mag=     5.9662
       N       E                     dE             d eps       ncg     rms          rms(c)
DAV:   1    -0.232098734712E+04   -0.20569E-01   -0.19974E+01  4560   0.207E+00    0.961E-01
RMM:   2    -0.232099136837E+04   -0.40212E-02   -0.17145E-01  4323   0.160E-01    0.489E-01
RMM:   3    -0.232099258937E+04   -0.12210E-02   -0.16969E-02  5708   0.661E-02    0.828E-01
RMM:   4    -0.232098702863E+04    0.55607E-02   -0.65987E-03  5371   0.364E-02    0.211E-01
RMM:   5    -0.232098706800E+04   -0.39372E-04   -0.19902E-03  4909   0.203E-02    0.271E-01
RMM:   6    -0.232098646948E+04    0.59852E-03   -0.72775E-04  4169   0.129E-02    0.592E-02
RMM:   7    -0.232098643492E+04    0.34555E-04   -0.16283E-04  3486   0.651E-03    0.358E-02
RMM:   8    -0.232098642969E+04    0.52347E-05   -0.54543E-05  3183   0.517E-03
  13 F= -.23419214E+04 E0= -.23419201E+04  d E =-.274383E-02  mag=     5.9676
       N       E                     dE             d eps       ncg     rms          rms(c)
DAV:   1    -0.232102008628E+04   -0.33651E-01   -0.10040E+01  4480   0.158E+00    0.566E-01
RMM:   2    -0.232102674294E+04   -0.66567E-02   -0.10031E-01  4325   0.116E-01    0.288E-01
RMM:   3    -0.232102554027E+04    0.12027E-02   -0.49932E-03  5086   0.414E-02    0.274E-01
RMM:   4    -0.232102537351E+04    0.16676E-03   -0.17679E-03  4769   0.188E-02    0.232E-01
RMM:   5    -0.232102492278E+04    0.45073E-03   -0.56269E-04  4222   0.128E-02    0.421E-02
RMM:   6    -0.232102492479E+04   -0.20116E-05   -0.94099E-05  3193   0.587E-03
  14 F= -.23419595E+04 E0= -.23419591E+04  d E =-.942633E-03  mag=     5.9815
       N       E                     dE             d eps       ncg     rms          rms(c)
DAV:   1    -0.232094600186E+04    0.78921E-01   -0.20039E+01  4480   0.201E+00    0.645E-01
RMM:   2    -0.232095458136E+04   -0.85795E-02   -0.10024E-01  4408   0.116E-01    0.418E-01
RMM:   3    -0.232095584395E+04   -0.12626E-02   -0.84137E-03  5429   0.478E-02    0.773E-01
RMM:   4    -0.232095216931E+04    0.36746E-02   -0.43100E-03  4975   0.300E-02    0.196E-01
RMM:   5    -0.232095266449E+04   -0.49518E-03   -0.17340E-03  4549   0.190E-02    0.277E-01
RMM:   6    -0.232095207809E+04    0.58639E-03   -0.71004E-04  4375   0.123E-02    0.721E-02
RMM:   7    -0.232095205768E+04    0.20419E-04   -0.12702E-04  3415   0.670E-03    0.331E-02
RMM:   8    -0.232095208629E+04   -0.28619E-04   -0.42695E-05  3080   0.480E-03    0.258E-02
RMM:   9    -0.232095212305E+04   -0.36750E-04   -0.15031E-05  2943   0.379E-03    0.151E-02
RMM:  10    -0.232095215078E+04   -0.27739E-04   -0.59558E-06  2850   0.267E-03    0.130E-02
RMM:  11    -0.232095218113E+04   -0.30347E-04   -0.60820E-06  2835   0.249E-03    0.111E-02
RMM:  12    -0.232095220896E+04   -0.27825E-04   -0.89516E-06  2915   0.273E-03    0.449E-03
RMM:  13    -0.232095221956E+04   -0.10602E-04   -0.32816E-06  2597   0.233E-03    0.256E-03
RMM:  14    -0.232095222687E+04   -0.73074E-05   -0.24043E-06  2605   0.169E-03
  15 F= -.23418875E+04 E0= -.23418824E+04  d E =-.102143E-01  mag=     5.8473
       N       E                     dE             d eps       ncg     rms          rms(c)
DAV:   1    -0.232102866981E+04   -0.76450E-01   -0.97104E+00  4480   0.148E+00    0.610E-01
RMM:   2    -0.232103293963E+04   -0.42698E-02   -0.61362E-02  4416   0.919E-02    0.402E-01
RMM:   3    -0.232103391213E+04   -0.97251E-03   -0.76193E-03  5341   0.458E-02    0.638E-01
RMM:   4    -0.232103087924E+04    0.30329E-02   -0.32350E-03  5067   0.263E-02    0.183E-01
RMM:   5    -0.232103101341E+04   -0.13417E-03   -0.14137E-03  4502   0.172E-02    0.221E-01
RMM:   6    -0.232103061840E+04    0.39501E-03   -0.42821E-04  3713   0.105E-02    0.478E-02
RMM:   7    -0.232103061676E+04    0.16385E-05   -0.75398E-05  3129   0.513E-03
  16 F= -.23419653E+04 E0= -.23419632E+04  d E =-.423199E-02  mag=     5.9122
       N       E                     dE             d eps       ncg     rms          rms(c)
DAV:   1    -0.232092944786E+04    0.10117E+00   -0.19142E+01  4480   0.215E+00    0.809E-01
RMM:   2    -0.232094154301E+04   -0.12095E-01   -0.16000E-01  4456   0.152E-01    0.401E-01
RMM:   3    -0.232094077030E+04    0.77272E-03   -0.99703E-03  5224   0.644E-02    0.582E-01
RMM:   4    -0.232093847103E+04    0.22993E-02   -0.54314E-03  5249   0.303E-02    0.243E-01
RMM:   5    -0.232093814521E+04    0.32582E-03   -0.13061E-03  4683   0.182E-02    0.106E-01
RMM:   6    -0.232093819324E+04   -0.48029E-04   -0.39669E-04  3580   0.105E-02    0.132E-01
RMM:   7    -0.232093806443E+04    0.12881E-03   -0.93820E-05  3101   0.614E-03    0.231E-02
RMM:   8    -0.232093808417E+04   -0.19736E-04   -0.27797E-05  3008   0.360E-03    0.133E-02
RMM:   9    -0.232093809880E+04   -0.14631E-04   -0.74595E-06  2897   0.294E-03    0.934E-03
RMM:  10    -0.232093810863E+04   -0.98344E-05   -0.38785E-06  2798   0.218E-03
  17 F= -.23418732E+04 E0= -.23418722E+04  d E =-.203032E-02  mag=     5.9675
       N       E                     dE             d eps       ncg     rms          rms(c)
DAV:   1    -0.232092186048E+04    0.16238E-01   -0.97325E+00  4480   0.150E+00    0.459E-01
RMM:   2    -0.232092741114E+04   -0.55507E-02   -0.66331E-02  4281   0.862E-02    0.283E-01
RMM:   3    -0.232092678629E+04    0.62485E-03   -0.46755E-03  5117   0.385E-02    0.404E-01
RMM:   4    -0.232092573744E+04    0.10489E-02   -0.19837E-03  4861   0.209E-02    0.191E-01
RMM:   5    -0.232092562634E+04    0.11109E-03   -0.81757E-04  4133   0.146E-02    0.123E-01
RMM:   6    -0.232092551599E+04    0.11035E-03   -0.17423E-04  3135   0.865E-03    0.414E-02
RMM:   7    -0.232092550487E+04    0.11123E-04   -0.28151E-05  2993   0.360E-03    0.184E-02
RMM:   8    -0.232092550525E+04   -0.37505E-06   -0.11803E-05  2949   0.289E-03
  18 F= -.23418610E+04 E0= -.23418583E+04  d E =-.544010E-02  mag=     5.9414
       N       E                     dE             d eps       ncg     rms          rms(c)
DAV:   1    -0.232103931618E+04   -0.11381E+00   -0.19586E+01  4480   0.218E+00    0.565E-01
RMM:   2    -0.232104855266E+04   -0.92365E-02   -0.11063E-01  4313   0.126E-01    0.370E-01
RMM:   3    -0.232104906451E+04   -0.51185E-03   -0.87991E-03  5144   0.533E-02    0.574E-01
RMM:   4    -0.232104661579E+04    0.24487E-02   -0.36634E-03  4943   0.266E-02    0.168E-01
RMM:   5    -0.232104645825E+04    0.15754E-03   -0.74597E-04  4166   0.135E-02    0.500E-02
RMM:   6    -0.232104646919E+04   -0.10943E-04   -0.10555E-04  3130   0.739E-03    0.566E-02
RMM:   7    -0.232104644765E+04    0.21544E-04   -0.41384E-05  2885   0.379E-03    0.246E-02
RMM:   8    -0.232104644790E+04   -0.24935E-06   -0.16536E-05  2929   0.271E-03
  19 F= -.23419808E+04 E0= -.23419800E+04  d E =-.151036E-02  mag=     5.9723
       N       E                     dE             d eps       ncg     rms          rms(c)
DAV:   1    -0.232097488468E+04    0.71563E-01   -0.51875E+00  4480   0.109E+00    0.386E-01
RMM:   2    -0.232097828639E+04   -0.34017E-02   -0.45287E-02  4158   0.743E-02    0.268E-01
RMM:   3    -0.232097850173E+04   -0.21534E-03   -0.36848E-03  5249   0.301E-02    0.430E-01
RMM:   4    -0.232097708818E+04    0.14135E-02   -0.15758E-03  4448   0.183E-02    0.939E-02
RMM:   5    -0.232097708254E+04    0.56371E-05   -0.27493E-04  3589   0.866E-03    0.578E-02
RMM:   6    -0.232097708529E+04   -0.27526E-05   -0.10271E-04  2938   0.592E-03    0.510E-02
RMM:   7    -0.232097706557E+04    0.19724E-04   -0.18365E-05  2813   0.319E-03    0.122E-02
RMM:   8    -0.232097706573E+04   -0.16125E-06   -0.68969E-06  2703   0.184E-03
  20 F= -.23419117E+04 E0= -.23419103E+04  d E =-.286244E-02  mag=     5.9689
       N       E                     dE             d eps       ncg     rms          rms(c)
DAV:   1    -0.232098504334E+04   -0.79778E-02   -0.10956E+00  4880   0.391E-01    0.593E-01
RMM:   2    -0.232098211190E+04    0.29314E-02   -0.31765E-02  4164   0.593E-02    0.277E-01
RMM:   3    -0.232098222454E+04   -0.11264E-03   -0.23953E-03  4225   0.284E-02    0.316E-01
RMM:   4    -0.232098176105E+04    0.46350E-03   -0.14996E-03  4279   0.171E-02    0.202E-01
RMM:   5    -0.232098166553E+04    0.95519E-04   -0.55097E-04  4071   0.113E-02    0.120E-01
RMM:   6    -0.232098157687E+04    0.88652E-04   -0.20504E-04  3062   0.758E-03    0.586E-02
RMM:   7    -0.232098155086E+04    0.26016E-04   -0.27300E-05  2843   0.373E-03    0.125E-02
RMM:   8    -0.232098155074E+04    0.11935E-06   -0.11545E-05  2657   0.218E-03
  21 F= -.23419167E+04 E0= -.23419153E+04  d E =-.287539E-02  mag=     5.9676
       N       E                     dE             d eps       ncg     rms          rms(c)
DAV:   1    -0.232098108671E+04    0.46415E-03   -0.52779E-01  4480   0.253E-01    0.212E-01
RMM:   2    -0.232098150330E+04   -0.41658E-03   -0.23108E-03  3656   0.188E-02    0.129E-01
RMM:   3    -0.232098205038E+04   -0.54709E-03   -0.64287E-04  4321   0.111E-02    0.203E-01
RMM:   4    -0.232098171600E+04    0.33438E-03   -0.24660E-04  3237   0.822E-03    0.274E-02
RMM:   5    -0.232098173870E+04   -0.22695E-04   -0.57712E-05  2933   0.409E-03    0.456E-02
RMM:   6    -0.232098172381E+04    0.14890E-04   -0.21081E-05  2692   0.304E-03    0.127E-02
RMM:   7    -0.232098172374E+04    0.65556E-07   -0.34245E-06  2537   0.169E-03
  22 F= -.23419170E+04 E0= -.23419155E+04  d E =-.292947E-02  mag=     5.9670
       N       E                     dE             d eps       ncg     rms          rms(c)
DAV:   1    -0.232098341315E+04   -0.16893E-02   -0.10939E+00  4720   0.369E-01    0.505E-01
RMM:   2    -0.232098182756E+04    0.15856E-02   -0.20133E-02  4069   0.482E-02    0.252E-01
RMM:   3    -0.232098180224E+04    0.25316E-04   -0.15152E-03  3990   0.222E-02    0.191E-01
RMM:   4    -0.232098215776E+04   -0.35551E-03   -0.12956E-03  4473   0.159E-02    0.262E-01
RMM:   5    -0.232098170586E+04    0.45190E-03   -0.43320E-04  4128   0.112E-02    0.510E-02
RMM:   6    -0.232098171301E+04   -0.71495E-05   -0.92577E-05  2954   0.535E-03
  23 F= -.23419163E+04 E0= -.23419148E+04  d E =-.288275E-02  mag=     5.9674
       N       E                     dE             d eps       ncg     rms          rms(c)
DAV:   1    -0.232099089652E+04   -0.91907E-02   -0.55238E-01  4720   0.265E-01    0.349E-01
RMM:   2    -0.232099020180E+04    0.69472E-03   -0.99087E-03  3905   0.330E-02    0.170E-01
RMM:   3    -0.232099012648E+04    0.75317E-04   -0.50772E-04  3878   0.129E-02    0.104E-01
RMM:   4    -0.232099037556E+04   -0.24908E-03   -0.52284E-04  3723   0.986E-03    0.184E-01
RMM:   5    -0.232099013609E+04    0.23947E-03   -0.23404E-04  3230   0.853E-03    0.334E-02
RMM:   6    -0.232099013588E+04    0.20704E-06   -0.31679E-05  2827   0.383E-03
  24 F= -.23419250E+04 E0= -.23419235E+04  d E =-.300180E-02  mag=     5.9667
       N       E                     dE             d eps       ncg     rms          rms(c)
DAV:   1    -0.232098548737E+04    0.46487E-02   -0.10990E+00  4480   0.362E-01    0.314E-01
RMM:   2    -0.232098608535E+04   -0.59799E-03   -0.51880E-03  3834   0.276E-02    0.184E-01
RMM:   3    -0.232098658890E+04   -0.50355E-03   -0.72211E-04  4475   0.135E-02    0.172E-01
RMM:   4    -0.232098646212E+04    0.12678E-03   -0.44400E-04  3639   0.102E-02    0.986E-02
RMM:   5    -0.232098644138E+04    0.20746E-04   -0.10380E-04  3177   0.645E-03    0.524E-02
RMM:   6    -0.232098642131E+04    0.20069E-04   -0.32581E-05  2800   0.392E-03    0.194E-02
RMM:   7    -0.232098641898E+04    0.23302E-05   -0.53980E-06  2606   0.207E-03
  25 F= -.23419213E+04 E0= -.23419200E+04  d E =-.278098E-02  mag=     5.9680
       N       E                     dE             d eps       ncg     rms          rms(c)
DAV:   1    -0.232099083792E+04   -0.44166E-02   -0.58874E-01  4720   0.290E-01    0.330E-01
RMM:   2    -0.232099008030E+04    0.75762E-03   -0.71351E-03  3846   0.302E-02    0.186E-01
RMM:   3    -0.232099023403E+04   -0.15374E-03   -0.12543E-03  4183   0.167E-02    0.236E-01
RMM:   4    -0.232098985578E+04    0.37825E-03   -0.79822E-04  3736   0.117E-02    0.101E-01
RMM:   5    -0.232098980949E+04    0.46293E-04   -0.10453E-04  3147   0.606E-03    0.321E-02
RMM:   6    -0.232098981698E+04   -0.74856E-05   -0.41772E-05  2811   0.403E-03
  26 F= -.23419253E+04 E0= -.23419238E+04  d E =-.291968E-02  mag=     5.9681
       N       E                     dE             d eps       ncg     rms          rms(c)
DAV:   1    -0.232097830059E+04    0.11509E-01   -0.12881E+00  4960   0.405E-01    0.608E-01
RMM:   2    -0.232097284438E+04    0.54562E-02   -0.19528E-02  4338   0.488E-02    0.336E-01
RMM:   3    -0.232097358949E+04   -0.74512E-03   -0.53838E-03  4791   0.363E-02    0.492E-01
RMM:   4    -0.232097160432E+04    0.19852E-02   -0.26322E-03  4877   0.220E-02    0.158E-01
RMM:   5    -0.232097148799E+04    0.11633E-03   -0.41825E-04  3521   0.935E-03    0.737E-02
RMM:   6    -0.232097151517E+04   -0.27177E-04   -0.17717E-04  3075   0.688E-03    0.955E-02
RMM:   7    -0.232097144692E+04    0.68245E-04   -0.61842E-05  2844   0.458E-03    0.170E-02
RMM:   8    -0.232097144428E+04    0.26386E-05   -0.12306E-05  2556   0.211E-03
  27 F= -.23419059E+04 E0= -.23419044E+04  d E =-.293565E-02  mag=     5.9671
       N       E                     dE             d eps       ncg     rms          rms(c)
DAV:   1    -0.232099284823E+04   -0.21401E-01   -0.61458E-01  4720   0.283E-01    0.306E-01
RMM:   2    -0.232099230022E+04    0.54801E-03   -0.38565E-03  3886   0.225E-02    0.184E-01
RMM:   3    -0.232099277419E+04   -0.47398E-03   -0.15399E-03  4658   0.162E-02    0.292E-01
RMM:   4    -0.232099206991E+04    0.70428E-03   -0.73478E-04  3769   0.117E-02    0.671E-02
RMM:   5    -0.232099205974E+04    0.10176E-04   -0.12204E-04  3297   0.561E-03    0.332E-02
RMM:   6    -0.232099206154E+04   -0.18014E-05   -0.35416E-05  2645   0.363E-03
  28 F= -.23419267E+04 E0= -.23419253E+04  d E =-.286978E-02  mag=     5.9677
       N       E                     dE             d eps       ncg     rms          rms(c)
DAV:   1    -0.232098208322E+04    0.99765E-02   -0.12291E+00  4960   0.403E-01    0.448E-01
RMM:   2    -0.232098052968E+04    0.15535E-02   -0.89549E-03  3912   0.332E-02    0.251E-01
RMM:   3    -0.232098022977E+04    0.29990E-03   -0.17230E-03  4563   0.188E-02    0.192E-01
RMM:   4    -0.232098037246E+04   -0.14269E-03   -0.12450E-03  4485   0.152E-02    0.229E-01
RMM:   5    -0.232097996888E+04    0.40358E-03   -0.34144E-04  3769   0.949E-03    0.414E-02
RMM:   6    -0.232097997929E+04   -0.10414E-04   -0.76949E-05  2830   0.466E-03    0.562E-02
RMM:   7    -0.232097995501E+04    0.24282E-04   -0.26110E-05  2654   0.297E-03    0.945E-03
RMM:   8    -0.232097995484E+04    0.16691E-06   -0.52076E-06  2485   0.156E-03
  29 F= -.23419151E+04 E0= -.23419137E+04  d E =-.296132E-02  mag=     5.9667
       N       E                     dE             d eps       ncg     rms          rms(c)
DAV:   1    -0.232100893183E+04   -0.28977E-01   -0.62051E-01  4960   0.284E-01    0.320E-01
RMM:   2    -0.232100819064E+04    0.74119E-03   -0.40302E-03  3860   0.220E-02    0.181E-01
RMM:   3    -0.232100810654E+04    0.84098E-04   -0.96718E-04  4344   0.144E-02    0.156E-01
RMM:   4    -0.232100806979E+04    0.36753E-04   -0.57713E-04  3812   0.103E-02    0.146E-01
RMM:   5    -0.232100791621E+04    0.15357E-03   -0.14335E-04  3338   0.690E-03    0.282E-02
RMM:   6    -0.232100792391E+04   -0.76975E-05   -0.43254E-05  2731   0.388E-03
  30 F= -.23419430E+04 E0= -.23419416E+04  d E =-.276418E-02  mag=     5.9680
       N       E                     dE             d eps       ncg     rms          rms(c)
DAV:   1    -0.232096816547E+04    0.39751E-01   -0.12591E+00  4720   0.388E-01    0.384E-01
RMM:   2    -0.232096769885E+04    0.46662E-03   -0.59143E-03  3822   0.264E-02    0.225E-01
RMM:   3    -0.232096807701E+04   -0.37816E-03   -0.21570E-03  4941   0.179E-02    0.277E-01
RMM:   4    -0.232096744881E+04    0.62820E-03   -0.77762E-04  3880   0.128E-02    0.550E-02
RMM:   5    -0.232096744423E+04    0.45757E-05   -0.95685E-05  3011   0.530E-03
  31 F= -.23419022E+04 E0= -.23419007E+04  d E =-.293219E-02  mag=     5.9670
