       N       E                     dE             d eps       ncg     rms          rms(c)
DAV:   1     0.129735524134E+05    0.12974E+05   -0.84035E+05  4504   0.144E+03
DAV:   2    -0.105441863239E+04   -0.14028E+05   -0.13413E+05  5160   0.331E+02
DAV:   3    -0.248052184844E+04   -0.14261E+04   -0.14110E+04  5440   0.112E+02
DAV:   4    -0.252611306409E+04   -0.45591E+02   -0.45357E+02  6792   0.300E+01
DAV:   5    -0.252689277963E+04   -0.77972E+00   -0.77846E+00  6032   0.333E+00    0.170E+02
RMM:   6    -0.149186361069E+04    0.10350E+04   -0.19360E+03  4447   0.383E+01    0.722E+01
RMM:   7    -0.165859823079E+04   -0.16673E+03   -0.28720E+02  4992   0.140E+01    0.469E+01
RMM:   8    -0.171659169209E+04   -0.57993E+02   -0.28730E+01  5308   0.633E+00    0.348E+01
RMM:   9    -0.186484295649E+04   -0.14825E+03   -0.71362E+01  5045   0.826E+00    0.388E+01
RMM:  10    -0.193377853114E+04   -0.68936E+02   -0.39991E+01  5171   0.585E+00    0.226E+01
RMM:  11    -0.203464187023E+04   -0.10086E+03   -0.43614E+01  4817   0.534E+00    0.170E+01
RMM:  12    -0.209288986237E+04   -0.58248E+02   -0.20768E+01  5115   0.385E+00    0.168E+01
RMM:  13    -0.215133300205E+04   -0.58443E+02   -0.23293E+01  4781   0.388E+00    0.131E+01
RMM:  14    -0.225459102949E+04   -0.10326E+03   -0.83445E+01  4455   0.651E+00    0.882E+00
RMM:  15    -0.230512271617E+04   -0.50532E+02   -0.50210E+01  4454   0.509E+00    0.774E+00
RMM:  16    -0.231173149545E+04   -0.66088E+01   -0.88721E+00  4972   0.278E+00    0.549E+00
RMM:  17    -0.231596016527E+04   -0.42287E+01   -0.42574E+00  4549   0.123E+00    0.301E+00
RMM:  18    -0.231848198234E+04   -0.25218E+01   -0.13000E+00  4713   0.104E+00    0.131E+00
RMM:  19    -0.231905928453E+04   -0.57730E+00   -0.36448E-01  4777   0.409E-01    0.753E-01
RMM:  20    -0.231920933736E+04   -0.15005E+00   -0.82960E-02  4695   0.277E-01    0.346E-01
RMM:  21    -0.231925243896E+04   -0.43102E-01   -0.25208E-02  4672   0.143E-01    0.191E-01
RMM:  22    -0.231927433198E+04   -0.21893E-01   -0.79972E-03  4578   0.824E-02    0.144E-01
RMM:  23    -0.231929165178E+04   -0.17320E-01   -0.68318E-03  4507   0.648E-02    0.747E-02
RMM:  24    -0.231930091928E+04   -0.92675E-02   -0.28888E-03  4521   0.495E-02    0.571E-02
RMM:  25    -0.231930680952E+04   -0.58902E-02   -0.19067E-03  4528   0.313E-02    0.363E-02
RMM:  26    -0.231931072351E+04   -0.39140E-02   -0.14532E-03  4506   0.311E-02    0.217E-02
RMM:  27    -0.231931147003E+04   -0.74652E-03   -0.36062E-04  4242   0.173E-02    0.137E-02
RMM:  28    -0.231931187421E+04   -0.40418E-03   -0.12262E-04  3680   0.891E-03    0.569E-03
RMM:  29    -0.231931203915E+04   -0.16495E-03   -0.40013E-05  3373   0.699E-03    0.543E-03
RMM:  30    -0.231931212994E+04   -0.90784E-04   -0.23853E-05  3118   0.441E-03    0.254E-03
RMM:  31    -0.231931216812E+04   -0.38187E-04   -0.10106E-05  2867   0.362E-03    0.227E-03
RMM:  32    -0.231931218095E+04   -0.12830E-04   -0.52944E-06  2568   0.255E-03    0.100E-03
RMM:  33    -0.231931218470E+04   -0.37508E-05   -0.31302E-06  2476   0.210E-03
   1 F= -.23402101E+04 E0= -.23402101E+04  d E =-.234021E+04  mag=     5.0001
       N       E                     dE             d eps       ncg     rms          rms(c)
DAV:   1    -0.231930484176E+04    0.73392E-02   -0.76246E+00  5136   0.191E+00    0.846E-01
RMM:   2    -0.231947468628E+04   -0.16984E+00   -0.17760E+00  6454   0.568E-01    0.515E-01
RMM:   3    -0.231949094412E+04   -0.16258E-01   -0.21108E-01  5956   0.240E-01    0.511E-01
RMM:   4    -0.231949009192E+04    0.85221E-03   -0.15429E-02  5222   0.401E-02    0.302E-01
RMM:   5    -0.231948903382E+04    0.10581E-02   -0.24462E-03  5089   0.226E-02    0.200E-01
RMM:   6    -0.231948867306E+04    0.36076E-03   -0.19540E-03  5181   0.179E-02    0.127E-01
RMM:   7    -0.231948862604E+04    0.47016E-04   -0.52336E-04  3621   0.121E-02    0.982E-02
RMM:   8    -0.231948851503E+04    0.11101E-03   -0.10473E-04  3030   0.701E-03    0.388E-02
RMM:   9    -0.231948849375E+04    0.21285E-04   -0.76062E-05  2959   0.523E-03    0.123E-02
RMM:  10    -0.231948849280E+04    0.94192E-06   -0.18640E-05  2912   0.315E-03
   2 F= -.23403853E+04 E0= -.23403853E+04  d E =-.175150E+00  mag=     5.0000
       N       E                     dE             d eps       ncg     rms          rms(c)
DAV:   1    -0.231910557993E+04    0.38291E+00   -0.19485E+01  4672   0.309E+00    0.137E+00
RMM:   2    -0.231956937285E+04   -0.46379E+00   -0.48502E+00  6460   0.976E-01    0.885E-01
RMM:   3    -0.231961438459E+04   -0.45012E-01   -0.58336E-01  6035   0.405E-01    0.931E-01
RMM:   4    -0.231960929030E+04    0.50943E-02   -0.40451E-02  5913   0.669E-02    0.482E-01
RMM:   5    -0.231960648100E+04    0.28093E-02   -0.73737E-03  5667   0.382E-02    0.357E-01
RMM:   6    -0.231960613837E+04    0.34263E-03   -0.52036E-03  5637   0.279E-02    0.348E-01
RMM:   7    -0.231960513677E+04    0.10016E-02   -0.24652E-03  5245   0.225E-02    0.130E-01
RMM:   8    -0.231960497397E+04    0.16280E-03   -0.32847E-04  3347   0.981E-03    0.737E-02
RMM:   9    -0.231960488822E+04    0.85744E-04   -0.21101E-04  3150   0.909E-03    0.216E-02
RMM:  10    -0.231960488382E+04    0.44022E-05   -0.56588E-05  3009   0.464E-03
   3 F= -.23405007E+04 E0= -.23405007E+04  d E =-.290581E+00  mag=     5.0000
       N       E                     dE             d eps       ncg     rms          rms(c)
DAV:   1    -0.231959065836E+04    0.14230E-01   -0.82855E+00  4624   0.225E+00    0.879E-01
RMM:   2    -0.231966746535E+04   -0.76807E-01   -0.81892E-01  6184   0.517E-01    0.762E-01
RMM:   3    -0.231966810148E+04   -0.63613E-03   -0.75119E-02  6074   0.175E-01    0.559E-01
RMM:   4    -0.231966505050E+04    0.30510E-02   -0.87366E-03  5747   0.472E-02    0.288E-01
RMM:   5    -0.231966519698E+04   -0.14648E-03   -0.35928E-03  5611   0.330E-02    0.369E-01
RMM:   6    -0.231966376774E+04    0.14292E-02   -0.17994E-03  5456   0.248E-02    0.926E-02
RMM:   7    -0.231966370221E+04    0.65525E-04   -0.42076E-04  4410   0.149E-02    0.366E-02
RMM:   8    -0.231966367625E+04    0.25960E-04   -0.55119E-05  3214   0.667E-03    0.198E-02
RMM:   9    -0.231966366252E+04    0.13735E-04   -0.26234E-05  2992   0.480E-03    0.896E-03
RMM:  10    -0.231966365836E+04    0.41584E-05   -0.12416E-05  2887   0.411E-03
   4 F= -.23405622E+04 E0= -.23405622E+04  d E =-.615041E-01  mag=     5.0000
       N       E                     dE             d eps       ncg     rms          rms(c)
DAV:   1    -0.231966248399E+04    0.11785E-02   -0.23642E-01  4876   0.385E-01    0.149E-01
RMM:   2    -0.231966466992E+04   -0.21859E-02   -0.23330E-02  6203   0.885E-02    0.131E-01
RMM:   3    -0.231966466933E+04    0.59462E-06   -0.21391E-03  4615   0.295E-02    0.930E-02
RMM:   4    -0.231966458698E+04    0.82351E-04   -0.24872E-04  3314   0.890E-03    0.521E-02
RMM:   5    -0.231966458557E+04    0.14057E-05   -0.10034E-04  3039   0.660E-03    0.598E-02
RMM:   6    -0.231966454533E+04    0.40236E-04   -0.59264E-05  3114   0.629E-03    0.143E-02
RMM:   7    -0.231966454346E+04    0.18721E-05   -0.17522E-05  2927   0.476E-03
   5 F= -.23405636E+04 E0= -.23405636E+04  d E =-.628340E-01  mag=     5.0000
       N       E                     dE             d eps       ncg     rms          rms(c)
DAV:   1    -0.231968101163E+04   -0.16466E-01   -0.17499E+00  4592   0.932E-01    0.376E-01
RMM:   2    -0.231970589070E+04   -0.24879E-01   -0.26471E-01  6558   0.240E-01    0.298E-01
RMM:   3    -0.231970773469E+04   -0.18440E-02   -0.28277E-02  5653   0.844E-02    0.219E-01
RMM:   4    -0.231970737602E+04    0.35867E-03   -0.23950E-03  4160   0.184E-02    0.115E-01
RMM:   5    -0.231970737797E+04   -0.19494E-05   -0.37100E-04  3596   0.982E-03    0.130E-01
RMM:   6    -0.231970723209E+04    0.14588E-03   -0.26364E-04  3454   0.934E-03    0.464E-02
RMM:   7    -0.231970723122E+04    0.86325E-06   -0.74639E-05  3110   0.626E-03
   6 F= -.23406071E+04 E0= -.23406071E+04  d E =-.435546E-01  mag=     5.0000
       N       E                     dE             d eps       ncg     rms          rms(c)
DAV:   1    -0.231956444505E+04    0.14279E+00   -0.15711E+01  4528   0.280E+00    0.113E+00
RMM:   2    -0.231978731465E+04   -0.22287E+00   -0.23779E+00  6574   0.711E-01    0.864E-01
RMM:   3    -0.231980769895E+04   -0.20384E-01   -0.27932E-01  6067   0.259E-01    0.669E-01
RMM:   4    -0.231980451434E+04    0.31846E-02   -0.21999E-02  5959   0.560E-02    0.330E-01
RMM:   5    -0.231980416528E+04    0.34906E-03   -0.31938E-03  5067   0.264E-02    0.317E-01
RMM:   6    -0.231980352261E+04    0.64267E-03   -0.19334E-03  5118   0.226E-02    0.195E-01
RMM:   7    -0.231980333917E+04    0.18344E-03   -0.60712E-04  4587   0.137E-02    0.613E-02
RMM:   8    -0.231980331230E+04    0.26871E-04   -0.10110E-04  3109   0.844E-03    0.234E-02
RMM:   9    -0.231980330386E+04    0.84371E-05   -0.24836E-05  2928   0.409E-03
   7 F= -.23407054E+04 E0= -.23407054E+04  d E =-.141813E+00  mag=     5.0000
       N       E                     dE             d eps       ncg     rms          rms(c)
DAV:   1    -0.231886466984E+04    0.93864E+00   -0.62504E+01  4488   0.558E+00    0.231E+00
RMM:   2    -0.231978653773E+04   -0.92187E+00   -0.98537E+00  6528   0.142E+00    0.169E+00
RMM:   3    -0.231987553870E+04   -0.89001E-01   -0.11414E+00  5856   0.573E-01    0.140E+00
RMM:   4    -0.231985996520E+04    0.15573E-01   -0.90870E-02  6320   0.117E-01    0.651E-01
RMM:   5    -0.231985635181E+04    0.36134E-02   -0.11956E-02  5132   0.495E-02    0.413E-01
RMM:   6    -0.231985764818E+04   -0.12964E-02   -0.72911E-03  5576   0.443E-02    0.555E-01
RMM:   7    -0.231985522248E+04    0.24257E-02   -0.33041E-03  5518   0.287E-02    0.128E-01
RMM:   8    -0.231985511914E+04    0.10334E-03   -0.64826E-04  4261   0.131E-02    0.561E-02
RMM:   9    -0.231985508213E+04    0.37007E-04   -0.92267E-05  3044   0.716E-03    0.232E-02
RMM:  10    -0.231985507493E+04    0.71991E-05   -0.41534E-05  3052   0.496E-03
   8 F= -.23407594E+04 E0= -.23407594E+04  d E =-.195813E+00  mag=     5.0000
       N       E                     dE             d eps       ncg     rms          rms(c)
DAV:   1    -0.231985440288E+04    0.67925E-03   -0.24360E+00  4640   0.116E+00    0.462E-01
RMM:   2    -0.231989009412E+04   -0.35691E-01   -0.37911E-01  6421   0.288E-01    0.345E-01
RMM:   3    -0.231989284540E+04   -0.27513E-02   -0.41488E-02  5920   0.102E-01    0.243E-01
RMM:   4    -0.231989237861E+04    0.46679E-03   -0.34575E-03  4776   0.221E-02    0.127E-01
RMM:   5    -0.231989236336E+04    0.15246E-04   -0.48283E-04  3896   0.116E-02    0.132E-01
RMM:   6    -0.231989221374E+04    0.14962E-03   -0.31220E-04  3890   0.105E-02    0.609E-02
RMM:   7    -0.231989220468E+04    0.90579E-05   -0.91214E-05  3192   0.722E-03
   9 F= -.23407962E+04 E0= -.23407962E+04  d E =-.368680E-01  mag=     5.0000
       N       E                     dE             d eps       ncg     rms          rms(c)
DAV:   1    -0.231962307758E+04    0.26914E+00   -0.21902E+01  4492   0.349E+00    0.138E+00
RMM:   2    -0.231994429842E+04   -0.32122E+00   -0.34213E+00  6360   0.842E-01    0.101E+00
RMM:   3    -0.231997673596E+04   -0.32438E-01   -0.42143E-01  5946   0.343E-01    0.789E-01
RMM:   4    -0.231997174076E+04    0.49952E-02   -0.32628E-02  6227   0.690E-02    0.373E-01
RMM:   5    -0.231997095946E+04    0.78130E-03   -0.42636E-03  5042   0.313E-02    0.302E-01
RMM:   6    -0.231997078707E+04    0.17239E-03   -0.26324E-03  5552   0.265E-02    0.292E-01
RMM:   7    -0.231997019724E+04    0.58983E-03   -0.99650E-04  4899   0.180E-02    0.691E-02
RMM:   8    -0.231997015861E+04    0.38631E-04   -0.18090E-04  3352   0.983E-03    0.287E-02
RMM:   9    -0.231997014681E+04    0.11797E-04   -0.34919E-05  2933   0.507E-03    0.120E-02
RMM:  10    -0.231997014431E+04    0.25030E-05   -0.14075E-05  2921   0.360E-03
  10 F= -.23408728E+04 E0= -.23408728E+04  d E =-.113458E+00  mag=     5.0000
       N       E                     dE             d eps       ncg     rms          rms(c)
DAV:   1    -0.231848711971E+04    0.14830E+01   -0.87434E+01  4480   0.697E+00    0.280E+00
RMM:   2    -0.231987173223E+04   -0.13846E+01   -0.14694E+01  6328   0.171E+00    0.211E+00
RMM:   3    -0.232000189695E+04   -0.13016E+00   -0.16627E+00  5753   0.729E-01    0.181E+00
RMM:   4    -0.231997088197E+04    0.31015E-01   -0.12624E-01  6450   0.139E-01    0.781E-01
RMM:   5    -0.231996537167E+04    0.55103E-02   -0.16019E-02  5039   0.596E-02    0.508E-01
RMM:   6    -0.231996672978E+04   -0.13581E-02   -0.10413E-02  5784   0.542E-02    0.665E-01
RMM:   7    -0.231996330537E+04    0.34244E-02   -0.53403E-03  5797   0.382E-02    0.166E-01
RMM:   8    -0.231996308914E+04    0.21624E-03   -0.10298E-03  4925   0.162E-02    0.844E-02
RMM:   9    -0.231996299681E+04    0.92321E-04   -0.17988E-04  3300   0.108E-02    0.294E-02
RMM:  10    -0.231996298100E+04    0.15818E-04   -0.71848E-05  3282   0.577E-03    0.122E-02
RMM:  11    -0.231996297866E+04    0.23397E-05   -0.15942E-05  2928   0.471E-03
  11 F= -.23408611E+04 E0= -.23408611E+04  d E =-.101716E+00  mag=     5.0000
       N       E                     dE             d eps       ncg     rms          rms(c)
DAV:   1    -0.231956081415E+04    0.40217E+00   -0.27909E+01  4488   0.390E+00    0.159E+00
RMM:   2    -0.231998711754E+04   -0.42630E+00   -0.44438E+00  6422   0.100E+00    0.137E+00
RMM:   3    -0.231999945802E+04   -0.12340E-01   -0.48301E-01  5648   0.358E-01    0.659E-01
RMM:   4    -0.231999718281E+04    0.22752E-02   -0.41034E-02  5748   0.705E-02    0.434E-01
RMM:   5    -0.231999683848E+04    0.34433E-03   -0.48936E-03  5154   0.366E-02    0.473E-01
RMM:   6    -0.231999506068E+04    0.17778E-02   -0.41703E-03  5651   0.331E-02    0.215E-01
RMM:   7    -0.231999493262E+04    0.12805E-03   -0.15646E-03  4989   0.225E-02    0.733E-02
RMM:   8    -0.231999486121E+04    0.71408E-04   -0.17561E-04  3299   0.101E-02    0.328E-02
RMM:   9    -0.231999484105E+04    0.20161E-04   -0.91770E-05  3203   0.579E-03    0.183E-02
RMM:  10    -0.231999483707E+04    0.39871E-05   -0.19936E-05  2897   0.453E-03
  12 F= -.23408958E+04 E0= -.23408958E+04  d E =-.136392E+00  mag=     5.0000
       N       E                     dE             d eps       ncg     rms          rms(c)
DAV:   1    -0.232002278624E+04   -0.27945E-01   -0.83532E-01  4592   0.694E-01    0.308E-01
RMM:   2    -0.232003610310E+04   -0.13317E-01   -0.14727E-01  6224   0.173E-01    0.192E-01
RMM:   3    -0.232003749771E+04   -0.13946E-02   -0.18870E-02  5453   0.845E-02    0.188E-01
RMM:   4    -0.232003733772E+04    0.15999E-03   -0.14206E-03  3660   0.150E-02    0.101E-01
RMM:   5    -0.232003722098E+04    0.11674E-03   -0.31356E-04  4020   0.107E-02    0.621E-02
RMM:   6    -0.232003720035E+04    0.20627E-04   -0.20082E-04  3380   0.922E-03    0.498E-02
RMM:   7    -0.232003717591E+04    0.24439E-04   -0.46495E-05  2995   0.617E-03    0.201E-02
RMM:   8    -0.232003717177E+04    0.41412E-05   -0.10076E-05  2902   0.378E-03
  13 F= -.23409370E+04 E0= -.23409370E+04  d E =-.412647E-01  mag=     5.0000
       N       E                     dE             d eps       ncg     rms          rms(c)
DAV:   1    -0.231997110874E+04    0.66067E-01   -0.75309E+00  4488   0.208E+00    0.923E-01
RMM:   2    -0.232009094647E+04   -0.11984E+00   -0.13254E+00  6178   0.514E-01    0.584E-01
RMM:   3    -0.232010382409E+04   -0.12878E-01   -0.16999E-01  5816   0.247E-01    0.632E-01
RMM:   4    -0.232010175603E+04    0.20681E-02   -0.13245E-02  5872   0.438E-02    0.313E-01
RMM:   5    -0.232010068400E+04    0.10720E-02   -0.29477E-03  5387   0.281E-02    0.200E-01
RMM:   6    -0.232010044598E+04    0.23801E-03   -0.26802E-03  5513   0.264E-02    0.161E-01
RMM:   7    -0.232010017736E+04    0.26863E-03   -0.52055E-04  4646   0.139E-02    0.679E-02
RMM:   8    -0.232010012129E+04    0.56064E-04   -0.90925E-05  3066   0.690E-03    0.256E-02
RMM:   9    -0.232010010877E+04    0.12520E-04   -0.49112E-05  2961   0.535E-03    0.919E-03
RMM:  10    -0.232010010799E+04    0.77937E-06   -0.12376E-05  2933   0.369E-03
  14 F= -.23409968E+04 E0= -.23409968E+04  d E =-.101039E+00  mag=     5.0000
       N       E                     dE             d eps       ncg     rms          rms(c)
DAV:   1    -0.232011164459E+04   -0.11536E-01   -0.13935E+00  4528   0.857E-01    0.345E-01
RMM:   2    -0.232012682328E+04   -0.15179E-01   -0.16467E-01  6208   0.192E-01    0.318E-01
RMM:   3    -0.232012738515E+04   -0.56188E-03   -0.16739E-02  5545   0.813E-02    0.286E-01
RMM:   4    -0.232012683680E+04    0.54835E-03   -0.18376E-03  3977   0.181E-02    0.138E-01
RMM:   5    -0.232012662766E+04    0.20914E-03   -0.68328E-04  4204   0.138E-02    0.110E-01
RMM:   6    -0.232012646615E+04    0.16151E-03   -0.46800E-04  4174   0.120E-02    0.621E-02
RMM:   7    -0.232012642246E+04    0.43690E-04   -0.98039E-05  3070   0.687E-03    0.225E-02
RMM:   8    -0.232012641766E+04    0.47998E-05   -0.18223E-05  2940   0.424E-03
  15 F= -.23410218E+04 E0= -.23410218E+04  d E =-.250171E-01  mag=     5.0000
       N       E                     dE             d eps       ncg     rms          rms(c)
DAV:   1    -0.232012641351E+04    0.89564E-05   -0.34304E-01  4672   0.427E-01    0.170E-01
RMM:   2    -0.232013013950E+04   -0.37260E-02   -0.40226E-02  6189   0.948E-02    0.165E-01
RMM:   3    -0.232013026102E+04   -0.12152E-03   -0.40820E-03  4223   0.399E-02    0.143E-01
RMM:   4    -0.232013011741E+04    0.14361E-03   -0.43727E-04  3191   0.963E-03    0.666E-02
RMM:   5    -0.232013006053E+04    0.56882E-04   -0.16529E-04  3169   0.734E-03    0.516E-02
RMM:   6    -0.232013002636E+04    0.34162E-04   -0.11358E-04  3160   0.700E-03    0.321E-02
RMM:   7    -0.232013001485E+04    0.11516E-04   -0.27244E-05  2947   0.462E-03    0.112E-02
RMM:   8    -0.232013001420E+04    0.64672E-06   -0.67344E-06  2781   0.290E-03
  16 F= -.23410248E+04 E0= -.23410248E+04  d E =-.279631E-01  mag=     5.0000
       N       E                     dE             d eps       ncg     rms          rms(c)
DAV:   1    -0.232013309664E+04   -0.30818E-02   -0.66516E-01  4528   0.718E-01    0.256E-01
RMM:   2    -0.232014130322E+04   -0.82066E-02   -0.83558E-02  6110   0.155E-01    0.310E-01
RMM:   3    -0.232014133193E+04   -0.28706E-04   -0.86638E-03  5556   0.585E-02    0.188E-01
RMM:   4    -0.232014105113E+04    0.28079E-03   -0.91373E-04  4178   0.142E-02    0.736E-02
RMM:   5    -0.232014096687E+04    0.84265E-04   -0.19850E-04  3987   0.107E-02    0.459E-02
RMM:   6    -0.232014096587E+04    0.99935E-06   -0.12070E-04  3220   0.831E-03    0.397E-02
RMM:   7    -0.232014094564E+04    0.20233E-04   -0.34669E-05  2970   0.562E-03    0.876E-03
RMM:   8    -0.232014094531E+04    0.32506E-06   -0.64396E-06  2883   0.310E-03
  17 F= -.23410354E+04 E0= -.23410354E+04  d E =-.106021E-01  mag=     5.0000
       N       E                     dE             d eps       ncg     rms          rms(c)
DAV:   1    -0.232013737069E+04    0.35750E-02   -0.60697E-01  4528   0.689E-01    0.244E-01
RMM:   2    -0.232014486262E+04   -0.74919E-02   -0.76263E-02  6106   0.150E-01    0.294E-01
RMM:   3    -0.232014490554E+04   -0.42915E-04   -0.80829E-03  5450   0.561E-02    0.179E-01
RMM:   4    -0.232014465229E+04    0.25324E-03   -0.84098E-04  4055   0.136E-02    0.707E-02
RMM:   5    -0.232014458194E+04    0.70353E-04   -0.19002E-04  3965   0.102E-02    0.484E-02
RMM:   6    -0.232014457551E+04    0.64279E-05   -0.11459E-04  3203   0.803E-03    0.401E-02
RMM:   7    -0.232014455545E+04    0.20060E-04   -0.33917E-05  2971   0.550E-03    0.805E-03
RMM:   8    -0.232014455538E+04    0.74884E-07   -0.68860E-06  2885   0.327E-03
  18 F= -.23410387E+04 E0= -.23410387E+04  d E =-.139026E-01  mag=     5.0000
       N       E                     dE             d eps       ncg     rms          rms(c)
DAV:   1    -0.232014272033E+04    0.18351E-02   -0.55247E-01  4528   0.701E-01    0.257E-01
RMM:   2    -0.232015323262E+04   -0.10512E-01   -0.10536E-01  6248   0.167E-01    0.319E-01
RMM:   3    -0.232015317235E+04    0.60275E-04   -0.10308E-02  5660   0.557E-02    0.165E-01
RMM:   4    -0.232015304950E+04    0.12285E-03   -0.10943E-03  3933   0.134E-02    0.844E-02
RMM:   5    -0.232015298907E+04    0.60431E-04   -0.16405E-04  3147   0.806E-03    0.604E-02
RMM:   6    -0.232015293866E+04    0.50404E-04   -0.11433E-04  3817   0.776E-03    0.311E-02
RMM:   7    -0.232015293301E+04    0.56580E-05   -0.39590E-05  2928   0.655E-03
  19 F= -.23410469E+04 E0= -.23410469E+04  d E =-.824524E-02  mag=     5.0000
       N       E                     dE             d eps       ncg     rms          rms(c)
DAV:   1    -0.232007211465E+04    0.80824E-01   -0.49649E+00  4488   0.210E+00    0.769E-01
RMM:   2    -0.232016670045E+04   -0.94586E-01   -0.95069E-01  6312   0.500E-01    0.946E-01
RMM:   3    -0.232016639616E+04    0.30429E-03   -0.94851E-02  6047   0.169E-01    0.475E-01
RMM:   4    -0.232016530301E+04    0.10932E-02   -0.93593E-03  5456   0.390E-02    0.233E-01
RMM:   5    -0.232016491835E+04    0.38466E-03   -0.14659E-03  5051   0.217E-02    0.185E-01
RMM:   6    -0.232016445630E+04    0.46205E-03   -0.90613E-04  4946   0.188E-02    0.963E-02
RMM:   7    -0.232016439176E+04    0.64532E-04   -0.30621E-04  4133   0.150E-02    0.221E-02
RMM:   8    -0.232016438940E+04    0.23595E-05   -0.44034E-05  3145   0.535E-03
  20 F= -.23410579E+04 E0= -.23410579E+04  d E =-.192351E-01  mag=     5.0000
       N       E                     dE             d eps       ncg     rms          rms(c)
DAV:   1    -0.232016531425E+04   -0.92249E-03   -0.24425E-01  4872   0.452E-01    0.163E-01
RMM:   2    -0.232017002929E+04   -0.47150E-02   -0.47828E-02  6431   0.109E-01    0.190E-01
RMM:   3    -0.232017008393E+04   -0.54633E-04   -0.47022E-03  4617   0.345E-02    0.105E-01
RMM:   4    -0.232017003711E+04    0.46813E-04   -0.48977E-04  3139   0.900E-03    0.571E-02
RMM:   5    -0.232017001535E+04    0.21766E-04   -0.74196E-05  3006   0.544E-03    0.459E-02
RMM:   6    -0.232016998791E+04    0.27438E-04   -0.54777E-05  3039   0.526E-03    0.200E-02
RMM:   7    -0.232016998622E+04    0.16822E-05   -0.22766E-05  2920   0.441E-03
  21 F= -.23410632E+04 E0= -.23410632E+04  d E =-.535274E-02  mag=     5.0000
       N       E                     dE             d eps       ncg     rms          rms(c)
DAV:   1    -0.232013842625E+04    0.31562E-01   -0.21910E+00  4504   0.135E+00    0.484E-01
RMM:   2    -0.232018049370E+04   -0.42067E-01   -0.42773E-01  6424   0.323E-01    0.553E-01
RMM:   3    -0.232018124616E+04   -0.75246E-03   -0.43151E-02  6014   0.108E-01    0.303E-01
RMM:   4    -0.232018080978E+04    0.43638E-03   -0.42178E-03  4896   0.245E-02    0.161E-01
RMM:   5    -0.232018065959E+04    0.15019E-03   -0.65607E-04  4131   0.136E-02    0.139E-01
RMM:   6    -0.232018039870E+04    0.26089E-03   -0.46673E-04  4702   0.130E-02    0.601E-02
RMM:   7    -0.232018037425E+04    0.24447E-04   -0.16683E-04  3492   0.100E-02    0.160E-02
RMM:   8    -0.232018037234E+04    0.19135E-05   -0.18877E-05  2941   0.456E-03
  22 F= -.23410729E+04 E0= -.23410729E+04  d E =-.149787E-01  mag=     5.0000
       N       E                     dE             d eps       ncg     rms          rms(c)
DAV:   1    -0.232017189906E+04    0.84752E-02   -0.52361E-01  4560   0.660E-01    0.238E-01
RMM:   2    -0.232018201343E+04   -0.10114E-01   -0.10260E-01  6393   0.158E-01    0.275E-01
RMM:   3    -0.232018213248E+04   -0.11905E-03   -0.10095E-02  5380   0.514E-02    0.149E-01
RMM:   4    -0.232018203158E+04    0.10089E-03   -0.10348E-03  3481   0.124E-02    0.823E-02
RMM:   5    -0.232018198618E+04    0.45401E-04   -0.15651E-04  3132   0.742E-03    0.675E-02
RMM:   6    -0.232018192312E+04    0.63065E-04   -0.12094E-04  3523   0.746E-03    0.293E-02
RMM:   7    -0.232018191720E+04    0.59215E-05   -0.46973E-05  2979   0.600E-03
  23 F= -.23410740E+04 E0= -.23410740E+04  d E =-.161375E-01  mag=     5.0000
       N       E                     dE             d eps       ncg     rms          rms(c)
DAV:   1    -0.232017740645E+04    0.45167E-02   -0.76930E-01  4508   0.793E-01    0.286E-01
RMM:   2    -0.232018991299E+04   -0.12507E-01   -0.13004E-01  6312   0.188E-01    0.256E-01
RMM:   3    -0.232019051092E+04   -0.59793E-03   -0.13316E-02  5725   0.654E-02    0.179E-01
RMM:   4    -0.232019030346E+04    0.20747E-03   -0.12314E-03  4068   0.149E-02    0.949E-02
RMM:   5    -0.232019025603E+04    0.47422E-04   -0.22468E-04  3238   0.900E-03    0.753E-02
RMM:   6    -0.232019018043E+04    0.75598E-04   -0.17553E-04  4013   0.924E-03    0.280E-02
RMM:   7    -0.232019017758E+04    0.28523E-05   -0.39856E-05  3012   0.640E-03
  24 F= -.23410818E+04 E0= -.23410818E+04  d E =-.781371E-02  mag=     5.0000
       N       E                     dE             d eps       ncg     rms          rms(c)
DAV:   1    -0.232011055801E+04    0.79622E-01   -0.53530E+00  4472   0.209E+00    0.754E-01
RMM:   2    -0.232019784903E+04   -0.87291E-01   -0.90675E-01  6292   0.490E-01    0.694E-01
RMM:   3    -0.232020230753E+04   -0.44585E-02   -0.96870E-02  6010   0.177E-01    0.480E-01
RMM:   4    -0.232020068349E+04    0.16240E-02   -0.83624E-03  5602   0.390E-02    0.238E-01
RMM:   5    -0.232020045440E+04    0.22909E-03   -0.16075E-03  5030   0.217E-02    0.204E-01
RMM:   6    -0.232019991636E+04    0.53804E-03   -0.10891E-03  5200   0.197E-02    0.795E-02
RMM:   7    -0.232019988545E+04    0.30907E-04   -0.25478E-04  4134   0.129E-02    0.330E-02
RMM:   8    -0.232019987518E+04    0.10268E-04   -0.38996E-05  3099   0.573E-03    0.137E-02
RMM:   9    -0.232019986948E+04    0.57047E-05   -0.14079E-05  2896   0.421E-03
  25 F= -.23410903E+04 E0= -.23410903E+04  d E =-.162831E-01  mag=     5.0000
       N       E                     dE             d eps       ncg     rms          rms(c)
DAV:   1    -0.232019424065E+04    0.56345E-02   -0.96324E-01  4608   0.863E-01    0.318E-01
RMM:   2    -0.232020879493E+04   -0.14554E-01   -0.15526E-01  6220   0.204E-01    0.233E-01
RMM:   3    -0.232021000146E+04   -0.12065E-02   -0.17662E-02  5813   0.777E-02    0.181E-01
RMM:   4    -0.232020975661E+04    0.24486E-03   -0.14638E-03  4315   0.165E-02    0.964E-02
RMM:   5    -0.232020972963E+04    0.26974E-04   -0.28516E-04  3621   0.103E-02    0.912E-02
RMM:   6    -0.232020963747E+04    0.92158E-04   -0.19600E-04  4101   0.914E-03    0.364E-02
RMM:   7    -0.232020963167E+04    0.58002E-05   -0.41691E-05  3016   0.612E-03
  26 F= -.23410992E+04 E0= -.23410992E+04  d E =-.886525E-02  mag=     5.0000
       N       E                     dE             d eps       ncg     rms          rms(c)
DAV:   1    -0.232013342466E+04    0.76213E-01   -0.53776E+00  4488   0.204E+00    0.752E-01
RMM:   2    -0.232021475337E+04   -0.81329E-01   -0.86912E-01  6211   0.483E-01    0.550E-01
RMM:   3    -0.232022197332E+04   -0.72200E-02   -0.10140E-01  5978   0.183E-01    0.448E-01
RMM:   4    -0.232022038441E+04    0.15889E-02   -0.82536E-03  5816   0.394E-02    0.227E-01
RMM:   5    -0.232022024087E+04    0.14354E-03   -0.17047E-03  5192   0.224E-02    0.216E-01
RMM:   6    -0.232021974359E+04    0.49727E-03   -0.10110E-03  5362   0.179E-02    0.956E-02
RMM:   7    -0.232021968074E+04    0.62851E-04   -0.24982E-04  4292   0.116E-02    0.426E-02
RMM:   8    -0.232021965714E+04    0.23608E-04   -0.47595E-05  3034   0.632E-03    0.169E-02
RMM:   9    -0.232021964777E+04    0.93695E-05   -0.16625E-05  2899   0.427E-03
  27 F= -.23411071E+04 E0= -.23411071E+04  d E =-.167481E-01  mag=     5.0000
       N       E                     dE             d eps       ncg     rms          rms(c)
DAV:   1    -0.232021464832E+04    0.50088E-02   -0.84288E-01  4592   0.733E-01    0.270E-01
RMM:   2    -0.232022746568E+04   -0.12817E-01   -0.13661E-01  6408   0.178E-01    0.209E-01
RMM:   3    -0.232022858689E+04   -0.11212E-02   -0.15661E-02  5558   0.629E-02    0.156E-01
RMM:   4    -0.232022844134E+04    0.14555E-03   -0.12611E-03  3489   0.137E-02    0.896E-02
RMM:   5    -0.232022843723E+04    0.41111E-05   -0.22269E-04  3175   0.827E-03    0.918E-02
RMM:   6    -0.232022835677E+04    0.80458E-04   -0.14430E-04  3186   0.754E-03    0.317E-02
RMM:   7    -0.232022835636E+04    0.40895E-06   -0.36306E-05  2975   0.521E-03
  28 F= -.23411147E+04 E0= -.23411147E+04  d E =-.760459E-02  mag=     5.0000
       N       E                     dE             d eps       ncg     rms          rms(c)
DAV:   1    -0.232014055345E+04    0.87803E-01   -0.60104E+00  4488   0.196E+00    0.721E-01
RMM:   2    -0.232023241174E+04   -0.91858E-01   -0.98058E-01  6427   0.478E-01    0.563E-01
RMM:   3    -0.232024116291E+04   -0.87512E-02   -0.11567E-01  6055   0.168E-01    0.451E-01
RMM:   4    -0.232023977286E+04    0.13900E-02   -0.90698E-03  5629   0.375E-02    0.234E-01
RMM:   5    -0.232023973254E+04    0.40316E-04   -0.16709E-03  4891   0.197E-02    0.238E-01
RMM:   6    -0.232023922553E+04    0.50702E-03   -0.95691E-04  5029   0.157E-02    0.100E-01
RMM:   7    -0.232023918238E+04    0.43152E-04   -0.24294E-04  3758   0.979E-03    0.427E-02
RMM:   8    -0.232023916931E+04    0.13064E-04   -0.40570E-05  2969   0.622E-03    0.173E-02
RMM:   9    -0.232023916648E+04    0.28363E-05   -0.11065E-05  2901   0.320E-03
  29 F= -.23411225E+04 E0= -.23411225E+04  d E =-.154484E-01  mag=     5.0000
       N       E                     dE             d eps       ncg     rms          rms(c)
DAV:   1    -0.232021999687E+04    0.19172E-01   -0.19194E+00  4488   0.111E+00    0.408E-01
RMM:   2    -0.232024835855E+04   -0.28362E-01   -0.30106E-01  6293   0.268E-01    0.300E-01
RMM:   3    -0.232025064605E+04   -0.22875E-02   -0.32499E-02  5874   0.936E-02    0.244E-01
RMM:   4    -0.232025023909E+04    0.40696E-03   -0.26816E-03  4819   0.210E-02    0.137E-01
RMM:   5    -0.232025022172E+04    0.17376E-04   -0.51813E-04  4016   0.122E-02    0.134E-01
RMM:   6    -0.232025002370E+04    0.19801E-03   -0.32116E-04  4536   0.108E-02    0.369E-02
RMM:   7    -0.232025002168E+04    0.20232E-05   -0.64504E-05  3082   0.681E-03
  30 F= -.23411322E+04 E0= -.23411322E+04  d E =-.969397E-02  mag=     5.0000
       N       E                     dE             d eps       ncg     rms          rms(c)
DAV:   1    -0.232008646944E+04    0.16355E+00   -0.10880E+01  4488   0.264E+00    0.971E-01
RMM:   2    -0.232024771437E+04   -0.16124E+00   -0.17123E+00  6300   0.643E-01    0.731E-01
RMM:   3    -0.232026276083E+04   -0.15046E-01   -0.19811E-01  5980   0.237E-01    0.641E-01
RMM:   4    -0.232025970597E+04    0.30549E-02   -0.15472E-02  6039   0.519E-02    0.311E-01
RMM:   5    -0.232025965933E+04    0.46643E-04   -0.33304E-03  5472   0.281E-02    0.316E-01
RMM:   6    -0.232025859758E+04    0.10617E-02   -0.16695E-03  5498   0.215E-02    0.106E-01
RMM:   7    -0.232025854024E+04    0.57339E-04   -0.40187E-04  4588   0.134E-02    0.431E-02
RMM:   8    -0.232025852061E+04    0.19628E-04   -0.63218E-05  3183   0.737E-03    0.216E-02
RMM:   9    -0.232025851203E+04    0.85870E-05   -0.20805E-05  2918   0.474E-03
  31 F= -.23411379E+04 E0= -.23411379E+04  d E =-.153909E-01  mag=     5.0000
       N       E                     dE             d eps       ncg     rms          rms(c)
DAV:   1    -0.232024685782E+04    0.11663E-01   -0.75090E-01  4640   0.697E-01    0.256E-01
RMM:   2    -0.232025808060E+04   -0.11223E-01   -0.11874E-01  6309   0.174E-01    0.191E-01
RMM:   3    -0.232025883696E+04   -0.75636E-03   -0.12630E-02  5435   0.589E-02    0.136E-01
RMM:   4    -0.232025875300E+04    0.83960E-04   -0.10741E-03  3559   0.129E-02    0.101E-01
RMM:   5    -0.232025870625E+04    0.46752E-04   -0.17280E-04  3105   0.780E-03    0.743E-02
RMM:   6    -0.232025864533E+04    0.60918E-04   -0.15062E-04  3472   0.821E-03    0.234E-02
RMM:   7    -0.232025864466E+04    0.67134E-06   -0.36765E-05  2995   0.556E-03
  32 F= -.23411388E+04 E0= -.23411388E+04  d E =-.162610E-01  mag=     5.0000
       N       E                     dE             d eps       ncg     rms          rms(c)
DAV:   1    -0.232021837658E+04    0.40269E-01   -0.29376E+00  4472   0.132E+00    0.501E-01
RMM:   2    -0.232026751080E+04   -0.49134E-01   -0.51674E-01  6315   0.334E-01    0.377E-01
RMM:   3    -0.232027159481E+04   -0.40840E-02   -0.58219E-02  5852   0.127E-01    0.279E-01
RMM:   4    -0.232027111815E+04    0.47666E-03   -0.42240E-03  5047   0.251E-02    0.170E-01
RMM:   5    -0.232027106849E+04    0.49655E-04   -0.79819E-04  4332   0.135E-02    0.169E-01
RMM:   6    -0.232027075491E+04    0.31358E-03   -0.49542E-04  4698   0.121E-02    0.511E-02
RMM:   7    -0.232027074267E+04    0.12242E-04   -0.11034E-04  3389   0.765E-03    0.240E-02
RMM:   8    -0.232027073693E+04    0.57430E-05   -0.20596E-05  2930   0.489E-03
  33 F= -.23411499E+04 E0= -.23411499E+04  d E =-.111194E-01  mag=     5.0000
       N       E                     dE             d eps       ncg     rms          rms(c)
DAV:   1    -0.232008522160E+04    0.18552E+00   -0.10843E+01  4456   0.255E+00    0.965E-01
RMM:   2    -0.232026628513E+04   -0.18106E+00   -0.19079E+00  6339   0.642E-01    0.736E-01
RMM:   3    -0.232028450627E+04   -0.18221E-01   -0.23725E-01  5912   0.257E-01    0.591E-01
RMM:   4    -0.232028187957E+04    0.26267E-02   -0.15555E-02  5937   0.494E-02    0.304E-01
RMM:   5    -0.232028169682E+04    0.18276E-03   -0.32248E-03  5306   0.259E-02    0.314E-01
RMM:   6    -0.232028075885E+04    0.93797E-03   -0.15907E-03  5398   0.198E-02    0.127E-01
RMM:   7    -0.232028065080E+04    0.10805E-03   -0.44583E-04  4639   0.128E-02    0.505E-02
RMM:   8    -0.232028062411E+04    0.26692E-04   -0.85987E-05  3245   0.825E-03    0.251E-02
RMM:   9    -0.232028061303E+04    0.11083E-04   -0.27143E-05  2946   0.495E-03    0.892E-03
RMM:  10    -0.232028060993E+04    0.30939E-05   -0.11883E-05  2904   0.390E-03
  34 F= -.23411579E+04 E0= -.23411579E+04  d E =-.191252E-01  mag=     5.0000
       N       E                     dE             d eps       ncg     rms          rms(c)
DAV:   1    -0.232021942711E+04    0.61186E-01   -0.43280E+00  4472   0.161E+00    0.591E-01
RMM:   2    -0.232028620800E+04   -0.66781E-01   -0.69672E-01  6357   0.399E-01    0.482E-01
RMM:   3    -0.232029081520E+04   -0.46072E-02   -0.74109E-02  5875   0.146E-01    0.321E-01
RMM:   4    -0.232029005958E+04    0.75562E-03   -0.58255E-03  5442   0.307E-02    0.181E-01
RMM:   5    -0.232028991491E+04    0.14467E-03   -0.11111E-03  4699   0.169E-02    0.193E-01
RMM:   6    -0.232028962117E+04    0.29375E-03   -0.61801E-04  4475   0.135E-02    0.934E-02
RMM:   7    -0.232028956853E+04    0.52638E-04   -0.17048E-04  3617   0.839E-03    0.314E-02
RMM:   8    -0.232028956014E+04    0.83843E-05   -0.32506E-05  2945   0.607E-03
  35 F= -.23411655E+04 E0= -.23411655E+04  d E =-.760226E-02  mag=     5.0000
       N       E                     dE             d eps       ncg     rms          rms(c)
DAV:   1    -0.232028835347E+04    0.12151E-02   -0.92100E-02  4888   0.236E-01    0.875E-02
RMM:   2    -0.232028980048E+04   -0.14470E-02   -0.15061E-02  6305   0.600E-02    0.716E-02
RMM:   3    -0.232028988192E+04   -0.81436E-04   -0.15095E-03  3344   0.209E-02    0.437E-02
RMM:   4    -0.232028987160E+04    0.10320E-04   -0.12793E-04  3026   0.553E-03    0.283E-02
RMM:   5    -0.232028987034E+04    0.12541E-05   -0.24518E-05  2867   0.322E-03
  36 F= -.23411656E+04 E0= -.23411656E+04  d E =-.771621E-02  mag=     5.0000
       N       E                     dE             d eps       ncg     rms          rms(c)
DAV:   1    -0.232026445728E+04    0.25414E-01   -0.23717E+00  4472   0.127E+00    0.432E-01
RMM:   2    -0.232029565998E+04   -0.31203E-01   -0.32705E-01  6293   0.296E-01    0.335E-01
RMM:   3    -0.232029772254E+04   -0.20626E-02   -0.34780E-02  5873   0.105E-01    0.219E-01
RMM:   4    -0.232029736861E+04    0.35393E-03   -0.29196E-03  5183   0.231E-02    0.125E-01
RMM:   5    -0.232029721607E+04    0.15254E-03   -0.59617E-04  4569   0.144E-02    0.107E-01
RMM:   6    -0.232029717542E+04    0.40659E-04   -0.31397E-04  3883   0.111E-02    0.974E-02
RMM:   7    -0.232029710943E+04    0.65988E-04   -0.10027E-04  3302   0.759E-03    0.245E-02
RMM:   8    -0.232029710266E+04    0.67700E-05   -0.20973E-05  2926   0.516E-03
  37 F= -.23411721E+04 E0= -.23411721E+04  d E =-.643529E-02  mag=     5.0000
       N       E                     dE             d eps       ncg     rms          rms(c)
DAV:   1    -0.232029171230E+04    0.53971E-02   -0.46314E-01  4528   0.560E-01    0.191E-01
RMM:   2    -0.232029771225E+04   -0.60000E-02   -0.62901E-02  6298   0.131E-01    0.144E-01
RMM:   3    -0.232029808809E+04   -0.37584E-03   -0.65158E-03  5004   0.454E-02    0.921E-02
RMM:   4    -0.232029803262E+04    0.55475E-04   -0.59039E-04  3338   0.106E-02    0.569E-02
RMM:   5    -0.232029801728E+04    0.15337E-04   -0.11326E-04  3120   0.708E-03    0.631E-02
RMM:   6    -0.232029798364E+04    0.33637E-04   -0.72281E-05  3048   0.636E-03    0.293E-02
RMM:   7    -0.232029797805E+04    0.55960E-05   -0.22284E-05  2955   0.477E-03
  38 F= -.23411726E+04 E0= -.23411726E+04  d E =-.695268E-02  mag=     5.0000
       N       E                     dE             d eps       ncg     rms          rms(c)
DAV:   1    -0.232027176705E+04    0.26217E-01   -0.26343E+00  4488   0.135E+00    0.435E-01
RMM:   2    -0.232030324870E+04   -0.31482E-01   -0.33249E-01  6322   0.296E-01    0.308E-01
RMM:   3    -0.232030606085E+04   -0.28122E-02   -0.37037E-02  5851   0.111E-01    0.234E-01
RMM:   4    -0.232030582404E+04    0.23681E-03   -0.33289E-03  5084   0.234E-02    0.146E-01
RMM:   5    -0.232030571439E+04    0.10965E-03   -0.58613E-04  4389   0.133E-02    0.127E-01
RMM:   6    -0.232030557312E+04    0.14127E-03   -0.36632E-04  4622   0.112E-02    0.677E-02
RMM:   7    -0.232030553784E+04    0.35279E-04   -0.11916E-04  3485   0.817E-03    0.303E-02
RMM:   8    -0.232030552795E+04    0.98939E-05   -0.20595E-05  2922   0.522E-03
  39 F= -.23411792E+04 E0= -.23411792E+04  d E =-.661461E-02  mag=     5.0000
       N       E                     dE             d eps       ncg     rms          rms(c)
DAV:   1    -0.232027333868E+04    0.32199E-01   -0.27229E+00  4488   0.137E+00    0.442E-01
RMM:   2    -0.232030591488E+04   -0.32576E-01   -0.34394E-01  6308   0.300E-01    0.313E-01
RMM:   3    -0.232030873688E+04   -0.28220E-02   -0.37424E-02  5855   0.108E-01    0.236E-01
RMM:   4    -0.232030849613E+04    0.24074E-03   -0.33968E-03  5142   0.236E-02    0.147E-01
RMM:   5    -0.232030837616E+04    0.11997E-03   -0.60620E-04  4360   0.134E-02    0.130E-01
RMM:   6    -0.232030823554E+04    0.14062E-03   -0.38868E-04  4612   0.113E-02    0.732E-02
RMM:   7    -0.232030819091E+04    0.44632E-04   -0.12974E-04  3577   0.840E-03    0.336E-02
RMM:   8    -0.232030817794E+04    0.12971E-04   -0.23623E-05  2924   0.534E-03    0.110E-02
RMM:   9    -0.232030817373E+04    0.42043E-05   -0.99587E-06  2897   0.332E-03
  40 F= -.23411809E+04 E0= -.23411809E+04  d E =-.828906E-02  mag=     5.0000
       N       E                     dE             d eps       ncg     rms          rms(c)
DAV:   1    -0.232026877863E+04    0.39399E-01   -0.32384E+00  4472   0.145E+00    0.463E-01
RMM:   2    -0.232031115562E+04   -0.42377E-01   -0.44557E-01  6333   0.318E-01    0.356E-01
RMM:   3    -0.232031538359E+04   -0.42280E-02   -0.51954E-02  5882   0.119E-01    0.288E-01
RMM:   4    -0.232031511595E+04    0.26764E-03   -0.43214E-03  5025   0.246E-02    0.169E-01
RMM:   5    -0.232031482921E+04    0.28674E-03   -0.65719E-04  4192   0.136E-02    0.102E-01
RMM:   6    -0.232031478514E+04    0.44068E-04   -0.45507E-04  4636   0.120E-02    0.890E-02
RMM:   7    -0.232031471855E+04    0.66588E-04   -0.15743E-04  3212   0.904E-03    0.407E-02
RMM:   8    -0.232031470283E+04    0.15725E-04   -0.35494E-05  2967   0.502E-03    0.145E-02
RMM:   9    -0.232031469936E+04    0.34690E-05   -0.99799E-06  2883   0.337E-03
  41 F= -.23411864E+04 E0= -.23411864E+04  d E =-.549334E-02  mag=     5.0000
       N       E                     dE             d eps       ncg     rms          rms(c)
DAV:   1    -0.232030973831E+04    0.49645E-02   -0.41653E-01  4672   0.520E-01    0.164E-01
RMM:   2    -0.232031506280E+04   -0.53245E-02   -0.56111E-02  6296   0.113E-01    0.118E-01
RMM:   3    -0.232031559308E+04   -0.53028E-03   -0.63678E-03  4823   0.439E-02    0.989E-02
RMM:   4    -0.232031556491E+04    0.28167E-04   -0.55109E-04  3166   0.930E-03    0.605E-02
RMM:   5    -0.232031552727E+04    0.37637E-04   -0.86786E-05  3003   0.582E-03    0.364E-02
RMM:   6    -0.232031552358E+04    0.36920E-05   -0.62188E-05  3101   0.547E-03
  42 F= -.23411868E+04 E0= -.23411868E+04  d E =-.594460E-02  mag=     5.0000
       N       E                     dE             d eps       ncg     rms          rms(c)
DAV:   1    -0.232026241870E+04    0.53109E-01   -0.38184E+00  4488   0.159E+00    0.524E-01
RMM:   2    -0.232031833923E+04   -0.55921E-01   -0.58827E-01  6203   0.357E-01    0.426E-01
RMM:   3    -0.232032391353E+04   -0.55743E-02   -0.70903E-02  5801   0.146E-01    0.328E-01
RMM:   4    -0.232032354209E+04    0.37145E-03   -0.57492E-03  5303   0.282E-02    0.186E-01
RMM:   5    -0.232032314758E+04    0.39451E-03   -0.82790E-04  4348   0.150E-02    0.106E-01
RMM:   6    -0.232032304207E+04    0.10551E-03   -0.54096E-04  4677   0.133E-02    0.748E-02
RMM:   7    -0.232032300450E+04    0.37565E-04   -0.11892E-04  3319   0.951E-03    0.215E-02
RMM:   8    -0.232032300357E+04    0.93176E-06   -0.28594E-05  2954   0.473E-03
  43 F= -.23411934E+04 E0= -.23411934E+04  d E =-.657513E-02  mag=     5.0000
       N       E                     dE             d eps       ncg     rms          rms(c)
DAV:   1    -0.232031115799E+04    0.11847E-01   -0.80920E-01  4540   0.733E-01    0.241E-01
RMM:   2    -0.232032301325E+04   -0.11855E-01   -0.12499E-01  6273   0.165E-01    0.192E-01
RMM:   3    -0.232032419523E+04   -0.11820E-02   -0.14627E-02  5528   0.650E-02    0.153E-01
RMM:   4    -0.232032410852E+04    0.86715E-04   -0.12125E-03  3520   0.132E-02    0.834E-02
RMM:   5    -0.232032402360E+04    0.84919E-04   -0.17141E-04  3155   0.790E-03    0.474E-02
RMM:   6    -0.232032400745E+04    0.16144E-04   -0.12386E-04  3610   0.729E-03    0.380E-02
RMM:   7    -0.232032400068E+04    0.67773E-05   -0.32835E-05  2930   0.582E-03
  44 F= -.23411940E+04 E0= -.23411940E+04  d E =-.715569E-02  mag=     5.0000
       N       E                     dE             d eps       ncg     rms          rms(c)
DAV:   1    -0.232026709161E+04    0.56916E-01   -0.37979E+00  4488   0.155E+00    0.529E-01
RMM:   2    -0.232032675957E+04   -0.59668E-01   -0.62221E-01  6367   0.357E-01    0.492E-01
RMM:   3    -0.232033226350E+04   -0.55039E-02   -0.74383E-02  5925   0.142E-01    0.350E-01
RMM:   4    -0.232033175289E+04    0.51062E-03   -0.60341E-03  5207   0.282E-02    0.166E-01
RMM:   5    -0.232033140000E+04    0.35289E-03   -0.68140E-04  4166   0.134E-02    0.981E-02
RMM:   6    -0.232033132547E+04    0.74532E-04   -0.49586E-04  4514   0.123E-02    0.782E-02
RMM:   7    -0.232033129140E+04    0.34070E-04   -0.14028E-04  3096   0.958E-03    0.313E-02
RMM:   8    -0.232033128447E+04    0.69248E-05   -0.31286E-05  2946   0.475E-03
  45 F= -.23411999E+04 E0= -.23411999E+04  d E =-.598563E-02  mag=     5.0000
       N       E                     dE             d eps       ncg     rms          rms(c)
DAV:   1    -0.232024610449E+04    0.85187E-01   -0.52594E+00  4488   0.182E+00    0.622E-01
RMM:   2    -0.232032901782E+04   -0.82913E-01   -0.86464E-01  6345   0.421E-01    0.575E-01
RMM:   3    -0.232033659080E+04   -0.75730E-02   -0.10349E-01  5942   0.166E-01    0.401E-01
RMM:   4    -0.232033597385E+04    0.61695E-03   -0.83605E-03  5369   0.329E-02    0.197E-01
RMM:   5    -0.232033549019E+04    0.48366E-03   -0.94843E-04  4376   0.155E-02    0.118E-01
RMM:   6    -0.232033537835E+04    0.11184E-03   -0.70031E-04  4752   0.139E-02    0.958E-02
RMM:   7    -0.232033532122E+04    0.57127E-04   -0.20011E-04  3334   0.109E-02    0.355E-02
RMM:   8    -0.232033531368E+04    0.75422E-05   -0.43553E-05  2986   0.520E-03
  46 F= -.23412024E+04 E0= -.23412024E+04  d E =-.848412E-02  mag=     5.0000
       N       E                     dE             d eps       ncg     rms          rms(c)
DAV:   1    -0.232029058535E+04    0.44736E-01   -0.30834E+00  4472   0.138E+00    0.496E-01
RMM:   2    -0.232033917975E+04   -0.48594E-01   -0.50660E-01  6342   0.330E-01    0.437E-01
RMM:   3    -0.232034337515E+04   -0.41954E-02   -0.57216E-02  5941   0.131E-01    0.322E-01
RMM:   4    -0.232034297550E+04    0.39966E-03   -0.50829E-03  5110   0.256E-02    0.157E-01
RMM:   5    -0.232034273648E+04    0.23902E-03   -0.55832E-04  4055   0.127E-02    0.118E-01
RMM:   6    -0.232034258912E+04    0.14736E-03   -0.53268E-04  4833   0.125E-02    0.809E-02
RMM:   7    -0.232034253253E+04    0.56585E-04   -0.19395E-04  3666   0.918E-03    0.472E-02
RMM:   8    -0.232034251508E+04    0.17454E-04   -0.42266E-05  2967   0.594E-03    0.180E-02
RMM:   9    -0.232034251125E+04    0.38273E-05   -0.11257E-05  2876   0.365E-03
  47 F= -.23412083E+04 E0= -.23412083E+04  d E =-.586217E-02  mag=     5.0000
       N       E                     dE             d eps       ncg     rms          rms(c)
DAV:   1    -0.232032394461E+04    0.18570E-01   -0.12136E+00  4508   0.859E-01    0.308E-01
RMM:   2    -0.232034291126E+04   -0.18967E-01   -0.19775E-01  6330   0.205E-01    0.262E-01
RMM:   3    -0.232034460382E+04   -0.16926E-02   -0.22186E-02  5719   0.824E-02    0.201E-01
RMM:   4    -0.232034444028E+04    0.16354E-03   -0.19748E-03  3798   0.161E-02    0.989E-02
RMM:   5    -0.232034434427E+04    0.96006E-04   -0.22449E-04  3249   0.874E-03    0.743E-02
RMM:   6    -0.232034428265E+04    0.61624E-04   -0.21466E-04  3781   0.888E-03    0.499E-02
RMM:   7    -0.232034426049E+04    0.22157E-04   -0.80357E-05  3169   0.676E-03    0.293E-02
RMM:   8    -0.232034425348E+04    0.70054E-05   -0.17254E-05  2919   0.478E-03
  48 F= -.23412092E+04 E0= -.23412092E+04  d E =-.676357E-02  mag=     5.0000
       N       E                     dE             d eps       ncg     rms          rms(c)
DAV:   1    -0.232032094372E+04    0.23317E-01   -0.17677E+00  4488   0.987E-01    0.359E-01
RMM:   2    -0.232034752390E+04   -0.26580E-01   -0.27584E-01  6419   0.236E-01    0.317E-01
RMM:   3    -0.232034978081E+04   -0.22569E-02   -0.30606E-02  5775   0.888E-02    0.227E-01
RMM:   4    -0.232034961450E+04    0.16631E-03   -0.29055E-03  3996   0.181E-02    0.118E-01
RMM:   5    -0.232034948918E+04    0.12532E-03   -0.28204E-04  3255   0.895E-03    0.891E-02
RMM:   6    -0.232034938766E+04    0.10152E-03   -0.29711E-04  3896   0.948E-03    0.581E-02
RMM:   7    -0.232034936159E+04    0.26071E-04   -0.12175E-04  3352   0.717E-03    0.343E-02
RMM:   8    -0.232034935351E+04    0.80755E-05   -0.22693E-05  2927   0.482E-03
  49 F= -.23412136E+04 E0= -.23412136E+04  d E =-.439399E-02  mag=     5.0000
       N       E                     dE             d eps       ncg     rms          rms(c)
DAV:   1    -0.232030377839E+04    0.45583E-01   -0.30232E+00  4488   0.129E+00    0.469E-01
RMM:   2    -0.232034924053E+04   -0.45462E-01   -0.47158E-01  6447   0.308E-01    0.421E-01
RMM:   3    -0.232035303659E+04   -0.37961E-02   -0.52478E-02  5966   0.116E-01    0.295E-01
RMM:   4    -0.232035277751E+04    0.25909E-03   -0.49870E-03  4680   0.236E-02    0.157E-01
RMM:   5    -0.232035256558E+04    0.21193E-03   -0.48378E-04  3564   0.112E-02    0.118E-01
RMM:   6    -0.232035238889E+04    0.17669E-03   -0.50280E-04  4483   0.118E-02    0.768E-02
RMM:   7    -0.232035234438E+04    0.44513E-04   -0.20914E-04  3686   0.864E-03    0.456E-02
RMM:   8    -0.232035232996E+04    0.14419E-04   -0.38411E-05  2942   0.564E-03    0.184E-02
RMM:   9    -0.232035232668E+04    0.32812E-05   -0.96168E-06  2874   0.304E-03
  50 F= -.23412156E+04 E0= -.23412156E+04  d E =-.644094E-02  mag=     5.0000
       N       E                     dE             d eps       ncg     rms          rms(c)
DAV:   1    -0.232033847605E+04    0.13854E-01   -0.12705E+00  4524   0.885E-01    0.319E-01
RMM:   2    -0.232035565534E+04   -0.17179E-01   -0.17873E-01  6242   0.199E-01    0.254E-01
RMM:   3    -0.232035720568E+04   -0.15503E-02   -0.19965E-02  5807   0.782E-02    0.206E-01
RMM:   4    -0.232035702622E+04    0.17946E-03   -0.19447E-03  4206   0.165E-02    0.984E-02
RMM:   5    -0.232035693319E+04    0.93032E-04   -0.23871E-04  3401   0.934E-03    0.704E-02
RMM:   6    -0.232035687980E+04    0.53388E-04   -0.21625E-04  4155   0.940E-03    0.477E-02
RMM:   7    -0.232035686016E+04    0.19643E-04   -0.71831E-05  3209   0.683E-03    0.302E-02
RMM:   8    -0.232035685295E+04    0.72100E-05   -0.17445E-05  2905   0.477E-03
  51 F= -.23412198E+04 E0= -.23412198E+04  d E =-.412995E-02  mag=     5.0000
       N       E                     dE             d eps       ncg     rms          rms(c)
DAV:   1    -0.232032882613E+04    0.28034E-01   -0.20818E+00  4488   0.113E+00    0.409E-01
RMM:   2    -0.232035714279E+04   -0.28317E-01   -0.29475E-01  6187   0.256E-01    0.327E-01
RMM:   3    -0.232035957903E+04   -0.24362E-02   -0.32253E-02  5874   0.950E-02    0.262E-01
RMM:   4    -0.232035929676E+04    0.28227E-03   -0.31775E-03  5011   0.208E-02    0.126E-01
RMM:   5    -0.232035914311E+04    0.15365E-03   -0.39208E-04  3949   0.112E-02    0.902E-02
RMM:   6    -0.232035905229E+04    0.90820E-04   -0.34424E-04  4611   0.110E-02    0.608E-02
RMM:   7    -0.232035901856E+04    0.33722E-04   -0.11483E-04  3500   0.818E-03    0.386E-02
RMM:   8    -0.232035900595E+04    0.12617E-04   -0.27673E-05  2927   0.529E-03    0.128E-02
RMM:   9    -0.232035900323E+04    0.27132E-05   -0.95675E-06  2865   0.351E-03
  52 F= -.23412214E+04 E0= -.23412214E+04  d E =-.577182E-02  mag=     5.0000
       N       E                     dE             d eps       ncg     rms          rms(c)
DAV:   1    -0.232033998208E+04    0.19024E-01   -0.14905E+00  4488   0.919E-01    0.326E-01
RMM:   2    -0.232036087628E+04   -0.20894E-01   -0.21869E-01  6317   0.203E-01    0.252E-01
RMM:   3    -0.232036304056E+04   -0.21643E-02   -0.26321E-02  5710   0.810E-02    0.195E-01
RMM:   4    -0.232036294158E+04    0.98979E-04   -0.22313E-03  3733   0.163E-02    0.107E-01
RMM:   5    -0.232036282151E+04    0.12007E-03   -0.24287E-04  3224   0.897E-03    0.695E-02
RMM:   6    -0.232036278036E+04    0.41147E-04   -0.24130E-04  4003   0.900E-03    0.520E-02
RMM:   7    -0.232036276466E+04    0.15702E-04   -0.64054E-05  3025   0.654E-03    0.293E-02
RMM:   8    -0.232036275759E+04    0.70713E-05   -0.19507E-05  2918   0.404E-03
  53 F= -.23412249E+04 E0= -.23412249E+04  d E =-.346197E-02  mag=     5.0000
       N       E                     dE             d eps       ncg     rms          rms(c)
DAV:   1    -0.232033086075E+04    0.31904E-01   -0.21964E+00  4472   0.111E+00    0.397E-01
RMM:   2    -0.232036166014E+04   -0.30799E-01   -0.32265E-01  6260   0.248E-01    0.311E-01
RMM:   3    -0.232036479671E+04   -0.31366E-02   -0.38911E-02  5814   0.954E-02    0.233E-01
RMM:   4    -0.232036466839E+04    0.12832E-03   -0.32979E-03  4269   0.195E-02    0.130E-01
RMM:   5    -0.232036449562E+04    0.17277E-03   -0.35796E-04  3479   0.104E-02    0.853E-02
RMM:   6    -0.232036443111E+04    0.64512E-04   -0.34140E-04  4317   0.102E-02    0.636E-02
RMM:   7    -0.232036440677E+04    0.24342E-04   -0.96598E-05  3127   0.764E-03    0.357E-02
RMM:   8    -0.232036439601E+04    0.10757E-04   -0.30467E-05  2939   0.468E-03    0.154E-02
RMM:   9    -0.232036439362E+04    0.23913E-05   -0.81027E-06  2871   0.315E-03
  54 F= -.23412262E+04 E0= -.23412262E+04  d E =-.474489E-02  mag=     5.0000
       N       E                     dE             d eps       ncg     rms          rms(c)
DAV:   1    -0.232034240006E+04    0.21996E-01   -0.17250E+00  4472   0.102E+00    0.348E-01
RMM:   2    -0.232036597747E+04   -0.23577E-01   -0.24862E-01  6278   0.225E-01    0.227E-01
RMM:   3    -0.232036836779E+04   -0.23903E-02   -0.28632E-02  5690   0.900E-02    0.167E-01
RMM:   4    -0.232036836802E+04   -0.23151E-06   -0.24127E-03  3945   0.170E-02    0.122E-01
RMM:   5    -0.232036822129E+04    0.14674E-03   -0.32603E-04  3424   0.103E-02    0.756E-02
RMM:   6    -0.232036816360E+04    0.57683E-04   -0.25737E-04  4164   0.940E-03    0.492E-02
RMM:   7    -0.232036814891E+04    0.14690E-04   -0.53819E-05  2960   0.696E-03    0.174E-02
RMM:   8    -0.232036814602E+04    0.28954E-05   -0.14416E-05  2909   0.362E-03
  55 F= -.23412295E+04 E0= -.23412295E+04  d E =-.335408E-02  mag=     5.0000
       N       E                     dE             d eps       ncg     rms          rms(c)
DAV:   1    -0.232035953288E+04    0.86160E-02   -0.62770E-01  4512   0.617E-01    0.210E-01
RMM:   2    -0.232036812205E+04   -0.85892E-02   -0.90743E-02  6171   0.136E-01    0.135E-01
RMM:   3    -0.232036898907E+04   -0.86702E-03   -0.10283E-02  5133   0.526E-02    0.102E-01
RMM:   4    -0.232036898641E+04    0.26671E-05   -0.88369E-04  3203   0.106E-02    0.746E-02
RMM:   5    -0.232036892986E+04    0.56547E-04   -0.12222E-04  3030   0.674E-03    0.443E-02
RMM:   6    -0.232036890995E+04    0.19912E-04   -0.98018E-05  3301   0.628E-03    0.268E-02
RMM:   7    -0.232036890521E+04    0.47422E-05   -0.17108E-05  2904   0.503E-03
  56 F= -.23412300E+04 E0= -.23412300E+04  d E =-.387483E-02  mag=     5.0000
       N       E                     dE             d eps       ncg     rms          rms(c)
DAV:   1    -0.232034951223E+04    0.19398E-01   -0.14493E+00  4492   0.979E-01    0.321E-01
RMM:   2    -0.232037099805E+04   -0.21486E-01   -0.22694E-01  6334   0.221E-01    0.178E-01
RMM:   3    -0.232037314987E+04   -0.21518E-02   -0.25418E-02  5663   0.859E-02    0.102E-01
RMM:   4    -0.232037318447E+04   -0.34601E-04   -0.20544E-03  4044   0.159E-02    0.812E-02
RMM:   5    -0.232037312977E+04    0.54708E-04   -0.27827E-04  3622   0.101E-02    0.620E-02
RMM:   6    -0.232037308274E+04    0.47028E-04   -0.13476E-04  3723   0.810E-03    0.248E-02
RMM:   7    -0.232037308324E+04   -0.49849E-06   -0.26635E-05  2933   0.528E-03
  57 F= -.23412334E+04 E0= -.23412334E+04  d E =-.338162E-02  mag=     5.0000
       N       E                     dE             d eps       ncg     rms          rms(c)
DAV:   1    -0.232034686511E+04    0.26218E-01   -0.17871E+00  4492   0.108E+00    0.354E-01
RMM:   2    -0.232037273657E+04   -0.25871E-01   -0.27377E-01  6261   0.243E-01    0.198E-01
RMM:   3    -0.232037529089E+04   -0.25543E-02   -0.30381E-02  5702   0.960E-02    0.116E-01
RMM:   4    -0.232037539843E+04   -0.10754E-03   -0.26921E-03  4320   0.184E-02    0.124E-01
RMM:   5    -0.232037529060E+04    0.10783E-03   -0.24301E-04  3199   0.902E-03    0.850E-02
RMM:   6    -0.232037521824E+04    0.72356E-04   -0.24315E-04  4157   0.922E-03    0.337E-02
RMM:   7    -0.232037521341E+04    0.48276E-05   -0.57419E-05  3016   0.688E-03
  58 F= -.23412347E+04 E0= -.23412347E+04  d E =-.462742E-02  mag=     5.0000
       N       E                     dE             d eps       ncg     rms          rms(c)
DAV:   1    -0.232035419556E+04    0.21023E-01   -0.15862E+00  4492   0.107E+00    0.352E-01
RMM:   2    -0.232037631118E+04   -0.22116E-01   -0.23467E-01  6247   0.238E-01    0.186E-01
RMM:   3    -0.232037850689E+04   -0.21957E-02   -0.25923E-02  5709   0.942E-02    0.142E-01
RMM:   4    -0.232037858583E+04   -0.78946E-04   -0.23987E-03  4236   0.183E-02    0.134E-01
RMM:   5    -0.232037841284E+04    0.17299E-03   -0.29239E-04  3961   0.105E-02    0.625E-02
RMM:   6    -0.232037838019E+04    0.32649E-04   -0.22541E-04  4274   0.980E-03    0.364E-02
RMM:   7    -0.232037836767E+04    0.12518E-04   -0.46526E-05  2993   0.685E-03    0.179E-02
RMM:   8    -0.232037836409E+04    0.35810E-05   -0.83182E-06  2877   0.323E-03
  59 F= -.23412373E+04 E0= -.23412373E+04  d E =-.264643E-02  mag=     5.0000
       N       E                     dE             d eps       ncg     rms          rms(c)
DAV:   1    -0.232037209607E+04    0.62716E-02   -0.44051E-01  4560   0.564E-01    0.185E-01
RMM:   2    -0.232037825606E+04   -0.61600E-02   -0.65207E-02  6177   0.125E-01    0.103E-01
RMM:   3    -0.232037887427E+04   -0.61821E-03   -0.71716E-03  5196   0.490E-02    0.929E-02
RMM:   4    -0.232037886655E+04    0.77191E-05   -0.66474E-04  3133   0.993E-03    0.633E-02
RMM:   5    -0.232037881889E+04    0.47655E-04   -0.81582E-05  3077   0.622E-03    0.322E-02
RMM:   6    -0.232037880953E+04    0.93596E-05   -0.61264E-05  3129   0.620E-03
  60 F= -.23412375E+04 E0= -.23412375E+04  d E =-.282491E-02  mag=     5.0000
       N       E                     dE             d eps       ncg     rms          rms(c)
DAV:   1    -0.232036393788E+04    0.14881E-01   -0.12109E+00  4512   0.919E-01    0.281E-01
RMM:   2    -0.232037931948E+04   -0.15382E-01   -0.16230E-01  6218   0.197E-01    0.163E-01
RMM:   3    -0.232038085156E+04   -0.15321E-02   -0.17399E-02  5646   0.768E-02    0.144E-01
RMM:   4    -0.232038084621E+04    0.53470E-05   -0.16817E-03  3619   0.151E-02    0.998E-02
RMM:   5    -0.232038073354E+04    0.11267E-03   -0.19444E-04  3506   0.921E-03    0.509E-02
RMM:   6    -0.232038070823E+04    0.25305E-04   -0.14210E-04  3895   0.868E-03    0.249E-02
RMM:   7    -0.232038070603E+04    0.22006E-05   -0.25945E-05  2921   0.602E-03
  61 F= -.23412394E+04 E0= -.23412394E+04  d E =-.192127E-02  mag=     5.0000
       N       E                     dE             d eps       ncg     rms          rms(c)
DAV:   1    -0.232037544393E+04    0.52643E-02   -0.39647E-01  4528   0.525E-01    0.162E-01
RMM:   2    -0.232038048872E+04   -0.50448E-02   -0.53243E-02  6291   0.113E-01    0.996E-02
RMM:   3    -0.232038100243E+04   -0.51371E-03   -0.57120E-03  4961   0.447E-02    0.962E-02
RMM:   4    -0.232038097966E+04    0.22769E-04   -0.55619E-04  3094   0.925E-03    0.540E-02
RMM:   5    -0.232038094489E+04    0.34764E-04   -0.66752E-05  3005   0.587E-03    0.302E-02
RMM:   6    -0.232038093643E+04    0.84684E-05   -0.51603E-05  3052   0.578E-03
  62 F= -.23412397E+04 E0= -.23412397E+04  d E =-.216554E-02  mag=     5.0000
       N       E                     dE             d eps       ncg     rms          rms(c)
DAV:   1    -0.232036962958E+04    0.11315E-01   -0.10420E+00  4512   0.865E-01    0.268E-01
RMM:   2    -0.232038194066E+04   -0.12311E-01   -0.13031E-01  6113   0.182E-01    0.152E-01
RMM:   3    -0.232038313383E+04   -0.11932E-02   -0.13879E-02  5564   0.696E-02    0.143E-01
RMM:   4    -0.232038308897E+04    0.44863E-04   -0.13506E-03  3651   0.142E-02    0.913E-02
RMM:   5    -0.232038299416E+04    0.94808E-04   -0.17503E-04  3438   0.899E-03    0.442E-02
RMM:   6    -0.232038297554E+04    0.18619E-04   -0.12702E-04  3858   0.847E-03    0.237E-02
RMM:   7    -0.232038297263E+04    0.29138E-05   -0.19439E-05  2929   0.557E-03
  63 F= -.23412417E+04 E0= -.23412417E+04  d E =-.200581E-02  mag=     5.0000
       N       E                     dE             d eps       ncg     rms          rms(c)
DAV:   1    -0.232037636469E+04    0.66109E-02   -0.52347E-01  4528   0.613E-01    0.191E-01
RMM:   2    -0.232038255037E+04   -0.61857E-02   -0.65325E-02  6214   0.130E-01    0.117E-01
RMM:   3    -0.232038317225E+04   -0.62188E-03   -0.70499E-03  5376   0.510E-02    0.119E-01
RMM:   4    -0.232038310927E+04    0.62981E-04   -0.68243E-04  3169   0.106E-02    0.606E-02
RMM:   5    -0.232038306916E+04    0.40109E-04   -0.94016E-05  3092   0.688E-03    0.357E-02
RMM:   6    -0.232038306302E+04    0.61455E-05   -0.73795E-05  3097   0.666E-03
  64 F= -.23412417E+04 E0= -.23412417E+04  d E =-.207562E-02  mag=     5.0000
       N       E                     dE             d eps       ncg     rms          rms(c)
DAV:   1    -0.232038231246E+04    0.75670E-03   -0.65852E-02  4752   0.218E-01    0.683E-02
RMM:   2    -0.232038311242E+04   -0.79996E-03   -0.82043E-03  6358   0.487E-02    0.657E-02
RMM:   3    -0.232038317650E+04   -0.64078E-04   -0.92691E-04  3215   0.178E-02    0.522E-02
RMM:   4    -0.232038315917E+04    0.17323E-04   -0.86541E-05  2969   0.532E-03    0.189E-02
RMM:   5    -0.232038315362E+04    0.55538E-05   -0.12222E-05  2908   0.281E-03
  65 F= -.23412418E+04 E0= -.23412418E+04  d E =-.217339E-02  mag=     5.0000
       N       E                     dE             d eps       ncg     rms          rms(c)
DAV:   1    -0.232037321815E+04    0.99410E-02   -0.92410E-01  4512   0.806E-01    0.249E-01
RMM:   2    -0.232038380101E+04   -0.10583E-01   -0.11177E-01  6267   0.171E-01    0.157E-01
RMM:   3    -0.232038490091E+04   -0.10999E-02   -0.12658E-02  5642   0.659E-02    0.151E-01
RMM:   4    -0.232038481013E+04    0.90774E-04   -0.11653E-03  3487   0.136E-02    0.757E-02
RMM:   5    -0.232038474969E+04    0.60442E-04   -0.14698E-04  3318   0.839E-03    0.482E-02
RMM:   6    -0.232038473959E+04    0.10099E-04   -0.12644E-04  3508   0.819E-03    0.415E-02
RMM:   7    -0.232038472395E+04    0.15638E-04   -0.36145E-05  2958   0.602E-03    0.209E-02
RMM:   8    -0.232038472062E+04    0.33357E-05   -0.93038E-06  2890   0.360E-03
  66 F= -.23412434E+04 E0= -.23412434E+04  d E =-.159454E-02  mag=     5.0000
       N       E                     dE             d eps       ncg     rms          rms(c)
DAV:   1    -0.232038217285E+04    0.25511E-02   -0.21591E-01  4544   0.390E-01    0.121E-01
RMM:   2    -0.232038466143E+04   -0.24886E-02   -0.26310E-02  6192   0.830E-02    0.756E-02
RMM:   3    -0.232038490128E+04   -0.23985E-03   -0.27818E-03  4150   0.300E-02    0.729E-02
RMM:   4    -0.232038488010E+04    0.21177E-04   -0.26814E-04  3010   0.729E-03    0.371E-02
RMM:   5    -0.232038486583E+04    0.14271E-04   -0.36391E-05  2935   0.457E-03    0.233E-02
RMM:   6    -0.232038486416E+04    0.16712E-05   -0.31982E-05  2985   0.448E-03
  67 F= -.23412436E+04 E0= -.23412436E+04  d E =-.175203E-02  mag=     5.0000
       N       E                     dE             d eps       ncg     rms          rms(c)
DAV:   1    -0.232038178527E+04    0.30806E-02   -0.42562E-01  4512   0.572E-01    0.179E-01
RMM:   2    -0.232038578337E+04   -0.39981E-02   -0.43076E-02  6035   0.119E-01    0.864E-02
RMM:   3    -0.232038612639E+04   -0.34302E-03   -0.47051E-03  5266   0.489E-02    0.640E-02
RMM:   4    -0.232038613351E+04   -0.71250E-05   -0.43584E-04  3340   0.986E-03    0.598E-02
RMM:   5    -0.232038610144E+04    0.32073E-04   -0.91182E-05  3077   0.740E-03    0.350E-02
RMM:   6    -0.232038609337E+04    0.80673E-05   -0.43380E-05  3083   0.607E-03
  68 F= -.23412447E+04 E0= -.23412447E+04  d E =-.113761E-02  mag=     5.0000
       N       E                     dE             d eps       ncg     rms          rms(c)
DAV:   1    -0.232038452279E+04    0.15786E-02   -0.17185E-01  4544   0.364E-01    0.114E-01
RMM:   2    -0.232038614677E+04   -0.16240E-02   -0.17496E-02  6306   0.775E-02    0.566E-02
RMM:   3    -0.232038629605E+04   -0.14928E-03   -0.20025E-03  4330   0.293E-02    0.441E-02
RMM:   4    -0.232038629081E+04    0.52419E-05   -0.18066E-04  3011   0.710E-03    0.346E-02
RMM:   5    -0.232038627667E+04    0.14141E-04   -0.34347E-05  2929   0.471E-03    0.213E-02
RMM:   6    -0.232038627771E+04   -0.10415E-05   -0.22142E-05  2933   0.430E-03
  69 F= -.23412448E+04 E0= -.23412448E+04  d E =-.126360E-02  mag=     5.0000
       N       E                     dE             d eps       ncg     rms          rms(c)
DAV:   1    -0.232038395232E+04    0.23244E-02   -0.34596E-01  4496   0.479E-01    0.138E-01
RMM:   2    -0.232038721379E+04   -0.32615E-02   -0.34633E-02  6396   0.101E-01    0.805E-02
RMM:   3    -0.232038750572E+04   -0.29193E-03   -0.36000E-03  4656   0.360E-02    0.763E-02
RMM:   4    -0.232038748580E+04    0.19924E-04   -0.31136E-04  3042   0.797E-03    0.495E-02
RMM:   5    -0.232038745768E+04    0.28113E-04   -0.56254E-05  3006   0.548E-03    0.224E-02
RMM:   6    -0.232038745393E+04    0.37565E-05   -0.28840E-05  2971   0.476E-03
  70 F= -.23412458E+04 E0= -.23412458E+04  d E =-.945518E-03  mag=     5.0000
       N       E                     dE             d eps       ncg     rms          rms(c)
DAV:   1    -0.232038029406E+04    0.71636E-02   -0.78449E-01  4480   0.720E-01    0.208E-01
RMM:   2    -0.232038769151E+04   -0.73974E-02   -0.78350E-02  6259   0.151E-01    0.129E-01
RMM:   3    -0.232038836103E+04   -0.66952E-03   -0.81543E-03  5350   0.552E-02    0.127E-01
RMM:   4    -0.232038829125E+04    0.69784E-04   -0.71216E-04  3313   0.113E-02    0.703E-02
RMM:   5    -0.232038823337E+04    0.57876E-04   -0.12262E-04  3227   0.781E-03    0.356E-02
RMM:   6    -0.232038822798E+04    0.53964E-05   -0.76258E-05  3219   0.694E-03
  71 F= -.23412462E+04 E0= -.23412462E+04  d E =-.137276E-02  mag=     5.0000
       N       E                     dE             d eps       ncg     rms          rms(c)
DAV:   1    -0.232038683628E+04    0.13971E-02   -0.30211E-01  4496   0.451E-01    0.129E-01
RMM:   2    -0.232038916247E+04   -0.23262E-02   -0.24850E-02  6327   0.915E-02    0.697E-02
RMM:   3    -0.232038933800E+04   -0.17553E-03   -0.24276E-03  4545   0.317E-02    0.594E-02
RMM:   4    -0.232038932628E+04    0.11715E-04   -0.21684E-04  3022   0.766E-03    0.429E-02
RMM:   5    -0.232038931002E+04    0.16258E-04   -0.54353E-05  2968   0.558E-03    0.299E-02
RMM:   6    -0.232038930747E+04    0.25560E-05   -0.28144E-05  2932   0.476E-03
  72 F= -.23412472E+04 E0= -.23412472E+04  d E =-.936945E-03  mag=     5.0000
       N       E                     dE             d eps       ncg     rms          rms(c)
DAV:   1    -0.232038279742E+04    0.65126E-02   -0.88952E-01  4480   0.773E-01    0.220E-01
RMM:   2    -0.232038964576E+04   -0.68483E-02   -0.72772E-02  6186   0.155E-01    0.129E-01
RMM:   3    -0.232039019713E+04   -0.55138E-03   -0.72084E-03  5594   0.549E-02    0.134E-01
RMM:   4    -0.232039010836E+04    0.88774E-04   -0.64132E-04  3368   0.117E-02    0.730E-02
RMM:   5    -0.232039005165E+04    0.56707E-04   -0.14064E-04  3388   0.866E-03    0.385E-02
RMM:   6    -0.232039004484E+04    0.68105E-05   -0.80685E-05  3267   0.787E-03
  73 F= -.23412476E+04 E0= -.23412476E+04  d E =-.142970E-02  mag=     5.0000
       N       E                     dE             d eps       ncg     rms          rms(c)
DAV:   1    -0.232038936828E+04    0.68337E-03   -0.29805E-01  4528   0.442E-01    0.119E-01
RMM:   2    -0.232039096013E+04   -0.15919E-02   -0.16984E-02  6228   0.838E-02    0.657E-02
RMM:   3    -0.232039106800E+04   -0.10787E-03   -0.16099E-03  4421   0.281E-02    0.705E-02
RMM:   4    -0.232039104361E+04    0.24390E-04   -0.15221E-04  2983   0.725E-03    0.407E-02
RMM:   5    -0.232039102930E+04    0.14310E-04   -0.43146E-05  2949   0.527E-03    0.216E-02
RMM:   6    -0.232039102829E+04    0.10126E-05   -0.27681E-05  2926   0.499E-03
  74 F= -.23412486E+04 E0= -.23412486E+04  d E =-.946240E-03  mag=     5.0000
       N       E                     dE             d eps       ncg     rms          rms(c)
DAV:   1    -0.232038462172E+04    0.64076E-02   -0.13096E+00  4496   0.925E-01    0.248E-01
RMM:   2    -0.232039165935E+04   -0.70376E-02   -0.74503E-02  6085   0.173E-01    0.161E-01
RMM:   3    -0.232039211134E+04   -0.45199E-03   -0.66323E-03  5609   0.594E-02    0.181E-01
RMM:   4    -0.232039189094E+04    0.22039E-03   -0.67470E-04  3993   0.141E-02    0.773E-02
RMM:   5    -0.232039184835E+04    0.42599E-04   -0.20941E-04  3825   0.104E-02    0.555E-02
RMM:   6    -0.232039182551E+04    0.22836E-04   -0.14073E-04  3570   0.920E-03    0.315E-02
RMM:   7    -0.232039181481E+04    0.10702E-04   -0.25563E-05  2937   0.582E-03    0.115E-02
RMM:   8    -0.232039181342E+04    0.13893E-05   -0.65308E-06  2881   0.315E-03
  75 F= -.23412493E+04 E0= -.23412493E+04  d E =-.165450E-02  mag=     5.0000
       N       E                     dE             d eps       ncg     rms          rms(c)
DAV:   1    -0.232039065263E+04    0.11622E-02   -0.44253E-01  4512   0.534E-01    0.144E-01
RMM:   2    -0.232039288922E+04   -0.22366E-02   -0.23500E-02  6048   0.979E-02    0.112E-01
RMM:   3    -0.232039298347E+04   -0.94252E-04   -0.19324E-03  4734   0.314E-02    0.116E-01
RMM:   4    -0.232039288182E+04    0.10164E-03   -0.20596E-04  3116   0.871E-03    0.436E-02
RMM:   5    -0.232039287609E+04    0.57372E-05   -0.81983E-05  3027   0.648E-03
  76 F= -.23412504E+04 E0= -.23412504E+04  d E =-.106874E-02  mag=     5.0000
       N       E                     dE             d eps       ncg     rms          rms(c)
DAV:   1    -0.232038869236E+04    0.41895E-02   -0.89283E-01  4496   0.758E-01    0.205E-01
RMM:   2    -0.232039310558E+04   -0.44132E-02   -0.46844E-02  6138   0.139E-01    0.147E-01
RMM:   3    -0.232039334676E+04   -0.24118E-03   -0.43286E-03  5443   0.483E-02    0.152E-01
RMM:   4    -0.232039316271E+04    0.18405E-03   -0.41756E-04  3691   0.119E-02    0.634E-02
RMM:   5    -0.232039315827E+04    0.44379E-05   -0.19226E-04  3500   0.929E-03    0.621E-02
RMM:   6    -0.232039311277E+04    0.45500E-04   -0.11132E-04  3486   0.817E-03    0.210E-02
RMM:   7    -0.232039311054E+04    0.22293E-05   -0.15866E-05  2925   0.519E-03
  77 F= -.23412506E+04 E0= -.23412506E+04  d E =-.131297E-02  mag=     5.0000
       N       E                     dE             d eps       ncg     rms          rms(c)
DAV:   1    -0.232039144994E+04    0.16628E-02   -0.44770E-01  4496   0.528E-01    0.142E-01
RMM:   2    -0.232039386742E+04   -0.24175E-02   -0.25039E-02  6156   0.983E-02    0.125E-01
RMM:   3    -0.232039393220E+04   -0.64784E-04   -0.19877E-03  4724   0.310E-02    0.112E-01
RMM:   4    -0.232039383951E+04    0.92684E-04   -0.21419E-04  3101   0.858E-03    0.452E-02
RMM:   5    -0.232039383672E+04    0.27981E-05   -0.77524E-05  3001   0.609E-03
  78 F= -.23412514E+04 E0= -.23412514E+04  d E =-.763335E-03  mag=     5.0000
       N       E                     dE             d eps       ncg     rms          rms(c)
DAV:   1    -0.232038729007E+04    0.65494E-02   -0.12769E+00  4492   0.892E-01    0.237E-01
RMM:   2    -0.232039401248E+04   -0.67224E-02   -0.70421E-02  6177   0.164E-01    0.189E-01
RMM:   3    -0.232039429326E+04   -0.28078E-03   -0.59816E-03  5558   0.538E-02    0.177E-01
RMM:   4    -0.232039406080E+04    0.23246E-03   -0.59477E-04  3833   0.133E-02    0.766E-02
RMM:   5    -0.232039406083E+04   -0.31869E-07   -0.24300E-04  3476   0.998E-03    0.745E-02
RMM:   6    -0.232039399706E+04    0.63763E-04   -0.15291E-04  3831   0.920E-03    0.242E-02
RMM:   7    -0.232039399505E+04    0.20174E-05   -0.18791E-05  2947   0.531E-03
  79 F= -.23412516E+04 E0= -.23412516E+04  d E =-.986613E-03  mag=     5.0000
       N       E                     dE             d eps       ncg     rms          rms(c)
DAV:   1    -0.232039058222E+04    0.34148E-02   -0.74190E-01  4496   0.690E-01    0.198E-01
RMM:   2    -0.232039537129E+04   -0.47891E-02   -0.49517E-02  6163   0.135E-01    0.173E-01
RMM:   3    -0.232039554485E+04   -0.17356E-03   -0.40988E-03  5361   0.434E-02    0.157E-01
RMM:   4    -0.232039535295E+04    0.19190E-03   -0.42333E-04  3502   0.111E-02    0.605E-02
RMM:   5    -0.232039534556E+04    0.73895E-05   -0.13624E-04  3172   0.800E-03    0.557E-02
RMM:   6    -0.232039530666E+04    0.38897E-04   -0.11176E-04  3589   0.832E-03    0.178E-02
RMM:   7    -0.232039530517E+04    0.14954E-05   -0.15139E-05  2930   0.503E-03
  80 F= -.23412528E+04 E0= -.23412528E+04  d E =-.119859E-02  mag=     5.0000
       N       E                     dE             d eps       ncg     rms          rms(c)
DAV:   1    -0.232039065117E+04    0.46555E-02   -0.80926E-01  4496   0.720E-01    0.206E-01
RMM:   2    -0.232039586932E+04   -0.52181E-02   -0.53983E-02  6177   0.140E-01    0.180E-01
RMM:   3    -0.232039605757E+04   -0.18826E-03   -0.44443E-03  5395   0.446E-02    0.163E-01
RMM:   4    -0.232039584982E+04    0.20776E-03   -0.46100E-04  3588   0.115E-02    0.635E-02
RMM:   5    -0.232039584036E+04    0.94531E-05   -0.14835E-04  3209   0.827E-03    0.583E-02
RMM:   6    -0.232039579674E+04    0.43618E-04   -0.12297E-04  3732   0.860E-03    0.187E-02
RMM:   7    -0.232039579474E+04    0.20050E-05   -0.16231E-05  2934   0.502E-03
  81 F= -.23412532E+04 E0= -.23412532E+04  d E =-.157310E-02  mag=     5.0000
       N       E                     dE             d eps       ncg     rms          rms(c)
DAV:   1    -0.232039419456E+04    0.16022E-02   -0.35178E-01  4496   0.482E-01    0.149E-01
RMM:   2    -0.232039705801E+04   -0.28635E-02   -0.29722E-02  6193   0.100E-01    0.131E-01
RMM:   3    -0.232039719475E+04   -0.13674E-03   -0.26376E-03  4828   0.331E-02    0.119E-01
RMM:   4    -0.232039708231E+04    0.11244E-03   -0.25638E-04  3174   0.880E-03    0.449E-02
RMM:   5    -0.232039707378E+04    0.85302E-05   -0.77978E-05  3017   0.639E-03
  82 F= -.23412542E+04 E0= -.23412542E+04  d E =-.105043E-02  mag=     5.0000
       N       E                     dE             d eps       ncg     rms          rms(c)
DAV:   1    -0.232039449204E+04    0.25903E-02   -0.36929E-01  4480   0.495E-01    0.152E-01
RMM:   2    -0.232039741005E+04   -0.29180E-02   -0.30675E-02  6303   0.102E-01    0.121E-01
RMM:   3    -0.232039759995E+04   -0.18990E-03   -0.30860E-03  4816   0.364E-02    0.112E-01
RMM:   4    -0.232039749660E+04    0.10335E-03   -0.26820E-04  3217   0.915E-03    0.476E-02
RMM:   5    -0.232039748972E+04    0.68756E-05   -0.98987E-05  3021   0.706E-03
  83 F= -.23412544E+04 E0= -.23412544E+04  d E =-.123092E-02  mag=     5.0000
       N       E                     dE             d eps       ncg     rms          rms(c)
DAV:   1    -0.232039494183E+04    0.25548E-02   -0.43764E-01  4480   0.524E-01    0.155E-01
RMM:   2    -0.232039824251E+04   -0.33007E-02   -0.34215E-02  6371   0.106E-01    0.138E-01
RMM:   3    -0.232039841840E+04   -0.17589E-03   -0.33980E-03  4924   0.366E-02    0.112E-01
RMM:   4    -0.232039832680E+04    0.91599E-04   -0.30823E-04  3182   0.903E-03    0.482E-02
RMM:   5    -0.232039831809E+04    0.87088E-05   -0.89722E-05  3000   0.663E-03
  84 F= -.23412551E+04 E0= -.23412551E+04  d E =-.696099E-03  mag=     5.0000
       N       E                     dE             d eps       ncg     rms          rms(c)
DAV:   1    -0.232039675519E+04    0.15716E-02   -0.21987E-01  4544   0.372E-01    0.111E-01
RMM:   2    -0.232039839846E+04   -0.16433E-02   -0.17144E-02  6364   0.751E-02    0.923E-02
RMM:   3    -0.232039849031E+04   -0.91847E-04   -0.17616E-03  3992   0.270E-02    0.732E-02
RMM:   4    -0.232039844991E+04    0.40400E-04   -0.15632E-04  3034   0.723E-03    0.358E-02
RMM:   5    -0.232039844735E+04    0.25547E-05   -0.52365E-05  2939   0.517E-03
  85 F= -.23412551E+04 E0= -.23412551E+04  d E =-.731859E-03  mag=     5.0000
       N       E                     dE             d eps       ncg     rms          rms(c)
DAV:   1    -0.232039632927E+04    0.21206E-02   -0.46568E-01  4480   0.558E-01    0.163E-01
RMM:   2    -0.232039938179E+04   -0.30525E-02   -0.31379E-02  6158   0.108E-01    0.141E-01
RMM:   3    -0.232039953330E+04   -0.15151E-03   -0.31352E-03  5074   0.387E-02    0.119E-01
RMM:   4    -0.232039942753E+04    0.10577E-03   -0.30378E-04  3219   0.953E-03    0.470E-02
RMM:   5    -0.232039941884E+04    0.86887E-05   -0.90777E-05  3015   0.687E-03
  86 F= -.23412561E+04 E0= -.23412561E+04  d E =-.960681E-03  mag=     5.0000
       N       E                     dE             d eps       ncg     rms          rms(c)
DAV:   1    -0.232039306485E+04    0.63627E-02   -0.10125E+00  4476   0.822E-01    0.240E-01
RMM:   2    -0.232039968616E+04   -0.66213E-02   -0.68070E-02  6157   0.158E-01    0.212E-01
RMM:   3    -0.232040000730E+04   -0.32115E-03   -0.68268E-03  5619   0.585E-02    0.178E-01
RMM:   4    -0.232039976339E+04    0.24392E-03   -0.67188E-04  4164   0.136E-02    0.689E-02
RMM:   5    -0.232039974370E+04    0.19690E-04   -0.19929E-04  3434   0.968E-03    0.625E-02
RMM:   6    -0.232039969361E+04    0.50085E-04   -0.14235E-04  3974   0.897E-03    0.286E-02
RMM:   7    -0.232039968773E+04    0.58876E-05   -0.22487E-05  2936   0.562E-03
  87 F= -.23412564E+04 E0= -.23412564E+04  d E =-.121403E-02  mag=     5.0000
       N       E                     dE             d eps       ncg     rms          rms(c)
DAV:   1    -0.232039742619E+04    0.22674E-02   -0.48208E-01  4496   0.544E-01    0.153E-01
RMM:   2    -0.232040060167E+04   -0.31755E-02   -0.31856E-02  6244   0.103E-01    0.164E-01
RMM:   3    -0.232040068285E+04   -0.81185E-04   -0.31119E-03  4882   0.352E-02    0.111E-01
RMM:   4    -0.232040059955E+04    0.83305E-04   -0.31537E-04  3146   0.895E-03    0.458E-02
RMM:   5    -0.232040059102E+04    0.85273E-05   -0.70568E-05  3003   0.588E-03
  88 F= -.23412574E+04 E0= -.23412574E+04  d E =-.104586E-02  mag=     5.0000
       N       E                     dE             d eps       ncg     rms          rms(c)
DAV:   1    -0.232037381943E+04    0.26780E-01   -0.41731E+00  4472   0.160E+00    0.443E-01
RMM:   2    -0.232040068343E+04   -0.26864E-01   -0.27233E-01  6220   0.297E-01    0.434E-01
RMM:   3    -0.232040181256E+04   -0.11291E-02   -0.27294E-02  5877   0.104E-01    0.321E-01
RMM:   4    -0.232040107741E+04    0.73515E-03   -0.26662E-03  5211   0.237E-02    0.135E-01
RMM:   5    -0.232040100273E+04    0.74682E-04   -0.61759E-04  4532   0.148E-02    0.121E-01
RMM:   6    -0.232040082238E+04    0.18035E-03   -0.51673E-04  4867   0.141E-02    0.570E-02
RMM:   7    -0.232040080530E+04    0.17073E-04   -0.84634E-05  3074   0.852E-03    0.176E-02
RMM:   8    -0.232040080377E+04    0.15289E-05   -0.13091E-05  2919   0.392E-03
  89 F= -.23412580E+04 E0= -.23412580E+04  d E =-.168269E-02  mag=     5.0000
       N       E                     dE             d eps       ncg     rms          rms(c)
DAV:   1    -0.232039919382E+04    0.16115E-02   -0.29478E-01  4512   0.424E-01    0.119E-01
RMM:   2    -0.232040110775E+04   -0.19139E-02   -0.19250E-02  6267   0.799E-02    0.126E-01
RMM:   3    -0.232040115541E+04   -0.47662E-04   -0.18303E-03  4078   0.258E-02    0.854E-02
RMM:   4    -0.232040110480E+04    0.50607E-04   -0.18707E-04  3045   0.746E-03    0.359E-02
RMM:   5    -0.232040109899E+04    0.58099E-05   -0.44072E-05  2958   0.471E-03
  90 F= -.23412582E+04 E0= -.23412582E+04  d E =-.186467E-02  mag=     5.0000
       N       E                     dE             d eps       ncg     rms          rms(c)
DAV:   1    -0.232039811573E+04    0.29891E-02   -0.60523E-01  4480   0.605E-01    0.180E-01
RMM:   2    -0.232040218807E+04   -0.40723E-02   -0.40671E-02  6120   0.116E-01    0.202E-01
RMM:   3    -0.232040221352E+04   -0.25454E-04   -0.39189E-03  5133   0.388E-02    0.130E-01
RMM:   4    -0.232040209959E+04    0.11394E-03   -0.41428E-04  3255   0.988E-03    0.541E-02
RMM:   5    -0.232040208349E+04    0.16101E-04   -0.92436E-05  3038   0.659E-03    0.484E-02
RMM:   6    -0.232040204993E+04    0.33553E-04   -0.77021E-05  3133   0.674E-03    0.210E-02
RMM:   7    -0.232040204697E+04    0.29636E-05   -0.23722E-05  2935   0.515E-03
  91 F= -.23412594E+04 E0= -.23412594E+04  d E =-.121216E-02  mag=     5.0000
       N       E                     dE             d eps       ncg     rms          rms(c)
DAV:   1    -0.232039386006E+04    0.81899E-02   -0.12466E+00  4472   0.869E-01    0.253E-01
RMM:   2    -0.232040203691E+04   -0.81768E-02   -0.82968E-02  6173   0.164E-01    0.254E-01
RMM:   3    -0.232040227256E+04   -0.23565E-03   -0.79010E-03  5629   0.567E-02    0.186E-01
RMM:   4    -0.232040203962E+04    0.23294E-03   -0.85712E-04  3848   0.137E-02    0.787E-02
[...]
 159 F= -.23412823E+04 E0= -.23412823E+04  d E =-.237246E-03  mag=     5.0000
       N       E                     dE             d eps       ncg     rms          rms(c)
DAV:   1    -0.232042002824E+04    0.47519E-03   -0.18800E-01  4488   0.375E-01    0.920E-02
RMM:   2    -0.232042074054E+04   -0.71230E-03   -0.76948E-03  5674   0.596E-02    0.452E-02
RMM:   3    -0.232042075442E+04   -0.13880E-04   -0.60988E-04  3963   0.247E-02    0.317E-02
RMM:   4    -0.232042075133E+04    0.30929E-05   -0.82903E-05  3039   0.646E-03
 160 F= -.23412826E+04 E0= -.23412826E+04  d E =-.220655E-03  mag=     5.0000
       N       E                     dE             d eps       ncg     rms          rms(c)
DAV:   1    -0.232042072568E+04    0.28737E-04   -0.45161E-03  5176   0.585E-02    0.250E-02
RMM:   2    -0.232042076682E+04   -0.41137E-04   -0.23182E-04  3908   0.112E-02    0.591E-02
RMM:   3    -0.232042074126E+04    0.25566E-04   -0.37658E-05  2898   0.589E-03    0.946E-03
RMM:   4    -0.232042074027E+04    0.98198E-06   -0.53254E-06  2836   0.214E-03
 161 F= -.23412825E+04 E0= -.23412825E+04  d E =-.204339E-03  mag=     5.0000
       N       E                     dE             d eps       ncg     rms          rms(c)
DAV:   1    -0.232042027661E+04    0.46465E-03   -0.16599E-01  4488   0.359E-01    0.924E-02
RMM:   2    -0.232042093581E+04   -0.65920E-03   -0.71569E-03  5811   0.582E-02    0.439E-02
RMM:   3    -0.232042094997E+04   -0.14159E-04   -0.55382E-04  3875   0.221E-02    0.317E-02
RMM:   4    -0.232042095119E+04   -0.12260E-05   -0.76597E-05  2990   0.618E-03
 162 F= -.23412828E+04 E0= -.23412828E+04  d E =-.250508E-03  mag=     5.0000
       N       E                     dE             d eps       ncg     rms          rms(c)
DAV:   1    -0.232042085572E+04    0.94243E-04   -0.16883E-02  4776   0.114E-01    0.339E-02
RMM:   2    -0.232042092934E+04   -0.73615E-04   -0.75909E-04  5560   0.200E-02    0.359E-02
RMM:   3    -0.232042092710E+04    0.22426E-05   -0.68998E-05  2924   0.789E-03
 163 F= -.23412828E+04 E0= -.23412828E+04  d E =-.239211E-03  mag=     5.0000
       N       E                     dE             d eps       ncg     rms          rms(c)
DAV:   1    -0.232042040604E+04    0.52330E-03   -0.15930E-01  4492   0.353E-01    0.925E-02
RMM:   2    -0.232042109269E+04   -0.68665E-03   -0.74350E-03  5925   0.591E-02    0.478E-02
RMM:   3    -0.232042111661E+04   -0.23916E-04   -0.64077E-04  3810   0.214E-02    0.388E-02
RMM:   4    -0.232042111583E+04    0.77698E-06   -0.88532E-05  2974   0.628E-03
 164 F= -.23412830E+04 E0= -.23412830E+04  d E =-.200856E-03  mag=     5.0000
       N       E                     dE             d eps       ncg     rms          rms(c)
DAV:   1    -0.232042108881E+04    0.27792E-04   -0.17345E-03  5328   0.371E-02    0.218E-02
RMM:   2    -0.232042110404E+04   -0.15227E-04   -0.11055E-04  3145   0.779E-03    0.331E-02
RMM:   3    -0.232042109400E+04    0.10038E-04   -0.19549E-05  2810   0.462E-03    0.129E-02
RMM:   4    -0.232042109384E+04    0.16384E-06   -0.58716E-06  2711   0.193E-03
 165 F= -.23412830E+04 E0= -.23412830E+04  d E =-.180165E-03  mag=     5.0000
       N       E                     dE             d eps       ncg     rms          rms(c)
DAV:   1    -0.232042055311E+04    0.54089E-03   -0.16154E-01  4492   0.355E-01    0.944E-02
RMM:   2    -0.232042130774E+04   -0.75463E-03   -0.81295E-03  5960   0.601E-02    0.489E-02
RMM:   3    -0.232042133936E+04   -0.31622E-04   -0.66643E-04  3788   0.219E-02    0.387E-02
RMM:   4    -0.232042132655E+04    0.12805E-04   -0.86390E-05  3016   0.671E-03    0.269E-02
RMM:   5    -0.232042131642E+04    0.10128E-04   -0.34995E-05  2987   0.554E-03    0.147E-02
RMM:   6    -0.232042131772E+04   -0.12937E-05   -0.13438E-05  2899   0.462E-03
 166 F= -.23412831E+04 E0= -.23412831E+04  d E =-.172560E-03  mag=     5.0000
       N       E                     dE             d eps       ncg     rms          rms(c)
DAV:   1    -0.232042131335E+04    0.30759E-05   -0.36875E-04  5064   0.172E-02    0.616E-03
RMM:   2    -0.232042131525E+04   -0.19043E-05   -0.22232E-05  2729   0.381E-03
 167 F= -.23412831E+04 E0= -.23412831E+04  d E =-.167585E-03  mag=     5.0000
       N       E                     dE             d eps       ncg     rms          rms(c)
DAV:   1    -0.232042083493E+04    0.47842E-03   -0.14492E-01  4492   0.335E-01    0.882E-02
RMM:   2    -0.232042154898E+04   -0.71405E-03   -0.75986E-03  6026   0.580E-02    0.498E-02
RMM:   3    -0.232042158214E+04   -0.33159E-04   -0.65754E-04  3814   0.221E-02    0.446E-02
RMM:   4    -0.232042156983E+04    0.12306E-04   -0.81504E-05  2961   0.624E-03    0.317E-02
RMM:   5    -0.232042156525E+04    0.45815E-05   -0.29323E-05  2939   0.452E-03
 168 F= -.23412833E+04 E0= -.23412833E+04  d E =-.190462E-03  mag=     5.0000
       N       E                     dE             d eps       ncg     rms          rms(c)
DAV:   1    -0.232042152048E+04    0.49354E-04   -0.90558E-03  4792   0.838E-02    0.244E-02
RMM:   2    -0.232042156941E+04   -0.48929E-04   -0.50249E-04  5212   0.164E-02    0.204E-02
RMM:   3    -0.232042156863E+04    0.77688E-06   -0.49131E-05  2903   0.659E-03
 169 F= -.23412833E+04 E0= -.23412833E+04  d E =-.178704E-03  mag=     5.0000
       N       E                     dE             d eps       ncg     rms          rms(c)
DAV:   1    -0.232042105320E+04    0.51621E-03   -0.15049E-01  4488   0.344E-01    0.893E-02
RMM:   2    -0.232042179660E+04   -0.74341E-03   -0.79178E-03  5929   0.592E-02    0.516E-02
RMM:   3    -0.232042182718E+04   -0.30578E-04   -0.66761E-04  3722   0.209E-02    0.466E-02
RMM:   4    -0.232042181281E+04    0.14372E-04   -0.86529E-05  2972   0.628E-03    0.330E-02
RMM:   5    -0.232042180765E+04    0.51633E-05   -0.29289E-05  2935   0.443E-03
 170 F= -.23412835E+04 E0= -.23412835E+04  d E =-.191118E-03  mag=     5.0000
       N       E                     dE             d eps       ncg     rms          rms(c)
DAV:   1    -0.232042173800E+04    0.74815E-04   -0.13597E-02  4784   0.104E-01    0.286E-02
RMM:   2    -0.232042180867E+04   -0.70674E-04   -0.74022E-04  5639   0.194E-02    0.225E-02
RMM:   3    -0.232042180950E+04   -0.83070E-06   -0.75645E-05  2907   0.758E-03
 171 F= -.23412835E+04 E0= -.23412835E+04  d E =-.178348E-03  mag=     5.0000
       N       E                     dE             d eps       ncg     rms          rms(c)
DAV:   1    -0.232042142902E+04    0.37965E-03   -0.13320E-01  4520   0.322E-01    0.815E-02
RMM:   2    -0.232042207876E+04   -0.64974E-03   -0.68676E-03  5931   0.552E-02    0.540E-02
RMM:   3    -0.232042210722E+04   -0.28459E-04   -0.59079E-04  3544   0.188E-02    0.557E-02
RMM:   4    -0.232042208564E+04    0.21581E-04   -0.77537E-05  2953   0.591E-03    0.297E-02
RMM:   5    -0.232042208166E+04    0.39813E-05   -0.26283E-05  2943   0.412E-03
 172 F= -.23412837E+04 E0= -.23412837E+04  d E =-.199780E-03  mag=     5.0000
       N       E                     dE             d eps       ncg     rms          rms(c)
DAV:   1    -0.232042190085E+04    0.18479E-03   -0.44140E-02  4544   0.185E-01    0.472E-02
RMM:   2    -0.232042211388E+04   -0.21303E-03   -0.22695E-03  6070   0.324E-02    0.305E-02
RMM:   3    -0.232042212453E+04   -0.10655E-04   -0.22881E-04  3017   0.119E-02    0.277E-02
RMM:   4    -0.232042211569E+04    0.88410E-05   -0.24728E-05  2930   0.416E-03
 173 F= -.23412837E+04 E0= -.23412837E+04  d E =-.191831E-03  mag=     5.0000
       N       E                     dE             d eps       ncg     rms          rms(c)
DAV:   1    -0.232042183409E+04    0.29044E-03   -0.11784E-01  4472   0.302E-01    0.747E-02
RMM:   2    -0.232042236988E+04   -0.53579E-03   -0.56499E-03  5890   0.499E-02    0.530E-02
RMM:   3    -0.232042240303E+04   -0.33149E-04   -0.51186E-04  3575   0.192E-02    0.596E-02
RMM:   4    -0.232042237644E+04    0.26588E-04   -0.62092E-05  2957   0.543E-03    0.238E-02
RMM:   5    -0.232042237478E+04    0.16631E-05   -0.24759E-05  2954   0.408E-03
 174 F= -.23412839E+04 E0= -.23412839E+04  d E =-.180385E-03  mag=     5.0000
       N       E                     dE             d eps       ncg     rms          rms(c)
DAV:   1    -0.232042223030E+04    0.14614E-03   -0.42004E-02  4560   0.180E-01    0.454E-02
RMM:   2    -0.232042242342E+04   -0.19312E-03   -0.20559E-03  6032   0.316E-02    0.285E-02
RMM:   3    -0.232042243254E+04   -0.91119E-05   -0.20246E-04  3019   0.116E-02    0.262E-02
RMM:   4    -0.232042242511E+04    0.74300E-05   -0.22077E-05  2930   0.402E-03
 175 F= -.23412839E+04 E0= -.23412839E+04  d E =-.183618E-03  mag=     5.0000
       N       E                     dE             d eps       ncg     rms          rms(c)
DAV:   1    -0.232042230189E+04    0.13065E-03   -0.89948E-02  4472   0.268E-01    0.723E-02
RMM:   2    -0.232042268454E+04   -0.38265E-03   -0.39838E-03  5809   0.445E-02    0.605E-02
RMM:   3    -0.232042270363E+04   -0.19086E-04   -0.38998E-04  3565   0.181E-02    0.628E-02
RMM:   4    -0.232042267125E+04    0.32377E-04   -0.46922E-05  2942   0.535E-03    0.192E-02
RMM:   5    -0.232042266897E+04    0.22787E-05   -0.24017E-05  2973   0.431E-03
 176 F= -.23412841E+04 E0= -.23412841E+04  d E =-.203607E-03  mag=     5.0000
       N       E                     dE             d eps       ncg     rms          rms(c)
DAV:   1    -0.232042261889E+04    0.52364E-04   -0.17528E-02  4664   0.118E-01    0.327E-02
RMM:   2    -0.232042269532E+04   -0.76439E-04   -0.81276E-04  5623   0.220E-02    0.212E-02
RMM:   3    -0.232042269781E+04   -0.24867E-05   -0.84421E-05  2948   0.888E-03
 177 F= -.23412841E+04 E0= -.23412841E+04  d E =-.214585E-03  mag=     5.0000
       N       E                     dE             d eps       ncg     rms          rms(c)
DAV:   1    -0.232042264634E+04    0.48987E-04   -0.51823E-02  4476   0.206E-01    0.587E-02
RMM:   2    -0.232042283580E+04   -0.18947E-03   -0.21006E-03  5822   0.356E-02    0.296E-02
RMM:   3    -0.232042283490E+04    0.90647E-06   -0.16842E-04  3212   0.127E-02    0.241E-02
RMM:   4    -0.232042283123E+04    0.36716E-05   -0.26099E-05  2937   0.451E-03
 178 F= -.23412842E+04 E0= -.23412842E+04  d E =-.120543E-03  mag=     5.0000
       N       E                     dE             d eps       ncg     rms          rms(c)
DAV:   1    -0.232042282481E+04    0.10089E-04   -0.15400E-03  5288   0.357E-02    0.202E-02
RMM:   2    -0.232042284830E+04   -0.23490E-04   -0.97970E-05  3191   0.762E-03    0.513E-02
RMM:   3    -0.232042282789E+04    0.20405E-04   -0.21964E-05  2766   0.467E-03    0.682E-03
RMM:   4    -0.232042282756E+04    0.33334E-06   -0.39137E-06  2599   0.169E-03
 179 F= -.23412842E+04 E0= -.23412842E+04  d E =-.114593E-03  mag=     5.0000
       N       E                     dE             d eps       ncg     rms          rms(c)
DAV:   1    -0.232042279738E+04    0.30517E-04   -0.36246E-02  4480   0.176E-01    0.502E-02
RMM:   2    -0.232042292541E+04   -0.12804E-03   -0.13976E-03  5764   0.294E-02    0.293E-02
RMM:   3    -0.232042292897E+04   -0.35560E-05   -0.12390E-04  3138   0.121E-02    0.348E-02
RMM:   4    -0.232042291817E+04    0.10800E-04   -0.18598E-05  2901   0.398E-03    0.144E-02
RMM:   5    -0.232042291819E+04   -0.19005E-07   -0.10993E-05  2896   0.297E-03
 180 F= -.23412843E+04 E0= -.23412843E+04  d E =-.969975E-04  mag=     5.0000
       N       E                     dE             d eps       ncg     rms          rms(c)
DAV:   1    -0.232042290689E+04    0.11284E-04   -0.16832E-03  5080   0.382E-02    0.115E-02
RMM:   2    -0.232042291289E+04   -0.59998E-05   -0.67537E-05  3231   0.775E-03
 181 F= -.23412843E+04 E0= -.23412843E+04  d E =-.930976E-04  mag=     5.0000
       N       E                     dE             d eps       ncg     rms          rms(c)
DAV:   1    -0.232042291334E+04   -0.64588E-05   -0.54034E-04  4366   0.221E-02    0.803E-03
RMM:   2    -0.232042291656E+04   -0.32130E-05   -0.24804E-05  2656   0.471E-03
 182 F= -.23412843E+04 E0= -.23412843E+04  d E =-.959946E-04  mag=     5.0000
       N       E                     dE             d eps       ncg     rms          rms(c)
DAV:   1    -0.232042290965E+04    0.36963E-05   -0.22954E-02  4460   0.146E-01    0.435E-02
RMM:   2    -0.232042298729E+04   -0.77639E-04   -0.86813E-04  5845   0.256E-02    0.251E-02
RMM:   3    -0.232042299193E+04   -0.46462E-05   -0.86799E-05  3060   0.106E-02
 183 F= -.23412844E+04 E0= -.23412844E+04  d E =-.792780E-04  mag=     5.0000
       N       E                     dE             d eps       ncg     rms          rms(c)
DAV:   1    -0.232042297925E+04    0.80341E-05   -0.37054E-04  5272   0.192E-02    0.127E-02
RMM:   2    -0.232042298024E+04   -0.98451E-06   -0.19546E-05  2822   0.411E-03
 184 F= -.23412844E+04 E0= -.23412844E+04  d E =-.680492E-04  mag=     5.0000
       N       E                     dE             d eps       ncg     rms          rms(c)
DAV:   1    -0.232042299238E+04   -0.13122E-04   -0.18710E-02  4480   0.130E-01    0.374E-02
RMM:   2    -0.232042305216E+04   -0.59781E-04   -0.68649E-04  5751   0.226E-02    0.186E-02
RMM:   3    -0.232042305283E+04   -0.67294E-06   -0.60903E-05  2955   0.958E-03
 185 F= -.23412844E+04 E0= -.23412844E+04  d E =-.574410E-04  mag=     5.0000
       N       E                     dE             d eps       ncg     rms          rms(c)
DAV:   1    -0.232042304956E+04    0.25953E-05   -0.82196E-04  5288   0.278E-02    0.153E-02
RMM:   2    -0.232042305550E+04   -0.59357E-05   -0.41465E-05  3006   0.571E-03
 186 F= -.23412844E+04 E0= -.23412844E+04  d E =-.569380E-04  mag=     5.0000
       N       E                     dE             d eps       ncg     rms          rms(c)
DAV:   1    -0.232042306858E+04   -0.19014E-04   -0.16879E-02  4480   0.122E-01    0.344E-02
RMM:   2    -0.232042311956E+04   -0.50983E-04   -0.56668E-04  5680   0.217E-02    0.238E-02
RMM:   3    -0.232042312192E+04   -0.23657E-05   -0.53975E-05  2959   0.863E-03
 187 F= -.23412845E+04 E0= -.23412845E+04  d E =-.564643E-04  mag=     5.0000
       N       E                     dE             d eps       ncg     rms          rms(c)
DAV:   1    -0.232042311420E+04    0.53568E-05   -0.16336E-03  5032   0.384E-02    0.151E-02
RMM:   2    -0.232042311749E+04   -0.32901E-05   -0.53173E-05  3198   0.722E-03
 188 F= -.23412845E+04 E0= -.23412845E+04  d E =-.489165E-04  mag=     5.0000
       N       E                     dE             d eps       ncg     rms          rms(c)
DAV:   1    -0.232042314026E+04   -0.26053E-04   -0.15774E-02  4480   0.116E-01    0.326E-02
RMM:   2    -0.232042318974E+04   -0.49483E-04   -0.52055E-04  5472   0.213E-02    0.284E-02
RMM:   3    -0.232042318821E+04    0.15267E-05   -0.49079E-05  2963   0.805E-03
 189 F= -.23412845E+04 E0= -.23412845E+04  d E =-.614312E-04  mag=     5.0000
       N       E                     dE             d eps       ncg     rms          rms(c)
DAV:   1    -0.232042318476E+04    0.49771E-05   -0.31518E-03  4744   0.519E-02    0.188E-02
RMM:   2    -0.232042319446E+04   -0.96981E-05   -0.10430E-04  3565   0.994E-03    0.211E-02
RMM:   3    -0.232042319166E+04    0.27968E-05   -0.15821E-05  2882   0.513E-03
 190 F= -.23412845E+04 E0= -.23412845E+04  d E =-.607158E-04  mag=     5.0000
       N       E                     dE             d eps       ncg     rms          rms(c)
DAV:   1    -0.232042320024E+04   -0.57807E-05   -0.17514E-02  4476   0.121E-01    0.335E-02
RMM:   2    -0.232042325193E+04   -0.51694E-04   -0.55717E-04  5473   0.203E-02    0.218E-02
RMM:   3    -0.232042324980E+04    0.21310E-05   -0.48456E-05  2931   0.839E-03
 191 F= -.23412846E+04 E0= -.23412846E+04  d E =-.613057E-04  mag=     5.0000
       N       E                     dE             d eps       ncg     rms          rms(c)
DAV:   1    -0.232042324175E+04    0.10184E-04   -0.15994E-03  4936   0.371E-02    0.165E-02
RMM:   2    -0.232042325022E+04   -0.84669E-05   -0.61736E-05  3160   0.707E-03
 192 F= -.23412846E+04 E0= -.23412846E+04  d E =-.626918E-04  mag=     5.0000
       N       E                     dE             d eps       ncg     rms          rms(c)
DAV:   1    -0.232042324838E+04   -0.66323E-05   -0.19305E-02  4492   0.128E-01    0.362E-02
RMM:   2    -0.232042330190E+04   -0.53521E-04   -0.59756E-04  5506   0.226E-02    0.254E-02
RMM:   3    -0.232042330341E+04   -0.15128E-05   -0.59697E-05  2969   0.908E-03
 193 F= -.23412846E+04 E0= -.23412846E+04  d E =-.623143E-04  mag=     5.0000
       N       E                     dE             d eps       ncg     rms          rms(c)
DAV:   1    -0.232042327959E+04    0.22315E-04   -0.56770E-03  4640   0.697E-02    0.225E-02
RMM:   2    -0.232042329228E+04   -0.12691E-04   -0.16921E-04  4296   0.125E-02    0.150E-02
RMM:   3    -0.232042329260E+04   -0.31704E-06   -0.19337E-05  2901   0.576E-03
 194 F= -.23412846E+04 E0= -.23412846E+04  d E =-.564690E-04  mag=     5.0000
       N       E                     dE             d eps       ncg     rms          rms(c)
DAV:   1    -0.232042329501E+04   -0.27346E-05   -0.16020E-02  4496   0.114E-01    0.286E-02
RMM:   2    -0.232042334288E+04   -0.47870E-04   -0.49620E-04  5392   0.191E-02    0.265E-02
RMM:   3    -0.232042334018E+04    0.26988E-05   -0.42970E-05  2914   0.712E-03
 195 F= -.23412847E+04 E0= -.23412847E+04  d E =-.542774E-04  mag=     5.0000
       N       E                     dE             d eps       ncg     rms          rms(c)
DAV:   1    -0.232042332872E+04    0.14159E-04   -0.50088E-03  4608   0.639E-02    0.193E-02
RMM:   2    -0.232042334262E+04   -0.13900E-04   -0.15498E-04  4018   0.112E-02    0.188E-02
RMM:   3    -0.232042334034E+04    0.22870E-05   -0.17381E-05  2879   0.525E-03
 196 F= -.23412847E+04 E0= -.23412847E+04  d E =-.581939E-04  mag=     5.0000
       N       E                     dE             d eps       ncg     rms          rms(c)
DAV:   1    -0.232042337858E+04   -0.35954E-04   -0.16721E-02  4480   0.121E-01    0.355E-02
RMM:   2    -0.232042343126E+04   -0.52685E-04   -0.54886E-04  5455   0.204E-02    0.325E-02
RMM:   3    -0.232042342675E+04    0.45085E-05   -0.54926E-05  2935   0.863E-03
 197 F= -.23412848E+04 E0= -.23412848E+04  d E =-.765253E-04  mag=     5.0000
       N       E                     dE             d eps       ncg     rms          rms(c)
DAV:   1    -0.232042341845E+04    0.12816E-04   -0.69067E-03  4576   0.781E-02    0.261E-02
RMM:   2    -0.232042343854E+04   -0.20089E-04   -0.23257E-04  4857   0.137E-02    0.237E-02
RMM:   3    -0.232042343412E+04    0.44180E-05   -0.25173E-05  2913   0.586E-03
 198 F= -.23412848E+04 E0= -.23412848E+04  d E =-.775169E-04  mag=     5.0000
       N       E                     dE             d eps       ncg     rms          rms(c)
DAV:   1    -0.232042344746E+04   -0.89253E-05   -0.19564E-02  4480   0.128E-01    0.346E-02
RMM:   2    -0.232042351555E+04   -0.68092E-04   -0.66873E-04  5587   0.215E-02    0.397E-02
RMM:   3    -0.232042350599E+04    0.95661E-05   -0.60875E-05  2931   0.800E-03
 199 F= -.23412848E+04 E0= -.23412848E+04  d E =-.528189E-04  mag=     5.0000
       N       E                     dE             d eps       ncg     rms          rms(c)
DAV:   1    -0.232042350379E+04    0.11761E-04   -0.38461E-03  4792   0.571E-02    0.197E-02
RMM:   2    -0.232042351654E+04   -0.12750E-04   -0.13486E-04  3857   0.100E-02    0.219E-02
RMM:   3    -0.232042351200E+04    0.45463E-05   -0.16909E-05  2891   0.491E-03
 200 F= -.23412848E+04 E0= -.23412848E+04  d E =-.503436E-04  mag=     5.0000
       N       E                     dE             d eps       ncg     rms          rms(c)
DAV:   1    -0.232042353133E+04   -0.14786E-04   -0.19556E-02  4492   0.130E-01    0.361E-02
RMM:   2    -0.232042359792E+04   -0.66596E-04   -0.65182E-04  5587   0.213E-02    0.400E-02
RMM:   3    -0.232042358946E+04    0.84614E-05   -0.64265E-05  2933   0.880E-03
 201 F= -.23412849E+04 E0= -.23412849E+04  d E =-.663704E-04  mag=     5.0000
