       N       E                     dE             d eps       ncg     rms          rms(c)
DAV:   1     0.127630266457E+05    0.12763E+05   -0.83273E+05  4456   0.144E+03
DAV:   2    -0.107374243612E+04   -0.13837E+05   -0.13265E+05  5336   0.330E+02
DAV:   3    -0.247719495621E+04   -0.14035E+04   -0.13904E+04  5392   0.111E+02
DAV:   4    -0.252259068896E+04   -0.45396E+02   -0.45179E+02  6704   0.296E+01
DAV:   5    -0.252340431799E+04   -0.81363E+00   -0.81219E+00  5616   0.320E+00    0.171E+02
RMM:   6    -0.148308034798E+04    0.10403E+04   -0.19449E+03  4414   0.388E+01    0.738E+01
RMM:   7    -0.165152478091E+04   -0.16844E+03   -0.30259E+02  5028   0.144E+01    0.530E+01
RMM:   8    -0.169446336972E+04   -0.42939E+02   -0.62791E+01  5224   0.754E+00    0.403E+01
RMM:   9    -0.178681806780E+04   -0.92355E+02   -0.61942E+01  4992   0.666E+00    0.376E+01
RMM:  10    -0.190533636332E+04   -0.11852E+03   -0.58419E+01  5105   0.751E+00    0.228E+01
RMM:  11    -0.202439368272E+04   -0.11906E+03   -0.56145E+01  5085   0.632E+00    0.168E+01
RMM:  12    -0.209254872411E+04   -0.68155E+02   -0.29161E+01  4990   0.427E+00    0.132E+01
RMM:  13    -0.220792985240E+04   -0.11538E+03   -0.83905E+01  4515   0.665E+00    0.110E+01
RMM:  14    -0.225963500411E+04   -0.51705E+02   -0.37701E+01  4856   0.455E+00    0.765E+00
RMM:  15    -0.229973998158E+04   -0.40105E+02   -0.34346E+01  4438   0.406E+00    0.505E+00
RMM:  16    -0.231007880648E+04   -0.10339E+02   -0.10515E+01  4621   0.266E+00    0.258E+00
RMM:  17    -0.231335356603E+04   -0.32748E+01   -0.33788E+00  5118   0.113E+00    0.158E+00
RMM:  18    -0.231475058422E+04   -0.13970E+01   -0.10564E+00  4778   0.731E-01    0.128E+00
RMM:  19    -0.231497932771E+04   -0.22874E+00   -0.23320E-01  4974   0.364E-01    0.531E-01
RMM:  20    -0.231507273648E+04   -0.93409E-01   -0.79903E-02  4721   0.178E-01    0.372E-01
RMM:  21    -0.231511409408E+04   -0.41358E-01   -0.30102E-02  4602   0.124E-01    0.234E-01
RMM:  22    -0.231513295619E+04   -0.18862E-01   -0.93619E-03  4665   0.753E-02    0.139E-01
RMM:  23    -0.231514733471E+04   -0.14379E-01   -0.48892E-03  4565   0.530E-02    0.826E-02
RMM:  24    -0.231515849557E+04   -0.11161E-01   -0.31149E-03  4437   0.440E-02    0.536E-02
RMM:  25    -0.231516551941E+04   -0.70238E-02   -0.21545E-03  4511   0.361E-02    0.330E-02
RMM:  26    -0.231516857857E+04   -0.30592E-02   -0.98758E-04  4275   0.254E-02    0.193E-02
RMM:  27    -0.231516969166E+04   -0.11131E-02   -0.38734E-04  4119   0.150E-02    0.108E-02
RMM:  28    -0.231517002946E+04   -0.33780E-03   -0.10260E-04  3723   0.951E-03    0.622E-03
RMM:  29    -0.231517018018E+04   -0.15072E-03   -0.40455E-05  3364   0.549E-03    0.406E-03
RMM:  30    -0.231517023836E+04   -0.58190E-04   -0.12656E-05  2906   0.416E-03    0.240E-03
RMM:  31    -0.231517026766E+04   -0.29291E-04   -0.80393E-06  2832   0.287E-03    0.144E-03
RMM:  32    -0.231517027614E+04   -0.84837E-05   -0.41516E-06  2587   0.254E-03
   1 F= -.23356847E+04 E0= -.23356847E+04  d E =-.233568E+04  mag=     4.0000
       N       E                     dE             d eps       ncg     rms          rms(c)
DAV:   1    -0.231507987490E+04    0.90393E-01   -0.18734E+01  4928   0.392E+00    0.139E+00
RMM:   2    -0.231531118116E+04   -0.23131E+00   -0.25500E+00  5862   0.878E-01    0.687E-01
RMM:   3    -0.231533075973E+04   -0.19579E-01   -0.29499E-01  5188   0.392E-01    0.672E-01
RMM:   4    -0.231532942447E+04    0.13353E-02   -0.26468E-02  5928   0.731E-02    0.405E-01
RMM:   5    -0.231532734851E+04    0.20760E-02   -0.51134E-03  4890   0.447E-02    0.251E-01
RMM:   6    -0.231532647344E+04    0.87507E-03   -0.34776E-03  5489   0.367E-02    0.114E-01
RMM:   7    -0.231532631612E+04    0.15732E-03   -0.42886E-04  4936   0.193E-02    0.426E-02
RMM:   8    -0.231532626435E+04    0.51772E-04   -0.10799E-04  3670   0.825E-03    0.213E-02
RMM:   9    -0.231532624318E+04    0.21167E-04   -0.66225E-05  3506   0.667E-03    0.109E-02
RMM:  10    -0.231532623853E+04    0.46561E-05   -0.18471E-05  2904   0.501E-03
   2 F= -.23358394E+04 E0= -.23358394E+04  d E =-.154645E+00  mag=     4.0000
       N       E                     dE             d eps       ncg     rms          rms(c)
DAV:   1    -0.231528451468E+04    0.41729E-01   -0.47030E+00  4672   0.202E+00    0.692E-01
RMM:   2    -0.231534164557E+04   -0.57131E-01   -0.62887E-01  5910   0.446E-01    0.340E-01
RMM:   3    -0.231534604275E+04   -0.43972E-02   -0.68646E-02  5229   0.182E-01    0.280E-01
RMM:   4    -0.231534606809E+04   -0.25346E-04   -0.66407E-03  5619   0.366E-02    0.227E-01
RMM:   5    -0.231534542849E+04    0.63960E-03   -0.13400E-03  4795   0.235E-02    0.118E-01
RMM:   6    -0.231534522680E+04    0.20169E-03   -0.73822E-04  5140   0.185E-02    0.488E-02
RMM:   7    -0.231534519676E+04    0.30036E-04   -0.80111E-05  3913   0.989E-03    0.197E-02
RMM:   8    -0.231534518676E+04    0.10002E-04   -0.24419E-05  2959   0.447E-03    0.100E-02
RMM:   9    -0.231534518288E+04    0.38743E-05   -0.15672E-05  2906   0.392E-03
   3 F= -.23358577E+04 E0= -.23358577E+04  d E =-.172951E+00  mag=     4.0000
       N       E                     dE             d eps       ncg     rms          rms(c)
DAV:   1    -0.231528436113E+04    0.60826E-01   -0.20735E+01  4512   0.420E+00    0.132E+00
RMM:   2    -0.231544705473E+04   -0.16269E+00   -0.17729E+00  5956   0.830E-01    0.651E-01
RMM:   3    -0.231545717381E+04   -0.10119E-01   -0.17928E-01  5303   0.301E-01    0.611E-01
RMM:   4    -0.231545429597E+04    0.28778E-02   -0.17918E-02  5654   0.696E-02    0.375E-01
RMM:   5    -0.231545255681E+04    0.17392E-02   -0.51051E-03  5342   0.462E-02    0.211E-01
RMM:   6    -0.231545199344E+04    0.56337E-03   -0.25088E-03  5348   0.335E-02    0.682E-02
RMM:   7    -0.231545194033E+04    0.53108E-04   -0.25620E-04  4463   0.175E-02    0.316E-02
RMM:   8    -0.231545189592E+04    0.44415E-04   -0.98275E-05  3782   0.705E-03    0.150E-02
RMM:   9    -0.231545188140E+04    0.14515E-04   -0.26273E-05  3035   0.539E-03    0.696E-03
RMM:  10    -0.231545187611E+04    0.52958E-05   -0.13360E-05  2861   0.409E-03
   4 F= -.23359642E+04 E0= -.23359642E+04  d E =-.106517E+00  mag=     4.0000
       N       E                     dE             d eps       ncg     rms          rms(c)
DAV:   1    -0.231536664288E+04    0.85239E-01   -0.14017E+01  4560   0.344E+00    0.107E+00
RMM:   2    -0.231547612607E+04   -0.10948E+00   -0.11890E+00  5963   0.673E-01    0.565E-01
RMM:   3    -0.231548221587E+04   -0.60898E-02   -0.11088E-01  5372   0.231E-01    0.544E-01
RMM:   4    -0.231547975100E+04    0.24649E-02   -0.11839E-02  5580   0.569E-02    0.304E-01
RMM:   5    -0.231547862017E+04    0.11308E-02   -0.34928E-03  5319   0.383E-02    0.180E-01
RMM:   6    -0.231547817879E+04    0.44138E-03   -0.17980E-03  5246   0.280E-02    0.560E-02
RMM:   7    -0.231547814452E+04    0.34265E-04   -0.17896E-04  4210   0.152E-02    0.264E-02
RMM:   8    -0.231547811277E+04    0.31747E-04   -0.65330E-05  3424   0.601E-03    0.129E-02
RMM:   9    -0.231547810143E+04    0.11345E-04   -0.20931E-05  2978   0.496E-03    0.609E-03
RMM:  10    -0.231547809771E+04    0.37191E-05   -0.11329E-05  2850   0.387E-03
   5 F= -.23359903E+04 E0= -.23359903E+04  d E =-.132642E+00  mag=     4.0000
       N       E                     dE             d eps       ncg     rms          rms(c)
DAV:   1    -0.231541467426E+04    0.63427E-01   -0.15409E+01  4512   0.357E+00    0.111E+00
RMM:   2    -0.231554313431E+04   -0.12846E+00   -0.13156E+00  6093   0.748E-01    0.841E-01
RMM:   3    -0.231554593893E+04   -0.28046E-02   -0.97866E-02  5715   0.227E-01    0.695E-01
RMM:   4    -0.231554195160E+04    0.39873E-02   -0.11594E-02  5624   0.610E-02    0.269E-01
RMM:   5    -0.231554094569E+04    0.10059E-02   -0.34040E-03  5250   0.409E-02    0.158E-01
RMM:   6    -0.231554069572E+04    0.24997E-03   -0.15354E-03  5359   0.284E-02    0.636E-02
RMM:   7    -0.231554066287E+04    0.32846E-04   -0.17422E-04  4152   0.114E-02    0.339E-02
RMM:   8    -0.231554064372E+04    0.19153E-04   -0.48903E-05  3330   0.644E-03    0.211E-02
RMM:   9    -0.231554063430E+04    0.94202E-05   -0.31748E-05  3111   0.555E-03
   6 F= -.23360545E+04 E0= -.23360545E+04  d E =-.641753E-01  mag=     4.0000
       N       E                     dE             d eps       ncg     rms          rms(c)
DAV:   1    -0.231549675493E+04    0.43889E-01   -0.68736E+00  4560   0.239E+00    0.743E-01
RMM:   2    -0.231555414079E+04   -0.57386E-01   -0.58765E-01  6119   0.506E-01    0.565E-01
RMM:   3    -0.231555495012E+04   -0.80933E-03   -0.42610E-02  5751   0.146E-01    0.471E-01
RMM:   4    -0.231555307174E+04    0.18784E-02   -0.51512E-03  5491   0.412E-02    0.179E-01
RMM:   5    -0.231555263169E+04    0.44006E-03   -0.15531E-03  5189   0.279E-02    0.107E-01
RMM:   6    -0.231555251085E+04    0.12084E-03   -0.70427E-04  5244   0.195E-02    0.402E-02
RMM:   7    -0.231555249576E+04    0.15090E-04   -0.77048E-05  3551   0.793E-03    0.224E-02
RMM:   8    -0.231555248760E+04    0.81573E-05   -0.23657E-05  2987   0.502E-03
   7 F= -.23360675E+04 E0= -.23360675E+04  d E =-.771213E-01  mag=     4.0000
       N       E                     dE             d eps       ncg     rms          rms(c)
DAV:   1    -0.231532452167E+04    0.22797E+00   -0.18102E+01  4456   0.408E+00    0.137E+00
RMM:   2    -0.231560747844E+04   -0.28296E+00   -0.29285E+00  6183   0.987E-01    0.981E-01
RMM:   3    -0.231561348818E+04   -0.60097E-02   -0.19495E-01  5740   0.287E-01    0.741E-01
RMM:   4    -0.231560991009E+04    0.35781E-02   -0.21536E-02  5618   0.664E-02    0.311E-01
RMM:   5    -0.231560859890E+04    0.13112E-02   -0.32673E-03  4944   0.363E-02    0.170E-01
RMM:   6    -0.231560841398E+04    0.18492E-03   -0.18234E-03  5197   0.302E-02    0.111E-01
RMM:   7    -0.231560832016E+04    0.93819E-04   -0.29134E-04  4553   0.167E-02    0.314E-02
RMM:   8    -0.231560830398E+04    0.16182E-04   -0.53893E-05  3119   0.526E-03    0.231E-02
RMM:   9    -0.231560829624E+04    0.77314E-05   -0.40188E-05  3030   0.536E-03
   8 F= -.23361248E+04 E0= -.23361248E+04  d E =-.573275E-01  mag=     4.0000
       N       E                     dE             d eps       ncg     rms          rms(c)
DAV:   1    -0.231546000743E+04    0.14830E+00   -0.10280E+01  4472   0.307E+00    0.103E+00
RMM:   2    -0.231561908333E+04   -0.15908E+00   -0.16502E+00  6160   0.738E-01    0.690E-01
RMM:   3    -0.231562308422E+04   -0.40009E-02   -0.10865E-01  5687   0.216E-01    0.537E-01
RMM:   4    -0.231562116465E+04    0.19196E-02   -0.12214E-02  5568   0.498E-02    0.237E-01
RMM:   5    -0.231562039673E+04    0.76792E-03   -0.18270E-03  4926   0.276E-02    0.130E-01
RMM:   6    -0.231562026850E+04    0.12823E-03   -0.10850E-03  5221   0.232E-02    0.803E-02
RMM:   7    -0.231562022077E+04    0.47732E-04   -0.16085E-04  4020   0.125E-02    0.265E-02
RMM:   8    -0.231562020958E+04    0.11187E-04   -0.33997E-05  2963   0.461E-03    0.186E-02
RMM:   9    -0.231562020515E+04    0.44306E-05   -0.25539E-05  2939   0.450E-03
   9 F= -.23361378E+04 E0= -.23361378E+04  d E =-.703612E-01  mag=     4.0000
       N       E                     dE             d eps       ncg     rms          rms(c)
DAV:   1    -0.231542893659E+04    0.19127E+00   -0.22777E+01  4456   0.456E+00    0.136E+00
RMM:   2    -0.231567206527E+04   -0.24313E+00   -0.24588E+00  6027   0.968E-01    0.114E+00
RMM:   3    -0.231567411152E+04   -0.20462E-02   -0.17950E-01  5653   0.278E-01    0.796E-01
RMM:   4    -0.231566877378E+04    0.53377E-02   -0.19961E-02  5525   0.714E-02    0.307E-01
RMM:   5    -0.231566735257E+04    0.14212E-02   -0.37051E-03  5124   0.425E-02    0.191E-01
RMM:   6    -0.231566697041E+04    0.38216E-03   -0.26031E-03  5358   0.364E-02    0.781E-02
RMM:   7    -0.231566693890E+04    0.31515E-04   -0.27463E-04  4543   0.171E-02    0.333E-02
RMM:   8    -0.231566692809E+04    0.10807E-04   -0.49958E-05  3229   0.590E-03    0.222E-02
RMM:   9    -0.231566692444E+04    0.36530E-05   -0.30163E-05  2954   0.555E-03
  10 F= -.23361860E+04 E0= -.23361860E+04  d E =-.481290E-01  mag=     4.0000
       N       E                     dE             d eps       ncg     rms          rms(c)
DAV:   1    -0.231557090651E+04    0.96022E-01   -0.10149E+01  4520   0.304E+00    0.910E-01
RMM:   2    -0.231567877119E+04   -0.10786E+00   -0.10904E+00  6074   0.648E-01    0.753E-01
RMM:   3    -0.231567960669E+04   -0.83551E-03   -0.76971E-02  5712   0.171E-01    0.526E-01
RMM:   4    -0.231567725088E+04    0.23558E-02   -0.88761E-03  5478   0.471E-02    0.206E-01
RMM:   5    -0.231567661842E+04    0.63247E-03   -0.15936E-03  5049   0.277E-02    0.131E-01
RMM:   6    -0.231567642287E+04    0.19554E-03   -0.12167E-03  5250   0.249E-02    0.505E-02
RMM:   7    -0.231567641402E+04    0.88519E-05   -0.11675E-04  3875   0.118E-02    0.235E-02
RMM:   8    -0.231567640827E+04    0.57533E-05   -0.23624E-05  2962   0.446E-03
  11 F= -.23361963E+04 E0= -.23361963E+04  d E =-.584629E-01  mag=     4.0000
       N       E                     dE             d eps       ncg     rms          rms(c)
DAV:   1    -0.231546590093E+04    0.21051E+00   -0.24267E+01  4424   0.468E+00    0.131E+00
RMM:   2    -0.231572468144E+04   -0.25878E+00   -0.26358E+00  6002   0.950E-01    0.113E+00
RMM:   3    -0.231573359030E+04   -0.89089E-02   -0.23159E-01  5651   0.285E-01    0.806E-01
RMM:   4    -0.231572732437E+04    0.62659E-02   -0.22715E-02  5486   0.723E-02    0.345E-01
RMM:   5    -0.231572576587E+04    0.15585E-02   -0.44643E-03  5500   0.445E-02    0.231E-01
RMM:   6    -0.231572507853E+04    0.68735E-03   -0.35258E-03  5091   0.387E-02    0.651E-02
RMM:   7    -0.231572505517E+04    0.23354E-04   -0.26434E-04  4348   0.201E-02    0.334E-02
RMM:   8    -0.231572503877E+04    0.16406E-04   -0.87026E-05  3582   0.697E-03    0.188E-02
RMM:   9    -0.231572503596E+04    0.28100E-05   -0.22638E-05  2914   0.525E-03
  12 F= -.23362455E+04 E0= -.23362455E+04  d E =-.492239E-01  mag=     4.0000
       N       E                     dE             d eps       ncg     rms          rms(c)
DAV:   1    -0.231558768330E+04    0.13736E+00   -0.14103E+01  4456   0.357E+00    0.101E+00
RMM:   2    -0.231573864317E+04   -0.15096E+00   -0.15294E+00  5970   0.722E-01    0.926E-01
RMM:   3    -0.231574154731E+04   -0.29041E-02   -0.13204E-01  5661   0.212E-01    0.609E-01
RMM:   4    -0.231573814340E+04    0.34039E-02   -0.13341E-02  5420   0.548E-02    0.262E-01
RMM:   5    -0.231573723773E+04    0.90567E-03   -0.24340E-03  5404   0.331E-02    0.177E-01
RMM:   6    -0.231573681528E+04    0.42245E-03   -0.21189E-03  4982   0.305E-02    0.478E-02
RMM:   7    -0.231573680440E+04    0.10883E-04   -0.16500E-04  4039   0.163E-02    0.252E-02
RMM:   8    -0.231573679297E+04    0.11429E-04   -0.45002E-05  3207   0.527E-03    0.147E-02
RMM:   9    -0.231573679063E+04    0.23349E-05   -0.14761E-05  2877   0.422E-03
  13 F= -.23362576E+04 E0= -.23362576E+04  d E =-.612714E-01  mag=     4.0000
       N       E                     dE             d eps       ncg     rms          rms(c)
DAV:   1    -0.231544365483E+04    0.29314E+00   -0.24846E+01  4424   0.490E+00    0.145E+00
RMM:   2    -0.231576484528E+04   -0.32119E+00   -0.33364E+00  5945   0.106E+00    0.102E+00
RMM:   3    -0.231578233579E+04   -0.17491E-01   -0.27728E-01  5523   0.335E-01    0.916E-01
RMM:   4    -0.231577506908E+04    0.72667E-02   -0.29518E-02  5548   0.795E-02    0.382E-01
RMM:   5    -0.231577334088E+04    0.17282E-02   -0.48673E-03  5408   0.466E-02    0.229E-01
RMM:   6    -0.231577263138E+04    0.70950E-03   -0.33010E-03  5242   0.374E-02    0.902E-02
RMM:   7    -0.231577257646E+04    0.54926E-04   -0.36519E-04  4608   0.206E-02    0.362E-02
RMM:   8    -0.231577254835E+04    0.28108E-04   -0.88977E-05  3542   0.754E-03    0.216E-02
RMM:   9    -0.231577254293E+04    0.54166E-05   -0.36358E-05  3041   0.592E-03
  14 F= -.23362932E+04 E0= -.23362932E+04  d E =-.356858E-01  mag=     4.0000
       N       E                     dE             d eps       ncg     rms          rms(c)
DAV:   1    -0.231576287992E+04    0.96684E-02   -0.80373E-01  4736   0.889E-01    0.263E-01
RMM:   2    -0.231577332013E+04   -0.10440E-01   -0.10765E-01  6051   0.195E-01    0.207E-01
RMM:   3    -0.231577375126E+04   -0.43113E-03   -0.90631E-03  5435   0.569E-02    0.159E-01
RMM:   4    -0.231577354187E+04    0.20939E-03   -0.98975E-04  4131   0.144E-02    0.690E-02
RMM:   5    -0.231577348198E+04    0.59883E-04   -0.14863E-04  3827   0.870E-03    0.421E-02
RMM:   6    -0.231577345477E+04    0.27214E-04   -0.12555E-04  4133   0.894E-03    0.142E-02
RMM:   7    -0.231577345410E+04    0.67035E-06   -0.13381E-05  2878   0.515E-03
  15 F= -.23362941E+04 E0= -.23362941E+04  d E =-.365492E-01  mag=     4.0000
       N       E                     dE             d eps       ncg     rms          rms(c)
DAV:   1    -0.231573961074E+04    0.33844E-01   -0.62058E+00  4492   0.252E+00    0.664E-01
RMM:   2    -0.231579267862E+04   -0.53068E-01   -0.54186E-01  5899   0.502E-01    0.506E-01
RMM:   3    -0.231579427246E+04   -0.15938E-02   -0.43074E-02  5491   0.146E-01    0.421E-01
RMM:   4    -0.231579280484E+04    0.14676E-02   -0.49995E-03  5393   0.382E-02    0.170E-01
RMM:   5    -0.231579242899E+04    0.37584E-03   -0.10441E-03  5017   0.231E-02    0.106E-01
RMM:   6    -0.231579227288E+04    0.15611E-03   -0.72180E-04  5168   0.206E-02    0.331E-02
RMM:   7    -0.231579226971E+04    0.31677E-05   -0.61296E-05  3425   0.998E-03
  16 F= -.23363128E+04 E0= -.23363128E+04  d E =-.186677E-01  mag=     4.0000
       N       E                     dE             d eps       ncg     rms          rms(c)
DAV:   1    -0.231572178444E+04    0.70488E-01   -0.92512E+00  4488   0.307E+00    0.813E-01
RMM:   2    -0.231580077756E+04   -0.78993E-01   -0.80618E-01  5849   0.609E-01    0.624E-01
RMM:   3    -0.231580315128E+04   -0.23737E-02   -0.65651E-02  5431   0.185E-01    0.517E-01
RMM:   4    -0.231580092668E+04    0.22246E-02   -0.74656E-03  5442   0.468E-02    0.207E-01
RMM:   5    -0.231580036155E+04    0.56513E-03   -0.15645E-03  5118   0.283E-02    0.130E-01
RMM:   6    -0.231580011752E+04    0.24402E-03   -0.10787E-03  5225   0.247E-02    0.410E-02
RMM:   7    -0.231580011029E+04    0.72308E-05   -0.95930E-05  3813   0.121E-02
  17 F= -.23363203E+04 E0= -.23363203E+04  d E =-.262397E-01  mag=     4.0000
       N       E                     dE             d eps       ncg     rms          rms(c)
DAV:   1    -0.231578830813E+04    0.11809E-01   -0.43318E+00  4528   0.204E+00    0.513E-01
RMM:   2    -0.231581672156E+04   -0.28413E-01   -0.28615E-01  5878   0.385E-01    0.443E-01
RMM:   3    -0.231581575166E+04    0.96989E-03   -0.17752E-02  5521   0.969E-02    0.331E-01
RMM:   4    -0.231581477361E+04    0.97805E-03   -0.23050E-03  5181   0.287E-02    0.129E-01
RMM:   5    -0.231581457879E+04    0.19483E-03   -0.63200E-04  4920   0.182E-02    0.869E-02
RMM:   6    -0.231581449957E+04    0.79219E-04   -0.46783E-04  4995   0.163E-02    0.239E-02
RMM:   7    -0.231581450272E+04   -0.31485E-05   -0.36537E-05  3049   0.811E-03
  18 F= -.23363346E+04 E0= -.23363346E+04  d E =-.142158E-01  mag=     4.0000
       N       E                     dE             d eps       ncg     rms          rms(c)
DAV:   1    -0.231573196322E+04    0.82536E-01   -0.15514E+01  4488   0.387E+00    0.963E-01
RMM:   2    -0.231583177424E+04   -0.99811E-01   -0.10072E+00  5877   0.728E-01    0.809E-01
RMM:   3    -0.231582954732E+04    0.22269E-02   -0.65077E-02  5502   0.187E-01    0.602E-01
RMM:   4    -0.231582633397E+04    0.32134E-02   -0.80486E-03  5395   0.540E-02    0.245E-01
RMM:   5    -0.231582555530E+04    0.77867E-03   -0.22555E-03  5198   0.344E-02    0.162E-01
RMM:   6    -0.231582525669E+04    0.29861E-03   -0.16754E-03  5286   0.303E-02    0.458E-02
RMM:   7    -0.231582525612E+04    0.56747E-06   -0.12911E-04  3944   0.139E-02    0.264E-02
RMM:   8    -0.231582524768E+04    0.84399E-05   -0.25046E-05  2970   0.447E-03
  19 F= -.23363449E+04 E0= -.23363449E+04  d E =-.245104E-01  mag=     4.0000
       N       E                     dE             d eps       ncg     rms          rms(c)
DAV:   1    -0.231580238382E+04    0.22872E-01   -0.53984E+00  4424   0.232E+00    0.582E-01
RMM:   2    -0.231584106660E+04   -0.38683E-01   -0.39801E-01  5885   0.455E-01    0.396E-01
RMM:   3    -0.231584161953E+04   -0.55294E-03   -0.26795E-02  5513   0.121E-01    0.355E-01
RMM:   4    -0.231584061296E+04    0.10066E-02   -0.32864E-03  5393   0.330E-02    0.156E-01
RMM:   5    -0.231584031594E+04    0.29702E-03   -0.86369E-04  4951   0.218E-02    0.918E-02
RMM:   6    -0.231584022398E+04    0.91960E-04   -0.52969E-04  5104   0.183E-02    0.284E-02
RMM:   7    -0.231584022421E+04   -0.22454E-06   -0.42440E-05  3124   0.823E-03
  20 F= -.23363597E+04 E0= -.23363597E+04  d E =-.148548E-01  mag=     4.0000
       N       E                     dE             d eps       ncg     rms          rms(c)
DAV:   1    -0.231571971855E+04    0.12051E+00   -0.17982E+01  4424   0.422E+00    0.106E+00
RMM:   2    -0.231584585200E+04   -0.12613E+00   -0.12973E+00  5858   0.818E-01    0.726E-01
RMM:   3    -0.231584993746E+04   -0.40855E-02   -0.10267E-01  5471   0.239E-01    0.638E-01
RMM:   4    -0.231584666111E+04    0.32764E-02   -0.11339E-02  5533   0.600E-02    0.282E-01
RMM:   5    -0.231584566491E+04    0.99620E-03   -0.29383E-03  5038   0.395E-02    0.168E-01
RMM:   6    -0.231584535285E+04    0.31206E-03   -0.17389E-03  5345   0.323E-02    0.530E-02
RMM:   7    -0.231584534919E+04    0.36559E-05   -0.14263E-04  4114   0.135E-02    0.318E-02
RMM:   8    -0.231584534178E+04    0.74076E-05   -0.30986E-05  3060   0.507E-03
  21 F= -.23363645E+04 E0= -.23363645E+04  d E =-.196214E-01  mag=     4.0000
       N       E                     dE             d eps       ncg     rms          rms(c)
DAV:   1    -0.231583314369E+04    0.12205E-01   -0.19345E+00  4480   0.138E+00    0.347E-01
RMM:   2    -0.231584735980E+04   -0.14216E-01   -0.14653E-01  5952   0.274E-01    0.225E-01
RMM:   3    -0.231584729889E+04    0.60904E-04   -0.81015E-03  5504   0.641E-02    0.198E-01
RMM:   4    -0.231584696364E+04    0.33525E-03   -0.11025E-03  4824   0.190E-02    0.965E-02
RMM:   5    -0.231584686120E+04    0.10244E-03   -0.32717E-04  4433   0.133E-02    0.563E-02
RMM:   6    -0.231584682923E+04    0.31975E-04   -0.18957E-04  4567   0.115E-02    0.168E-02
RMM:   7    -0.231584683027E+04   -0.10411E-05   -0.17510E-05  2898   0.583E-03
  22 F= -.23363661E+04 E0= -.23363661E+04  d E =-.212434E-01  mag=     4.0000
       N       E                     dE             d eps       ncg     rms          rms(c)
DAV:   1    -0.231582010800E+04    0.26721E-01   -0.53592E+00  4424   0.229E+00    0.587E-01
RMM:   2    -0.231586086034E+04   -0.40752E-01   -0.42170E-01  5854   0.448E-01    0.419E-01
RMM:   3    -0.231586144143E+04   -0.58108E-03   -0.33796E-02  5449   0.131E-01    0.364E-01
RMM:   4    -0.231586033556E+04    0.11059E-02   -0.39579E-03  5358   0.333E-02    0.163E-01
RMM:   5    -0.231586000541E+04    0.33015E-03   -0.85083E-04  4900   0.201E-02    0.998E-02
RMM:   6    -0.231585986034E+04    0.14507E-03   -0.68034E-04  5083   0.195E-02    0.271E-02
RMM:   7    -0.231585986116E+04   -0.82704E-06   -0.48551E-05  3225   0.996E-03
  23 F= -.23363788E+04 E0= -.23363788E+04  d E =-.126516E-01  mag=     4.0000
       N       E                     dE             d eps       ncg     rms          rms(c)
DAV:   1    -0.231583297479E+04    0.26886E-01   -0.40996E+00  4428   0.200E+00    0.517E-01
RMM:   2    -0.231586427232E+04   -0.31298E-01   -0.32327E-01  5848   0.392E-01    0.379E-01
RMM:   3    -0.231586468495E+04   -0.41263E-03   -0.26014E-02  5436   0.114E-01    0.329E-01
RMM:   4    -0.231586378465E+04    0.90030E-03   -0.30728E-03  5243   0.293E-02    0.142E-01
RMM:   5    -0.231586353874E+04    0.24591E-03   -0.65540E-04  4808   0.177E-02    0.885E-02
RMM:   6    -0.231586342730E+04    0.11144E-03   -0.53072E-04  5004   0.173E-02    0.243E-02
RMM:   7    -0.231586342793E+04   -0.63033E-06   -0.40521E-05  3140   0.902E-03
  24 F= -.23363820E+04 E0= -.23363820E+04  d E =-.158571E-01  mag=     4.0000
       N       E                     dE             d eps       ncg     rms          rms(c)
DAV:   1    -0.231584163091E+04    0.21796E-01   -0.55774E+00  4488   0.231E+00    0.561E-01
RMM:   2    -0.231587715382E+04   -0.35523E-01   -0.36325E-01  5823   0.429E-01    0.474E-01
RMM:   3    -0.231587657300E+04    0.58082E-03   -0.25492E-02  5515   0.112E-01    0.363E-01
RMM:   4    -0.231587538148E+04    0.11915E-02   -0.32323E-03  5207   0.327E-02    0.158E-01
RMM:   5    -0.231587506996E+04    0.31151E-03   -0.89044E-04  4975   0.209E-02    0.104E-01
RMM:   6    -0.231587492079E+04    0.14917E-03   -0.70449E-04  5070   0.198E-02    0.261E-02
RMM:   7    -0.231587491980E+04    0.99331E-06   -0.50398E-05  3335   0.103E-02
  25 F= -.23363931E+04 E0= -.23363931E+04  d E =-.111828E-01  mag=     4.0000
       N       E                     dE             d eps       ncg     rms          rms(c)
DAV:   1    -0.231579977509E+04    0.75146E-01   -0.12913E+01  4456   0.352E+00    0.848E-01
RMM:   2    -0.231588124859E+04   -0.81474E-01   -0.83458E-01  5811   0.649E-01    0.708E-01
RMM:   3    -0.231588060841E+04    0.64017E-03   -0.62754E-02  5522   0.174E-01    0.562E-01
RMM:   4    -0.231587779114E+04    0.28173E-02   -0.76582E-03  5387   0.498E-02    0.242E-01
RMM:   5    -0.231587703055E+04    0.76059E-03   -0.19901E-03  5118   0.314E-02    0.158E-01
RMM:   6    -0.231587666885E+04    0.36170E-03   -0.16761E-03  5105   0.302E-02    0.392E-02
RMM:   7    -0.231587666267E+04    0.61773E-05   -0.12245E-04  4109   0.157E-02    0.227E-02
RMM:   8    -0.231587665157E+04    0.11101E-04   -0.27910E-05  3030   0.446E-03    0.132E-02
RMM:   9    -0.231587664727E+04    0.43020E-05   -0.17989E-05  2898   0.403E-03
  26 F= -.23363943E+04 E0= -.23363943E+04  d E =-.123706E-01  mag=     4.0000
       N       E                     dE             d eps       ncg     rms          rms(c)
DAV:   1    -0.231586416647E+04    0.12485E-01   -0.23333E+00  4528   0.150E+00    0.363E-01
RMM:   2    -0.231587922615E+04   -0.15060E-01   -0.15359E-01  5847   0.281E-01    0.325E-01
RMM:   3    -0.231587888323E+04    0.34293E-03   -0.10378E-02  5516   0.695E-02    0.236E-01
RMM:   4    -0.231587838596E+04    0.49727E-03   -0.13616E-03  4965   0.213E-02    0.102E-01
RMM:   5    -0.231587825528E+04    0.13068E-03   -0.37515E-04  4542   0.136E-02    0.655E-02
RMM:   6    -0.231587819958E+04    0.55697E-04   -0.29253E-04  4763   0.134E-02    0.167E-02
RMM:   7    -0.231587819952E+04    0.61875E-07   -0.23619E-05  2958   0.691E-03
  27 F= -.23363961E+04 E0= -.23363961E+04  d E =-.141625E-01  mag=     4.0000
       N       E                     dE             d eps       ncg     rms          rms(c)
DAV:   1    -0.231586976381E+04    0.84358E-02   -0.27816E+00  4492   0.165E+00    0.427E-01
RMM:   2    -0.231588658201E+04   -0.16818E-01   -0.17157E-01  5795   0.313E-01    0.352E-01
RMM:   3    -0.231588619501E+04    0.38701E-03   -0.11229E-02  5477   0.810E-02    0.289E-01
RMM:   4    -0.231588546329E+04    0.73172E-03   -0.15971E-03  5160   0.255E-02    0.114E-01
RMM:   5    -0.231588531306E+04    0.15023E-03   -0.56640E-04  4999   0.183E-02    0.725E-02
RMM:   6    -0.231588525294E+04    0.60116E-04   -0.30469E-04  4806   0.139E-02    0.200E-02
RMM:   7    -0.231588525069E+04    0.22502E-05   -0.23681E-05  2976   0.658E-03
  28 F= -.23364033E+04 E0= -.23364033E+04  d E =-.721824E-02  mag=     4.0000
       N       E                     dE             d eps       ncg     rms          rms(c)
DAV:   1    -0.231588116641E+04    0.40865E-02   -0.88936E-01  4576   0.933E-01    0.244E-01
RMM:   2    -0.231588661340E+04   -0.54470E-02   -0.55352E-02  5797   0.178E-01    0.207E-01
RMM:   3    -0.231588646509E+04    0.14831E-03   -0.36320E-03  5370   0.450E-02    0.165E-01
RMM:   4    -0.231588622538E+04    0.23971E-03   -0.51553E-04  4606   0.147E-02    0.646E-02
RMM:   5    -0.231588617986E+04    0.45514E-04   -0.18518E-04  4236   0.108E-02    0.413E-02
RMM:   6    -0.231588616045E+04    0.19412E-04   -0.99428E-05  3973   0.883E-03    0.116E-02
RMM:   7    -0.231588615983E+04    0.62128E-06   -0.10308E-05  2861   0.500E-03
  29 F= -.23364043E+04 E0= -.23364043E+04  d E =-.821462E-02  mag=     4.0000
       N       E                     dE             d eps       ncg     rms          rms(c)
DAV:   1    -0.231586975467E+04    0.16406E-01   -0.33265E+00  4492   0.186E+00    0.467E-01
RMM:   2    -0.231589453625E+04   -0.24782E-01   -0.25382E-01  5782   0.359E-01    0.376E-01
RMM:   3    -0.231589436311E+04    0.17315E-03   -0.17268E-02  5444   0.997E-02    0.317E-01
RMM:   4    -0.231589355613E+04    0.80698E-03   -0.21649E-03  5247   0.271E-02    0.126E-01
RMM:   5    -0.231589337334E+04    0.18278E-03   -0.60100E-04  4829   0.179E-02    0.792E-02
RMM:   6    -0.231589330511E+04    0.68236E-04   -0.39821E-04  4959   0.156E-02    0.251E-02
RMM:   7    -0.231589330405E+04    0.10611E-05   -0.30589E-05  3007   0.727E-03
  30 F= -.23364118E+04 E0= -.23364118E+04  d E =-.745829E-02  mag=     4.0000
       N       E                     dE             d eps       ncg     rms          rms(c)
DAV:   1    -0.231586506359E+04    0.28242E-01   -0.41594E+00  4488   0.208E+00    0.524E-01
RMM:   2    -0.231589609463E+04   -0.31031E-01   -0.31782E-01  5780   0.401E-01    0.422E-01
RMM:   3    -0.231589582156E+04    0.27307E-03   -0.21527E-02  5448   0.108E-01    0.354E-01
RMM:   4    -0.231589480787E+04    0.10137E-02   -0.27095E-03  5362   0.303E-02    0.141E-01
RMM:   5    -0.231589457839E+04    0.22947E-03   -0.75069E-04  4942   0.199E-02    0.890E-02
RMM:   6    -0.231589448830E+04    0.90087E-04   -0.49779E-04  5069   0.172E-02    0.284E-02
RMM:   7    -0.231589448587E+04    0.24399E-05   -0.37666E-05  3092   0.772E-03
  31 F= -.23364133E+04 E0= -.23364133E+04  d E =-.897926E-02  mag=     4.0000
       N       E                     dE             d eps       ncg     rms          rms(c)
DAV:   1    -0.231588928910E+04    0.51992E-02   -0.14408E+00  4512   0.122E+00    0.285E-01
RMM:   2    -0.231589912058E+04   -0.98315E-02   -0.99679E-02  5774   0.227E-01    0.251E-01
RMM:   3    -0.231589889198E+04    0.22859E-03   -0.62534E-03  5432   0.569E-02    0.189E-01
RMM:   4    -0.231589860122E+04    0.29076E-03   -0.80296E-04  4686   0.167E-02    0.791E-02
RMM:   5    -0.231589853216E+04    0.69059E-04   -0.23366E-04  4288   0.114E-02    0.512E-02
RMM:   6    -0.231589850641E+04    0.25752E-04   -0.16729E-04  4438   0.107E-02    0.158E-02
RMM:   7    -0.231589850721E+04   -0.79285E-06   -0.14342E-05  2890   0.562E-03
  32 F= -.23364175E+04 E0= -.23364175E+04  d E =-.420211E-02  mag=     4.0000
       N       E                     dE             d eps       ncg     rms          rms(c)
DAV:   1    -0.231584763336E+04    0.50873E-01   -0.86019E+00  4488   0.298E+00    0.692E-01
RMM:   2    -0.231590590313E+04   -0.58270E-01   -0.59229E-01  5760   0.548E-01    0.594E-01
RMM:   3    -0.231590468165E+04    0.12215E-02   -0.37353E-02  5494   0.145E-01    0.454E-01
RMM:   4    -0.231590296715E+04    0.17145E-02   -0.46973E-03  5396   0.405E-02    0.193E-01
RMM:   5    -0.231590253875E+04    0.42840E-03   -0.13757E-03  4983   0.269E-02    0.125E-01
RMM:   6    -0.231590237859E+04    0.16016E-03   -0.99261E-04  5247   0.238E-02    0.386E-02
RMM:   7    -0.231590237848E+04    0.11368E-06   -0.68972E-05  3493   0.102E-02
  33 F= -.23364218E+04 E0= -.23364218E+04  d E =-.849736E-02  mag=     4.0000
       N       E                     dE             d eps       ncg     rms          rms(c)
DAV:   1    -0.231590449492E+04   -0.21163E-02   -0.20233E-01  4768   0.472E-01    0.171E-01
RMM:   2    -0.231590577297E+04   -0.12780E-02   -0.13982E-02  5592   0.877E-02    0.114E-01
RMM:   3    -0.231590581298E+04   -0.40012E-04   -0.14537E-03  4744   0.341E-02    0.121E-01
RMM:   4    -0.231590567093E+04    0.14205E-03   -0.20336E-04  4137   0.104E-02    0.381E-02
RMM:   5    -0.231590565038E+04    0.20554E-04   -0.97246E-05  3959   0.863E-03    0.164E-02
RMM:   6    -0.231590564826E+04    0.21122E-05   -0.21077E-05  2907   0.568E-03
  34 F= -.23364251E+04 E0= -.23364251E+04  d E =-.324948E-02  mag=     4.0000
       N       E                     dE             d eps       ncg     rms          rms(c)
DAV:   1    -0.231590555978E+04    0.90596E-04   -0.17149E-01  4496   0.435E-01    0.157E-01
RMM:   2    -0.231590664065E+04   -0.10809E-02   -0.11988E-02  5696   0.825E-02    0.949E-02
RMM:   3    -0.231590667743E+04   -0.36779E-04   -0.11668E-03  4759   0.320E-02    0.104E-01
RMM:   4    -0.231590657223E+04    0.10520E-03   -0.16321E-04  3779   0.942E-03    0.378E-02
RMM:   5    -0.231590654958E+04    0.22650E-04   -0.83542E-05  3849   0.817E-03    0.164E-02
RMM:   6    -0.231590654631E+04    0.32691E-05   -0.19902E-05  2913   0.560E-03
  35 F= -.23364259E+04 E0= -.23364259E+04  d E =-.412729E-02  mag=     4.0000
       N       E                     dE             d eps       ncg     rms          rms(c)
DAV:   1    -0.231590731998E+04   -0.77040E-03   -0.18125E-01  4480   0.461E-01    0.132E-01
RMM:   2    -0.231590847540E+04   -0.11554E-02   -0.12788E-02  5520   0.787E-02    0.675E-02
RMM:   3    -0.231590851913E+04   -0.43735E-04   -0.12621E-03  4675   0.351E-02    0.593E-02
RMM:   4    -0.231590849265E+04    0.26485E-04   -0.12451E-04  3241   0.774E-03    0.371E-02
RMM:   5    -0.231590847498E+04    0.17669E-04   -0.57341E-05  3157   0.708E-03    0.188E-02
RMM:   6    -0.231590847191E+04    0.30706E-05   -0.19158E-05  2925   0.519E-03
  36 F= -.23364278E+04 E0= -.23364278E+04  d E =-.184120E-02  mag=     4.0000
       N       E                     dE             d eps       ncg     rms          rms(c)
DAV:   1    -0.231590592304E+04    0.25519E-02   -0.59765E-01  4432   0.837E-01    0.239E-01
RMM:   2    -0.231590973331E+04   -0.38103E-02   -0.42060E-02  5321   0.141E-01    0.124E-01
RMM:   3    -0.231590987668E+04   -0.14337E-03   -0.40970E-03  4834   0.629E-02    0.116E-01
RMM:   4    -0.231590976807E+04    0.10861E-03   -0.42986E-04  4506   0.136E-02    0.665E-02
RMM:   5    -0.231590970546E+04    0.62610E-04   -0.20772E-04  4482   0.118E-02    0.305E-02
RMM:   6    -0.231590969551E+04    0.99465E-05   -0.42064E-05  3251   0.670E-03
  37 F= -.23364288E+04 E0= -.23364288E+04  d E =-.290707E-02  mag=     4.0000
       N       E                     dE             d eps       ncg     rms          rms(c)
DAV:   1    -0.231591008593E+04   -0.38047E-03   -0.26327E-01  4480   0.552E-01    0.124E-01
RMM:   2    -0.231591127487E+04   -0.11889E-02   -0.13040E-02  5395   0.899E-02    0.592E-02
RMM:   3    -0.231591127538E+04   -0.50652E-06   -0.10112E-03  4738   0.381E-02    0.395E-02
RMM:   4    -0.231591126586E+04    0.95168E-05   -0.13337E-04  3792   0.854E-03    0.394E-02
RMM:   5    -0.231591125464E+04    0.11225E-04   -0.61351E-05  3178   0.757E-03    0.256E-02
RMM:   6    -0.231591124942E+04    0.52142E-05   -0.13001E-05  2860   0.477E-03
  38 F= -.23364304E+04 E0= -.23364304E+04  d E =-.150883E-02  mag=     4.0000
       N       E                     dE             d eps       ncg     rms          rms(c)
DAV:   1    -0.231590950202E+04    0.17526E-02   -0.57063E-01  4428   0.812E-01    0.182E-01
RMM:   2    -0.231591211087E+04   -0.26089E-02   -0.28491E-02  5219   0.131E-01    0.919E-02
RMM:   3    -0.231591209779E+04    0.13079E-04   -0.20779E-03  4792   0.550E-02    0.737E-02
RMM:   4    -0.231591206829E+04    0.29510E-04   -0.27365E-04  4415   0.118E-02    0.635E-02
RMM:   5    -0.231591202031E+04    0.47971E-04   -0.15871E-04  4241   0.110E-02    0.263E-02
RMM:   6    -0.231591201446E+04    0.58495E-05   -0.24247E-05  2973   0.604E-03
  39 F= -.23364311E+04 E0= -.23364311E+04  d E =-.220489E-02  mag=     4.0000
       N       E                     dE             d eps       ncg     rms          rms(c)
DAV:   1    -0.231591166182E+04    0.35849E-03   -0.42869E-01  4448   0.700E-01    0.150E-01
RMM:   2    -0.231591383011E+04   -0.21683E-02   -0.23386E-02  5221   0.115E-01    0.910E-02
RMM:   3    -0.231591392089E+04   -0.90776E-04   -0.22891E-03  4650   0.538E-02    0.786E-02
RMM:   4    -0.231591387970E+04    0.41187E-04   -0.22500E-04  3842   0.975E-03    0.446E-02
RMM:   5    -0.231591385267E+04    0.27029E-04   -0.76894E-05  3550   0.806E-03    0.253E-02
RMM:   6    -0.231591384723E+04    0.54404E-05   -0.32110E-05  3117   0.612E-03
  40 F= -.23364329E+04 E0= -.23364329E+04  d E =-.180816E-02  mag=     4.0000
       N       E                     dE             d eps       ncg     rms          rms(c)
DAV:   1    -0.231590885026E+04    0.50024E-02   -0.11574E+00  4428   0.115E+00    0.247E-01
RMM:   2    -0.231591470401E+04   -0.58537E-02   -0.63105E-02  5220   0.189E-01    0.157E-01
RMM:   3    -0.231591495364E+04   -0.24963E-03   -0.63213E-03  4694   0.911E-02    0.136E-01
RMM:   4    -0.231591481954E+04    0.13410E-03   -0.62400E-04  4836   0.163E-02    0.724E-02
RMM:   5    -0.231591474344E+04    0.76107E-04   -0.21271E-04  4316   0.125E-02    0.405E-02
RMM:   6    -0.231591472589E+04    0.17544E-04   -0.86141E-05  4042   0.869E-03    0.195E-02
RMM:   7    -0.231591472279E+04    0.31023E-05   -0.13008E-05  2863   0.550E-03
  41 F= -.23364337E+04 E0= -.23364337E+04  d E =-.263889E-02  mag=     4.0000
       N       E                     dE             d eps       ncg     rms          rms(c)
DAV:   1    -0.231591352987E+04    0.11960E-02   -0.48710E-01  4448   0.746E-01    0.167E-01
RMM:   2    -0.231591610555E+04   -0.25757E-02   -0.27485E-02  5247   0.123E-01    0.109E-01
RMM:   3    -0.231591619405E+04   -0.88508E-04   -0.25245E-03  4698   0.542E-02    0.979E-02
RMM:   4    -0.231591611595E+04    0.78103E-04   -0.26363E-04  4039   0.107E-02    0.454E-02
RMM:   5    -0.231591608369E+04    0.32260E-04   -0.86964E-05  3721   0.844E-03    0.227E-02
RMM:   6    -0.231591608000E+04    0.36893E-05   -0.32849E-05  3110   0.637E-03
  42 F= -.23364351E+04 E0= -.23364351E+04  d E =-.136074E-02  mag=     4.0000
       N       E                     dE             d eps       ncg     rms          rms(c)
DAV:   1    -0.231591293943E+04    0.31443E-02   -0.67435E-01  4428   0.878E-01    0.197E-01
RMM:   2    -0.231591646643E+04   -0.35270E-02   -0.37724E-02  5293   0.145E-01    0.125E-01
RMM:   3    -0.231591662682E+04   -0.16039E-03   -0.37479E-03  4725   0.680E-02    0.114E-01
RMM:   4    -0.231591652367E+04    0.10316E-03   -0.37710E-04  4368   0.126E-02    0.542E-02
RMM:   5    -0.231591647877E+04    0.44892E-04   -0.12250E-04  4001   0.981E-03    0.275E-02
RMM:   6    -0.231591647181E+04    0.69656E-05   -0.45538E-05  3392   0.704E-03
  43 F= -.23364354E+04 E0= -.23364354E+04  d E =-.175401E-02  mag=     4.0000
       N       E                     dE             d eps       ncg     rms          rms(c)
DAV:   1    -0.231591578194E+04    0.69683E-03   -0.34515E-01  4464   0.630E-01    0.146E-01
RMM:   2    -0.231591780249E+04   -0.20206E-02   -0.21411E-02  5594   0.107E-01    0.899E-02
RMM:   3    -0.231591787804E+04   -0.75545E-04   -0.18124E-03  4924   0.465E-02    0.862E-02
RMM:   4    -0.231591781197E+04    0.66071E-04   -0.20054E-04  3565   0.969E-03    0.417E-02
RMM:   5    -0.231591778699E+04    0.24976E-04   -0.81153E-05  3820   0.836E-03    0.151E-02
RMM:   6    -0.231591778654E+04    0.45024E-06   -0.18534E-05  2911   0.567E-03
  44 F= -.23364368E+04 E0= -.23364368E+04  d E =-.133058E-02  mag=     4.0000
       N       E                     dE             d eps       ncg     rms          rms(c)
DAV:   1    -0.231591543271E+04    0.23543E-02   -0.47472E-01  4428   0.739E-01    0.171E-01
RMM:   2    -0.231591823900E+04   -0.28063E-02   -0.29760E-02  5407   0.125E-01    0.105E-01
RMM:   3    -0.231591831611E+04   -0.77110E-04   -0.23443E-03  4885   0.505E-02    0.992E-02
RMM:   4    -0.231591822899E+04    0.87128E-04   -0.27429E-04  4076   0.110E-02    0.495E-02
RMM:   5    -0.231591819210E+04    0.36889E-04   -0.11136E-04  4001   0.951E-03    0.178E-02
RMM:   6    -0.231591819042E+04    0.16756E-05   -0.25181E-05  2965   0.617E-03
  45 F= -.23364372E+04 E0= -.23364372E+04  d E =-.175008E-02  mag=     4.0000
       N       E                     dE             d eps       ncg     rms          rms(c)
DAV:   1    -0.231591743757E+04    0.75453E-03   -0.35560E-01  4496   0.633E-01    0.143E-01
RMM:   2    -0.231591956565E+04   -0.21281E-02   -0.22193E-02  5492   0.105E-01    0.107E-01
RMM:   3    -0.231591961916E+04   -0.53513E-04   -0.18904E-03  4899   0.418E-02    0.912E-02
RMM:   4    -0.231591954420E+04    0.74967E-04   -0.19868E-04  3491   0.922E-03    0.393E-02
RMM:   5    -0.231591952205E+04    0.22148E-04   -0.75234E-05  3548   0.777E-03    0.165E-02
RMM:   6    -0.231591952134E+04    0.70990E-06   -0.23394E-05  2955   0.581E-03
  46 F= -.23364385E+04 E0= -.23364385E+04  d E =-.128010E-02  mag=     4.0000
       N       E                     dE             d eps       ncg     rms          rms(c)
DAV:   1    -0.231591010742E+04    0.94146E-02   -0.17866E+00  4456   0.142E+00    0.319E-01
RMM:   2    -0.231592081011E+04   -0.10703E-01   -0.11155E-01  5372   0.233E-01    0.242E-01
RMM:   3    -0.231592103640E+04   -0.22629E-03   -0.94433E-03  4995   0.915E-02    0.205E-01
RMM:   4    -0.231592065430E+04    0.38210E-03   -0.10118E-03  5080   0.202E-02    0.880E-02
RMM:   5    -0.231592054111E+04    0.11318E-03   -0.39995E-04  4716   0.158E-02    0.357E-02
RMM:   6    -0.231592053580E+04    0.53084E-05   -0.10133E-04  4109   0.101E-02    0.150E-02
RMM:   7    -0.231592053489E+04    0.91238E-06   -0.14097E-05  2891   0.451E-03
  47 F= -.23364394E+04 E0= -.23364394E+04  d E =-.217319E-02  mag=     4.0000
       N       E                     dE             d eps       ncg     rms          rms(c)
DAV:   1    -0.231591953215E+04    0.10037E-02   -0.42730E-01  4464   0.688E-01    0.144E-01
RMM:   2    -0.231592189623E+04   -0.23641E-02   -0.24425E-02  5396   0.112E-01    0.121E-01
RMM:   3    -0.231592191504E+04   -0.18811E-04   -0.20087E-03  4837   0.434E-02    0.952E-02
RMM:   4    -0.231592183612E+04    0.78922E-04   -0.20880E-04  3693   0.961E-03    0.412E-02
RMM:   5    -0.231592181056E+04    0.25556E-04   -0.86339E-05  3831   0.821E-03    0.159E-02
RMM:   6    -0.231592181093E+04   -0.36423E-06   -0.20830E-05  2925   0.593E-03
  48 F= -.23364406E+04 E0= -.23364406E+04  d E =-.118660E-02  mag=     4.0000
       N       E                     dE             d eps       ncg     rms          rms(c)
DAV:   1    -0.231590993874E+04    0.11872E-01   -0.24002E+00  4424   0.163E+00    0.339E-01
RMM:   2    -0.231592312864E+04   -0.13190E-01   -0.13709E-01  5365   0.265E-01    0.270E-01
RMM:   3    -0.231592327065E+04   -0.14200E-03   -0.10906E-02  4987   0.933E-02    0.223E-01
RMM:   4    -0.231592283913E+04    0.43151E-03   -0.11722E-03  5138   0.218E-02    0.990E-02
RMM:   5    -0.231592268832E+04    0.15081E-03   -0.49211E-04  4784   0.179E-02    0.381E-02
RMM:   6    -0.231592268618E+04    0.21404E-05   -0.10967E-04  4213   0.112E-02    0.162E-02
RMM:   7    -0.231592268472E+04    0.14620E-05   -0.14826E-05  2892   0.414E-03
  49 F= -.23364412E+04 E0= -.23364412E+04  d E =-.184339E-02  mag=     4.0000
       N       E                     dE             d eps       ncg     rms          rms(c)
DAV:   1    -0.231592122484E+04    0.14613E-02   -0.52206E-01  4464   0.761E-01    0.158E-01
RMM:   2    -0.231592402321E+04   -0.27984E-02   -0.29108E-02  5428   0.125E-01    0.114E-01
RMM:   3    -0.231592407904E+04   -0.55837E-04   -0.22310E-03  4951   0.470E-02    0.101E-01
RMM:   4    -0.231592399378E+04    0.85262E-04   -0.24339E-04  3731   0.104E-02    0.456E-02
RMM:   5    -0.231592396547E+04    0.28312E-04   -0.91661E-05  3834   0.863E-03    0.191E-02
RMM:   6    -0.231592396537E+04    0.99972E-07   -0.25396E-05  2987   0.622E-03
  50 F= -.23364424E+04 E0= -.23364424E+04  d E =-.123423E-02  mag=     4.0000
       N       E                     dE             d eps       ncg     rms          rms(c)
DAV:   1    -0.231590050265E+04    0.23463E-01   -0.46908E+00  4456   0.228E+00    0.472E-01
RMM:   2    -0.231592539722E+04   -0.24895E-01   -0.26033E-01  5375   0.373E-01    0.321E-01
RMM:   3    -0.231592595218E+04   -0.55496E-03   -0.20659E-02  5011   0.135E-01    0.286E-01
RMM:   4    -0.231592529860E+04    0.65358E-03   -0.22001E-03  5326   0.298E-02    0.140E-01
RMM:   5    -0.231592503839E+04    0.26021E-03   -0.82635E-04  4846   0.235E-02    0.618E-02
RMM:   6    -0.231592502798E+04    0.10410E-04   -0.23453E-04  4588   0.149E-02    0.270E-02
RMM:   7    -0.231592502505E+04    0.29312E-05   -0.27433E-05  3009   0.551E-03
  51 F= -.23364434E+04 E0= -.23364434E+04  d E =-.214637E-02  mag=     4.0000
       N       E                     dE             d eps       ncg     rms          rms(c)
DAV:   1    -0.231592054569E+04    0.44823E-02   -0.11319E+00  4488   0.110E+00    0.235E-01
RMM:   2    -0.231592666523E+04   -0.61195E-02   -0.64206E-02  5446   0.184E-01    0.145E-01
RMM:   3    -0.231592682073E+04   -0.15550E-03   -0.50676E-03  5071   0.665E-02    0.126E-01
RMM:   4    -0.231592671367E+04    0.10705E-03   -0.53281E-04  4545   0.144E-02    0.728E-02
RMM:   5    -0.231592665031E+04    0.63359E-04   -0.19994E-04  4286   0.119E-02    0.357E-02
RMM:   6    -0.231592664414E+04    0.61775E-05   -0.58780E-05  3480   0.792E-03
  52 F= -.23364450E+04 E0= -.23364450E+04  d E =-.161987E-02  mag=     4.0000
       N       E                     dE             d eps       ncg     rms          rms(c)
DAV:   1    -0.231591972366E+04    0.69267E-02   -0.13425E+00  4488   0.120E+00    0.255E-01
RMM:   2    -0.231592691163E+04   -0.71880E-02   -0.75807E-02  5446   0.201E-01    0.146E-01
RMM:   3    -0.231592711275E+04   -0.20113E-03   -0.61426E-03  5070   0.796E-02    0.118E-01
RMM:   4    -0.231592704062E+04    0.72131E-04   -0.63512E-04  4756   0.156E-02    0.828E-02
RMM:   5    -0.231592696598E+04    0.74641E-04   -0.24908E-04  4328   0.130E-02    0.434E-02
RMM:   6    -0.231592695306E+04    0.12923E-04   -0.69438E-05  3653   0.836E-03    0.166E-02
RMM:   7    -0.231592695186E+04    0.11972E-05   -0.97251E-06  2859   0.477E-03
  53 F= -.23364453E+04 E0= -.23364453E+04  d E =-.192540E-02  mag=     4.0000
       N       E                     dE             d eps       ncg     rms          rms(c)
DAV:   1    -0.231592319067E+04    0.37624E-02   -0.12802E+00  4456   0.114E+00    0.252E-01
RMM:   2    -0.231592897484E+04   -0.57842E-02   -0.60547E-02  5485   0.186E-01    0.164E-01
RMM:   3    -0.231592905450E+04   -0.79655E-04   -0.41923E-03  5078   0.604E-02    0.154E-01
RMM:   4    -0.231592886066E+04    0.19384E-03   -0.51174E-04  4690   0.156E-02    0.757E-02
RMM:   5    -0.231592879087E+04    0.69790E-04   -0.26906E-04  4467   0.137E-02    0.311E-02
RMM:   6    -0.231592878904E+04    0.18302E-05   -0.47794E-05  3225   0.842E-03
  54 F= -.23364471E+04 E0= -.23364471E+04  d E =-.181457E-02  mag=     4.0000
       N       E                     dE             d eps       ncg     rms          rms(c)
DAV:   1    -0.231592546197E+04    0.33289E-02   -0.81337E-01  4492   0.912E-01    0.202E-01
RMM:   2    -0.231592912901E+04   -0.36670E-02   -0.38577E-02  5492   0.149E-01    0.120E-01
RMM:   3    -0.231592918187E+04   -0.52865E-04   -0.26127E-03  5060   0.488E-02    0.110E-01
RMM:   4    -0.231592909245E+04    0.89427E-04   -0.31965E-04  4151   0.122E-02    0.631E-02
RMM:   5    -0.231592904742E+04    0.45021E-04   -0.17380E-04  4246   0.112E-02    0.274E-02
RMM:   6    -0.231592904461E+04    0.28100E-05   -0.31747E-05  3035   0.704E-03
  55 F= -.23364473E+04 E0= -.23364473E+04  d E =-.205075E-02  mag=     4.0000
       N       E                     dE             d eps       ncg     rms          rms(c)
DAV:   1    -0.231592401513E+04    0.50323E-02   -0.15790E+00  4456   0.126E+00    0.271E-01
RMM:   2    -0.231593112702E+04   -0.71119E-02   -0.75204E-02  5474   0.204E-01    0.165E-01
RMM:   3    -0.231593127310E+04   -0.14608E-03   -0.55871E-03  5121   0.692E-02    0.155E-01
RMM:   4    -0.231593109318E+04    0.17992E-03   -0.62776E-04  4814   0.168E-02    0.883E-02
RMM:   5    -0.231593100901E+04    0.84163E-04   -0.36764E-04  4583   0.152E-02    0.357E-02
RMM:   6    -0.231593100449E+04    0.45210E-05   -0.59040E-05  3350   0.908E-03
  56 F= -.23364492E+04 E0= -.23364492E+04  d E =-.184983E-02  mag=     4.0000
       N       E                     dE             d eps       ncg     rms          rms(c)
DAV:   1    -0.231592848248E+04    0.25265E-02   -0.62138E-01  4496   0.792E-01    0.172E-01
RMM:   2    -0.231593128433E+04   -0.28018E-02   -0.29667E-02  5478   0.129E-01    0.994E-02
RMM:   3    -0.231593134103E+04   -0.56701E-04   -0.21522E-03  4994   0.435E-02    0.896E-02
RMM:   4    -0.231593128792E+04    0.53117E-04   -0.24503E-04  3792   0.105E-02    0.573E-02
RMM:   5    -0.231593125234E+04    0.35574E-04   -0.14189E-04  4082   0.100E-02    0.241E-02
RMM:   6    -0.231593125011E+04    0.22299E-05   -0.24111E-05  2973   0.633E-03
  57 F= -.23364494E+04 E0= -.23364494E+04  d E =-.202548E-02  mag=     4.0000
       N       E                     dE             d eps       ncg     rms          rms(c)
DAV:   1    -0.231592353547E+04    0.77169E-02   -0.20437E+00  4488   0.142E+00    0.312E-01
RMM:   2    -0.231593334007E+04   -0.98046E-02   -0.10379E-01  5488   0.234E-01    0.156E-01
RMM:   3    -0.231593344474E+04   -0.10467E-03   -0.76704E-03  5086   0.781E-02    0.104E-01
RMM:   4    -0.231593342507E+04    0.19675E-04   -0.99985E-04  4749   0.194E-02    0.108E-01
RMM:   5    -0.231593334502E+04    0.80043E-04   -0.42877E-04  4828   0.163E-02    0.688E-02
RMM:   6    -0.231593330945E+04    0.35569E-04   -0.60277E-05  3265   0.730E-03    0.133E-02
RMM:   7    -0.231593330964E+04   -0.18915E-06   -0.11985E-05  2873   0.446E-03
  58 F= -.23364512E+04 E0= -.23364512E+04  d E =-.188544E-02  mag=     4.0000
       N       E                     dE             d eps       ncg     rms          rms(c)
DAV:   1    -0.231593248479E+04    0.82466E-03   -0.20851E-01  4640   0.455E-01    0.100E-01
RMM:   2    -0.231593348802E+04   -0.10032E-02   -0.10587E-02  5535   0.753E-02    0.517E-02
RMM:   3    -0.231593350400E+04   -0.15981E-04   -0.80692E-04  4478   0.267E-02    0.377E-02
RMM:   4    -0.231593350149E+04    0.25131E-05   -0.97278E-05  3034   0.655E-03
  59 F= -.23364514E+04 E0= -.23364514E+04  d E =-.202140E-02  mag=     4.0000
       N       E                     dE             d eps       ncg     rms          rms(c)
DAV:   1    -0.231593164601E+04    0.18580E-02   -0.73822E-01  4460   0.866E-01    0.220E-01
RMM:   2    -0.231593494539E+04   -0.32994E-02   -0.35250E-02  5423   0.144E-01    0.130E-01
RMM:   3    -0.231593501517E+04   -0.69779E-04   -0.28265E-03  5085   0.479E-02    0.132E-01
RMM:   4    -0.231593486333E+04    0.15184E-03   -0.35725E-04  4396   0.132E-02    0.647E-02
RMM:   5    -0.231593481256E+04    0.50765E-04   -0.20412E-04  4301   0.118E-02    0.243E-02
RMM:   6    -0.231593480975E+04    0.28186E-05   -0.28410E-05  2988   0.728E-03
  60 F= -.23364526E+04 E0= -.23364526E+04  d E =-.119005E-02  mag=     4.0000
       N       E                     dE             d eps       ncg     rms          rms(c)
DAV:   1    -0.231593469709E+04    0.11547E-03   -0.31245E-02  4936   0.178E-01    0.460E-02
RMM:   2    -0.231593483880E+04   -0.14171E-03   -0.15154E-03  5713   0.309E-02    0.223E-02
RMM:   3    -0.231593484098E+04   -0.21844E-05   -0.11465E-04  3127   0.112E-02    0.194E-02
RMM:   4    -0.231593483926E+04    0.17250E-05   -0.15592E-05  2884   0.358E-03
  61 F= -.23364526E+04 E0= -.23364526E+04  d E =-.119502E-02  mag=     4.0000
       N       E                     dE             d eps       ncg     rms          rms(c)
DAV:   1    -0.231593240689E+04    0.24341E-02   -0.75605E-01  4424   0.871E-01    0.208E-01
RMM:   2    -0.231593612548E+04   -0.37186E-02   -0.39505E-02  5541   0.146E-01    0.134E-01
RMM:   3    -0.231593621060E+04   -0.85118E-04   -0.28867E-03  5024   0.468E-02    0.132E-01
RMM:   4    -0.231593606257E+04    0.14803E-03   -0.35192E-04  4231   0.125E-02    0.606E-02
RMM:   5    -0.231593601740E+04    0.45175E-04   -0.16871E-04  4134   0.105E-02    0.273E-02
RMM:   6    -0.231593601329E+04    0.41008E-05   -0.41924E-05  3124   0.734E-03
  62 F= -.23364536E+04 E0= -.23364536E+04  d E =-.102696E-02  mag=     4.0000
       N       E                     dE             d eps       ncg     rms          rms(c)
DAV:   1    -0.231593495486E+04    0.10625E-02   -0.24290E-01  4464   0.494E-01    0.119E-01
RMM:   2    -0.231593615245E+04   -0.11976E-02   -0.12738E-02  5566   0.840E-02    0.706E-02
RMM:   3    -0.231593618990E+04   -0.37453E-04   -0.94219E-04  4645   0.297E-02    0.711E-02
RMM:   4    -0.231593614966E+04    0.40244E-04   -0.11112E-04  3096   0.738E-03    0.349E-02
RMM:   5    -0.231593613449E+04    0.15168E-04   -0.51499E-05  3214   0.632E-03    0.161E-02
RMM:   6    -0.231593613314E+04    0.13464E-05   -0.15352E-05  2898   0.499E-03
  63 F= -.23364536E+04 E0= -.23364536E+04  d E =-.106213E-02  mag=     4.0000
       N       E                     dE             d eps       ncg     rms          rms(c)
DAV:   1    -0.231593490769E+04    0.12268E-02   -0.42364E-01  4428   0.643E-01    0.144E-01
RMM:   2    -0.231593710211E+04   -0.21944E-02   -0.23046E-02  5616   0.109E-01    0.951E-02
RMM:   3    -0.231593716230E+04   -0.60185E-04   -0.16122E-03  4894   0.376E-02    0.871E-02
RMM:   4    -0.231593710183E+04    0.60471E-04   -0.18725E-04  3358   0.895E-03    0.462E-02
RMM:   5    -0.231593707723E+04    0.24595E-04   -0.81786E-05  3533   0.774E-03    0.216E-02
RMM:   6    -0.231593707488E+04    0.23486E-05   -0.28435E-05  2980   0.609E-03
  64 F= -.23364545E+04 E0= -.23364545E+04  d E =-.859431E-03  mag=     4.0000
       N       E                     dE             d eps       ncg     rms          rms(c)
DAV:   1    -0.231593179802E+04    0.52792E-02   -0.11285E+00  4424   0.105E+00    0.236E-01
RMM:   2    -0.231593765999E+04   -0.58620E-02   -0.61563E-02  5560   0.178E-01    0.157E-01
RMM:   3    -0.231593779866E+04   -0.13866E-03   -0.42616E-03  5130   0.565E-02    0.143E-01
RMM:   4    -0.231593763503E+04    0.16363E-03   -0.50996E-04  4500   0.141E-02    0.753E-02
RMM:   5    -0.231593756939E+04    0.65641E-04   -0.21562E-04  4237   0.117E-02    0.356E-02
RMM:   6    -0.231593756190E+04    0.74837E-05   -0.71923E-05  3471   0.854E-03
  65 F= -.23364548E+04 E0= -.23364548E+04  d E =-.120921E-02  mag=     4.0000
       N       E                     dE             d eps       ncg     rms          rms(c)
DAV:   1    -0.231593569401E+04    0.18754E-02   -0.56240E-01  4456   0.742E-01    0.180E-01
RMM:   2    -0.231593870291E+04   -0.30089E-02   -0.31348E-02  5663   0.129E-01    0.130E-01
RMM:   3    -0.231593878355E+04   -0.80647E-04   -0.22908E-03  5118   0.451E-02    0.120E-01
RMM:   4    -0.231593865318E+04    0.13037E-03   -0.27923E-04  3927   0.112E-02    0.522E-02
RMM:   5    -0.231593861637E+04    0.36806E-04   -0.12613E-04  4057   0.968E-03    0.212E-02
RMM:   6    -0.231593861497E+04    0.14073E-05   -0.31503E-05  3005   0.693E-03
  66 F= -.23364558E+04 E0= -.23364558E+04  d E =-.100349E-02  mag=     4.0000
       N       E                     dE             d eps       ncg     rms          rms(c)
DAV:   1    -0.231593765638E+04    0.96000E-03   -0.20542E-01  4528   0.448E-01    0.110E-01
RMM:   2    -0.231593876456E+04   -0.11082E-02   -0.11526E-02  5671   0.784E-02    0.800E-02
RMM:   3    -0.231593879185E+04   -0.27288E-04   -0.84185E-04  4644   0.279E-02    0.737E-02
RMM:   4    -0.231593874213E+04    0.49718E-04   -0.10084E-04  3062   0.726E-03    0.316E-02
RMM:   5    -0.231593872714E+04    0.14996E-04   -0.47370E-05  3220   0.636E-03    0.129E-02
RMM:   6    -0.231593872665E+04    0.48481E-06   -0.13675E-05  2895   0.506E-03
  67 F= -.23364559E+04 E0= -.23364559E+04  d E =-.108417E-02  mag=     4.0000
       N       E                     dE             d eps       ncg     rms          rms(c)
DAV:   1    -0.231593727979E+04    0.14473E-02   -0.41840E-01  4488   0.634E-01    0.160E-01
RMM:   2    -0.231593994176E+04   -0.26620E-02   -0.27027E-02  5654   0.112E-01    0.152E-01
RMM:   3    -0.231593992592E+04    0.15840E-04   -0.21160E-03  4898   0.380E-02    0.104E-01
RMM:   4    -0.231593982584E+04    0.10008E-03   -0.22836E-04  3717   0.972E-03    0.442E-02
RMM:   5    -0.231593979857E+04    0.27269E-04   -0.90933E-05  3731   0.824E-03    0.180E-02
RMM:   6    -0.231593979896E+04   -0.38560E-06   -0.21913E-05  2918   0.611E-03
  68 F= -.23364569E+04 E0= -.23364569E+04  d E =-.947270E-03  mag=     4.0000
       N       E                     dE             d eps       ncg     rms          rms(c)
DAV:   1    -0.231593756537E+04    0.22332E-02   -0.42473E-01  4456   0.640E-01    0.162E-01
RMM:   2    -0.231594028178E+04   -0.27164E-02   -0.27554E-02  5656   0.114E-01    0.156E-01
RMM:   3    -0.231594025964E+04    0.22147E-04   -0.21565E-03  4930   0.372E-02    0.106E-01
RMM:   4    -0.231594015731E+04    0.10232E-03   -0.23127E-04  3772   0.976E-03    0.446E-02
RMM:   5    -0.231594012888E+04    0.28429E-04   -0.94090E-05  3773   0.827E-03    0.182E-02
RMM:   6    -0.231594012866E+04    0.21895E-06   -0.21687E-05  2921   0.617E-03
  69 F= -.23364571E+04 E0= -.23364571E+04  d E =-.114808E-02  mag=     4.0000
       N       E                     dE             d eps       ncg     rms          rms(c)
DAV:   1    -0.231593854513E+04    0.15838E-02   -0.45661E-01  4488   0.664E-01    0.174E-01
RMM:   2    -0.231594131257E+04   -0.27674E-02   -0.28356E-02  5681   0.118E-01    0.149E-01
RMM:   3    -0.231594133340E+04   -0.20831E-04   -0.21647E-03  4974   0.402E-02    0.118E-01
RMM:   4    -0.231594120742E+04    0.12598E-03   -0.25558E-04  3852   0.104E-02    0.456E-02
RMM:   5    -0.231594118117E+04    0.26251E-04   -0.92923E-05  3707   0.829E-03    0.218E-02
RMM:   6    -0.231594117995E+04    0.12199E-05   -0.31628E-05  3003   0.634E-03
  70 F= -.23364579E+04 E0= -.23364579E+04  d E =-.859322E-03  mag=     4.0000
       N       E                     dE             d eps       ncg     rms          rms(c)
DAV:   1    -0.231593953175E+04    0.16494E-02   -0.33582E-01  4512   0.569E-01    0.150E-01
RMM:   2    -0.231594156676E+04   -0.20350E-02   -0.20851E-02  5710   0.101E-01    0.127E-01
RMM:   3    -0.231594158778E+04   -0.21025E-04   -0.16071E-03  4863   0.349E-02    0.102E-01
RMM:   4    -0.231594149309E+04    0.94691E-04   -0.18583E-04  3418   0.903E-03    0.394E-02
RMM:   5    -0.231594147329E+04    0.19799E-04   -0.68915E-05  3424   0.724E-03    0.193E-02
RMM:   6    -0.231594147168E+04    0.16073E-05   -0.25056E-05  2953   0.586E-03
  71 F= -.23364581E+04 E0= -.23364581E+04  d E =-.984047E-03  mag=     4.0000
       N       E                     dE             d eps       ncg     rms          rms(c)
DAV:   1    -0.231593965889E+04    0.18144E-02   -0.51117E-01  4472   0.710E-01    0.182E-01
RMM:   2    -0.231594255894E+04   -0.29001E-02   -0.30236E-02  5672   0.125E-01    0.133E-01
RMM:   3    -0.231594262984E+04   -0.70901E-04   -0.21497E-03  5048   0.432E-02    0.120E-01
RMM:   4    -0.231594250063E+04    0.12922E-03   -0.27251E-04  3901   0.109E-02    0.503E-02
RMM:   5    -0.231594247254E+04    0.28086E-04   -0.97168E-05  3671   0.859E-03    0.268E-02
RMM:   6    -0.231594246748E+04    0.50577E-05   -0.45865E-05  3149   0.689E-03
  72 F= -.23364589E+04 E0= -.23364589E+04  d E =-.824802E-03  mag=     4.0000
       N       E                     dE             d eps       ncg     rms          rms(c)
DAV:   1    -0.231594125893E+04    0.12136E-02   -0.25573E-01  4512   0.502E-01    0.130E-01
RMM:   2    -0.231594271149E+04   -0.14526E-02   -0.15157E-02  5824   0.896E-02    0.920E-02
RMM:   3    -0.231594275369E+04   -0.42194E-04   -0.10910E-03  4787   0.311E-02    0.847E-02
RMM:   4    -0.231594268942E+04    0.64270E-04   -0.13297E-04  3157   0.810E-03    0.361E-02
RMM:   5    -0.231594267544E+04    0.13975E-04   -0.51579E-05  3121   0.637E-03    0.192E-02
RMM:   6    -0.231594267279E+04    0.26542E-05   -0.24018E-05  2949   0.557E-03
  73 F= -.23364590E+04 E0= -.23364590E+04  d E =-.907510E-03  mag=     4.0000
       N       E                     dE             d eps       ncg     rms          rms(c)
DAV:   1    -0.231594059743E+04    0.20780E-02   -0.59212E-01  4424   0.758E-01    0.200E-01
RMM:   2    -0.231594385151E+04   -0.32541E-02   -0.34075E-02  5665   0.134E-01    0.146E-01
RMM:   3    -0.231594391214E+04   -0.60630E-04   -0.23954E-03  5031   0.467E-02    0.133E-01
RMM:   4    -0.231594375843E+04    0.15371E-03   -0.31333E-04  4200   0.119E-02    0.543E-02
RMM:   5    -0.231594372885E+04    0.29579E-04   -0.11808E-04  3777   0.926E-03    0.301E-02
RMM:   6    -0.231594372253E+04    0.63189E-05   -0.53450E-05  3261   0.712E-03
  74 F= -.23364598E+04 E0= -.23364598E+04  d E =-.844556E-03  mag=     4.0000
       N       E                     dE             d eps       ncg     rms          rms(c)
DAV:   1    -0.231594333473E+04    0.39411E-03   -0.92214E-02  4592   0.299E-01    0.800E-02
RMM:   2    -0.231594384597E+04   -0.51123E-03   -0.53562E-03  6031   0.550E-02    0.556E-02
RMM:   3    -0.231594386115E+04   -0.15179E-04   -0.38881E-04  3782   0.176E-02    0.535E-02
RMM:   4    -0.231594383709E+04    0.24052E-04   -0.49722E-05  2945   0.575E-03    0.220E-02
RMM:   5    -0.231594383251E+04    0.45850E-05   -0.19612E-05  2901   0.419E-03
  75 F= -.23364598E+04 E0= -.23364598E+04  d E =-.872837E-03  mag=     4.0000
       N       E                     dE             d eps       ncg     rms          rms(c)
DAV:   1    -0.231594198513E+04    0.18520E-02   -0.58570E-01  4424   0.751E-01    0.189E-01
RMM:   2    -0.231594492324E+04   -0.29381E-02   -0.30719E-02  5699   0.131E-01    0.148E-01
RMM:   3    -0.231594492928E+04   -0.60387E-05   -0.20718E-03  4941   0.406E-02    0.130E-01
RMM:   4    -0.231594477676E+04    0.15252E-03   -0.28254E-04  4350   0.114E-02    0.539E-02
RMM:   5    -0.231594474380E+04    0.32954E-04   -0.12303E-04  3966   0.953E-03    0.288E-02
RMM:   6    -0.231594473648E+04    0.73232E-05   -0.47411E-05  3193   0.685E-03
  76 F= -.23364606E+04 E0= -.23364606E+04  d E =-.709417E-03  mag=     4.0000
       N       E                     dE             d eps       ncg     rms          rms(c)
DAV:   1    -0.231594468455E+04    0.59256E-04   -0.14155E-02  5064   0.117E-01    0.314E-02
RMM:   2    -0.231594475831E+04   -0.73766E-04   -0.77560E-04  5633   0.227E-02    0.241E-02
RMM:   3    -0.231594475962E+04   -0.13037E-05   -0.58988E-05  2943   0.768E-03
  77 F= -.23364605E+04 E0= -.23364605E+04  d E =-.702027E-03  mag=     4.0000
       N       E                     dE             d eps       ncg     rms          rms(c)
DAV:   1    -0.231594340706E+04    0.13513E-02   -0.51675E-01  4460   0.706E-01    0.179E-01
RMM:   2    -0.231594564307E+04   -0.22360E-02   -0.23517E-02  5600   0.120E-01    0.134E-01
RMM:   3    -0.231594564166E+04    0.14105E-05   -0.15970E-03  4936   0.372E-02    0.124E-01
RMM:   4    -0.231594550213E+04    0.13953E-03   -0.22620E-04  4288   0.108E-02    0.518E-02
RMM:   5    -0.231594547254E+04    0.29592E-04   -0.12066E-04  4009   0.946E-03    0.264E-02
RMM:   6    -0.231594546818E+04    0.43593E-05   -0.39815E-05  3065   0.660E-03
  78 F= -.23364611E+04 E0= -.23364611E+04  d E =-.601707E-03  mag=     4.0000
       N       E                     dE             d eps       ncg     rms          rms(c)
DAV:   1    -0.231594534323E+04    0.12931E-03   -0.33301E-02  4728   0.180E-01    0.464E-02
RMM:   2    -0.231594549169E+04   -0.14846E-03   -0.15581E-03  5885   0.323E-02    0.335E-02
RMM:   3    -0.231594549384E+04   -0.21527E-05   -0.11065E-04  3142   0.102E-02    0.335E-02
RMM:   4    -0.231594548385E+04    0.99918E-05   -0.15895E-05  2885   0.396E-03
  79 F= -.23364611E+04 E0= -.23364611E+04  d E =-.589929E-03  mag=     4.0000
       N       E                     dE             d eps       ncg     rms          rms(c)
DAV:   1    -0.231594435015E+04    0.11437E-02   -0.51584E-01  4408   0.684E-01    0.163E-01
RMM:   2    -0.231594639576E+04   -0.20456E-02   -0.21618E-02  5566   0.115E-01    0.113E-01
RMM:   3    -0.231594641939E+04   -0.23636E-04   -0.15372E-03  4883   0.361E-02    0.110E-01
RMM:   4    -0.231594631429E+04    0.10511E-03   -0.20447E-04  3904   0.101E-02    0.546E-02
RMM:   5    -0.231594628292E+04    0.31364E-04   -0.12617E-04  4021   0.910E-03    0.256E-02
RMM:   6    -0.231594627788E+04    0.50442E-05   -0.36274E-05  3058   0.660E-03
  80 F= -.23364618E+04 E0= -.23364618E+04  d E =-.656367E-03  mag=     4.0000
       N       E                     dE             d eps       ncg     rms          rms(c)
DAV:   1    -0.231594590149E+04    0.38143E-03   -0.11571E-01  4448   0.324E-01    0.785E-02
RMM:   2    -0.231594637208E+04   -0.47059E-03   -0.49570E-03  5648   0.556E-02    0.553E-02
RMM:   3    -0.231594637637E+04   -0.42866E-05   -0.34513E-04  3949   0.182E-02    0.527E-02
RMM:   4    -0.231594635199E+04    0.24383E-04   -0.46071E-05  2955   0.571E-03    0.258E-02
RMM:   5    -0.231594634408E+04    0.79082E-05   -0.27560E-05  2942   0.475E-03
  81 F= -.23364618E+04 E0= -.23364618E+04  d E =-.657187E-03  mag=     4.0000
       N       E                     dE             d eps       ncg     rms          rms(c)
DAV:   1    -0.231594563547E+04    0.71652E-03   -0.34472E-01  4408   0.567E-01    0.141E-01
RMM:   2    -0.231594713462E+04   -0.14991E-02   -0.15871E-02  5732   0.991E-02    0.900E-02
RMM:   3    -0.231594715414E+04   -0.19521E-04   -0.10854E-03  4671   0.314E-02    0.877E-02
RMM:   4    -0.231594709301E+04    0.61126E-04   -0.14296E-04  3358   0.856E-03    0.458E-02
RMM:   5    -0.231594707588E+04    0.17132E-04   -0.73453E-05  3303   0.730E-03    0.242E-02
RMM:   6    -0.231594707123E+04    0.46523E-05   -0.29640E-05  2999   0.589E-03
  82 F= -.23364624E+04 E0= -.23364624E+04  d E =-.579826E-03  mag=     4.0000
       N       E                     dE             d eps       ncg     rms          rms(c)
DAV:   1    -0.231594607011E+04    0.10058E-02   -0.28751E-01  4424   0.518E-01    0.130E-01
RMM:   2    -0.231594733759E+04   -0.12675E-02   -0.13339E-02  5693   0.908E-02    0.867E-02
RMM:   3    -0.231594735524E+04   -0.17647E-04   -0.93867E-04  4560   0.298E-02    0.857E-02
RMM:   4    -0.231594729463E+04    0.60607E-04   -0.12536E-04  3235   0.810E-03    0.411E-02
RMM:   5    -0.231594727979E+04    0.14846E-04   -0.61404E-05  3219   0.666E-03    0.220E-02
RMM:   6    -0.231594727584E+04    0.39479E-05   -0.25034E-05  2976   0.559E-03
  83 F= -.23364624E+04 E0= -.23364624E+04  d E =-.650077E-03  mag=     4.0000
       N       E                     dE             d eps       ncg     rms          rms(c)
DAV:   1    -0.231594638881E+04    0.89098E-03   -0.32738E-01  4448   0.560E-01    0.146E-01
RMM:   2    -0.231594801440E+04   -0.16256E-02   -0.17428E-02  5684   0.102E-01    0.929E-02
RMM:   3    -0.231594803742E+04   -0.23019E-04   -0.12212E-03  4712   0.337E-02    0.927E-02
RMM:   4    -0.231594796945E+04    0.67970E-04   -0.16336E-04  3321   0.875E-03    0.459E-02
RMM:   5    -0.231594794995E+04    0.19491E-04   -0.70487E-05  3275   0.710E-03    0.249E-02
RMM:   6    -0.231594794368E+04    0.62790E-05   -0.31534E-05  3017   0.613E-03
  84 F= -.23364630E+04 E0= -.23364630E+04  d E =-.547107E-03  mag=     4.0000
       N       E                     dE             d eps       ncg     rms          rms(c)
DAV:   1    -0.231594761642E+04    0.33353E-03   -0.84803E-02  4520   0.285E-01    0.749E-02
RMM:   2    -0.231594804327E+04   -0.42685E-03   -0.45720E-03  5937   0.533E-02    0.477E-02
RMM:   3    -0.231594805013E+04   -0.68524E-05   -0.32319E-04  3792   0.168E-02    0.482E-02
RMM:   4    -0.231594803176E+04    0.18363E-04   -0.42701E-05  2933   0.533E-03    0.236E-02
RMM:   5    -0.231594802595E+04    0.58091E-05   -0.19390E-05  2913   0.403E-03
  85 F= -.23364630E+04 E0= -.23364630E+04  d E =-.567898E-03  mag=     4.0000
       N       E                     dE             d eps       ncg     rms          rms(c)
DAV:   1    -0.231594724766E+04    0.78410E-03   -0.29308E-01  4448   0.524E-01    0.140E-01
RMM:   2    -0.231594867194E+04   -0.14243E-02   -0.15480E-02  5800   0.955E-02    0.773E-02
RMM:   3    -0.231594867349E+04   -0.15450E-05   -0.10415E-03  4634   0.294E-02    0.619E-02
RMM:   4    -0.231594865204E+04    0.21453E-04   -0.13973E-04  3351   0.800E-03    0.500E-02
RMM:   5    -0.231594863242E+04    0.19611E-04   -0.65354E-05  3077   0.684E-03    0.276E-02
RMM:   6    -0.231594862401E+04    0.84138E-05   -0.29978E-05  3009   0.568E-03
  86 F= -.23364636E+04 E0= -.23364636E+04  d E =-.552985E-03  mag=     4.0000
       N       E                     dE             d eps       ncg     rms          rms(c)
DAV:   1    -0.231594812227E+04    0.51015E-03   -0.11880E-01  4512   0.334E-01    0.896E-02
RMM:   2    -0.231594870359E+04   -0.58132E-03   -0.62993E-03  5892   0.617E-02    0.499E-02
RMM:   3    -0.231594870604E+04   -0.24511E-05   -0.43903E-04  4036   0.201E-02    0.411E-02
RMM:   4    -0.231594869665E+04    0.93988E-05   -0.56390E-05  2989   0.579E-03
  87 F= -.23364636E+04 E0= -.23364636E+04  d E =-.596866E-03  mag=     4.0000
       N       E                     dE             d eps       ncg     rms          rms(c)
DAV:   1    -0.231594809227E+04    0.61377E-03   -0.27847E-01  4408   0.505E-01    0.132E-01
RMM:   2    -0.231594930803E+04   -0.12158E-02   -0.13002E-02  5673   0.884E-02    0.885E-02
RMM:   3    -0.231594933809E+04   -0.30061E-04   -0.10810E-03  4542   0.314E-02    0.878E-02
RMM:   4    -0.231594927476E+04    0.63335E-04   -0.13760E-04  3262   0.831E-03    0.446E-02
RMM:   5    -0.231594925642E+04    0.18335E-04   -0.66867E-05  3338   0.687E-03    0.223E-02
RMM:   6    -0.231594925290E+04    0.35195E-05   -0.26954E-05  2984   0.576E-03
  88 F= -.23364641E+04 E0= -.23364641E+04  d E =-.496312E-03  mag=     4.0000
       N       E                     dE             d eps       ncg     rms          rms(c)
DAV:   1    -0.231594847541E+04    0.78101E-03   -0.20455E-01  4432   0.433E-01    0.112E-01
RMM:   2    -0.231594938779E+04   -0.91238E-03   -0.97754E-03  5698   0.777E-02    0.673E-02
RMM:   3    -0.231594939599E+04   -0.81966E-05   -0.70224E-04  4415   0.263E-02    0.601E-02
RMM:   4    -0.231594937093E+04    0.25060E-04   -0.90925E-05  3082   0.697E-03    0.396E-02
RMM:   5    -0.231594935665E+04    0.14279E-04   -0.41269E-05  3001   0.560E-03    0.205E-02
RMM:   6    -0.231594935269E+04    0.39569E-05   -0.22669E-05  2928   0.495E-03
  89 F= -.23364642E+04 E0= -.23364642E+04  d E =-.544698E-03  mag=     4.0000
       N       E                     dE             d eps       ncg     rms          rms(c)
DAV:   1    -0.231594839212E+04    0.96452E-03   -0.30787E-01  4416   0.541E-01    0.146E-01
RMM:   2    -0.231595002543E+04   -0.16333E-02   -0.17281E-02  5695   0.101E-01    0.109E-01
RMM:   3    -0.231595003408E+04   -0.86571E-05   -0.12326E-03  4693   0.343E-02    0.105E-01
RMM:   4    -0.231594993632E+04    0.97763E-04   -0.16762E-04  3474   0.906E-03    0.424E-02
RMM:   5    -0.231594991509E+04    0.21227E-04   -0.71828E-05  3481   0.732E-03    0.238E-02
RMM:   6    -0.231594990906E+04    0.60298E-05   -0.32779E-05  3013   0.606E-03
  90 F= -.23364646E+04 E0= -.23364646E+04  d E =-.464276E-03  mag=     4.0000
       N       E                     dE             d eps       ncg     rms          rms(c)
DAV:   1    -0.231594983617E+04    0.78926E-04   -0.17712E-02  4944   0.130E-01    0.365E-02
RMM:   2    -0.231594993293E+04   -0.96762E-04   -0.10269E-03  5798   0.260E-02    0.282E-02
RMM:   3    -0.231594993368E+04   -0.74806E-06   -0.78168E-05  3018   0.847E-03
  91 F= -.23364646E+04 E0= -.23364646E+04  d E =-.466659E-03  mag=     4.0000
       N       E                     dE             d eps       ncg     rms          rms(c)
DAV:   1    -0.231594910288E+04    0.83005E-03   -0.20954E-01  4428   0.447E-01    0.133E-01
RMM:   2    -0.231595050850E+04   -0.14056E-02   -0.14593E-02  5874   0.889E-02    0.109E-01
RMM:   3    -0.231595051364E+04   -0.51386E-05   -0.96675E-04  4231   0.244E-02    0.928E-02
RMM:   4    -0.231595044118E+04    0.72460E-04   -0.14159E-04  3281   0.815E-03    0.371E-02
RMM:   5    -0.231595042458E+04    0.16596E-04   -0.62814E-05  3329   0.703E-03    0.202E-02
RMM:   6    -0.231595042169E+04    0.28948E-05   -0.23282E-05  2957   0.548E-03
  92 F= -.23364650E+04 E0= -.23364650E+04  d E =-.413280E-03  mag=     4.0000
       N       E                     dE             d eps       ncg     rms          rms(c)
DAV:   1    -0.231595036038E+04    0.64203E-04   -0.10899E-02  4880   0.102E-01    0.310E-02
RMM:   2    -0.231595043482E+04   -0.74440E-04   -0.77981E-04  5698   0.215E-02    0.240E-02
RMM:   3    -0.231595043708E+04   -0.22619E-05   -0.58087E-05  2953   0.724E-03
  93 F= -.23364650E+04 E0= -.23364650E+04  d E =-.411438E-03  mag=     4.0000
       N       E                     dE             d eps       ncg     rms          rms(c)
DAV:   1    -0.231594998195E+04    0.45287E-03   -0.16755E-01  4452   0.392E-01    0.113E-01
RMM:   2    -0.231595093907E+04   -0.95712E-03   -0.10028E-02  5818   0.749E-02    0.826E-02
RMM:   3    -0.231595094205E+04   -0.29859E-05   -0.71189E-04  4055   0.217E-02    0.744E-02
RMM:   4    -0.231595089529E+04    0.46766E-04   -0.98919E-05  3111   0.723E-03    0.339E-02
RMM:   5    -0.231595088269E+04    0.12596E-04   -0.47975E-05  3036   0.617E-03    0.198E-02
RMM:   6    -0.231595087886E+04    0.38301E-05   -0.21834E-05  2937   0.506E-03
  94 F= -.23364654E+04 E0= -.23364654E+04  d E =-.363268E-03  mag=     4.0000
       N       E                     dE             d eps       ncg     rms          rms(c)
DAV:   1    -0.231595064628E+04    0.23641E-03   -0.51827E-02  4456   0.218E-01    0.624E-02
RMM:   2    -0.231595094389E+04   -0.29762E-03   -0.31219E-03  5888   0.419E-02    0.444E-02
RMM:   3    -0.231595094748E+04   -0.35870E-05   -0.22695E-04  3375   0.137E-02    0.426E-02
RMM:   4    -0.231595093113E+04    0.16345E-04   -0.31047E-05  2912   0.470E-03    0.184E-02
RMM:   5    -0.231595092691E+04    0.42183E-05   -0.13733E-05  2879   0.346E-03
  95 F= -.23364654E+04 E0= -.23364654E+04  d E =-.367314E-03  mag=     4.0000
       N       E                     dE             d eps       ncg     rms          rms(c)
DAV:   1    -0.231595071311E+04    0.21803E-03   -0.10713E-01  4428   0.317E-01    0.845E-02
RMM:   2    -0.231595131394E+04   -0.60084E-03   -0.63774E-03  5881   0.601E-02    0.556E-02
RMM:   3    -0.231595132267E+04   -0.87257E-05   -0.45541E-04  3826   0.182E-02    0.515E-02
RMM:   4    -0.231595130088E+04    0.21785E-04   -0.58189E-05  3007   0.594E-03    0.274E-02
RMM:   5    -0.231595129334E+04    0.75443E-05   -0.24820E-05  2914   0.451E-03
  96 F= -.23364657E+04 E0= -.23364657E+04  d E =-.299332E-03  mag=     4.0000
       N       E                     dE             d eps       ncg     rms          rms(c)
DAV:   1    -0.231595092734E+04    0.37355E-03   -0.88363E-02  4448   0.288E-01    0.766E-02
RMM:   2    -0.231595142064E+04   -0.49331E-03   -0.52634E-03  5970   0.550E-02    0.480E-02
RMM:   3    -0.231595142780E+04   -0.71588E-05   -0.37689E-04  3692   0.167E-02    0.436E-02
RMM:   4    -0.231595141331E+04    0.14497E-04   -0.48319E-05  2966   0.557E-03    0.259E-02
RMM:   5    -0.231595140683E+04    0.64719E-05   -0.21235E-05  2890   0.423E-03
  97 F= -.23364657E+04 E0= -.23364657E+04  d E =-.351433E-03  mag=     4.0000
       N       E                     dE             d eps       ncg     rms          rms(c)
DAV:   1    -0.231595129843E+04    0.11488E-03   -0.81051E-02  4496   0.288E-01    0.881E-02
RMM:   2    -0.231595178563E+04   -0.48720E-03   -0.53514E-03  5872   0.566E-02    0.454E-02
RMM:   3    -0.231595179841E+04   -0.12778E-04   -0.38936E-04  3896   0.193E-02    0.443E-02
RMM:   4    -0.231595178381E+04    0.14602E-04   -0.51714E-05  2973   0.583E-03    0.262E-02
RMM:   5    -0.231595177700E+04    0.68051E-05   -0.21658E-05  2894   0.453E-03
  98 F= -.23364661E+04 E0= -.23364661E+04  d E =-.334700E-03  mag=     4.0000
       N       E                     dE             d eps       ncg     rms          rms(c)
DAV:   1    -0.231595162458E+04    0.15923E-03   -0.34579E-02  4608   0.188E-01    0.574E-02
RMM:   2    -0.231595183372E+04   -0.20915E-03   -0.23061E-03  5985   0.378E-02    0.293E-02
RMM:   3    -0.231595183868E+04   -0.49552E-05   -0.16141E-04  3259   0.120E-02    0.269E-02
RMM:   4    -0.231595183376E+04    0.49165E-05   -0.22861E-05  2898   0.424E-03
  99 F= -.23364661E+04 E0= -.23364661E+04  d E =-.368094E-03  mag=     4.0000
       N       E                     dE             d eps       ncg     rms          rms(c)
DAV:   1    -0.231595164876E+04    0.18992E-03   -0.73090E-02  4480   0.266E-01    0.782E-02
RMM:   2    -0.231595208714E+04   -0.43838E-03   -0.47144E-03  5857   0.508E-02    0.493E-02
RMM:   3    -0.231595210681E+04   -0.19670E-04   -0.37567E-04  3632   0.165E-02    0.529E-02
RMM:   4    -0.231595208330E+04    0.23511E-04   -0.48785E-05  2959   0.542E-03    0.235E-02
RMM:   5    -0.231595207771E+04    0.55892E-05   -0.22179E-05  2929   0.421E-03
 100 F= -.23364664E+04 E0= -.23364664E+04  d E =-.239823E-03  mag=     4.0000
       N       E                     dE             d eps       ncg     rms          rms(c)
DAV:   1    -0.231595183780E+04    0.24550E-03   -0.44689E-02  4528   0.208E-01    0.612E-02
RMM:   2    -0.231595210523E+04   -0.26744E-03   -0.29245E-03  6033   0.412E-02    0.317E-02
RMM:   3    -0.231595210969E+04   -0.44555E-05   -0.19911E-04  3302   0.124E-02    0.240E-02
RMM:   4    -0.231595210676E+04    0.29319E-05   -0.26613E-05  2919   0.430E-03
 101 F= -.23364664E+04 E0= -.23364664E+04  d E =-.265579E-03  mag=     4.0000
       N       E                     dE             d eps       ncg     rms          rms(c)
DAV:   1    -0.231595199593E+04    0.11375E-03   -0.75529E-02  4464   0.269E-01    0.774E-02
RMM:   2    -0.231595236986E+04   -0.37392E-03   -0.40020E-03  5768   0.492E-02    0.522E-02
RMM:   3    -0.231595238250E+04   -0.12644E-04   -0.36363E-04  3748   0.177E-02    0.560E-02
RMM:   4    -0.231595235433E+04    0.28175E-04   -0.45361E-05  2962   0.551E-03    0.227E-02
RMM:   5    -0.231595234872E+04    0.56016E-05   -0.22540E-05  2941   0.431E-03
 102 F= -.23364666E+04 E0= -.23364666E+04  d E =-.203380E-03  mag=     4.0000
       N       E                     dE             d eps       ncg     rms          rms(c)
DAV:   1    -0.231595227680E+04    0.77524E-04   -0.21186E-02  4608   0.142E-01    0.406E-02
RMM:   2    -0.231595238230E+04   -0.10550E-03   -0.11574E-03  5870   0.279E-02    0.201E-02
RMM:   3    -0.231595238167E+04    0.63414E-06   -0.80750E-05  3011   0.886E-03
 103 F= -.23364666E+04 E0= -.23364666E+04  d E =-.215697E-03  mag=     4.0000
       N       E                     dE             d eps       ncg     rms          rms(c)
DAV:   1    -0.231595242113E+04   -0.38827E-04   -0.60930E-02  4416   0.243E-01    0.721E-02
RMM:   2    -0.231595268694E+04   -0.26581E-03   -0.29499E-03  5714   0.450E-02    0.350E-02
RMM:   3    -0.231595268448E+04    0.24590E-05   -0.23263E-04  3517   0.139E-02    0.259E-02
RMM:   4    -0.231595268301E+04    0.14655E-05   -0.30704E-05  2923   0.492E-03
 104 F= -.23364668E+04 E0= -.23364668E+04  d E =-.232805E-03  mag=     4.0000
       N       E                     dE             d eps       ncg     rms          rms(c)
[...]
DAV:   1    -0.231596183731E+04    0.97581E-03   -0.32555E-01  4392   0.349E-01    0.119E-01
RMM:   2    -0.231596287728E+04   -0.10400E-02   -0.11034E-02  5657   0.630E-02    0.685E-02
RMM:   3    -0.231596293015E+04   -0.52872E-04   -0.93281E-04  3704   0.230E-02    0.704E-02
RMM:   4    -0.231596289941E+04    0.30736E-04   -0.91224E-05  3154   0.633E-03    0.393E-02
RMM:   5    -0.231596289013E+04    0.92828E-05   -0.46249E-05  2977   0.471E-03
 272 F= -.23364741E+04 E0= -.23364741E+04  d E =-.154286E-03  mag=     4.0000
       N       E                     dE             d eps       ncg     rms          rms(c)
DAV:   1    -0.231596294717E+04   -0.47756E-04   -0.56137E-02  4392   0.152E-01    0.538E-02
RMM:   2    -0.231596312873E+04   -0.18156E-03   -0.19549E-03  5463   0.283E-02    0.266E-02
RMM:   3    -0.231596313617E+04   -0.74385E-05   -0.17175E-04  3188   0.113E-02    0.229E-02
RMM:   4    -0.231596313479E+04    0.13753E-05   -0.17718E-05  2906   0.328E-03
 273 F= -.23364743E+04 E0= -.23364743E+04  d E =-.211638E-03  mag=     4.0000
       N       E                     dE             d eps       ncg     rms          rms(c)
DAV:   1    -0.231596244243E+04    0.69374E-03   -0.32421E-01  4392   0.366E-01    0.128E-01
RMM:   2    -0.231596350582E+04   -0.10634E-02   -0.11288E-02  5637   0.668E-02    0.831E-02
RMM:   3    -0.231596357152E+04   -0.65702E-04   -0.10821E-03  3924   0.252E-02    0.948E-02
RMM:   4    -0.231596349845E+04    0.73074E-04   -0.12284E-04  3219   0.755E-03    0.378E-02
RMM:   5    -0.231596348734E+04    0.11111E-04   -0.60578E-05  3095   0.568E-03    0.153E-02
RMM:   6    -0.231596348825E+04   -0.91069E-06   -0.14913E-05  2894   0.440E-03
 274 F= -.23364746E+04 E0= -.23364746E+04  d E =-.486961E-03  mag=     4.0000
       N       E                     dE             d eps       ncg     rms          rms(c)
DAV:   1    -0.231595904476E+04    0.44426E-02   -0.13007E+00  4392   0.733E-01    0.255E-01
RMM:   2    -0.231596331197E+04   -0.42672E-02   -0.45624E-02  5630   0.134E-01    0.147E-01
RMM:   3    -0.231596354105E+04   -0.22908E-03   -0.39170E-03  4993   0.490E-02    0.164E-01
RMM:   4    -0.231596333922E+04    0.20184E-03   -0.42373E-04  4091   0.124E-02    0.776E-02
RMM:   5    -0.231596329448E+04    0.44737E-04   -0.20513E-04  3879   0.994E-03    0.342E-02
RMM:   6    -0.231596329422E+04    0.26182E-06   -0.66335E-05  3156   0.736E-03
 275 F= -.23364742E+04 E0= -.23364742E+04  d E =-.139935E-03  mag=     4.0000
       N       E                     dE             d eps       ncg     rms          rms(c)
DAV:   1    -0.231596166648E+04    0.16280E-02   -0.58983E-01  4392   0.495E-01    0.169E-01
RMM:   2    -0.231596358032E+04   -0.19138E-02   -0.20540E-02  5752   0.905E-02    0.972E-02
RMM:   3    -0.231596365603E+04   -0.75706E-04   -0.16889E-03  4710   0.349E-02    0.102E-01
RMM:   4    -0.231596357976E+04    0.76271E-04   -0.17755E-04  3391   0.847E-03    0.531E-02
RMM:   5    -0.231596355951E+04    0.20245E-04   -0.95438E-05  3172   0.716E-03    0.256E-02
RMM:   6    -0.231596355715E+04    0.23602E-05   -0.37681E-05  3026   0.552E-03
 276 F= -.23364746E+04 E0= -.23364746E+04  d E =-.505340E-03  mag=     4.0000
       N       E                     dE             d eps       ncg     rms          rms(c)
DAV:   1    -0.231596346749E+04    0.92027E-04   -0.22469E-02  4416   0.963E-02    0.349E-02
RMM:   2    -0.231596354442E+04   -0.76930E-04   -0.81654E-04  4898   0.183E-02    0.187E-02
RMM:   3    -0.231596354801E+04   -0.35968E-05   -0.66437E-05  2996   0.762E-03
 277 F= -.23364746E+04 E0= -.23364746E+04  d E =-.516490E-03  mag=     4.0000
       N       E                     dE             d eps       ncg     rms          rms(c)
DAV:   1    -0.231596350319E+04    0.41232E-04   -0.62964E-02  4392   0.161E-01    0.548E-02
RMM:   2    -0.231596372748E+04   -0.22429E-03   -0.23568E-03  5548   0.296E-02    0.378E-02
RMM:   3    -0.231596373961E+04   -0.12129E-04   -0.24373E-04  3182   0.120E-02    0.413E-02
RMM:   4    -0.231596372474E+04    0.14872E-04   -0.23342E-05  2908   0.377E-03    0.136E-02
RMM:   5    -0.231596372266E+04    0.20718E-05   -0.78697E-06  2786   0.221E-03
 278 F= -.23364747E+04 E0= -.23364747E+04  d E =-.130845E-03  mag=     4.0000
       N       E                     dE             d eps       ncg     rms          rms(c)
DAV:   1    -0.231596199765E+04    0.17271E-02   -0.56434E-01  4392   0.482E-01    0.168E-01
RMM:   2    -0.231596398236E+04   -0.19847E-02   -0.21122E-02  5687   0.896E-02    0.974E-02
RMM:   3    -0.231596407823E+04   -0.95868E-04   -0.17640E-03  4429   0.315E-02    0.106E-01
RMM:   4    -0.231596399621E+04    0.82021E-04   -0.18275E-04  3353   0.834E-03    0.507E-02
RMM:   5    -0.231596397885E+04    0.17354E-04   -0.84379E-05  3132   0.658E-03    0.238E-02
RMM:   6    -0.231596397856E+04    0.29395E-06   -0.31306E-05  2995   0.520E-03
 279 F= -.23364749E+04 E0= -.23364749E+04  d E =-.256598E-03  mag=     4.0000
       N       E                     dE             d eps       ncg     rms          rms(c)
DAV:   1    -0.231596386884E+04    0.11001E-03   -0.69015E-02  4412   0.161E-01    0.575E-02
RMM:   2    -0.231596411772E+04   -0.24888E-03   -0.26252E-03  5523   0.303E-02    0.337E-02
RMM:   3    -0.231596412903E+04   -0.11305E-04   -0.22164E-04  3167   0.114E-02    0.371E-02
RMM:   4    -0.231596411942E+04    0.96096E-05   -0.21950E-05  2921   0.366E-03
 280 F= -.23364750E+04 E0= -.23364750E+04  d E =-.118167E-03  mag=     4.0000
       N       E                     dE             d eps       ncg     rms          rms(c)
DAV:   1    -0.231596323294E+04    0.89609E-03   -0.30828E-01  4392   0.341E-01    0.120E-01
RMM:   2    -0.231596431917E+04   -0.10862E-02   -0.11471E-02  5696   0.628E-02    0.745E-02
RMM:   3    -0.231596437453E+04   -0.55366E-04   -0.10432E-03  3693   0.232E-02    0.825E-02
RMM:   4    -0.231596432330E+04    0.51239E-04   -0.10500E-04  3182   0.668E-03    0.374E-02
RMM:   5    -0.231596431448E+04    0.88161E-05   -0.49998E-05  3039   0.481E-03
 281 F= -.23364751E+04 E0= -.23364751E+04  d E =-.266038E-03  mag=     4.0000
       N       E                     dE             d eps       ncg     rms          rms(c)
DAV:   1    -0.231596002445E+04    0.42988E-02   -0.12354E+00  4392   0.682E-01    0.238E-01
RMM:   2    -0.231596438902E+04   -0.43646E-02   -0.46219E-02  5775   0.127E-01    0.140E-01
RMM:   3    -0.231596457887E+04   -0.18985E-03   -0.38804E-03  4858   0.446E-02    0.149E-01
RMM:   4    -0.231596442475E+04    0.15412E-03   -0.38765E-04  3685   0.110E-02    0.743E-02
RMM:   5    -0.231596439365E+04    0.31097E-04   -0.17089E-04  3372   0.841E-03    0.359E-02
RMM:   6    -0.231596439275E+04    0.89552E-06   -0.66740E-05  3142   0.644E-03
 282 F= -.23364751E+04 E0= -.23364751E+04  d E =-.253251E-03  mag=     4.0000
       N       E                     dE             d eps       ncg     rms          rms(c)
DAV:   1    -0.231596429456E+04    0.99091E-04   -0.57808E-02  4552   0.143E-01    0.518E-02
RMM:   2    -0.231596450040E+04   -0.20584E-03   -0.21676E-03  5183   0.267E-02    0.298E-02
RMM:   3    -0.231596451081E+04   -0.10414E-04   -0.18879E-04  3100   0.103E-02    0.326E-02
RMM:   4    -0.231596450410E+04    0.67073E-05   -0.18694E-05  2892   0.351E-03
 283 F= -.23364752E+04 E0= -.23364752E+04  d E =-.990396E-04  mag=     4.0000
       N       E                     dE             d eps       ncg     rms          rms(c)
DAV:   1    -0.231596317139E+04    0.13394E-02   -0.46764E-01  4392   0.407E-01    0.142E-01
RMM:   2    -0.231596479040E+04   -0.16190E-02   -0.17050E-02  5834   0.749E-02    0.902E-02
RMM:   3    -0.231596487581E+04   -0.85418E-04   -0.15674E-03  3835   0.272E-02    0.971E-02
RMM:   4    -0.231596480682E+04    0.68993E-04   -0.15254E-04  3300   0.758E-03    0.454E-02
RMM:   5    -0.231596479518E+04    0.11637E-04   -0.68886E-05  3088   0.532E-03    0.198E-02
RMM:   6    -0.231596479685E+04   -0.16678E-05   -0.21288E-05  2934   0.387E-03
 284 F= -.23364755E+04 E0= -.23364755E+04  d E =-.357990E-03  mag=     4.0000
       N       E                     dE             d eps       ncg     rms          rms(c)
DAV:   1    -0.231595861080E+04    0.61844E-02   -0.18754E+00  4392   0.816E-01    0.283E-01
RMM:   2    -0.231596515191E+04   -0.65411E-02   -0.68898E-02  5764   0.151E-01    0.176E-01
RMM:   3    -0.231596548913E+04   -0.33722E-03   -0.60399E-03  4948   0.529E-02    0.188E-01
RMM:   4    -0.231596523087E+04    0.25826E-03   -0.57828E-04  3886   0.131E-02    0.890E-02
RMM:   5    -0.231596518656E+04    0.44308E-04   -0.24453E-04  3525   0.944E-03    0.416E-02
RMM:   6    -0.231596518995E+04   -0.33926E-05   -0.89815E-05  3219   0.705E-03
 285 F= -.23364758E+04 E0= -.23364758E+04  d E =-.688627E-03  mag=     4.0000
       N       E                     dE             d eps       ncg     rms          rms(c)
DAV:   1    -0.231593851189E+04    0.26675E-01   -0.74999E+00  4392   0.163E+00    0.568E-01
RMM:   2    -0.231596490472E+04   -0.26393E-01   -0.27773E-01  5763   0.303E-01    0.351E-01
RMM:   3    -0.231596634591E+04   -0.14412E-02   -0.24844E-02  5224   0.104E-01    0.383E-01
RMM:   4    -0.231596525601E+04    0.10899E-02   -0.23200E-03  5125   0.257E-02    0.179E-01
RMM:   5    -0.231596505120E+04    0.20482E-03   -0.10163E-03  4329   0.183E-02    0.790E-02
RMM:   6    -0.231596507690E+04   -0.25707E-04   -0.31561E-04  3793   0.129E-02    0.270E-02
RMM:   7    -0.231596507043E+04    0.64715E-05   -0.32554E-05  2961   0.587E-03
 286 F= -.23364756E+04 E0= -.23364756E+04  d E =-.465037E-03  mag=     4.0000
       N       E                     dE             d eps       ncg     rms          rms(c)
DAV:   1    -0.231595774504E+04    0.73319E-02   -0.21620E+00  4392   0.878E-01    0.301E-01
RMM:   2    -0.231596532560E+04   -0.75806E-02   -0.79856E-02  5759   0.162E-01    0.188E-01
RMM:   3    -0.231596561350E+04   -0.28791E-03   -0.66803E-03  4946   0.548E-02    0.192E-01
RMM:   4    -0.231596534661E+04    0.26690E-03   -0.62905E-04  3982   0.139E-02    0.969E-02
RMM:   5    -0.231596529243E+04    0.54180E-04   -0.30173E-04  3571   0.102E-02    0.506E-02
RMM:   6    -0.231596528446E+04    0.79684E-05   -0.13888E-04  3366   0.758E-03    0.173E-02
RMM:   7    -0.231596528219E+04    0.22697E-05   -0.11333E-05  2896   0.412E-03
 287 F= -.23364759E+04 E0= -.23364759E+04  d E =-.729256E-03  mag=     4.0000
       N       E                     dE             d eps       ncg     rms          rms(c)
DAV:   1    -0.231596338311E+04    0.19014E-02   -0.74236E-01  4392   0.525E-01    0.181E-01
RMM:   2    -0.231596597938E+04   -0.25963E-02   -0.27446E-02  5718   0.976E-02    0.113E-01
RMM:   3    -0.231596610097E+04   -0.12159E-03   -0.24016E-03  4420   0.341E-02    0.123E-01
RMM:   4    -0.231596598469E+04    0.11628E-03   -0.23256E-04  3456   0.895E-03    0.555E-02
RMM:   5    -0.231596596372E+04    0.20975E-04   -0.10445E-04  3201   0.654E-03    0.255E-02
RMM:   6    -0.231596596472E+04   -0.10021E-05   -0.37370E-05  3019   0.512E-03
 288 F= -.23364765E+04 E0= -.23364765E+04  d E =-.624384E-03  mag=     4.0000
       N       E                     dE             d eps       ncg     rms          rms(c)
DAV:   1    -0.231594284993E+04    0.23114E-01   -0.66871E+00  4392   0.158E+00    0.551E-01
RMM:   2    -0.231596659557E+04   -0.23746E-01   -0.25044E-01  5729   0.296E-01    0.340E-01
RMM:   3    -0.231596791423E+04   -0.13187E-02   -0.22580E-02  5204   0.104E-01    0.381E-01
RMM:   4    -0.231596678989E+04    0.11243E-02   -0.21787E-03  5269   0.258E-02    0.167E-01
RMM:   5    -0.231596660028E+04    0.18961E-03   -0.96081E-04  4402   0.183E-02    0.725E-02
RMM:   6    -0.231596662356E+04   -0.23281E-04   -0.28207E-04  3901   0.128E-02    0.255E-02
RMM:   7    -0.231596661714E+04    0.64230E-05   -0.30013E-05  2944   0.583E-03
 289 F= -.23364770E+04 E0= -.23364770E+04  d E =-.111755E-02  mag=     4.0000
       N       E                     dE             d eps       ncg     rms          rms(c)
DAV:   1    -0.231596570491E+04    0.91866E-03   -0.27516E-01  4448   0.321E-01    0.109E-01
RMM:   2    -0.231596666593E+04   -0.96102E-03   -0.10164E-02  5698   0.591E-02    0.694E-02
RMM:   3    -0.231596670045E+04   -0.34521E-04   -0.84647E-04  3606   0.208E-02    0.732E-02
RMM:   4    -0.231596665826E+04    0.42188E-04   -0.81214E-05  3135   0.622E-03    0.339E-02
RMM:   5    -0.231596665028E+04    0.79837E-05   -0.39971E-05  2991   0.429E-03
 290 F= -.23364770E+04 E0= -.23364770E+04  d E =-.118118E-02  mag=     4.0000
       N       E                     dE             d eps       ncg     rms          rms(c)
DAV:   1    -0.231596091109E+04    0.57472E-02   -0.15489E+00  4392   0.761E-01    0.265E-01
RMM:   2    -0.231596641420E+04   -0.55031E-02   -0.58041E-02  5744   0.141E-01    0.158E-01
RMM:   3    -0.231596663403E+04   -0.21983E-03   -0.48401E-03  4993   0.492E-02    0.167E-01
RMM:   4    -0.231596643442E+04    0.19960E-03   -0.46985E-04  3809   0.122E-02    0.822E-02
RMM:   5    -0.231596639837E+04    0.36051E-04   -0.21797E-04  3461   0.919E-03    0.425E-02
RMM:   6    -0.231596639381E+04    0.45649E-05   -0.99365E-05  3265   0.697E-03
 291 F= -.23364769E+04 E0= -.23364769E+04  d E =-.100083E-02  mag=     4.0000
       N       E                     dE             d eps       ncg     rms          rms(c)
DAV:   1    -0.231596448972E+04    0.19087E-02   -0.61523E-01  4392   0.479E-01    0.164E-01
RMM:   2    -0.231596663305E+04   -0.21433E-02   -0.22684E-02  5929   0.889E-02    0.104E-01
RMM:   3    -0.231596672217E+04   -0.89118E-04   -0.19046E-03  4350   0.317E-02    0.110E-01
RMM:   4    -0.231596662950E+04    0.92667E-04   -0.18440E-04  3373   0.841E-03    0.505E-02
RMM:   5    -0.231596661112E+04    0.18381E-04   -0.91012E-05  3134   0.633E-03    0.234E-02
RMM:   6    -0.231596661188E+04   -0.75376E-06   -0.32407E-05  2994   0.485E-03
 292 F= -.23364770E+04 E0= -.23364770E+04  d E =-.117040E-02  mag=     4.0000
       N       E                     dE             d eps       ncg     rms          rms(c)
DAV:   1    -0.231596634922E+04    0.26191E-03   -0.81799E-02  4432   0.175E-01    0.622E-02
RMM:   2    -0.231596664277E+04   -0.29355E-03   -0.30930E-03  5585   0.326E-02    0.363E-02
RMM:   3    -0.231596665693E+04   -0.14162E-04   -0.26475E-04  3264   0.122E-02    0.406E-02
RMM:   4    -0.231596664513E+04    0.11802E-04   -0.25490E-05  2925   0.380E-03    0.190E-02
RMM:   5    -0.231596664305E+04    0.20728E-05   -0.10900E-05  2789   0.241E-03
 293 F= -.23364770E+04 E0= -.23364770E+04  d E =-.118439E-02  mag=     4.0000
       N       E                     dE             d eps       ncg     rms          rms(c)
DAV:   1    -0.231596607108E+04    0.57405E-03   -0.29770E-01  4392   0.344E-01    0.120E-01
RMM:   2    -0.231596716259E+04   -0.10915E-02   -0.11576E-02  5760   0.647E-02    0.724E-02
RMM:   3    -0.231596720755E+04   -0.44960E-04   -0.93394E-04  3658   0.220E-02    0.796E-02
RMM:   4    -0.231596716051E+04    0.47047E-04   -0.99604E-05  3148   0.680E-03    0.362E-02
RMM:   5    -0.231596715116E+04    0.93437E-05   -0.46920E-05  3012   0.501E-03
 294 F= -.23364775E+04 E0= -.23364775E+04  d E =-.435671E-03  mag=     4.0000
       N       E                     dE             d eps       ncg     rms          rms(c)
DAV:   1    -0.231596412133E+04    0.30392E-02   -0.91941E-01  4392   0.605E-01    0.211E-01
RMM:   2    -0.231596749669E+04   -0.33754E-02   -0.35818E-02  5773   0.114E-01    0.126E-01
RMM:   3    -0.231596763063E+04   -0.13394E-03   -0.29356E-03  4785   0.401E-02    0.138E-01
RMM:   4    -0.231596748848E+04    0.14215E-03   -0.30102E-04  3597   0.102E-02    0.644E-02
RMM:   5    -0.231596745948E+04    0.29006E-04   -0.14423E-04  3406   0.813E-03    0.295E-02
RMM:   6    -0.231596745910E+04    0.37154E-06   -0.49293E-05  3080   0.629E-03
 295 F= -.23364777E+04 E0= -.23364777E+04  d E =-.618470E-03  mag=     4.0000
       N       E                     dE             d eps       ncg     rms          rms(c)
DAV:   1    -0.231596596371E+04    0.14958E-02   -0.53720E-01  4392   0.462E-01    0.158E-01
RMM:   2    -0.231596786851E+04   -0.19048E-02   -0.20165E-02  5777   0.843E-02    0.903E-02
RMM:   3    -0.231596794268E+04   -0.74167E-04   -0.17237E-03  4340   0.307E-02    0.998E-02
RMM:   4    -0.231596787214E+04    0.70536E-04   -0.16961E-04  3310   0.787E-03    0.493E-02
RMM:   5    -0.231596785686E+04    0.15281E-04   -0.76119E-05  3106   0.590E-03    0.218E-02
RMM:   6    -0.231596785814E+04   -0.12736E-05   -0.25732E-05  2965   0.462E-03
 296 F= -.23364780E+04 E0= -.23364780E+04  d E =-.339091E-03  mag=     4.0000
       N       E                     dE             d eps       ncg     rms          rms(c)
DAV:   1    -0.231596293483E+04    0.49220E-02   -0.14689E+00  4392   0.764E-01    0.260E-01
RMM:   2    -0.231596811723E+04   -0.51824E-02   -0.54873E-02  5730   0.139E-01    0.150E-01
RMM:   3    -0.231596833896E+04   -0.22173E-03   -0.47849E-03  4957   0.501E-02    0.166E-01
RMM:   4    -0.231596813939E+04    0.19957E-03   -0.46492E-04  3800   0.122E-02    0.809E-02
RMM:   5    -0.231596809538E+04    0.44011E-04   -0.21075E-04  3604   0.925E-03    0.355E-02
RMM:   6    -0.231596809869E+04   -0.33133E-05   -0.68159E-05  3122   0.704E-03
 297 F= -.23364781E+04 E0= -.23364781E+04  d E =-.484258E-03  mag=     4.0000
       N       E                     dE             d eps       ncg     rms          rms(c)
DAV:   1    -0.231596650614E+04    0.15892E-02   -0.61535E-01  4392   0.498E-01    0.170E-01
RMM:   2    -0.231596864268E+04   -0.21365E-02   -0.22813E-02  5680   0.903E-02    0.888E-02
RMM:   3    -0.231596871350E+04   -0.70820E-04   -0.20035E-03  4601   0.336E-02    0.869E-02
RMM:   4    -0.231596867442E+04    0.39089E-04   -0.18473E-04  3334   0.788E-03    0.594E-02
RMM:   5    -0.231596864778E+04    0.26640E-04   -0.85490E-05  3132   0.654E-03    0.243E-02
RMM:   6    -0.231596864850E+04   -0.72160E-06   -0.29444E-05  2965   0.499E-03
 298 F= -.23364787E+04 E0= -.23364787E+04  d E =-.516250E-03  mag=     4.0000
       N       E                     dE             d eps       ncg     rms          rms(c)
DAV:   1    -0.231596658767E+04    0.20601E-02   -0.63923E-01  4392   0.508E-01    0.173E-01
RMM:   2    -0.231596881010E+04   -0.22224E-02   -0.23742E-02  5690   0.923E-02    0.900E-02
RMM:   3    -0.231596887139E+04   -0.61286E-04   -0.20607E-03  4680   0.350E-02    0.861E-02
RMM:   4    -0.231596883386E+04    0.37530E-04   -0.18851E-04  3360   0.797E-03    0.610E-02
RMM:   5    -0.231596880432E+04    0.29545E-04   -0.90411E-05  3146   0.676E-03    0.252E-02
RMM:   6    -0.231596880438E+04   -0.61962E-07   -0.32249E-05  2977   0.516E-03
 299 F= -.23364788E+04 E0= -.23364788E+04  d E =-.639921E-03  mag=     4.0000
       N       E                     dE             d eps       ncg     rms          rms(c)
DAV:   1    -0.231596819738E+04    0.60694E-03   -0.28869E-01  4432   0.360E-01    0.124E-01
RMM:   2    -0.231596924044E+04   -0.10431E-02   -0.11266E-02  5678   0.660E-02    0.591E-02
RMM:   3    -0.231596927716E+04   -0.36719E-04   -0.99182E-04  4166   0.258E-02    0.460E-02
RMM:   4    -0.231596927886E+04   -0.16992E-05   -0.94844E-05  3169   0.619E-03
 300 F= -.23364792E+04 E0= -.23364792E+04  d E =-.422135E-03  mag=     4.0000
       N       E                     dE             d eps       ncg     rms          rms(c)
DAV:   1    -0.231596872631E+04    0.55085E-03   -0.17845E-01  4428   0.283E-01    0.101E-01
RMM:   2    -0.231596936573E+04   -0.63942E-03   -0.68659E-03  5775   0.513E-02    0.595E-02
RMM:   3    -0.231596941488E+04   -0.49144E-04   -0.73965E-04  3761   0.210E-02    0.698E-02
RMM:   4    -0.231596937846E+04    0.36415E-04   -0.73630E-05  3079   0.613E-03    0.324E-02
RMM:   5    -0.231596937049E+04    0.79683E-05   -0.39088E-05  2979   0.469E-03
 301 F= -.23364793E+04 E0= -.23364793E+04  d E =-.472985E-03  mag=     4.0000
