       N       E                     dE             d eps       ncg     rms          rms(c)
DAV:   1     0.130230429997E+05    0.13023E+05   -0.84449E+05  4520   0.144E+03
DAV:   2    -0.105856734274E+04   -0.14082E+05   -0.13471E+05  5120   0.331E+02
DAV:   3    -0.248973716119E+04   -0.14312E+04   -0.14158E+04  5456   0.112E+02
DAV:   4    -0.253533687924E+04   -0.45600E+02   -0.45356E+02  6808   0.299E+01
DAV:   5    -0.253613999107E+04   -0.80311E+00   -0.80192E+00  6112   0.342E+00    0.171E+02
RMM:   6    -0.149714316826E+04    0.10390E+04   -0.19546E+03  4460   0.387E+01    0.756E+01
RMM:   7    -0.170000839235E+04   -0.20287E+03   -0.35241E+02  5150   0.148E+01    0.636E+01
RMM:   8    -0.171616844694E+04   -0.16160E+02   -0.10201E+02  5244   0.955E+00    0.496E+01
RMM:   9    -0.174763165365E+04   -0.31463E+02   -0.60265E+01  5212   0.627E+00    0.339E+01
RMM:  10    -0.188462248350E+04   -0.13699E+03   -0.65254E+01  4918   0.797E+00    0.303E+01
RMM:  11    -0.197054937234E+04   -0.85927E+02   -0.34518E+01  5078   0.569E+00    0.260E+01
RMM:  12    -0.204561505154E+04   -0.75066E+02   -0.29798E+01  5184   0.462E+00    0.186E+01
RMM:  13    -0.211622285523E+04   -0.70608E+02   -0.28101E+01  4972   0.423E+00    0.138E+01
RMM:  14    -0.222022982361E+04   -0.10401E+03   -0.73531E+01  4667   0.634E+00    0.973E+00
RMM:  15    -0.229170655156E+04   -0.71477E+02   -0.62050E+01  4625   0.556E+00    0.638E+00
RMM:  16    -0.231633710243E+04   -0.24631E+02   -0.24038E+01  4780   0.372E+00    0.386E+00
RMM:  17    -0.232266695283E+04   -0.63299E+01   -0.69397E+00  5081   0.196E+00    0.294E+00
RMM:  18    -0.232453576340E+04   -0.18688E+01   -0.13679E+00  5223   0.880E-01    0.129E+00
RMM:  19    -0.232579563777E+04   -0.12599E+01   -0.45494E-01  4901   0.493E-01    0.870E-01
RMM:  20    -0.232596496854E+04   -0.16933E+00   -0.77309E-02  5161   0.274E-01    0.446E-01
RMM:  21    -0.232604879776E+04   -0.83829E-01   -0.33164E-02  4592   0.142E-01    0.312E-01
RMM:  22    -0.232607857557E+04   -0.29778E-01   -0.14021E-02  4604   0.113E-01    0.159E-01
RMM:  23    -0.232609204456E+04   -0.13469E-01   -0.53432E-03  4668   0.634E-02    0.108E-01
RMM:  24    -0.232610331633E+04   -0.11272E-01   -0.35079E-03  4510   0.492E-02    0.900E-02
RMM:  25    -0.232611250103E+04   -0.91847E-02   -0.28566E-03  4491   0.445E-02    0.746E-02
RMM:  26    -0.232611657119E+04   -0.40702E-02   -0.14527E-03  4697   0.325E-02    0.354E-02
RMM:  27    -0.232611855283E+04   -0.19816E-02   -0.65336E-04  4310   0.205E-02    0.246E-02
RMM:  28    -0.232611970431E+04   -0.11515E-02   -0.31240E-04  4011   0.152E-02    0.138E-02
RMM:  29    -0.232612013128E+04   -0.42697E-03   -0.12631E-04  3752   0.106E-02    0.924E-03
RMM:  30    -0.232612031228E+04   -0.18099E-03   -0.52386E-05  3541   0.745E-03    0.494E-03
RMM:  31    -0.232612041172E+04   -0.99444E-04   -0.23909E-05  3176   0.517E-03    0.369E-03
RMM:  32    -0.232612046704E+04   -0.55321E-04   -0.15536E-05  3001   0.409E-03    0.223E-03
RMM:  33    -0.232612048491E+04   -0.17870E-04   -0.83072E-06  2825   0.330E-03    0.178E-03
RMM:  34    -0.232612048798E+04   -0.30648E-05   -0.40266E-06  2462   0.241E-03
   1 F= -.23471015E+04 E0= -.23470967E+04  d E =-.234710E+04  mag=     4.8575
       N       E                     dE             d eps       ncg     rms          rms(c)
DAV:   1    -0.232581550103E+04    0.30498E+00   -0.23395E+01  4968   0.436E+00    0.206E+00
RMM:   2    -0.232664430833E+04   -0.82881E+00   -0.59758E+00  6227   0.147E+00    0.750E+00
RMM:   3    -0.232628931626E+04    0.35499E+00   -0.43190E-01  5821   0.415E-01    0.114E+00
RMM:   4    -0.232628646504E+04    0.28512E-02   -0.60170E-02  5368   0.117E-01    0.790E-01
RMM:   5    -0.232627996147E+04    0.65036E-02   -0.11843E-02  5949   0.709E-02    0.692E-01
RMM:   6    -0.232627721622E+04    0.27453E-02   -0.80388E-03  5955   0.517E-02    0.389E-01
RMM:   7    -0.232627651206E+04    0.70416E-03   -0.26824E-03  5493   0.313E-02    0.214E-01
RMM:   8    -0.232627630066E+04    0.21140E-03   -0.11670E-03  5211   0.200E-02    0.133E-01
RMM:   9    -0.232627617342E+04    0.12724E-03   -0.31467E-04  4618   0.120E-02    0.100E-01
RMM:  10    -0.232627609652E+04    0.76905E-04   -0.14154E-04  4263   0.896E-03    0.536E-02
RMM:  11    -0.232627608499E+04    0.11530E-04   -0.95392E-05  4036   0.812E-03    0.276E-02
RMM:  12    -0.232627609014E+04   -0.51497E-05   -0.25749E-05  3083   0.556E-03
   2 F= -.23472575E+04 E0= -.23472565E+04  d E =-.156054E+00  mag=     4.9669
       N       E                     dE             d eps       ncg     rms          rms(c)
DAV:   1    -0.232627316404E+04    0.29209E-02   -0.32483E-01  5140   0.518E-01    0.225E-01
RMM:   2    -0.232628110614E+04   -0.79421E-02   -0.67644E-02  6167   0.152E-01    0.447E-01
RMM:   3    -0.232627944642E+04    0.16597E-02   -0.73214E-03  5261   0.692E-02    0.145E-01
RMM:   4    -0.232627932912E+04    0.11729E-03   -0.10043E-03  4198   0.145E-02    0.962E-02
RMM:   5    -0.232627924766E+04    0.81469E-04   -0.18972E-04  3529   0.843E-03    0.664E-02
RMM:   6    -0.232627921015E+04    0.37505E-04   -0.13002E-04  3818   0.790E-03    0.427E-02
RMM:   7    -0.232627918591E+04    0.24242E-04   -0.83704E-05  3376   0.669E-03    0.101E-02
RMM:   8    -0.232627918478E+04    0.11289E-05   -0.11399E-05  2904   0.440E-03
   3 F= -.23472606E+04 E0= -.23472593E+04  d E =-.159079E+00  mag=     4.9706
       N       E                     dE             d eps       ncg     rms          rms(c)
DAV:   1    -0.232621218626E+04    0.67000E-01   -0.78516E+00  4656   0.273E+00    0.104E+00
RMM:   2    -0.232635203893E+04   -0.13985E+00   -0.14261E+00  6280   0.682E-01    0.104E+00
RMM:   3    -0.232635410798E+04   -0.20691E-02   -0.14652E-01  6120   0.237E-01    0.616E-01
RMM:   4    -0.232635121573E+04    0.28922E-02   -0.15300E-02  5880   0.530E-02    0.311E-01
RMM:   5    -0.232635073229E+04    0.48345E-03   -0.24487E-03  5287   0.281E-02    0.279E-01
RMM:   6    -0.232634964608E+04    0.10862E-02   -0.16387E-03  5179   0.258E-02    0.113E-01
RMM:   7    -0.232634953693E+04    0.10915E-03   -0.69266E-04  4861   0.201E-02    0.365E-02
RMM:   8    -0.232634951981E+04    0.17113E-04   -0.86251E-05  3493   0.786E-03    0.236E-02
RMM:   9    -0.232634950878E+04    0.11033E-04   -0.24435E-05  2988   0.497E-03    0.125E-02
RMM:  10    -0.232634950427E+04    0.45149E-05   -0.12365E-05  2904   0.333E-03
   4 F= -.23473300E+04 E0= -.23473298E+04  d E =-.693981E-01  mag=     4.9919
       N       E                     dE             d eps       ncg     rms          rms(c)
DAV:   1    -0.232612075861E+04    0.22875E+00   -0.15077E+01  4576   0.378E+00    0.143E+00
RMM:   2    -0.232639340817E+04   -0.27265E+00   -0.27682E+00  6291   0.958E-01    0.153E+00
RMM:   3    -0.232639415826E+04   -0.75009E-03   -0.27437E-01  6077   0.329E-01    0.884E-01
RMM:   4    -0.232638777732E+04    0.63809E-02   -0.29648E-02  6002   0.751E-02    0.416E-01
RMM:   5    -0.232638679064E+04    0.98669E-03   -0.43373E-03  5497   0.387E-02    0.369E-01
RMM:   6    -0.232638491461E+04    0.18760E-02   -0.31240E-03  5261   0.355E-02    0.157E-01
RMM:   7    -0.232638469520E+04    0.21940E-03   -0.13973E-03  5140   0.276E-02    0.523E-02
RMM:   8    -0.232638465822E+04    0.36981E-04   -0.17492E-04  4013   0.108E-02    0.331E-02
RMM:   9    -0.232638463492E+04    0.23304E-04   -0.49640E-05  3161   0.621E-03    0.164E-02
RMM:  10    -0.232638462556E+04    0.93631E-05   -0.17460E-05  2930   0.402E-03
   5 F= -.23473639E+04 E0= -.23473639E+04  d E =-.103320E+00  mag=     4.9983
       N       E                     dE             d eps       ncg     rms          rms(c)
DAV:   1    -0.232634041678E+04    0.44218E-01   -0.46442E+00  4576   0.201E+00    0.774E-01
RMM:   2    -0.232643796652E+04   -0.97550E-01   -0.92120E-01  6385   0.517E-01    0.121E+00
RMM:   3    -0.232642965134E+04    0.83152E-02   -0.92163E-02  6001   0.191E-01    0.404E-01
RMM:   4    -0.232642865714E+04    0.99420E-03   -0.99025E-03  5780   0.408E-02    0.221E-01
RMM:   5    -0.232642833396E+04    0.32318E-03   -0.13079E-03  5266   0.212E-02    0.213E-01
RMM:   6    -0.232642787074E+04    0.46322E-03   -0.95971E-04  5202   0.193E-02    0.125E-01
RMM:   7    -0.232642771354E+04    0.15720E-03   -0.70072E-04  5057   0.166E-02    0.460E-02
RMM:   8    -0.232642768270E+04    0.30841E-04   -0.81771E-05  3134   0.734E-03    0.201E-02
RMM:   9    -0.232642767508E+04    0.76208E-05   -0.20627E-05  2926   0.453E-03
   6 F= -.23474059E+04 E0= -.23474059E+04  d E =-.420444E-01  mag=     4.9996
       N       E                     dE             d eps       ncg     rms          rms(c)
DAV:   1    -0.232634313442E+04    0.84548E-01   -0.53939E+00  4544   0.216E+00    0.833E-01
RMM:   2    -0.232645684199E+04   -0.11371E+00   -0.10781E+00  6403   0.559E-01    0.129E+00
RMM:   3    -0.232644728351E+04    0.95585E-02   -0.10655E-01  6042   0.204E-01    0.431E-01
RMM:   4    -0.232644614435E+04    0.11392E-02   -0.11457E-02  5782   0.435E-02    0.232E-01
RMM:   5    -0.232644577820E+04    0.36615E-03   -0.15070E-03  5335   0.228E-02    0.227E-01
RMM:   6    -0.232644524757E+04    0.53062E-03   -0.11141E-03  5250   0.208E-02    0.137E-01
RMM:   7    -0.232644505189E+04    0.19568E-03   -0.79850E-04  5113   0.176E-02    0.500E-02
RMM:   8    -0.232644501434E+04    0.37556E-04   -0.98361E-05  3217   0.795E-03    0.223E-02
RMM:   9    -0.232644500505E+04    0.92853E-05   -0.25519E-05  2957   0.487E-03
   7 F= -.23474222E+04 E0= -.23474222E+04  d E =-.583625E-01  mag=     4.9999
       N       E                     dE             d eps       ncg     rms          rms(c)
DAV:   1    -0.232643949474E+04    0.55196E-02   -0.93926E-01  4672   0.957E-01    0.347E-01
RMM:   2    -0.232645926142E+04   -0.19767E-01   -0.21218E-01  6244   0.254E-01    0.196E-01
RMM:   3    -0.232646086314E+04   -0.16017E-02   -0.21231E-02  5797   0.946E-02    0.186E-01
RMM:   4    -0.232646068414E+04    0.17899E-03   -0.21550E-03  4862   0.194E-02    0.108E-01
RMM:   5    -0.232646054807E+04    0.13607E-03   -0.25479E-04  3773   0.108E-02    0.631E-02
RMM:   6    -0.232646052830E+04    0.19770E-04   -0.22658E-04  4229   0.100E-02    0.626E-02
RMM:   7    -0.232646048940E+04    0.38901E-04   -0.76247E-05  3172   0.730E-03    0.268E-02
RMM:   8    -0.232646048409E+04    0.53119E-05   -0.16750E-05  2932   0.439E-03
   8 F= -.23474382E+04 E0= -.23474382E+04  d E =-.159821E-01  mag=     5.0000
       N       E                     dE             d eps       ncg     rms          rms(c)
DAV:   1    -0.232628278549E+04    0.17770E+00   -0.84293E+00  4544   0.287E+00    0.105E+00
RMM:   2    -0.232646472434E+04   -0.18194E+00   -0.19527E+00  6250   0.789E-01    0.607E-01
RMM:   3    -0.232647763154E+04   -0.12907E-01   -0.18533E-01  6010   0.262E-01    0.578E-01
RMM:   4    -0.232647566114E+04    0.19704E-02   -0.19015E-02  6214   0.572E-02    0.326E-01
RMM:   5    -0.232647450975E+04    0.11514E-02   -0.23692E-03  5333   0.289E-02    0.211E-01
RMM:   6    -0.232647417953E+04    0.33022E-03   -0.20147E-03  5590   0.265E-02    0.187E-01
RMM:   7    -0.232647383223E+04    0.34730E-03   -0.72945E-04  5241   0.182E-02    0.782E-02
RMM:   8    -0.232647378276E+04    0.49464E-04   -0.14386E-04  3621   0.860E-03    0.281E-02
RMM:   9    -0.232647377442E+04    0.83452E-05   -0.34225E-05  2964   0.593E-03
   9 F= -.23474531E+04 E0= -.23474531E+04  d E =-.308237E-01  mag=     5.0000
       N       E                     dE             d eps       ncg     rms          rms(c)
DAV:   1    -0.232646731468E+04    0.64681E-02   -0.35492E-01  4752   0.588E-01    0.210E-01
RMM:   2    -0.232647460237E+04   -0.72877E-02   -0.78329E-02  6225   0.154E-01    0.107E-01
RMM:   3    -0.232647522611E+04   -0.62374E-03   -0.80291E-03  5318   0.622E-02    0.902E-02
RMM:   4    -0.232647521299E+04    0.13117E-04   -0.80891E-04  3667   0.119E-02    0.694E-02
RMM:   5    -0.232647515286E+04    0.60134E-04   -0.94594E-05  3193   0.745E-03    0.329E-02
RMM:   6    -0.232647514643E+04    0.64238E-05   -0.75686E-05  3471   0.668E-03
  10 F= -.23474541E+04 E0= -.23474541E+04  d E =-.318725E-01  mag=     5.0000
       N       E                     dE             d eps       ncg     rms          rms(c)
DAV:   1    -0.232646809822E+04    0.70546E-02   -0.10889E+00  4560   0.965E-01    0.326E-01
RMM:   2    -0.232648717369E+04   -0.19075E-01   -0.19431E-01  6391   0.240E-01    0.354E-01
RMM:   3    -0.232648746136E+04   -0.28767E-03   -0.19600E-02  5866   0.877E-02    0.228E-01
RMM:   4    -0.232648699855E+04    0.46281E-03   -0.20695E-03  4858   0.199E-02    0.931E-02
RMM:   5    -0.232648689216E+04    0.10639E-03   -0.24427E-04  4166   0.100E-02    0.764E-02
RMM:   6    -0.232648682253E+04    0.69626E-04   -0.22964E-04  4173   0.104E-02    0.564E-02
RMM:   7    -0.232648679143E+04    0.31099E-04   -0.11210E-04  3541   0.769E-03    0.253E-02
RMM:   8    -0.232648678361E+04    0.78229E-05   -0.18216E-05  2910   0.498E-03
  11 F= -.23474662E+04 E0= -.23474662E+04  d E =-.120431E-01  mag=     5.0000
       N       E                     dE             d eps       ncg     rms          rms(c)
DAV:   1    -0.232640383620E+04    0.82955E-01   -0.53504E+00  4512   0.215E+00    0.728E-01
RMM:   2    -0.232649924889E+04   -0.95413E-01   -0.97411E-01  6236   0.539E-01    0.785E-01
RMM:   3    -0.232649996861E+04   -0.71972E-03   -0.93981E-02  5974   0.193E-01    0.507E-01
RMM:   4    -0.232649768895E+04    0.22797E-02   -0.10273E-02  5905   0.444E-02    0.212E-01
RMM:   5    -0.232649723829E+04    0.45066E-03   -0.12838E-03  5277   0.207E-02    0.191E-01
RMM:   6    -0.232649678619E+04    0.45210E-03   -0.10220E-03  5167   0.198E-02    0.117E-01
RMM:   7    -0.232649664924E+04    0.13695E-03   -0.62565E-04  5009   0.150E-02    0.531E-02
RMM:   8    -0.232649661260E+04    0.36636E-04   -0.83589E-05  3183   0.798E-03    0.196E-02
RMM:   9    -0.232649660584E+04    0.67653E-05   -0.22102E-05  2992   0.463E-03
  12 F= -.23474769E+04 E0= -.23474769E+04  d E =-.227796E-01  mag=     4.9999
       N       E                     dE             d eps       ncg     rms          rms(c)
DAV:   1    -0.232648264032E+04    0.13972E-01   -0.19784E+00  4496   0.128E+00    0.382E-01
RMM:   2    -0.232650967471E+04   -0.27034E-01   -0.28233E-01  6282   0.293E-01    0.341E-01
RMM:   3    -0.232651099631E+04   -0.13216E-02   -0.27031E-02  5945   0.101E-01    0.259E-01
RMM:   4    -0.232651040711E+04    0.58920E-03   -0.28637E-03  5255   0.226E-02    0.123E-01
RMM:   5    -0.232651028764E+04    0.11947E-03   -0.37032E-04  4188   0.120E-02    0.110E-01
RMM:   6    -0.232651014048E+04    0.14716E-03   -0.32972E-04  4394   0.121E-02    0.576E-02
RMM:   7    -0.232651011427E+04    0.26213E-04   -0.17281E-04  3872   0.890E-03    0.256E-02
RMM:   8    -0.232651010639E+04    0.78817E-05   -0.23924E-05  2950   0.566E-03
  13 F= -.23474902E+04 E0= -.23474902E+04  d E =-.133313E-01  mag=     5.0000
       N       E                     dE             d eps       ncg     rms          rms(c)
DAV:   1    -0.232633793270E+04    0.17218E+00   -0.13293E+01  4464   0.334E+00    0.100E+00
RMM:   2    -0.232652264338E+04   -0.18471E+00   -0.19250E+00  6287   0.756E-01    0.941E-01
RMM:   3    -0.232653012475E+04   -0.74814E-02   -0.18375E-01  6081   0.251E-01    0.670E-01
RMM:   4    -0.232652639250E+04    0.37323E-02   -0.19857E-02  6022   0.575E-02    0.327E-01
RMM:   5    -0.232652563655E+04    0.75594E-03   -0.25948E-03  5398   0.289E-02    0.301E-01
RMM:   6    -0.232652450471E+04    0.11318E-02   -0.22837E-03  5294   0.289E-02    0.147E-01
RMM:   7    -0.232652431821E+04    0.18650E-03   -0.12123E-03  4973   0.208E-02    0.648E-02
RMM:   8    -0.232652426280E+04    0.55408E-04   -0.15938E-04  3520   0.109E-02    0.308E-02
RMM:   9    -0.232652424810E+04    0.14705E-04   -0.44151E-05  3048   0.522E-03    0.187E-02
RMM:  10    -0.232652424426E+04    0.38405E-05   -0.15994E-05  2900   0.413E-03
  14 F= -.23475039E+04 E0= -.23475039E+04  d E =-.270354E-01  mag=     5.0000
       N       E                     dE             d eps       ncg     rms          rms(c)
DAV:   1    -0.232648679435E+04    0.37454E-01   -0.27160E+00  4512   0.152E+00    0.478E-01
RMM:   2    -0.232653475883E+04   -0.47964E-01   -0.51192E-01  6283   0.376E-01    0.342E-01
RMM:   3    -0.232653777599E+04   -0.30172E-02   -0.47867E-02  5922   0.130E-01    0.251E-01
RMM:   4    -0.232653752336E+04    0.25263E-03   -0.51247E-03  5254   0.269E-02    0.161E-01
RMM:   5    -0.232653732145E+04    0.20191E-03   -0.47016E-04  4104   0.120E-02    0.148E-01
RMM:   6    -0.232653704643E+04    0.27501E-03   -0.58762E-04  4756   0.137E-02    0.667E-02
RMM:   7    -0.232653700427E+04    0.42162E-04   -0.23939E-04  4183   0.974E-03    0.295E-02
RMM:   8    -0.232653699695E+04    0.73166E-05   -0.34902E-05  2963   0.598E-03
  15 F= -.23475169E+04 E0= -.23475169E+04  d E =-.129625E-01  mag=     5.0000
       N       E                     dE             d eps       ncg     rms          rms(c)
DAV:   1    -0.232608536329E+04    0.45164E+00   -0.24369E+01  4496   0.459E+00    0.146E+00
RMM:   2    -0.232652980165E+04   -0.44444E+00   -0.47452E+00  6326   0.118E+00    0.111E+00
RMM:   3    -0.232655390504E+04   -0.24103E-01   -0.45534E-01  6093   0.385E-01    0.808E-01
RMM:   4    -0.232655091763E+04    0.29874E-02   -0.47732E-02  6208   0.816E-02    0.495E-01
RMM:   5    -0.232654908206E+04    0.18356E-02   -0.44122E-03  5535   0.336E-02    0.455E-01
RMM:   6    -0.232654649915E+04    0.25829E-02   -0.53430E-03  5524   0.387E-02    0.212E-01
RMM:   7    -0.232654597997E+04    0.51918E-03   -0.24687E-03  5159   0.270E-02    0.835E-02
RMM:   8    -0.232654592333E+04    0.56638E-04   -0.35755E-04  4506   0.165E-02    0.443E-02
RMM:   9    -0.232654589823E+04    0.25094E-04   -0.10033E-04  3304   0.700E-03    0.183E-02
RMM:  10    -0.232654589657E+04    0.16581E-05   -0.26281E-05  2992   0.453E-03
  16 F= -.23475264E+04 E0= -.23475264E+04  d E =-.224917E-01  mag=     5.0000
       N       E                     dE             d eps       ncg     rms          rms(c)
DAV:   1    -0.232651175631E+04    0.34142E-01   -0.19675E+00  4528   0.131E+00    0.402E-01
RMM:   2    -0.232654578619E+04   -0.34030E-01   -0.36439E-01  6231   0.319E-01    0.260E-01
RMM:   3    -0.232654829032E+04   -0.25041E-02   -0.35104E-02  5784   0.122E-01    0.183E-01
RMM:   4    -0.232654822207E+04    0.68255E-04   -0.36549E-03  4812   0.227E-02    0.124E-01
RMM:   5    -0.232654804949E+04    0.17258E-03   -0.37851E-04  4213   0.117E-02    0.101E-01
RMM:   6    -0.232654796699E+04    0.82497E-04   -0.36935E-04  4366   0.113E-02    0.793E-02
RMM:   7    -0.232654791199E+04    0.55000E-04   -0.14075E-04  3758   0.795E-03    0.336E-02
RMM:   8    -0.232654790131E+04    0.10684E-04   -0.22020E-05  2936   0.526E-03    0.114E-02
RMM:   9    -0.232654789963E+04    0.16751E-05   -0.74556E-06  2886   0.275E-03
  17 F= -.23475282E+04 E0= -.23475282E+04  d E =-.243166E-01  mag=     5.0000
       N       E                     dE             d eps       ncg     rms          rms(c)
DAV:   1    -0.232646784348E+04    0.80058E-01   -0.46566E+00  4504   0.199E+00    0.649E-01
RMM:   2    -0.232655822391E+04   -0.90380E-01   -0.96983E-01  6241   0.502E-01    0.439E-01
RMM:   3    -0.232656401182E+04   -0.57879E-02   -0.90754E-02  5924   0.176E-01    0.326E-01
RMM:   4    -0.232656357129E+04    0.44053E-03   -0.95791E-03  5789   0.342E-02    0.219E-01
RMM:   5    -0.232656309015E+04    0.48114E-03   -0.10223E-03  4924   0.178E-02    0.159E-01
RMM:   6    -0.232656282352E+04    0.26663E-03   -0.97136E-04  5202   0.179E-02    0.124E-01
RMM:   7    -0.232656266463E+04    0.15890E-03   -0.42677E-04  4694   0.130E-02    0.452E-02
RMM:   8    -0.232656264364E+04    0.20985E-04   -0.57993E-05  3025   0.647E-03    0.197E-02
RMM:   9    -0.232656263903E+04    0.46058E-05   -0.21760E-05  3022   0.417E-03
  18 F= -.23475433E+04 E0= -.23475433E+04  d E =-.150255E-01  mag=     5.0000
       N       E                     dE             d eps       ncg     rms          rms(c)
DAV:   1    -0.232645029286E+04    0.11235E+00   -0.57180E+00  4496   0.220E+00    0.721E-01
RMM:   2    -0.232656121152E+04   -0.11092E+00   -0.11912E+00  6256   0.555E-01    0.488E-01
RMM:   3    -0.232656858351E+04   -0.73720E-02   -0.11372E-01  5935   0.196E-01    0.364E-01
RMM:   4    -0.232656805668E+04    0.52683E-03   -0.11889E-02  5850   0.381E-02    0.245E-01
RMM:   5    -0.232656746784E+04    0.58884E-03   -0.12459E-03  5040   0.194E-02    0.177E-01
RMM:   6    -0.232656711284E+04    0.35500E-03   -0.12078E-03  5275   0.198E-02    0.134E-01
RMM:   7    -0.232656693009E+04    0.18276E-03   -0.52513E-04  4885   0.142E-02    0.533E-02
RMM:   8    -0.232656690212E+04    0.27968E-04   -0.74271E-05  3080   0.694E-03    0.225E-02
RMM:   9    -0.232656689705E+04    0.50707E-05   -0.27951E-05  3039   0.459E-03
  19 F= -.23475478E+04 E0= -.23475478E+04  d E =-.195724E-01  mag=     5.0000
       N       E                     dE             d eps       ncg     rms          rms(c)
DAV:   1    -0.232647583491E+04    0.91067E-01   -0.46709E+00  4472   0.201E+00    0.661E-01
RMM:   2    -0.232657027468E+04   -0.94440E-01   -0.10153E+00  6220   0.502E-01    0.417E-01
RMM:   3    -0.232657739319E+04   -0.71185E-02   -0.98961E-02  5848   0.188E-01    0.347E-01
RMM:   4    -0.232657683627E+04    0.55692E-03   -0.98386E-03  5786   0.352E-02    0.226E-01
RMM:   5    -0.232657625521E+04    0.58106E-03   -0.92897E-04  4869   0.171E-02    0.145E-01
RMM:   6    -0.232657596160E+04    0.29361E-03   -0.12032E-03  5313   0.194E-02    0.101E-01
RMM:   7    -0.232657587125E+04    0.90348E-04   -0.32978E-04  4491   0.127E-02    0.566E-02
RMM:   8    -0.232657584223E+04    0.29017E-04   -0.68331E-05  3091   0.606E-03    0.212E-02
RMM:   9    -0.232657583737E+04    0.48597E-05   -0.20278E-05  2996   0.442E-03
  20 F= -.23475574E+04 E0= -.23475574E+04  d E =-.959997E-02  mag=     5.0000
       N       E                     dE             d eps       ncg     rms          rms(c)
DAV:   1    -0.232656401959E+04    0.11823E-01   -0.57651E-01  4592   0.705E-01    0.232E-01
RMM:   2    -0.232657561342E+04   -0.11594E-01   -0.12482E-01  6206   0.175E-01    0.143E-01
RMM:   3    -0.232657648429E+04   -0.87087E-03   -0.11802E-02  5554   0.671E-02    0.121E-01
RMM:   4    -0.232657641196E+04    0.72334E-04   -0.12047E-03  3690   0.126E-02    0.774E-02
RMM:   5    -0.232657633650E+04    0.75463E-04   -0.11777E-04  3260   0.736E-03    0.482E-02
RMM:   6    -0.232657630178E+04    0.34713E-04   -0.16009E-04  4028   0.801E-03    0.291E-02
RMM:   7    -0.232657629497E+04    0.68144E-05   -0.34456E-05  3039   0.555E-03
  21 F= -.23475581E+04 E0= -.23475581E+04  d E =-.102851E-01  mag=     5.0000
       N       E                     dE             d eps       ncg     rms          rms(c)
DAV:   1    -0.232654327557E+04    0.33026E-01   -0.19607E+00  4480   0.138E+00    0.443E-01
RMM:   2    -0.232658102052E+04   -0.37745E-01   -0.40937E-01  6100   0.343E-01    0.222E-01
RMM:   3    -0.232658346838E+04   -0.24479E-02   -0.36680E-02  5775   0.124E-01    0.152E-01
RMM:   4    -0.232658363219E+04   -0.16381E-03   -0.37077E-03  5267   0.238E-02    0.163E-01
RMM:   5    -0.232658333431E+04    0.29787E-03   -0.44192E-04  4418   0.137E-02    0.931E-02
RMM:   6    -0.232658322784E+04    0.10647E-03   -0.34999E-04  4744   0.122E-02    0.412E-02
RMM:   7    -0.232658321719E+04    0.10651E-04   -0.74442E-05  3159   0.856E-03    0.283E-02
RMM:   8    -0.232658321250E+04    0.46873E-05   -0.24505E-05  2971   0.414E-03
  22 F= -.23475656E+04 E0= -.23475656E+04  d E =-.754537E-02  mag=     5.0000
       N       E                     dE             d eps       ncg     rms          rms(c)
DAV:   1    -0.232656384653E+04    0.19371E-01   -0.98157E-01  4496   0.982E-01    0.314E-01
RMM:   2    -0.232658263795E+04   -0.18791E-01   -0.20389E-01  6065   0.243E-01    0.156E-01
RMM:   3    -0.232658391042E+04   -0.12725E-02   -0.18866E-02  5688   0.877E-02    0.100E-01
RMM:   4    -0.232658394744E+04   -0.37028E-04   -0.18394E-03  4671   0.170E-02    0.958E-02
RMM:   5    -0.232658387202E+04    0.75422E-04   -0.20763E-04  3573   0.101E-02    0.778E-02
RMM:   6    -0.232658380382E+04    0.68204E-04   -0.17526E-04  4293   0.910E-03    0.259E-02
RMM:   7    -0.232658379889E+04    0.49312E-05   -0.39441E-05  3147   0.615E-03
  23 F= -.23475667E+04 E0= -.23475667E+04  d E =-.858325E-02  mag=     5.0000
       N       E                     dE             d eps       ncg     rms          rms(c)
DAV:   1    -0.232655045311E+04    0.33351E-01   -0.24086E+00  4464   0.149E+00    0.437E-01
RMM:   2    -0.232658737771E+04   -0.36925E-01   -0.39247E-01  6065   0.337E-01    0.305E-01
RMM:   3    -0.232659018369E+04   -0.28060E-02   -0.37824E-02  5757   0.123E-01    0.299E-01
RMM:   4    -0.232658941639E+04    0.76730E-03   -0.38747E-03  5391   0.260E-02    0.138E-01
RMM:   5    -0.232658917975E+04    0.23664E-03   -0.42367E-04  4350   0.131E-02    0.919E-02
RMM:   6    -0.232658910419E+04    0.75568E-04   -0.44317E-04  4824   0.129E-02    0.804E-02
RMM:   7    -0.232658905076E+04    0.53425E-04   -0.14485E-04  3641   0.964E-03    0.260E-02
RMM:   8    -0.232658904385E+04    0.69116E-05   -0.27557E-05  2970   0.504E-03
  24 F= -.23475723E+04 E0= -.23475723E+04  d E =-.564214E-02  mag=     5.0000
       N       E                     dE             d eps       ncg     rms          rms(c)
DAV:   1    -0.232646597309E+04    0.12308E+00   -0.75170E+00  4464   0.263E+00    0.773E-01
RMM:   2    -0.232658272283E+04   -0.11675E+00   -0.12385E+00  6096   0.595E-01    0.560E-01
RMM:   3    -0.232659069938E+04   -0.79765E-02   -0.11270E-01  5863   0.200E-01    0.547E-01
RMM:   4    -0.232658811440E+04    0.25850E-02   -0.11990E-02  6020   0.455E-02    0.245E-01
RMM:   5    -0.232658731522E+04    0.79918E-03   -0.13421E-03  5104   0.219E-02    0.151E-01
RMM:   6    -0.232658700087E+04    0.31434E-03   -0.15142E-03  5212   0.230E-02    0.887E-02
RMM:   7    -0.232658695129E+04    0.49581E-04   -0.27392E-04  4359   0.142E-02    0.548E-02
RMM:   8    -0.232658692365E+04    0.27646E-04   -0.76049E-05  3138   0.606E-03    0.272E-02
RMM:   9    -0.232658691491E+04    0.87371E-05   -0.24387E-05  3039   0.417E-03
  25 F= -.23475709E+04 E0= -.23475709E+04  d E =-.422354E-02  mag=     5.0000
       N       E                     dE             d eps       ncg     rms          rms(c)
DAV:   1    -0.232654925246E+04    0.37671E-01   -0.25456E+00  4464   0.153E+00    0.444E-01
RMM:   2    -0.232658798842E+04   -0.38736E-01   -0.41219E-01  6018   0.340E-01    0.291E-01
RMM:   3    -0.232659104520E+04   -0.30568E-02   -0.40266E-02  5630   0.134E-01    0.293E-01
RMM:   4    -0.232659031771E+04    0.72750E-03   -0.40454E-03  5440   0.262E-02    0.141E-01
RMM:   5    -0.232659010166E+04    0.21604E-03   -0.44233E-04  4448   0.129E-02    0.107E-01
RMM:   6    -0.232658998825E+04    0.11341E-03   -0.39637E-04  4759   0.125E-02    0.755E-02
RMM:   7    -0.232658994147E+04    0.46778E-04   -0.18045E-04  4073   0.987E-03    0.232E-02
RMM:   8    -0.232658993598E+04    0.54928E-05   -0.22017E-05  3014   0.504E-03
  26 F= -.23475735E+04 E0= -.23475735E+04  d E =-.683019E-02  mag=     5.0000
       N       E                     dE             d eps       ncg     rms          rms(c)
DAV:   1    -0.232657033812E+04    0.19603E-01   -0.19422E+00  4464   0.134E+00    0.398E-01
RMM:   2    -0.232659417940E+04   -0.23841E-01   -0.24730E-01  5987   0.277E-01    0.327E-01
RMM:   3    -0.232659580019E+04   -0.16208E-02   -0.24859E-02  5687   0.105E-01    0.283E-01
RMM:   4    -0.232659503353E+04    0.76666E-03   -0.25923E-03  5343   0.235E-02    0.122E-01
RMM:   5    -0.232659482183E+04    0.21170E-03   -0.43122E-04  4697   0.144E-02    0.690E-02
RMM:   6    -0.232659476514E+04    0.56690E-04   -0.32897E-04  4798   0.127E-02    0.414E-02
RMM:   7    -0.232659474590E+04    0.19240E-04   -0.64495E-05  3184   0.844E-03    0.269E-02
RMM:   8    -0.232659473904E+04    0.68661E-05   -0.17740E-05  2910   0.401E-03
  27 F= -.23475787E+04 E0= -.23475787E+04  d E =-.519221E-02  mag=     5.0000
       N       E                     dE             d eps       ncg     rms          rms(c)
DAV:   1    -0.232659046961E+04    0.42763E-02   -0.36279E-01  4560   0.581E-01    0.175E-01
RMM:   2    -0.232659495312E+04   -0.44835E-02   -0.46420E-02  6049   0.120E-01    0.152E-01
RMM:   3    -0.232659525161E+04   -0.29849E-03   -0.47853E-03  5281   0.455E-02    0.128E-01
RMM:   4    -0.232659509237E+04    0.15923E-03   -0.49391E-04  3556   0.106E-02    0.513E-02
RMM:   5    -0.232659505395E+04    0.38426E-04   -0.82730E-05  3357   0.725E-03    0.310E-02
RMM:   6    -0.232659504407E+04    0.98749E-05   -0.66829E-05  3438   0.693E-03
  28 F= -.23475792E+04 E0= -.23475792E+04  d E =-.566524E-02  mag=     5.0000
       N       E                     dE             d eps       ncg     rms          rms(c)
DAV:   1    -0.232657636266E+04    0.18691E-01   -0.18054E+00  4472   0.127E+00    0.366E-01
RMM:   2    -0.232659854748E+04   -0.22185E-01   -0.23319E-01  5997   0.265E-01    0.228E-01
RMM:   3    -0.232660037628E+04   -0.18288E-02   -0.23995E-02  5669   0.981E-02    0.180E-01
RMM:   4    -0.232660023772E+04    0.13856E-03   -0.23301E-03  5049   0.194E-02    0.129E-01
RMM:   5    -0.232660006529E+04    0.17244E-03   -0.35504E-04  4088   0.122E-02    0.746E-02
RMM:   6    -0.232660002493E+04    0.40361E-04   -0.28315E-04  4506   0.112E-02    0.573E-02
RMM:   7    -0.232659999787E+04    0.27053E-04   -0.74248E-05  3152   0.781E-03    0.290E-02
RMM:   8    -0.232659999094E+04    0.69335E-05   -0.14880E-05  2923   0.388E-03
  29 F= -.23475843E+04 E0= -.23475843E+04  d E =-.512287E-02  mag=     5.0000
       N       E                     dE             d eps       ncg     rms          rms(c)
DAV:   1    -0.232655556175E+04    0.44436E-01   -0.35817E+00  4464   0.179E+00    0.517E-01
RMM:   2    -0.232659979701E+04   -0.44235E-01   -0.46332E-01  6025   0.373E-01    0.351E-01
RMM:   3    -0.232660341972E+04   -0.36227E-02   -0.48363E-02  5687   0.138E-01    0.284E-01
RMM:   4    -0.232660294955E+04    0.47017E-03   -0.46992E-03  5592   0.276E-02    0.176E-01
RMM:   5    -0.232660262834E+04    0.32121E-03   -0.70477E-04  4701   0.167E-02    0.108E-01
RMM:   6    -0.232660256039E+04    0.67945E-04   -0.54589E-04  5009   0.146E-02    0.948E-02
RMM:   7    -0.232660247814E+04    0.82255E-04   -0.18120E-04  3707   0.108E-02    0.386E-02
RMM:   8    -0.232660246603E+04    0.12107E-04   -0.32904E-05  3031   0.479E-03    0.154E-02
RMM:   9    -0.232660246449E+04    0.15357E-05   -0.97760E-06  2915   0.338E-03
  30 F= -.23475870E+04 E0= -.23475870E+04  d E =-.784801E-02  mag=     5.0000
       N       E                     dE             d eps       ncg     rms          rms(c)
DAV:   1    -0.232658989613E+04    0.12570E-01   -0.13335E+00  4472   0.106E+00    0.311E-01
RMM:   2    -0.232660613791E+04   -0.16242E-01   -0.16943E-01  6071   0.221E-01    0.226E-01
RMM:   3    -0.232660740672E+04   -0.12688E-02   -0.16815E-02  5664   0.791E-02    0.194E-01
RMM:   4    -0.232660714074E+04    0.26598E-03   -0.16904E-03  4564   0.168E-02    0.103E-01
RMM:   5    -0.232660702943E+04    0.11131E-03   -0.24740E-04  3782   0.103E-02    0.628E-02
RMM:   6    -0.232660702031E+04    0.91175E-05   -0.19605E-04  4070   0.968E-03    0.604E-02
RMM:   7    -0.232660698507E+04    0.35241E-04   -0.67443E-05  3090   0.703E-03    0.193E-02
RMM:   8    -0.232660698289E+04    0.21879E-05   -0.10753E-05  2945   0.393E-03
  31 F= -.23475917E+04 E0= -.23475917E+04  d E =-.470149E-02  mag=     5.0000
       N       E                     dE             d eps       ncg     rms          rms(c)
DAV:   1    -0.232648150638E+04    0.12548E+00   -0.10071E+01  4464   0.291E+00    0.866E-01
RMM:   2    -0.232660754019E+04   -0.12603E+00   -0.13054E+00  6112   0.618E-01    0.711E-01
RMM:   3    -0.232661522550E+04   -0.76853E-02   -0.12524E-01  5791   0.207E-01    0.571E-01
RMM:   4    -0.232661273536E+04    0.24901E-02   -0.12703E-02  5782   0.466E-02    0.280E-01
RMM:   5    -0.232661187753E+04    0.85783E-03   -0.19441E-03  5244   0.267E-02    0.169E-01
RMM:   6    -0.232661179018E+04    0.87356E-04   -0.14175E-03  5397   0.231E-02    0.159E-01
RMM:   7    -0.232661154795E+04    0.24223E-03   -0.48505E-04  4709   0.162E-02    0.549E-02
RMM:   8    -0.232661152601E+04    0.21935E-04   -0.67121E-05  3143   0.600E-03    0.217E-02
RMM:   9    -0.232661152281E+04    0.32022E-05   -0.20868E-05  2948   0.448E-03
  32 F= -.23475968E+04 E0= -.23475968E+04  d E =-.975346E-02  mag=     5.0000
       N       E                     dE             d eps       ncg     rms          rms(c)
DAV:   1    -0.232658130382E+04    0.30222E-01   -0.29537E+00  4464   0.152E+00    0.458E-01
RMM:   2    -0.232661493956E+04   -0.33636E-01   -0.34788E-01  6083   0.318E-01    0.366E-01
RMM:   3    -0.232661717647E+04   -0.22369E-02   -0.33003E-02  5783   0.108E-01    0.323E-01
RMM:   4    -0.232661631000E+04    0.86647E-03   -0.35903E-03  5447   0.253E-02    0.141E-01
RMM:   5    -0.232661607283E+04    0.23717E-03   -0.48112E-04  4515   0.142E-02    0.794E-02
RMM:   6    -0.232661600920E+04    0.63630E-04   -0.36482E-04  4699   0.128E-02    0.374E-02
RMM:   7    -0.232661599618E+04    0.13018E-04   -0.64442E-05  3201   0.786E-03    0.228E-02
RMM:   8    -0.232661599302E+04    0.31624E-05   -0.16507E-05  2928   0.391E-03
  33 F= -.23476016E+04 E0= -.23476016E+04  d E =-.484611E-02  mag=     5.0000
       N       E                     dE             d eps       ncg     rms          rms(c)
DAV:   1    -0.232656849127E+04    0.47505E-01   -0.41624E+00  4464   0.180E+00    0.546E-01
RMM:   2    -0.232661617903E+04   -0.47688E-01   -0.49189E-01  6069   0.378E-01    0.453E-01
RMM:   3    -0.232661911782E+04   -0.29388E-02   -0.46920E-02  5784   0.128E-01    0.388E-01
RMM:   4    -0.232661785247E+04    0.12654E-02   -0.50662E-03  5583   0.302E-02    0.166E-01
RMM:   5    -0.232661751953E+04    0.33294E-03   -0.67366E-04  4781   0.168E-02    0.944E-02
RMM:   6    -0.232661742513E+04    0.94399E-04   -0.50879E-04  4931   0.148E-02    0.443E-02
RMM:   7    -0.232661740395E+04    0.21176E-04   -0.88309E-05  3364   0.900E-03    0.230E-02
RMM:   8    -0.232661739984E+04    0.41098E-05   -0.20950E-05  2965   0.414E-03
  34 F= -.23476035E+04 E0= -.23476035E+04  d E =-.669849E-02  mag=     5.0000
       N       E                     dE             d eps       ncg     rms          rms(c)
DAV:   1    -0.232657447456E+04    0.42929E-01   -0.37012E+00  4472   0.167E+00    0.512E-01
RMM:   2    -0.232662125044E+04   -0.46776E-01   -0.49191E-01  6195   0.372E-01    0.324E-01
RMM:   3    -0.232662418162E+04   -0.29312E-02   -0.42365E-02  5848   0.117E-01    0.300E-01
RMM:   4    -0.232662363746E+04    0.54415E-03   -0.46176E-03  5394   0.270E-02    0.172E-01
RMM:   5    -0.232662330844E+04    0.32902E-03   -0.59871E-04  4411   0.148E-02    0.918E-02
RMM:   6    -0.232662321350E+04    0.94946E-04   -0.42867E-04  4801   0.133E-02    0.350E-02
RMM:   7    -0.232662320653E+04    0.69696E-05   -0.45585E-05  3006   0.754E-03
  35 F= -.23476100E+04 E0= -.23476100E+04  d E =-.656192E-02  mag=     5.0000
       N       E                     dE             d eps       ncg     rms          rms(c)
DAV:   1    -0.232636186276E+04    0.26135E+00   -0.19746E+01  4472   0.386E+00    0.120E+00
RMM:   2    -0.232661871355E+04   -0.25685E+00   -0.26827E+00  6250   0.882E-01    0.885E-01
RMM:   3    -0.232663239049E+04   -0.13677E-01   -0.23323E-01  5941   0.268E-01    0.779E-01
RMM:   4    -0.232662815026E+04    0.42402E-02   -0.25440E-02  6100   0.643E-02    0.389E-01
RMM:   5    -0.232662645854E+04    0.16917E-02   -0.33567E-03  5268   0.336E-02    0.223E-01
RMM:   6    -0.232662619201E+04    0.26653E-03   -0.24610E-03  5459   0.303E-02    0.186E-01
RMM:   7    -0.232662589311E+04    0.29890E-03   -0.78546E-04  4961   0.192E-02    0.880E-02
RMM:   8    -0.232662583490E+04    0.58205E-04   -0.13566E-04  3394   0.746E-03    0.301E-02
RMM:   9    -0.232662582793E+04    0.69652E-05   -0.32709E-05  2948   0.528E-03
  36 F= -.23476144E+04 E0= -.23476144E+04  d E =-.109370E-01  mag=     5.0000
       N       E                     dE             d eps       ncg     rms          rms(c)
DAV:   1    -0.232658258646E+04    0.43248E-01   -0.34395E+00  4480   0.158E+00    0.499E-01
RMM:   2    -0.232662717269E+04   -0.44586E-01   -0.47017E-01  6205   0.356E-01    0.293E-01
RMM:   3    -0.232663000218E+04   -0.28295E-02   -0.40553E-02  5823   0.113E-01    0.242E-01
RMM:   4    -0.232662985463E+04    0.14755E-03   -0.44724E-03  5213   0.251E-02    0.177E-01
RMM:   5    -0.232662953169E+04    0.32294E-03   -0.57609E-04  4346   0.142E-02    0.941E-02
RMM:   6    -0.232662945569E+04    0.76001E-04   -0.39643E-04  4726   0.125E-02    0.567E-02
RMM:   7    -0.232662943644E+04    0.19248E-04   -0.10204E-04  3175   0.835E-03    0.410E-02
RMM:   8    -0.232662942296E+04    0.13479E-04   -0.24998E-05  2959   0.431E-03    0.116E-02
RMM:   9    -0.232662942250E+04    0.46319E-06   -0.70870E-06  2892   0.272E-03
  37 F= -.23476187E+04 E0= -.23476187E+04  d E =-.431976E-02  mag=     5.0000
       N       E                     dE             d eps       ncg     rms          rms(c)
DAV:   1    -0.232657483887E+04    0.54584E-01   -0.40663E+00  4480   0.173E+00    0.543E-01
RMM:   2    -0.232662767000E+04   -0.52831E-01   -0.55695E-01  6214   0.388E-01    0.325E-01
RMM:   3    -0.232663102192E+04   -0.33519E-02   -0.48148E-02  5855   0.123E-01    0.275E-01
RMM:   4    -0.232663077181E+04    0.25011E-03   -0.53348E-03  5443   0.276E-02    0.190E-01
RMM:   5    -0.232663039122E+04    0.38060E-03   -0.67707E-04  4478   0.153E-02    0.102E-01
RMM:   6    -0.232663031120E+04    0.80014E-04   -0.48301E-04  4849   0.137E-02    0.701E-02
RMM:   7    -0.232663027229E+04    0.38917E-04   -0.12955E-04  3279   0.902E-03    0.433E-02
RMM:   8    -0.232663025735E+04    0.14935E-04   -0.28192E-05  2971   0.463E-03    0.124E-02
RMM:   9    -0.232663025635E+04    0.10058E-05   -0.85201E-06  2896   0.296E-03
  38 F= -.23476204E+04 E0= -.23476204E+04  d E =-.594187E-02  mag=     5.0000
       N       E                     dE             d eps       ncg     rms          rms(c)
DAV:   1    -0.232662848828E+04    0.17691E-02   -0.44516E-01  4656   0.587E-01    0.198E-01
RMM:   2    -0.232663415423E+04   -0.56660E-02   -0.61090E-02  5929   0.131E-01    0.109E-01
RMM:   3    -0.232663458214E+04   -0.42791E-03   -0.61929E-03  5316   0.573E-02    0.773E-02
RMM:   4    -0.232663459161E+04   -0.94686E-05   -0.63579E-04  3671   0.108E-02    0.747E-02
RMM:   5    -0.232663453636E+04    0.55251E-04   -0.13316E-04  3403   0.818E-03    0.415E-02
RMM:   6    -0.232663452409E+04    0.12268E-04   -0.66298E-05  3284   0.677E-03    0.272E-02
RMM:   7    -0.232663451708E+04    0.70147E-05   -0.20642E-05  2932   0.521E-03
  39 F= -.23476245E+04 E0= -.23476245E+04  d E =-.416651E-02  mag=     5.0000
       N       E                     dE             d eps       ncg     rms          rms(c)
DAV:   1    -0.232661593431E+04    0.18590E-01   -0.16029E+00  4496   0.111E+00    0.375E-01
RMM:   2    -0.232663630847E+04   -0.20374E-01   -0.21968E-01  5927   0.250E-01    0.206E-01
RMM:   3    -0.232663788799E+04   -0.15795E-02   -0.22933E-02  5534   0.111E-01    0.141E-01
RMM:   4    -0.232663793163E+04   -0.43641E-04   -0.23182E-03  5024   0.202E-02    0.141E-01
RMM:   5    -0.232663773963E+04    0.19199E-03   -0.48706E-04  4810   0.144E-02    0.801E-02
RMM:   6    -0.232663767456E+04    0.65072E-04   -0.21143E-04  4534   0.997E-03    0.377E-02
RMM:   7    -0.232663766489E+04    0.96696E-05   -0.47874E-05  3019   0.684E-03
  40 F= -.23476275E+04 E0= -.23476275E+04  d E =-.713547E-02  mag=     5.0000
       N       E                     dE             d eps       ncg     rms          rms(c)
DAV:   1    -0.232663188429E+04    0.57903E-02   -0.76775E-01  4512   0.780E-01    0.249E-01
RMM:   2    -0.232664093953E+04   -0.90552E-02   -0.97476E-02  5909   0.170E-01    0.127E-01
RMM:   3    -0.232664176227E+04   -0.82274E-03   -0.10720E-02  5419   0.755E-02    0.959E-02
RMM:   4    -0.232664180869E+04   -0.46425E-04   -0.10588E-03  3892   0.136E-02    0.961E-02
RMM:   5    -0.232664170238E+04    0.10631E-03   -0.14640E-04  3445   0.851E-03    0.465E-02
RMM:   6    -0.232664169792E+04    0.44561E-05   -0.10593E-04  3766   0.761E-03    0.415E-02
RMM:   7    -0.232664168330E+04    0.14618E-04   -0.31403E-05  2943   0.567E-03    0.109E-02
RMM:   8    -0.232664168299E+04    0.31288E-06   -0.52119E-06  2885   0.274E-03
  41 F= -.23476315E+04 E0= -.23476315E+04  d E =-.396283E-02  mag=     5.0000
       N       E                     dE             d eps       ncg     rms          rms(c)
DAV:   1    -0.232660630674E+04    0.35377E-01   -0.30272E+00  4464   0.155E+00    0.493E-01
RMM:   2    -0.232664207282E+04   -0.35766E-01   -0.38429E-01  5920   0.337E-01    0.254E-01
RMM:   3    -0.232664520315E+04   -0.31303E-02   -0.42318E-02  5538   0.145E-01    0.172E-01
RMM:   4    -0.232664537174E+04   -0.16859E-03   -0.40373E-03  5272   0.259E-02    0.173E-01
RMM:   5    -0.232664508115E+04    0.29058E-03   -0.56913E-04  4733   0.151E-02    0.114E-01
RMM:   6    -0.232664498322E+04    0.97933E-04   -0.41279E-04  4885   0.126E-02    0.679E-02
RMM:   7    -0.232664494897E+04    0.34254E-04   -0.11065E-04  3198   0.871E-03    0.364E-02
RMM:   8    -0.232664493817E+04    0.10798E-04   -0.23231E-05  3003   0.424E-03    0.123E-02
RMM:   9    -0.232664493602E+04    0.21471E-05   -0.74953E-06  2901   0.297E-03
  42 F= -.23476346E+04 E0= -.23476346E+04  d E =-.710181E-02  mag=     5.0000
       N       E                     dE             d eps       ncg     rms          rms(c)
DAV:   1    -0.232664134060E+04    0.35976E-02   -0.65025E-01  4496   0.690E-01    0.209E-01
RMM:   2    -0.232664830961E+04   -0.69690E-02   -0.74394E-02  5929   0.146E-01    0.113E-01
RMM:   3    -0.232664900748E+04   -0.69788E-03   -0.84159E-03  5189   0.661E-02    0.918E-02
RMM:   4    -0.232664902312E+04   -0.15637E-04   -0.81619E-04  3572   0.115E-02    0.830E-02
RMM:   5    -0.232664894616E+04    0.76959E-04   -0.10690E-04  3259   0.732E-03    0.377E-02
RMM:   6    -0.232664893618E+04    0.99834E-05   -0.71129E-05  3461   0.657E-03
  43 F= -.23476385E+04 E0= -.23476385E+04  d E =-.386898E-02  mag=     5.0000
       N       E                     dE             d eps       ncg     rms          rms(c)
DAV:   1    -0.232658830370E+04    0.60642E-01   -0.58418E+00  4464   0.207E+00    0.627E-01
RMM:   2    -0.232665111705E+04   -0.62813E-01   -0.67204E-01  5900   0.439E-01    0.333E-01
RMM:   3    -0.232665732462E+04   -0.62076E-02   -0.77775E-02  5512   0.191E-01    0.239E-01
RMM:   4    -0.232665768592E+04   -0.36130E-03   -0.73248E-03  5443   0.327E-02    0.258E-01
RMM:   5    -0.232665704387E+04    0.64205E-03   -0.96831E-04  4876   0.186E-02    0.132E-01
RMM:   6    -0.232665688949E+04    0.15438E-03   -0.72758E-04  4853   0.162E-02    0.569E-02
RMM:   7    -0.232665685630E+04    0.33188E-04   -0.13156E-04  3488   0.104E-02    0.250E-02
RMM:   8    -0.232665685408E+04    0.22230E-05   -0.28471E-05  2988   0.453E-03
  44 F= -.23476460E+04 E0= -.23476460E+04  d E =-.113837E-01  mag=     5.0000
       N       E                     dE             d eps       ncg     rms          rms(c)
DAV:   1    -0.232637546066E+04    0.28140E+00   -0.23349E+01  4464   0.415E+00    0.126E+00
RMM:   2    -0.232663241438E+04   -0.25695E+00   -0.27479E+00  6104   0.896E-01    0.702E-01
RMM:   3    -0.232665608371E+04   -0.23669E-01   -0.31318E-01  5724   0.343E-01    0.496E-01
RMM:   4    -0.232665622884E+04   -0.14513E-03   -0.27646E-02  5841   0.622E-02    0.384E-01
RMM:   5    -0.232665538486E+04    0.84398E-03   -0.47153E-03  5547   0.398E-02    0.341E-01
RMM:   6    -0.232665449700E+04    0.88787E-03   -0.28519E-03  5638   0.294E-02    0.176E-01
RMM:   7    -0.232665425320E+04    0.24379E-03   -0.73601E-04  4819   0.182E-02    0.104E-01
RMM:   8    -0.232665417601E+04    0.77196E-04   -0.25424E-04  3616   0.967E-03    0.552E-02
RMM:   9    -0.232665413765E+04    0.38358E-04   -0.78617E-05  3077   0.664E-03    0.260E-02
RMM:  10    -0.232665413143E+04    0.62158E-05   -0.25638E-05  2970   0.434E-03
  45 F= -.23476424E+04 E0= -.23476424E+04  d E =-.779485E-02  mag=     5.0000
       N       E                     dE             d eps       ncg     rms          rms(c)
DAV:   1    -0.232654631011E+04    0.10783E+00   -0.96020E+00  4464   0.266E+00    0.800E-01
RMM:   2    -0.232665072962E+04   -0.10442E+00   -0.11090E+00  6021   0.568E-01    0.485E-01
RMM:   3    -0.232666066262E+04   -0.99330E-02   -0.12376E-01  5618   0.236E-01    0.443E-01
RMM:   4    -0.232665995091E+04    0.71171E-03   -0.12019E-02  5912   0.447E-02    0.293E-01
RMM:   5    -0.232665906246E+04    0.88845E-03   -0.17434E-03  5202   0.244E-02    0.159E-01
RMM:   6    -0.232665881677E+04    0.24569E-03   -0.10846E-03  5298   0.208E-02    0.782E-02
RMM:   7    -0.232665880458E+04    0.12188E-04   -0.23911E-04  3788   0.128E-02    0.654E-02
RMM:   8    -0.232665876272E+04    0.41862E-04   -0.59602E-05  3017   0.566E-03    0.193E-02
RMM:   9    -0.232665875931E+04    0.34118E-05   -0.12897E-05  2912   0.367E-03
  46 F= -.23476476E+04 E0= -.23476476E+04  d E =-.129885E-01  mag=     5.0000
       N       E                     dE             d eps       ncg     rms          rms(c)
DAV:   1    -0.232665304602E+04    0.57167E-02   -0.88129E-01  4480   0.782E-01    0.235E-01
RMM:   2    -0.232666214398E+04   -0.90980E-02   -0.97193E-02  6071   0.164E-01    0.128E-01
RMM:   3    -0.232666307067E+04   -0.92669E-03   -0.11214E-02  5196   0.755E-02    0.100E-01
RMM:   4    -0.232666309897E+04   -0.28299E-04   -0.10523E-03  3672   0.125E-02    0.954E-02
RMM:   5    -0.232666300616E+04    0.92809E-04   -0.13853E-04  3273   0.794E-03    0.456E-02
RMM:   6    -0.232666299807E+04    0.80914E-05   -0.10947E-04  3556   0.747E-03    0.374E-02
RMM:   7    -0.232666298470E+04    0.13372E-04   -0.30090E-05  2971   0.533E-03    0.128E-02
RMM:   8    -0.232666298372E+04    0.97846E-06   -0.63865E-06  2885   0.269E-03
  47 F= -.23476518E+04 E0= -.23476518E+04  d E =-.416245E-02  mag=     5.0000
       N       E                     dE             d eps       ncg     rms          rms(c)
DAV:   1    -0.232658250128E+04    0.80483E-01   -0.79350E+00  4464   0.235E+00    0.710E-01
RMM:   2    -0.232666502759E+04   -0.82526E-01   -0.88374E-01  6004   0.497E-01    0.377E-01
RMM:   3    -0.232667345971E+04   -0.84321E-02   -0.10518E-01  5527   0.223E-01    0.258E-01
RMM:   4    -0.232667375941E+04   -0.29970E-03   -0.94210E-03  5463   0.364E-02    0.250E-01
RMM:   5    -0.232667331874E+04    0.44067E-03   -0.12119E-03  4961   0.195E-02    0.182E-01
RMM:   6    -0.232667304175E+04    0.27700E-03   -0.94725E-04  5047   0.175E-02    0.849E-02
RMM:   7    -0.232667297867E+04    0.63071E-04   -0.23461E-04  3739   0.114E-02    0.431E-02
RMM:   8    -0.232667296857E+04    0.10107E-04   -0.54689E-05  3063   0.566E-03    0.329E-02
RMM:   9    -0.232667295777E+04    0.10795E-04   -0.19782E-05  2897   0.397E-03    0.108E-02
RMM:  10    -0.232667295707E+04    0.70155E-06   -0.67766E-06  2890   0.225E-03
  48 F= -.23476615E+04 E0= -.23476615E+04  d E =-.139246E-01  mag=     5.0000
       N       E                     dE             d eps       ncg     rms          rms(c)
DAV:   1    -0.232630825458E+04    0.36470E+00   -0.31697E+01  4464   0.471E+00    0.143E+00
RMM:   2    -0.232664816125E+04   -0.33991E+00   -0.36398E+00  6178   0.101E+00    0.782E-01
RMM:   3    -0.232668096556E+04   -0.32804E-01   -0.42229E-01  5742   0.393E-01    0.576E-01
RMM:   4    -0.232668127433E+04   -0.30877E-03   -0.37122E-02  6041   0.725E-02    0.472E-01
RMM:   5    -0.232667993461E+04    0.13397E-02   -0.56875E-03  5630   0.390E-02    0.397E-01
RMM:   6    -0.232667862653E+04    0.13081E-02   -0.40961E-03  5587   0.331E-02    0.202E-01
RMM:   7    -0.232667822575E+04    0.40079E-03   -0.11257E-03  4977   0.214E-02    0.758E-02
RMM:   8    -0.232667819970E+04    0.26045E-04   -0.23628E-04  3615   0.108E-02    0.718E-02
RMM:   9    -0.232667815305E+04    0.46651E-04   -0.88510E-05  3027   0.669E-03    0.288E-02
RMM:  10    -0.232667814610E+04    0.69496E-05   -0.30674E-05  2981   0.418E-03
  49 F= -.23476661E+04 E0= -.23476661E+04  d E =-.185563E-01  mag=     5.0000
       N       E                     dE             d eps       ncg     rms          rms(c)
DAV:   1    -0.232664676819E+04    0.31385E-01   -0.28320E+00  4464   0.140E+00    0.419E-01
RMM:   2    -0.232667614669E+04   -0.29378E-01   -0.31404E-01  6083   0.296E-01    0.232E-01
RMM:   3    -0.232667910285E+04   -0.29562E-02   -0.36387E-02  5575   0.130E-01    0.168E-01
RMM:   4    -0.232667919748E+04   -0.94625E-04   -0.33366E-03  4914   0.215E-02    0.163E-01
RMM:   5    -0.232667896176E+04    0.23572E-03   -0.49161E-04  4323   0.129E-02    0.917E-02
RMM:   6    -0.232667888965E+04    0.72111E-04   -0.30090E-04  4677   0.109E-02    0.508E-02
RMM:   7    -0.232667887376E+04    0.15886E-04   -0.73620E-05  3073   0.744E-03    0.297E-02
RMM:   8    -0.232667886585E+04    0.79159E-05   -0.13121E-05  2897   0.345E-03
  50 F= -.23476671E+04 E0= -.23476671E+04  d E =-.194633E-01  mag=     5.0000
       N       E                     dE             d eps       ncg     rms          rms(c)
DAV:   1    -0.232665376412E+04    0.25110E-01   -0.28463E+00  4464   0.137E+00    0.430E-01
RMM:   2    -0.232668392442E+04   -0.30160E-01   -0.32167E-01  6093   0.296E-01    0.253E-01
RMM:   3    -0.232668723832E+04   -0.33139E-02   -0.38512E-02  5548   0.136E-01    0.237E-01
RMM:   4    -0.232668703758E+04    0.20074E-03   -0.35214E-03  4962   0.227E-02    0.162E-01
RMM:   5    -0.232668675194E+04    0.28564E-03   -0.44397E-04  4412   0.132E-02    0.834E-02
RMM:   6    -0.232668669278E+04    0.59152E-04   -0.35991E-04  4490   0.113E-02    0.427E-02
RMM:   7    -0.232668667070E+04    0.22083E-04   -0.67699E-05  3196   0.753E-03    0.124E-02
RMM:   8    -0.232668666954E+04    0.11631E-05   -0.92879E-06  2887   0.335E-03
  51 F= -.23476750E+04 E0= -.23476750E+04  d E =-.798159E-02  mag=     5.0000
       N       E                     dE             d eps       ncg     rms          rms(c)
DAV:   1    -0.232639473022E+04    0.29194E+00   -0.25573E+01  4464   0.411E+00    0.130E+00
RMM:   2    -0.232667162846E+04   -0.27690E+00   -0.29643E+00  6203   0.904E-01    0.723E-01
RMM:   3    -0.232670045666E+04   -0.28828E-01   -0.35829E-01  5779   0.358E-01    0.570E-01
RMM:   4    -0.232670065468E+04   -0.19803E-03   -0.31723E-02  6055   0.640E-02    0.512E-01
RMM:   5    -0.232669839989E+04    0.22548E-02   -0.41146E-03  5542   0.358E-02    0.319E-01
RMM:   6    -0.232669755926E+04    0.84063E-03   -0.39127E-03  5273   0.324E-02    0.185E-01
RMM:   7    -0.232669725817E+04    0.30109E-03   -0.98772E-04  4964   0.209E-02    0.102E-01
RMM:   8    -0.232669719922E+04    0.58951E-04   -0.29428E-04  3794   0.102E-02    0.622E-02
RMM:   9    -0.232669715289E+04    0.46322E-04   -0.87248E-05  3084   0.741E-03    0.243E-02
RMM:  10    -0.232669714865E+04    0.42472E-05   -0.33798E-05  3031   0.416E-03
  52 F= -.23476860E+04 E0= -.23476860E+04  d E =-.189027E-01  mag=     5.0000
       N       E                     dE             d eps       ncg     rms          rms(c)
DAV:   1    -0.232668618293E+04    0.10970E-01   -0.17029E+00  4560   0.105E+00    0.332E-01
RMM:   2    -0.232670312347E+04   -0.16941E-01   -0.17971E-01  6151   0.226E-01    0.200E-01
RMM:   3    -0.232670473491E+04   -0.16114E-02   -0.20107E-02  5666   0.864E-02    0.182E-01
RMM:   4    -0.232670460775E+04    0.12715E-03   -0.19047E-03  4357   0.176E-02    0.125E-01
RMM:   5    -0.232670444472E+04    0.16304E-03   -0.30994E-04  4235   0.110E-02    0.694E-02
RMM:   6    -0.232670442020E+04    0.24518E-04   -0.21747E-04  4066   0.955E-03    0.449E-02
RMM:   7    -0.232670440354E+04    0.16655E-04   -0.51797E-05  3016   0.644E-03    0.236E-02
RMM:   8    -0.232670439875E+04    0.47872E-05   -0.12966E-05  2957   0.355E-03
  53 F= -.23476937E+04 E0= -.23476937E+04  d E =-.775843E-02  mag=     5.0000
       N       E                     dE             d eps       ncg     rms          rms(c)
DAV:   1    -0.232661560257E+04    0.88801E-01   -0.88140E+00  4480   0.240E+00    0.754E-01
RMM:   2    -0.232670363269E+04   -0.88030E-01   -0.93574E-01  6164   0.521E-01    0.442E-01
RMM:   3    -0.232671171523E+04   -0.80825E-02   -0.10551E-01  5879   0.187E-01    0.367E-01
RMM:   4    -0.232671151322E+04    0.20201E-03   -0.97544E-03  5886   0.386E-02    0.300E-01
RMM:   5    -0.232671064842E+04    0.86479E-03   -0.16177E-03  5415   0.232E-02    0.169E-01
RMM:   6    -0.232671044880E+04    0.19963E-03   -0.12158E-03  5129   0.194E-02    0.972E-02
RMM:   7    -0.232671036956E+04    0.79234E-04   -0.27060E-04  3770   0.127E-02    0.582E-02
RMM:   8    -0.232671034020E+04    0.29362E-04   -0.75178E-05  3214   0.615E-03    0.245E-02
RMM:   9    -0.232671033344E+04    0.67664E-05   -0.18994E-05  2957   0.420E-03
  54 F= -.23477008E+04 E0= -.23477008E+04  d E =-.148474E-01  mag=     5.0000
       N       E                     dE             d eps       ncg     rms          rms(c)
DAV:   1    -0.232669080909E+04    0.19531E-01   -0.32286E+00  4464   0.150E+00    0.416E-01
RMM:   2    -0.232671675619E+04   -0.25947E-01   -0.27544E-01  6182   0.299E-01    0.241E-01
RMM:   3    -0.232671872827E+04   -0.19721E-02   -0.27773E-02  5820   0.103E-01    0.227E-01
RMM:   4    -0.232671852848E+04    0.19979E-03   -0.27552E-03  5046   0.218E-02    0.151E-01
RMM:   5    -0.232671829141E+04    0.23707E-03   -0.44736E-04  4420   0.135E-02    0.771E-02
RMM:   6    -0.232671829156E+04   -0.14760E-06   -0.33308E-04  4696   0.121E-02    0.711E-02
RMM:   7    -0.232671824590E+04    0.45656E-04   -0.80840E-05  3086   0.779E-03    0.217E-02
RMM:   8    -0.232671824197E+04    0.39282E-05   -0.13702E-05  2949   0.355E-03
  55 F= -.23477091E+04 E0= -.23477091E+04  d E =-.834343E-02  mag=     5.0000
       N       E                     dE             d eps       ncg     rms          rms(c)
DAV:   1    -0.232662545991E+04    0.92786E-01   -0.11439E+01  4464   0.282E+00    0.785E-01
RMM:   2    -0.232671787728E+04   -0.92417E-01   -0.98083E-01  6204   0.564E-01    0.467E-01
RMM:   3    -0.232672503758E+04   -0.71603E-02   -0.10095E-01  5930   0.194E-01    0.459E-01
RMM:   4    -0.232672400005E+04    0.10375E-02   -0.99251E-03  6069   0.419E-02    0.278E-01
RMM:   5    -0.232672324630E+04    0.75375E-03   -0.15356E-03  5104   0.239E-02    0.160E-01
RMM:   6    -0.232672322904E+04    0.17253E-04   -0.14079E-03  5654   0.222E-02    0.150E-01
RMM:   7    -0.232672300670E+04    0.22234E-03   -0.36516E-04  4175   0.138E-02    0.447E-02
RMM:   8    -0.232672298956E+04    0.17142E-04   -0.73175E-05  3257   0.545E-03    0.233E-02
RMM:   9    -0.232672298236E+04    0.72047E-05   -0.19312E-05  2951   0.406E-03
  56 F= -.23477147E+04 E0= -.23477147E+04  d E =-.138930E-01  mag=     5.0000
       N       E                     dE             d eps       ncg     rms          rms(c)
DAV:   1    -0.232670812109E+04    0.14868E-01   -0.29527E+00  4512   0.145E+00    0.370E-01
RMM:   2    -0.232672914957E+04   -0.21028E-01   -0.22213E-01  6230   0.277E-01    0.230E-01
RMM:   3    -0.232673094610E+04   -0.17965E-02   -0.23248E-02  5832   0.955E-02    0.210E-01
RMM:   4    -0.232673076168E+04    0.18441E-03   -0.23528E-03  4918   0.197E-02    0.135E-01
RMM:   5    -0.232673061700E+04    0.14469E-03   -0.37006E-04  4445   0.123E-02    0.888E-02
RMM:   6    -0.232673058754E+04    0.29461E-04   -0.32492E-04  4520   0.119E-02    0.697E-02
RMM:   7    -0.232673054013E+04    0.47409E-04   -0.10269E-04  3378   0.812E-03    0.268E-02
RMM:   8    -0.232673053351E+04    0.66205E-05   -0.14827E-05  2954   0.432E-03
  57 F= -.23477221E+04 E0= -.23477221E+04  d E =-.744631E-02  mag=     5.0000
       N       E                     dE             d eps       ncg     rms          rms(c)
DAV:   1    -0.232653519239E+04    0.19535E+00   -0.26524E+01  4480   0.435E+00    0.111E+00
RMM:   2    -0.232672784726E+04   -0.19265E+00   -0.20399E+00  6320   0.838E-01    0.676E-01
RMM:   3    -0.232674427619E+04   -0.16429E-01   -0.21905E-01  5985   0.274E-01    0.634E-01
RMM:   4    -0.232674250498E+04    0.17712E-02   -0.21180E-02  6294   0.582E-02    0.419E-01
RMM:   5    -0.232674109109E+04    0.14139E-02   -0.32583E-03  5411   0.336E-02    0.265E-01
RMM:   6    -0.232674072391E+04    0.36718E-03   -0.32128E-03  5435   0.330E-02    0.188E-01
RMM:   7    -0.232674041886E+04    0.30504E-03   -0.88119E-04  5225   0.220E-02    0.957E-02
RMM:   8    -0.232674032617E+04    0.92689E-04   -0.18200E-04  3619   0.892E-03    0.381E-02
RMM:   9    -0.232674031144E+04    0.14736E-04   -0.58636E-05  3035   0.618E-03    0.160E-02
RMM:  10    -0.232674031185E+04   -0.41506E-06   -0.19117E-05  2953   0.374E-03
  58 F= -.23477315E+04 E0= -.23477315E+04  d E =-.168464E-01  mag=     5.0000
       N       E                     dE             d eps       ncg     rms          rms(c)
DAV:   1    -0.232673126111E+04    0.90503E-02   -0.19886E+00  4528   0.125E+00    0.340E-01
RMM:   2    -0.232674638377E+04   -0.15123E-01   -0.15926E-01  6114   0.246E-01    0.235E-01
RMM:   3    -0.232674748192E+04   -0.10982E-02   -0.17259E-02  5822   0.883E-02    0.179E-01
RMM:   4    -0.232674724736E+04    0.23456E-03   -0.17136E-03  5279   0.205E-02    0.112E-01
RMM:   5    -0.232674713311E+04    0.11425E-03   -0.39578E-04  4954   0.140E-02    0.835E-02
RMM:   6    -0.232674710826E+04    0.24846E-04   -0.30717E-04  4611   0.115E-02    0.776E-02
RMM:   7    -0.232674706081E+04    0.47452E-04   -0.88517E-05  3168   0.799E-03    0.256E-02
RMM:   8    -0.232674705279E+04    0.80223E-05   -0.13282E-05  2923   0.409E-03
  59 F= -.23477385E+04 E0= -.23477385E+04  d E =-.696046E-02  mag=     5.0000
       N       E                     dE             d eps       ncg     rms          rms(c)
DAV:   1    -0.232674314687E+04    0.39139E-02   -0.59411E-01  4624   0.686E-01    0.187E-01
RMM:   2    -0.232674769020E+04   -0.45433E-02   -0.47847E-02  6147   0.136E-01    0.133E-01
RMM:   3    -0.232674800331E+04   -0.31312E-03   -0.50508E-03  5576   0.480E-02    0.104E-01
RMM:   4    -0.232674792192E+04    0.81390E-04   -0.50840E-04  3773   0.115E-02    0.625E-02
RMM:   5    -0.232674789674E+04    0.25184E-04   -0.12148E-04  3698   0.858E-03    0.561E-02
RMM:   6    -0.232674788136E+04    0.15378E-04   -0.10114E-04  3528   0.766E-03    0.459E-02
RMM:   7    -0.232674786288E+04    0.18487E-04   -0.37494E-05  3066   0.602E-03    0.117E-02
RMM:   8    -0.232674786112E+04    0.17510E-05   -0.63766E-06  2880   0.346E-03
  60 F= -.23477394E+04 E0= -.23477394E+04  d E =-.788795E-02  mag=     5.0000
       N       E                     dE             d eps       ncg     rms          rms(c)
DAV:   1    -0.232674226140E+04    0.56015E-02   -0.10895E+00  4512   0.101E+00    0.266E-01
RMM:   2    -0.232675187626E+04   -0.96149E-02   -0.10196E-01  6075   0.199E-01    0.140E-01
RMM:   3    -0.232675245935E+04   -0.58309E-03   -0.96219E-03  5734   0.693E-02    0.105E-01
RMM:   4    -0.232675249929E+04   -0.39944E-04   -0.10273E-03  4639   0.152E-02    0.112E-01
RMM:   5    -0.232675236838E+04    0.13091E-03   -0.23690E-04  4278   0.109E-02    0.505E-02
RMM:   6    -0.232675237108E+04   -0.27037E-05   -0.13011E-04  3851   0.872E-03    0.454E-02
RMM:   7    -0.232675234777E+04    0.23318E-04   -0.35126E-05  2978   0.608E-03    0.858E-03
RMM:   8    -0.232675234727E+04    0.49541E-06   -0.66130E-06  2881   0.308E-03
  61 F= -.23477440E+04 E0= -.23477440E+04  d E =-.460847E-02  mag=     5.0000
       N       E                     dE             d eps       ncg     rms          rms(c)
DAV:   1    -0.232670252435E+04    0.49823E-01   -0.55175E+00  4480   0.227E+00    0.599E-01
RMM:   2    -0.232675134773E+04   -0.48823E-01   -0.51761E-01  6101   0.448E-01    0.315E-01
RMM:   3    -0.232675412852E+04   -0.27808E-02   -0.49174E-02  5821   0.154E-01    0.212E-01
RMM:   4    -0.232675438366E+04   -0.25514E-03   -0.51658E-03  5643   0.349E-02    0.242E-01
RMM:   5    -0.232675381586E+04    0.56780E-03   -0.10979E-03  5396   0.216E-02    0.133E-01
RMM:   6    -0.232675376952E+04    0.46343E-04   -0.68603E-04  5125   0.167E-02    0.977E-02
RMM:   7    -0.232675366251E+04    0.10701E-03   -0.16608E-04  3718   0.108E-02    0.254E-02
RMM:   8    -0.232675365514E+04    0.73666E-05   -0.25931E-05  2918   0.437E-03
  62 F= -.23477456E+04 E0= -.23477456E+04  d E =-.617951E-02  mag=     5.0000
       N       E                     dE             d eps       ncg     rms          rms(c)
DAV:   1    -0.232674799523E+04    0.56673E-02   -0.71441E-01  4528   0.816E-01    0.215E-01
RMM:   2    -0.232675429955E+04   -0.63043E-02   -0.66645E-02  6065   0.160E-01    0.120E-01
RMM:   3    -0.232675468936E+04   -0.38981E-03   -0.62966E-03  5686   0.542E-02    0.107E-01
RMM:   4    -0.232675466393E+04    0.25431E-04   -0.65019E-04  3825   0.119E-02    0.798E-02
RMM:   5    -0.232675459367E+04    0.70260E-04   -0.15036E-04  3736   0.916E-03    0.404E-02
RMM:   6    -0.232675458357E+04    0.10097E-04   -0.86135E-05  3776   0.752E-03    0.240E-02
RMM:   7    -0.232675457926E+04    0.43095E-05   -0.16802E-05  2907   0.535E-03
  63 F= -.23477464E+04 E0= -.23477464E+04  d E =-.701087E-02  mag=     5.0000
       N       E                     dE             d eps       ncg     rms          rms(c)
DAV:   1    -0.232674629949E+04    0.82841E-02   -0.10015E+00  4496   0.981E-01    0.250E-01
RMM:   2    -0.232675779509E+04   -0.11496E-01   -0.12137E-01  6107   0.197E-01    0.140E-01
RMM:   3    -0.232675870259E+04   -0.90750E-03   -0.12642E-02  5704   0.714E-02    0.843E-02
RMM:   4    -0.232675871855E+04   -0.15956E-04   -0.11708E-03  4537   0.141E-02    0.843E-02
RMM:   5    -0.232675867095E+04    0.47601E-04   -0.17908E-04  3517   0.912E-03    0.656E-02
RMM:   6    -0.232675863311E+04    0.37831E-04   -0.12953E-04  4125   0.819E-03    0.218E-02
RMM:   7    -0.232675862960E+04    0.35139E-05   -0.19385E-05  2918   0.573E-03
  64 F= -.23477507E+04 E0= -.23477507E+04  d E =-.428373E-02  mag=     5.0000
       N       E                     dE             d eps       ncg     rms          rms(c)
DAV:   1    -0.232666571193E+04    0.92921E-01   -0.77821E+00  4480   0.274E+00    0.700E-01
RMM:   2    -0.232675554479E+04   -0.89833E-01   -0.94909E-01  6171   0.553E-01    0.410E-01
RMM:   3    -0.232676284878E+04   -0.73040E-02   -0.10189E-01  5858   0.196E-01    0.273E-01
RMM:   4    -0.232676303257E+04   -0.18379E-03   -0.93364E-03  5816   0.395E-02    0.265E-01
RMM:   5    -0.232676246124E+04    0.57133E-03   -0.14747E-03  5383   0.227E-02    0.174E-01
RMM:   6    -0.232676216975E+04    0.29149E-03   -0.11763E-03  5065   0.210E-02    0.782E-02
RMM:   7    -0.232676212939E+04    0.40361E-04   -0.23685E-04  4148   0.142E-02    0.536E-02
RMM:   8    -0.232676209352E+04    0.35865E-04   -0.54486E-05  3095   0.584E-03    0.200E-02
RMM:   9    -0.232676208687E+04    0.66531E-05   -0.19797E-05  2911   0.416E-03
  65 F= -.23477548E+04 E0= -.23477548E+04  d E =-.835232E-02  mag=     5.0000
       N       E                     dE             d eps       ncg     rms          rms(c)
DAV:   1    -0.232674901321E+04    0.13080E-01   -0.11794E+00  4560   0.104E+00    0.282E-01
RMM:   2    -0.232676393456E+04   -0.14921E-01   -0.15720E-01  6169   0.209E-01    0.170E-01
RMM:   3    -0.232676541824E+04   -0.14837E-02   -0.17383E-02  5663   0.780E-02    0.129E-01
RMM:   4    -0.232676542293E+04   -0.46878E-05   -0.16928E-03  4390   0.159E-02    0.110E-01
RMM:   5    -0.232676529485E+04    0.12808E-03   -0.22159E-04  4120   0.971E-03    0.632E-02
RMM:   6    -0.232676527511E+04    0.19740E-04   -0.20177E-04  4263   0.965E-03    0.512E-02
RMM:   7    -0.232676524922E+04    0.25883E-04   -0.57696E-05  3155   0.668E-03    0.137E-02
RMM:   8    -0.232676524745E+04    0.17714E-05   -0.91972E-06  2910   0.396E-03
  66 F= -.23477582E+04 E0= -.23477582E+04  d E =-.342683E-02  mag=     5.0000
       N       E                     dE             d eps       ncg     rms          rms(c)
DAV:   1    -0.232670413666E+04    0.61113E-01   -0.45694E+00  4496   0.204E+00    0.553E-01
RMM:   2    -0.232676203505E+04   -0.57898E-01   -0.60998E-01  6173   0.412E-01    0.341E-01
RMM:   3    -0.232676785078E+04   -0.58157E-02   -0.68591E-02  5813   0.150E-01    0.268E-01
RMM:   4    -0.232676776856E+04    0.82220E-04   -0.65319E-03  5783   0.310E-02    0.213E-01
RMM:   5    -0.232676729426E+04    0.47430E-03   -0.82873E-04  5205   0.171E-02    0.129E-01
RMM:   6    -0.232676718498E+04    0.10928E-03   -0.77539E-04  5238   0.167E-02    0.102E-01
RMM:   7    -0.232676708501E+04    0.99968E-04   -0.25159E-04  4438   0.119E-02    0.338E-02
RMM:   8    -0.232676707175E+04    0.13264E-04   -0.43268E-05  3186   0.552E-03    0.176E-02
RMM:   9    -0.232676706642E+04    0.53260E-05   -0.14730E-05  2923   0.405E-03
  67 F= -.23477605E+04 E0= -.23477605E+04  d E =-.574417E-02  mag=     5.0000
       N       E                     dE             d eps       ncg     rms          rms(c)
DAV:   1    -0.232675560947E+04    0.11462E-01   -0.87751E-01  4560   0.887E-01    0.266E-01
RMM:   2    -0.232676972689E+04   -0.14117E-01   -0.14896E-01  6183   0.197E-01    0.151E-01
RMM:   3    -0.232677106378E+04   -0.13369E-02   -0.16533E-02  5636   0.822E-02    0.859E-02
RMM:   4    -0.232677107088E+04   -0.70971E-05   -0.15074E-03  4490   0.146E-02    0.752E-02
RMM:   5    -0.232677104320E+04    0.27686E-04   -0.19758E-04  3415   0.947E-03    0.763E-02
RMM:   6    -0.232677098904E+04    0.54152E-04   -0.15691E-04  4180   0.833E-03    0.256E-02
RMM:   7    -0.232677098553E+04    0.35127E-05   -0.21405E-05  2941   0.557E-03
  68 F= -.23477645E+04 E0= -.23477645E+04  d E =-.393464E-02  mag=     5.0000
       N       E                     dE             d eps       ncg     rms          rms(c)
DAV:   1    -0.232670025305E+04    0.70736E-01   -0.41988E+00  4496   0.194E+00    0.583E-01
RMM:   2    -0.232676773590E+04   -0.67483E-01   -0.71277E-01  6216   0.431E-01    0.336E-01
RMM:   3    -0.232677446429E+04   -0.67284E-02   -0.83229E-02  5758   0.181E-01    0.198E-01
RMM:   4    -0.232677447311E+04   -0.88180E-05   -0.73420E-03  5450   0.319E-02    0.155E-01
RMM:   5    -0.232677429978E+04    0.17333E-03   -0.92588E-04  5090   0.202E-02    0.144E-01
RMM:   6    -0.232677406740E+04    0.23238E-03   -0.67008E-04  5354   0.156E-02    0.660E-02
RMM:   7    -0.232677405598E+04    0.11422E-04   -0.11715E-04  3389   0.932E-03    0.504E-02
RMM:   8    -0.232677402973E+04    0.26254E-04   -0.43742E-05  2973   0.512E-03    0.196E-02
RMM:   9    -0.232677402416E+04    0.55625E-05   -0.16117E-05  2923   0.369E-03
  69 F= -.23477675E+04 E0= -.23477675E+04  d E =-.698633E-02  mag=     5.0000
       N       E                     dE             d eps       ncg     rms          rms(c)
DAV:   1    -0.232675468135E+04    0.19348E-01   -0.12250E+00  4512   0.105E+00    0.319E-01
RMM:   2    -0.232677582281E+04   -0.21141E-01   -0.22341E-01  6208   0.235E-01    0.186E-01
RMM:   3    -0.232677791233E+04   -0.20895E-02   -0.25238E-02  5721   0.982E-02    0.115E-01
RMM:   4    -0.232677794631E+04   -0.33985E-04   -0.23103E-03  4413   0.171E-02    0.104E-01
RMM:   5    -0.232677783538E+04    0.11093E-03   -0.25059E-04  3671   0.101E-02    0.748E-02
RMM:   6    -0.232677780168E+04    0.33706E-04   -0.25769E-04  4580   0.987E-03    0.647E-02
RMM:   7    -0.232677776157E+04    0.40104E-04   -0.74418E-05  3223   0.725E-03    0.204E-02
RMM:   8    -0.232677775683E+04    0.47446E-05   -0.12607E-05  2906   0.397E-03
  70 F= -.23477714E+04 E0= -.23477714E+04  d E =-.385012E-02  mag=     5.0000
       N       E                     dE             d eps       ncg     rms          rms(c)
DAV:   1    -0.232667629589E+04    0.10147E+00   -0.55065E+00  4496   0.222E+00    0.676E-01
RMM:   2    -0.232677132169E+04   -0.95026E-01   -0.10049E+00  6202   0.500E-01    0.398E-01
RMM:   3    -0.232678119246E+04   -0.98708E-02   -0.11945E-01  5813   0.210E-01    0.259E-01
RMM:   4    -0.232678127193E+04   -0.79472E-04   -0.10513E-02  5759   0.362E-02    0.222E-01
RMM:   5    -0.232678081559E+04    0.45633E-03   -0.10487E-03  4858   0.188E-02    0.166E-01
RMM:   6    -0.232678058491E+04    0.23068E-03   -0.11429E-03  5386   0.186E-02    0.135E-01
RMM:   7    -0.232678041817E+04    0.16674E-03   -0.37544E-04  4572   0.138E-02    0.501E-02
RMM:   8    -0.232678039153E+04    0.26636E-04   -0.74508E-05  3309   0.656E-03    0.230E-02
RMM:   9    -0.232678038373E+04    0.78033E-05   -0.26185E-05  2952   0.494E-03
  71 F= -.23477742E+04 E0= -.23477742E+04  d E =-.669831E-02  mag=     5.0000
       N       E                     dE             d eps       ncg     rms          rms(c)
DAV:   1    -0.232674551072E+04    0.34881E-01   -0.20725E+00  4480   0.134E+00    0.411E-01
RMM:   2    -0.232678167568E+04   -0.36165E-01   -0.38167E-01  6298   0.305E-01    0.255E-01
RMM:   3    -0.232678522327E+04   -0.35476E-02   -0.43053E-02  5858   0.119E-01    0.175E-01
RMM:   4    -0.232678524942E+04   -0.26142E-04   -0.38736E-03  5152   0.217E-02    0.151E-01
RMM:   5    -0.232678502226E+04    0.22716E-03   -0.44463E-04  4262   0.124E-02    0.966E-02
RMM:   6    -0.232678493533E+04    0.86932E-04   -0.45374E-04  4967   0.126E-02    0.704E-02
RMM:   7    -0.232678489327E+04    0.42055E-04   -0.11956E-04  3472   0.877E-03    0.345E-02
RMM:   8    -0.232678487906E+04    0.14215E-04   -0.23147E-05  2942   0.474E-03    0.109E-02
RMM:   9    -0.232678487671E+04    0.23499E-05   -0.94335E-06  2903   0.322E-03
  72 F= -.23477789E+04 E0= -.23477789E+04  d E =-.467266E-02  mag=     5.0000
       N       E                     dE             d eps       ncg     rms          rms(c)
DAV:   1    -0.232673181336E+04    0.53066E-01   -0.28820E+00  4480   0.158E+00    0.484E-01
RMM:   2    -0.232678208318E+04   -0.50270E-01   -0.53039E-01  6338   0.360E-01    0.300E-01
RMM:   3    -0.232678704482E+04   -0.49616E-02   -0.60426E-02  5883   0.141E-01    0.207E-01
RMM:   4    -0.232678707264E+04   -0.27823E-04   -0.53929E-03  5474   0.257E-02    0.178E-01
RMM:   5    -0.232678675375E+04    0.31890E-03   -0.61211E-04  4538   0.142E-02    0.114E-01
RMM:   6    -0.232678662105E+04    0.13270E-03   -0.62985E-04  5177   0.145E-02    0.814E-02
RMM:   7    -0.232678656411E+04    0.56934E-04   -0.16457E-04  3777   0.101E-02    0.408E-02
RMM:   8    -0.232678654349E+04    0.20621E-04   -0.32844E-05  2987   0.518E-03    0.135E-02
RMM:   9    -0.232678653930E+04    0.41904E-05   -0.13560E-05  2916   0.375E-03
  73 F= -.23477807E+04 E0= -.23477807E+04  d E =-.652865E-02  mag=     5.0000
       N       E                     dE             d eps       ncg     rms          rms(c)
DAV:   1    -0.232675853901E+04    0.28004E-01   -0.16856E+00  4496   0.123E+00    0.382E-01
RMM:   2    -0.232678870061E+04   -0.30162E-01   -0.31522E-01  6341   0.294E-01    0.283E-01
RMM:   3    -0.232679133165E+04   -0.26310E-02   -0.34034E-02  5943   0.107E-01    0.248E-01
RMM:   4    -0.232679099669E+04    0.33495E-03   -0.32947E-03  5267   0.221E-02    0.127E-01
RMM:   5    -0.232679078570E+04    0.21100E-03   -0.34705E-04  4134   0.112E-02    0.748E-02
RMM:   6    -0.232679071577E+04    0.69927E-04   -0.37417E-04  4804   0.119E-02    0.467E-02
RMM:   7    -0.232679070222E+04    0.13548E-04   -0.62672E-05  2974   0.840E-03    0.218E-02
RMM:   8    -0.232679069729E+04    0.49285E-05   -0.14414E-05  2919   0.366E-03
  74 F= -.23477849E+04 E0= -.23477849E+04  d E =-.411003E-02  mag=     5.0000
       N       E                     dE             d eps       ncg     rms          rms(c)
DAV:   1    -0.232663181123E+04    0.15889E+00   -0.82689E+00  4480   0.273E+00    0.848E-01
RMM:   2    -0.232678070531E+04   -0.14889E+00   -0.15576E+00  6403   0.657E-01    0.625E-01
RMM:   3    -0.232679406612E+04   -0.13361E-01   -0.17462E-01  6062   0.231E-01    0.551E-01
RMM:   4    -0.232679237593E+04    0.16902E-02   -0.16327E-02  6188   0.490E-02    0.290E-01
RMM:   5    -0.232679137496E+04    0.10010E-02   -0.16913E-03  5172   0.232E-02    0.177E-01
RMM:   6    -0.232679098083E+04    0.39413E-03   -0.19553E-03  5336   0.246E-02    0.118E-01
RMM:   7    -0.232679090172E+04    0.79108E-04   -0.38256E-04  4396   0.169E-02    0.689E-02
RMM:   8    -0.232679084262E+04    0.59107E-04   -0.10394E-04  3346   0.737E-03    0.278E-02
RMM:   9    -0.232679083092E+04    0.11696E-04   -0.31030E-05  2932   0.516E-03    0.112E-02
RMM:  10    -0.232679083098E+04   -0.58310E-07   -0.14526E-05  2932   0.316E-03
  75 F= -.23477848E+04 E0= -.23477848E+04  d E =-.409860E-02  mag=     5.0000
       N       E                     dE             d eps       ncg     rms          rms(c)
DAV:   1    -0.232675305210E+04    0.37779E-01   -0.20435E+00  4480   0.136E+00    0.423E-01
RMM:   2    -0.232678985828E+04   -0.36806E-01   -0.38506E-01  6348   0.326E-01    0.317E-01
RMM:   3    -0.232679314322E+04   -0.32849E-02   -0.42487E-02  5975   0.116E-01    0.282E-01
RMM:   4    -0.232679272746E+04    0.41576E-03   -0.40855E-03  5466   0.243E-02    0.142E-01
RMM:   5    -0.232679247794E+04    0.24952E-03   -0.40090E-04  4159   0.122E-02    0.902E-02
RMM:   6    -0.232679237548E+04    0.10246E-03   -0.47750E-04  4960   0.136E-02    0.570E-02
RMM:   7    -0.232679235078E+04    0.24701E-04   -0.10890E-04  3547   0.906E-03    0.358E-02
RMM:   8    -0.232679233868E+04    0.12096E-04   -0.25825E-05  2941   0.491E-03    0.160E-02
RMM:   9    -0.232679233572E+04    0.29603E-05   -0.76904E-06  2873   0.316E-03
  76 F= -.23477864E+04 E0= -.23477864E+04  d E =-.568194E-02  mag=     5.0000
       N       E                     dE             d eps       ncg     rms          rms(c)
DAV:   1    -0.232677062620E+04    0.21712E-01   -0.14909E+00  4472   0.114E+00    0.338E-01
RMM:   2    -0.232679469688E+04   -0.24071E-01   -0.24979E-01  6385   0.261E-01    0.266E-01
RMM:   3    -0.232679685232E+04   -0.21554E-02   -0.27992E-02  5946   0.914E-02    0.225E-01
RMM:   4    -0.232679655498E+04    0.29734E-03   -0.25995E-03  4895   0.193E-02    0.114E-01
RMM:   5    -0.232679639261E+04    0.16237E-03   -0.27433E-04  3945   0.992E-03    0.741E-02
RMM:   6    -0.232679633613E+04    0.56479E-04   -0.28419E-04  4445   0.107E-02    0.563E-02
RMM:   7    -0.232679630521E+04    0.30921E-04   -0.93781E-05  3537   0.792E-03    0.280E-02
RMM:   8    -0.232679629720E+04    0.80064E-05   -0.17942E-05  2939   0.479E-03
  77 F= -.23477902E+04 E0= -.23477902E+04  d E =-.375773E-02  mag=     5.0000
       N       E                     dE             d eps       ncg     rms          rms(c)
DAV:   1    -0.232670131917E+04    0.94986E-01   -0.56560E+00  4464   0.221E+00    0.660E-01
RMM:   2    -0.232679294499E+04   -0.91626E-01   -0.95176E-01  6383   0.511E-01    0.522E-01
RMM:   3    -0.232680139361E+04   -0.84486E-02   -0.10961E-01  6102   0.176E-01    0.452E-01
RMM:   4    -0.232680015015E+04    0.12435E-02   -0.99631E-03  5988   0.376E-02    0.224E-01
RMM:   5    -0.232679953693E+04    0.61323E-03   -0.10502E-03  4976   0.180E-02    0.144E-01
RMM:   6    -0.232679929811E+04    0.23882E-03   -0.11195E-03  5317   0.191E-02    0.101E-01
RMM:   7    -0.232679920970E+04    0.88409E-04   -0.30590E-04  4592   0.136E-02    0.547E-02
RMM:   8    -0.232679917968E+04    0.30018E-04   -0.75623E-05  3270   0.647E-03    0.239E-02
RMM:   9    -0.232679917122E+04    0.84593E-05   -0.22840E-05  2960   0.466E-03
  78 F= -.23477927E+04 E0= -.23477927E+04  d E =-.622332E-02  mag=     5.0000
       N       E                     dE             d eps       ncg     rms          rms(c)
DAV:   1    -0.232676048915E+04    0.38691E-01   -0.27328E+00  4464   0.153E+00    0.442E-01
RMM:   2    -0.232680078860E+04   -0.40299E-01   -0.41856E-01  6403   0.350E-01    0.343E-01
RMM:   3    -0.232680422557E+04   -0.34370E-02   -0.46434E-02  6031   0.120E-01    0.296E-01
RMM:   4    -0.232680371023E+04    0.51535E-03   -0.42963E-03  5520   0.254E-02    0.150E-01
RMM:   5    -0.232680344287E+04    0.26735E-03   -0.46782E-04  4523   0.127E-02    0.980E-02
RMM:   6    -0.232680333931E+04    0.10356E-03   -0.50090E-04  4979   0.137E-02    0.702E-02
RMM:   7    -0.232680329711E+04    0.42199E-04   -0.14752E-04  3881   0.976E-03    0.380E-02
RMM:   8    -0.232680328247E+04    0.14640E-04   -0.31360E-05  3030   0.531E-03    0.144E-02
RMM:   9    -0.232680327931E+04    0.31639E-05   -0.10400E-05  2916   0.349E-03
  79 F= -.23477963E+04 E0= -.23477963E+04  d E =-.362529E-02  mag=     5.0000
       N       E                     dE             d eps       ncg     rms          rms(c)
DAV:   1    -0.232673109448E+04    0.72188E-01   -0.46804E+00  4464   0.201E+00    0.578E-01
RMM:   2    -0.232680009029E+04   -0.68996E-01   -0.71656E-01  6427   0.458E-01    0.448E-01
RMM:   3    -0.232680608848E+04   -0.59982E-02   -0.80425E-02  6096   0.155E-01    0.396E-01
RMM:   4    -0.232680513428E+04    0.95420E-03   -0.73741E-03  5877   0.332E-02    0.197E-01
RMM:   5    -0.232680466794E+04    0.46633E-03   -0.80196E-04  4898   0.162E-02    0.128E-01
RMM:   6    -0.232680447996E+04    0.18799E-03   -0.88772E-04  5263   0.174E-02    0.884E-02
RMM:   7    -0.232680441179E+04    0.68167E-04   -0.24522E-04  4438   0.122E-02    0.476E-02
RMM:   8    -0.232680438782E+04    0.23966E-04   -0.54519E-05  3161   0.589E-03    0.201E-02
RMM:   9    -0.232680438092E+04    0.69016E-05   -0.17322E-05  2941   0.419E-03
  80 F= -.23477967E+04 E0= -.23477967E+04  d E =-.409006E-02  mag=     5.0000
       N       E                     dE             d eps       ncg     rms          rms(c)
DAV:   1    -0.232679351170E+04    0.10876E-01   -0.70641E-01  4512   0.780E-01    0.226E-01
RMM:   2    -0.232680394190E+04   -0.10430E-01   -0.10776E-01  6383   0.178E-01    0.191E-01
RMM:   3    -0.232680477684E+04   -0.83494E-03   -0.11879E-02  5648   0.617E-02    0.157E-01
RMM:   4    -0.232680463471E+04    0.14213E-03   -0.11251E-03  3865   0.133E-02    0.768E-02
RMM:   5    -0.232680457093E+04    0.63781E-04   -0.11328E-04  3237   0.734E-03    0.543E-02
RMM:   6    -0.232680453665E+04    0.34276E-04   -0.13410E-04  3685   0.807E-03    0.371E-02
RMM:   7    -0.232680452362E+04    0.13027E-04   -0.56857E-05  3234   0.635E-03    0.182E-02
RMM:   8    -0.232680452041E+04    0.32138E-05   -0.91512E-06  2902   0.419E-03
  81 F= -.23477971E+04 E0= -.23477971E+04  d E =-.447771E-02  mag=     5.0000
       N       E                     dE             d eps       ncg     rms          rms(c)
DAV:   1    -0.232678959394E+04    0.14930E-01   -0.12825E+00  4464   0.109E+00    0.306E-01
RMM:   2    -0.232680675623E+04   -0.17162E-01   -0.18055E-01  6235   0.248E-01    0.190E-01
RMM:   3    -0.232680804947E+04   -0.12932E-02   -0.18985E-02  5778   0.941E-02    0.173E-01
RMM:   4    -0.232680790252E+04    0.14696E-03   -0.17450E-03  4642   0.175E-02    0.103E-01
RMM:   5    -0.232680775292E+04    0.14960E-03   -0.24789E-04  4196   0.106E-02    0.552E-02
RMM:   6    -0.232680771027E+04    0.42654E-04   -0.22237E-04  4538   0.104E-02    0.270E-02
RMM:   7    -0.232680770627E+04    0.39928E-05   -0.33288E-05  2914   0.736E-03
  82 F= -.23478000E+04 E0= -.23478000E+04  d E =-.285302E-02  mag=     5.0000
       N       E                     dE             d eps       ncg     rms          rms(c)
DAV:   1    -0.232672624013E+04    0.81470E-01   -0.56967E+00  4464   0.229E+00    0.649E-01
RMM:   2    -0.232680226123E+04   -0.76021E-01   -0.80143E-01  6158   0.517E-01    0.413E-01
[...]
RMM:   3    -0.232682719196E+04   -0.24391E-05   -0.78646E-05  2994   0.780E-03
 148 F= -.23478164E+04 E0= -.23478164E+04  d E =-.306580E-04  mag=     5.0000
       N       E                     dE             d eps       ncg     rms          rms(c)
DAV:   1    -0.232682718610E+04    0.34248E-05   -0.11656E-04  5256   0.112E-02    0.119E-02
RMM:   2    -0.232682719113E+04   -0.50301E-05   -0.16719E-05  2701   0.298E-03
 149 F= -.23478165E+04 E0= -.23478165E+04  d E =-.336258E-04  mag=     5.0000
       N       E                     dE             d eps       ncg     rms          rms(c)
DAV:   1    -0.232682719290E+04   -0.67970E-05   -0.10873E-02  4480   0.106E-01    0.299E-02
RMM:   2    -0.232682727088E+04   -0.77988E-04   -0.83600E-04  5990   0.226E-02    0.166E-02
RMM:   3    -0.232682727257E+04   -0.16844E-05   -0.65253E-05  2993   0.756E-03
 150 F= -.23478165E+04 E0= -.23478165E+04  d E =-.282446E-04  mag=     5.0000
       N       E                     dE             d eps       ncg     rms          rms(c)
DAV:   1    -0.232682727257E+04   -0.16843E-05   -0.36550E-05  4440   0.672E-03    0.111E-02
RMM:   2    -0.232682727634E+04   -0.37744E-05   -0.11516E-05  2521   0.319E-03
 151 F= -.23478165E+04 E0= -.23478165E+04  d E =-.296299E-04  mag=     5.0000
       N       E                     dE             d eps       ncg     rms          rms(c)
DAV:   1    -0.232682728652E+04   -0.13950E-04   -0.71561E-03  4480   0.830E-02    0.243E-02
RMM:   2    -0.232682732788E+04   -0.41358E-04   -0.44802E-04  5725   0.168E-02    0.133E-02
RMM:   3    -0.232682732806E+04   -0.18360E-06   -0.36985E-05  2902   0.608E-03
 152 F= -.23478165E+04 E0= -.23478165E+04  d E =-.179272E-04  mag=     5.0000
       N       E                     dE             d eps       ncg     rms          rms(c)
DAV:   1    -0.232682732639E+04    0.14899E-05   -0.15043E-05  4008   0.491E-03    0.909E-03
RMM:   2    -0.232682732938E+04   -0.29894E-05   -0.92731E-06  2383   0.296E-03
 153 F= -.23478165E+04 E0= -.23478165E+04  d E =-.201347E-04  mag=     5.0000
       N       E                     dE             d eps       ncg     rms          rms(c)
DAV:   1    -0.232682734275E+04   -0.16359E-04   -0.37149E-03  4456   0.582E-02    0.165E-02
RMM:   2    -0.232682736454E+04   -0.21794E-04   -0.22896E-04  4542   0.119E-02    0.113E-02
RMM:   3    -0.232682736496E+04   -0.42353E-06   -0.21538E-05  2563   0.523E-03
 154 F= -.23478165E+04 E0= -.23478165E+04  d E =-.168527E-04  mag=     5.0000
       N       E                     dE             d eps       ncg     rms          rms(c)
DAV:   1    -0.232682736933E+04   -0.47932E-05   -0.27060E-04  4960   0.159E-02    0.724E-03
RMM:   2    -0.232682737139E+04   -0.20597E-05   -0.18655E-05  2593   0.357E-03
 155 F= -.23478165E+04 E0= -.23478165E+04  d E =-.182349E-04  mag=     5.0000
       N       E                     dE             d eps       ncg     rms          rms(c)
DAV:   1    -0.232682739013E+04   -0.20800E-04   -0.16376E-03  4400   0.406E-02    0.133E-02
RMM:   2    -0.232682740055E+04   -0.10422E-04   -0.10370E-04  3862   0.914E-03    0.136E-02
RMM:   3    -0.232682740028E+04    0.27352E-06   -0.11362E-05  2423   0.462E-03
 156 F= -.23478165E+04 E0= -.23478165E+04  d E =-.181041E-04  mag=     5.0000
       N       E                     dE             d eps       ncg     rms          rms(c)
DAV:   1    -0.232682740427E+04   -0.37144E-05   -0.21228E-04  5032   0.147E-02    0.652E-03
RMM:   2    -0.232682740544E+04   -0.11740E-05   -0.14201E-05  2534   0.356E-03
 157 F= -.23478165E+04 E0= -.23478165E+04  d E =-.193367E-04  mag=     5.0000
       N       E                     dE             d eps       ncg     rms          rms(c)
DAV:   1    -0.232682742103E+04   -0.16764E-04   -0.12551E-03  4400   0.369E-02    0.124E-02
RMM:   2    -0.232682742939E+04   -0.83573E-05   -0.88878E-05  3833   0.865E-03
 158 F= -.23478166E+04 E0= -.23478166E+04  d E =-.127934E-04  mag=     5.0000
       N       E                     dE             d eps       ncg     rms          rms(c)
DAV:   1    -0.232682743291E+04   -0.11875E-04   -0.80635E-05  5104   0.106E-02    0.113E-02
RMM:   2    -0.232682744041E+04   -0.75019E-05   -0.22871E-05  2575   0.342E-03
 159 F= -.23478166E+04 E0= -.23478166E+04  d E =-.212864E-04  mag=     5.0000
       N       E                     dE             d eps       ncg     rms          rms(c)
DAV:   1    -0.232682744442E+04   -0.11514E-04   -0.10813E-03  4400   0.340E-02    0.108E-02
RMM:   2    -0.232682745280E+04   -0.83744E-05   -0.90591E-05  3612   0.801E-03
 160 F= -.23478166E+04 E0= -.23478166E+04  d E =-.707587E-06  mag=     5.0000
       N       E                     dE             d eps       ncg     rms          rms(c)
DAV:   1    -0.232682745180E+04   -0.73808E-05   -0.16851E-05  2920   0.600E-03    0.742E-03
RMM:   2    -0.232682745416E+04   -0.23568E-05   -0.88719E-06  2289   0.312E-03
 161 F= -.23478166E+04 E0= -.23478166E+04  d E =-.301367E-05  mag=     5.0000
       N       E                     dE             d eps       ncg     rms          rms(c)
DAV:   1    -0.232682745232E+04   -0.51512E-06   -0.10709E-05  2440   0.413E-03    0.300E-03
RMM:   2    -0.232682745275E+04   -0.43548E-06   -0.15247E-06  1895   0.124E-03
 162 F= -.23478166E+04 E0= -.23478166E+04  d E =-.888475E-06  mag=     5.0000
       N       E                     dE             d eps       ncg     rms          rms(c)
DAV:   1    -0.232682747089E+04   -0.18575E-04   -0.98597E-04  4344   0.309E-02    0.912E-03
RMM:   2    -0.232682747789E+04   -0.69979E-05   -0.72362E-05  3363   0.673E-03
 163 F= -.23478166E+04 E0= -.23478166E+04  d E =-.994080E-05  mag=     5.0000
       N       E                     dE             d eps       ncg     rms          rms(c)
DAV:   1    -0.232682748104E+04   -0.10152E-04   -0.32773E-05  3808   0.665E-03    0.828E-03
RMM:   2    -0.232682748586E+04   -0.48175E-05   -0.12591E-05  2389   0.344E-03
 164 F= -.23478166E+04 E0= -.23478166E+04  d E =-.156156E-04  mag=     5.0000
       N       E                     dE             d eps       ncg     rms          rms(c)
DAV:   1    -0.232682749128E+04   -0.10234E-04   -0.77739E-04  4304   0.264E-02    0.848E-03
RMM:   2    -0.232682749632E+04   -0.50367E-05   -0.54610E-05  2935   0.599E-03
 165 F= -.23478166E+04 E0= -.23478166E+04  d E =-.360887E-05  mag=     5.0000
       N       E                     dE             d eps       ncg     rms          rms(c)
DAV:   1    -0.232682749606E+04   -0.47815E-05   -0.73077E-06  2624   0.415E-03    0.410E-03
RMM:   2    -0.232682749633E+04   -0.27317E-06   -0.19812E-06  2147   0.165E-03
 166 F= -.23478166E+04 E0= -.23478166E+04  d E =-.385949E-05  mag=     5.0000
       N       E                     dE             d eps       ncg     rms          rms(c)
DAV:   1    -0.232682750258E+04   -0.65151E-05   -0.59631E-04  4176   0.227E-02    0.710E-03
RMM:   2    -0.232682750630E+04   -0.37242E-05   -0.37426E-05  2737   0.513E-03
 167 F= -.23478166E+04 E0= -.23478166E+04  d E =-.722816E-05  mag=     5.0000
       N       E                     dE             d eps       ncg     rms          rms(c)
DAV:   1    -0.232682750665E+04   -0.40706E-05   -0.94196E-06  2696   0.420E-03    0.596E-03
RMM:   2    -0.232682750889E+04   -0.22425E-05   -0.54258E-06  2201   0.225E-03
 168 F= -.23478166E+04 E0= -.23478166E+04  d E =-.962449E-05  mag=     5.0000
       N       E                     dE             d eps       ncg     rms          rms(c)
DAV:   1    -0.232682751199E+04   -0.53435E-05   -0.36826E-04  4208   0.181E-02    0.557E-03
RMM:   2    -0.232682751430E+04   -0.23139E-05   -0.24777E-05  2596   0.418E-03
 169 F= -.23478166E+04 E0= -.23478166E+04  d E =-.463313E-05  mag=     5.0000
       N       E                     dE             d eps       ncg     rms          rms(c)
DAV:   1    -0.232682751552E+04   -0.35318E-05   -0.57948E-05  3736   0.759E-03    0.400E-03
RMM:   2    -0.232682751647E+04   -0.94518E-06   -0.61113E-06  2319   0.272E-03
 170 F= -.23478166E+04 E0= -.23478166E+04  d E =-.648703E-05  mag=     5.0000
       N       E                     dE             d eps       ncg     rms          rms(c)
DAV:   1    -0.232682752461E+04   -0.90843E-05   -0.41436E-04  4160   0.191E-02    0.608E-03
RMM:   2    -0.232682752747E+04   -0.28608E-05   -0.29786E-05  2657   0.461E-03
 171 F= -.23478166E+04 E0= -.23478166E+04  d E =-.481927E-05  mag=     5.0000
       N       E                     dE             d eps       ncg     rms          rms(c)
DAV:   1    -0.232682752813E+04   -0.35292E-05   -0.70830E-06  2456   0.381E-03    0.519E-03
RMM:   2    -0.232682752989E+04   -0.17574E-05   -0.42577E-06  2203   0.198E-03
 172 F= -.23478166E+04 E0= -.23478166E+04  d E =-.674464E-05  mag=     5.0000
       N       E                     dE             d eps       ncg     rms          rms(c)
DAV:   1    -0.232682754055E+04   -0.12413E-04   -0.45062E-04  4144   0.197E-02    0.596E-03
RMM:   2    -0.232682754384E+04   -0.32936E-05   -0.35075E-05  2755   0.468E-03
 173 F= -.23478166E+04 E0= -.23478166E+04  d E =-.403462E-05  mag=     5.0000
       N       E                     dE             d eps       ncg     rms          rms(c)
DAV:   1    -0.232682754815E+04   -0.76041E-05   -0.69574E-05  3904   0.829E-03    0.334E-03
RMM:   2    -0.232682754883E+04   -0.67908E-06   -0.72400E-06  2331   0.281E-03
 174 F= -.23478166E+04 E0= -.23478166E+04  d E =-.516151E-05  mag=     5.0000
       N       E                     dE             d eps       ncg     rms          rms(c)
DAV:   1    -0.232682755517E+04   -0.70144E-05   -0.20951E-04  4144   0.133E-02    0.450E-03
RMM:   2    -0.232682755714E+04   -0.19777E-05   -0.18828E-05  2547   0.354E-03
 175 F= -.23478166E+04 E0= -.23478166E+04  d E =-.449606E-05  mag=     5.0000
       N       E                     dE             d eps       ncg     rms          rms(c)
DAV:   1    -0.232682756380E+04   -0.86320E-05   -0.95785E-04  4200   0.279E-02    0.888E-03
RMM:   2    -0.232682757206E+04   -0.82590E-05   -0.79956E-05  3289   0.697E-03
 176 F= -.23478166E+04 E0= -.23478166E+04  d E =-.112572E-04  mag=     5.0000
       N       E                     dE             d eps       ncg     rms          rms(c)
DAV:   1    -0.232682757822E+04   -0.14419E-04   -0.30035E-04  4176   0.160E-02    0.803E-03
RMM:   2    -0.232682758360E+04   -0.53832E-05   -0.34536E-05  2758   0.443E-03
 177 F= -.23478166E+04 E0= -.23478166E+04  d E =-.816932E-05  mag=     5.0000
       N       E                     dE             d eps       ncg     rms          rms(c)
DAV:   1    -0.232682758566E+04   -0.74414E-05   -0.71536E-04  4200   0.240E-02    0.773E-03
RMM:   2    -0.232682759152E+04   -0.58618E-05   -0.59872E-05  3067   0.606E-03
 178 F= -.23478166E+04 E0= -.23478166E+04  d E =-.108208E-04  mag=     5.0000
       N       E                     dE             d eps       ncg     rms          rms(c)
DAV:   1    -0.232682759749E+04   -0.11834E-04   -0.43676E-04  4152   0.190E-02    0.872E-03
RMM:   2    -0.232682760429E+04   -0.68018E-05   -0.45111E-05  2848   0.515E-03
 179 F= -.23478166E+04 E0= -.23478166E+04  d E =-.938792E-05  mag=     5.0000
       N       E                     dE             d eps       ncg     rms          rms(c)
DAV:   1    -0.232682760511E+04   -0.76190E-05   -0.50990E-04  4168   0.206E-02    0.712E-03
RMM:   2    -0.232682760944E+04   -0.43244E-05   -0.44089E-05  2843   0.533E-03
 180 F= -.23478166E+04 E0= -.23478166E+04  d E =-.108895E-04  mag=     5.0000
       N       E                     dE             d eps       ncg     rms          rms(c)
DAV:   1    -0.232682760617E+04   -0.10574E-05   -0.19833E-03  4376   0.395E-02    0.133E-02
RMM:   2    -0.232682762395E+04   -0.17780E-04   -0.16163E-04  3937   0.962E-03    0.192E-02
RMM:   3    -0.232682762173E+04    0.22164E-05   -0.16410E-05  2470   0.430E-03
 181 F= -.23478166E+04 E0= -.23478166E+04  d E =-.159028E-04  mag=     5.0000
       N       E                     dE             d eps       ncg     rms          rms(c)
DAV:   1    -0.232682762679E+04   -0.28375E-05   -0.34770E-04  4600   0.163E-02    0.651E-03
RMM:   2    -0.232682762974E+04   -0.29509E-05   -0.29240E-05  2766   0.410E-03
 182 F= -.23478166E+04 E0= -.23478166E+04  d E =-.404995E-05  mag=     5.0000
       N       E                     dE             d eps       ncg     rms          rms(c)
DAV:   1    -0.232682762897E+04   -0.21790E-05   -0.31717E-03  4408   0.488E-02    0.144E-02
RMM:   2    -0.232682765415E+04   -0.25179E-04   -0.24774E-04  4246   0.111E-02    0.146E-02
RMM:   3    -0.232682765381E+04    0.33494E-06   -0.22744E-05  2416   0.458E-03
 183 F= -.23478167E+04 E0= -.23478167E+04  d E =-.162581E-04  mag=     5.0000
       N       E                     dE             d eps       ncg     rms          rms(c)
DAV:   1    -0.232682759758E+04    0.56568E-04   -0.12645E-02  4464   0.970E-02    0.270E-02
RMM:   2    -0.232682768958E+04   -0.92000E-04   -0.94639E-04  5630   0.206E-02    0.184E-02
RMM:   3    -0.232682769137E+04   -0.17954E-05   -0.79305E-05  2976   0.675E-03
 184 F= -.23478167E+04 E0= -.23478167E+04  d E =-.300777E-04  mag=     5.0000
       N       E                     dE             d eps       ncg     rms          rms(c)
DAV:   1    -0.232682770098E+04   -0.11401E-04   -0.10688E-03  4272   0.287E-02    0.119E-02
RMM:   2    -0.232682770990E+04   -0.89227E-05   -0.86704E-05  3526   0.658E-03
 185 F= -.23478167E+04 E0= -.23478167E+04  d E =-.965851E-05  mag=     5.0000
       N       E                     dE             d eps       ncg     rms          rms(c)
DAV:   1    -0.232682770276E+04   -0.17820E-05   -0.64313E-03  4440   0.697E-02    0.203E-02
RMM:   2    -0.232682775171E+04   -0.48946E-04   -0.49378E-04  5101   0.158E-02    0.180E-02
RMM:   3    -0.232682775313E+04   -0.14260E-05   -0.44287E-05  2772   0.554E-03
 186 F= -.23478167E+04 E0= -.23478167E+04  d E =-.312432E-04  mag=     5.0000
       N       E                     dE             d eps       ncg     rms          rms(c)
DAV:   1    -0.232682763226E+04    0.11945E-03   -0.25666E-02  4464   0.139E-01    0.387E-02
RMM:   2    -0.232682781875E+04   -0.18649E-03   -0.19005E-03  5998   0.290E-02    0.312E-02
RMM:   3    -0.232682782396E+04   -0.52179E-05   -0.16983E-04  3135   0.899E-03    0.305E-02
RMM:   4    -0.232682781692E+04    0.70416E-05   -0.18750E-05  2903   0.338E-03
 187 F= -.23478167E+04 E0= -.23478167E+04  d E =-.517078E-04  mag=     5.0000
       N       E                     dE             d eps       ncg     rms          rms(c)
DAV:   1    -0.232682782636E+04   -0.23958E-05   -0.48470E-03  4432   0.613E-02    0.202E-02
RMM:   2    -0.232682786289E+04   -0.36526E-04   -0.35975E-04  4876   0.131E-02    0.207E-02
RMM:   3    -0.232682786094E+04    0.19478E-05   -0.33880E-05  2820   0.515E-03
 188 F= -.23478167E+04 E0= -.23478167E+04  d E =-.191438E-04  mag=     5.0000
       N       E                     dE             d eps       ncg     rms          rms(c)
DAV:   1    -0.232682785828E+04    0.46044E-05   -0.52335E-03  4440   0.637E-02    0.193E-02
RMM:   2    -0.232682789615E+04   -0.37870E-04   -0.39514E-04  4971   0.140E-02    0.128E-02
RMM:   3    -0.232682789798E+04   -0.18247E-05   -0.35436E-05  2857   0.494E-03
 189 F= -.23478168E+04 E0= -.23478168E+04  d E =-.304793E-04  mag=     5.0000
       N       E                     dE             d eps       ncg     rms          rms(c)
DAV:   1    -0.232682790218E+04   -0.60293E-05   -0.88097E-04  4576   0.264E-02    0.111E-02
RMM:   2    -0.232682791013E+04   -0.79471E-05   -0.72495E-05  3448   0.623E-03
 190 F= -.23478168E+04 E0= -.23478168E+04  d E =-.321065E-04  mag=     5.0000
       N       E                     dE             d eps       ncg     rms          rms(c)
DAV:   1    -0.232682790129E+04    0.88783E-06   -0.22859E-04  4496   0.137E-02    0.811E-03
RMM:   2    -0.232682790443E+04   -0.31320E-05   -0.19413E-05  2683   0.319E-03
 191 F= -.23478168E+04 E0= -.23478168E+04  d E =-.316114E-04  mag=     5.0000
       N       E                     dE             d eps       ncg     rms          rms(c)
DAV:   1    -0.232682790556E+04   -0.42647E-05   -0.85824E-05  3768   0.867E-03    0.447E-03
RMM:   2    -0.232682790689E+04   -0.13313E-05   -0.77730E-06  2359   0.245E-03
 192 F= -.23478168E+04 E0= -.23478168E+04  d E =-.308812E-04  mag=     5.0000
       N       E                     dE             d eps       ncg     rms          rms(c)
DAV:   1    -0.232682791797E+04   -0.12415E-04   -0.35950E-03  4392   0.531E-02    0.154E-02
RMM:   2    -0.232682794556E+04   -0.27583E-04   -0.28429E-04  4634   0.117E-02    0.108E-02
RMM:   3    -0.232682794660E+04   -0.10443E-05   -0.23701E-05  2429   0.439E-03
 193 F= -.23478168E+04 E0= -.23478168E+04  d E =-.163550E-04  mag=     5.0000
       N       E                     dE             d eps       ncg     rms          rms(c)
DAV:   1    -0.232682795115E+04   -0.55906E-05   -0.14935E-03  4200   0.343E-02    0.114E-02
RMM:   2    -0.232682796285E+04   -0.11704E-04   -0.12333E-04  3748   0.799E-03    0.803E-03
RMM:   3    -0.232682796325E+04   -0.39571E-06   -0.11972E-05  2476   0.383E-03
 194 F= -.23478168E+04 E0= -.23478168E+04  d E =-.178566E-04  mag=     5.0000
       N       E                     dE             d eps       ncg     rms          rms(c)
DAV:   1    -0.232682797222E+04   -0.93686E-05   -0.29675E-03  4408   0.495E-02    0.161E-02
RMM:   2    -0.232682799449E+04   -0.22268E-04   -0.22001E-04  4401   0.106E-02    0.166E-02
RMM:   3    -0.232682799414E+04    0.34520E-06   -0.21206E-05  2685   0.463E-03
 195 F= -.23478168E+04 E0= -.23478168E+04  d E =-.136890E-04  mag=     5.0000
       N       E                     dE             d eps       ncg     rms          rms(c)
DAV:   1    -0.232682799804E+04   -0.35476E-05   -0.12894E-03  4336   0.327E-02    0.115E-02
RMM:   2    -0.232682800732E+04   -0.92868E-05   -0.97909E-05  3627   0.747E-03
 196 F= -.23478168E+04 E0= -.23478168E+04  d E =-.154793E-04  mag=     5.0000
       N       E                     dE             d eps       ncg     rms          rms(c)
DAV:   1    -0.232682800253E+04   -0.44933E-05   -0.13836E-04  4792   0.113E-02    0.718E-03
RMM:   2    -0.232682800444E+04   -0.19142E-05   -0.12868E-05  2524   0.267E-03
 197 F= -.23478168E+04 E0= -.23478168E+04  d E =-.161138E-04  mag=     5.0000
       N       E                     dE             d eps       ncg     rms          rms(c)
DAV:   1    -0.232682800501E+04   -0.24772E-05   -0.51440E-05  3360   0.717E-03    0.378E-03
RMM:   2    -0.232682800589E+04   -0.88206E-06   -0.49927E-06  2247   0.239E-03
 198 F= -.23478168E+04 E0= -.23478168E+04  d E =-.153660E-04  mag=     5.0000
       N       E                     dE             d eps       ncg     rms          rms(c)
DAV:   1    -0.232682801795E+04   -0.12948E-04   -0.22388E-03  4392   0.430E-02    0.130E-02
RMM:   2    -0.232682803330E+04   -0.15345E-04   -0.16167E-04  3915   0.920E-03    0.733E-03
RMM:   3    -0.232682803383E+04   -0.52701E-06   -0.14888E-05  2369   0.426E-03
 199 F= -.23478168E+04 E0= -.23478168E+04  d E =-.110287E-04  mag=     5.0000
       N       E                     dE             d eps       ncg     rms          rms(c)
DAV:   1    -0.232682803994E+04   -0.66396E-05   -0.50587E-04  4328   0.205E-02    0.773E-03
RMM:   2    -0.232682804375E+04   -0.38144E-05   -0.38578E-05  2983   0.472E-03
 200 F= -.23478168E+04 E0= -.23478168E+04  d E =-.128462E-04  mag=     5.0000
       N       E                     dE             d eps       ncg     rms          rms(c)
DAV:   1    -0.232682806318E+04   -0.23244E-04   -0.15537E-03  4384   0.369E-02    0.123E-02
RMM:   2    -0.232682807467E+04   -0.11490E-04   -0.11470E-04  3667   0.847E-03    0.124E-02
RMM:   3    -0.232682807487E+04   -0.19655E-06   -0.13436E-05  2493   0.442E-03
 201 F= -.23478168E+04 E0= -.23478168E+04  d E =-.104112E-04  mag=     5.0000
