       N       E                     dE             d eps       ncg     rms          rms(c)
DAV:   1     0.121574839225E+05    0.12157E+05   -0.83532E+05  4640   0.141E+03
DAV:   2    -0.129339206650E+04   -0.13451E+05   -0.12945E+05  5200   0.319E+02
DAV:   3    -0.249546135628E+04   -0.12021E+04   -0.11929E+04  5520   0.101E+02
DAV:   4    -0.252057243293E+04   -0.25111E+02   -0.24996E+02  5680   0.174E+01
DAV:   5    -0.252125834340E+04   -0.68591E+00   -0.68486E+00  5760   0.254E+00    0.171E+02
RMM:   6    -0.147848241226E+04    0.10428E+04   -0.19164E+03  4507   0.379E+01    0.757E+01
RMM:   7    -0.166232232593E+04   -0.18384E+03   -0.32999E+02  5062   0.138E+01    0.594E+01
RMM:   8    -0.168653710753E+04   -0.24215E+02   -0.82341E+01  5215   0.810E+00    0.418E+01
RMM:   9    -0.175820831279E+04   -0.71671E+02   -0.62070E+01  5174   0.598E+00    0.375E+01
RMM:  10    -0.189778083214E+04   -0.13957E+03   -0.64818E+01  5153   0.754E+00    0.372E+01
RMM:  11    -0.195891443621E+04   -0.61134E+02   -0.34818E+01  5051   0.506E+00    0.184E+01
RMM:  12    -0.205665204971E+04   -0.97738E+02   -0.37327E+01  4598   0.493E+00    0.138E+01
RMM:  13    -0.217893660467E+04   -0.12228E+03   -0.80305E+01  4568   0.648E+00    0.965E+00
RMM:  14    -0.228704814952E+04   -0.10811E+03   -0.10930E+02  4483   0.677E+00    0.617E+00
RMM:  15    -0.229673689429E+04   -0.96887E+01   -0.11659E+01  4575   0.328E+00    0.487E+00
RMM:  16    -0.230479164536E+04   -0.80548E+01   -0.79810E+00  4507   0.183E+00    0.267E+00
RMM:  17    -0.230897335798E+04   -0.41817E+01   -0.32220E+00  4508   0.139E+00    0.170E+00
RMM:  18    -0.231090421606E+04   -0.19309E+01   -0.15669E+00  4812   0.695E-01    0.108E+00
RMM:  19    -0.231136807733E+04   -0.46386E+00   -0.56111E-01  4926   0.475E-01    0.648E-01
RMM:  20    -0.231148681375E+04   -0.11874E+00   -0.13430E-01  5111   0.237E-01    0.443E-01
RMM:  21    -0.231152481220E+04   -0.37998E-01   -0.26192E-02  4811   0.120E-01    0.292E-01
RMM:  22    -0.231155397202E+04   -0.29160E-01   -0.13187E-02  4598   0.776E-02    0.139E-01
RMM:  23    -0.231156839522E+04   -0.14423E-01   -0.43536E-03  4614   0.610E-02    0.107E-01
RMM:  24    -0.231158651956E+04   -0.18124E-01   -0.58050E-03  4504   0.517E-02    0.661E-02
RMM:  25    -0.231159181818E+04   -0.52986E-02   -0.14109E-03  4569   0.384E-02    0.405E-02
RMM:  26    -0.231159600140E+04   -0.41832E-02   -0.11843E-03  4191   0.208E-02    0.272E-02
RMM:  27    -0.231159815243E+04   -0.21510E-02   -0.62353E-04  4129   0.199E-02    0.164E-02
RMM:  28    -0.231159860501E+04   -0.45258E-03   -0.19214E-04  4202   0.953E-03    0.975E-03
RMM:  29    -0.231159878051E+04   -0.17550E-03   -0.36012E-05  3423   0.545E-03    0.447E-03
RMM:  30    -0.231159886589E+04   -0.85371E-04   -0.16539E-05  3064   0.356E-03    0.286E-03
RMM:  31    -0.231159889689E+04   -0.31008E-04   -0.63015E-06  2907   0.288E-03    0.149E-03
RMM:  32    -0.231159891330E+04   -0.16412E-04   -0.47298E-06  2736   0.221E-03    0.931E-04
RMM:  33    -0.231159891794E+04   -0.46325E-05   -0.25047E-06  2545   0.195E-03
   1 F= -.23320613E+04 E0= -.23320613E+04  d E =-.391572E-21  mag=     1.0001
       N       E                     dE             d eps       ncg     rms          rms(c)
DAV:   1    -0.231156067367E+04    0.38240E-01   -0.20351E+00  4480   0.537E-01    0.301E-01
RMM:   2    -0.231156120105E+04   -0.52739E-03   -0.11820E-02  4643   0.395E-02    0.253E-01
RMM:   3    -0.231156106627E+04    0.13478E-03   -0.22918E-03  4679   0.219E-02    0.258E-01
RMM:   4    -0.231156064666E+04    0.41961E-03   -0.10111E-03  4371   0.136E-02    0.173E-01
RMM:   5    -0.231156035224E+04    0.29442E-03   -0.44870E-04  3793   0.927E-03    0.604E-02
RMM:   6    -0.231156030123E+04    0.51011E-04   -0.86897E-05  3115   0.481E-03    0.149E-02
RMM:   7    -0.231156029668E+04    0.45502E-05   -0.16055E-05  2965   0.323E-03
   2 F= -.23320240E+04 E0= -.23320240E+04  d E =-.399949E-19  mag=     1.0000
       N       E                     dE             d eps       ncg     rms          rms(c)
DAV:   1    -0.231160577117E+04   -0.45470E-01   -0.80706E+00  4480   0.103E+00    0.600E-01
RMM:   2    -0.231160756386E+04   -0.17927E-02   -0.45333E-02  4885   0.855E-02    0.488E-01
RMM:   3    -0.231160738779E+04    0.17608E-03   -0.85751E-03  5099   0.473E-02    0.516E-01
RMM:   4    -0.231160559786E+04    0.17899E-02   -0.38865E-03  5291   0.274E-02    0.330E-01
RMM:   5    -0.231160456595E+04    0.10319E-02   -0.17020E-03  4818   0.177E-02    0.123E-01
RMM:   6    -0.231160436224E+04    0.20371E-03   -0.33474E-04  3734   0.834E-03    0.297E-02
RMM:   7    -0.231160434763E+04    0.14613E-04   -0.43721E-05  3169   0.507E-03    0.129E-02
RMM:   8    -0.231160434800E+04   -0.37285E-06   -0.17088E-05  3001   0.357E-03
   3 F= -.23320655E+04 E0= -.23320655E+04  d E =-.114302E-11  mag=     1.0000
       N       E                     dE             d eps       ncg     rms          rms(c)
DAV:   1    -0.231157962068E+04    0.24727E-01   -0.39054E+00  4640   0.829E-01    0.426E-01
RMM:   2    -0.231158005476E+04   -0.43409E-03   -0.19958E-02  4715   0.560E-02    0.315E-01
RMM:   3    -0.231158051963E+04   -0.46486E-03   -0.44554E-03  5031   0.307E-02    0.392E-01
RMM:   4    -0.231157923746E+04    0.12822E-02   -0.19294E-03  4912   0.194E-02    0.215E-01
RMM:   5    -0.231157877195E+04    0.46551E-03   -0.73077E-04  4209   0.113E-02    0.781E-02
RMM:   6    -0.231157869209E+04    0.79865E-04   -0.14022E-04  3239   0.560E-03    0.209E-02
RMM:   7    -0.231157868443E+04    0.76528E-05   -0.21505E-05  3025   0.369E-03
   4 F= -.23320409E+04 E0= -.23320409E+04  d E =-.135852E-22  mag=     1.0000
       N       E                     dE             d eps       ncg     rms          rms(c)
DAV:   1    -0.231161381273E+04   -0.35121E-01   -0.72360E+00  4480   0.111E+00    0.619E-01
RMM:   2    -0.231161269092E+04    0.11218E-02   -0.21774E-02  4336   0.653E-02    0.338E-01
RMM:   3    -0.231161422547E+04   -0.15345E-02   -0.51488E-03  5355   0.332E-02    0.436E-01
RMM:   4    -0.231161223489E+04    0.19906E-02   -0.22239E-03  4684   0.214E-02    0.153E-01
RMM:   5    -0.231161211729E+04    0.11760E-03   -0.55552E-04  3828   0.896E-03    0.861E-02
RMM:   6    -0.231161202826E+04    0.89031E-04   -0.13635E-04  3181   0.592E-03    0.251E-02
RMM:   7    -0.231161202714E+04    0.11207E-05   -0.23900E-05  2983   0.308E-03
   5 F= -.23320746E+04 E0= -.23320746E+04  d E =-.963406E-22  mag=     1.0000
       N       E                     dE             d eps       ncg     rms          rms(c)
DAV:   1    -0.231156273682E+04    0.49291E-01   -0.40506E+00  4480   0.862E-01    0.563E-01
RMM:   2    -0.231156052715E+04    0.22097E-02   -0.24225E-02  4421   0.597E-02    0.301E-01
RMM:   3    -0.231155956162E+04    0.96554E-03   -0.46621E-03  5281   0.297E-02    0.193E-01
RMM:   4    -0.231155964399E+04   -0.82376E-04   -0.15242E-03  4623   0.174E-02    0.212E-01
RMM:   5    -0.231155920640E+04    0.43759E-03   -0.41766E-04  3519   0.953E-03    0.808E-02
RMM:   6    -0.231155911356E+04    0.92842E-04   -0.10045E-04  3057   0.548E-03    0.246E-02
RMM:   7    -0.231155910799E+04    0.55676E-05   -0.23932E-05  3005   0.299E-03
   6 F= -.23320215E+04 E0= -.23320215E+04  d E =-.408581E-23  mag=     1.0000
       N       E                     dE             d eps       ncg     rms          rms(c)
DAV:   1    -0.231158225759E+04   -0.23144E-01   -0.82585E+00  4480   0.102E+00    0.803E-01
RMM:   2    -0.231157846681E+04    0.37908E-02   -0.62050E-02  4686   0.111E-01    0.447E-01
RMM:   3    -0.231157519552E+04    0.32713E-02   -0.10100E-02  5628   0.492E-02    0.189E-01
RMM:   4    -0.231157600585E+04   -0.81033E-03   -0.25739E-03  5063   0.247E-02    0.322E-01
RMM:   5    -0.231157483560E+04    0.11702E-02   -0.84580E-04  4429   0.141E-02    0.808E-02
RMM:   6    -0.231157477160E+04    0.64007E-04   -0.20287E-04  3243   0.767E-03    0.486E-02
RMM:   7    -0.231157474132E+04    0.30276E-04   -0.61671E-05  3159   0.461E-03    0.145E-02
RMM:   8    -0.231157474139E+04   -0.68423E-07   -0.14983E-05  2995   0.309E-03
   7 F= -.23320370E+04 E0= -.23320370E+04  d E =-.213798E-21  mag=     1.0000
       N       E                     dE             d eps       ncg     rms          rms(c)
DAV:   1    -0.231160345570E+04   -0.28714E-01   -0.66706E+00  4800   0.116E+00    0.454E-01
RMM:   2    -0.231160548394E+04   -0.20282E-02   -0.32083E-02  4594   0.744E-02    0.303E-01
RMM:   3    -0.231160742975E+04   -0.19458E-02   -0.52348E-03  5225   0.365E-02    0.534E-01
RMM:   4    -0.231160435493E+04    0.30748E-02   -0.25100E-03  4654   0.243E-02    0.945E-02
RMM:   5    -0.231160429391E+04    0.61018E-04   -0.35410E-04  3482   0.915E-03    0.386E-02
RMM:   6    -0.231160429350E+04    0.41293E-06   -0.81706E-05  3140   0.536E-03
   8 F= -.23320671E+04 E0= -.23320671E+04  d E =-.215796E-10  mag=     1.0000
       N       E                     dE             d eps       ncg     rms          rms(c)
DAV:   1    -0.231157732124E+04    0.26973E-01   -0.20512E+01  4480   0.189E+00    0.608E-01
RMM:   2    -0.231158271797E+04   -0.53967E-02   -0.78816E-02  4409   0.976E-02    0.471E-01
RMM:   3    -0.231158419683E+04   -0.14789E-02   -0.96880E-03  5816   0.400E-02    0.644E-01
RMM:   4    -0.231157960307E+04    0.45938E-02   -0.38850E-03  4858   0.285E-02    0.155E-01
RMM:   5    -0.231157956163E+04    0.41442E-04   -0.10596E-03  4229   0.155E-02    0.928E-02
RMM:   6    -0.231157946234E+04    0.99293E-04   -0.31127E-04  3414   0.896E-03    0.367E-02
RMM:   7    -0.231157945586E+04    0.64804E-05   -0.33104E-05  3093   0.473E-03
   9 F= -.23320415E+04 E0= -.23320415E+04  d E =-.306727E-22  mag=     1.0000
       N       E                     dE             d eps       ncg     rms          rms(c)
DAV:   1    -0.231160457391E+04   -0.25112E-01   -0.10062E+01  4480   0.126E+00    0.472E-01
RMM:   2    -0.231160760769E+04   -0.30338E-02   -0.52235E-02  4419   0.899E-02    0.301E-01
RMM:   3    -0.231160942317E+04   -0.18155E-02   -0.61543E-03  5562   0.362E-02    0.544E-01
RMM:   4    -0.231160602403E+04    0.33991E-02   -0.25372E-03  4715   0.234E-02    0.976E-02
RMM:   5    -0.231160599564E+04    0.28386E-04   -0.47413E-04  3644   0.104E-02    0.537E-02
RMM:   6    -0.231160597355E+04    0.22096E-04   -0.12125E-04  3146   0.646E-03    0.279E-02
RMM:   7    -0.231160596736E+04    0.61910E-05   -0.15510E-05  2968   0.340E-03
  10 F= -.23320684E+04 E0= -.23320684E+04  d E =-.134612E-22  mag=     1.0000
       N       E                     dE             d eps       ncg     rms          rms(c)
DAV:   1    -0.231158995846E+04    0.16015E-01   -0.19790E+01  4480   0.203E+00    0.634E-01
RMM:   2    -0.231159206905E+04   -0.21106E-02   -0.72334E-02  4245   0.108E-01    0.336E-01
RMM:   3    -0.231159037232E+04    0.16967E-02   -0.56994E-03  5186   0.361E-02    0.100E-01
RMM:   4    -0.231159068871E+04   -0.31638E-03   -0.94763E-04  4167   0.149E-02    0.171E-01
RMM:   5    -0.231159037321E+04    0.31550E-03   -0.26897E-04  3380   0.830E-03    0.468E-02
RMM:   6    -0.231159037162E+04    0.15957E-05   -0.70505E-05  3080   0.475E-03
  11 F= -.23320527E+04 E0= -.23320527E+04  d E =-.170598E-22  mag=     1.0000
       N       E                     dE             d eps       ncg     rms          rms(c)
DAV:   1    -0.231164683358E+04   -0.56460E-01   -0.10001E+01  4480   0.134E+00    0.601E-01
RMM:   2    -0.231164604785E+04    0.78573E-03   -0.48611E-02  4492   0.111E-01    0.303E-01
RMM:   3    -0.231164528339E+04    0.76446E-03   -0.64629E-03  4900   0.505E-02    0.234E-01
RMM:   4    -0.231164503248E+04    0.25091E-03   -0.22423E-03  4774   0.237E-02    0.191E-01
RMM:   5    -0.231164478130E+04    0.25118E-03   -0.63983E-04  3972   0.141E-02    0.113E-01
RMM:   6    -0.231164463382E+04    0.14747E-03   -0.17406E-04  3283   0.736E-03    0.307E-02
RMM:   7    -0.231164462176E+04    0.12066E-04   -0.34307E-05  3099   0.395E-03    0.120E-02
RMM:   8    -0.231164462133E+04    0.42254E-06   -0.76760E-06  2913   0.276E-03
  12 F= -.23321077E+04 E0= -.23321077E+04  d E =-.464543E-22  mag=     1.0000
       N       E                     dE             d eps       ncg     rms          rms(c)
DAV:   1    -0.231150518755E+04    0.13943E+00   -0.20475E+01  4480   0.212E+00    0.981E-01
RMM:   2    -0.231150227106E+04    0.29165E-02   -0.13637E-01  4710   0.133E-01    0.494E-01
RMM:   3    -0.231150064634E+04    0.16247E-02   -0.17990E-02  5176   0.653E-02    0.426E-01
RMM:   4    -0.231149927779E+04    0.13685E-02   -0.66853E-03  5369   0.345E-02    0.298E-01
RMM:   5    -0.231149876961E+04    0.50818E-03   -0.16923E-03  4531   0.189E-02    0.199E-01
RMM:   6    -0.231149830335E+04    0.46626E-03   -0.48631E-04  3429   0.110E-02    0.430E-02
RMM:   7    -0.231149827739E+04    0.25956E-04   -0.88593E-05  3211   0.553E-03    0.184E-02
RMM:   8    -0.231149827581E+04    0.15812E-05   -0.23751E-05  3027   0.397E-03
  13 F= -.23319600E+04 E0= -.23319600E+04  d E =-.146048E-22  mag=     1.0000
       N       E                     dE             d eps       ncg     rms          rms(c)
DAV:   1    -0.231155684079E+04   -0.58563E-01   -0.10128E+01  4480   0.129E+00    0.600E-01
RMM:   2    -0.231156275403E+04   -0.59132E-02   -0.96211E-02  4521   0.113E-01    0.458E-01
RMM:   3    -0.231156473831E+04   -0.19843E-02   -0.10174E-02  5263   0.498E-02    0.680E-01
RMM:   4    -0.231155952505E+04    0.52133E-02   -0.38812E-03  4969   0.289E-02    0.107E-01
RMM:   5    -0.231155955769E+04   -0.32638E-04   -0.97806E-04  4155   0.125E-02    0.864E-02
RMM:   6    -0.231155947726E+04    0.80433E-04   -0.24859E-04  3232   0.882E-03    0.302E-02
RMM:   7    -0.231155946646E+04    0.10799E-04   -0.26688E-05  3035   0.398E-03    0.122E-02
RMM:   8    -0.231155946742E+04   -0.95628E-06   -0.10074E-05  2926   0.269E-03
  14 F= -.23320208E+04 E0= -.23320208E+04  d E =-.240863E-21  mag=     1.0000
       N       E                     dE             d eps       ncg     rms          rms(c)
DAV:   1    -0.231162865203E+04   -0.69186E-01   -0.20353E+01  4480   0.145E+00    0.571E-01
RMM:   2    -0.231164323961E+04   -0.14588E-01   -0.10644E-01  4800   0.919E-02    0.835E-01
RMM:   3    -0.231163470507E+04    0.85345E-02   -0.97324E-03  5367   0.418E-02    0.352E-01
RMM:   4    -0.231163352413E+04    0.11809E-02   -0.22512E-03  4236   0.216E-02    0.875E-02
RMM:   5    -0.231163359983E+04   -0.75700E-04   -0.35934E-04  3784   0.101E-02    0.484E-02
RMM:   6    -0.231163359620E+04    0.36295E-05   -0.87785E-05  3095   0.569E-03
  15 F= -.23320970E+04 E0= -.23320970E+04  d E =-.303823E-23  mag=     1.0000
       N       E                     dE             d eps       ncg     rms          rms(c)
DAV:   1    -0.231160292306E+04    0.30677E-01   -0.10109E+01  4480   0.117E+00    0.396E-01
RMM:   2    -0.231160929654E+04   -0.63735E-02   -0.46471E-02  4351   0.648E-02    0.569E-01
RMM:   3    -0.231160535374E+04    0.39428E-02   -0.41845E-03  5258   0.247E-02    0.245E-01
RMM:   4    -0.231160475597E+04    0.59777E-03   -0.85474E-04  3847   0.142E-02    0.695E-02
RMM:   5    -0.231160477658E+04   -0.20613E-04   -0.22455E-04  3483   0.759E-03    0.412E-02
RMM:   6    -0.231160476844E+04    0.81399E-05   -0.59584E-05  3021   0.506E-03
  16 F= -.23320673E+04 E0= -.23320673E+04  d E =-.489425E-21  mag=     1.0000
       N       E                     dE             d eps       ncg     rms          rms(c)
DAV:   1    -0.231159026467E+04    0.14512E-01   -0.19845E+01  4480   0.154E+00    0.462E-01
RMM:   2    -0.231159436356E+04   -0.40989E-02   -0.59188E-02  4078   0.753E-02    0.340E-01
RMM:   3    -0.231159538989E+04   -0.10263E-02   -0.55400E-03  5347   0.266E-02    0.507E-01
RMM:   4    -0.231159238026E+04    0.30096E-02   -0.26427E-03  4842   0.224E-02    0.101E-01
RMM:   5    -0.231159239881E+04   -0.18549E-04   -0.58779E-04  3945   0.102E-02    0.773E-02
RMM:   6    -0.231159232633E+04    0.72478E-04   -0.11986E-04  3125   0.610E-03    0.236E-02
RMM:   7    -0.231159232763E+04   -0.12975E-05   -0.17844E-05  2944   0.322E-03
  17 F= -.23320546E+04 E0= -.23320546E+04  d E =-.500216E-24  mag=     1.0000
       N       E                     dE             d eps       ncg     rms          rms(c)
DAV:   1    -0.231154223771E+04    0.50089E-01   -0.98809E+00  4480   0.115E+00    0.406E-01
RMM:   2    -0.231154962174E+04   -0.73840E-02   -0.47473E-02  4434   0.729E-02    0.707E-01
RMM:   3    -0.231154362175E+04    0.60000E-02   -0.47264E-03  5279   0.298E-02    0.227E-01
RMM:   4    -0.231154346322E+04    0.15854E-03   -0.23771E-03  4639   0.203E-02    0.167E-01
RMM:   5    -0.231154299590E+04    0.46732E-03   -0.72677E-04  4278   0.120E-02    0.474E-02
RMM:   6    -0.231154298064E+04    0.15256E-04   -0.69987E-05  3118   0.510E-03    0.188E-02
RMM:   7    -0.231154298009E+04    0.54706E-06   -0.10131E-05  2898   0.326E-03
  18 F= -.23320050E+04 E0= -.23320050E+04  d E =-.554537E-21  mag=     1.0000
       N       E                     dE             d eps       ncg     rms          rms(c)
DAV:   1    -0.231162615995E+04   -0.83179E-01   -0.19424E+01  4480   0.168E+00    0.787E-01
RMM:   2    -0.231166488198E+04   -0.38722E-01   -0.16460E-01  5046   0.127E-01    0.176E+00
RMM:   3    -0.231162812613E+04    0.36756E-01   -0.22473E-02  5981   0.659E-02    0.372E-01
RMM:   4    -0.231162825550E+04   -0.12937E-03   -0.91932E-03  5164   0.340E-02    0.307E-01
RMM:   5    -0.231162663428E+04    0.16212E-02   -0.27533E-03  5107   0.207E-02    0.138E-01
RMM:   6    -0.231162644153E+04    0.19275E-03   -0.35623E-04  3664   0.910E-03    0.411E-02
RMM:   7    -0.231162644410E+04   -0.25727E-05   -0.35136E-05  3044   0.517E-03
  19 F= -.23320891E+04 E0= -.23320891E+04  d E =-.484208E-11  mag=     1.0000
       N       E                     dE             d eps       ncg     rms          rms(c)
DAV:   1    -0.231155998230E+04    0.66459E-01   -0.51726E+00  4480   0.796E-01    0.446E-01
RMM:   2    -0.231157166326E+04   -0.11681E-01   -0.68864E-02  4703   0.767E-02    0.881E-01
RMM:   3    -0.231156220438E+04    0.94589E-02   -0.67143E-03  5558   0.361E-02    0.246E-01
RMM:   4    -0.231156201765E+04    0.18673E-03   -0.21785E-03  4378   0.196E-02    0.182E-01
RMM:   5    -0.231156157405E+04    0.44360E-03   -0.86499E-04  4438   0.123E-02    0.845E-02
RMM:   6    -0.231156150922E+04    0.64830E-04   -0.19966E-04  3325   0.712E-03    0.221E-02
RMM:   7    -0.231156150529E+04    0.39296E-05   -0.11758E-05  2914   0.349E-03
  20 F= -.23320247E+04 E0= -.23320247E+04  d E =-.242914E-22  mag=     1.0000
       N       E                     dE             d eps       ncg     rms          rms(c)
DAV:   1    -0.231162533743E+04   -0.63828E-01   -0.11852E+00  4960   0.389E-01    0.472E-01
RMM:   2    -0.231162318198E+04    0.21554E-02   -0.10799E-02  4132   0.347E-02    0.283E-01
RMM:   3    -0.231162401484E+04   -0.83285E-03   -0.32402E-03  4911   0.220E-02    0.395E-01
RMM:   4    -0.231162263155E+04    0.13833E-02   -0.17843E-03  4590   0.173E-02    0.190E-01
RMM:   5    -0.231162241137E+04    0.22017E-03   -0.94903E-04  4096   0.137E-02    0.116E-01
RMM:   6    -0.231162223444E+04    0.17694E-03   -0.14271E-04  3045   0.613E-03    0.174E-02
RMM:   7    -0.231162223305E+04    0.13875E-05   -0.21427E-05  2743   0.271E-03
  21 F= -.23320838E+04 E0= -.23320838E+04  d E =-.803736E-23  mag=     1.0000
       N       E                     dE             d eps       ncg     rms          rms(c)
DAV:   1    -0.231159929726E+04    0.22937E-01   -0.59590E-01  4880   0.249E-01    0.301E-01
RMM:   2    -0.231159862711E+04    0.67015E-03   -0.34868E-03  3772   0.196E-02    0.176E-01
RMM:   3    -0.231159912419E+04   -0.49708E-03   -0.11601E-03  4209   0.136E-02    0.261E-01
RMM:   4    -0.231159844677E+04    0.67742E-03   -0.66754E-04  3791   0.115E-02    0.945E-02
RMM:   5    -0.231159841381E+04    0.32956E-04   -0.27017E-04  3277   0.802E-03    0.634E-02
RMM:   6    -0.231159835592E+04    0.57886E-04   -0.49740E-05  2737   0.419E-03    0.995E-03
RMM:   7    -0.231159835543E+04    0.49137E-06   -0.80137E-06  2520   0.182E-03
  22 F= -.23320607E+04 E0= -.23320607E+04  d E =-.206086E-22  mag=     1.0000
       N       E                     dE             d eps       ncg     rms          rms(c)
DAV:   1    -0.231159807701E+04    0.27891E-03   -0.11838E+00  4480   0.361E-01    0.361E-01
RMM:   2    -0.231159756488E+04    0.51214E-03   -0.27574E-03  3783   0.195E-02    0.209E-01
RMM:   3    -0.231159770878E+04   -0.14390E-03   -0.14201E-03  4459   0.138E-02    0.156E-01
RMM:   4    -0.231159740390E+04    0.30488E-03   -0.53233E-04  3361   0.114E-02    0.693E-02
RMM:   5    -0.231159737717E+04    0.26731E-04   -0.10926E-04  2940   0.486E-03    0.434E-02
RMM:   6    -0.231159735391E+04    0.23258E-04   -0.16394E-05  2669   0.270E-03    0.975E-03
RMM:   7    -0.231159735279E+04    0.11234E-05   -0.57853E-06  2588   0.172E-03
  23 F= -.23320598E+04 E0= -.23320598E+04  d E =-.989838E-23  mag=     1.0000
       N       E                     dE             d eps       ncg     rms          rms(c)
DAV:   1    -0.231159822811E+04   -0.87420E-03   -0.60811E-01  4800   0.258E-01    0.297E-01
RMM:   2    -0.231159752657E+04    0.70154E-03   -0.38931E-03  3891   0.212E-02    0.171E-01
RMM:   3    -0.231159755885E+04   -0.32275E-04   -0.10775E-03  4262   0.132E-02    0.154E-01
RMM:   4    -0.231159730263E+04    0.25622E-03   -0.62463E-04  3612   0.900E-03    0.608E-02
RMM:   5    -0.231159732911E+04   -0.26478E-04   -0.12493E-04  3018   0.554E-03    0.713E-02
RMM:   6    -0.231159727101E+04    0.58101E-04   -0.47654E-05  2650   0.390E-03    0.116E-02
RMM:   7    -0.231159726976E+04    0.12484E-05   -0.61254E-06  2293   0.152E-03
  24 F= -.23320598E+04 E0= -.23320598E+04  d E =-.138448E-22  mag=     1.0000
       N       E                     dE             d eps       ncg     rms          rms(c)
DAV:   1    -0.231158987251E+04    0.73985E-02   -0.12007E+00  4960   0.360E-01    0.445E-01
RMM:   2    -0.231158787881E+04    0.19937E-02   -0.10965E-02  4099   0.349E-02    0.250E-01
RMM:   3    -0.231158777217E+04    0.10664E-03   -0.22648E-03  4638   0.205E-02    0.226E-01
RMM:   4    -0.231158740705E+04    0.36512E-03   -0.13378E-03  4212   0.130E-02    0.147E-01
RMM:   5    -0.231158745464E+04   -0.47597E-04   -0.57261E-04  3610   0.111E-02    0.151E-01
RMM:   6    -0.231158718623E+04    0.26842E-03   -0.18476E-04  3039   0.740E-03    0.162E-02
RMM:   7    -0.231158718397E+04    0.22603E-05   -0.21476E-05  2741   0.245E-03
  25 F= -.23320495E+04 E0= -.23320495E+04  d E =-.128229E-22  mag=     1.0000
