       N       E                     dE             d eps       ncg     rms          rms(c)
DAV:   1     0.128683082063E+05    0.12868E+05   -0.85253E+05  4480   0.144E+03
DAV:   2    -0.127935660677E+04   -0.14148E+05   -0.13578E+05  5120   0.326E+02
DAV:   3    -0.250641996494E+04   -0.12271E+04   -0.12177E+04  5440   0.105E+02
DAV:   4    -0.253216568119E+04   -0.25746E+02   -0.25614E+02  5440   0.177E+01
DAV:   5    -0.253293629476E+04   -0.77061E+00   -0.76941E+00  5760   0.281E+00    0.170E+02
RMM:   6    -0.149764077696E+04    0.10353E+04   -0.19328E+03  4510   0.379E+01    0.722E+01
RMM:   7    -0.166961986883E+04   -0.17198E+03   -0.28543E+02  5156   0.140E+01    0.522E+01
RMM:   8    -0.172258744744E+04   -0.52968E+02   -0.72829E+01  5335   0.809E+00    0.467E+01
RMM:   9    -0.178700911517E+04   -0.64422E+02   -0.57493E+01  5123   0.722E+00    0.401E+01
RMM:  10    -0.187736800635E+04   -0.90359E+02   -0.54368E+01  5242   0.706E+00    0.332E+01
RMM:  11    -0.197126963208E+04   -0.93902E+02   -0.41135E+01  5210   0.587E+00    0.245E+01
RMM:  12    -0.203626538781E+04   -0.64996E+02   -0.24156E+01  5164   0.425E+00    0.199E+01
RMM:  13    -0.210445100589E+04   -0.68186E+02   -0.27338E+01  4885   0.398E+00    0.150E+01
RMM:  14    -0.219013731326E+04   -0.85686E+02   -0.49284E+01  4660   0.530E+00    0.123E+01
RMM:  15    -0.226362869078E+04   -0.73491E+02   -0.55580E+01  4940   0.549E+00    0.828E+00
RMM:  16    -0.231094718785E+04   -0.47318E+02   -0.45887E+01  4606   0.460E+00    0.574E+00
RMM:  17    -0.232013044251E+04   -0.91833E+01   -0.11024E+01  4761   0.277E+00    0.455E+00
RMM:  18    -0.232290792323E+04   -0.27775E+01   -0.35326E+00  5201   0.108E+00    0.240E+00
RMM:  19    -0.232473878465E+04   -0.18309E+01   -0.10085E+00  4789   0.798E-01    0.146E+00
RMM:  20    -0.232535471360E+04   -0.61593E+00   -0.25123E-01  5218   0.398E-01    0.987E-01
RMM:  21    -0.232555006404E+04   -0.19535E+00   -0.65887E-02  4981   0.196E-01    0.533E-01
RMM:  22    -0.232564350032E+04   -0.93436E-01   -0.29914E-02  4565   0.149E-01    0.268E-01
RMM:  23    -0.232567252408E+04   -0.29024E-01   -0.11395E-02  4582   0.101E-01    0.161E-01
RMM:  24    -0.232569044601E+04   -0.17922E-01   -0.62754E-03  4502   0.688E-02    0.886E-02
RMM:  25    -0.232570269063E+04   -0.12245E-01   -0.37095E-03  4509   0.557E-02    0.590E-02
RMM:  26    -0.232571118769E+04   -0.84971E-02   -0.28291E-03  4494   0.448E-02    0.376E-02
RMM:  27    -0.232571578505E+04   -0.45974E-02   -0.17122E-03  4513   0.372E-02    0.302E-02
RMM:  28    -0.232571791800E+04   -0.21329E-02   -0.98172E-04  4240   0.255E-02    0.156E-02
RMM:  29    -0.232571847237E+04   -0.55438E-03   -0.29444E-04  3996   0.177E-02    0.914E-03
RMM:  30    -0.232571871228E+04   -0.23990E-03   -0.10411E-04  3727   0.857E-03    0.476E-03
RMM:  31    -0.232571884681E+04   -0.13453E-03   -0.38135E-05  3463   0.649E-03    0.264E-03
RMM:  32    -0.232571891040E+04   -0.63593E-04   -0.17944E-05  3087   0.379E-03    0.185E-03
RMM:  33    -0.232571893664E+04   -0.26243E-04   -0.81133E-06  2876   0.311E-03    0.103E-03
RMM:  34    -0.232571894276E+04   -0.61176E-05   -0.38622E-06  2466   0.219E-03
   1 F= -.23471448E+04 E0= -.23471447E+04  d E =-.113573E-04  mag=     5.0000
       N       E                     dE             d eps       ncg     rms          rms(c)
DAV:   1    -0.232570816221E+04    0.10774E-01   -0.19354E+00  4480   0.509E-01    0.387E-01
RMM:   2    -0.232571050911E+04   -0.23469E-02   -0.15786E-02  5110   0.499E-02    0.584E-01
RMM:   3    -0.232570853918E+04    0.19699E-02   -0.44434E-03  5508   0.294E-02    0.398E-01
RMM:   4    -0.232570737368E+04    0.11655E-02   -0.15524E-03  4125   0.171E-02    0.222E-01
RMM:   5    -0.232570706859E+04    0.30509E-03   -0.11016E-03  3956   0.153E-02    0.146E-01
RMM:   6    -0.232570685478E+04    0.21380E-03   -0.23263E-04  3264   0.821E-03    0.388E-02
RMM:   7    -0.232570686630E+04   -0.11510E-04   -0.68264E-05  3008   0.553E-03    0.455E-02
RMM:   8    -0.232570684382E+04    0.22477E-04   -0.27332E-05  2846   0.365E-03    0.187E-02
RMM:   9    -0.232570683873E+04    0.50911E-05   -0.13513E-05  2876   0.262E-03
   2 F= -.23471355E+04 E0= -.23471355E+04  d E =-.152394E-04  mag=     5.0000
       N       E                     dE             d eps       ncg     rms          rms(c)
DAV:   1    -0.232571618253E+04   -0.93387E-02   -0.76636E+00  4480   0.102E+00    0.751E-01
RMM:   2    -0.232572524846E+04   -0.90659E-02   -0.58192E-02  5400   0.959E-02    0.113E+00
RMM:   3    -0.232571756316E+04    0.76853E-02   -0.16631E-02  6003   0.577E-02    0.763E-01
RMM:   4    -0.232571331723E+04    0.42459E-02   -0.58631E-03  5069   0.328E-02    0.428E-01
RMM:   5    -0.232571227298E+04    0.10442E-02   -0.40701E-03  5164   0.289E-02    0.290E-01
RMM:   6    -0.232571141532E+04    0.85766E-03   -0.81535E-04  4533   0.136E-02    0.682E-02
RMM:   7    -0.232571144613E+04   -0.30808E-04   -0.20279E-04  3142   0.806E-03    0.730E-02
RMM:   8    -0.232571139757E+04    0.48554E-04   -0.89525E-05  3020   0.558E-03    0.325E-02
RMM:   9    -0.232571139692E+04    0.65293E-06   -0.34011E-05  3002   0.402E-03
   3 F= -.23471355E+04 E0= -.23471355E+04  d E =-.800674E-05  mag=     5.0000
       N       E                     dE             d eps       ncg     rms          rms(c)
DAV:   1    -0.232571188583E+04   -0.48826E-03   -0.37420E+00  4480   0.766E-01    0.423E-01
RMM:   2    -0.232571298395E+04   -0.10981E-02   -0.18136E-02  4653   0.526E-02    0.346E-01
RMM:   3    -0.232571317894E+04   -0.19499E-03   -0.39219E-03  5490   0.251E-02    0.404E-01
RMM:   4    -0.232571285057E+04    0.32837E-03   -0.26134E-03  4933   0.226E-02    0.373E-01
RMM:   5    -0.232571154680E+04    0.13038E-02   -0.91122E-04  3438   0.137E-02    0.815E-02
RMM:   6    -0.232571150886E+04    0.37939E-04   -0.11134E-04  3001   0.633E-03    0.360E-02
RMM:   7    -0.232571151017E+04   -0.13016E-05   -0.50291E-05  2854   0.445E-03
   4 F= -.23471375E+04 E0= -.23471375E+04  d E =-.750192E-05  mag=     5.0000
       N       E                     dE             d eps       ncg     rms          rms(c)
DAV:   1    -0.232571325696E+04   -0.17481E-02   -0.74923E+00  4480   0.105E+00    0.686E-01
RMM:   2    -0.232571804060E+04   -0.47836E-02   -0.36530E-02  4836   0.791E-02    0.814E-01
RMM:   3    -0.232571620832E+04    0.18323E-02   -0.10200E-02  5654   0.437E-02    0.739E-01
RMM:   4    -0.232571279303E+04    0.34153E-02   -0.54723E-03  5313   0.317E-02    0.346E-01
RMM:   5    -0.232571154810E+04    0.12449E-02   -0.23959E-03  4701   0.237E-02    0.156E-01
RMM:   6    -0.232571127872E+04    0.26938E-03   -0.29914E-04  3255   0.932E-03    0.427E-02
RMM:   7    -0.232571127925E+04   -0.53136E-06   -0.68022E-05  3043   0.535E-03
   5 F= -.23471370E+04 E0= -.23471370E+04  d E =-.170631E-04  mag=     5.0000
       N       E                     dE             d eps       ncg     rms          rms(c)
DAV:   1    -0.232569052899E+04    0.20750E-01   -0.37628E+00  4480   0.762E-01    0.461E-01
RMM:   2    -0.232569071579E+04   -0.18680E-03   -0.20839E-02  4697   0.580E-02    0.400E-01
RMM:   3    -0.232569177530E+04   -0.10595E-02   -0.50807E-03  5044   0.299E-02    0.552E-01
RMM:   4    -0.232568971538E+04    0.20599E-02   -0.27384E-03  4923   0.225E-02    0.300E-01
RMM:   5    -0.232568887962E+04    0.83576E-03   -0.15730E-03  4402   0.184E-02    0.137E-01
RMM:   6    -0.232568863757E+04    0.24205E-03   -0.18704E-04  3178   0.785E-03    0.279E-02
RMM:   7    -0.232568863655E+04    0.10185E-05   -0.42128E-05  3019   0.469E-03
   6 F= -.23471130E+04 E0= -.23471130E+04  d E =-.120002E-04  mag=     5.0000
       N       E                     dE             d eps       ncg     rms          rms(c)
DAV:   1    -0.232569588886E+04   -0.72513E-02   -0.83180E+00  4480   0.114E+00    0.932E-01
RMM:   2    -0.232568972915E+04    0.61597E-02   -0.64056E-02  4708   0.984E-02    0.595E-01
RMM:   3    -0.232570036603E+04   -0.10637E-01   -0.20745E-02  6218   0.587E-02    0.127E+00
RMM:   4    -0.232568516303E+04    0.15203E-01   -0.13779E-02  5836   0.522E-02    0.473E-01
RMM:   5    -0.232568306574E+04    0.20973E-02   -0.40109E-03  4895   0.257E-02    0.192E-01
RMM:   6    -0.232568269507E+04    0.37067E-03   -0.45344E-04  3346   0.997E-03    0.612E-02
RMM:   7    -0.232568271272E+04   -0.17651E-04   -0.15876E-04  3084   0.763E-03    0.795E-02
RMM:   8    -0.232568264501E+04    0.67714E-04   -0.86200E-05  3005   0.611E-03    0.233E-02
RMM:   9    -0.232568263390E+04    0.11103E-04   -0.36300E-05  3050   0.448E-03    0.100E-02
RMM:  10    -0.232568263115E+04    0.27486E-05   -0.11630E-05  2923   0.400E-03
   7 F= -.23471104E+04 E0= -.23471104E+04  d E =-.112634E-04  mag=     5.0000
       N       E                     dE             d eps       ncg     rms          rms(c)
DAV:   1    -0.232570991662E+04   -0.27283E-01   -0.63748E+00  4480   0.986E-01    0.563E-01
RMM:   2    -0.232571051754E+04   -0.60092E-03   -0.46312E-02  4483   0.742E-02    0.370E-01
RMM:   3    -0.232571303833E+04   -0.25208E-02   -0.76453E-03  5899   0.359E-02    0.694E-01
RMM:   4    -0.232570865662E+04    0.43817E-02   -0.41845E-03  5375   0.283E-02    0.291E-01
RMM:   5    -0.232570821341E+04    0.44321E-03   -0.18340E-03  4150   0.173E-02    0.201E-01
RMM:   6    -0.232570775995E+04    0.45346E-03   -0.37403E-04  3267   0.101E-02    0.344E-02
RMM:   7    -0.232570776954E+04   -0.95904E-05   -0.73988E-05  3041   0.574E-03
   8 F= -.23471343E+04 E0= -.23471343E+04  d E =-.116247E-04  mag=     5.0000
       N       E                     dE             d eps       ncg     rms          rms(c)
DAV:   1    -0.232571170042E+04   -0.39405E-02   -0.20424E+01  4480   0.163E+00    0.726E-01
RMM:   2    -0.232571191212E+04   -0.21169E-03   -0.83567E-02  4273   0.972E-02    0.372E-01
RMM:   3    -0.232571105934E+04    0.85277E-03   -0.75633E-03  5581   0.425E-02    0.445E-01
RMM:   4    -0.232570985992E+04    0.11994E-02   -0.34844E-03  5587   0.262E-02    0.344E-01
RMM:   5    -0.232570933847E+04    0.52144E-03   -0.17577E-03  4186   0.176E-02    0.224E-01
RMM:   6    -0.232570874981E+04    0.58866E-03   -0.56003E-04  3247   0.123E-02    0.486E-02
RMM:   7    -0.232570872225E+04    0.27564E-04   -0.75910E-05  3084   0.558E-03    0.207E-02
RMM:   8    -0.232570873080E+04   -0.85569E-05   -0.25072E-05  2990   0.417E-03
   9 F= -.23471338E+04 E0= -.23471338E+04  d E =-.115574E-04  mag=     5.0000
       N       E                     dE             d eps       ncg     rms          rms(c)
DAV:   1    -0.232571488396E+04   -0.61617E-02   -0.10164E+01  4480   0.113E+00    0.347E-01
RMM:   2    -0.232571593708E+04   -0.10531E-02   -0.29799E-02  4027   0.571E-02    0.202E-01
RMM:   3    -0.232571747489E+04   -0.15378E-02   -0.35716E-03  5072   0.242E-02    0.494E-01
RMM:   4    -0.232571507506E+04    0.23998E-02   -0.14561E-03  4277   0.164E-02    0.830E-02
RMM:   5    -0.232571513768E+04   -0.62616E-04   -0.33190E-04  3173   0.885E-03    0.882E-02
RMM:   6    -0.232571505710E+04    0.80580E-04   -0.90977E-05  2914   0.590E-03    0.230E-02
RMM:   7    -0.232571505679E+04    0.31006E-06   -0.15161E-05  2805   0.258E-03
  10 F= -.23471402E+04 E0= -.23471402E+04  d E =-.138198E-04  mag=     5.0000
       N       E                     dE             d eps       ncg     rms          rms(c)
DAV:   1    -0.232571570048E+04   -0.64338E-03   -0.20059E+01  4480   0.159E+00    0.604E-01
RMM:   2    -0.232571628599E+04   -0.58551E-03   -0.62676E-02  4270   0.862E-02    0.328E-01
RMM:   3    -0.232571667337E+04   -0.38739E-03   -0.70000E-03  5662   0.350E-02    0.512E-01
RMM:   4    -0.232571436598E+04    0.23074E-02   -0.39039E-03  4741   0.242E-02    0.244E-01
RMM:   5    -0.232571437067E+04   -0.46902E-05   -0.13380E-03  4257   0.160E-02    0.235E-01
RMM:   6    -0.232571380646E+04    0.56421E-03   -0.46551E-04  3507   0.107E-02    0.479E-02
RMM:   7    -0.232571382038E+04   -0.13920E-04   -0.86649E-05  3034   0.567E-03    0.450E-02
RMM:   8    -0.232571380455E+04    0.15828E-04   -0.43674E-05  2922   0.422E-03    0.272E-02
RMM:   9    -0.232571379898E+04    0.55732E-05   -0.11451E-05  2845   0.276E-03
  11 F= -.23471403E+04 E0= -.23471403E+04  d E =-.932044E-05  mag=     5.0000
       N       E                     dE             d eps       ncg     rms          rms(c)
DAV:   1    -0.232570821939E+04    0.55852E-02   -0.10029E+01  4480   0.113E+00    0.397E-01
RMM:   2    -0.232570937991E+04   -0.11605E-02   -0.33714E-02  4486   0.635E-02    0.321E-01
RMM:   3    -0.232570999731E+04   -0.61740E-03   -0.42876E-03  5552   0.277E-02    0.478E-01
RMM:   4    -0.232570810574E+04    0.18916E-02   -0.20986E-03  4413   0.196E-02    0.222E-01
RMM:   5    -0.232570794521E+04    0.16053E-03   -0.11480E-03  3854   0.144E-02    0.173E-01
RMM:   6    -0.232570767046E+04    0.27475E-03   -0.30880E-04  3310   0.945E-03    0.385E-02
RMM:   7    -0.232570767151E+04   -0.10444E-05   -0.54983E-05  2979   0.509E-03
  12 F= -.23471342E+04 E0= -.23471342E+04  d E =-.100373E-04  mag=     5.0000
       N       E                     dE             d eps       ncg     rms          rms(c)
DAV:   1    -0.232571561466E+04   -0.79442E-02   -0.20260E+01  4480   0.159E+00    0.820E-01
RMM:   2    -0.232571382169E+04    0.17930E-02   -0.95624E-02  4882   0.106E-01    0.607E-01
RMM:   3    -0.232572016052E+04   -0.63388E-02   -0.17786E-02  5865   0.596E-02    0.109E+00
RMM:   4    -0.232570923171E+04    0.10929E-01   -0.76170E-03  5479   0.374E-02    0.335E-01
RMM:   5    -0.232570963524E+04   -0.40353E-03   -0.42774E-03  5162   0.256E-02    0.371E-01
RMM:   6    -0.232570833865E+04    0.12966E-02   -0.13538E-03  4300   0.170E-02    0.791E-02
RMM:   7    -0.232570831629E+04    0.22363E-04   -0.16267E-04  3131   0.743E-03    0.396E-02
RMM:   8    -0.232570832850E+04   -0.12214E-04   -0.43673E-05  3000   0.426E-03    0.316E-02
RMM:   9    -0.232570833699E+04   -0.84903E-05   -0.33375E-05  2900   0.384E-03
  13 F= -.23471335E+04 E0= -.23471335E+04  d E =-.117479E-04  mag=     5.0000
       N       E                     dE             d eps       ncg     rms          rms(c)
DAV:   1    -0.232571380632E+04   -0.54778E-02   -0.10243E+01  4480   0.112E+00    0.507E-01
RMM:   2    -0.232571987392E+04   -0.60676E-02   -0.66571E-02  4650   0.866E-02    0.545E-01
RMM:   3    -0.232571934166E+04    0.53226E-03   -0.69823E-03  5702   0.356E-02    0.588E-01
RMM:   4    -0.232571663410E+04    0.27076E-02   -0.30109E-03  4726   0.238E-02    0.256E-01
RMM:   5    -0.232571638902E+04    0.24509E-03   -0.16288E-03  4135   0.175E-02    0.187E-01
RMM:   6    -0.232571613662E+04    0.25239E-03   -0.38294E-04  3266   0.101E-02    0.479E-02
RMM:   7    -0.232571613716E+04   -0.53125E-06   -0.55076E-05  2988   0.488E-03
  14 F= -.23471417E+04 E0= -.23471417E+04  d E =-.944911E-05  mag=     5.0000
       N       E                     dE             d eps       ncg     rms          rms(c)
DAV:   1    -0.232571584041E+04    0.29622E-03   -0.20790E+01  4480   0.155E+00    0.556E-01
RMM:   2    -0.232572031704E+04   -0.44766E-02   -0.65661E-02  4688   0.894E-02    0.594E-01
RMM:   3    -0.232571998652E+04    0.33052E-03   -0.77962E-03  5890   0.356E-02    0.637E-01
RMM:   4    -0.232571696044E+04    0.30261E-02   -0.39602E-03  4668   0.265E-02    0.321E-01
RMM:   5    -0.232571646075E+04    0.49970E-03   -0.24182E-03  4376   0.216E-02    0.209E-01
RMM:   6    -0.232571605978E+04    0.40096E-03   -0.56605E-04  3515   0.117E-02    0.415E-02
RMM:   7    -0.232571607987E+04   -0.20085E-04   -0.10033E-04  3027   0.651E-03    0.520E-02
RMM:   8    -0.232571605483E+04    0.25036E-04   -0.37546E-05  2870   0.380E-03    0.203E-02
RMM:   9    -0.232571605273E+04    0.21027E-05   -0.16362E-05  2879   0.283E-03
  15 F= -.23471421E+04 E0= -.23471421E+04  d E =-.134830E-04  mag=     5.0000
       N       E                     dE             d eps       ncg     rms          rms(c)
DAV:   1    -0.232571505112E+04    0.10037E-02   -0.10017E+01  4480   0.113E+00    0.452E-01
RMM:   2    -0.232571560281E+04   -0.55169E-03   -0.34532E-02  4097   0.678E-02    0.289E-01
RMM:   3    -0.232571864305E+04   -0.30402E-02   -0.54467E-03  5663   0.284E-02    0.656E-01
RMM:   4    -0.232571475807E+04    0.38850E-02   -0.31566E-03  4992   0.244E-02    0.199E-01
RMM:   5    -0.232571452682E+04    0.23125E-03   -0.76437E-04  3342   0.123E-02    0.997E-02
RMM:   6    -0.232571445285E+04    0.73969E-04   -0.10405E-04  3005   0.646E-03    0.286E-02
RMM:   7    -0.232571446747E+04   -0.14615E-04   -0.34261E-05  2887   0.370E-03    0.314E-02
RMM:   8    -0.232571445810E+04    0.93664E-05   -0.17752E-05  2778   0.297E-03
  16 F= -.23471404E+04 E0= -.23471404E+04  d E =-.114316E-04  mag=     5.0000
       N       E                     dE             d eps       ncg     rms          rms(c)
DAV:   1    -0.232572018198E+04   -0.57145E-02   -0.19814E+01  4480   0.161E+00    0.713E-01
RMM:   2    -0.232571837940E+04    0.18026E-02   -0.66392E-02  4182   0.914E-02    0.434E-01
RMM:   3    -0.232572573558E+04   -0.73562E-02   -0.11624E-02  5921   0.406E-02    0.105E+00
RMM:   4    -0.232571563829E+04    0.10097E-01   -0.68849E-03  5457   0.348E-02    0.173E-01
RMM:   5    -0.232571573253E+04   -0.94233E-04   -0.10465E-03  3637   0.142E-02    0.109E-01
RMM:   6    -0.232571559978E+04    0.13275E-03   -0.26363E-04  3081   0.862E-03    0.534E-02
RMM:   7    -0.232571557641E+04    0.23368E-04   -0.45480E-05  2934   0.441E-03    0.216E-02
RMM:   8    -0.232571558518E+04   -0.87692E-05   -0.23436E-05  2846   0.334E-03
  17 F= -.23471413E+04 E0= -.23471413E+04  d E =-.112266E-04  mag=     5.0000
       N       E                     dE             d eps       ncg     rms          rms(c)
DAV:   1    -0.232569257546E+04    0.23001E-01   -0.99546E+00  4480   0.115E+00    0.535E-01
RMM:   2    -0.232569147431E+04    0.11011E-02   -0.34952E-02  4047   0.688E-02    0.325E-01
RMM:   3    -0.232569639202E+04   -0.49177E-02   -0.75732E-03  5581   0.332E-02    0.836E-01
RMM:   4    -0.232568953626E+04    0.68558E-02   -0.40388E-03  5195   0.273E-02    0.105E-01
RMM:   5    -0.232568964789E+04   -0.11162E-03   -0.72181E-04  3435   0.125E-02    0.113E-01
RMM:   6    -0.232568947998E+04    0.16791E-03   -0.19881E-04  3065   0.789E-03    0.387E-02
RMM:   7    -0.232568946500E+04    0.14985E-04   -0.33079E-05  2958   0.399E-03    0.198E-02
RMM:   8    -0.232568946832E+04   -0.33218E-05   -0.24098E-05  2910   0.360E-03
  18 F= -.23471148E+04 E0= -.23471148E+04  d E =-.142309E-04  mag=     5.0000
       N       E                     dE             d eps       ncg     rms          rms(c)
DAV:   1    -0.232570530035E+04   -0.15835E-01   -0.19982E+01  4480   0.165E+00    0.101E+00
RMM:   2    -0.232569943099E+04    0.58694E-02   -0.12453E-01  4283   0.117E-01    0.523E-01
RMM:   3    -0.232569854352E+04    0.88747E-03   -0.13393E-02  5696   0.496E-02    0.780E-01
RMM:   4    -0.232569423654E+04    0.43070E-02   -0.75007E-03  5657   0.354E-02    0.466E-01
RMM:   5    -0.232569232219E+04    0.19144E-02   -0.28087E-03  4807   0.245E-02    0.159E-01
RMM:   6    -0.232569213654E+04    0.18565E-03   -0.75214E-04  3892   0.148E-02    0.110E-01
RMM:   7    -0.232569198004E+04    0.15650E-03   -0.22235E-04  3400   0.849E-03    0.391E-02
RMM:   8    -0.232569198605E+04   -0.60169E-05   -0.68389E-05  3072   0.567E-03
  19 F= -.23471183E+04 E0= -.23471183E+04  d E =-.902858E-05  mag=     5.0000
       N       E                     dE             d eps       ncg     rms          rms(c)
DAV:   1    -0.232572334148E+04   -0.31361E-01   -0.53186E+00  4480   0.852E-01    0.541E-01
RMM:   2    -0.232572298338E+04    0.35810E-03   -0.46743E-02  4141   0.715E-02    0.289E-01
RMM:   3    -0.232572307242E+04   -0.89041E-04   -0.44854E-03  5039   0.273E-02    0.427E-01
RMM:   4    -0.232572164775E+04    0.14247E-02   -0.25760E-03  4507   0.204E-02    0.250E-01
RMM:   5    -0.232572155578E+04    0.91971E-04   -0.12363E-03  4152   0.159E-02    0.206E-01
RMM:   6    -0.232572105234E+04    0.50344E-03   -0.41195E-04  3472   0.105E-02    0.512E-02
RMM:   7    -0.232572103276E+04    0.19577E-04   -0.70235E-05  3026   0.548E-03    0.224E-02
RMM:   8    -0.232572103746E+04   -0.46943E-05   -0.25229E-05  2858   0.369E-03
  20 F= -.23471443E+04 E0= -.23471443E+04  d E =-.160356E-04  mag=     5.0000
       N       E                     dE             d eps       ncg     rms          rms(c)
DAV:   1    -0.232571797902E+04    0.30537E-02   -0.10649E+00  4480   0.302E-01    0.427E-01
RMM:   2    -0.232571673173E+04    0.12473E-02   -0.76059E-03  4851   0.318E-02    0.296E-01
RMM:   3    -0.232571748682E+04   -0.75510E-03   -0.42431E-03  5075   0.273E-02    0.396E-01
RMM:   4    -0.232571599454E+04    0.14923E-02   -0.19027E-03  4571   0.194E-02    0.162E-01
RMM:   5    -0.232571605381E+04   -0.59265E-04   -0.61175E-04  3261   0.101E-02    0.175E-01
RMM:   6    -0.232571577762E+04    0.27619E-03   -0.20175E-04  3022   0.752E-03    0.385E-02
RMM:   7    -0.232571579403E+04   -0.16417E-04   -0.65663E-05  2893   0.451E-03    0.436E-02
RMM:   8    -0.232571577157E+04    0.22462E-04   -0.29440E-05  2819   0.352E-03    0.152E-02
RMM:   9    -0.232571577046E+04    0.11147E-05   -0.47171E-06  2605   0.196E-03
  21 F= -.23471447E+04 E0= -.23471447E+04  d E =-.833397E-05  mag=     5.0000
       N       E                     dE             d eps       ncg     rms          rms(c)
DAV:   1    -0.232571632901E+04   -0.55744E-03   -0.54787E-01  4480   0.233E-01    0.276E-01
RMM:   2    -0.232571870751E+04   -0.23785E-02   -0.60639E-03  5367   0.299E-02    0.520E-01
RMM:   3    -0.232571608154E+04    0.26260E-02   -0.23628E-03  5029   0.210E-02    0.204E-01
RMM:   4    -0.232571628261E+04   -0.20107E-03   -0.10394E-03  3300   0.119E-02    0.234E-01
RMM:   5    -0.232571573442E+04    0.54818E-03   -0.40172E-04  3188   0.970E-03    0.362E-02
RMM:   6    -0.232571574171E+04   -0.72853E-05   -0.67002E-05  2886   0.452E-03
  22 F= -.23471408E+04 E0= -.23471407E+04  d E =-.104038E-04  mag=     5.0000
       N       E                     dE             d eps       ncg     rms          rms(c)
DAV:   1    -0.232571535270E+04    0.38172E-03   -0.11280E+00  4480   0.309E-01    0.364E-01
RMM:   2    -0.232572219186E+04   -0.68392E-02   -0.13248E-02  5721   0.432E-02    0.867E-01
RMM:   3    -0.232571468922E+04    0.75026E-02   -0.46321E-03  5547   0.302E-02    0.254E-01
RMM:   4    -0.232571478875E+04   -0.99538E-04   -0.16776E-03  3654   0.152E-02    0.246E-01
RMM:   5    -0.232571419090E+04    0.59786E-03   -0.75302E-04  3504   0.117E-02    0.679E-02
RMM:   6    -0.232571419752E+04   -0.66236E-05   -0.13214E-04  2961   0.635E-03    0.538E-02
RMM:   7    -0.232571416818E+04    0.29345E-04   -0.46236E-05  2800   0.412E-03    0.335E-02
RMM:   8    -0.232571415805E+04    0.10126E-04   -0.13582E-05  2778   0.245E-03    0.985E-03
RMM:   9    -0.232571415852E+04   -0.47374E-06   -0.35876E-06  2570   0.160E-03
  23 F= -.23471409E+04 E0= -.23471409E+04  d E =-.126045E-04  mag=     5.0000
       N       E                     dE             d eps       ncg     rms          rms(c)
DAV:   1    -0.232571721625E+04   -0.30582E-02   -0.57517E-01  4480   0.227E-01    0.284E-01
RMM:   2    -0.232572049285E+04   -0.32766E-02   -0.68357E-03  5413   0.306E-02    0.612E-01
RMM:   3    -0.232571684094E+04    0.36519E-02   -0.26947E-03  5085   0.225E-02    0.209E-01
RMM:   4    -0.232571696798E+04   -0.12705E-03   -0.11191E-03  3491   0.129E-02    0.202E-01
RMM:   5    -0.232571654322E+04    0.42476E-03   -0.56827E-04  3351   0.104E-02    0.684E-02
RMM:   6    -0.232571652920E+04    0.14020E-04   -0.83657E-05  2957   0.532E-03    0.338E-02
RMM:   7    -0.232571653101E+04   -0.18066E-05   -0.42910E-05  2805   0.387E-03
  24 F= -.23471429E+04 E0= -.23471429E+04  d E =-.928534E-05  mag=     5.0000
       N       E                     dE             d eps       ncg     rms          rms(c)
DAV:   1    -0.232571816858E+04   -0.16394E-02   -0.11221E+00  4480   0.311E-01    0.324E-01
RMM:   2    -0.232571966656E+04   -0.14980E-02   -0.58838E-03  4767   0.286E-02    0.442E-01
RMM:   3    -0.232571857339E+04    0.10932E-02   -0.24540E-03  5006   0.205E-02    0.327E-01
RMM:   4    -0.232571810862E+04    0.46478E-03   -0.12114E-03  3898   0.146E-02    0.199E-01
RMM:   5    -0.232571781528E+04    0.29334E-03   -0.79981E-04  3421   0.119E-02    0.117E-01
RMM:   6    -0.232571772269E+04    0.92593E-04   -0.13328E-04  3001   0.633E-03    0.350E-02
RMM:   7    -0.232571773496E+04   -0.12274E-04   -0.49818E-05  2871   0.426E-03    0.441E-02
RMM:   8    -0.232571771259E+04    0.22376E-04   -0.21310E-05  2710   0.306E-03    0.990E-03
RMM:   9    -0.232571771374E+04   -0.11467E-05   -0.53955E-06  2615   0.160E-03
  25 F= -.23471430E+04 E0= -.23471430E+04  d E =-.137648E-04  mag=     5.0000
