       N       E                     dE             d eps       ncg     rms          rms(c)
DAV:   1     0.129587488183E+05    0.12959E+05   -0.83665E+05  4488   0.144E+03
DAV:   2    -0.104010765996E+04   -0.13999E+05   -0.13389E+05  5104   0.331E+02
DAV:   3    -0.247765661454E+04   -0.14375E+04   -0.14223E+04  5424   0.113E+02
DAV:   4    -0.252242344250E+04   -0.44767E+02   -0.44533E+02  6744   0.293E+01
DAV:   5    -0.252318542017E+04   -0.76198E+00   -0.76052E+00  5936   0.332E+00    0.171E+02
RMM:   6    -0.149036650843E+04    0.10328E+04   -0.19537E+03  4434   0.386E+01    0.726E+01
RMM:   7    -0.166344217220E+04   -0.17308E+03   -0.29045E+02  5119   0.145E+01    0.518E+01
RMM:   8    -0.171632077230E+04   -0.52879E+02   -0.76218E+01  5211   0.849E+00    0.441E+01
RMM:   9    -0.177907945170E+04   -0.62759E+02   -0.70407E+01  4985   0.779E+00    0.350E+01
RMM:  10    -0.188173322681E+04   -0.10265E+03   -0.59800E+01  5312   0.748E+00    0.341E+01
RMM:  11    -0.196792608558E+04   -0.86193E+02   -0.41130E+01  5349   0.578E+00    0.187E+01
RMM:  12    -0.205900159612E+04   -0.91076E+02   -0.39191E+01  4824   0.481E+00    0.154E+01
RMM:  13    -0.214260019429E+04   -0.83599E+02   -0.43525E+01  4920   0.507E+00    0.138E+01
RMM:  14    -0.224309386694E+04   -0.10049E+03   -0.77669E+01  4500   0.630E+00    0.109E+01
RMM:  15    -0.228122137783E+04   -0.38128E+02   -0.29803E+01  4580   0.436E+00    0.626E+00
RMM:  16    -0.230588528501E+04   -0.24664E+02   -0.23643E+01  4496   0.336E+00    0.370E+00
RMM:  17    -0.231169931903E+04   -0.58140E+01   -0.52009E+00  4611   0.223E+00    0.210E+00
RMM:  18    -0.231350739327E+04   -0.18081E+01   -0.19948E+00  5279   0.783E-01    0.113E+00
RMM:  19    -0.231384892543E+04   -0.34153E+00   -0.26860E-01  4991   0.441E-01    0.707E-01
RMM:  20    -0.231400514456E+04   -0.15622E+00   -0.10804E-01  4770   0.229E-01    0.360E-01
RMM:  21    -0.231405411174E+04   -0.48967E-01   -0.28229E-02  4754   0.141E-01    0.266E-01
RMM:  22    -0.231407637167E+04   -0.22260E-01   -0.97937E-03  4671   0.786E-02    0.143E-01
RMM:  23    -0.231409532542E+04   -0.18954E-01   -0.66032E-03  4451   0.654E-02    0.103E-01
RMM:  24    -0.231410945800E+04   -0.14133E-01   -0.47481E-03  4455   0.534E-02    0.629E-02
RMM:  25    -0.231411616246E+04   -0.67045E-02   -0.20791E-03  4565   0.426E-02    0.379E-02
RMM:  26    -0.231412067804E+04   -0.45156E-02   -0.15621E-03  4436   0.286E-02    0.232E-02
RMM:  27    -0.231412243780E+04   -0.17598E-02   -0.61413E-04  4097   0.232E-02    0.141E-02
RMM:  28    -0.231412297094E+04   -0.53314E-03   -0.24198E-04  4005   0.108E-02    0.655E-03
RMM:  29    -0.231412315208E+04   -0.18114E-03   -0.56607E-05  3560   0.846E-03    0.401E-03
RMM:  30    -0.231412325991E+04   -0.10783E-03   -0.32169E-05  3301   0.480E-03    0.236E-03
RMM:  31    -0.231412330684E+04   -0.46935E-04   -0.14893E-05  2952   0.412E-03    0.137E-03
RMM:  32    -0.231412331723E+04   -0.10383E-04   -0.66389E-06  2810   0.293E-03    0.903E-04
RMM:  33    -0.231412331924E+04   -0.20133E-05   -0.28402E-06  2414   0.204E-03
   1 F= -.23349589E+04 E0= -.23349589E+04  d E =-.233496E+04  mag=     4.0000
       N       E                     dE             d eps       ncg     rms          rms(c)
DAV:   1    -0.231418424103E+04   -0.60924E-01   -0.22481E+01  4928   0.487E+00    0.230E+00
RMM:   2    -0.231428263527E+04   -0.98394E-01   -0.12505E+00  5828   0.932E-01    0.115E+00
RMM:   3    -0.231430901024E+04   -0.26375E-01   -0.14000E-01  5620   0.367E-01    0.190E+00
RMM:   4    -0.231425584366E+04    0.53167E-01   -0.45559E-02  6047   0.143E-01    0.424E-01
RMM:   5    -0.231425411168E+04    0.17320E-02   -0.18187E-02  5141   0.965E-02    0.556E-01
RMM:   6    -0.231425048664E+04    0.36250E-02   -0.58371E-03  5784   0.576E-02    0.143E-01
RMM:   7    -0.231424992093E+04    0.56571E-03   -0.10682E-03  5426   0.198E-02    0.653E-02
RMM:   8    -0.231424967637E+04    0.24456E-03   -0.27479E-04  4838   0.137E-02    0.354E-02
RMM:   9    -0.231424954115E+04    0.13522E-03   -0.22846E-04  4795   0.117E-02    0.186E-02
RMM:  10    -0.231424952342E+04    0.17731E-04   -0.53259E-05  3953   0.787E-03    0.120E-02
RMM:  11    -0.231424953307E+04   -0.96456E-05   -0.53432E-05  3723   0.568E-03
   2 F= -.23350838E+04 E0= -.23350838E+04  d E =-.124935E+00  mag=     4.0000
       N       E                     dE             d eps       ncg     rms          rms(c)
DAV:   1    -0.231426064107E+04   -0.11118E-01   -0.13795E+00  4800   0.121E+00    0.572E-01
RMM:   2    -0.231426660912E+04   -0.59680E-02   -0.75686E-02  5891   0.234E-01    0.293E-01
RMM:   3    -0.231426827195E+04   -0.16628E-02   -0.86663E-03  5702   0.933E-02    0.493E-01
RMM:   4    -0.231426489060E+04    0.33814E-02   -0.29835E-03  5801   0.358E-02    0.108E-01
RMM:   5    -0.231426473614E+04    0.15446E-03   -0.11345E-03  4902   0.251E-02    0.122E-01
RMM:   6    -0.231426456183E+04    0.17431E-03   -0.31861E-04  4652   0.148E-02    0.364E-02
RMM:   7    -0.231426452674E+04    0.35095E-04   -0.57626E-05  3500   0.659E-03    0.153E-02
RMM:   8    -0.231426451222E+04    0.14517E-04   -0.18691E-05  2922   0.493E-03    0.834E-03
RMM:   9    -0.231426450410E+04    0.81251E-05   -0.16407E-05  2929   0.412E-03
   3 F= -.23350991E+04 E0= -.23350991E+04  d E =-.140228E+00  mag=     4.0000
       N       E                     dE             d eps       ncg     rms          rms(c)
DAV:   1    -0.231427788486E+04   -0.13373E-01   -0.41498E+00  4624   0.178E+00    0.666E-01
RMM:   2    -0.231432120255E+04   -0.43318E-01   -0.43109E-01  6127   0.406E-01    0.669E-01
RMM:   3    -0.231432028395E+04    0.91860E-03   -0.42025E-02  5953   0.144E-01    0.495E-01
RMM:   4    -0.231431699994E+04    0.32840E-02   -0.50209E-03  5752   0.425E-02    0.202E-01
RMM:   5    -0.231431707599E+04   -0.76043E-04   -0.20696E-03  5700   0.294E-02    0.259E-01
RMM:   6    -0.231431625903E+04    0.81696E-03   -0.13627E-03  5554   0.235E-02    0.580E-02
RMM:   7    -0.231431621653E+04    0.42498E-04   -0.22900E-04  4299   0.129E-02    0.232E-02
RMM:   8    -0.231431620146E+04    0.15069E-04   -0.35298E-05  3094   0.536E-03    0.145E-02
RMM:   9    -0.231431618986E+04    0.11596E-04   -0.22657E-05  3019   0.465E-03    0.592E-03
RMM:  10    -0.231431618792E+04    0.19457E-05   -0.97274E-06  2856   0.406E-03
   4 F= -.23351501E+04 E0= -.23351501E+04  d E =-.509872E-01  mag=     4.0000
       N       E                     dE             d eps       ncg     rms          rms(c)
DAV:   1    -0.231430342034E+04    0.12770E-01   -0.29651E+00  4576   0.151E+00    0.565E-01
RMM:   2    -0.231433461184E+04   -0.31191E-01   -0.30967E-01  6124   0.345E-01    0.575E-01
RMM:   3    -0.231433371695E+04    0.89488E-03   -0.28290E-02  5924   0.119E-01    0.421E-01
RMM:   4    -0.231433132052E+04    0.23964E-02   -0.35547E-03  5738   0.358E-02    0.167E-01
RMM:   5    -0.231433137496E+04   -0.54439E-04   -0.14994E-03  5602   0.252E-02    0.217E-01
RMM:   6    -0.231433080195E+04    0.57300E-03   -0.95140E-04  5471   0.197E-02    0.498E-02
RMM:   7    -0.231433077020E+04    0.31758E-04   -0.16100E-04  3942   0.109E-02    0.196E-02
RMM:   8    -0.231433075876E+04    0.11441E-04   -0.25400E-05  3013   0.481E-03    0.122E-02
RMM:   9    -0.231433075064E+04    0.81179E-05   -0.16915E-05  2934   0.417E-03
   5 F= -.23351641E+04 E0= -.23351641E+04  d E =-.649750E-01  mag=     4.0000
       N       E                     dE             d eps       ncg     rms          rms(c)
DAV:   1    -0.231434845211E+04   -0.17693E-01   -0.31461E+00  4576   0.133E+00    0.417E-01
RMM:   2    -0.231437221244E+04   -0.23760E-01   -0.24438E-01  6364   0.272E-01    0.370E-01
RMM:   3    -0.231437323950E+04   -0.10271E-02   -0.23916E-02  6021   0.938E-02    0.324E-01
RMM:   4    -0.231437194516E+04    0.12943E-02   -0.26377E-03  5736   0.252E-02    0.132E-01
RMM:   5    -0.231437186939E+04    0.75768E-04   -0.65936E-04  4954   0.139E-02    0.134E-01
RMM:   6    -0.231437167527E+04    0.19412E-03   -0.50749E-04  4891   0.133E-02    0.559E-02
RMM:   7    -0.231437165637E+04    0.18900E-04   -0.13191E-04  3638   0.858E-03    0.157E-02
RMM:   8    -0.231437165365E+04    0.27190E-05   -0.12890E-05  2913   0.466E-03
   6 F= -.23352046E+04 E0= -.23352046E+04  d E =-.405090E-01  mag=     4.0000
       N       E                     dE             d eps       ncg     rms          rms(c)
DAV:   1    -0.231423146737E+04    0.14019E+00   -0.28239E+01  4496   0.401E+00    0.130E+00
RMM:   2    -0.231444743289E+04   -0.21597E+00   -0.22624E+00  6382   0.827E-01    0.109E+00
RMM:   3    -0.231446259083E+04   -0.15158E-01   -0.24682E-01  6212   0.293E-01    0.104E+00
RMM:   4    -0.231444923444E+04    0.13356E-01   -0.25635E-02  6366   0.792E-02    0.402E-01
RMM:   5    -0.231444831098E+04    0.92346E-03   -0.60914E-03  5909   0.392E-02    0.384E-01
RMM:   6    -0.231444681913E+04    0.14919E-02   -0.41194E-03  5877   0.351E-02    0.200E-01
RMM:   7    -0.231444647797E+04    0.34116E-03   -0.15421E-03  5328   0.241E-02    0.565E-02
RMM:   8    -0.231444643821E+04    0.39756E-04   -0.16331E-04  3848   0.109E-02    0.329E-02
RMM:   9    -0.231444641117E+04    0.27041E-04   -0.80807E-05  3519   0.679E-03    0.131E-02
RMM:  10    -0.231444640837E+04    0.28017E-05   -0.22204E-05  2952   0.510E-03
   7 F= -.23352783E+04 E0= -.23352783E+04  d E =-.114162E+00  mag=     4.0000
       N       E                     dE             d eps       ncg     rms          rms(c)
DAV:   1    -0.231441989621E+04    0.26515E-01   -0.43235E+00  4560   0.157E+00    0.510E-01
RMM:   2    -0.231445273529E+04   -0.32839E-01   -0.34246E-01  6384   0.324E-01    0.443E-01
RMM:   3    -0.231445410998E+04   -0.13747E-02   -0.32770E-02  6104   0.107E-01    0.403E-01
RMM:   4    -0.231445207390E+04    0.20361E-02   -0.37496E-03  5967   0.302E-02    0.153E-01
RMM:   5    -0.231445195035E+04    0.12356E-03   -0.91421E-04  5187   0.159E-02    0.150E-01
RMM:   6    -0.231445170832E+04    0.24203E-03   -0.64909E-04  5110   0.148E-02    0.712E-02
RMM:   7    -0.231445166675E+04    0.41571E-04   -0.20658E-04  4095   0.101E-02    0.186E-02
RMM:   8    -0.231445166230E+04    0.44495E-05   -0.20532E-05  2944   0.527E-03
   8 F= -.23352831E+04 E0= -.23352831E+04  d E =-.119015E+00  mag=     4.0000
       N       E                     dE             d eps       ncg     rms          rms(c)
DAV:   1    -0.231446884098E+04   -0.17174E-01   -0.23802E+00  4560   0.116E+00    0.341E-01
RMM:   2    -0.231448424286E+04   -0.15402E-01   -0.16547E-01  6411   0.219E-01    0.184E-01
RMM:   3    -0.231448518720E+04   -0.94434E-03   -0.15551E-02  5770   0.733E-02    0.163E-01
RMM:   4    -0.231448509741E+04    0.89783E-04   -0.18032E-03  4925   0.182E-02    0.132E-01
RMM:   5    -0.231448489024E+04    0.20717E-03   -0.42568E-04  4535   0.132E-02    0.692E-02
RMM:   6    -0.231448489936E+04   -0.91200E-05   -0.27303E-04  4192   0.109E-02    0.661E-02
RMM:   7    -0.231448485459E+04    0.44773E-04   -0.69036E-05  3038   0.647E-03    0.142E-02
RMM:   8    -0.231448485248E+04    0.21076E-05   -0.10187E-05  2884   0.371E-03
   9 F= -.23353158E+04 E0= -.23353158E+04  d E =-.327143E-01  mag=     4.0000
       N       E                     dE             d eps       ncg     rms          rms(c)
DAV:   1    -0.231440056232E+04    0.84292E-01   -0.21318E+01  4472   0.348E+00    0.105E+00
RMM:   2    -0.231454131337E+04   -0.14075E+00   -0.15261E+00  6400   0.668E-01    0.565E-01
RMM:   3    -0.231454958698E+04   -0.82736E-02   -0.15360E-01  5967   0.228E-01    0.420E-01
RMM:   4    -0.231454989780E+04   -0.31082E-03   -0.16732E-02  6258   0.543E-02    0.407E-01
RMM:   5    -0.231454814821E+04    0.17496E-02   -0.38393E-03  5627   0.343E-02    0.229E-01
RMM:   6    -0.231454806278E+04    0.85428E-04   -0.24922E-03  5873   0.280E-02    0.215E-01
RMM:   7    -0.231454761407E+04    0.44871E-03   -0.78126E-04  5006   0.172E-02    0.621E-02
RMM:   8    -0.231454757205E+04    0.42023E-04   -0.11003E-04  3267   0.635E-03    0.261E-02
RMM:   9    -0.231454756104E+04    0.11007E-04   -0.36345E-05  2966   0.549E-03    0.121E-02
RMM:  10    -0.231454755913E+04    0.19091E-05   -0.20789E-05  2972   0.417E-03
  10 F= -.23353772E+04 E0= -.23353772E+04  d E =-.940333E-01  mag=     4.0000
       N       E                     dE             d eps       ncg     rms          rms(c)
DAV:   1    -0.231385539293E+04    0.69217E+00   -0.84633E+01  4472   0.694E+00    0.237E+00
RMM:   2    -0.231446153216E+04   -0.60614E+00   -0.67012E+00  6441   0.141E+00    0.143E+00
RMM:   3    -0.231449443795E+04   -0.32906E-01   -0.72150E-01  6171   0.487E-01    0.110E+00
RMM:   4    -0.231448949732E+04    0.49406E-02   -0.72261E-02  6627   0.115E-01    0.807E-01
RMM:   5    -0.231448363981E+04    0.58575E-02   -0.16641E-02  5931   0.669E-02    0.479E-01
RMM:   6    -0.231448305395E+04    0.58585E-03   -0.10519E-02  5794   0.571E-02    0.401E-01
RMM:   7    -0.231448158966E+04    0.14643E-02   -0.42488E-03  5934   0.367E-02    0.219E-01
RMM:   8    -0.231448106449E+04    0.52517E-03   -0.80669E-04  5030   0.164E-02    0.680E-02
RMM:   9    -0.231448106191E+04    0.25831E-05   -0.18231E-04  3852   0.103E-02    0.415E-02
RMM:  10    -0.231448104130E+04    0.20613E-04   -0.84782E-05  3650   0.638E-03    0.238E-02
RMM:  11    -0.231448104003E+04    0.12689E-05   -0.25145E-05  2928   0.523E-03
  11 F= -.23353080E+04 E0= -.23353080E+04  d E =-.248550E-01  mag=     4.0000
       N       E                     dE             d eps       ncg     rms          rms(c)
DAV:   1    -0.231420351849E+04    0.27752E+00   -0.50743E+01  4472   0.536E+00    0.166E+00
RMM:   2    -0.231454148240E+04   -0.33796E+00   -0.36605E+00  6414   0.106E+00    0.921E-01
RMM:   3    -0.231456529251E+04   -0.23810E-01   -0.36912E-01  6110   0.350E-01    0.827E-01
RMM:   4    -0.231456110033E+04    0.41922E-02   -0.40417E-02  6376   0.842E-02    0.558E-01
RMM:   5    -0.231455806627E+04    0.30341E-02   -0.10034E-02  5469   0.556E-02    0.356E-01
RMM:   6    -0.231455824425E+04   -0.17797E-03   -0.56027E-03  5981   0.424E-02    0.370E-01
RMM:   7    -0.231455683738E+04    0.14069E-02   -0.20307E-03  5715   0.267E-02    0.100E-01
RMM:   8    -0.231455674348E+04    0.93896E-04   -0.33482E-04  4559   0.112E-02    0.478E-02
RMM:   9    -0.231455670714E+04    0.36340E-04   -0.12248E-04  3236   0.777E-03    0.224E-02
RMM:  10    -0.231455670279E+04    0.43527E-05   -0.44121E-05  3032   0.537E-03
  12 F= -.23353857E+04 E0= -.23353857E+04  d E =-.102559E+00  mag=     4.0000
       N       E                     dE             d eps       ncg     rms          rms(c)
DAV:   1    -0.231458851740E+04   -0.31810E-01   -0.26704E+00  4544   0.136E+00    0.490E-01
RMM:   2    -0.231461267830E+04   -0.24161E-01   -0.25106E-01  6299   0.294E-01    0.420E-01
RMM:   3    -0.231461392546E+04   -0.12472E-02   -0.25922E-02  6147   0.104E-01    0.409E-01
RMM:   4    -0.231461192091E+04    0.20046E-02   -0.31244E-03  5837   0.288E-02    0.141E-01
RMM:   5    -0.231461187305E+04    0.47861E-04   -0.10985E-03  5351   0.188E-02    0.152E-01
RMM:   6    -0.231461164389E+04    0.22916E-03   -0.59105E-04  5078   0.143E-02    0.680E-02
RMM:   7    -0.231461159967E+04    0.44214E-04   -0.84279E-05  3283   0.723E-03    0.186E-02
RMM:   8    -0.231461159635E+04    0.33222E-05   -0.15919E-05  2925   0.445E-03
  13 F= -.23354399E+04 E0= -.23354399E+04  d E =-.542314E-01  mag=     4.0000
       N       E                     dE             d eps       ncg     rms          rms(c)
DAV:   1    -0.231457440730E+04    0.37192E-01   -0.86763E+00  4512   0.246E+00    0.884E-01
RMM:   2    -0.231465301401E+04   -0.78607E-01   -0.81507E-01  6278   0.532E-01    0.777E-01
RMM:   3    -0.231465653228E+04   -0.35183E-02   -0.86155E-02  6177   0.189E-01    0.732E-01
RMM:   4    -0.231465020074E+04    0.63315E-02   -0.10084E-02  6144   0.515E-02    0.264E-01
RMM:   5    -0.231465010399E+04    0.96757E-04   -0.37518E-03  5753   0.340E-02    0.289E-01
RMM:   6    -0.231464930722E+04    0.79677E-03   -0.19821E-03  5776   0.251E-02    0.132E-01
RMM:   7    -0.231464915517E+04    0.15205E-03   -0.32151E-04  4583   0.120E-02    0.418E-02
RMM:   8    -0.231464914173E+04    0.13441E-04   -0.67320E-05  3151   0.605E-03    0.254E-02
RMM:   9    -0.231464913680E+04    0.49272E-05   -0.24180E-05  2924   0.493E-03
  14 F= -.23354763E+04 E0= -.23354763E+04  d E =-.906039E-01  mag=     4.0000
       N       E                     dE             d eps       ncg     rms          rms(c)
DAV:   1    -0.231464209035E+04    0.70514E-02   -0.27342E+00  4560   0.146E+00    0.532E-01
RMM:   2    -0.231468084905E+04   -0.38759E-01   -0.38697E-01  6342   0.338E-01    0.623E-01
RMM:   3    -0.231468030347E+04    0.54558E-03   -0.41508E-02  6131   0.125E-01    0.386E-01
RMM:   4    -0.231467869713E+04    0.16063E-02   -0.44875E-03  5779   0.298E-02    0.154E-01
RMM:   5    -0.231467853362E+04    0.16351E-03   -0.91701E-04  5211   0.174E-02    0.145E-01
RMM:   6    -0.231467838141E+04    0.15221E-03   -0.74043E-04  5303   0.152E-02    0.101E-01
RMM:   7    -0.231467828106E+04    0.10035E-03   -0.21160E-04  4242   0.991E-03    0.232E-02
RMM:   8    -0.231467827756E+04    0.35014E-05   -0.28099E-05  2951   0.479E-03
  15 F= -.23355049E+04 E0= -.23355049E+04  d E =-.286099E-01  mag=     4.0000
       N       E                     dE             d eps       ncg     rms          rms(c)
DAV:   1    -0.231454023807E+04    0.13804E+00   -0.12220E+01  4456   0.309E+00    0.114E+00
RMM:   2    -0.231471276688E+04   -0.17253E+00   -0.17383E+00  6339   0.717E-01    0.132E+00
RMM:   3    -0.231471138598E+04    0.13809E-02   -0.19090E-01  6118   0.275E-01    0.847E-01
RMM:   4    -0.231470380909E+04    0.75769E-02   -0.20399E-02  6253   0.645E-02    0.341E-01
RMM:   5    -0.231470324030E+04    0.56880E-03   -0.41435E-03  5721   0.347E-02    0.330E-01
RMM:   6    -0.231470238146E+04    0.85884E-03   -0.37346E-03  5979   0.326E-02    0.226E-01
RMM:   7    -0.231470189056E+04    0.49090E-03   -0.10779E-03  5532   0.207E-02    0.557E-02
RMM:   8    -0.231470187914E+04    0.11425E-04   -0.15346E-04  3839   0.765E-03    0.413E-02
RMM:   9    -0.231470187517E+04    0.39702E-05   -0.49390E-05  3121   0.647E-03
  16 F= -.23355274E+04 E0= -.23355274E+04  d E =-.511269E-01  mag=     4.0000
       N       E                     dE             d eps       ncg     rms          rms(c)
DAV:   1    -0.231469201972E+04    0.98594E-02   -0.36075E+00  4472   0.169E+00    0.561E-01
RMM:   2    -0.231472890119E+04   -0.36881E-01   -0.39073E-01  6419   0.348E-01    0.509E-01
RMM:   3    -0.231473088866E+04   -0.19875E-02   -0.39488E-02  6135   0.122E-01    0.439E-01
RMM:   4    -0.231472900463E+04    0.18840E-02   -0.44516E-03  5894   0.318E-02    0.163E-01
RMM:   5    -0.231472866987E+04    0.33475E-03   -0.10202E-03  5177   0.182E-02    0.889E-02
RMM:   6    -0.231472869162E+04   -0.21747E-04   -0.50343E-04  5026   0.155E-02    0.727E-02
RMM:   7    -0.231472863484E+04    0.56783E-04   -0.12052E-04  3223   0.795E-03    0.314E-02
RMM:   8    -0.231472862860E+04    0.62328E-05   -0.23274E-05  2937   0.437E-03
  17 F= -.23355536E+04 E0= -.23355536E+04  d E =-.261751E-01  mag=     4.0000
       N       E                     dE             d eps       ncg     rms          rms(c)
DAV:   1    -0.231442739470E+04    0.30124E+00   -0.32418E+01  4456   0.508E+00    0.170E+00
RMM:   2    -0.231476310115E+04   -0.33571E+00   -0.35826E+00  6424   0.104E+00    0.152E+00
RMM:   3    -0.231478278980E+04   -0.19689E-01   -0.39137E-01  6195   0.382E-01    0.137E+00
RMM:   4    -0.231476588213E+04    0.16908E-01   -0.41433E-02  6456   0.963E-02    0.520E-01
RMM:   5    -0.231476299168E+04    0.28905E-02   -0.88202E-03  5623   0.499E-02    0.307E-01
RMM:   6    -0.231476265955E+04    0.33213E-03   -0.55834E-03  5790   0.446E-02    0.219E-01
RMM:   7    -0.231476239619E+04    0.26336E-03   -0.15203E-03  5099   0.279E-02    0.136E-01
RMM:   8    -0.231476218740E+04    0.20879E-03   -0.30491E-04  4512   0.105E-02    0.517E-02
RMM:   9    -0.231476217819E+04    0.92073E-05   -0.10512E-04  3479   0.773E-03    0.184E-02
RMM:  10    -0.231476218007E+04   -0.18768E-05   -0.31068E-05  2973   0.487E-03
  18 F= -.23355855E+04 E0= -.23355855E+04  d E =-.581237E-01  mag=     4.0000
       N       E                     dE             d eps       ncg     rms          rms(c)
DAV:   1    -0.231475539996E+04    0.67782E-02   -0.45896E+00  4532   0.186E+00    0.534E-01
RMM:   2    -0.231479264313E+04   -0.37243E-01   -0.38914E-01  6480   0.365E-01    0.461E-01
RMM:   3    -0.231479453899E+04   -0.18959E-02   -0.37327E-02  6215   0.116E-01    0.388E-01
RMM:   4    -0.231479323248E+04    0.13065E-02   -0.42610E-03  5774   0.299E-02    0.186E-01
RMM:   5    -0.231479319172E+04    0.40766E-04   -0.13070E-03  5470   0.204E-02    0.189E-01
RMM:   6    -0.231479283046E+04    0.36126E-03   -0.98578E-04  5178   0.176E-02    0.893E-02
RMM:   7    -0.231479275555E+04    0.74913E-04   -0.18243E-04  4311   0.937E-03    0.259E-02
RMM:   8    -0.231479275286E+04    0.26818E-05   -0.33027E-05  2966   0.449E-03
  19 F= -.23356155E+04 E0= -.23356154E+04  d E =-.299080E-01  mag=     4.0000
       N       E                     dE             d eps       ncg     rms          rms(c)
DAV:   1    -0.231449201747E+04    0.30074E+00   -0.41179E+01  4472   0.560E+00    0.155E+00
RMM:   2    -0.231482942638E+04   -0.33741E+00   -0.35402E+00  6496   0.110E+00    0.127E+00
RMM:   3    -0.231484977628E+04   -0.20350E-01   -0.36932E-01  6333   0.358E-01    0.113E+00
RMM:   4    -0.231483918101E+04    0.10595E-01   -0.37224E-02  6342   0.893E-02    0.533E-01
RMM:   5    -0.231483712944E+04    0.20516E-02   -0.10033E-02  5796   0.562E-02    0.429E-01
RMM:   6    -0.231483692609E+04    0.20335E-03   -0.76623E-03  6109   0.479E-02    0.393E-01
RMM:   7    -0.231483514830E+04    0.17778E-02   -0.23959E-03  5938   0.287E-02    0.917E-02
RMM:   8    -0.231483505448E+04    0.93817E-04   -0.31952E-04  4091   0.968E-03    0.431E-02
RMM:   9    -0.231483502549E+04    0.28988E-04   -0.14002E-04  3723   0.887E-03    0.178E-02
RMM:  10    -0.231483502366E+04    0.18366E-05   -0.36106E-05  3034   0.525E-03
  20 F= -.23356559E+04 E0= -.23356559E+04  d E =-.703392E-01  mag=     4.0000
       N       E                     dE             d eps       ncg     rms          rms(c)
DAV:   1    -0.231484186231E+04   -0.68368E-02   -0.20971E+00  4752   0.134E+00    0.456E-01
RMM:   2    -0.231486206191E+04   -0.20200E-01   -0.20113E-01  6268   0.284E-01    0.478E-01
RMM:   3    -0.231486144943E+04    0.61248E-03   -0.17919E-02  5945   0.928E-02    0.284E-01
RMM:   4    -0.231486060398E+04    0.84545E-03   -0.23365E-03  5433   0.264E-02    0.142E-01
RMM:   5    -0.231486072669E+04   -0.12271E-03   -0.95819E-04  5408   0.195E-02    0.176E-01
RMM:   6    -0.231486030131E+04    0.42538E-03   -0.59943E-04  5130   0.157E-02    0.422E-02
RMM:   7    -0.231486028544E+04    0.15864E-04   -0.89297E-05  3342   0.890E-03    0.161E-02
RMM:   8    -0.231486028273E+04    0.27095E-05   -0.17071E-05  2925   0.407E-03
  21 F= -.23356806E+04 E0= -.23356806E+04  d E =-.247648E-01  mag=     3.9999
       N       E                     dE             d eps       ncg     rms          rms(c)
DAV:   1    -0.231483582831E+04    0.24457E-01   -0.42631E+00  4472   0.192E+00    0.647E-01
RMM:   2    -0.231487659999E+04   -0.40772E-01   -0.40928E-01  6253   0.408E-01    0.652E-01
RMM:   3    -0.231487557274E+04    0.10272E-02   -0.36197E-02  5996   0.134E-01    0.396E-01
RMM:   4    -0.231487383319E+04    0.17395E-02   -0.46376E-03  5553   0.376E-02    0.185E-01
RMM:   5    -0.231487407082E+04   -0.23762E-03   -0.19073E-03  5797   0.285E-02    0.247E-01
RMM:   6    -0.231487328340E+04    0.78742E-03   -0.11107E-03  5485   0.206E-02    0.665E-02
RMM:   7    -0.231487323726E+04    0.46141E-04   -0.16837E-04  4156   0.109E-02    0.231E-02
RMM:   8    -0.231487322866E+04    0.86012E-05   -0.30147E-05  3037   0.496E-03
  22 F= -.23356929E+04 E0= -.23356929E+04  d E =-.370327E-01  mag=     3.9999
       N       E                     dE             d eps       ncg     rms          rms(c)
DAV:   1    -0.231485336345E+04    0.19874E-01   -0.31911E+00  4496   0.161E+00    0.562E-01
RMM:   2    -0.231489661483E+04   -0.43251E-01   -0.42860E-01  6408   0.372E-01    0.650E-01
RMM:   3    -0.231489598028E+04    0.63456E-03   -0.42140E-02  6047   0.126E-01    0.306E-01
RMM:   4    -0.231489517496E+04    0.80531E-03   -0.48189E-03  5598   0.295E-02    0.160E-01
RMM:   5    -0.231489520480E+04   -0.29835E-04   -0.10333E-03  5389   0.183E-02    0.180E-01
RMM:   6    -0.231489481043E+04    0.39437E-03   -0.79767E-04  5124   0.160E-02    0.761E-02
RMM:   7    -0.231489476476E+04    0.45672E-04   -0.19130E-04  4116   0.999E-03    0.196E-02
RMM:   8    -0.231489476337E+04    0.13919E-05   -0.23230E-05  2932   0.463E-03
  23 F= -.23357138E+04 E0= -.23357138E+04  d E =-.209173E-01  mag=     3.9999
       N       E                     dE             d eps       ncg     rms          rms(c)
DAV:   1    -0.231480438645E+04    0.90378E-01   -0.78578E+00  4472   0.255E+00    0.861E-01
RMM:   2    -0.231491056486E+04   -0.10618E+00   -0.10609E+00  6436   0.591E-01    0.951E-01
RMM:   3    -0.231490986477E+04    0.70009E-03   -0.10353E-01  6125   0.193E-01    0.463E-01
RMM:   4    -0.231490790833E+04    0.19564E-02   -0.11573E-02  5895   0.454E-02    0.232E-01
RMM:   5    -0.231490730688E+04    0.60145E-03   -0.21347E-03  5725   0.283E-02    0.175E-01
RMM:   6    -0.231490728826E+04    0.18621E-04   -0.15110E-03  5467   0.220E-02    0.172E-01
RMM:   7    -0.231490696475E+04    0.32351E-03   -0.43630E-04  5116   0.130E-02    0.317E-02
RMM:   8    -0.231490695229E+04    0.12461E-04   -0.62427E-05  3013   0.551E-03    0.205E-02
RMM:   9    -0.231490694572E+04    0.65657E-05   -0.40978E-05  2926   0.480E-03
  24 F= -.23357251E+04 E0= -.23357251E+04  d E =-.321780E-01  mag=     3.9999
       N       E                     dE             d eps       ncg     rms          rms(c)
DAV:   1    -0.231486476732E+04    0.42185E-01   -0.43509E+00  4472   0.199E+00    0.633E-01
RMM:   2    -0.231492919115E+04   -0.64424E-01   -0.65785E-01  6441   0.460E-01    0.614E-01
RMM:   3    -0.231493213000E+04   -0.29388E-02   -0.66721E-02  6106   0.157E-01    0.393E-01
RMM:   4    -0.231493078282E+04    0.13472E-02   -0.72039E-03  5989   0.376E-02    0.192E-01
RMM:   5    -0.231493064349E+04    0.13933E-03   -0.14429E-03  5647   0.223E-02    0.196E-01
RMM:   6    -0.231493020783E+04    0.43566E-03   -0.11217E-03  5282   0.194E-02    0.936E-02
RMM:   7    -0.231493012152E+04    0.86304E-04   -0.28688E-04  4945   0.120E-02    0.265E-02
RMM:   8    -0.231493011283E+04    0.86878E-05   -0.32675E-05  2992   0.552E-03
  25 F= -.23357475E+04 E0= -.23357475E+04  d E =-.223742E-01  mag=     3.9999
       N       E                     dE             d eps       ncg     rms          rms(c)
DAV:   1    -0.231490007565E+04    0.30046E-01   -0.23812E+00  4512   0.147E+00    0.465E-01
RMM:   2    -0.231493524233E+04   -0.35167E-01   -0.36079E-01  6428   0.340E-01    0.430E-01
RMM:   3    -0.231493694075E+04   -0.16984E-02   -0.35484E-02  6034   0.116E-01    0.284E-01
RMM:   4    -0.231493629258E+04    0.64817E-03   -0.39754E-03  5708   0.276E-02    0.140E-01
RMM:   5    -0.231493616961E+04    0.12297E-03   -0.75485E-04  5331   0.168E-02    0.134E-01
RMM:   6    -0.231493599038E+04    0.17923E-03   -0.59206E-04  4691   0.144E-02    0.750E-02
RMM:   7    -0.231493593154E+04    0.58840E-04   -0.16336E-04  4519   0.939E-03    0.205E-02
RMM:   8    -0.231493592635E+04    0.51857E-05   -0.19550E-05  2921   0.488E-03
  26 F= -.23357527E+04 E0= -.23357527E+04  d E =-.276121E-01  mag=     3.9999
       N       E                     dE             d eps       ncg     rms          rms(c)
DAV:   1    -0.231491667054E+04    0.19261E-01   -0.22909E+00  4472   0.147E+00    0.465E-01
RMM:   2    -0.231494971105E+04   -0.33041E-01   -0.34629E-01  6323   0.332E-01    0.309E-01
RMM:   3    -0.231495250535E+04   -0.27943E-02   -0.34255E-02  6036   0.121E-01    0.310E-01
RMM:   4    -0.231495158011E+04    0.92524E-03   -0.38133E-03  5953   0.284E-02    0.140E-01
RMM:   5    -0.231495129012E+04    0.28999E-03   -0.85299E-04  5365   0.168E-02    0.100E-01
RMM:   6    -0.231495125654E+04    0.33574E-04   -0.54988E-04  4676   0.149E-02    0.858E-02
RMM:   7    -0.231495117078E+04    0.85765E-04   -0.16154E-04  4484   0.856E-03    0.244E-02
RMM:   8    -0.231495116334E+04    0.74385E-05   -0.21988E-05  2936   0.493E-03
  27 F= -.23357675E+04 E0= -.23357675E+04  d E =-.147471E-01  mag=     3.9999
       N       E                     dE             d eps       ncg     rms          rms(c)
DAV:   1    -0.231493949424E+04    0.11677E-01   -0.96243E-01  4560   0.948E-01    0.303E-01
RMM:   2    -0.231495346465E+04   -0.13970E-01   -0.14624E-01  6331   0.214E-01    0.205E-01
RMM:   3    -0.231495457038E+04   -0.11057E-02   -0.13745E-02  5912   0.769E-02    0.203E-01
RMM:   4    -0.231495416738E+04    0.40300E-03   -0.15935E-03  5229   0.185E-02    0.897E-02
RMM:   5    -0.231495404169E+04    0.12569E-03   -0.37413E-04  4882   0.117E-02    0.640E-02
RMM:   6    -0.231495402857E+04    0.13123E-04   -0.22284E-04  3631   0.104E-02    0.551E-02
RMM:   7    -0.231495399176E+04    0.36809E-04   -0.65984E-05  3481   0.672E-03    0.150E-02
RMM:   8    -0.231495398903E+04    0.27327E-05   -0.11299E-05  2892   0.426E-03
  28 F= -.23357700E+04 E0= -.23357700E+04  d E =-.172490E-01  mag=     4.0000
       N       E                     dE             d eps       ncg     rms          rms(c)
DAV:   1    -0.231492763788E+04    0.26354E-01   -0.22275E+00  4484   0.143E+00    0.453E-01
RMM:   2    -0.231496291903E+04   -0.35281E-01   -0.37322E-01  6416   0.322E-01    0.287E-01
RMM:   3    -0.231496610039E+04   -0.31814E-02   -0.40199E-02  5992   0.122E-01    0.247E-01
RMM:   4    -0.231496573518E+04    0.36521E-03   -0.42019E-03  5826   0.267E-02    0.157E-01
RMM:   5    -0.231496540133E+04    0.33385E-03   -0.73501E-04  5121   0.158E-02    0.941E-02
RMM:   6    -0.231496536130E+04    0.40026E-04   -0.54793E-04  4863   0.142E-02    0.819E-02
RMM:   7    -0.231496528944E+04    0.71859E-04   -0.17369E-04  4100   0.854E-03    0.342E-02
RMM:   8    -0.231496527569E+04    0.13754E-04   -0.24324E-05  2930   0.470E-03    0.121E-02
RMM:   9    -0.231496527217E+04    0.35110E-05   -0.14620E-05  2897   0.343E-03
  29 F= -.23357809E+04 E0= -.23357809E+04  d E =-.109781E-01  mag=     4.0000
       N       E                     dE             d eps       ncg     rms          rms(c)
DAV:   1    -0.231494818219E+04    0.17093E-01   -0.11640E+00  4512   0.103E+00    0.327E-01
RMM:   2    -0.231496663469E+04   -0.18453E-01   -0.19516E-01  6386   0.232E-01    0.203E-01
RMM:   3    -0.231496824344E+04   -0.16087E-02   -0.20312E-02  5875   0.879E-02    0.173E-01
RMM:   4    -0.231496807179E+04    0.17165E-03   -0.21817E-03  5186   0.193E-02    0.114E-01
RMM:   5    -0.231496788461E+04    0.18718E-03   -0.39703E-04  4675   0.121E-02    0.641E-02
RMM:   6    -0.231496787045E+04    0.14164E-04   -0.26740E-04  4170   0.107E-02    0.578E-02
RMM:   7    -0.231496783332E+04    0.37124E-04   -0.81326E-05  3360   0.669E-03    0.235E-02
RMM:   8    -0.231496782665E+04    0.66762E-05   -0.12622E-05  2908   0.401E-03
  30 F= -.23357833E+04 E0= -.23357833E+04  d E =-.133011E-01  mag=     4.0000
       N       E                     dE             d eps       ncg     rms          rms(c)
DAV:   1    -0.231495400689E+04    0.13826E-01   -0.13758E+00  4484   0.115E+00    0.343E-01
RMM:   2    -0.231497436707E+04   -0.20360E-01   -0.21847E-01  6345   0.247E-01    0.207E-01
RMM:   3    -0.231497621621E+04   -0.18491E-02   -0.25369E-02  5836   0.104E-01    0.159E-01
RMM:   4    -0.231497612915E+04    0.87062E-04   -0.25025E-03  5219   0.211E-02    0.123E-01
RMM:   5    -0.231497591367E+04    0.21548E-03   -0.44863E-04  4769   0.126E-02    0.832E-02
RMM:   6    -0.231497587286E+04    0.40807E-04   -0.33460E-04  4369   0.114E-02    0.671E-02
RMM:   7    -0.231497583505E+04    0.37813E-04   -0.90685E-05  3462   0.717E-03    0.236E-02
RMM:   8    -0.231497582962E+04    0.54282E-05   -0.14193E-05  2914   0.453E-03
  31 F= -.23357912E+04 E0= -.23357912E+04  d E =-.791579E-02  mag=     4.0000
       N       E                     dE             d eps       ncg     rms          rms(c)
DAV:   1    -0.231493182836E+04    0.44007E-01   -0.30507E+00  4472   0.172E+00    0.513E-01
RMM:   2    -0.231497709268E+04   -0.45264E-01   -0.48591E-01  6355   0.371E-01    0.314E-01
RMM:   3    -0.231498124854E+04   -0.41559E-02   -0.57688E-02  5926   0.155E-01    0.240E-01
RMM:   4    -0.231498103464E+04    0.21390E-03   -0.55817E-03  5971   0.316E-02    0.184E-01
RMM:   5    -0.231498056925E+04    0.46539E-03   -0.96125E-04  5243   0.175E-02    0.128E-01
RMM:   6    -0.231498045092E+04    0.11833E-03   -0.77903E-04  5243   0.162E-02    0.983E-02
RMM:   7    -0.231498036891E+04    0.82014E-04   -0.21985E-04  4503   0.981E-03    0.387E-02
RMM:   8    -0.231498035363E+04    0.15279E-04   -0.33635E-05  2943   0.561E-03    0.166E-02
RMM:   9    -0.231498034986E+04    0.37644E-05   -0.20179E-05  2897   0.408E-03
  32 F= -.23357956E+04 E0= -.23357956E+04  d E =-.123046E-01  mag=     3.9999
       N       E                     dE             d eps       ncg     rms          rms(c)
DAV:   1    -0.231497560532E+04    0.47483E-02   -0.70681E-01  4528   0.799E-01    0.225E-01
RMM:   2    -0.231498551160E+04   -0.99063E-02   -0.10622E-01  6409   0.171E-01    0.134E-01
RMM:   3    -0.231498629570E+04   -0.78411E-03   -0.10885E-02  5682   0.638E-02    0.100E-01
RMM:   4    -0.231498628705E+04    0.86546E-05   -0.11613E-03  3725   0.137E-02    0.836E-02
RMM:   5    -0.231498618479E+04    0.10226E-03   -0.18455E-04  3673   0.873E-03    0.566E-02
RMM:   6    -0.231498616811E+04    0.16681E-04   -0.16342E-04  3580   0.840E-03    0.432E-02
RMM:   7    -0.231498615453E+04    0.13582E-04   -0.40138E-05  3001   0.583E-03    0.149E-02
RMM:   8    -0.231498615318E+04    0.13526E-05   -0.70122E-06  2870   0.353E-03
  33 F= -.23358012E+04 E0= -.23358012E+04  d E =-.564186E-02  mag=     3.9999
       N       E                     dE             d eps       ncg     rms          rms(c)
DAV:   1    -0.231490199982E+04    0.84155E-01   -0.63540E+00  4472   0.240E+00    0.683E-01
RMM:   2    -0.231499118264E+04   -0.89183E-01   -0.95645E-01  6419   0.515E-01    0.433E-01
RMM:   3    -0.231499868103E+04   -0.74984E-02   -0.10696E-01  5969   0.198E-01    0.319E-01
RMM:   4    -0.231499841670E+04    0.26433E-03   -0.10577E-02  6191   0.411E-02    0.251E-01
RMM:   5    -0.231499764704E+04    0.76966E-03   -0.16098E-03  5433   0.206E-02    0.184E-01
RMM:   6    -0.231499733937E+04    0.30767E-03   -0.15724E-03  5681   0.213E-02    0.124E-01
RMM:   7    -0.231499723394E+04    0.10543E-03   -0.42168E-04  4982   0.122E-02    0.627E-02
RMM:   8    -0.231499719991E+04    0.34029E-04   -0.80817E-05  3135   0.654E-03    0.301E-02
RMM:   9    -0.231499718901E+04    0.10901E-04   -0.42057E-05  2902   0.549E-03    0.109E-02
RMM:  10    -0.231499719036E+04   -0.13526E-05   -0.14379E-05  2902   0.322E-03
  34 F= -.23358118E+04 E0= -.23358117E+04  d E =-.161976E-01  mag=     3.9999
       N       E                     dE             d eps       ncg     rms          rms(c)
DAV:   1    -0.231460418340E+04    0.39301E+00   -0.25360E+01  4472   0.480E+00    0.139E+00
RMM:   2    -0.231496904574E+04   -0.36486E+00   -0.39036E+00  6495   0.105E+00    0.956E-01
RMM:   3    -0.231499675812E+04   -0.27712E-01   -0.44204E-01  6092   0.383E-01    0.667E-01
RMM:   4    -0.231499497649E+04    0.17816E-02   -0.41968E-02  6551   0.820E-02    0.506E-01
RMM:   5    -0.231499231193E+04    0.26646E-02   -0.65826E-03  5816   0.403E-02    0.391E-01
RMM:   6    -0.231499064162E+04    0.16703E-02   -0.67523E-03  6063   0.423E-02    0.235E-01
RMM:   7    -0.231499023504E+04    0.40658E-03   -0.17700E-03  5716   0.238E-02    0.125E-01
RMM:   8    -0.231499012433E+04    0.11070E-03   -0.42373E-04  4862   0.125E-02    0.791E-02
RMM:   9    -0.231499005042E+04    0.73911E-04   -0.19884E-04  3312   0.955E-03    0.239E-02
RMM:  10    -0.231499005463E+04   -0.42114E-05   -0.62390E-05  2970   0.542E-03
  35 F= -.23358037E+04 E0= -.23358037E+04  d E =-.811702E-02  mag=     3.9997
       N       E                     dE             d eps       ncg     rms          rms(c)
DAV:   1    -0.231480613146E+04    0.18392E+00   -0.12739E+01  4472   0.339E+00    0.958E-01
RMM:   2    -0.231498745494E+04   -0.18132E+00   -0.19446E+00  6485   0.751E-01    0.579E-01
RMM:   3    -0.231500225581E+04   -0.14801E-01   -0.20666E-01  6150   0.263E-01    0.488E-01
RMM:   4    -0.231500154026E+04    0.71555E-03   -0.20638E-02  6359   0.565E-02    0.339E-01
RMM:   5    -0.231499997612E+04    0.15641E-02   -0.34566E-03  5588   0.308E-02    0.231E-01
RMM:   6    -0.231499927148E+04    0.70463E-03   -0.26760E-03  5834   0.272E-02    0.102E-01
RMM:   7    -0.231499932893E+04   -0.57450E-04   -0.58497E-04  5147   0.166E-02    0.115E-01
RMM:   8    -0.231499919497E+04    0.13397E-03   -0.17709E-04  3503   0.863E-03    0.375E-02
RMM:   9    -0.231499916805E+04    0.26919E-04   -0.76954E-05  2928   0.626E-03    0.154E-02
RMM:  10    -0.231499916610E+04    0.19454E-05   -0.33331E-05  2969   0.381E-03
  36 F= -.23358135E+04 E0= -.23358134E+04  d E =-.178955E-01  mag=     3.9998
       N       E                     dE             d eps       ncg     rms          rms(c)
DAV:   1    -0.231498638044E+04    0.12788E-01   -0.11874E+00  4484   0.102E+00    0.297E-01
RMM:   2    -0.231500544926E+04   -0.19069E-01   -0.20424E-01  6554   0.233E-01    0.176E-01
RMM:   3    -0.231500683714E+04   -0.13879E-02   -0.20117E-02  5797   0.803E-02    0.110E-01
RMM:   4    -0.231500683058E+04    0.65542E-05   -0.20546E-03  4408   0.167E-02    0.967E-02
RMM:   5    -0.231500674579E+04    0.84797E-04   -0.36136E-04  4048   0.111E-02    0.733E-02
RMM:   6    -0.231500668920E+04    0.56583E-04   -0.20159E-04  4221   0.872E-03    0.298E-02
RMM:   7    -0.231500668379E+04    0.54119E-05   -0.22900E-05  2921   0.518E-03
  37 F= -.23358206E+04 E0= -.23358206E+04  d E =-.710581E-02  mag=     3.9998
       N       E                     dE             d eps       ncg     rms          rms(c)
DAV:   1    -0.231483716538E+04    0.16952E+00   -0.10673E+01  4472   0.306E+00    0.908E-01
RMM:   2    -0.231501001612E+04   -0.17285E+00   -0.18488E+00  6559   0.704E-01    0.609E-01
RMM:   3    -0.231502360038E+04   -0.13584E-01   -0.20482E-01  6081   0.251E-01    0.396E-01
RMM:   4    -0.231502323271E+04    0.36767E-03   -0.19528E-02  6151   0.513E-02    0.328E-01
RMM:   5    -0.231502208769E+04    0.11450E-02   -0.29756E-03  5650   0.285E-02    0.208E-01
RMM:   6    -0.231502158951E+04    0.49819E-03   -0.21884E-03  5474   0.226E-02    0.113E-01
RMM:   7    -0.231502151265E+04    0.76856E-04   -0.49874E-04  4590   0.163E-02    0.529E-02
RMM:   8    -0.231502150246E+04    0.10189E-04   -0.13344E-04  3230   0.757E-03    0.551E-02
RMM:   9    -0.231502146644E+04    0.36023E-04   -0.61545E-05  2963   0.583E-03    0.226E-02
RMM:  10    -0.231502146349E+04    0.29519E-05   -0.32271E-05  2912   0.375E-03
  38 F= -.23358341E+04 E0= -.23358341E+04  d E =-.206470E-01  mag=     3.9999
       N       E                     dE             d eps       ncg     rms          rms(c)
DAV:   1    -0.231426630526E+04    0.75516E+00   -0.42554E+01  4472   0.613E+00    0.186E+00
RMM:   2    -0.231498368103E+04   -0.71738E+00   -0.76269E+00  6586   0.144E+00    0.141E+00
RMM:   3    -0.231502852788E+04   -0.44847E-01   -0.83694E-01  6233   0.504E-01    0.868E-01
RMM:   4    -0.231502555027E+04    0.29776E-02   -0.79828E-02  6394   0.105E-01    0.678E-01
RMM:   5    -0.231502031624E+04    0.52340E-02   -0.11641E-02  5800   0.555E-02    0.416E-01
RMM:   6    -0.231501914948E+04    0.11668E-02   -0.10344E-02  6029   0.495E-02    0.334E-01
RMM:   7    -0.231501828574E+04    0.86375E-03   -0.31068E-03  5838   0.315E-02    0.172E-01
RMM:   8    -0.231501801329E+04    0.27244E-03   -0.84988E-04  5497   0.161E-02    0.133E-01
RMM:   9    -0.231501780992E+04    0.20338E-03   -0.41382E-04  3729   0.131E-02    0.386E-02
RMM:  10    -0.231501781250E+04   -0.25857E-05   -0.16052E-04  3312   0.700E-03    0.138E-02
RMM:  11    -0.231501782107E+04   -0.85633E-05   -0.15298E-05  2918   0.449E-03
  39 F= -.23358280E+04 E0= -.23358280E+04  d E =-.145342E-01  mag=     3.9999
       N       E                     dE             d eps       ncg     rms          rms(c)
DAV:   1    -0.231471004616E+04    0.30777E+00   -0.17974E+01  4472   0.398E+00    0.116E+00
RMM:   2    -0.231500504483E+04   -0.29500E+00   -0.31562E+00  6575   0.945E-01    0.691E-01
RMM:   3    -0.231502805454E+04   -0.23010E-01   -0.32983E-01  6127   0.313E-01    0.534E-01
RMM:   4    -0.231502835651E+04   -0.30197E-03   -0.33134E-02  6161   0.662E-02    0.410E-01
RMM:   5    -0.231502645644E+04    0.19001E-02   -0.44709E-03  5754   0.338E-02    0.310E-01
RMM:   6    -0.231502538279E+04    0.10737E-02   -0.32784E-03  5733   0.293E-02    0.131E-01
RMM:   7    -0.231502529175E+04    0.91031E-04   -0.97122E-04  5430   0.209E-02    0.684E-02
RMM:   8    -0.231502525159E+04    0.40163E-04   -0.16351E-04  3348   0.965E-03    0.536E-02
RMM:   9    -0.231502522236E+04    0.29227E-04   -0.82202E-05  3001   0.629E-03    0.291E-02
RMM:  10    -0.231502521146E+04    0.10900E-04   -0.37084E-05  2975   0.420E-03    0.974E-03
RMM:  11    -0.231502521284E+04   -0.13731E-05   -0.83948E-06  2897   0.311E-03
  40 F= -.23358370E+04 E0= -.23358370E+04  d E =-.235290E-01  mag=     3.9999
       N       E                     dE             d eps       ncg     rms          rms(c)
DAV:   1    -0.231496063262E+04    0.64579E-01   -0.37873E+00  4472   0.184E+00    0.582E-01
RMM:   2    -0.231503279132E+04   -0.72159E-01   -0.76719E-01  6601   0.450E-01    0.361E-01
RMM:   3    -0.231503864131E+04   -0.58500E-02   -0.79732E-02  6088   0.155E-01    0.263E-01
RMM:   4    -0.231503841598E+04    0.22533E-03   -0.83839E-03  5771   0.330E-02    0.206E-01
RMM:   5    -0.231503789364E+04    0.52234E-03   -0.10784E-03  5178   0.166E-02    0.143E-01
RMM:   6    -0.231503766700E+04    0.22664E-03   -0.11207E-03  5273   0.170E-02    0.972E-02
RMM:   7    -0.231503762333E+04    0.43668E-04   -0.30030E-04  4328   0.107E-02    0.583E-02
RMM:   8    -0.231503759012E+04    0.33212E-04   -0.56025E-05  3033   0.566E-03    0.261E-02
RMM:   9    -0.231503757952E+04    0.10602E-04   -0.31546E-05  2885   0.500E-03    0.126E-02
RMM:  10    -0.231503757865E+04    0.86923E-06   -0.13614E-05  2880   0.281E-03
  41 F= -.23358482E+04 E0= -.23358482E+04  d E =-.112407E-01  mag=     3.9999
       N       E                     dE             d eps       ncg     rms          rms(c)
DAV:   1    -0.231462793649E+04    0.40964E+00   -0.20487E+01  4472   0.428E+00    0.138E+00
RMM:   2    -0.231502239170E+04   -0.39446E+00   -0.41847E+00  6582   0.105E+00    0.956E-01
RMM:   3    -0.231505737732E+04   -0.34986E-01   -0.50735E-01  6133   0.423E-01    0.670E-01
RMM:   4    -0.231505515052E+04    0.22268E-02   -0.48070E-02  6381   0.796E-02    0.485E-01
RMM:   5    -0.231505243733E+04    0.27132E-02   -0.59661E-03  5969   0.377E-02    0.335E-01
RMM:   6    -0.231505131954E+04    0.11178E-02   -0.56153E-03  5736   0.362E-02    0.248E-01
RMM:   7    -0.231505090615E+04    0.41340E-03   -0.19973E-03  5779   0.248E-02    0.144E-01
RMM:   8    -0.231505073511E+04    0.17103E-03   -0.46585E-04  4866   0.121E-02    0.822E-02
RMM:   9    -0.231505064858E+04    0.86529E-04   -0.19042E-04  3182   0.977E-03    0.343E-02
RMM:  10    -0.231505064427E+04    0.43132E-05   -0.87917E-05  3053   0.581E-03
  42 F= -.23358587E+04 E0= -.23358587E+04  d E =-.216732E-01  mag=     4.0000
       N       E                     dE             d eps       ncg     rms          rms(c)
DAV:   1    -0.231489823395E+04    0.15241E+00   -0.71761E+00  4472   0.245E+00    0.829E-01
RMM:   2    -0.231505252942E+04   -0.15430E+00   -0.16391E+00  6581   0.625E-01    0.534E-01
RMM:   3    -0.231506731492E+04   -0.14786E-01   -0.19385E-01  6111   0.258E-01    0.373E-01
RMM:   4    -0.231506701579E+04    0.29913E-03   -0.18790E-02  6076   0.476E-02    0.290E-01
RMM:   5    -0.231506603172E+04    0.98407E-03   -0.21277E-03  5573   0.224E-02    0.206E-01
RMM:   6    -0.231506559530E+04    0.43642E-03   -0.20033E-03  5502   0.218E-02    0.146E-01
RMM:   7    -0.231506548499E+04    0.11030E-03   -0.64902E-04  5164   0.140E-02    0.865E-02
RMM:   8    -0.231506542348E+04    0.61512E-04   -0.13500E-04  3285   0.743E-03    0.416E-02
RMM:   9    -0.231506540407E+04    0.19408E-04   -0.60970E-05  2924   0.647E-03    0.198E-02
RMM:  10    -0.231506540414E+04   -0.69427E-07   -0.27072E-05  2910   0.372E-03
  43 F= -.23358720E+04 E0= -.23358720E+04  d E =-.132994E-01  mag=     4.0000
       N       E                     dE             d eps       ncg     rms          rms(c)
DAV:   1    -0.231485129457E+04    0.21411E+00   -0.95496E+00  4472   0.282E+00    0.959E-01
RMM:   2    -0.231505730729E+04   -0.20601E+00   -0.21876E+00  6580   0.722E-01    0.629E-01
RMM:   3    -0.231507702363E+04   -0.19716E-01   -0.26219E-01  6119   0.298E-01    0.436E-01
RMM:   4    -0.231507652682E+04    0.49681E-03   -0.25011E-02  6189   0.548E-02    0.334E-01
RMM:   5    -0.231507523144E+04    0.12954E-02   -0.28573E-03  5723   0.258E-02    0.236E-01
RMM:   6    -0.231507465001E+04    0.58143E-03   -0.25995E-03  5614   0.247E-02    0.168E-01
RMM:   7    -0.231507450177E+04    0.14824E-03   -0.87512E-04  5356   0.162E-02    0.105E-01
RMM:   8    -0.231507441257E+04    0.89191E-04   -0.20000E-04  3601   0.856E-03    0.510E-02
RMM:   9    -0.231507438144E+04    0.31136E-04   -0.80147E-05  2945   0.714E-03    0.248E-02
RMM:  10    -0.231507437916E+04    0.22762E-05   -0.38814E-05  2920   0.427E-03
  44 F= -.23358793E+04 E0= -.23358793E+04  d E =-.206118E-01  mag=     4.0000
       N       E                     dE             d eps       ncg     rms          rms(c)
DAV:   1    -0.231492103749E+04    0.15334E+00   -0.68767E+00  4472   0.235E+00    0.846E-01
RMM:   2    -0.231507789115E+04   -0.15685E+00   -0.16833E+00  6593   0.612E-01    0.508E-01
RMM:   3    -0.231509315300E+04   -0.15262E-01   -0.19920E-01  6034   0.247E-01    0.322E-01
RMM:   4    -0.231509346593E+04   -0.31293E-03   -0.18436E-02  5987   0.457E-02    0.289E-01
RMM:   5    -0.231509267963E+04    0.78630E-03   -0.18793E-03  5097   0.216E-02    0.190E-01
RMM:   6    -0.231509222544E+04    0.45419E-03   -0.16321E-03  5758   0.199E-02    0.111E-01
RMM:   7    -0.231509217978E+04    0.45662E-04   -0.39258E-04  4557   0.123E-02    0.755E-02
RMM:   8    -0.231509212050E+04    0.59281E-04   -0.13218E-04  3310   0.720E-03    0.431E-02
RMM:   9    -0.231509209833E+04    0.22173E-04   -0.48739E-05  2892   0.599E-03    0.195E-02
RMM:  10    -0.231509209669E+04    0.16406E-05   -0.24064E-05  2911   0.364E-03
  45 F= -.23358960E+04 E0= -.23358960E+04  d E =-.167570E-01  mag=     4.0000
       N       E                     dE             d eps       ncg     rms          rms(c)
DAV:   1    -0.231492610930E+04    0.16599E+00   -0.69763E+00  4472   0.237E+00    0.852E-01
RMM:   2    -0.231508568129E+04   -0.15957E+00   -0.17120E+00  6596   0.619E-01    0.511E-01
RMM:   3    -0.231510121961E+04   -0.15538E-01   -0.20330E-01  6038   0.251E-01    0.323E-01
RMM:   4    -0.231510153438E+04   -0.31477E-03   -0.18709E-02  5998   0.462E-02    0.289E-01
RMM:   5    -0.231510074165E+04    0.79273E-03   -0.18988E-03  5145   0.218E-02    0.191E-01
RMM:   6    -0.231510027191E+04    0.46974E-03   -0.16421E-03  5749   0.200E-02    0.110E-01
RMM:   7    -0.231510022290E+04    0.49009E-04   -0.38728E-04  4587   0.123E-02    0.730E-02
RMM:   8    -0.231510016853E+04    0.54376E-04   -0.12974E-04  3317   0.721E-03    0.440E-02
RMM:   9    -0.231510014520E+04    0.23328E-04   -0.49243E-05  2894   0.605E-03    0.196E-02
RMM:  10    -0.231510014363E+04    0.15657E-05   -0.24765E-05  2919   0.369E-03
  46 F= -.23359032E+04 E0= -.23359032E+04  d E =-.238839E-01  mag=     4.0000
       N       E                     dE             d eps       ncg     rms          rms(c)
DAV:   1    -0.231494842811E+04    0.15172E+00   -0.67200E+00  4472   0.232E+00    0.841E-01
RMM:   2    -0.231510098811E+04   -0.15256E+00   -0.16400E+00  6605   0.607E-01    0.486E-01
RMM:   3    -0.231511650109E+04   -0.15513E-01   -0.19638E-01  6066   0.244E-01    0.314E-01
RMM:   4    -0.231511690830E+04   -0.40721E-03   -0.18221E-02  6002   0.450E-02    0.281E-01
RMM:   5    -0.231511612223E+04    0.78607E-03   -0.17145E-03  5080   0.203E-02    0.182E-01
RMM:   6    -0.231511564715E+04    0.47509E-03   -0.15487E-03  5730   0.195E-02    0.935E-02
RMM:   7    -0.231511561542E+04    0.31728E-04   -0.33724E-04  4508   0.113E-02    0.697E-02
RMM:   8    -0.231511557238E+04    0.43037E-04   -0.10876E-04  3187   0.671E-03    0.417E-02
RMM:   9    -0.231511555365E+04    0.18726E-04   -0.42386E-05  2894   0.560E-03    0.187E-02
RMM:  10    -0.231511555198E+04    0.16692E-05   -0.18516E-05  2891   0.318E-03
  47 F= -.23359174E+04 E0= -.23359174E+04  d E =-.142746E-01  mag=     4.0000
       N       E                     dE             d eps       ncg     rms          rms(c)
DAV:   1    -0.231479728875E+04    0.31826E+00   -0.13110E+01  4472   0.325E+00    0.118E+00
RMM:   2    -0.231509760565E+04   -0.30032E+00   -0.32258E+00  6604   0.855E-01    0.713E-01
RMM:   3    -0.231512805981E+04   -0.30454E-01   -0.39447E-01  6106   0.344E-01    0.471E-01
RMM:   4    -0.231512850142E+04   -0.44161E-03   -0.35960E-02  6302   0.642E-02    0.398E-01
RMM:   5    -0.231512693994E+04    0.15615E-02   -0.33039E-03  5370   0.275E-02    0.261E-01
RMM:   6    -0.231512602196E+04    0.91798E-03   -0.30414E-03  5990   0.268E-02    0.153E-01
RMM:   7    -0.231512590313E+04    0.11882E-03   -0.88899E-04  5430   0.165E-02    0.115E-01
RMM:   8    -0.231512578272E+04    0.12041E-03   -0.29290E-04  3936   0.999E-03    0.623E-02
RMM:   9    -0.231512573658E+04    0.46147E-04   -0.92427E-05  2944   0.739E-03    0.309E-02
RMM:  10    -0.231512572918E+04    0.73949E-05   -0.44204E-05  2911   0.461E-03
  48 F= -.23359261E+04 E0= -.23359261E+04  d E =-.229366E-01  mag=     4.0000
       N       E                     dE             d eps       ncg     rms          rms(c)
DAV:   1    -0.231487687117E+04    0.24887E+00   -0.10753E+01  4472   0.290E+00    0.105E+00
RMM:   2    -0.231512055716E+04   -0.24369E+00   -0.26217E+00  6620   0.767E-01    0.627E-01
RMM:   3    -0.231514550355E+04   -0.24946E-01   -0.31927E-01  6104   0.309E-01    0.401E-01
RMM:   4    -0.231514576242E+04   -0.25887E-03   -0.29220E-02  6012   0.561E-02    0.334E-01
RMM:   5    -0.231514461219E+04    0.11502E-02   -0.29363E-03  5465   0.267E-02    0.227E-01
RMM:   6    -0.231514396704E+04    0.64515E-03   -0.21035E-03  5591   0.212E-02    0.140E-01
RMM:   7    -0.231514385726E+04    0.10978E-03   -0.70827E-04  4694   0.166E-02    0.708E-02
RMM:   8    -0.231514382535E+04    0.31907E-04   -0.19603E-04  3402   0.833E-03    0.612E-02
RMM:   9    -0.231514377222E+04    0.53135E-04   -0.88366E-05  2961   0.687E-03    0.270E-02
RMM:  10    -0.231514376694E+04    0.52787E-05   -0.36987E-05  2921   0.412E-03
  49 F= -.23359425E+04 E0= -.23359425E+04  d E =-.163880E-01  mag=     4.0000
       N       E                     dE             d eps       ncg     rms          rms(c)
DAV:   1    -0.231465217359E+04    0.49160E+00   -0.20038E+01  4472   0.397E+00    0.145E+00
RMM:   2    -0.231511267097E+04   -0.46050E+00   -0.49474E+00  6631   0.106E+00    0.910E-01
RMM:   3    -0.231515889249E+04   -0.46222E-01   -0.61111E-01  6151   0.426E-01    0.596E-01
RMM:   4    -0.231515878565E+04    0.10684E-03   -0.55343E-02  6252   0.788E-02    0.473E-01
RMM:   5    -0.231515642408E+04    0.23616E-02   -0.52881E-03  5665   0.356E-02    0.311E-01
RMM:   6    -0.231515528064E+04    0.11434E-02   -0.40493E-03  5760   0.293E-02    0.218E-01
RMM:   7    -0.231515506061E+04    0.22004E-03   -0.17029E-03  5247   0.237E-02    0.126E-01
RMM:   8    -0.231515489738E+04    0.16323E-03   -0.49242E-04  4408   0.123E-02    0.868E-02
RMM:   9    -0.231515479081E+04    0.10656E-03   -0.18250E-04  3104   0.931E-03    0.402E-02
RMM:  10    -0.231515477746E+04    0.13356E-04   -0.85816E-05  3000   0.576E-03    0.970E-03
RMM:  11    -0.231515477950E+04   -0.20445E-05   -0.17877E-05  2907   0.384E-03
  50 F= -.23359514E+04 E0= -.23359514E+04  d E =-.252658E-01  mag=     4.0000
       N       E                     dE             d eps       ncg     rms          rms(c)
DAV:   1    -0.231492640560E+04    0.22837E+00   -0.99894E+00  4472   0.278E+00    0.101E+00
RMM:   2    -0.231515044849E+04   -0.22404E+00   -0.24090E+00  6648   0.737E-01    0.619E-01
RMM:   3    -0.231517276268E+04   -0.22314E-01   -0.29241E-01  6129   0.291E-01    0.417E-01
RMM:   4    -0.231517255007E+04    0.21261E-03   -0.27165E-02  6070   0.547E-02    0.332E-01
RMM:   5    -0.231517133370E+04    0.12164E-02   -0.26960E-03  5662   0.246E-02    0.231E-01
RMM:   6    -0.231517055712E+04    0.77658E-03   -0.24660E-03  5508   0.232E-02    0.120E-01
RMM:   7    -0.231517053747E+04    0.19655E-04   -0.69316E-04  4946   0.161E-02    0.109E-01
RMM:   8    -0.231517044059E+04    0.96874E-04   -0.20850E-04  3701   0.813E-03    0.558E-02
RMM:   9    -0.231517039951E+04    0.41080E-04   -0.87852E-05  2942   0.722E-03    0.256E-02
RMM:  10    -0.231517039513E+04    0.43872E-05   -0.40188E-05  2947   0.399E-03
  51 F= -.23359655E+04 E0= -.23359655E+04  d E =-.141682E-01  mag=     4.0000
       N       E                     dE             d eps       ncg     rms          rms(c)
DAV:   1    -0.231490306784E+04    0.26733E+00   -0.11262E+01  4484   0.296E+00    0.108E+00
RMM:   2    -0.231515686778E+04   -0.25380E+00   -0.27279E+00  6656   0.786E-01    0.661E-01
RMM:   3    -0.231518205751E+04   -0.25190E-01   -0.33173E-01  6142   0.309E-01    0.450E-01
RMM:   4    -0.231518172414E+04    0.33337E-03   -0.30778E-02  6115   0.586E-02    0.354E-01
RMM:   5    -0.231518034507E+04    0.13791E-02   -0.30500E-03  5744   0.261E-02    0.248E-01
RMM:   6    -0.231517945768E+04    0.88739E-03   -0.28313E-03  5554   0.247E-02    0.133E-01
RMM:   7    -0.231517943056E+04    0.27122E-04   -0.81456E-04  5061   0.171E-02    0.120E-01
RMM:   8    -0.231517931200E+04    0.11856E-03   -0.25508E-04  3939   0.887E-03    0.594E-02
RMM:   9    -0.231517926407E+04    0.47931E-04   -0.10311E-04  2960   0.766E-03    0.275E-02
RMM:  10    -0.231517925908E+04    0.49907E-05   -0.46556E-05  2948   0.428E-03
  52 F= -.23359729E+04 E0= -.23359729E+04  d E =-.215825E-01  mag=     4.0000
       N       E                     dE             d eps       ncg     rms          rms(c)
DAV:   1    -0.231513107015E+04    0.48194E-01   -0.20356E+00  4576   0.126E+00    0.453E-01
RMM:   2    -0.231517672558E+04   -0.45655E-01   -0.49032E-01  6659   0.332E-01    0.260E-01
RMM:   3    -0.231518101110E+04   -0.42855E-02   -0.54814E-02  6034   0.126E-01    0.181E-01
RMM:   4    -0.231518104819E+04   -0.37091E-04   -0.54663E-03  5004   0.247E-02    0.152E-01
RMM:   5    -0.231518076496E+04    0.28323E-03   -0.50155E-04  4233   0.115E-02    0.106E-01
RMM:   6    -0.231518064834E+04    0.11663E-03   -0.63774E-04  4914   0.126E-02    0.773E-02
RMM:   7    -0.231518060710E+04    0.41236E-04   -0.14344E-04  3467   0.771E-03    0.333E-02
RMM:   8    -0.231518059567E+04    0.11431E-04   -0.23906E-05  2929   0.447E-03    0.162E-02
RMM:   9    -0.231518059210E+04    0.35643E-05   -0.14829E-05  2860   0.337E-03
  53 F= -.23359737E+04 E0= -.23359737E+04  d E =-.223288E-01  mag=     4.0000
       N       E                     dE             d eps       ncg     rms          rms(c)
DAV:   1    -0.231493834176E+04    0.24225E+00   -0.11482E+01  4472   0.305E+00    0.108E+00
RMM:   2    -0.231517629353E+04   -0.23795E+00   -0.25536E+00  6630   0.782E-01    0.651E-01
RMM:   3    -0.231520019863E+04   -0.23905E-01   -0.30962E-01  6206   0.308E-01    0.492E-01
RMM:   4    -0.231519932938E+04    0.86925E-03   -0.29640E-02  6320   0.604E-02    0.369E-01
RMM:   5    -0.231519786305E+04    0.14663E-02   -0.29863E-03  5801   0.268E-02    0.284E-01
RMM:   6    -0.231519704787E+04    0.81518E-03   -0.34142E-03  5780   0.283E-02    0.192E-01
RMM:   7    -0.231519680121E+04    0.24666E-03   -0.10516E-03  5509   0.179E-02    0.962E-02
RMM:   8    -0.231519670822E+04    0.92990E-04   -0.28557E-04  4213   0.102E-02    0.561E-02
RMM:   9    -0.231519666181E+04    0.46407E-04   -0.11385E-04  3003   0.784E-03    0.238E-02
RMM:  10    -0.231519665870E+04    0.31076E-05   -0.42507E-05  2949   0.454E-03
  54 F= -.23359884E+04 E0= -.23359884E+04  d E =-.147182E-01  mag=     4.0000
       N       E                     dE             d eps       ncg     rms          rms(c)
DAV:   1    -0.231512027955E+04    0.76382E-01   -0.35598E+00  4496   0.169E+00    0.595E-01
RMM:   2    -0.231519367328E+04   -0.73394E-01   -0.78631E-01  6625   0.433E-01    0.355E-01
RMM:   3    -0.231520081809E+04   -0.71448E-02   -0.90439E-02  6186   0.166E-01    0.286E-01
RMM:   4    -0.231520054817E+04    0.26992E-03   -0.90692E-03  5713   0.333E-02    0.204E-01
RMM:   5    -0.231520006955E+04    0.47861E-03   -0.86253E-04  5063   0.153E-02    0.154E-01
RMM:   6    -0.231519988516E+04    0.18440E-03   -0.11243E-03  5419   0.171E-02    0.114E-01
RMM:   7    -0.231519975599E+04    0.12917E-03   -0.33916E-04  4791   0.104E-02    0.369E-02
RMM:   8    -0.231519974082E+04    0.15168E-04   -0.47461E-05  3009   0.570E-03    0.243E-02
RMM:   9    -0.231519973203E+04    0.87879E-05   -0.31191E-05  2893   0.470E-03
  55 F= -.23359908E+04 E0= -.23359908E+04  d E =-.170839E-01  mag=     4.0000
       N       E                     dE             d eps       ncg     rms          rms(c)
DAV:   1    -0.231512403526E+04    0.75706E-01   -0.47920E+00  4472   0.206E+00    0.659E-01
RMM:   2    -0.231520557785E+04   -0.81543E-01   -0.87149E-01  6576   0.486E-01    0.406E-01
RMM:   3    -0.231521365053E+04   -0.80727E-02   -0.10186E-01  6165   0.188E-01    0.403E-01
RMM:   4    -0.231521287196E+04    0.77857E-03   -0.10070E-02  5884   0.381E-02    0.210E-01
RMM:   5    -0.231521232857E+04    0.54340E-03   -0.11171E-03  5293   0.177E-02    0.163E-01
RMM:   6    -0.231521215325E+04    0.17532E-03   -0.12547E-03  5489   0.197E-02    0.119E-01
RMM:   7    -0.231521197859E+04    0.17465E-03   -0.39074E-04  5187   0.116E-02    0.441E-02
RMM:   8    -0.231521196080E+04    0.17792E-04   -0.62790E-05  3060   0.663E-03    0.236E-02
RMM:   9    -0.231521195290E+04    0.78963E-05   -0.31321E-05  2902   0.467E-03
  56 F= -.23360025E+04 E0= -.23360025E+04  d E =-.117111E-01  mag=     4.0000
       N       E                     dE             d eps       ncg     rms          rms(c)
DAV:   1    -0.231504804555E+04    0.16392E+00   -0.92570E+00  4472   0.287E+00    0.918E-01
RMM:   2    -0.231520595003E+04   -0.15790E+00   -0.16892E+00  6579   0.680E-01    0.551E-01
RMM:   3    -0.231522197141E+04   -0.16021E-01   -0.20281E-01  6180   0.263E-01    0.542E-01
RMM:   4    -0.231522062930E+04    0.13421E-02   -0.19556E-02  6181   0.528E-02    0.299E-01
RMM:   5    -0.231521956651E+04    0.10628E-02   -0.22228E-03  5557   0.242E-02    0.230E-01
RMM:   6    -0.231521917381E+04    0.39270E-03   -0.24445E-03  5847   0.266E-02    0.163E-01
RMM:   7    -0.231521886165E+04    0.31216E-03   -0.77789E-04  5546   0.160E-02    0.719E-02
RMM:   8    -0.231521881089E+04    0.50753E-04   -0.16570E-04  3532   0.908E-03    0.385E-02
RMM:   9    -0.231521878924E+04    0.21656E-04   -0.68688E-05  2967   0.654E-03    0.140E-02
RMM:  10    -0.231521878960E+04   -0.35773E-06   -0.21441E-05  2916   0.393E-03
  57 F= -.23360087E+04 E0= -.23360087E+04  d E =-.179048E-01  mag=     4.0000
       N       E                     dE             d eps       ncg     rms          rms(c)
DAV:   1    -0.231518357793E+04    0.35211E-01   -0.26886E+00  4528   0.155E+00    0.465E-01
RMM:   2    -0.231522567076E+04   -0.42093E-01   -0.44692E-01  6607   0.357E-01    0.311E-01
RMM:   3    -0.231522935587E+04   -0.36851E-02   -0.49072E-02  6158   0.128E-01    0.302E-01
RMM:   4    -0.231522884250E+04    0.51338E-03   -0.49902E-03  5472   0.276E-02    0.147E-01
RMM:   5    -0.231522859014E+04    0.25236E-03   -0.58092E-04  4998   0.133E-02    0.120E-01
RMM:   6    -0.231522848911E+04    0.10102E-03   -0.67228E-04  4919   0.149E-02    0.822E-02
RMM:   7    -0.231522840751E+04    0.81599E-04   -0.19249E-04  4573   0.868E-03    0.277E-02
RMM:   8    -0.231522840075E+04    0.67601E-05   -0.24206E-05  2948   0.539E-03
  58 F= -.23360181E+04 E0= -.23360181E+04  d E =-.938339E-02  mag=     4.0000
       N       E                     dE             d eps       ncg     rms          rms(c)
DAV:   1    -0.231482981215E+04    0.39860E+00   -0.24135E+01  4472   0.464E+00    0.140E+00
RMM:   2    -0.231521059446E+04   -0.38078E+00   -0.40679E+00  6616   0.108E+00    0.844E-01
RMM:   3    -0.231524772826E+04   -0.37134E-01   -0.49411E-01  6170   0.410E-01    0.803E-01
RMM:   4    -0.231524482025E+04    0.29080E-02   -0.46669E-02  6381   0.822E-02    0.478E-01
RMM:   5    -0.231524238602E+04    0.24342E-02   -0.51225E-03  5779   0.362E-02    0.381E-01
RMM:   6    -0.231524116027E+04    0.12257E-02   -0.61715E-03  6019   0.416E-02    0.245E-01
RMM:   7    -0.231524057932E+04    0.58095E-03   -0.21254E-03  5825   0.251E-02    0.133E-01
RMM:   8    -0.231524041059E+04    0.16873E-03   -0.52256E-04  4682   0.151E-02    0.761E-02
RMM:   9    -0.231524032217E+04    0.88421E-04   -0.22304E-04  3522   0.943E-03    0.281E-02
RMM:  10    -0.231524031586E+04    0.63083E-05   -0.65748E-05  3013   0.589E-03
  59 F= -.23360294E+04 E0= -.23360294E+04  d E =-.207394E-01  mag=     4.0000
       N       E                     dE             d eps       ncg     rms          rms(c)
DAV:   1    -0.231516946763E+04    0.70855E-01   -0.56610E+00  4472   0.229E+00    0.642E-01
RMM:   2    -0.231524717642E+04   -0.77709E-01   -0.81870E-01  6605   0.508E-01    0.449E-01
RMM:   3    -0.231525369659E+04   -0.65202E-02   -0.92703E-02  6217   0.187E-01    0.387E-01
RMM:   4    -0.231525255053E+04    0.11461E-02   -0.92257E-03  5996   0.391E-02    0.214E-01
RMM:   5    -0.231525215384E+04    0.39669E-03   -0.10976E-03  5304   0.180E-02    0.188E-01
RMM:   6    -0.231525183546E+04    0.31839E-03   -0.14221E-03  5660   0.209E-02    0.108E-01
RMM:   7    -0.231525171962E+04    0.11584E-03   -0.40199E-04  5061   0.121E-02    0.381E-02
RMM:   8    -0.231525170492E+04    0.14696E-04   -0.46787E-05  3038   0.646E-03    0.254E-02
RMM:   9    -0.231525169475E+04    0.10166E-04   -0.40139E-05  2921   0.468E-03    0.807E-03
RMM:  10    -0.231525169551E+04   -0.75399E-06   -0.81025E-06  2888   0.280E-03
  60 F= -.23360404E+04 E0= -.23360404E+04  d E =-.109772E-01  mag=     4.0000
       N       E                     dE             d eps       ncg     rms          rms(c)
DAV:   1    -0.231513184942E+04    0.11985E+00   -0.87264E+00  4472   0.283E+00    0.797E-01
RMM:   2    -0.231525163483E+04   -0.11979E+00   -0.12628E+00  6617   0.629E-01    0.553E-01
RMM:   3    -0.231526202817E+04   -0.10393E-01   -0.14675E-01  6246   0.232E-01    0.478E-01
RMM:   4    -0.231526024907E+04    0.17791E-02   -0.14352E-02  6157   0.485E-02    0.269E-01
RMM:   5    -0.231525962435E+04    0.62472E-03   -0.17184E-03  5460   0.219E-02    0.235E-01
RMM:   6    -0.231525912327E+04    0.50108E-03   -0.21987E-03  5809   0.256E-02    0.138E-01
RMM:   7    -0.231525893374E+04    0.18954E-03   -0.65189E-04  5291   0.151E-02    0.504E-02
RMM:   8    -0.231525890858E+04    0.25151E-04   -0.83344E-05  3197   0.789E-03    0.344E-02
RMM:   9    -0.231525888999E+04    0.18598E-04   -0.67379E-05  2986   0.593E-03    0.108E-02
RMM:  10    -0.231525889119E+04   -0.12070E-05   -0.15722E-05  2909   0.343E-03
  61 F= -.23360471E+04 E0= -.23360471E+04  d E =-.177178E-01  mag=     4.0000
       N       E                     dE             d eps       ncg     rms          rms(c)
DAV:   1    -0.231524528967E+04    0.13600E-01   -0.98422E-01  4624   0.951E-01    0.268E-01
RMM:   2    -0.231525890230E+04   -0.13613E-01   -0.14284E-01  6619   0.212E-01    0.195E-01
RMM:   3    -0.231525988622E+04   -0.98392E-03   -0.14774E-02  5931   0.726E-02    0.163E-01
RMM:   4    -0.231525967736E+04    0.20886E-03   -0.15393E-03  4346   0.163E-02    0.864E-02
RMM:   5    -0.231525961261E+04    0.64750E-04   -0.20506E-04  3949   0.917E-03    0.771E-02
RMM:   6    -0.231525955711E+04    0.55500E-04   -0.24510E-04  3991   0.970E-03    0.427E-02
RMM:   7    -0.231525953936E+04    0.17754E-04   -0.56981E-05  3138   0.619E-03    0.140E-02
RMM:   8    -0.231525953783E+04    0.15262E-05   -0.80319E-06  2876   0.407E-03
  62 F= -.23360476E+04 E0= -.23360476E+04  d E =-.182228E-01  mag=     4.0000
       N       E                     dE             d eps       ncg     rms          rms(c)
DAV:   1    -0.231521912855E+04    0.40411E-01   -0.49346E+00  4472   0.218E+00    0.597E-01
RMM:   2    -0.231526979083E+04   -0.50662E-01   -0.53138E-01  6533   0.456E-01    0.426E-01
RMM:   3    -0.231527215976E+04   -0.23689E-02   -0.52741E-02  6168   0.151E-01    0.347E-01
RMM:   4    -0.231527087569E+04    0.12841E-02   -0.56186E-03  6168   0.356E-02    0.188E-01
RMM:   5    -0.231527064428E+04    0.23140E-03   -0.10973E-03  5368   0.191E-02    0.179E-01
RMM:   6    -0.231527035622E+04    0.28806E-03   -0.11493E-03  5701   0.203E-02    0.917E-02
RMM:   7    -0.231527027477E+04    0.81453E-04   -0.25435E-04  4737   0.111E-02    0.272E-02
RMM:   8    -0.231527026446E+04    0.10306E-04   -0.30207E-05  2984   0.540E-03    0.183E-02
RMM:   9    -0.231527025842E+04    0.60406E-05   -0.23562E-05  2908   0.392E-03
  63 F= -.23360579E+04 E0= -.23360579E+04  d E =-.102949E-01  mag=     4.0000
       N       E                     dE             d eps       ncg     rms          rms(c)
DAV:   1    -0.231525124139E+04    0.19023E-01   -0.20606E+00  4484   0.141E+00    0.385E-01
RMM:   2    -0.231527236642E+04   -0.21125E-01   -0.22146E-01  6549   0.295E-01    0.272E-01
RMM:   3    -0.231527331135E+04   -0.94493E-03   -0.21021E-02  6085   0.951E-02    0.223E-01
RMM:   4    -0.231527278638E+04    0.52497E-03   -0.23033E-03  5667   0.230E-02    0.120E-01
RMM:   5    -0.231527268935E+04    0.97032E-04   -0.47492E-04  4870   0.133E-02    0.114E-01
RMM:   6    -0.231527257137E+04    0.11798E-03   -0.47326E-04  5143   0.136E-02    0.587E-02
RMM:   7    -0.231527253721E+04    0.34160E-04   -0.97953E-05  3562   0.765E-03    0.169E-02
RMM:   8    -0.231527253336E+04    0.38477E-05   -0.12767E-05  2909   0.447E-03
  64 F= -.23360599E+04 E0= -.23360599E+04  d E =-.123053E-01  mag=     4.0000
       N       E                     dE             d eps       ncg     rms          rms(c)
DAV:   1    -0.231525382533E+04    0.18712E-01   -0.38928E+00  4472   0.191E+00    0.479E-01
RMM:   2    -0.231528196385E+04   -0.28139E-01   -0.29744E-01  6513   0.373E-01    0.324E-01
RMM:   3    -0.231528309726E+04   -0.11334E-02   -0.28293E-02  6079   0.116E-01    0.289E-01
RMM:   4    -0.231528230787E+04    0.78939E-03   -0.30442E-03  5990   0.292E-02    0.155E-01
RMM:   5    -0.231528220582E+04    0.10205E-03   -0.92138E-04  5286   0.184E-02    0.148E-01
RMM:   6    -0.231528202302E+04    0.18280E-03   -0.73432E-04  5463   0.171E-02    0.701E-02
RMM:   7    -0.231528197132E+04    0.51698E-04   -0.12327E-04  3623   0.868E-03    0.208E-02
RMM:   8    -0.231528196704E+04    0.42785E-05   -0.20077E-05  2938   0.486E-03
  65 F= -.23360691E+04 E0= -.23360691E+04  d E =-.912171E-02  mag=     4.0000
       N       E                     dE             d eps       ncg     rms          rms(c)
DAV:   1    -0.231526121782E+04    0.20753E-01   -0.31954E+00  4472   0.174E+00    0.434E-01
RMM:   2    -0.231528430084E+04   -0.23083E-01   -0.24408E-01  6530   0.339E-01    0.293E-01
RMM:   3    -0.231528525107E+04   -0.95023E-03   -0.23142E-02  6065   0.106E-01    0.262E-01
RMM:   4    -0.231528460362E+04    0.64745E-03   -0.24939E-03  5871   0.265E-02    0.140E-01
RMM:   5    -0.231528452058E+04    0.83042E-04   -0.75659E-04  5235   0.169E-02    0.133E-01
RMM:   6    -0.231528436940E+04    0.15117E-03   -0.61538E-04  5353   0.156E-02    0.628E-02
RMM:   7    -0.231528432573E+04    0.43676E-04   -0.98470E-05  3419   0.800E-03    0.188E-02
RMM:   8    -0.231528432228E+04    0.34477E-05   -0.17621E-05  2929   0.465E-03
  66 F= -.23360712E+04 E0= -.23360712E+04  d E =-.112106E-01  mag=     4.0000
       N       E                     dE             d eps       ncg     rms          rms(c)
DAV:   1    -0.231527210817E+04    0.12218E-01   -0.35549E+00  4472   0.182E+00    0.419E-01
RMM:   2    -0.231529161237E+04   -0.19504E-01   -0.20719E-01  6515   0.333E-01    0.258E-01
RMM:   3    -0.231529246119E+04   -0.84883E-03   -0.18285E-02  5914   0.100E-01    0.266E-01
RMM:   4    -0.231529194592E+04    0.51528E-03   -0.20238E-03  5822   0.257E-02    0.134E-01
RMM:   5    -0.231529175910E+04    0.18682E-03   -0.77506E-04  4700   0.188E-02    0.664E-02
RMM:   6    -0.231529177057E+04   -0.11469E-04   -0.30109E-04  4539   0.144E-02    0.557E-02
RMM:   7    -0.231529173060E+04    0.39971E-04   -0.77189E-05  3108   0.642E-03    0.208E-02
RMM:   8    -0.231529172564E+04    0.49567E-05   -0.13188E-05  2910   0.426E-03
  67 F= -.23360783E+04 E0= -.23360783E+04  d E =-.716348E-02  mag=     4.0000
       N       E                     dE             d eps       ncg     rms          rms(c)
DAV:   1    -0.231526291028E+04    0.28820E-01   -0.58766E+00  4472   0.235E+00    0.539E-01
RMM:   2    -0.231529521045E+04   -0.32300E-01   -0.34307E-01  6531   0.429E-01    0.330E-01
RMM:   3    -0.231529659656E+04   -0.13861E-02   -0.30451E-02  5950   0.129E-01    0.339E-01
RMM:   4    -0.231529576428E+04    0.83228E-03   -0.33464E-03  6083   0.330E-02    0.173E-01
RMM:   5    -0.231529544915E+04    0.31513E-03   -0.12853E-03  4802   0.237E-02    0.876E-02
RMM:   6    -0.231529545786E+04   -0.87071E-05   -0.51402E-04  4897   0.181E-02    0.707E-02
RMM:   7    -0.231529539381E+04    0.64051E-04   -0.13123E-04  3435   0.791E-03    0.283E-02
RMM:   8    -0.231529538371E+04    0.10095E-04   -0.21733E-05  2956   0.496E-03    0.131E-02
RMM:   9    -0.231529538120E+04    0.25185E-05   -0.14955E-05  2917   0.321E-03
  68 F= -.23360817E+04 E0= -.23360817E+04  d E =-.105306E-01  mag=     4.0000
       N       E                     dE             d eps       ncg     rms          rms(c)
DAV:   1    -0.231528377108E+04    0.11613E-01   -0.36866E+00  4472   0.187E+00    0.490E-01
RMM:   2    -0.231530397396E+04   -0.20203E-01   -0.21147E-01  6306   0.349E-01    0.311E-01
RMM:   3    -0.231530446057E+04   -0.48661E-03   -0.17638E-02  6040   0.111E-01    0.329E-01
RMM:   4    -0.231530343572E+04    0.10249E-02   -0.21961E-03  6137   0.294E-02    0.135E-01
RMM:   5    -0.231530334959E+04    0.86127E-04   -0.91442E-04  5082   0.199E-02    0.109E-01
RMM:   6    -0.231530325966E+04    0.89933E-04   -0.50473E-04  5196   0.155E-02    0.648E-02
RMM:   7    -0.231530320672E+04    0.52937E-04   -0.78932E-05  3576   0.715E-03    0.146E-02
RMM:   8    -0.231530320484E+04    0.18784E-05   -0.14530E-05  2899   0.429E-03
  69 F= -.23360894E+04 E0= -.23360894E+04  d E =-.768419E-02  mag=     4.0000
       N       E                     dE             d eps       ncg     rms          rms(c)
DAV:   1    -0.231530042660E+04    0.27801E-02   -0.68284E-01  4592   0.806E-01    0.211E-01
RMM:   2    -0.231530419370E+04   -0.37671E-02   -0.39267E-02  6306   0.151E-01    0.139E-01
RMM:   3    -0.231530427052E+04   -0.76818E-04   -0.32458E-03  5658   0.466E-02    0.145E-01
RMM:   4    -0.231530407294E+04    0.19759E-03   -0.40993E-04  4587   0.129E-02    0.580E-02
RMM:   5    -0.231530405922E+04    0.13711E-04   -0.17613E-04  4230   0.987E-03    0.486E-02
RMM:   6    -0.231530403927E+04    0.19950E-04   -0.99194E-05  3220   0.789E-03    0.273E-02
RMM:   7    -0.231530403004E+04    0.92315E-05   -0.17303E-05  2916   0.518E-03
  70 F= -.23360901E+04 E0= -.23360901E+04  d E =-.845113E-02  mag=     4.0000
       N       E                     dE             d eps       ncg     rms          rms(c)
DAV:   1    -0.231529301935E+04    0.11020E-01   -0.24706E+00  4468   0.156E+00    0.394E-01
RMM:   2    -0.231531020346E+04   -0.17184E-01   -0.17780E-01  6338   0.303E-01    0.285E-01
RMM:   3    -0.231531081083E+04   -0.60737E-03   -0.14802E-02  6024   0.939E-02    0.275E-01
RMM:   4    -0.231531009937E+04    0.71146E-03   -0.17972E-03  5786   0.243E-02    0.111E-01
RMM:   5    -0.231531003047E+04    0.68899E-04   -0.56031E-04  4871   0.162E-02    0.872E-02
RMM:   6    -0.231530997707E+04    0.53401E-04   -0.36847E-04  4939   0.133E-02    0.568E-02
RMM:   7    -0.231530993450E+04    0.42571E-04   -0.59550E-05  3351   0.673E-03    0.123E-02
RMM:   8    -0.231530993260E+04    0.18963E-05   -0.10884E-05  2891   0.414E-03
  71 F= -.23360961E+04 E0= -.23360961E+04  d E =-.601193E-02  mag=     4.0000
       N       E                     dE             d eps       ncg     rms          rms(c)
DAV:   1    -0.231529545326E+04    0.14481E-01   -0.22915E+00  4456   0.151E+00    0.379E-01
RMM:   2    -0.231531141303E+04   -0.15960E-01   -0.16485E-01  6352   0.291E-01    0.281E-01
RMM:   3    -0.231531194455E+04   -0.53152E-03   -0.13773E-02  6011   0.896E-02    0.267E-01
RMM:   4    -0.231531126839E+04    0.67616E-03   -0.16659E-03  5794   0.234E-02    0.107E-01
RMM:   5    -0.231531120358E+04    0.64813E-04   -0.51779E-04  4832   0.155E-02    0.858E-02
RMM:   6    -0.231531114686E+04    0.56722E-04   -0.35030E-04  4866   0.129E-02    0.545E-02
RMM:   7    -0.231531110715E+04    0.39703E-04   -0.56747E-05  3318   0.663E-03    0.121E-02
RMM:   8    -0.231531110508E+04    0.20729E-05   -0.10624E-05  2887   0.413E-03
  72 F= -.23360974E+04 E0= -.23360974E+04  d E =-.729181E-02  mag=     4.0000
       N       E                     dE             d eps       ncg     rms          rms(c)
DAV:   1    -0.231530234787E+04    0.87593E-02   -0.18612E+00  4496   0.134E+00    0.329E-01
RMM:   2    -0.231531531928E+04   -0.12971E-01   -0.13338E-01  6422   0.261E-01    0.253E-01
RMM:   3    -0.231531564643E+04   -0.32715E-03   -0.10340E-02  6003   0.747E-02    0.228E-01
RMM:   4    -0.231531514923E+04    0.49720E-03   -0.13260E-03  5557   0.200E-02    0.923E-02
RMM:   5    -0.231531505258E+04    0.96650E-04   -0.33123E-04  4405   0.135E-02    0.505E-02
RMM:   6    -0.231531506588E+04   -0.13299E-04   -0.21092E-04  4275   0.121E-02    0.495E-02
RMM:   7    -0.231531503220E+04    0.33681E-04   -0.47847E-05  3070   0.606E-03    0.126E-02
RMM:   8    -0.231531503037E+04    0.18316E-05   -0.76526E-06  2876   0.372E-03
  73 F= -.23361017E+04 E0= -.23361017E+04  d E =-.423612E-02  mag=     4.0000
       N       E                     dE             d eps       ncg     rms          rms(c)
DAV:   1    -0.231528432830E+04    0.30704E-01   -0.47889E+00  4472   0.215E+00    0.527E-01
RMM:   2    -0.231531759186E+04   -0.33264E-01   -0.34271E-01  6404   0.418E-01    0.399E-01
RMM:   3    -0.231531858078E+04   -0.98893E-03   -0.27329E-02  6091   0.123E-01    0.367E-01
RMM:   4    -0.231531729693E+04    0.12839E-02   -0.34272E-03  6019   0.321E-02    0.149E-01
RMM:   5    -0.231531704844E+04    0.24848E-03   -0.84493E-04  4790   0.205E-02    0.830E-02
RMM:   6    -0.231531707228E+04   -0.23834E-04   -0.55414E-04  5254   0.180E-02    0.786E-02
RMM:   7    -0.231531698863E+04    0.83651E-04   -0.12423E-04  3767   0.848E-03    0.221E-02
RMM:   8    -0.231531698230E+04    0.63278E-05   -0.17591E-05  2926   0.441E-03
  74 F= -.23361041E+04 E0= -.23361041E+04  d E =-.669377E-02  mag=     4.0000
       N       E                     dE             d eps       ncg     rms          rms(c)
DAV:   1    -0.231531013251E+04    0.68561E-02   -0.16658E+00  4512   0.123E+00    0.328E-01
RMM:   2    -0.231532220418E+04   -0.12072E-01   -0.12313E-01  6368   0.251E-01    0.277E-01
RMM:   3    -0.231532242873E+04   -0.22455E-03   -0.10887E-02  6037   0.729E-02    0.219E-01
RMM:   4    -0.231532195176E+04    0.47697E-03   -0.12945E-03  5622   0.195E-02    0.893E-02
RMM:   5    -0.231532184573E+04    0.10604E-03   -0.30214E-04  4574   0.133E-02    0.450E-02
RMM:   6    -0.231532184143E+04    0.42997E-05   -0.16904E-04  4224   0.112E-02    0.289E-02
RMM:   7    -0.231532183543E+04    0.59927E-05   -0.33765E-05  2949   0.568E-03
  75 F= -.23361094E+04 E0= -.23361094E+04  d E =-.525023E-02  mag=     4.0000
       N       E                     dE             d eps       ncg     rms          rms(c)
DAV:   1    -0.231529825874E+04    0.23583E-01   -0.35175E+00  4456   0.179E+00    0.477E-01
RMM:   2    -0.231532362314E+04   -0.25364E-01   -0.26010E-01  6369   0.365E-01    0.385E-01
RMM:   3    -0.231532425853E+04   -0.63539E-03   -0.23067E-02  6147   0.107E-01    0.316E-01
RMM:   4    -0.231532324895E+04    0.10096E-02   -0.26909E-03  5981   0.282E-02    0.131E-01
RMM:   5    -0.231532302346E+04    0.22549E-03   -0.66738E-04  4984   0.186E-02    0.633E-02
RMM:   6    -0.231532299691E+04    0.26551E-04   -0.31037E-04  4844   0.148E-02    0.254E-02
RMM:   7    -0.231532299480E+04    0.21098E-05   -0.39165E-05  3041   0.623E-03
  76 F= -.23361111E+04 E0= -.23361111E+04  d E =-.699418E-02  mag=     4.0000
       N       E                     dE             d eps       ncg     rms          rms(c)
DAV:   1    -0.231531647395E+04    0.65230E-02   -0.11627E+00  4464   0.102E+00    0.274E-01
RMM:   2    -0.231532617549E+04   -0.97015E-02   -0.97620E-02  6484   0.215E-01    0.261E-01
RMM:   3    -0.231532628439E+04   -0.10890E-03   -0.88581E-03  6053   0.609E-02    0.171E-01
RMM:   4    -0.231532600204E+04    0.28234E-03   -0.10195E-03  5203   0.157E-02    0.727E-02
RMM:   5    -0.231532593623E+04    0.65816E-04   -0.17345E-04  4194   0.103E-02    0.395E-02
RMM:   6    -0.231532593712E+04   -0.89202E-06   -0.11634E-04  3657   0.934E-03    0.266E-02
RMM:   7    -0.231532593152E+04    0.55974E-05   -0.24174E-05  2896   0.545E-03
  77 F= -.23361145E+04 E0= -.23361145E+04  d E =-.337695E-02  mag=     4.0000
       N       E                     dE             d eps       ncg     rms          rms(c)
DAV:   1    -0.231527720499E+04    0.48732E-01   -0.62058E+00  4440   0.235E+00    0.632E-01
RMM:   2    -0.231532915130E+04   -0.51946E-01   -0.52248E-01  6495   0.495E-01    0.607E-01
RMM:   3    -0.231532956998E+04   -0.41868E-03   -0.48679E-02  6272   0.143E-01    0.385E-01
RMM:   4    -0.231532816954E+04    0.14004E-02   -0.55482E-03  5888   0.355E-02    0.171E-01
RMM:   5    -0.231532792738E+04    0.24216E-03   -0.10453E-03  5299   0.224E-02    0.132E-01
RMM:   6    -0.231532787069E+04    0.56691E-04   -0.89160E-04  5619   0.193E-02    0.108E-01
RMM:   7    -0.231532773551E+04    0.13518E-03   -0.21550E-04  4551   0.106E-02    0.251E-02
RMM:   8    -0.231532772964E+04    0.58629E-05   -0.27922E-05  2951   0.461E-03
  78 F= -.23361173E+04 E0= -.23361173E+04  d E =-.620264E-02  mag=     4.0000
       N       E                     dE             d eps       ncg     rms          rms(c)
DAV:   1    -0.231532229132E+04    0.54442E-02   -0.82852E-01  4544   0.896E-01    0.280E-01
RMM:   2    -0.231533223128E+04   -0.99400E-02   -0.98232E-02  6527   0.210E-01    0.291E-01
RMM:   3    -0.231533203591E+04    0.19536E-03   -0.90777E-03  6081   0.621E-02    0.157E-01
RMM:   4    -0.231533179761E+04    0.23830E-03   -0.10665E-03  5170   0.158E-02    0.725E-02
RMM:   5    -0.231533178768E+04    0.99271E-05   -0.20918E-04  4008   0.104E-02    0.744E-02
[...]
RMM:   2    -0.231640993513E+04   -0.10493E+00   -0.10971E+00  6519   0.637E-01    0.699E-01
RMM:   3    -0.231641469334E+04   -0.47582E-02   -0.11058E-01  6258   0.195E-01    0.596E-01
RMM:   4    -0.231641102461E+04    0.36687E-02   -0.12165E-02  6163   0.472E-02    0.273E-01
RMM:   5    -0.231641084981E+04    0.17480E-03   -0.25894E-03  5708   0.258E-02    0.265E-01
RMM:   6    -0.231641009398E+04    0.75583E-03   -0.20579E-03  5746   0.247E-02    0.130E-01
RMM:   7    -0.231640996258E+04    0.13140E-03   -0.49313E-04  4897   0.142E-02    0.352E-02
RMM:   8    -0.231640994076E+04    0.21820E-04   -0.48005E-05  2980   0.653E-03    0.207E-02
RMM:   9    -0.231640993399E+04    0.67653E-05   -0.27141E-05  2897   0.407E-03
 181 F= -.23372870E+04 E0= -.23372870E+04  d E =-.180229E-01  mag=     2.0000
       N       E                     dE             d eps       ncg     rms          rms(c)
DAV:   1    -0.231622940728E+04    0.18053E+00   -0.14315E+01  4472   0.349E+00    0.104E+00
RMM:   2    -0.231642224913E+04   -0.19284E+00   -0.20112E+00  6514   0.863E-01    0.983E-01
RMM:   3    -0.231642961876E+04   -0.73696E-02   -0.20464E-01  6288   0.264E-01    0.804E-01
RMM:   4    -0.231642295534E+04    0.66634E-02   -0.22409E-02  6268   0.641E-02    0.376E-01
RMM:   5    -0.231642266576E+04    0.28957E-03   -0.45481E-03  5956   0.332E-02    0.369E-01
RMM:   6    -0.231642108142E+04    0.15843E-02   -0.37603E-03  5810   0.334E-02    0.167E-01
RMM:   7    -0.231642090664E+04    0.17478E-03   -0.93637E-04  5149   0.195E-02    0.510E-02
RMM:   8    -0.231642086252E+04    0.44122E-04   -0.98779E-05  3165   0.880E-03    0.288E-02
RMM:   9    -0.231642084922E+04    0.13300E-04   -0.53200E-05  2970   0.546E-03    0.112E-02
RMM:  10    -0.231642084831E+04    0.91155E-06   -0.14080E-05  2917   0.354E-03
 182 F= -.23372987E+04 E0= -.23372987E+04  d E =-.297900E-01  mag=     2.0000
       N       E                     dE             d eps       ncg     rms          rms(c)
DAV:   1    -0.231628525512E+04    0.13559E+00   -0.10702E+01  4472   0.313E+00    0.954E-01
RMM:   2    -0.231644113874E+04   -0.15588E+00   -0.16534E+00  6498   0.788E-01    0.649E-01
RMM:   3    -0.231645301095E+04   -0.11872E-01   -0.17491E-01  6252   0.244E-01    0.731E-01
RMM:   4    -0.231644803081E+04    0.49801E-02   -0.18624E-02  6401   0.587E-02    0.339E-01
RMM:   5    -0.231644686005E+04    0.11708E-02   -0.36245E-03  5572   0.342E-02    0.200E-01
RMM:   6    -0.231644714178E+04   -0.28173E-03   -0.25187E-03  5910   0.281E-02    0.241E-01
RMM:   7    -0.231644644098E+04    0.70079E-03   -0.85262E-04  5190   0.173E-02    0.479E-02
RMM:   8    -0.231644641139E+04    0.29596E-04   -0.16248E-04  3715   0.764E-03    0.362E-02
RMM:   9    -0.231644638775E+04    0.23635E-04   -0.53697E-05  2902   0.613E-03    0.143E-02
RMM:  10    -0.231644638448E+04    0.32740E-05   -0.27234E-05  2960   0.370E-03
 183 F= -.23373243E+04 E0= -.23373243E+04  d E =-.255885E-01  mag=     2.0000
       N       E                     dE             d eps       ncg     rms          rms(c)
DAV:   1    -0.231635170121E+04    0.94687E-01   -0.67454E+00  4484   0.248E+00    0.755E-01
RMM:   2    -0.231644928641E+04   -0.97585E-01   -0.10361E+00  6485   0.621E-01    0.502E-01
RMM:   3    -0.231645678939E+04   -0.75030E-02   -0.10822E-01  6218   0.193E-01    0.580E-01
RMM:   4    -0.231645376737E+04    0.30220E-02   -0.11591E-02  6313   0.463E-02    0.271E-01
RMM:   5    -0.231645302062E+04    0.74675E-03   -0.22944E-03  5470   0.274E-02    0.158E-01
RMM:   6    -0.231645319071E+04   -0.17009E-03   -0.15600E-03  5768   0.223E-02    0.190E-01
RMM:   7    -0.231645275641E+04    0.43430E-03   -0.53253E-04  4714   0.138E-02    0.374E-02
RMM:   8    -0.231645273729E+04    0.19124E-04   -0.99823E-05  3404   0.654E-03    0.276E-02
RMM:   9    -0.231645272346E+04    0.13825E-04   -0.32895E-05  2884   0.518E-03    0.110E-02
RMM:  10    -0.231645272173E+04    0.17365E-05   -0.16957E-05  2934   0.310E-03
 184 F= -.23373307E+04 E0= -.23373307E+04  d E =-.319489E-01  mag=     2.0000
       N       E                     dE             d eps       ncg     rms          rms(c)
DAV:   1    -0.231629785679E+04    0.15487E+00   -0.10768E+01  4472   0.312E+00    0.954E-01
RMM:   2    -0.231646187881E+04   -0.16402E+00   -0.17593E+00  6519   0.786E-01    0.508E-01
RMM:   3    -0.231647313253E+04   -0.11254E-01   -0.19023E-01  6010   0.242E-01    0.445E-01
RMM:   4    -0.231647339312E+04   -0.26060E-03   -0.19206E-02  6134   0.543E-02    0.377E-01
RMM:   5    -0.231647209374E+04    0.12994E-02   -0.32395E-03  5466   0.308E-02    0.220E-01
RMM:   6    -0.231647202716E+04    0.66576E-04   -0.20500E-03  5814   0.236E-02    0.206E-01
RMM:   7    -0.231647169614E+04    0.33103E-03   -0.10459E-03  5244   0.182E-02    0.113E-01
RMM:   8    -0.231647154189E+04    0.15424E-03   -0.21711E-04  4218   0.898E-03    0.411E-02
RMM:   9    -0.231647151452E+04    0.27368E-04   -0.62706E-05  2905   0.629E-03    0.162E-02
RMM:  10    -0.231647151137E+04    0.31580E-05   -0.27192E-05  2929   0.350E-03
 185 F= -.23373491E+04 E0= -.23373491E+04  d E =-.183922E-01  mag=     2.0000
       N       E                     dE             d eps       ncg     rms          rms(c)
DAV:   1    -0.231639870815E+04    0.72806E-01   -0.47453E+00  4468   0.207E+00    0.633E-01
RMM:   2    -0.231647096169E+04   -0.72254E-01   -0.77454E-01  6519   0.517E-01    0.332E-01
RMM:   3    -0.231647595889E+04   -0.49972E-02   -0.84318E-02  5923   0.161E-01    0.273E-01
RMM:   4    -0.231647618898E+04   -0.23009E-03   -0.83596E-03  5721   0.361E-02    0.239E-01
RMM:   5    -0.231647562286E+04    0.56613E-03   -0.14235E-03  5169   0.207E-02    0.137E-01
RMM:   6    -0.231647547112E+04    0.15173E-03   -0.68993E-04  5125   0.147E-02    0.791E-02
RMM:   7    -0.231647553054E+04   -0.59415E-04   -0.32822E-04  3985   0.115E-02    0.103E-01
RMM:   8    -0.231647540913E+04    0.12141E-03   -0.92084E-05  3207   0.694E-03    0.244E-02
RMM:   9    -0.231647539965E+04    0.94747E-05   -0.28862E-05  2875   0.458E-03
 186 F= -.23373527E+04 E0= -.23373527E+04  d E =-.220245E-01  mag=     2.0000
       N       E                     dE             d eps       ncg     rms          rms(c)
DAV:   1    -0.231642672305E+04    0.48686E-01   -0.45512E+00  4472   0.208E+00    0.640E-01
RMM:   2    -0.231648634848E+04   -0.59625E-01   -0.63468E-01  6401   0.493E-01    0.418E-01
RMM:   3    -0.231649207623E+04   -0.57277E-02   -0.71206E-02  6163   0.164E-01    0.530E-01
RMM:   4    -0.231648907726E+04    0.29990E-02   -0.73281E-03  6341   0.407E-02    0.216E-01
RMM:   5    -0.231648889046E+04    0.18680E-03   -0.20705E-03  5590   0.249E-02    0.208E-01
RMM:   6    -0.231648852406E+04    0.36640E-03   -0.12469E-03  5549   0.202E-02    0.123E-01
RMM:   7    -0.231648838099E+04    0.14306E-03   -0.27520E-04  4422   0.113E-02    0.333E-02
RMM:   8    -0.231648836699E+04    0.14008E-04   -0.55440E-05  3167   0.678E-03    0.204E-02
RMM:   9    -0.231648835905E+04    0.79341E-05   -0.22042E-05  2888   0.427E-03
 187 F= -.23373653E+04 E0= -.23373653E+04  d E =-.125544E-01  mag=     2.0000
       N       E                     dE             d eps       ncg     rms          rms(c)
DAV:   1    -0.231648036884E+04    0.79981E-02   -0.68425E-01  4688   0.806E-01    0.248E-01
RMM:   2    -0.231648935997E+04   -0.89911E-02   -0.95495E-02  6370   0.190E-01    0.164E-01
RMM:   3    -0.231649016269E+04   -0.80272E-03   -0.99873E-03  5892   0.629E-02    0.207E-01
RMM:   4    -0.231648970825E+04    0.45443E-03   -0.10888E-03  4346   0.160E-02    0.821E-02
RMM:   5    -0.231648967543E+04    0.32820E-04   -0.31129E-04  4188   0.112E-02    0.769E-02
RMM:   6    -0.231648962636E+04    0.49072E-04   -0.18614E-04  3560   0.910E-03    0.471E-02
RMM:   7    -0.231648960528E+04    0.21078E-04   -0.37773E-05  2920   0.618E-03    0.116E-02
RMM:   8    -0.231648960366E+04    0.16270E-05   -0.92358E-06  2894   0.402E-03
 188 F= -.23373664E+04 E0= -.23373664E+04  d E =-.136420E-01  mag=     2.0000
       N       E                     dE             d eps       ncg     rms          rms(c)
DAV:   1    -0.231643080864E+04    0.58797E-01   -0.48723E+00  4472   0.217E+00    0.633E-01
RMM:   2    -0.231650020457E+04   -0.69396E-01   -0.74417E-01  6477   0.506E-01    0.413E-01
RMM:   3    -0.231650548457E+04   -0.52800E-02   -0.76292E-02  6149   0.161E-01    0.431E-01
RMM:   4    -0.231650385135E+04    0.16332E-02   -0.79862E-03  6228   0.386E-02    0.246E-01
RMM:   5    -0.231650346054E+04    0.39082E-03   -0.18724E-03  5507   0.225E-02    0.219E-01
RMM:   6    -0.231650305777E+04    0.40277E-03   -0.14119E-03  5374   0.205E-02    0.133E-01
RMM:   7    -0.231650290920E+04    0.14857E-03   -0.37520E-04  4683   0.122E-02    0.328E-02
RMM:   8    -0.231650289757E+04    0.11634E-04   -0.55835E-05  3126   0.694E-03    0.243E-02
RMM:   9    -0.231650288730E+04    0.10265E-04   -0.29433E-05  2883   0.435E-03    0.895E-03
RMM:  10    -0.231650288665E+04    0.65082E-06   -0.10393E-05  2912   0.268E-03
 189 F= -.23373794E+04 E0= -.23373794E+04  d E =-.130617E-01  mag=     2.0000
       N       E                     dE             d eps       ncg     rms          rms(c)
DAV:   1    -0.231645892359E+04    0.43964E-01   -0.31971E+00  4472   0.176E+00    0.511E-01
RMM:   2    -0.231650448366E+04   -0.45560E-01   -0.48845E-01  6469   0.408E-01    0.333E-01
RMM:   3    -0.231650791498E+04   -0.34313E-02   -0.49620E-02  6132   0.130E-01    0.350E-01
RMM:   4    -0.231650684528E+04    0.10697E-02   -0.52091E-03  5969   0.312E-02    0.199E-01
RMM:   5    -0.231650657921E+04    0.26607E-03   -0.12326E-03  5287   0.187E-02    0.174E-01
RMM:   6    -0.231650632365E+04    0.25557E-03   -0.93048E-04  5068   0.169E-02    0.106E-01
RMM:   7    -0.231650622752E+04    0.96127E-04   -0.23764E-04  4273   0.101E-02    0.251E-02
RMM:   8    -0.231650622030E+04    0.72243E-05   -0.34505E-05  3002   0.603E-03
 190 F= -.23373826E+04 E0= -.23373826E+04  d E =-.162033E-01  mag=     2.0000
       N       E                     dE             d eps       ncg     rms          rms(c)
DAV:   1    -0.231640946943E+04    0.96758E-01   -0.64418E+00  4472   0.256E+00    0.753E-01
RMM:   2    -0.231651463490E+04   -0.10517E+00   -0.11254E+00  6436   0.602E-01    0.606E-01
RMM:   3    -0.231652339581E+04   -0.87609E-02   -0.12196E-01  6175   0.206E-01    0.656E-01
RMM:   4    -0.231651928216E+04    0.41136E-02   -0.12047E-02  6288   0.501E-02    0.279E-01
RMM:   5    -0.231651898786E+04    0.29431E-03   -0.27917E-03  5737   0.266E-02    0.281E-01
RMM:   6    -0.231651807341E+04    0.91444E-03   -0.24591E-03  5820   0.271E-02    0.134E-01
RMM:   7    -0.231651791443E+04    0.15898E-03   -0.56943E-04  4872   0.147E-02    0.423E-02
RMM:   8    -0.231651788791E+04    0.26519E-04   -0.80614E-05  3352   0.757E-03    0.283E-02
RMM:   9    -0.231651786930E+04    0.18612E-04   -0.54109E-05  2933   0.579E-03    0.916E-03
RMM:  10    -0.231651786760E+04    0.17023E-05   -0.16803E-05  2936   0.360E-03
 191 F= -.23373940E+04 E0= -.23373940E+04  d E =-.114704E-01  mag=     2.0000
       N       E                     dE             d eps       ncg     rms          rms(c)
DAV:   1    -0.231651100461E+04    0.68647E-02   -0.44614E-01  4688   0.675E-01    0.196E-01
RMM:   2    -0.231651818900E+04   -0.71844E-02   -0.77073E-02  6450   0.156E-01    0.148E-01
RMM:   3    -0.231651880130E+04   -0.61230E-03   -0.79186E-03  5664   0.520E-02    0.173E-01
RMM:   4    -0.231651852480E+04    0.27651E-03   -0.81435E-04  3678   0.132E-02    0.709E-02
RMM:   5    -0.231651850336E+04    0.21438E-04   -0.20499E-04  3481   0.887E-03    0.722E-02
RMM:   6    -0.231651844361E+04    0.59746E-04   -0.16882E-04  3765   0.875E-03    0.336E-02
RMM:   7    -0.231651843335E+04    0.10265E-04   -0.34950E-05  2934   0.547E-03    0.983E-03
RMM:   8    -0.231651843210E+04    0.12435E-05   -0.68016E-06  2890   0.365E-03
 192 F= -.23373945E+04 E0= -.23373945E+04  d E =-.119841E-01  mag=     2.0000
       N       E                     dE             d eps       ncg     rms          rms(c)
DAV:   1    -0.231643659261E+04    0.81841E-01   -0.54130E+00  4472   0.236E+00    0.724E-01
RMM:   2    -0.231652436090E+04   -0.87768E-01   -0.92960E-01  6339   0.562E-01    0.609E-01
RMM:   3    -0.231653188968E+04   -0.75288E-02   -0.10225E-01  6143   0.195E-01    0.685E-01
RMM:   4    -0.231652691100E+04    0.49787E-02   -0.10329E-02  6292   0.485E-02    0.233E-01
RMM:   5    -0.231652664806E+04    0.26293E-03   -0.24689E-03  5711   0.261E-02    0.239E-01
RMM:   6    -0.231652599534E+04    0.65272E-03   -0.17033E-03  5667   0.231E-02    0.120E-01
RMM:   7    -0.231652584196E+04    0.15339E-03   -0.38643E-04  4777   0.129E-02    0.361E-02
RMM:   8    -0.231652581971E+04    0.22247E-04   -0.58393E-05  3193   0.721E-03    0.220E-02
RMM:   9    -0.231652580592E+04    0.13790E-04   -0.35615E-05  2904   0.518E-03    0.872E-03
RMM:  10    -0.231652580255E+04    0.33753E-05   -0.12675E-05  2908   0.360E-03
 193 F= -.23374017E+04 E0= -.23374017E+04  d E =-.713391E-02  mag=     2.0000
       N       E                     dE             d eps       ncg     rms          rms(c)
DAV:   1    -0.231652531862E+04    0.48730E-03   -0.31368E-02  5032   0.180E-01    0.549E-02
RMM:   2    -0.231652581819E+04   -0.49957E-03   -0.53196E-03  6370   0.423E-02    0.418E-02
RMM:   3    -0.231652586697E+04   -0.48786E-04   -0.56182E-04  3237   0.147E-02    0.537E-02
RMM:   4    -0.231652583786E+04    0.29109E-04   -0.59178E-05  2940   0.518E-03    0.170E-02
RMM:   5    -0.231652583625E+04    0.16133E-05   -0.15672E-05  2880   0.282E-03
 194 F= -.23374017E+04 E0= -.23374017E+04  d E =-.718620E-02  mag=     2.0000
       N       E                     dE             d eps       ncg     rms          rms(c)
DAV:   1    -0.231648380678E+04    0.42031E-01   -0.29477E+00  4472   0.175E+00    0.524E-01
RMM:   2    -0.231652900676E+04   -0.45200E-01   -0.48958E-01  6388   0.409E-01    0.271E-01
RMM:   3    -0.231653246728E+04   -0.34605E-02   -0.53566E-02  5949   0.138E-01    0.226E-01
RMM:   4    -0.231653239761E+04    0.69673E-04   -0.53081E-03  5884   0.309E-02    0.187E-01
RMM:   5    -0.231653198711E+04    0.41050E-03   -0.10235E-03  5198   0.192E-02    0.105E-01
RMM:   6    -0.231653199057E+04   -0.34614E-05   -0.53029E-04  5089   0.138E-02    0.122E-01
RMM:   7    -0.231653184972E+04    0.14085E-03   -0.24824E-04  3656   0.983E-03    0.441E-02
RMM:   8    -0.231653182604E+04    0.23673E-04   -0.50384E-05  3140   0.585E-03    0.168E-02
RMM:   9    -0.231653182067E+04    0.53766E-05   -0.14387E-05  2875   0.416E-03
 195 F= -.23374074E+04 E0= -.23374074E+04  d E =-.571105E-02  mag=     2.0000
       N       E                     dE             d eps       ncg     rms          rms(c)
DAV:   1    -0.231652614585E+04    0.56802E-02   -0.37611E-01  4560   0.626E-01    0.188E-01
RMM:   2    -0.231653192524E+04   -0.57794E-02   -0.62464E-02  6388   0.145E-01    0.100E-01
RMM:   3    -0.231653237182E+04   -0.44659E-03   -0.67183E-03  5550   0.486E-02    0.882E-02
RMM:   4    -0.231653234199E+04    0.29839E-04   -0.66933E-04  3369   0.115E-02    0.683E-02
RMM:   5    -0.231653229678E+04    0.45207E-04   -0.14567E-04  3262   0.856E-03    0.484E-02
RMM:   6    -0.231653228664E+04    0.10140E-04   -0.77234E-05  3142   0.692E-03    0.426E-02
RMM:   7    -0.231653226835E+04    0.18285E-04   -0.32267E-05  2906   0.547E-03    0.864E-03
RMM:   8    -0.231653226765E+04    0.70722E-06   -0.78021E-06  2894   0.364E-03
 196 F= -.23374078E+04 E0= -.23374078E+04  d E =-.605880E-02  mag=     2.0000
       N       E                     dE             d eps       ncg     rms          rms(c)
DAV:   1    -0.231649205928E+04    0.40209E-01   -0.27970E+00  4440   0.169E+00    0.507E-01
RMM:   2    -0.231653816264E+04   -0.46103E-01   -0.47250E-01  6436   0.395E-01    0.507E-01
RMM:   3    -0.231654123160E+04   -0.30690E-02   -0.54832E-02  6237   0.135E-01    0.462E-01
RMM:   4    -0.231653875878E+04    0.24728E-02   -0.51695E-03  5955   0.334E-02    0.165E-01
RMM:   5    -0.231653868252E+04    0.76258E-04   -0.97983E-04  4798   0.159E-02    0.170E-01
RMM:   6    -0.231653829498E+04    0.38754E-03   -0.71141E-04  5129   0.160E-02    0.596E-02
RMM:   7    -0.231653827543E+04    0.19556E-04   -0.23287E-04  4249   0.113E-02    0.217E-02
RMM:   8    -0.231653826870E+04    0.67294E-05   -0.20388E-05  2904   0.496E-03
 197 F= -.23374133E+04 E0= -.23374133E+04  d E =-.549879E-02  mag=     2.0000
       N       E                     dE             d eps       ncg     rms          rms(c)
DAV:   1    -0.231647346782E+04    0.64808E-01   -0.39979E+00  4440   0.202E+00    0.607E-01
RMM:   2    -0.231653963087E+04   -0.66163E-01   -0.67752E-01  6463   0.473E-01    0.613E-01
RMM:   3    -0.231654403408E+04   -0.44032E-02   -0.78950E-02  6274   0.161E-01    0.558E-01
RMM:   4    -0.231654044801E+04    0.35861E-02   -0.74212E-03  6111   0.399E-02    0.198E-01
RMM:   5    -0.231654033666E+04    0.11134E-03   -0.14164E-03  5077   0.186E-02    0.204E-01
RMM:   6    -0.231653977726E+04    0.55941E-03   -0.10162E-03  5295   0.189E-02    0.717E-02
RMM:   7    -0.231653974997E+04    0.27291E-04   -0.33372E-04  4515   0.129E-02    0.266E-02
RMM:   8    -0.231653973931E+04    0.10651E-04   -0.29014E-05  2932   0.552E-03    0.145E-02
RMM:   9    -0.231653973652E+04    0.27907E-05   -0.13533E-05  2877   0.376E-03
 198 F= -.23374142E+04 E0= -.23374142E+04  d E =-.636491E-02  mag=     2.0000
       N       E                     dE             d eps       ncg     rms          rms(c)
DAV:   1    -0.231653130373E+04    0.84356E-02   -0.52271E-01  4496   0.729E-01    0.219E-01
RMM:   2    -0.231654004466E+04   -0.87409E-02   -0.88460E-02  6432   0.169E-01    0.234E-01
RMM:   3    -0.231654042879E+04   -0.38413E-03   -0.99089E-03  5853   0.573E-02    0.188E-01
RMM:   4    -0.231654002293E+04    0.40586E-03   -0.92794E-04  4030   0.143E-02    0.704E-02
RMM:   5    -0.231654000871E+04    0.14223E-04   -0.17063E-04  3089   0.797E-03    0.726E-02
RMM:   6    -0.231653993932E+04    0.69387E-04   -0.14007E-04  3644   0.846E-03    0.279E-02
RMM:   7    -0.231653993449E+04    0.48267E-05   -0.56892E-05  3163   0.628E-03
 199 F= -.23374146E+04 E0= -.23374146E+04  d E =-.678077E-02  mag=     2.0000
       N       E                     dE             d eps       ncg     rms          rms(c)
DAV:   1    -0.231648455080E+04    0.55389E-01   -0.38936E+00  4440   0.196E+00    0.609E-01
RMM:   2    -0.231654792306E+04   -0.63372E-01   -0.63411E-01  6356   0.464E-01    0.695E-01
RMM:   3    -0.231654961236E+04   -0.16893E-02   -0.70432E-02  6192   0.155E-01    0.533E-01
RMM:   4    -0.231654638963E+04    0.32227E-02   -0.70700E-03  6044   0.390E-02    0.212E-01
RMM:   5    -0.231654616140E+04    0.22823E-03   -0.13393E-03  4981   0.184E-02    0.197E-01
RMM:   6    -0.231654558234E+04    0.57906E-03   -0.11648E-03  5193   0.207E-02    0.621E-02
RMM:   7    -0.231654556312E+04    0.19220E-04   -0.32746E-04  4466   0.143E-02    0.266E-02
RMM:   8    -0.231654554962E+04    0.13500E-04   -0.33519E-05  2916   0.530E-03    0.128E-02
RMM:   9    -0.231654554559E+04    0.40290E-05   -0.14574E-05  2911   0.354E-03
 200 F= -.23374194E+04 E0= -.23374194E+04  d E =-.487499E-02  mag=     2.0000
       N       E                     dE             d eps       ncg     rms          rms(c)
DAV:   1    -0.231654455231E+04    0.99732E-03   -0.74943E-02  4752   0.273E-01    0.854E-02
RMM:   2    -0.231654579643E+04   -0.12441E-02   -0.12283E-02  6384   0.643E-02    0.104E-01
RMM:   3    -0.231654579450E+04    0.19320E-05   -0.12798E-03  3985   0.221E-02    0.700E-02
RMM:   4    -0.231654574005E+04    0.54452E-04   -0.13473E-04  3004   0.674E-03    0.290E-02
RMM:   5    -0.231654573597E+04    0.40805E-05   -0.25547E-05  2903   0.373E-03
 201 F= -.23374195E+04 E0= -.23374195E+04  d E =-.496265E-02  mag=     2.0000
