       N       E                     dE             d eps       ncg     rms          rms(c)
DAV:   1     0.127450803387E+05    0.12745E+05   -0.82829E+05  4432   0.144E+03
DAV:   2    -0.105743484213E+04   -0.13803E+05   -0.13229E+05  5288   0.330E+02
DAV:   3    -0.246880194606E+04   -0.14114E+04   -0.13985E+04  5312   0.111E+02
DAV:   4    -0.251343381532E+04   -0.44632E+02   -0.44409E+02  6632   0.292E+01
DAV:   5    -0.251426439845E+04   -0.83058E+00   -0.82916E+00  5560   0.322E+00    0.171E+02
RMM:   6    -0.147708908921E+04    0.10372E+04   -0.19596E+03  4395   0.391E+01    0.765E+01
RMM:   7    -0.166618381672E+04   -0.18909E+03   -0.36711E+02  5030   0.150E+01    0.609E+01
RMM:   8    -0.168322697424E+04   -0.17043E+02   -0.83087E+01  5241   0.875E+00    0.393E+01
RMM:   9    -0.176992488670E+04   -0.86698E+02   -0.54819E+01  4948   0.588E+00    0.355E+01
RMM:  10    -0.188657037914E+04   -0.11665E+03   -0.58559E+01  5206   0.719E+00    0.338E+01
RMM:  11    -0.195968211061E+04   -0.73112E+02   -0.35216E+01  5321   0.531E+00    0.178E+01
RMM:  12    -0.206793892714E+04   -0.10826E+03   -0.48162E+01  4581   0.537E+00    0.132E+01
RMM:  13    -0.221735763035E+04   -0.14942E+03   -0.13012E+02  4411   0.794E+00    0.915E+00
RMM:  14    -0.228072315659E+04   -0.63366E+02   -0.62044E+01  4585   0.542E+00    0.520E+00
RMM:  15    -0.229605826822E+04   -0.15335E+02   -0.17354E+01  4847   0.354E+00    0.649E+00
RMM:  16    -0.229699254281E+04   -0.93427E+00   -0.28587E+00  5589   0.114E+00    0.572E+00
RMM:  17    -0.229800651463E+04   -0.10140E+01   -0.57459E-01  4689   0.491E-01    0.483E+00
RMM:  18    -0.230063041373E+04   -0.26239E+01   -0.21369E+00  4441   0.847E-01    0.225E+00
RMM:  19    -0.230257975297E+04   -0.19493E+01   -0.95252E-01  4542   0.575E-01    0.114E+00
RMM:  20    -0.230296341862E+04   -0.38367E+00   -0.26229E-01  4955   0.344E-01    0.712E-01
RMM:  21    -0.230315577348E+04   -0.19235E+00   -0.14236E-01  4605   0.169E-01    0.594E-01
RMM:  22    -0.230324878852E+04   -0.93015E-01   -0.56458E-02  4548   0.135E-01    0.587E-01
RMM:  23    -0.230327174620E+04   -0.22958E-01   -0.15214E-02  4958   0.630E-02    0.527E-01
RMM:  24    -0.230326773755E+04    0.40086E-02   -0.16279E-03  4745   0.248E-02    0.538E-01
RMM:  25    -0.230332584806E+04   -0.58111E-01   -0.27404E-02  4485   0.916E-02    0.449E-01
RMM:  26    -0.230335135651E+04   -0.25508E-01   -0.16897E-02  4516   0.712E-02    0.344E-01
RMM:  27    -0.230336151259E+04   -0.10156E-01   -0.76496E-03  4846   0.508E-02    0.268E-01
RMM:  28    -0.230336613564E+04   -0.46231E-02   -0.29509E-03  4454   0.326E-02    0.186E-01
RMM:  29    -0.230337085718E+04   -0.47215E-02   -0.61294E-03  4750   0.388E-02    0.747E-02
RMM:  30    -0.230337083815E+04    0.19026E-04   -0.51543E-04  4180   0.256E-02    0.517E-02
RMM:  31    -0.230337158502E+04   -0.74687E-03   -0.30020E-04  4051   0.107E-02    0.346E-02
RMM:  32    -0.230337185803E+04   -0.27302E-03   -0.72900E-05  3425   0.910E-03    0.149E-02
RMM:  33    -0.230337220754E+04   -0.34950E-03   -0.46968E-05  3333   0.513E-03    0.123E-02
RMM:  34    -0.230337241383E+04   -0.20630E-03   -0.23762E-05  3036   0.444E-03    0.943E-03
RMM:  35    -0.230337250785E+04   -0.94013E-04   -0.15366E-05  2914   0.370E-03    0.473E-03
RMM:  36    -0.230337255493E+04   -0.47086E-04   -0.90439E-06  2773   0.318E-03    0.223E-03
RMM:  37    -0.230337257152E+04   -0.16591E-04   -0.63122E-06  2540   0.266E-03    0.169E-03
RMM:  38    -0.230337257342E+04   -0.18924E-05   -0.25031E-06  2415   0.213E-03
   1 F= -.23237495E+04 E0= -.23237495E+04  d E =-.232375E+04  mag=     1.0000
       N       E                     dE             d eps       ncg     rms          rms(c)
DAV:   1    -0.230326618219E+04    0.10639E+00   -0.96595E+01  4624   0.705E+00    0.336E+00
RMM:   2    -0.230480752430E+04   -0.15413E+01   -0.11321E+01  5918   0.204E+00    0.732E+00
RMM:   3    -0.230413893882E+04    0.66859E+00   -0.10362E+00  4746   0.851E-01    0.182E+00
RMM:   4    -0.230409370875E+04    0.45230E-01   -0.13191E-01  5746   0.180E-01    0.102E+00
RMM:   5    -0.230408482189E+04    0.88869E-02   -0.27715E-02  5881   0.967E-02    0.563E-01
RMM:   6    -0.230407975612E+04    0.50658E-02   -0.11798E-02  5126   0.654E-02    0.249E-01
RMM:   7    -0.230407947707E+04    0.27906E-03   -0.23343E-03  4657   0.434E-02    0.842E-02
RMM:   8    -0.230407944580E+04    0.31270E-04   -0.68552E-04  4476   0.183E-02    0.482E-02
RMM:   9    -0.230407946134E+04   -0.15541E-04   -0.16736E-04  4112   0.123E-02    0.226E-02
RMM:  10    -0.230407950281E+04   -0.41473E-04   -0.58233E-05  3511   0.685E-03    0.120E-02
RMM:  11    -0.230407952864E+04   -0.25827E-04   -0.30977E-05  3123   0.561E-03    0.676E-03
RMM:  12    -0.230407953995E+04   -0.11314E-04   -0.14182E-05  2849   0.423E-03    0.372E-03
RMM:  13    -0.230407954617E+04   -0.62156E-05   -0.84370E-06  2805   0.363E-03
   2 F= -.23244609E+04 E0= -.23244609E+04  d E =-.711457E+00  mag=     1.0000
       N       E                     dE             d eps       ncg     rms          rms(c)
DAV:   1    -0.230407561124E+04    0.39287E-02   -0.17827E+00  4952   0.104E+00    0.439E-01
RMM:   2    -0.230410208996E+04   -0.26479E-01   -0.18533E-01  5826   0.273E-01    0.104E+00
RMM:   3    -0.230409132481E+04    0.10765E-01   -0.24469E-02  4917   0.140E-01    0.229E-01
RMM:   4    -0.230409075292E+04    0.57189E-03   -0.24105E-03  4688   0.236E-02    0.104E-01
RMM:   5    -0.230409061458E+04    0.13834E-03   -0.47917E-04  4489   0.155E-02    0.436E-02
RMM:   6    -0.230409059989E+04    0.14696E-04   -0.11293E-04  3876   0.887E-03    0.292E-02
RMM:   7    -0.230409059076E+04    0.91250E-05   -0.36012E-05  3073   0.531E-03
   3 F= -.23244726E+04 E0= -.23244726E+04  d E =-.723144E+00  mag=     1.0000
       N       E                     dE             d eps       ncg     rms          rms(c)
DAV:   1    -0.230425479062E+04   -0.16419E+00   -0.31472E+01  4432   0.462E+00    0.153E+00
RMM:   2    -0.230433115120E+04   -0.76361E-01   -0.90685E-01  5721   0.843E-01    0.890E-01
RMM:   3    -0.230435494401E+04   -0.23793E-01   -0.76028E-02  5616   0.253E-01    0.179E+00
RMM:   4    -0.230431967007E+04    0.35274E-01   -0.20142E-02  5967   0.921E-02    0.315E-01
RMM:   5    -0.230431788724E+04    0.17828E-02   -0.80805E-03  4796   0.602E-02    0.118E-01
RMM:   6    -0.230431782363E+04    0.63608E-04   -0.10262E-03  5003   0.336E-02    0.707E-02
RMM:   7    -0.230431774699E+04    0.76641E-04   -0.23660E-04  4467   0.108E-02    0.391E-02
RMM:   8    -0.230431770663E+04    0.40361E-04   -0.10257E-04  4261   0.888E-03    0.225E-02
RMM:   9    -0.230431769639E+04    0.10242E-04   -0.37166E-05  3194   0.617E-03    0.968E-03
RMM:  10    -0.230431769753E+04   -0.11477E-05   -0.16879E-05  2873   0.473E-03
   4 F= -.23246992E+04 E0= -.23246992E+04  d E =-.226643E+00  mag=     1.0000
       N       E                     dE             d eps       ncg     rms          rms(c)
DAV:   1    -0.230433224621E+04   -0.14550E-01   -0.17469E+01  4464   0.340E+00    0.113E+00
RMM:   2    -0.230437415327E+04   -0.41907E-01   -0.49636E-01  5671   0.612E-01    0.674E-01
RMM:   3    -0.230438774243E+04   -0.13589E-01   -0.43696E-02  5631   0.189E-01    0.135E+00
RMM:   4    -0.230436796085E+04    0.19782E-01   -0.11647E-02  5906   0.682E-02    0.244E-01
RMM:   5    -0.230436718016E+04    0.78069E-03   -0.45150E-03  5217   0.449E-02    0.152E-01
RMM:   6    -0.230436687869E+04    0.30148E-03   -0.11268E-03  5268   0.264E-02    0.569E-02
RMM:   7    -0.230436682582E+04    0.52868E-04   -0.12977E-04  3991   0.905E-03    0.287E-02
RMM:   8    -0.230436680667E+04    0.19148E-04   -0.71576E-05  3838   0.747E-03    0.183E-02
RMM:   9    -0.230436680159E+04    0.50849E-05   -0.25099E-05  3005   0.551E-03
   5 F= -.23247480E+04 E0= -.23247480E+04  d E =-.275439E+00  mag=     1.0000
       N       E                     dE             d eps       ncg     rms          rms(c)
DAV:   1    -0.230437798903E+04   -0.11182E-01   -0.23293E+01  4456   0.386E+00    0.119E+00
RMM:   2    -0.230453483125E+04   -0.15684E+00   -0.17116E+00  6018   0.860E-01    0.612E-01
RMM:   3    -0.230453945926E+04   -0.46280E-02   -0.11411E-01  5628   0.269E-01    0.825E-01
RMM:   4    -0.230453615595E+04    0.33033E-02   -0.16527E-02  5677   0.641E-02    0.480E-01
RMM:   5    -0.230453418737E+04    0.19686E-02   -0.48040E-03  5599   0.381E-02    0.309E-01
RMM:   6    -0.230453315485E+04    0.10325E-02   -0.30393E-03  5191   0.380E-02    0.719E-02
RMM:   7    -0.230453311191E+04    0.42936E-04   -0.34092E-04  4414   0.153E-02    0.341E-02
RMM:   8    -0.230453309364E+04    0.18271E-04   -0.63448E-05  3171   0.616E-03    0.211E-02
RMM:   9    -0.230453308848E+04    0.51584E-05   -0.29967E-05  3032   0.496E-03
   6 F= -.23249123E+04 E0= -.23249123E+04  d E =-.164250E+00  mag=     1.0000
       N       E                     dE             d eps       ncg     rms          rms(c)
DAV:   1    -0.230445774023E+04    0.75353E-01   -0.19594E+01  4472   0.356E+00    0.109E+00
RMM:   2    -0.230458901824E+04   -0.13128E+00   -0.14305E+00  6034   0.791E-01    0.563E-01
RMM:   3    -0.230459200280E+04   -0.29846E-02   -0.92583E-02  5604   0.249E-01    0.684E-01
RMM:   4    -0.230459065380E+04    0.13490E-02   -0.13907E-02  5558   0.596E-02    0.488E-01
RMM:   5    -0.230458863317E+04    0.20206E-02   -0.42542E-03  5604   0.366E-02    0.304E-01
RMM:   6    -0.230458761866E+04    0.10145E-02   -0.25811E-03  5103   0.356E-02    0.658E-02
RMM:   7    -0.230458758486E+04    0.33796E-04   -0.31867E-04  4363   0.145E-02    0.323E-02
RMM:   8    -0.230458756791E+04    0.16955E-04   -0.59702E-05  3218   0.598E-03    0.208E-02
RMM:   9    -0.230458756348E+04    0.44331E-05   -0.28477E-05  3048   0.476E-03
   7 F= -.23249649E+04 E0= -.23249649E+04  d E =-.216900E+00  mag=     1.0000
       N       E                     dE             d eps       ncg     rms          rms(c)
DAV:   1    -0.230450808847E+04    0.79479E-01   -0.15524E+01  4544   0.340E+00    0.142E+00
RMM:   2    -0.230486752991E+04   -0.35944E+00   -0.23446E+00  6151   0.807E-01    0.396E+00
RMM:   3    -0.230469312519E+04    0.17440E+00   -0.17300E-01  5426   0.246E-01    0.590E-01
RMM:   4    -0.230468892753E+04    0.41977E-02   -0.25024E-02  5601   0.693E-02    0.358E-01
RMM:   5    -0.230468774805E+04    0.11795E-02   -0.35087E-03  5517   0.339E-02    0.243E-01
RMM:   6    -0.230468686346E+04    0.88459E-03   -0.24547E-03  5344   0.328E-02    0.803E-02
RMM:   7    -0.230468684713E+04    0.16327E-04   -0.29650E-04  4040   0.151E-02    0.275E-02
RMM:   8    -0.230468683851E+04    0.86257E-05   -0.39174E-05  3043   0.501E-03
   8 F= -.23250625E+04 E0= -.23250625E+04  d E =-.975901E-01  mag=     1.0000
       N       E                     dE             d eps       ncg     rms          rms(c)
DAV:   1    -0.230430583039E+04    0.38102E+00   -0.39147E+01  4496   0.536E+00    0.220E+00
RMM:   2    -0.230518362509E+04   -0.87779E+00   -0.57995E+00  6144   0.128E+00    0.610E+00
RMM:   3    -0.230476396819E+04    0.41966E+00   -0.45543E-01  5643   0.396E-01    0.993E-01
RMM:   4    -0.230475037223E+04    0.13596E-01   -0.61366E-02  5750   0.112E-01    0.557E-01
RMM:   5    -0.230474767686E+04    0.26954E-02   -0.84520E-03  5702   0.522E-02    0.385E-01
RMM:   6    -0.230474571243E+04    0.19644E-02   -0.58621E-03  5453   0.504E-02    0.150E-01
RMM:   7    -0.230474561373E+04    0.98704E-04   -0.86633E-04  4524   0.244E-02    0.481E-02
RMM:   8    -0.230474560322E+04    0.10508E-04   -0.11611E-04  3641   0.816E-03    0.318E-02
RMM:   9    -0.230474560453E+04   -0.13093E-05   -0.36088E-05  3031   0.556E-03
   9 F= -.23251185E+04 E0= -.23251185E+04  d E =-.153514E+00  mag=     1.0000
       N       E                     dE             d eps       ncg     rms          rms(c)
DAV:   1    -0.230461087228E+04    0.13473E+00   -0.24594E+01  4432   0.458E+00    0.161E+00
RMM:   2    -0.230489940280E+04   -0.28853E+00   -0.25346E+00  5954   0.102E+00    0.260E+00
RMM:   3    -0.230483812258E+04    0.61280E-01   -0.18386E-01  5354   0.334E-01    0.130E+00
RMM:   4    -0.230481784712E+04    0.20275E-01   -0.23138E-02  5313   0.885E-02    0.387E-01
RMM:   5    -0.230481640206E+04    0.14451E-02   -0.64466E-03  5743   0.582E-02    0.306E-01
RMM:   6    -0.230481479579E+04    0.16063E-02   -0.40225E-03  5401   0.440E-02    0.112E-01
RMM:   7    -0.230481457712E+04    0.21867E-03   -0.36975E-04  4594   0.229E-02    0.387E-02
RMM:   8    -0.230481450137E+04    0.75750E-04   -0.12580E-04  4203   0.865E-03    0.250E-02
RMM:   9    -0.230481446647E+04    0.34904E-04   -0.62245E-05  3601   0.766E-03    0.115E-02
RMM:  10    -0.230481445926E+04    0.72052E-05   -0.27041E-05  3079   0.519E-03
  10 F= -.23251850E+04 E0= -.23251850E+04  d E =-.665672E-01  mag=     1.0000
       N       E                     dE             d eps       ncg     rms          rms(c)
DAV:   1    -0.230481061824E+04    0.38482E-02   -0.67899E-01  4904   0.759E-01    0.265E-01
RMM:   2    -0.230481829847E+04   -0.76802E-02   -0.68176E-02  6058   0.172E-01    0.419E-01
RMM:   3    -0.230481683525E+04    0.14632E-02   -0.49441E-03  5454   0.546E-02    0.215E-01
RMM:   4    -0.230481628886E+04    0.54639E-03   -0.59521E-04  4727   0.145E-02    0.607E-02
RMM:   5    -0.230481624912E+04    0.39743E-04   -0.19633E-04  4399   0.109E-02    0.496E-02
RMM:   6    -0.230481620618E+04    0.42933E-04   -0.11289E-04  4267   0.814E-03    0.143E-02
RMM:   7    -0.230481620130E+04    0.48820E-05   -0.10571E-05  2841   0.510E-03
  11 F= -.23251864E+04 E0= -.23251864E+04  d E =-.679194E-01  mag=     1.0000
       N       E                     dE             d eps       ncg     rms          rms(c)
DAV:   1    -0.230478371291E+04    0.32493E-01   -0.15610E+01  4416   0.346E+00    0.937E-01
RMM:   2    -0.230488311398E+04   -0.99401E-01   -0.10467E+00  5943   0.722E-01    0.576E-01
RMM:   3    -0.230489148254E+04   -0.83686E-02   -0.73891E-02  5578   0.220E-01    0.117E+00
RMM:   4    -0.230487762741E+04    0.13855E-01   -0.11613E-02  5676   0.608E-02    0.228E-01
RMM:   5    -0.230487690449E+04    0.72292E-03   -0.34388E-03  4903   0.385E-02    0.108E-01
RMM:   6    -0.230487686357E+04    0.40917E-04   -0.60121E-04  4804   0.220E-02    0.565E-02
RMM:   7    -0.230487683088E+04    0.32689E-04   -0.10212E-04  3688   0.762E-03    0.261E-02
RMM:   8    -0.230487682912E+04    0.17622E-05   -0.20344E-05  2963   0.536E-03
  12 F= -.23252467E+04 E0= -.23252467E+04  d E =-.603409E-01  mag=     1.0000
       N       E                     dE             d eps       ncg     rms          rms(c)
DAV:   1    -0.230459328275E+04    0.28355E+00   -0.55380E+01  4400   0.653E+00    0.176E+00
RMM:   2    -0.230493878397E+04   -0.34550E+00   -0.36838E+00  5849   0.136E+00    0.969E-01
RMM:   3    -0.230497036292E+04   -0.31579E-01   -0.29068E-01  5401   0.479E-01    0.199E+00
RMM:   4    -0.230493188538E+04    0.38478E-01   -0.39143E-02  5840   0.112E-01    0.441E-01
RMM:   5    -0.230492895726E+04    0.29281E-02   -0.11592E-02  4765   0.676E-02    0.188E-01
RMM:   6    -0.230492891349E+04    0.43769E-04   -0.21697E-03  5160   0.422E-02    0.107E-01
RMM:   7    -0.230492877238E+04    0.14111E-03   -0.38682E-04  4745   0.149E-02    0.508E-02
RMM:   8    -0.230492875868E+04    0.13702E-04   -0.83811E-05  3954   0.860E-03    0.218E-02
RMM:   9    -0.230492876754E+04   -0.88602E-05   -0.23294E-05  2940   0.517E-03
  13 F= -.23252982E+04 E0= -.23252982E+04  d E =-.111821E+00  mag=     1.0000
       N       E                     dE             d eps       ncg     rms          rms(c)
DAV:   1    -0.230494762547E+04   -0.18867E-01   -0.99864E+00  4448   0.265E+00    0.672E-01
RMM:   2    -0.230498214646E+04   -0.34521E-01   -0.35882E-01  5765   0.477E-01    0.514E-01
RMM:   3    -0.230498202722E+04    0.11923E-03   -0.19904E-02  5665   0.116E-01    0.682E-01
RMM:   4    -0.230497719359E+04    0.48336E-02   -0.45276E-03  5568   0.435E-02    0.248E-01
RMM:   5    -0.230497651080E+04    0.68279E-03   -0.15396E-03  5386   0.265E-02    0.153E-01
RMM:   6    -0.230497618317E+04    0.32763E-03   -0.13559E-03  4788   0.251E-02    0.319E-02
RMM:   7    -0.230497617269E+04    0.10473E-04   -0.90661E-05  3737   0.140E-02    0.185E-02
RMM:   8    -0.230497616788E+04    0.48112E-05   -0.28824E-05  3085   0.429E-03
  14 F= -.23253459E+04 E0= -.23253459E+04  d E =-.476645E-01  mag=     1.0000
       N       E                     dE             d eps       ncg     rms          rms(c)
DAV:   1    -0.230491291985E+04    0.63253E-01   -0.37592E+01  4432   0.516E+00    0.131E+00
RMM:   2    -0.230504762293E+04   -0.13470E+00   -0.14026E+00  5743   0.935E-01    0.100E+00
RMM:   3    -0.230504210773E+04    0.55152E-02   -0.80776E-02  5691   0.229E-01    0.120E+00
RMM:   4    -0.230502717067E+04    0.14937E-01   -0.16982E-02  5722   0.831E-02    0.512E-01
RMM:   5    -0.230502409662E+04    0.30741E-02   -0.56521E-03  5650   0.515E-02    0.291E-01
RMM:   6    -0.230502282215E+04    0.12745E-02   -0.53174E-03  4796   0.489E-02    0.612E-02
RMM:   7    -0.230502275665E+04    0.65506E-04   -0.34737E-04  4328   0.277E-02    0.363E-02
RMM:   8    -0.230502272056E+04    0.36088E-04   -0.13155E-04  4043   0.822E-03    0.171E-02
RMM:   9    -0.230502270534E+04    0.15218E-04   -0.18213E-05  2907   0.598E-03    0.785E-03
RMM:  10    -0.230502269739E+04    0.79543E-05   -0.20663E-05  2972   0.423E-03
  15 F= -.23253929E+04 E0= -.23253929E+04  d E =-.946682E-01  mag=     1.0000
       N       E                     dE             d eps       ncg     rms          rms(c)
DAV:   1    -0.230501564931E+04    0.70560E-02   -0.33481E+00  4688   0.155E+00    0.387E-01
RMM:   2    -0.230502687622E+04   -0.11227E-01   -0.11819E-01  5753   0.281E-01    0.271E-01
RMM:   3    -0.230502694542E+04   -0.69202E-04   -0.66843E-03  5630   0.682E-02    0.363E-01
RMM:   4    -0.230502556822E+04    0.13772E-02   -0.14847E-03  5307   0.244E-02    0.146E-01
RMM:   5    -0.230502533154E+04    0.23668E-03   -0.51736E-04  4883   0.156E-02    0.858E-02
RMM:   6    -0.230502521690E+04    0.11464E-03   -0.45783E-04  4575   0.149E-02    0.182E-02
RMM:   7    -0.230502521082E+04    0.60810E-05   -0.32356E-05  3112   0.916E-03
  16 F= -.23253955E+04 E0= -.23253955E+04  d E =-.973039E-01  mag=     1.0000
       N       E                     dE             d eps       ncg     rms          rms(c)
DAV:   1    -0.230500615007E+04    0.19067E-01   -0.12969E+01  4472   0.317E+00    0.818E-01
RMM:   2    -0.230507187416E+04   -0.65724E-01   -0.66147E-01  5866   0.595E-01    0.777E-01
RMM:   3    -0.230507115438E+04    0.71978E-03   -0.40721E-02  5635   0.151E-01    0.842E-01
RMM:   4    -0.230506300369E+04    0.81507E-02   -0.72217E-03  5585   0.556E-02    0.263E-01
RMM:   5    -0.230506225366E+04    0.75003E-03   -0.22934E-03  5480   0.313E-02    0.170E-01
RMM:   6    -0.230506181176E+04    0.44191E-03   -0.16633E-03  4722   0.288E-02    0.455E-02
RMM:   7    -0.230506178884E+04    0.22912E-04   -0.11700E-04  3959   0.167E-02    0.208E-02
RMM:   8    -0.230506178215E+04    0.66906E-05   -0.37210E-05  3205   0.470E-03
  17 F= -.23254312E+04 E0= -.23254312E+04  d E =-.357196E-01  mag=     1.0000
       N       E                     dE             d eps       ncg     rms          rms(c)
DAV:   1    -0.230497444805E+04    0.87341E-01   -0.24847E+01  4464   0.439E+00    0.113E+00
RMM:   2    -0.230510008119E+04   -0.12563E+00   -0.12751E+00  5859   0.824E-01    0.104E+00
RMM:   3    -0.230509962674E+04    0.45445E-03   -0.78746E-02  5677   0.212E-01    0.117E+00
RMM:   4    -0.230508402999E+04    0.15597E-01   -0.13977E-02  5648   0.773E-02    0.371E-01
RMM:   5    -0.230508249837E+04    0.15316E-02   -0.43497E-03  5600   0.436E-02    0.235E-01
RMM:   6    -0.230508163745E+04    0.86093E-03   -0.32746E-03  4726   0.400E-02    0.649E-02
RMM:   7    -0.230508158307E+04    0.54373E-04   -0.23902E-04  4228   0.239E-02    0.294E-02
RMM:   8    -0.230508156580E+04    0.17275E-04   -0.80845E-05  3776   0.645E-03    0.140E-02
RMM:   9    -0.230508155947E+04    0.63273E-05   -0.13727E-05  2848   0.479E-03
  18 F= -.23254497E+04 E0= -.23254497E+04  d E =-.542355E-01  mag=     1.0000
       N       E                     dE             d eps       ncg     rms          rms(c)
DAV:   1    -0.230499338126E+04    0.88185E-01   -0.18573E+01  4480   0.399E+00    0.966E-01
RMM:   2    -0.230512340143E+04   -0.13002E+00   -0.13943E+00  5920   0.814E-01    0.495E-01
RMM:   3    -0.230512882789E+04   -0.54265E-02   -0.10752E-01  5505   0.250E-01    0.626E-01
RMM:   4    -0.230512567109E+04    0.31568E-02   -0.12460E-02  5827   0.563E-02    0.368E-01
RMM:   5    -0.230512439026E+04    0.12808E-02   -0.37268E-03  5428   0.431E-02    0.179E-01
RMM:   6    -0.230512401405E+04    0.37621E-03   -0.13368E-03  5385   0.253E-02    0.581E-02
RMM:   7    -0.230512398633E+04    0.27719E-04   -0.11332E-04  3663   0.875E-03    0.271E-02
RMM:   8    -0.230512398123E+04    0.50997E-05   -0.22759E-05  2947   0.538E-03
  19 F= -.23254901E+04 E0= -.23254901E+04  d E =-.403262E-01  mag=     1.0000
       N       E                     dE             d eps       ncg     rms          rms(c)
DAV:   1    -0.230501687661E+04    0.10711E+00   -0.17546E+01  4440   0.387E+00    0.937E-01
RMM:   2    -0.230514006226E+04   -0.12319E+00   -0.13213E+00  5884   0.785E-01    0.485E-01
RMM:   3    -0.230514560535E+04   -0.55431E-02   -0.10278E-01  5501   0.250E-01    0.611E-01
RMM:   4    -0.230514260878E+04    0.29966E-02   -0.11962E-02  5820   0.551E-02    0.362E-01
RMM:   5    -0.230514149248E+04    0.11163E-02   -0.36058E-03  5434   0.420E-02    0.193E-01
RMM:   6    -0.230514101806E+04    0.47442E-03   -0.14012E-03  5434   0.252E-02    0.600E-02
RMM:   7    -0.230514099694E+04    0.21120E-04   -0.11559E-04  3707   0.932E-03    0.273E-02
RMM:   8    -0.230514099334E+04    0.36049E-05   -0.21994E-05  2930   0.526E-03
  20 F= -.23255050E+04 E0= -.23255050E+04  d E =-.552532E-01  mag=     1.0000
       N       E                     dE             d eps       ncg     rms          rms(c)
DAV:   1    -0.230510008910E+04    0.40908E-01   -0.15357E+01  4432   0.362E+00    0.937E-01
RMM:   2    -0.230518979087E+04   -0.89702E-01   -0.87024E-01  5827   0.650E-01    0.113E+00
RMM:   3    -0.230518799273E+04    0.17981E-02   -0.73244E-02  5484   0.208E-01    0.952E-01
RMM:   4    -0.230517705385E+04    0.10939E-01   -0.88722E-03  5605   0.613E-02    0.262E-01
RMM:   5    -0.230517645255E+04    0.60130E-03   -0.31239E-03  5636   0.380E-02    0.212E-01
RMM:   6    -0.230517576449E+04    0.68806E-03   -0.22537E-03  4908   0.328E-02    0.537E-02
RMM:   7    -0.230517572972E+04    0.34769E-04   -0.16512E-04  4379   0.187E-02    0.263E-02
RMM:   8    -0.230517571477E+04    0.14954E-04   -0.52236E-05  3486   0.525E-03    0.135E-02
RMM:   9    -0.230517570820E+04    0.65641E-05   -0.13669E-05  2849   0.447E-03
  21 F= -.23255381E+04 E0= -.23255381E+04  d E =-.331275E-01  mag=     1.0000
       N       E                     dE             d eps       ncg     rms          rms(c)
DAV:   1    -0.230516360465E+04    0.12110E-01   -0.35804E+00  4496   0.175E+00    0.451E-01
RMM:   2    -0.230518465522E+04   -0.21051E-01   -0.20207E-01  5835   0.316E-01    0.562E-01
RMM:   3    -0.230518365178E+04    0.10034E-02   -0.15774E-02  5549   0.946E-02    0.439E-01
RMM:   4    -0.230518131057E+04    0.23412E-02   -0.20221E-03  5371   0.293E-02    0.125E-01
RMM:   5    -0.230518116687E+04    0.14370E-03   -0.71402E-04  5370   0.188E-02    0.101E-01
RMM:   6    -0.230518100371E+04    0.16315E-03   -0.52416E-04  4776   0.160E-02    0.241E-02
RMM:   7    -0.230518099480E+04    0.89091E-05   -0.37961E-05  3179   0.939E-03
  22 F= -.23255426E+04 E0= -.23255426E+04  d E =-.376170E-01  mag=     1.0000
       N       E                     dE             d eps       ncg     rms          rms(c)
DAV:   1    -0.230514776637E+04    0.33237E-01   -0.13462E+01  4408   0.339E+00    0.843E-01
RMM:   2    -0.230521387627E+04   -0.66110E-01   -0.69157E-01  5796   0.586E-01    0.761E-01
RMM:   3    -0.230522029642E+04   -0.64201E-02   -0.60100E-02  5670   0.175E-01    0.981E-01
RMM:   4    -0.230520919059E+04    0.11106E-01   -0.80684E-03  5622   0.563E-02    0.231E-01
RMM:   5    -0.230520873159E+04    0.45900E-03   -0.30542E-03  5571   0.350E-02    0.191E-01
RMM:   6    -0.230520821551E+04    0.51608E-03   -0.16917E-03  5114   0.288E-02    0.444E-02
RMM:   7    -0.230520820013E+04    0.15373E-04   -0.10496E-04  3955   0.150E-02    0.226E-02
RMM:   8    -0.230520819510E+04    0.50395E-05   -0.26549E-05  3058   0.451E-03
  23 F= -.23255682E+04 E0= -.23255682E+04  d E =-.255703E-01  mag=     1.0000
       N       E                     dE             d eps       ncg     rms          rms(c)
DAV:   1    -0.230519781094E+04    0.10389E-01   -0.32726E+00  4432   0.167E+00    0.414E-01
RMM:   2    -0.230521388444E+04   -0.16073E-01   -0.16691E-01  5805   0.290E-01    0.387E-01
RMM:   3    -0.230521515569E+04   -0.12712E-02   -0.13988E-02  5594   0.845E-02    0.468E-01
RMM:   4    -0.230521260232E+04    0.25534E-02   -0.18541E-03  5395   0.275E-02    0.113E-01
RMM:   5    -0.230521248257E+04    0.11975E-03   -0.73079E-04  5215   0.177E-02    0.897E-02
RMM:   6    -0.230521236824E+04    0.11433E-03   -0.39469E-04  4925   0.145E-02    0.217E-02
RMM:   7    -0.230521236362E+04    0.46247E-05   -0.24820E-05  2991   0.753E-03
  24 F= -.23255715E+04 E0= -.23255715E+04  d E =-.289061E-01  mag=     1.0000
       N       E                     dE             d eps       ncg     rms          rms(c)
DAV:   1    -0.230517233984E+04    0.40028E-01   -0.11306E+01  4400   0.326E+00    0.750E-01
RMM:   2    -0.230524050267E+04   -0.68163E-01   -0.67806E-01  5838   0.602E-01    0.824E-01
RMM:   3    -0.230524004907E+04    0.45360E-03   -0.47837E-02  5471   0.178E-01    0.798E-01
RMM:   4    -0.230523288697E+04    0.71621E-02   -0.57038E-03  5477   0.514E-02    0.200E-01
RMM:   5    -0.230523216122E+04    0.72575E-03   -0.30048E-03  4616   0.384E-02    0.637E-02
RMM:   6    -0.230523216507E+04   -0.38490E-05   -0.29655E-04  4305   0.240E-02    0.287E-02
RMM:   7    -0.230523215980E+04    0.52654E-05   -0.62555E-05  3641   0.629E-03
  25 F= -.23255898E+04 E0= -.23255898E+04  d E =-.183092E-01  mag=     1.0000
       N       E                     dE             d eps       ncg     rms          rms(c)
DAV:   1    -0.230522438863E+04    0.77764E-02   -0.18550E+00  4560   0.131E+00    0.303E-01
RMM:   2    -0.230523562052E+04   -0.11232E-01   -0.11155E-01  5821   0.245E-01    0.339E-01
RMM:   3    -0.230523552339E+04    0.97129E-04   -0.77816E-03  5452   0.757E-02    0.323E-01
RMM:   4    -0.230523434690E+04    0.11765E-02   -0.93959E-04  5120   0.211E-02    0.806E-02
RMM:   5    -0.230523423856E+04    0.10834E-03   -0.50442E-04  4415   0.161E-02    0.375E-02
RMM:   6    -0.230523422801E+04    0.10548E-04   -0.85730E-05  3726   0.106E-02    0.187E-02
RMM:   7    -0.230523422254E+04    0.54740E-05   -0.12800E-05  2864   0.376E-03
  26 F= -.23255913E+04 E0= -.23255913E+04  d E =-.197600E-01  mag=     1.0000
       N       E                     dE             d eps       ncg     rms          rms(c)
DAV:   1    -0.230520090928E+04    0.33319E-01   -0.11908E+01  4400   0.337E+00    0.751E-01
RMM:   2    -0.230525266549E+04   -0.51756E-01   -0.55143E-01  5771   0.571E-01    0.485E-01
RMM:   3    -0.230525678770E+04   -0.41222E-02   -0.35391E-02  5430   0.161E-01    0.799E-01
RMM:   4    -0.230524987968E+04    0.69080E-02   -0.52942E-03  5720   0.506E-02    0.232E-01
RMM:   5    -0.230524932248E+04    0.55720E-03   -0.24249E-03  5441   0.337E-02    0.176E-01
RMM:   6    -0.230524882029E+04    0.50219E-03   -0.15375E-03  5236   0.277E-02    0.397E-02
RMM:   7    -0.230524879510E+04    0.25186E-04   -0.10373E-04  3844   0.144E-02    0.214E-02
RMM:   8    -0.230524878226E+04    0.12837E-04   -0.25198E-05  2999   0.445E-03    0.119E-02
RMM:   9    -0.230524877349E+04    0.87763E-05   -0.11334E-05  2830   0.382E-03
  27 F= -.23256051E+04 E0= -.23256051E+04  d E =-.138679E-01  mag=     1.0000
       N       E                     dE             d eps       ncg     rms          rms(c)
DAV:   1    -0.230524728609E+04    0.14962E-02   -0.52194E-01  4704   0.708E-01    0.156E-01
RMM:   2    -0.230524947501E+04   -0.21889E-02   -0.23673E-02  5782   0.120E-01    0.906E-02
RMM:   3    -0.230524965363E+04   -0.17862E-03   -0.17840E-03  5035   0.368E-02    0.151E-01
RMM:   4    -0.230524941403E+04    0.23960E-03   -0.23426E-04  3777   0.104E-02    0.499E-02
RMM:   5    -0.230524938522E+04    0.28802E-04   -0.10848E-04  3819   0.788E-03    0.359E-02
RMM:   6    -0.230524936122E+04    0.24003E-04   -0.72492E-05  3715   0.725E-03    0.869E-03
RMM:   7    -0.230524935948E+04    0.17393E-05   -0.72305E-06  2822   0.476E-03
  28 F= -.23256056E+04 E0= -.23256056E+04  d E =-.143057E-01  mag=     1.0000
       N       E                     dE             d eps       ncg     rms          rms(c)
DAV:   1    -0.230522331237E+04    0.26049E-01   -0.11004E+01  4400   0.327E+00    0.687E-01
RMM:   2    -0.230526623309E+04   -0.42921E-01   -0.45597E-01  5700   0.535E-01    0.521E-01
RMM:   3    -0.230526972250E+04   -0.34894E-02   -0.34740E-02  5525   0.157E-01    0.720E-01
RMM:   4    -0.230526408780E+04    0.56347E-02   -0.50819E-03  5682   0.487E-02    0.242E-01
RMM:   5    -0.230526349224E+04    0.59556E-03   -0.21559E-03  5519   0.320E-02    0.176E-01
RMM:   6    -0.230526297576E+04    0.51648E-03   -0.17090E-03  4744   0.301E-02    0.349E-02
RMM:   7    -0.230526296039E+04    0.15371E-04   -0.11484E-04  4003   0.190E-02    0.200E-02
RMM:   8    -0.230526295359E+04    0.67991E-05   -0.30258E-05  3173   0.439E-03
  29 F= -.23256188E+04 E0= -.23256188E+04  d E =-.132085E-01  mag=     1.0000
       N       E                     dE             d eps       ncg     rms          rms(c)
DAV:   1    -0.230526171883E+04    0.12416E-02   -0.46659E-01  4640   0.675E-01    0.141E-01
RMM:   2    -0.230526355817E+04   -0.18393E-02   -0.19389E-02  5754   0.111E-01    0.114E-01
RMM:   3    -0.230526368815E+04   -0.12998E-03   -0.13368E-03  5071   0.315E-02    0.150E-01
RMM:   4    -0.230526343601E+04    0.25214E-03   -0.21045E-04  3810   0.104E-02    0.494E-02
RMM:   5    -0.230526341062E+04    0.25387E-04   -0.92747E-05  3715   0.771E-03    0.360E-02
RMM:   6    -0.230526338761E+04    0.23013E-04   -0.83216E-05  3928   0.765E-03    0.732E-03
RMM:   7    -0.230526338669E+04    0.91322E-06   -0.66138E-06  2817   0.500E-03
  30 F= -.23256191E+04 E0= -.23256191E+04  d E =-.135584E-01  mag=     1.0000
       N       E                     dE             d eps       ncg     rms          rms(c)
DAV:   1    -0.230523249782E+04    0.30890E-01   -0.95340E+00  4400   0.315E+00    0.646E-01
RMM:   2    -0.230527649283E+04   -0.43995E-01   -0.47608E-01  5794   0.549E-01    0.325E-01
RMM:   3    -0.230527832258E+04   -0.18297E-02   -0.38019E-02  5493   0.170E-01    0.416E-01
RMM:   4    -0.230527718439E+04    0.11382E-02   -0.42555E-03  5819   0.398E-02    0.250E-01
RMM:   5    -0.230527631748E+04    0.86691E-03   -0.19721E-03  4712   0.331E-02    0.817E-02
RMM:   6    -0.230527625078E+04    0.66699E-04   -0.40796E-04  4464   0.211E-02    0.272E-02
RMM:   7    -0.230527624474E+04    0.60409E-05   -0.66206E-05  3654   0.746E-03
  31 F= -.23256312E+04 E0= -.23256312E+04  d E =-.120319E-01  mag=     1.0000
       N       E                     dE             d eps       ncg     rms          rms(c)
DAV:   1    -0.230525859371E+04    0.17657E-01   -0.43180E+00  4400   0.211E+00    0.436E-01
RMM:   2    -0.230527852427E+04   -0.19931E-01   -0.21564E-01  5792   0.369E-01    0.220E-01
RMM:   3    -0.230527937421E+04   -0.84993E-03   -0.17212E-02  5501   0.116E-01    0.286E-01
RMM:   4    -0.230527882324E+04    0.55096E-03   -0.19262E-03  5581   0.267E-02    0.165E-01
RMM:   5    -0.230527845224E+04    0.37100E-03   -0.92774E-04  4700   0.225E-02    0.649E-02
RMM:   6    -0.230527841077E+04    0.41470E-04   -0.23389E-04  4679   0.150E-02    0.294E-02
RMM:   7    -0.230527839809E+04    0.12678E-04   -0.39002E-05  3081   0.567E-03    0.153E-02
RMM:   8    -0.230527839270E+04    0.53973E-05   -0.85613E-06  2853   0.404E-03
  32 F= -.23256327E+04 E0= -.23256327E+04  d E =-.136104E-01  mag=     1.0000
       N       E                     dE             d eps       ncg     rms          rms(c)
DAV:   1    -0.230526877381E+04    0.96243E-02   -0.32898E+00  4408   0.185E+00    0.373E-01
RMM:   2    -0.230528657567E+04   -0.17802E-01   -0.19219E-01  5812   0.332E-01    0.192E-01
RMM:   3    -0.230528737153E+04   -0.79586E-03   -0.16379E-02  5499   0.109E-01    0.228E-01
RMM:   4    -0.230528713594E+04    0.23559E-03   -0.17624E-03  5388   0.232E-02    0.157E-01
RMM:   5    -0.230528683980E+04    0.29614E-03   -0.63289E-04  4684   0.180E-02    0.672E-02
RMM:   6    -0.230528679387E+04    0.45931E-04   -0.23180E-04  4808   0.134E-02    0.285E-02
RMM:   7    -0.230528678555E+04    0.83186E-05   -0.36948E-05  3021   0.606E-03
  33 F= -.23256407E+04 E0= -.23256407E+04  d E =-.793348E-02  mag=     1.0000
       N       E                     dE             d eps       ncg     rms          rms(c)
DAV:   1    -0.230513723778E+04    0.14956E+00   -0.29578E+01  4400   0.555E+00    0.112E+00
RMM:   2    -0.230529847176E+04   -0.16123E+00   -0.17364E+00  5826   0.995E-01    0.610E-01
RMM:   3    -0.230530744896E+04   -0.89772E-02   -0.15499E-01  5485   0.327E-01    0.811E-01
RMM:   4    -0.230530269469E+04    0.47543E-02   -0.16220E-02  6016   0.728E-02    0.449E-01
RMM:   5    -0.230530025255E+04    0.24421E-02   -0.53605E-03  4999   0.501E-02    0.209E-01
RMM:   6    -0.230529975901E+04    0.49354E-03   -0.25037E-03  5390   0.407E-02    0.902E-02
RMM:   7    -0.230529967175E+04    0.87266E-04   -0.42547E-04  5074   0.197E-02    0.520E-02
RMM:   8    -0.230529963525E+04    0.36498E-04   -0.79635E-05  3529   0.601E-03    0.262E-02
RMM:   9    -0.230529962178E+04    0.13463E-04   -0.27771E-05  2881   0.573E-03    0.974E-03
RMM:  10    -0.230529961759E+04    0.41924E-05   -0.15201E-05  2860   0.417E-03
  34 F= -.23256521E+04 E0= -.23256521E+04  d E =-.193420E-01  mag=     1.0000
       N       E                     dE             d eps       ncg     rms          rms(c)
DAV:   1    -0.230528549812E+04    0.14124E-01   -0.34747E+00  4432   0.190E+00    0.463E-01
RMM:   2    -0.230531039555E+04   -0.24897E-01   -0.26733E-01  5816   0.361E-01    0.329E-01
RMM:   3    -0.230531378108E+04   -0.33855E-02   -0.27600E-02  5496   0.130E-01    0.524E-01
RMM:   4    -0.230531072808E+04    0.30530E-02   -0.27699E-03  5678   0.314E-02    0.127E-01
RMM:   5    -0.230531047036E+04    0.25772E-03   -0.12563E-03  5169   0.235E-02    0.670E-02
RMM:   6    -0.230531041861E+04    0.51748E-04   -0.26059E-04  4783   0.136E-02    0.331E-02
RMM:   7    -0.230531040348E+04    0.15126E-04   -0.55176E-05  3440   0.591E-03    0.169E-02
RMM:   8    -0.230531039855E+04    0.49300E-05   -0.96209E-06  2848   0.410E-03
  35 F= -.23256626E+04 E0= -.23256626E+04  d E =-.104840E-01  mag=     1.0000
       N       E                     dE             d eps       ncg     rms          rms(c)
DAV:   1    -0.230528642410E+04    0.23979E-01   -0.38865E+00  4432   0.202E+00    0.490E-01
RMM:   2    -0.230531431597E+04   -0.27892E-01   -0.29993E-01  5850   0.385E-01    0.344E-01
RMM:   3    -0.230531804767E+04   -0.37317E-02   -0.31005E-02  5580   0.134E-01    0.551E-01
RMM:   4    -0.230531468237E+04    0.33653E-02   -0.30889E-03  5715   0.329E-02    0.135E-01
RMM:   5    -0.230531439489E+04    0.28747E-03   -0.14243E-03  5242   0.250E-02    0.729E-02
RMM:   6    -0.230531432955E+04    0.65339E-04   -0.30376E-04  4916   0.144E-02    0.349E-02
RMM:   7    -0.230531431232E+04    0.17232E-04   -0.63469E-05  3569   0.626E-03    0.183E-02
RMM:   8    -0.230531430597E+04    0.63470E-05   -0.10924E-05  2853   0.427E-03
  36 F= -.23256662E+04 E0= -.23256662E+04  d E =-.140670E-01  mag=     1.0000
       N       E                     dE             d eps       ncg     rms          rms(c)
DAV:   1    -0.230529104977E+04    0.23263E-01   -0.31653E+00  4432   0.181E+00    0.440E-01
RMM:   2    -0.230532178107E+04   -0.30731E-01   -0.33773E-01  5909   0.365E-01    0.217E-01
RMM:   3    -0.230532406490E+04   -0.22838E-02   -0.35717E-02  5595   0.131E-01    0.191E-01
RMM:   4    -0.230532427799E+04   -0.21309E-03   -0.34818E-03  5550   0.248E-02    0.205E-01
RMM:   5    -0.230532383577E+04    0.44222E-03   -0.68341E-04  4965   0.177E-02    0.943E-02
RMM:   6    -0.230532371377E+04    0.12200E-03   -0.28012E-04  4597   0.121E-02    0.272E-02
RMM:   7    -0.230532370646E+04    0.73089E-05   -0.37481E-05  3013   0.839E-03
  37 F= -.23256750E+04 E0= -.23256750E+04  d E =-.879709E-02  mag=     1.0000
       N       E                     dE             d eps       ncg     rms          rms(c)
DAV:   1    -0.230513126059E+04    0.19245E+00   -0.19410E+01  4432   0.448E+00    0.109E+00
RMM:   2    -0.230532217706E+04   -0.19092E+00   -0.21002E+00  5985   0.919E-01    0.540E-01
RMM:   3    -0.230533499973E+04   -0.12823E-01   -0.22530E-01  5683   0.307E-01    0.412E-01
RMM:   4    -0.230533563601E+04   -0.63628E-03   -0.20554E-02  5757   0.663E-02    0.424E-01
RMM:   5    -0.230533453537E+04    0.11006E-02   -0.37332E-03  5670   0.357E-02    0.320E-01
RMM:   6    -0.230533323926E+04    0.12961E-02   -0.18066E-03  5226   0.294E-02    0.927E-02
RMM:   7    -0.230533317455E+04    0.64717E-04   -0.43339E-04  4861   0.187E-02    0.623E-02
RMM:   8    -0.230533312271E+04    0.51838E-04   -0.12261E-04  3731   0.884E-03    0.326E-02
RMM:   9    -0.230533310124E+04    0.21469E-04   -0.48806E-05  2943   0.580E-03    0.133E-02
RMM:  10    -0.230533309519E+04    0.60470E-05   -0.23416E-05  2882   0.445E-03
  38 F= -.23256828E+04 E0= -.23256828E+04  d E =-.166500E-01  mag=     1.0000
       N       E                     dE             d eps       ncg     rms          rms(c)
DAV:   1    -0.230532456131E+04    0.85399E-02   -0.13077E+00  4608   0.115E+00    0.278E-01
RMM:   2    -0.230533838407E+04   -0.13823E-01   -0.15112E-01  5962   0.237E-01    0.143E-01
RMM:   3    -0.230533949340E+04   -0.11093E-02   -0.16038E-02  5556   0.854E-02    0.143E-01
RMM:   4    -0.230533952467E+04   -0.31266E-04   -0.14837E-03  4396   0.164E-02    0.125E-01
RMM:   5    -0.230533934738E+04    0.17728E-03   -0.28861E-04  4295   0.111E-02    0.557E-02
RMM:   6    -0.230533930990E+04    0.37486E-04   -0.14778E-04  4378   0.973E-03    0.189E-02
RMM:   7    -0.230533930830E+04    0.15980E-05   -0.21951E-05  2874   0.577E-03
  39 F= -.23256885E+04 E0= -.23256885E+04  d E =-.569645E-02  mag=     1.0000
       N       E                     dE             d eps       ncg     rms          rms(c)
DAV:   1    -0.230521943770E+04    0.11987E+00   -0.11756E+01  4400   0.346E+00    0.842E-01
RMM:   2    -0.230534588219E+04   -0.12644E+00   -0.13780E+00  6011   0.719E-01    0.482E-01
RMM:   3    -0.230535747527E+04   -0.11593E-01   -0.14768E-01  5628   0.261E-01    0.633E-01
RMM:   4    -0.230535476983E+04    0.27054E-02   -0.13822E-02  6038   0.534E-02    0.333E-01
RMM:   5    -0.230535352213E+04    0.12477E-02   -0.24352E-03  5314   0.296E-02    0.180E-01
RMM:   6    -0.230535314056E+04    0.38157E-03   -0.17990E-03  5393   0.302E-02    0.735E-02
RMM:   7    -0.230535308832E+04    0.52238E-04   -0.26802E-04  4790   0.153E-02    0.447E-02
RMM:   8    -0.230535306740E+04    0.20916E-04   -0.74456E-05  3451   0.570E-03    0.254E-02
RMM:   9    -0.230535305931E+04    0.80878E-05   -0.21612E-05  2848   0.480E-03
  40 F= -.23257007E+04 E0= -.23257007E+04  d E =-.178813E-01  mag=     1.0000
       N       E                     dE             d eps       ncg     rms          rms(c)
DAV:   1    -0.230481054697E+04    0.54252E+00   -0.47056E+01  4400   0.693E+00    0.170E+00
RMM:   2    -0.230533724331E+04   -0.52670E+00   -0.57013E+00  6132   0.147E+00    0.114E+00
RMM:   3    -0.230538444920E+04   -0.47206E-01   -0.59519E-01  5546   0.507E-01    0.158E+00
RMM:   4    -0.230536282708E+04    0.21622E-01   -0.57295E-02  6162   0.115E-01    0.665E-01
RMM:   5    -0.230535812298E+04    0.47041E-02   -0.10820E-02  5579   0.582E-02    0.394E-01
RMM:   6    -0.230535622016E+04    0.19028E-02   -0.85611E-03  5396   0.644E-02    0.173E-01
RMM:   7    -0.230535590916E+04    0.31099E-03   -0.13036E-03  5460   0.313E-02    0.939E-02
RMM:   8    -0.230535583090E+04    0.78262E-04   -0.33364E-04  4900   0.113E-02    0.602E-02
RMM:   9    -0.230535578432E+04    0.46579E-04   -0.11403E-04  3048   0.974E-03    0.196E-02
RMM:  10    -0.230535578345E+04    0.87227E-06   -0.54413E-05  3027   0.519E-03
  41 F= -.23257002E+04 E0= -.23257002E+04  d E =-.174194E-01  mag=     1.0000
       N       E                     dE             d eps       ncg     rms          rms(c)
DAV:   1    -0.230520452559E+04    0.15126E+00   -0.13419E+01  4400   0.370E+00    0.892E-01
RMM:   2    -0.230534764898E+04   -0.14312E+00   -0.15645E+00  5975   0.764E-01    0.489E-01
RMM:   3    -0.230536022077E+04   -0.12572E-01   -0.17963E-01  5572   0.295E-01    0.387E-01
RMM:   4    -0.230536132528E+04   -0.11045E-02   -0.15423E-02  6008   0.546E-02    0.464E-01
RMM:   5    -0.230535928667E+04    0.20386E-02   -0.26983E-03  5374   0.312E-02    0.206E-01
RMM:   6    -0.230535887092E+04    0.41575E-03   -0.18662E-03  5449   0.272E-02    0.114E-01
RMM:   7    -0.230535871576E+04    0.15516E-03   -0.47316E-04  5012   0.167E-02    0.365E-02
RMM:   8    -0.230535869957E+04    0.16191E-04   -0.42353E-05  2964   0.641E-03    0.271E-02
RMM:   9    -0.230535869122E+04    0.83504E-05   -0.32603E-05  2897   0.490E-03
  42 F= -.23257048E+04 E0= -.23257048E+04  d E =-.220367E-01  mag=     1.0000
       N       E                     dE             d eps       ncg     rms          rms(c)
DAV:   1    -0.230534518028E+04    0.13519E-01   -0.20180E+00  4472   0.142E+00    0.386E-01
RMM:   2    -0.230536771362E+04   -0.22533E-01   -0.24514E-01  5881   0.292E-01    0.253E-01
RMM:   3    -0.230537094474E+04   -0.32311E-02   -0.29122E-02  5510   0.121E-01    0.400E-01
RMM:   4    -0.230536936364E+04    0.15811E-02   -0.27288E-03  5670   0.255E-02    0.126E-01
RMM:   5    -0.230536915865E+04    0.20499E-03   -0.68284E-04  5246   0.177E-02    0.732E-02
RMM:   6    -0.230536907846E+04    0.80191E-04   -0.27347E-04  4884   0.115E-02    0.330E-02
RMM:   7    -0.230536906171E+04    0.16752E-04   -0.44888E-05  3150   0.654E-03    0.134E-02
RMM:   8    -0.230536905761E+04    0.41016E-05   -0.81743E-06  2840   0.381E-03
  43 F= -.23257146E+04 E0= -.23257146E+04  d E =-.979465E-02  mag=     1.0000
       N       E                     dE             d eps       ncg     rms          rms(c)
DAV:   1    -0.230527177334E+04    0.97288E-01   -0.89471E+00  4432   0.300E+00    0.812E-01
RMM:   2    -0.230537184166E+04   -0.10007E+00   -0.10962E+00  5958   0.621E-01    0.482E-01
RMM:   3    -0.230538516496E+04   -0.13323E-01   -0.12975E-01  5640   0.242E-01    0.776E-01
RMM:   4    -0.230537964309E+04    0.55219E-02   -0.11785E-02  6211   0.511E-02    0.275E-01
RMM:   5    -0.230537869342E+04    0.94967E-03   -0.28108E-03  5535   0.354E-02    0.162E-01
RMM:   6    -0.230537830579E+04    0.38763E-03   -0.13963E-03  5440   0.232E-02    0.813E-02
RMM:   7    -0.230537820504E+04    0.10075E-03   -0.27713E-04  4748   0.141E-02    0.355E-02
RMM:   8    -0.230537817597E+04    0.29068E-04   -0.45109E-05  3082   0.602E-03    0.174E-02
RMM:   9    -0.230537816062E+04    0.15350E-04   -0.22399E-05  2877   0.477E-03    0.784E-03
RMM:  10    -0.230537815253E+04    0.80930E-05   -0.14494E-05  2860   0.410E-03
  44 F= -.23257225E+04 E0= -.23257225E+04  d E =-.176839E-01  mag=     1.0000
       N       E                     dE             d eps       ncg     rms          rms(c)
DAV:   1    -0.230534427480E+04    0.33886E-01   -0.35810E+00  4416   0.185E+00    0.492E-01
RMM:   2    -0.230538687389E+04   -0.42599E-01   -0.46621E-01  6066   0.389E-01    0.254E-01
RMM:   3    -0.230539088922E+04   -0.40153E-02   -0.52912E-02  5683   0.142E-01    0.252E-01
RMM:   4    -0.230539099550E+04   -0.10628E-03   -0.49670E-03  5675   0.272E-02    0.225E-01
RMM:   5    -0.230539047499E+04    0.52050E-03   -0.90771E-04  5311   0.197E-02    0.114E-01
RMM:   6    -0.230539029613E+04    0.17886E-03   -0.48683E-04  5163   0.141E-02    0.456E-02
RMM:   7    -0.230539027486E+04    0.21266E-04   -0.93468E-05  3695   0.894E-03    0.239E-02
RMM:   8    -0.230539026787E+04    0.69918E-05   -0.17747E-05  2895   0.431E-03
  45 F= -.23257339E+04 E0= -.23257339E+04  d E =-.113577E-01  mag=     1.0000
       N       E                     dE             d eps       ncg     rms          rms(c)
DAV:   1    -0.230521842839E+04    0.17185E+00   -0.14035E+01  4400   0.366E+00    0.978E-01
RMM:   2    -0.230538719906E+04   -0.16877E+00   -0.18490E+00  6137   0.780E-01    0.496E-01
RMM:   3    -0.230540150429E+04   -0.14305E-01   -0.20890E-01  5746   0.267E-01    0.377E-01
RMM:   4    -0.230540231963E+04   -0.81534E-03   -0.18290E-02  5866   0.585E-02    0.407E-01
RMM:   5    -0.230540135398E+04    0.96565E-03   -0.33790E-03  5649   0.324E-02    0.310E-01
RMM:   6    -0.230540021259E+04    0.11414E-02   -0.17516E-03  5110   0.248E-02    0.107E-01
RMM:   7    -0.230540011233E+04    0.10026E-03   -0.52602E-04  4918   0.184E-02    0.631E-02
RMM:   8    -0.230540005861E+04    0.53724E-04   -0.11153E-04  3958   0.785E-03    0.314E-02
RMM:   9    -0.230540004026E+04    0.18356E-04   -0.36037E-05  2900   0.588E-03    0.127E-02
RMM:  10    -0.230540003596E+04    0.42999E-05   -0.22186E-05  2873   0.389E-03
  46 F= -.23257421E+04 E0= -.23257421E+04  d E =-.196122E-01  mag=     1.0000
       N       E                     dE             d eps       ncg     rms          rms(c)
DAV:   1    -0.230535101011E+04    0.49030E-01   -0.44264E+00  4400   0.205E+00    0.577E-01
RMM:   2    -0.230541392272E+04   -0.62913E-01   -0.65157E-01  6180   0.473E-01    0.590E-01
RMM:   3    -0.230541857369E+04   -0.46510E-02   -0.69857E-02  5793   0.159E-01    0.630E-01
RMM:   4    -0.230541470612E+04    0.38676E-02   -0.70876E-03  5739   0.406E-02    0.185E-01
RMM:   5    -0.230541427764E+04    0.42848E-03   -0.12002E-03  5056   0.204E-02    0.102E-01
RMM:   6    -0.230541419098E+04    0.86658E-04   -0.53700E-04  5205   0.166E-02    0.529E-02
RMM:   7    -0.230541416547E+04    0.25513E-04   -0.10536E-04  3794   0.929E-03    0.253E-02
RMM:   8    -0.230541415978E+04    0.56925E-05   -0.21044E-05  2934   0.431E-03
  47 F= -.23257553E+04 E0= -.23257553E+04  d E =-.131680E-01  mag=     1.0000
       N       E                     dE             d eps       ncg     rms          rms(c)
DAV:   1    -0.230494374719E+04    0.47042E+00   -0.33513E+01  4400   0.564E+00    0.164E+00
RMM:   2    -0.230546918206E+04   -0.52543E+00   -0.52107E+00  6248   0.132E+00    0.221E+00
RMM:   3    -0.230545180058E+04    0.17381E-01   -0.51993E-01  5680   0.443E-01    0.138E+00
RMM:   4    -0.230543414408E+04    0.17656E-01   -0.53046E-02  5892   0.107E-01    0.516E-01
RMM:   5    -0.230543082645E+04    0.33176E-02   -0.84172E-03  5324   0.547E-02    0.291E-01
RMM:   6    -0.230543009931E+04    0.72715E-03   -0.44954E-03  5633   0.463E-02    0.151E-01
RMM:   7    -0.230542985804E+04    0.24127E-03   -0.71729E-04  5426   0.228E-02    0.568E-02
RMM:   8    -0.230542983927E+04    0.18770E-04   -0.11921E-04  3571   0.729E-03    0.409E-02
RMM:   9    -0.230542982841E+04    0.10860E-04   -0.53374E-05  2919   0.636E-03    0.137E-02
RMM:  10    -0.230542983170E+04   -0.32885E-05   -0.22509E-05  2879   0.422E-03
  48 F= -.23257683E+04 E0= -.23257683E+04  d E =-.261500E-01  mag=     1.0000
       N       E                     dE             d eps       ncg     rms          rms(c)
DAV:   1    -0.230535864844E+04    0.71180E-01   -0.57442E+00  4416   0.228E+00    0.665E-01
RMM:   2    -0.230544357633E+04   -0.84928E-01   -0.89310E-01  6269   0.539E-01    0.618E-01
RMM:   3    -0.230545032397E+04   -0.67476E-02   -0.91745E-02  5979   0.161E-01    0.736E-01
RMM:   4    -0.230544508397E+04    0.52400E-02   -0.96623E-03  5820   0.459E-02    0.224E-01
RMM:   5    -0.230544443089E+04    0.65309E-03   -0.16832E-03  5218   0.235E-02    0.114E-01
RMM:   6    -0.230544430280E+04    0.12808E-03   -0.66799E-04  5090   0.168E-02    0.555E-02
RMM:   7    -0.230544428137E+04    0.21436E-04   -0.13821E-04  4123   0.105E-02    0.322E-02
RMM:   8    -0.230544427065E+04    0.10714E-04   -0.36222E-05  3059   0.477E-03    0.201E-02
RMM:   9    -0.230544426585E+04    0.48068E-05   -0.14002E-05  2833   0.393E-03
  49 F= -.23257817E+04 E0= -.23257817E+04  d E =-.133958E-01  mag=     1.0000
       N       E                     dE             d eps       ncg     rms          rms(c)
DAV:   1    -0.230528179032E+04    0.16248E+00   -0.11582E+01  4400   0.324E+00    0.951E-01
RMM:   2    -0.230545619008E+04   -0.17440E+00   -0.18215E+00  6281   0.770E-01    0.947E-01
RMM:   3    -0.230546645378E+04   -0.10264E-01   -0.18727E-01  5946   0.233E-01    0.997E-01
RMM:   4    -0.230545683569E+04    0.96181E-02   -0.19190E-02  5950   0.647E-02    0.320E-01
RMM:   5    -0.230545548213E+04    0.13536E-02   -0.35140E-03  5429   0.334E-02    0.160E-01
RMM:   6    -0.230545521657E+04    0.26555E-03   -0.13398E-03  5279   0.235E-02    0.739E-02
RMM:   7    -0.230545517698E+04    0.39599E-04   -0.27354E-04  4816   0.141E-02    0.449E-02
RMM:   8    -0.230545515491E+04    0.22062E-04   -0.70427E-05  3338   0.572E-03    0.294E-02
RMM:   9    -0.230545514288E+04    0.12037E-04   -0.26903E-05  2849   0.487E-03    0.105E-02
RMM:  10    -0.230545514131E+04    0.15665E-05   -0.14466E-05  2853   0.313E-03
  50 F= -.23257911E+04 E0= -.23257911E+04  d E =-.227691E-01  mag=     1.0000
       N       E                     dE             d eps       ncg     rms          rms(c)
DAV:   1    -0.230543701194E+04    0.18131E-01   -0.13057E+00  4576   0.109E+00    0.312E-01
RMM:   2    -0.230545565113E+04   -0.18639E-01   -0.20026E-01  6251   0.254E-01    0.228E-01
RMM:   3    -0.230545763368E+04   -0.19825E-02   -0.20356E-02  5867   0.763E-02    0.345E-01
RMM:   4    -0.230545652234E+04    0.11113E-02   -0.21564E-03  4910   0.214E-02    0.106E-01
RMM:   5    -0.230545637377E+04    0.14857E-03   -0.38654E-04  4317   0.120E-02    0.544E-02
RMM:   6    -0.230545634203E+04    0.31742E-04   -0.15116E-04  4105   0.928E-03    0.259E-02
RMM:   7    -0.230545633682E+04    0.52107E-05   -0.31552E-05  2931   0.587E-03
  51 F= -.23257917E+04 E0= -.23257917E+04  d E =-.234534E-01  mag=     1.0000
       N       E                     dE             d eps       ncg     rms          rms(c)
DAV:   1    -0.230544466910E+04    0.11673E-01   -0.16531E+00  4448   0.124E+00    0.398E-01
RMM:   2    -0.230546667686E+04   -0.22008E-01   -0.24323E-01  6065   0.295E-01    0.190E-01
RMM:   3    -0.230546819394E+04   -0.15171E-02   -0.24924E-02  5754   0.897E-02    0.196E-01
RMM:   4    -0.230546819685E+04   -0.29102E-05   -0.24777E-03  5346   0.207E-02    0.166E-01
RMM:   5    -0.230546788567E+04    0.31118E-03   -0.60996E-04  5211   0.170E-02    0.800E-02
RMM:   6    -0.230546780001E+04    0.85664E-04   -0.17793E-04  4357   0.994E-03    0.258E-02
RMM:   7    -0.230546779355E+04    0.64547E-05   -0.42696E-05  3280   0.692E-03
  52 F= -.23258025E+04 E0= -.23258025E+04  d E =-.107284E-01  mag=     1.0000
       N       E                     dE             d eps       ncg     rms          rms(c)
DAV:   1    -0.230544694082E+04    0.20859E-01   -0.17707E+00  4416   0.129E+00    0.412E-01
RMM:   2    -0.230547046800E+04   -0.23527E-01   -0.26004E-01  6051   0.304E-01    0.201E-01
RMM:   3    -0.230547220219E+04   -0.17342E-02   -0.26873E-02  5776   0.920E-02    0.230E-01
RMM:   4    -0.230547202731E+04    0.17488E-03   -0.26385E-03  5420   0.215E-02    0.159E-01
RMM:   5    -0.230547172500E+04    0.30231E-03   -0.66947E-04  5265   0.179E-02    0.830E-02
RMM:   6    -0.230547162794E+04    0.97053E-04   -0.21768E-04  4697   0.108E-02    0.306E-02
RMM:   7    -0.230547161554E+04    0.12407E-04   -0.57918E-05  3511   0.713E-03    0.230E-02
RMM:   8    -0.230547160498E+04    0.10559E-04   -0.18785E-05  2912   0.449E-03    0.858E-03
RMM:   9    -0.230547160087E+04    0.41086E-05   -0.72817E-06  2821   0.327E-03
  53 F= -.23258055E+04 E0= -.23258055E+04  d E =-.137801E-01  mag=     1.0000
       N       E                     dE             d eps       ncg     rms          rms(c)
DAV:   1    -0.230545250123E+04    0.19104E-01   -0.20090E+00  4416   0.142E+00    0.426E-01
RMM:   2    -0.230548206966E+04   -0.29568E-01   -0.32077E-01  6129   0.338E-01    0.234E-01
RMM:   3    -0.230548411275E+04   -0.20431E-02   -0.30636E-02  5920   0.995E-02    0.298E-01
RMM:   4    -0.230548358974E+04    0.52301E-03   -0.31523E-03  5439   0.252E-02    0.171E-01
RMM:   5    -0.230548329808E+04    0.29166E-03   -0.64670E-04  4962   0.151E-02    0.930E-02
RMM:   6    -0.230548319107E+04    0.10701E-03   -0.38296E-04  5218   0.142E-02    0.388E-02
RMM:   7    -0.230548317534E+04    0.15722E-04   -0.59035E-05  3055   0.763E-03    0.173E-02
RMM:   8    -0.230548317214E+04    0.32003E-05   -0.14476E-05  2882   0.402E-03
  54 F= -.23258159E+04 E0= -.23258159E+04  d E =-.104130E-01  mag=     1.0000
       N       E                     dE             d eps       ncg     rms          rms(c)
DAV:   1    -0.230528345827E+04    0.19972E+00   -0.13810E+01  4400   0.374E+00    0.113E+00
RMM:   2    -0.230549194022E+04   -0.20848E+00   -0.22426E+00  6191   0.898E-01    0.738E-01
RMM:   3    -0.230550784686E+04   -0.15907E-01   -0.21901E-01  5989   0.268E-01    0.101E+00
RMM:   4    -0.230549923997E+04    0.86069E-02   -0.22734E-02  6142   0.740E-02    0.427E-01
RMM:   5    -0.230549740574E+04    0.18342E-02   -0.48589E-03  5669   0.379E-02    0.248E-01
RMM:   6    -0.230549663154E+04    0.77419E-03   -0.28138E-03  5685   0.365E-02    0.106E-01
RMM:   7    -0.230549652167E+04    0.10987E-03   -0.43874E-04  4911   0.179E-02    0.497E-02
RMM:   8    -0.230549649200E+04    0.29672E-04   -0.10839E-04  3844   0.683E-03    0.301E-02
RMM:   9    -0.230549647972E+04    0.12283E-04   -0.32343E-05  2866   0.572E-03    0.132E-02
RMM:  10    -0.230549648009E+04   -0.37145E-06   -0.23065E-05  2895   0.384E-03
  55 F= -.23258262E+04 E0= -.23258262E+04  d E =-.207256E-01  mag=     1.0000
       N       E                     dE             d eps       ncg     rms          rms(c)
DAV:   1    -0.230548397251E+04    0.12507E-01   -0.15512E+00  4496   0.123E+00    0.359E-01
RMM:   2    -0.230550621786E+04   -0.22245E-01   -0.24136E-01  6186   0.286E-01    0.190E-01
RMM:   3    -0.230550759155E+04   -0.13737E-02   -0.23530E-02  5866   0.823E-02    0.161E-01
RMM:   4    -0.230550770321E+04   -0.11166E-03   -0.23527E-03  5304   0.202E-02    0.176E-01
RMM:   5    -0.230550742647E+04    0.27674E-03   -0.47423E-04  4745   0.136E-02    0.915E-02
RMM:   6    -0.230550732636E+04    0.10011E-03   -0.27077E-04  4804   0.120E-02    0.285E-02
RMM:   7    -0.230550731916E+04    0.72026E-05   -0.38307E-05  2902   0.635E-03
  56 F= -.23258362E+04 E0= -.23258362E+04  d E =-.992755E-02  mag=     1.0000
       N       E                     dE             d eps       ncg     rms          rms(c)
DAV:   1    -0.230531355411E+04    0.19377E+00   -0.13943E+01  4400   0.370E+00    0.109E+00
RMM:   2    -0.230551667181E+04   -0.20312E+00   -0.22025E+00  6225   0.865E-01    0.591E-01
RMM:   3    -0.230552878135E+04   -0.12110E-01   -0.21860E-01  5969   0.251E-01    0.524E-01
RMM:   4    -0.230552949063E+04   -0.70928E-03   -0.20715E-02  6028   0.604E-02    0.511E-01
RMM:   5    -0.230552712311E+04    0.23675E-02   -0.44522E-03  5770   0.362E-02    0.289E-01
RMM:   6    -0.230552610497E+04    0.10181E-02   -0.28805E-03  5678   0.354E-02    0.970E-02
RMM:   7    -0.230552602275E+04    0.82222E-04   -0.39971E-04  4741   0.169E-02    0.501E-02
RMM:   8    -0.230552599137E+04    0.31377E-04   -0.11446E-04  3901   0.655E-03    0.326E-02
RMM:   9    -0.230552597355E+04    0.17820E-04   -0.42842E-05  2917   0.576E-03    0.134E-02
RMM:  10    -0.230552597242E+04    0.11347E-05   -0.20257E-05  2889   0.349E-03
  57 F= -.23258522E+04 E0= -.23258522E+04  d E =-.259106E-01  mag=     1.0000
       N       E                     dE             d eps       ncg     rms          rms(c)
DAV:   1    -0.230550490213E+04    0.21071E-01   -0.23087E+00  4432   0.153E+00    0.469E-01
RMM:   2    -0.230554138012E+04   -0.36478E-01   -0.38887E-01  6095   0.352E-01    0.387E-01
RMM:   3    -0.230554567096E+04   -0.42908E-02   -0.40755E-02  5845   0.113E-01    0.538E-01
RMM:   4    -0.230554254507E+04    0.31259E-02   -0.39275E-03  5863   0.308E-02    0.145E-01
RMM:   5    -0.230554219890E+04    0.34617E-03   -0.11200E-03  5214   0.204E-02    0.649E-02
RMM:   6    -0.230554215722E+04    0.41680E-04   -0.22137E-04  4653   0.124E-02    0.267E-02
RMM:   7    -0.230554215138E+04    0.58380E-05   -0.39051E-05  3065   0.587E-03
  58 F= -.23258673E+04 E0= -.23258673E+04  d E =-.151574E-01  mag=     1.0000
       N       E                     dE             d eps       ncg     rms          rms(c)
DAV:   1    -0.230521481488E+04    0.32734E+00   -0.20752E+01  4400   0.458E+00    0.141E+00
RMM:   2    -0.230554278157E+04   -0.32797E+00   -0.35616E+00  6145   0.108E+00    0.908E-01
RMM:   3    -0.230558331119E+04   -0.40530E-01   -0.39229E-01  5911   0.338E-01    0.145E+00
RMM:   4    -0.230556144323E+04    0.21868E-01   -0.35557E-02  6388   0.878E-02    0.476E-01
RMM:   5    -0.230555827521E+04    0.31680E-02   -0.86040E-03  5467   0.543E-02    0.253E-01
RMM:   6    -0.230555736372E+04    0.91149E-03   -0.38241E-03  5498   0.410E-02    0.977E-02
RMM:   7    -0.230555727635E+04    0.87365E-04   -0.42303E-04  5094   0.199E-02    0.578E-02
RMM:   8    -0.230555723807E+04    0.38285E-04   -0.18174E-04  4202   0.791E-03    0.438E-02
RMM:   9    -0.230555720438E+04    0.33686E-04   -0.70081E-05  3162   0.741E-03    0.160E-02
RMM:  10    -0.230555720073E+04    0.36551E-05   -0.25771E-05  3001   0.411E-03
  59 F= -.23258794E+04 E0= -.23258794E+04  d E =-.272516E-01  mag=     1.0000
       N       E                     dE             d eps       ncg     rms          rms(c)
DAV:   1    -0.230553632609E+04    0.20878E-01   -0.13631E+00  4512   0.117E+00    0.364E-01
RMM:   2    -0.230555839877E+04   -0.22073E-01   -0.22828E-01  6093   0.270E-01    0.375E-01
RMM:   3    -0.230555981974E+04   -0.14210E-02   -0.22631E-02  5684   0.902E-02    0.370E-01
RMM:   4    -0.230555832810E+04    0.14916E-02   -0.21636E-03  5566   0.234E-02    0.113E-01
RMM:   5    -0.230555812926E+04    0.19883E-03   -0.49816E-04  4849   0.139E-02    0.511E-02
RMM:   6    -0.230555810987E+04    0.19394E-04   -0.18077E-04  4478   0.107E-02    0.244E-02
RMM:   7    -0.230555810634E+04    0.35341E-05   -0.23041E-05  2930   0.550E-03
  60 F= -.23258811E+04 E0= -.23258811E+04  d E =-.288985E-01  mag=     1.0000
       N       E                     dE             d eps       ncg     rms          rms(c)
DAV:   1    -0.230553920761E+04    0.18902E-01   -0.17662E+00  4400   0.132E+00    0.381E-01
RMM:   2    -0.230556804887E+04   -0.28841E-01   -0.31132E-01  6243   0.315E-01    0.245E-01
RMM:   3    -0.230557061364E+04   -0.25648E-02   -0.30463E-02  5831   0.920E-02    0.328E-01
RMM:   4    -0.230556968457E+04    0.92908E-03   -0.29264E-03  5454   0.233E-02    0.147E-01
RMM:   5    -0.230556943762E+04    0.24695E-03   -0.56293E-04  4547   0.140E-02    0.864E-02
RMM:   6    -0.230556934294E+04    0.94674E-04   -0.34228E-04  4677   0.145E-02    0.349E-02
RMM:   7    -0.230556932973E+04    0.13216E-04   -0.52237E-05  3057   0.662E-03    0.140E-02
RMM:   8    -0.230556932700E+04    0.27292E-05   -0.10472E-05  2881   0.371E-03
  61 F= -.23258913E+04 E0= -.23258913E+04  d E =-.102444E-01  mag=     1.0000
       N       E                     dE             d eps       ncg     rms          rms(c)
DAV:   1    -0.230531559684E+04    0.25373E+00   -0.15881E+01  4400   0.396E+00    0.116E+00
RMM:   2    -0.230557836343E+04   -0.26277E+00   -0.28565E+00  6269   0.970E-01    0.669E-01
RMM:   3    -0.230559804522E+04   -0.19682E-01   -0.29269E-01  5936   0.273E-01    0.692E-01
RMM:   4    -0.230559645920E+04    0.15860E-02   -0.26921E-02  6337   0.642E-02    0.551E-01
RMM:   5    -0.230559343861E+04    0.30206E-02   -0.40296E-03  5399   0.374E-02    0.282E-01
RMM:   6    -0.230559236380E+04    0.10748E-02   -0.37701E-03  5461   0.407E-02    0.119E-01
RMM:   7    -0.230559225507E+04    0.10873E-03   -0.58197E-04  5170   0.187E-02    0.625E-02
RMM:   8    -0.230559221076E+04    0.44312E-04   -0.16167E-04  4257   0.811E-03    0.443E-02
RMM:   9    -0.230559217540E+04    0.35362E-04   -0.75188E-05  2993   0.732E-03    0.164E-02
RMM:  10    -0.230559217191E+04    0.34852E-05   -0.28884E-05  2901   0.360E-03
  62 F= -.23259113E+04 E0= -.23259113E+04  d E =-.302524E-01  mag=     1.0000
       N       E                     dE             d eps       ncg     rms          rms(c)
DAV:   1    -0.230443805756E+04    0.11541E+01   -0.63402E+01  4392   0.792E+00    0.236E+00
RMM:   2    -0.230554550372E+04   -0.11074E+01   -0.12004E+01  6321   0.201E+00    0.141E+00
RMM:   3    -0.230560686424E+04   -0.61361E-01   -0.11544E+00  6017   0.573E-01    0.132E+00
RMM:   4    -0.230560709798E+04   -0.23374E-03   -0.10340E-01  6027   0.136E-01    0.109E+00
RMM:   5    -0.230559552607E+04    0.11572E-01   -0.17416E-02  5990   0.679E-02    0.702E-01
RMM:   6    -0.230558868085E+04    0.68452E-02   -0.17821E-02  5437   0.839E-02    0.220E-01
RMM:   7    -0.230558859766E+04    0.83189E-04   -0.26984E-03  4950   0.365E-02    0.150E-01
RMM:   8    -0.230558840154E+04    0.19612E-03   -0.76674E-04  4770   0.195E-02    0.107E-01
RMM:   9    -0.230558822424E+04    0.17730E-03   -0.33355E-04  3589   0.152E-02    0.441E-02
RMM:  10    -0.230558819969E+04    0.24551E-04   -0.14332E-04  3581   0.660E-03    0.135E-02
RMM:  11    -0.230558819552E+04    0.41685E-05   -0.13782E-05  2867   0.438E-03
  63 F= -.23259021E+04 E0= -.23259021E+04  d E =-.210216E-01  mag=     1.0000
       N       E                     dE             d eps       ncg     rms          rms(c)
DAV:   1    -0.230513927419E+04    0.44893E+00   -0.26424E+01  4400   0.510E+00    0.152E+00
RMM:   2    -0.230560425704E+04   -0.46498E+00   -0.47955E+00  6235   0.123E+00    0.165E+00
RMM:   3    -0.230562301350E+04   -0.18756E-01   -0.47210E-01  5726   0.381E-01    0.141E+00
RMM:   4    -0.230560304173E+04    0.19972E-01   -0.41670E-02  6032   0.947E-02    0.521E-01
RMM:   5    -0.230559971272E+04    0.33290E-02   -0.71092E-03  5550   0.473E-02    0.296E-01
RMM:   6    -0.230559894051E+04    0.77221E-03   -0.52729E-03  5587   0.443E-02    0.186E-01
RMM:   7    -0.230559866582E+04    0.27469E-03   -0.98564E-04  5343   0.255E-02    0.923E-02
RMM:   8    -0.230559854590E+04    0.11992E-03   -0.16645E-04  3698   0.879E-03    0.529E-02
RMM:   9    -0.230559849385E+04    0.52046E-04   -0.14036E-04  3251   0.767E-03    0.210E-02
RMM:  10    -0.230559849040E+04    0.34540E-05   -0.46734E-05  2882   0.492E-03
  64 F= -.23259157E+04 E0= -.23259157E+04  d E =-.346424E-01  mag=     1.0000
       N       E                     dE             d eps       ncg     rms          rms(c)
DAV:   1    -0.230550570720E+04    0.92787E-01   -0.60204E+00  4400   0.245E+00    0.768E-01
RMM:   2    -0.230561641329E+04   -0.11071E+00   -0.12079E+00  6271   0.649E-01    0.444E-01
RMM:   3    -0.230562170727E+04   -0.52940E-02   -0.11281E-01  5998   0.178E-01    0.330E-01
RMM:   4    -0.230562185665E+04   -0.14938E-03   -0.10509E-02  5588   0.404E-02    0.306E-01
RMM:   5    -0.230562140056E+04    0.45609E-03   -0.17632E-03  5490   0.226E-02    0.264E-01
RMM:   6    -0.230562055151E+04    0.84905E-03   -0.15222E-03  5353   0.265E-02    0.695E-02
RMM:   7    -0.230562050976E+04    0.41747E-04   -0.22743E-04  4105   0.110E-02    0.333E-02
RMM:   8    -0.230562049911E+04    0.10658E-04   -0.59090E-05  3260   0.612E-03    0.225E-02
RMM:   9    -0.230562049064E+04    0.84681E-05   -0.21131E-05  2850   0.453E-03
  65 F= -.23259359E+04 E0= -.23259359E+04  d E =-.202385E-01  mag=     1.0000
       N       E                     dE             d eps       ncg     rms          rms(c)
DAV:   1    -0.230526870328E+04    0.35180E+00   -0.18891E+01  4400   0.436E+00    0.138E+00
RMM:   2    -0.230562340626E+04   -0.35470E+00   -0.38686E+00  6294   0.118E+00    0.840E-01
RMM:   3    -0.230564070254E+04   -0.17296E-01   -0.36734E-01  6007   0.330E-01    0.669E-01
RMM:   4    -0.230564113494E+04   -0.43240E-03   -0.34001E-02  6057   0.751E-02    0.614E-01
RMM:   5    -0.230563815102E+04    0.29839E-02   -0.55580E-03  5860   0.393E-02    0.422E-01
RMM:   6    -0.230563585385E+04    0.22972E-02   -0.55050E-03  5383   0.482E-02    0.120E-01
RMM:   7    -0.230563574049E+04    0.11336E-03   -0.79999E-04  4843   0.196E-02    0.662E-02
RMM:   8    -0.230563569253E+04    0.47962E-04   -0.20440E-04  4105   0.105E-02    0.407E-02
RMM:   9    -0.230563566700E+04    0.25524E-04   -0.73126E-05  3001   0.788E-03    0.154E-02
RMM:  10    -0.230563566616E+04    0.84212E-06   -0.23159E-05  2905   0.360E-03
  66 F= -.23259481E+04 E0= -.23259481E+04  d E =-.324303E-01  mag=     1.0000
       N       E                     dE             d eps       ncg     rms          rms(c)
DAV:   1    -0.230551237404E+04    0.12329E+00   -0.69766E+00  4400   0.262E+00    0.833E-01
RMM:   2    -0.230565170612E+04   -0.13933E+00   -0.15086E+00  6298   0.707E-01    0.638E-01
RMM:   3    -0.230566445905E+04   -0.12753E-01   -0.15221E-01  5892   0.205E-01    0.851E-01
RMM:   4    -0.230565717690E+04    0.72822E-02   -0.13785E-02  6152   0.521E-02    0.302E-01
RMM:   5    -0.230565627033E+04    0.90657E-03   -0.26767E-03  4835   0.246E-02    0.202E-01
RMM:   6    -0.230565571407E+04    0.55626E-03   -0.20358E-03  5172   0.328E-02    0.822E-02
RMM:   7    -0.230565564288E+04    0.71197E-04   -0.28625E-04  4374   0.133E-02    0.331E-02
RMM:   8    -0.230565563230E+04    0.10575E-04   -0.59689E-05  3278   0.592E-03    0.235E-02
RMM:   9    -0.230565562470E+04    0.75991E-05   -0.23229E-05  2868   0.443E-03
  67 F= -.23259664E+04 E0= -.23259664E+04  d E =-.182914E-01  mag=     1.0000
       N       E                     dE             d eps       ncg     rms          rms(c)
DAV:   1    -0.230538869308E+04    0.26694E+00   -0.13555E+01  4400   0.366E+00    0.117E+00
RMM:   2    -0.230566191555E+04   -0.27322E+00   -0.29644E+00  6334   0.100E+00    0.868E-01
RMM:   3    -0.230568548632E+04   -0.23571E-01   -0.29944E-01  5897   0.285E-01    0.113E+00
RMM:   4    -0.230567262576E+04    0.12861E-01   -0.26730E-02  6321   0.723E-02    0.434E-01
RMM:   5    -0.230567075973E+04    0.18660E-02   -0.51986E-03  5030   0.341E-02    0.283E-01
RMM:   6    -0.230566962945E+04    0.11303E-02   -0.40951E-03  5290   0.457E-02    0.117E-01
RMM:   7    -0.230566949121E+04    0.13825E-03   -0.56785E-04  4927   0.182E-02    0.492E-02
RMM:   8    -0.230566946692E+04    0.24284E-04   -0.12238E-04  3783   0.764E-03    0.351E-02
RMM:   9    -0.230566944887E+04    0.18052E-04   -0.51965E-05  2942   0.632E-03    0.118E-02
RMM:  10    -0.230566944978E+04   -0.90548E-06   -0.20266E-05  2906   0.338E-03
  68 F= -.23259780E+04 E0= -.23259780E+04  d E =-.298962E-01  mag=     1.0000
       N       E                     dE             d eps       ncg     rms          rms(c)
DAV:   1    -0.230565506421E+04    0.14385E-01   -0.75951E-01  4624   0.867E-01    0.270E-01
RMM:   2    -0.230567001232E+04   -0.14948E-01   -0.16172E-01  6295   0.228E-01    0.198E-01
RMM:   3    -0.230567125806E+04   -0.12457E-02   -0.14563E-02  5592   0.653E-02    0.266E-01
RMM:   4    -0.230567055221E+04    0.70585E-03   -0.14403E-03  4495   0.171E-02    0.946E-02
RMM:   5    -0.230567045675E+04    0.95459E-04   -0.28171E-04  3812   0.940E-03    0.628E-02
RMM:   6    -0.230567040708E+04    0.49675E-04   -0.18885E-04  3961   0.111E-02    0.236E-02
RMM:   7    -0.230567040140E+04    0.56792E-05   -0.25332E-05  2894   0.517E-03
  69 F= -.23259785E+04 E0= -.23259785E+04  d E =-.303405E-01  mag=     1.0000
       N       E                     dE             d eps       ncg     rms          rms(c)
DAV:   1    -0.230561908177E+04    0.51325E-01   -0.39493E+00  4400   0.200E+00    0.640E-01
RMM:   2    -0.230569054020E+04   -0.71458E-01   -0.72748E-01  6197   0.518E-01    0.782E-01
RMM:   3    -0.230569203741E+04   -0.14972E-02   -0.72845E-02  5951   0.154E-01    0.621E-01
RMM:   4    -0.230568752991E+04    0.45075E-02   -0.63917E-03  5871   0.401E-02    0.198E-01
RMM:   5    -0.230568707161E+04    0.45830E-03   -0.18257E-03  4894   0.235E-02    0.138E-01
RMM:   6    -0.230568683092E+04    0.24070E-03   -0.97969E-04  5019   0.251E-02    0.494E-02
RMM:   7    -0.230568679981E+04    0.31113E-04   -0.95517E-05  3526   0.865E-03    0.191E-02
RMM:   8    -0.230568679436E+04    0.54484E-05   -0.22394E-05  2888   0.485E-03
  70 F= -.23259936E+04 E0= -.23259936E+04  d E =-.150932E-01  mag=     1.0000
       N       E                     dE             d eps       ncg     rms          rms(c)
DAV:   1    -0.230560892626E+04    0.77874E-01   -0.49016E+00  4400   0.223E+00    0.711E-01
RMM:   2    -0.230569749431E+04   -0.88568E-01   -0.90358E-01  6193   0.578E-01    0.860E-01
RMM:   3    -0.230569956302E+04   -0.20687E-02   -0.91354E-02  5968   0.171E-01    0.702E-01
RMM:   4    -0.230569380312E+04    0.57599E-02   -0.79479E-03  5914   0.447E-02    0.222E-01
RMM:   5    -0.230569321085E+04    0.59227E-03   -0.22918E-03  4964   0.263E-02    0.151E-01
RMM:   6    -0.230569292477E+04    0.28608E-03   -0.12279E-03  5050   0.281E-02    0.564E-02
RMM:   7    -0.230569288151E+04    0.43261E-04   -0.12149E-04  3719   0.967E-03    0.217E-02
RMM:   8    -0.230569287487E+04    0.66400E-05   -0.30040E-05  2905   0.527E-03
  71 F= -.23259982E+04 E0= -.23259982E+04  d E =-.197610E-01  mag=     1.0000
       N       E                     dE             d eps       ncg     rms          rms(c)
DAV:   1    -0.230562047153E+04    0.72410E-01   -0.55372E+00  4400   0.240E+00    0.731E-01
RMM:   2    -0.230570479272E+04   -0.84321E-01   -0.90616E-01  6239   0.615E-01    0.499E-01
RMM:   3    -0.230571065356E+04   -0.58608E-02   -0.83463E-02  5984   0.167E-01    0.619E-01
RMM:   4    -0.230570705996E+04    0.35936E-02   -0.83079E-03  6230   0.451E-02    0.296E-01
RMM:   5    -0.230570624694E+04    0.81303E-03   -0.19278E-03  5064   0.224E-02    0.176E-01
RMM:   6    -0.230570582881E+04    0.41812E-03   -0.15838E-03  5256   0.300E-02    0.538E-02
RMM:   7    -0.230570578888E+04    0.39929E-04   -0.17375E-04  4024   0.117E-02    0.227E-02
RMM:   8    -0.230570578094E+04    0.79458E-05   -0.31270E-05  2987   0.465E-03
  72 F= -.23260094E+04 E0= -.23260094E+04  d E =-.111481E-01  mag=     1.0000
       N       E                     dE             d eps       ncg     rms          rms(c)
DAV:   1    -0.230569126598E+04    0.14523E-01   -0.10515E+00  4512   0.104E+00    0.319E-01
RMM:   2    -0.230570731673E+04   -0.16051E-01   -0.17213E-01  6222   0.265E-01    0.219E-01
RMM:   3    -0.230570844578E+04   -0.11290E-02   -0.15237E-02  5841   0.717E-02    0.275E-01
RMM:   4    -0.230570771493E+04    0.73085E-03   -0.15638E-03  5274   0.198E-02    0.125E-01
RMM:   5    -0.230570757440E+04    0.14053E-03   -0.37509E-04  4186   0.106E-02    0.782E-02
RMM:   6    -0.230570748933E+04    0.85076E-04   -0.29671E-04  4613   0.138E-02    0.210E-02
RMM:   7    -0.230570748388E+04    0.54475E-05   -0.31665E-05  2985   0.603E-03
  73 F= -.23260103E+04 E0= -.23260103E+04  d E =-.120962E-01  mag=     1.0000
       N       E                     dE             d eps       ncg     rms          rms(c)
DAV:   1    -0.230568085031E+04    0.26639E-01   -0.31199E+00  4400   0.178E+00    0.524E-01
RMM:   2    -0.230571829651E+04   -0.37446E-01   -0.40674E-01  6101   0.407E-01    0.274E-01
RMM:   3    -0.230571998911E+04   -0.16926E-02   -0.37015E-02  5848   0.116E-01    0.255E-01
RMM:   4    -0.230571992223E+04    0.66886E-04   -0.36876E-03  5822   0.288E-02    0.242E-01
RMM:   5    -0.230571940794E+04    0.51429E-03   -0.10549E-03  5277   0.203E-02    0.130E-01
RMM:   6    -0.230571918938E+04    0.21856E-03   -0.54976E-04  5209   0.172E-02    0.402E-02
RMM:   7    -0.230571916834E+04    0.21033E-04   -0.76918E-05  3262   0.872E-03    0.183E-02
RMM:   8    -0.230571916392E+04    0.44292E-05   -0.19918E-05  2950   0.414E-03
  74 F= -.23260213E+04 E0= -.23260213E+04  d E =-.109917E-01  mag=     1.0000
       N       E                     dE             d eps       ncg     rms          rms(c)
DAV:   1    -0.230567912190E+04    0.40046E-01   -0.35569E+00  4400   0.190E+00    0.559E-01
RMM:   2    -0.230572182479E+04   -0.42703E-01   -0.46370E-01  6113   0.435E-01    0.291E-01
RMM:   3    -0.230572368263E+04   -0.18578E-02   -0.42244E-02  5875   0.124E-01    0.261E-01
RMM:   4    -0.230572368692E+04   -0.42874E-05   -0.41917E-03  5887   0.307E-02    0.261E-01
RMM:   5    -0.230572308898E+04    0.59794E-03   -0.11978E-03  5371   0.218E-02    0.142E-01
RMM:   6    -0.230572282809E+04    0.26089E-03   -0.62728E-04  5268   0.181E-02    0.435E-02
RMM:   7    -0.230572280395E+04    0.24141E-04   -0.89039E-05  3366   0.924E-03    0.203E-02
RMM:   8    -0.230572279985E+04    0.40971E-05   -0.24105E-05  2966   0.437E-03
  75 F= -.23260242E+04 E0= -.23260242E+04  d E =-.139003E-01  mag=     1.0000
       N       E                     dE             d eps       ncg     rms          rms(c)
DAV:   1    -0.230569672617E+04    0.26078E-01   -0.27668E+00  4400   0.164E+00    0.464E-01
RMM:   2    -0.230572995448E+04   -0.33228E-01   -0.36149E-01  6181   0.371E-01    0.227E-01
RMM:   3    -0.230573131046E+04   -0.13560E-02   -0.33007E-02  5905   0.104E-01    0.165E-01
RMM:   4    -0.230573133261E+04   -0.22154E-04   -0.31698E-03  5175   0.255E-02    0.150E-01
RMM:   5    -0.230573133310E+04   -0.48726E-06   -0.66063E-04  5007   0.165E-02    0.165E-01
RMM:   6    -0.230573102967E+04    0.30343E-03   -0.35256E-04  5186   0.131E-02    0.474E-02
RMM:   7    -0.230573101176E+04    0.17905E-04   -0.65921E-05  3019   0.713E-03    0.214E-02
RMM:   8    -0.230573100824E+04    0.35167E-05   -0.22107E-05  2952   0.438E-03
  76 F= -.23260320E+04 E0= -.23260320E+04  d E =-.782226E-02  mag=     1.0000
       N       E                     dE             d eps       ncg     rms          rms(c)
DAV:   1    -0.230568809306E+04    0.42919E-01   -0.37548E+00  4400   0.191E+00    0.541E-01
RMM:   2    -0.230573325414E+04   -0.45161E-01   -0.49119E-01  6174   0.435E-01    0.265E-01
RMM:   3    -0.230573512580E+04   -0.18717E-02   -0.44938E-02  5907   0.121E-01    0.204E-01
RMM:   4    -0.230573533877E+04   -0.21298E-03   -0.43179E-03  5517   0.299E-02    0.227E-01
RMM:   5    -0.230573495468E+04    0.38409E-03   -0.10045E-03  5327   0.190E-02    0.151E-01
RMM:   6    -0.230573467102E+04    0.28366E-03   -0.48458E-04  5364   0.150E-02    0.481E-02
RMM:   7    -0.230573465088E+04    0.20137E-04   -0.82671E-05  3174   0.829E-03    0.251E-02
RMM:   8    -0.230573464479E+04    0.60918E-05   -0.30989E-05  3017   0.489E-03
  77 F= -.23260352E+04 E0= -.23260352E+04  d E =-.110155E-01  mag=     1.0000
       N       E                     dE             d eps       ncg     rms          rms(c)
DAV:   1    -0.230570191547E+04    0.32735E-01   -0.37231E+00  4400   0.192E+00    0.530E-01
RMM:   2    -0.230574653973E+04   -0.44624E-01   -0.47900E-01  6227   0.443E-01    0.327E-01
RMM:   3    -0.230574958659E+04   -0.30469E-02   -0.43230E-02  6031   0.122E-01    0.457E-01
RMM:   4    -0.230574779386E+04    0.17927E-02   -0.44838E-03  5927   0.341E-02    0.197E-01
RMM:   5    -0.230574741365E+04    0.38021E-03   -0.10967E-03  5224   0.190E-02    0.122E-01
RMM:   6    -0.230574723048E+04    0.18317E-03   -0.71368E-04  5292   0.199E-02    0.473E-02
RMM:   7    -0.230574720379E+04    0.26697E-04   -0.91443E-05  3412   0.890E-03    0.213E-02
RMM:   8    -0.230574719986E+04    0.39255E-05   -0.25629E-05  2975   0.458E-03
  78 F= -.23260471E+04 E0= -.23260471E+04  d E =-.118984E-01  mag=     1.0000
       N       E                     dE             d eps       ncg     rms          rms(c)
DAV:   1    -0.230563832269E+04    0.10888E+00   -0.95865E+00  4400   0.309E+00    0.853E-01
RMM:   2    -0.230575430575E+04   -0.11598E+00   -0.12420E+00  6219   0.719E-01    0.550E-01
RMM:   3    -0.230576207754E+04   -0.77718E-02   -0.11250E-01  6057   0.200E-01    0.765E-01
RMM:   4    -0.230575687371E+04    0.52038E-02   -0.11692E-02  6145   0.564E-02    0.315E-01
RMM:   5    -0.230575589103E+04    0.98268E-03   -0.29088E-03  5587   0.300E-02    0.197E-01
RMM:   6    -0.230575539932E+04    0.49171E-03   -0.18937E-03  5479   0.317E-02    0.764E-02
RMM:   7    -0.230575532918E+04    0.70133E-04   -0.24165E-04  4433   0.138E-02    0.355E-02
RMM:   8    -0.230575531732E+04    0.11862E-04   -0.67793E-05  3259   0.572E-03    0.215E-02
RMM:   9    -0.230575531088E+04    0.64395E-05   -0.18924E-05  2852   0.455E-03
  79 F= -.23260542E+04 E0= -.23260542E+04  d E =-.189760E-01  mag=     1.0000
       N       E                     dE             d eps       ncg     rms          rms(c)
DAV:   1    -0.230571870450E+04    0.36613E-01   -0.45640E+00  4400   0.213E+00    0.559E-01
RMM:   2    -0.230576507885E+04   -0.46374E-01   -0.50250E-01  6124   0.467E-01    0.292E-01
RMM:   3    -0.230576702066E+04   -0.19418E-02   -0.45122E-02  5857   0.128E-01    0.258E-01
RMM:   4    -0.230576701400E+04    0.66576E-05   -0.43484E-03  5871   0.306E-02    0.250E-01
RMM:   5    -0.230576646245E+04    0.55156E-03   -0.11775E-03  5389   0.216E-02    0.147E-01
RMM:   6    -0.230576619808E+04    0.26436E-03   -0.67036E-04  5290   0.181E-02    0.432E-02
RMM:   7    -0.230576617407E+04    0.24018E-04   -0.85617E-05  3365   0.909E-03    0.213E-02
RMM:   8    -0.230576616954E+04    0.45279E-05   -0.24304E-05  2949   0.434E-03
  80 F= -.23260644E+04 E0= -.23260644E+04  d E =-.101801E-01  mag=     1.0000
       N       E                     dE             d eps       ncg     rms          rms(c)
DAV:   1    -0.230562209549E+04    0.14408E+00   -0.14286E+01  4400   0.377E+00    0.994E-01
RMM:   2    -0.230576777282E+04   -0.14568E+00   -0.15808E+00  6137   0.831E-01    0.512E-01
RMM:   3    -0.230577326615E+04   -0.54933E-02   -0.14403E-01  5882   0.228E-01    0.389E-01
RMM:   4    -0.230577327712E+04   -0.10969E-04   -0.13235E-02  5952   0.527E-02    0.386E-01
RMM:   5    -0.230577265020E+04    0.62692E-03   -0.34678E-03  5743   0.381E-02    0.339E-01
RMM:   6    -0.230577131154E+04    0.13387E-02   -0.19944E-03  5434   0.289E-02    0.818E-02
RMM:   7    -0.230577123482E+04    0.76715E-04   -0.27636E-04  4536   0.151E-02    0.418E-02
RMM:   8    -0.230577121754E+04    0.17281E-04   -0.95709E-05  3621   0.620E-03    0.280E-02
RMM:   9    -0.230577120123E+04    0.16315E-04   -0.32815E-05  2899   0.553E-03    0.103E-02
RMM:  10    -0.230577119776E+04    0.34652E-05   -0.14790E-05  2882   0.330E-03
  81 F= -.23260683E+04 E0= -.23260683E+04  d E =-.140352E-01  mag=     1.0000
       N       E                     dE             d eps       ncg     rms          rms(c)
DAV:   1    -0.230575873303E+04    0.12468E-01   -0.12464E+00  4448   0.111E+00    0.292E-01
RMM:   2    -0.230577149461E+04   -0.12762E-01   -0.13757E-01  6122   0.241E-01    0.160E-01
RMM:   3    -0.230577196524E+04   -0.47063E-03   -0.10559E-02  5757   0.644E-02    0.158E-01
RMM:   4    -0.230577185439E+04    0.11085E-03   -0.11409E-03  4761   0.169E-02    0.124E-01
RMM:   5    -0.230577172178E+04    0.13261E-03   -0.35097E-04  4533   0.121E-02    0.758E-02
RMM:   6    -0.230577164691E+04    0.74864E-04   -0.18289E-04  4426   0.105E-02    0.188E-02
[...]
RMM:   2    -0.230592163603E+04   -0.93344E-04   -0.99556E-04  5936   0.225E-02    0.185E-02
RMM:   3    -0.230592164438E+04   -0.83470E-05   -0.78331E-05  2919   0.745E-03
 219 F= -.23261956E+04 E0= -.23261956E+04  d E =-.384772E-04  mag=     1.0000
       N       E                     dE             d eps       ncg     rms          rms(c)
DAV:   1    -0.230592164011E+04   -0.40797E-05   -0.39189E-04  5088   0.192E-02    0.110E-02
RMM:   2    -0.230592164475E+04   -0.46364E-05   -0.49190E-05  3089   0.493E-03
 220 F= -.23261956E+04 E0= -.23261956E+04  d E =-.278281E-04  mag=     1.0000
       N       E                     dE             d eps       ncg     rms          rms(c)
DAV:   1    -0.230592164842E+04   -0.83086E-05   -0.68409E-03  4400   0.794E-02    0.282E-02
RMM:   2    -0.230592172547E+04   -0.77049E-04   -0.83308E-04  5802   0.203E-02    0.143E-02
RMM:   3    -0.230592172885E+04   -0.33820E-05   -0.68988E-05  2891   0.647E-03
 221 F= -.23261956E+04 E0= -.23261956E+04  d E =-.244175E-04  mag=     1.0000
       N       E                     dE             d eps       ncg     rms          rms(c)
DAV:   1    -0.230592173183E+04   -0.63561E-05   -0.13227E-04  5320   0.108E-02    0.111E-02
RMM:   2    -0.230592174087E+04   -0.90447E-05   -0.24053E-05  2769   0.316E-03
 222 F= -.23261957E+04 E0= -.23261957E+04  d E =-.294060E-04  mag=     1.0000
       N       E                     dE             d eps       ncg     rms          rms(c)
DAV:   1    -0.230592172572E+04    0.61110E-05   -0.57977E-03  4400   0.756E-02    0.274E-02
RMM:   2    -0.230592179630E+04   -0.70584E-04   -0.76391E-04  5729   0.199E-02    0.153E-02
RMM:   3    -0.230592180333E+04   -0.70271E-05   -0.82779E-05  2889   0.793E-03
 223 F= -.23261957E+04 E0= -.23261957E+04  d E =-.183084E-04  mag=     1.0000
       N       E                     dE             d eps       ncg     rms          rms(c)
DAV:   1    -0.230592180319E+04   -0.68855E-05   -0.26253E-04  5056   0.158E-02    0.105E-02
RMM:   2    -0.230592180950E+04   -0.63098E-05   -0.39380E-05  3031   0.430E-03
 224 F= -.23261957E+04 E0= -.23261957E+04  d E =-.156870E-04  mag=     1.0000
       N       E                     dE             d eps       ncg     rms          rms(c)
DAV:   1    -0.230592181197E+04   -0.87801E-05   -0.43255E-03  4384   0.625E-02    0.227E-02
RMM:   2    -0.230592186678E+04   -0.54817E-04   -0.58793E-04  5352   0.167E-02    0.130E-02
RMM:   3    -0.230592186957E+04   -0.27911E-05   -0.44411E-05  2831   0.543E-03
 225 F= -.23261957E+04 E0= -.23261957E+04  d E =-.157839E-04  mag=     1.0000
       N       E                     dE             d eps       ncg     rms          rms(c)
DAV:   1    -0.230592187539E+04   -0.86038E-05   -0.12700E-03  4352   0.339E-02    0.145E-02
RMM:   2    -0.230592189313E+04   -0.17740E-04   -0.17874E-04  4102   0.900E-03    0.143E-02
RMM:   3    -0.230592189372E+04   -0.59605E-06   -0.18070E-05  2713   0.416E-03
 226 F= -.23261957E+04 E0= -.23261957E+04  d E =-.158753E-04  mag=     1.0000
       N       E                     dE             d eps       ncg     rms          rms(c)
DAV:   1    -0.230592191369E+04   -0.20560E-04   -0.45848E-03  4384   0.657E-02    0.239E-02
RMM:   2    -0.230592197315E+04   -0.59464E-04   -0.61413E-04  5524   0.169E-02    0.193E-02
RMM:   3    -0.230592197810E+04   -0.49503E-05   -0.58549E-05  2878   0.618E-03
 227 F= -.23261957E+04 E0= -.23261957E+04  d E =-.295139E-04  mag=     1.0000
       N       E                     dE             d eps       ncg     rms          rms(c)
DAV:   1    -0.230592198438E+04   -0.11229E-04   -0.18727E-03  4408   0.420E-02    0.172E-02
RMM:   2    -0.230592200777E+04   -0.23386E-04   -0.25912E-04  4485   0.110E-02    0.102E-02
RMM:   3    -0.230592200886E+04   -0.10922E-05   -0.20748E-05  2805   0.421E-03
 228 F= -.23261957E+04 E0= -.23261957E+04  d E =-.251907E-04  mag=     1.0000
       N       E                     dE             d eps       ncg     rms          rms(c)
DAV:   1    -0.230592202618E+04   -0.18411E-04   -0.34319E-03  4368   0.563E-02    0.206E-02
RMM:   2    -0.230592206903E+04   -0.42858E-04   -0.46467E-04  5219   0.146E-02    0.109E-02
RMM:   3    -0.230592207050E+04   -0.14667E-05   -0.39577E-05  2807   0.504E-03
 229 F= -.23261957E+04 E0= -.23261957E+04  d E =-.212727E-04  mag=     1.0000
       N       E                     dE             d eps       ncg     rms          rms(c)
DAV:   1    -0.230592208254E+04   -0.13500E-04   -0.93894E-04  4488   0.294E-02    0.161E-02
RMM:   2    -0.230592211062E+04   -0.28082E-04   -0.14168E-04  3842   0.778E-03    0.389E-02
RMM:   3    -0.230592209316E+04    0.17456E-04   -0.23020E-05  2715   0.472E-03    0.720E-03
RMM:   4    -0.230592209245E+04    0.71601E-06   -0.34418E-06  2427   0.149E-03
 230 F= -.23261957E+04 E0= -.23261957E+04  d E =-.222639E-04  mag=     1.0000
       N       E                     dE             d eps       ncg     rms          rms(c)
DAV:   1    -0.230592209181E+04    0.13554E-05   -0.39938E-03  4384   0.624E-02    0.230E-02
RMM:   2    -0.230592214535E+04   -0.53543E-04   -0.55756E-04  5523   0.159E-02    0.179E-02
RMM:   3    -0.230592214991E+04   -0.45630E-05   -0.52652E-05  2878   0.610E-03
 231 F= -.23261958E+04 E0= -.23261958E+04  d E =-.265432E-04  mag=     1.0000
       N       E                     dE             d eps       ncg     rms          rms(c)
DAV:   1    -0.230592214766E+04   -0.23158E-05   -0.73129E-04  4648   0.267E-02    0.119E-02
RMM:   2    -0.230592215695E+04   -0.92891E-05   -0.10713E-04  3713   0.698E-03    0.711E-03
RMM:   3    -0.230592215732E+04   -0.37049E-06   -0.10503E-05  2534   0.374E-03
 232 F= -.23261958E+04 E0= -.23261958E+04  d E =-.208583E-04  mag=     1.0000
       N       E                     dE             d eps       ncg     rms          rms(c)
DAV:   1    -0.230592215075E+04    0.62030E-05   -0.43834E-03  4384   0.657E-02    0.252E-02
RMM:   2    -0.230592222181E+04   -0.71058E-04   -0.70956E-04  5627   0.178E-02    0.257E-02
RMM:   3    -0.230592222316E+04   -0.13459E-05   -0.65788E-05  2899   0.644E-03
 233 F= -.23261958E+04 E0= -.23261958E+04  d E =-.232920E-04  mag=     1.0000
       N       E                     dE             d eps       ncg     rms          rms(c)
DAV:   1    -0.230592221688E+04    0.49290E-05   -0.39349E-05  3984   0.508E-03    0.655E-03
RMM:   2    -0.230592221681E+04    0.73051E-07   -0.25908E-06  2255   0.151E-03
 234 F= -.23261958E+04 E0= -.23261958E+04  d E =-.162846E-04  mag=     1.0000
       N       E                     dE             d eps       ncg     rms          rms(c)
DAV:   1    -0.230592223384E+04   -0.16959E-04   -0.44162E-03  4384   0.653E-02    0.239E-02
RMM:   2    -0.230592228797E+04   -0.54133E-04   -0.58351E-04  5574   0.167E-02    0.141E-02
RMM:   3    -0.230592229420E+04   -0.62247E-05   -0.51950E-05  2868   0.573E-03
 235 F= -.23261958E+04 E0= -.23261958E+04  d E =-.231206E-04  mag=     1.0000
       N       E                     dE             d eps       ncg     rms          rms(c)
DAV:   1    -0.230592228876E+04   -0.78834E-06   -0.46523E-05  3904   0.568E-03    0.647E-03
RMM:   2    -0.230592228910E+04   -0.34270E-06   -0.31217E-06  2259   0.180E-03
 236 F= -.23261958E+04 E0= -.23261958E+04  d E =-.163273E-04  mag=     1.0000
       N       E                     dE             d eps       ncg     rms          rms(c)
DAV:   1    -0.230592231365E+04   -0.24889E-04   -0.22792E-03  4352   0.466E-02    0.181E-02
RMM:   2    -0.230592234140E+04   -0.27746E-04   -0.25431E-04  4653   0.112E-02    0.224E-02
RMM:   3    -0.230592233869E+04    0.27096E-05   -0.28352E-05  2711   0.517E-03
 237 F= -.23261958E+04 E0= -.23261958E+04  d E =-.186298E-04  mag=     1.0000
       N       E                     dE             d eps       ncg     rms          rms(c)
DAV:   1    -0.230592234102E+04    0.37579E-06   -0.82184E-05  5048   0.888E-03    0.632E-03
RMM:   2    -0.230592234162E+04   -0.59773E-06   -0.10482E-05  2385   0.234E-03
 238 F= -.23261958E+04 E0= -.23261958E+04  d E =-.158591E-04  mag=     1.0000
       N       E                     dE             d eps       ncg     rms          rms(c)
DAV:   1    -0.230592234943E+04   -0.84092E-05   -0.21895E-03  4384   0.461E-02    0.174E-02
RMM:   2    -0.230592237431E+04   -0.24880E-04   -0.25720E-04  4562   0.112E-02    0.139E-02
RMM:   3    -0.230592237618E+04   -0.18748E-05   -0.24508E-05  2695   0.500E-03
 239 F= -.23261958E+04 E0= -.23261958E+04  d E =-.146776E-04  mag=     1.0000
       N       E                     dE             d eps       ncg     rms          rms(c)
DAV:   1    -0.230592237473E+04   -0.41685E-06   -0.55465E-05  4400   0.722E-03    0.606E-03
RMM:   2    -0.230592237555E+04   -0.82440E-06   -0.80019E-06  2358   0.294E-03
 240 F= -.23261958E+04 E0= -.23261958E+04  d E =-.113727E-04  mag=     1.0000
       N       E                     dE             d eps       ncg     rms          rms(c)
DAV:   1    -0.230592238745E+04   -0.12721E-04   -0.13832E-03  4272   0.357E-02    0.131E-02
RMM:   2    -0.230592240612E+04   -0.18676E-04   -0.19813E-04  4135   0.927E-03    0.962E-03
RMM:   3    -0.230592240816E+04   -0.20358E-05   -0.19778E-05  2309   0.411E-03
 241 F= -.23261958E+04 E0= -.23261958E+04  d E =-.125457E-04  mag=     1.0000
       N       E                     dE             d eps       ncg     rms          rms(c)
DAV:   1    -0.230592241187E+04   -0.57509E-05   -0.70544E-04  4152   0.255E-02    0.106E-02
RMM:   2    -0.230592242174E+04   -0.98649E-05   -0.10275E-04  3605   0.677E-03    0.103E-02
RMM:   3    -0.230592242249E+04   -0.74858E-06   -0.14801E-05  2457   0.433E-03
 242 F= -.23261958E+04 E0= -.23261958E+04  d E =-.125377E-04  mag=     1.0000
       N       E                     dE             d eps       ncg     rms          rms(c)
DAV:   1    -0.230592244144E+04   -0.19706E-04   -0.12880E-03  4240   0.341E-02    0.128E-02
RMM:   2    -0.230592245995E+04   -0.18509E-04   -0.19677E-04  4145   0.930E-03    0.897E-03
RMM:   3    -0.230592246127E+04   -0.13192E-05   -0.17477E-05  2491   0.405E-03
 243 F= -.23261958E+04 E0= -.23261958E+04  d E =-.124210E-04  mag=     1.0000
       N       E                     dE             d eps       ncg     rms          rms(c)
DAV:   1    -0.230592247136E+04   -0.11410E-04   -0.50274E-04  4304   0.213E-02    0.901E-03
RMM:   2    -0.230592247851E+04   -0.71441E-05   -0.78882E-05  3501   0.594E-03
 244 F= -.23261958E+04 E0= -.23261958E+04  d E =-.132187E-04  mag=     1.0000
       N       E                     dE             d eps       ncg     rms          rms(c)
DAV:   1    -0.230592250400E+04   -0.32635E-04   -0.86701E-04  4256   0.302E-02    0.135E-02
RMM:   2    -0.230592252045E+04   -0.16453E-04   -0.11779E-04  3760   0.824E-03    0.238E-02
RMM:   3    -0.230592251457E+04    0.58765E-05   -0.13583E-05  2390   0.449E-03
 245 F= -.23261959E+04 E0= -.23261959E+04  d E =-.133804E-04  mag=     1.0000
       N       E                     dE             d eps       ncg     rms          rms(c)
DAV:   1    -0.230592252612E+04   -0.56697E-05   -0.32148E-04  4504   0.184E-02    0.805E-03
RMM:   2    -0.230592252967E+04   -0.35478E-05   -0.42284E-05  3081   0.499E-03
 246 F= -.23261959E+04 E0= -.23261959E+04  d E =-.144333E-04  mag=     1.0000
       N       E                     dE             d eps       ncg     rms          rms(c)
DAV:   1    -0.230592254711E+04   -0.20994E-04   -0.74202E-04  4272   0.277E-02    0.115E-02
RMM:   2    -0.230592255779E+04   -0.10677E-04   -0.96769E-05  3636   0.769E-03    0.151E-02
RMM:   3    -0.230592255644E+04    0.13539E-05   -0.12769E-05  2344   0.459E-03
 247 F= -.23261959E+04 E0= -.23261959E+04  d E =-.946832E-05  mag=     1.0000
       N       E                     dE             d eps       ncg     rms          rms(c)
DAV:   1    -0.230592256024E+04   -0.24465E-05   -0.71103E-05  4904   0.854E-03    0.493E-03
RMM:   2    -0.230592256094E+04   -0.70379E-06   -0.10207E-05  2395   0.255E-03
 248 F= -.23261959E+04 E0= -.23261959E+04  d E =-.868923E-05  mag=     1.0000
       N       E                     dE             d eps       ncg     rms          rms(c)
DAV:   1    -0.230592257433E+04   -0.14095E-04   -0.59550E-04  4096   0.231E-02    0.858E-03
RMM:   2    -0.230592258175E+04   -0.74136E-05   -0.79688E-05  3307   0.637E-03
 249 F= -.23261959E+04 E0= -.23261959E+04  d E =-.494263E-05  mag=     1.0000
       N       E                     dE             d eps       ncg     rms          rms(c)
DAV:   1    -0.230592258455E+04   -0.10212E-04   -0.27434E-05  2976   0.581E-03    0.951E-03
RMM:   2    -0.230592259620E+04   -0.11659E-04   -0.16830E-05  2428   0.352E-03    0.323E-02
RMM:   3    -0.230592258388E+04    0.12326E-04   -0.56126E-06  2165   0.227E-03    0.234E-03
RMM:   4    -0.230592258382E+04    0.60012E-07   -0.68224E-07  1591   0.875E-04
 250 F= -.23261959E+04 E0= -.23261959E+04  d E =-.497929E-05  mag=     1.0000
       N       E                     dE             d eps       ncg     rms          rms(c)
DAV:   1    -0.230592259324E+04   -0.93637E-05   -0.64454E-04  4136   0.245E-02    0.866E-03
RMM:   2    -0.230592260068E+04   -0.74385E-05   -0.81125E-05  3335   0.629E-03
 251 F= -.23261959E+04 E0= -.23261959E+04  d E =-.743791E-05  mag=     1.0000
       N       E                     dE             d eps       ncg     rms          rms(c)
DAV:   1    -0.230592260401E+04   -0.10770E-04   -0.78759E-05  4576   0.911E-03    0.557E-03
RMM:   2    -0.230592260701E+04   -0.30001E-05   -0.15189E-05  2409   0.280E-03
 252 F= -.23261959E+04 E0= -.23261959E+04  d E =-.106434E-04  mag=     1.0000
       N       E                     dE             d eps       ncg     rms          rms(c)
DAV:   1    -0.230592260786E+04   -0.38511E-05   -0.29750E-04  4080   0.168E-02    0.718E-03
RMM:   2    -0.230592261168E+04   -0.38130E-05   -0.39286E-05  2769   0.468E-03
 253 F= -.23261959E+04 E0= -.23261959E+04  d E =-.905251E-05  mag=     1.0000
       N       E                     dE             d eps       ncg     rms          rms(c)
DAV:   1    -0.230592262523E+04   -0.17363E-04   -0.73413E-04  4160   0.253E-02    0.119E-02
RMM:   2    -0.230592264176E+04   -0.16538E-04   -0.11119E-04  3656   0.725E-03    0.249E-02
RMM:   3    -0.230592263489E+04    0.68769E-05   -0.14291E-05  2345   0.418E-03
 254 F= -.23261959E+04 E0= -.23261959E+04  d E =-.679621E-05  mag=     1.0000
       N       E                     dE             d eps       ncg     rms          rms(c)
DAV:   1    -0.230592264115E+04    0.61441E-06   -0.17701E-04  4736   0.124E-02    0.581E-03
RMM:   2    -0.230592264355E+04   -0.23969E-05   -0.26477E-05  2708   0.367E-03
 255 F= -.23261959E+04 E0= -.23261959E+04  d E =-.723452E-05  mag=     1.0000
       N       E                     dE             d eps       ncg     rms          rms(c)
DAV:   1    -0.230592266106E+04   -0.19911E-04   -0.78197E-04  4160   0.264E-02    0.113E-02
RMM:   2    -0.230592267665E+04   -0.15593E-04   -0.11571E-04  3619   0.728E-03    0.221E-02
RMM:   3    -0.230592267155E+04    0.51085E-05   -0.14750E-05  2293   0.436E-03
 256 F= -.23261959E+04 E0= -.23261959E+04  d E =-.955048E-05  mag=     1.0000
       N       E                     dE             d eps       ncg     rms          rms(c)
DAV:   1    -0.230592267991E+04   -0.32519E-05   -0.21002E-04  4264   0.137E-02    0.617E-03
RMM:   2    -0.230592268269E+04   -0.27858E-05   -0.30722E-05  2755   0.397E-03
 257 F= -.23261959E+04 E0= -.23261959E+04  d E =-.110499E-04  mag=     1.0000
       N       E                     dE             d eps       ncg     rms          rms(c)
DAV:   1    -0.230592269089E+04   -0.10988E-04   -0.85410E-04  4192   0.276E-02    0.123E-02
RMM:   2    -0.230592270799E+04   -0.17100E-04   -0.12663E-04  3746   0.762E-03    0.236E-02
RMM:   3    -0.230592270219E+04    0.58000E-05   -0.16741E-05  2431   0.460E-03
 258 F= -.23261959E+04 E0= -.23261959E+04  d E =-.112526E-04  mag=     1.0000
       N       E                     dE             d eps       ncg     rms          rms(c)
DAV:   1    -0.230592271902E+04   -0.11025E-04   -0.94291E-04  4152   0.283E-02    0.106E-02
RMM:   2    -0.230592273206E+04   -0.13042E-04   -0.13392E-04  3731   0.758E-03    0.964E-03
RMM:   3    -0.230592273256E+04   -0.50239E-06   -0.12894E-05  2371   0.380E-03
 259 F= -.23261959E+04 E0= -.23261959E+04  d E =-.927307E-05  mag=     1.0000
       N       E                     dE             d eps       ncg     rms          rms(c)
DAV:   1    -0.230592273873E+04   -0.66740E-05   -0.23429E-03  4312   0.444E-02    0.162E-02
RMM:   2    -0.230592277009E+04   -0.31354E-04   -0.33235E-04  4535   0.117E-02    0.116E-02
RMM:   3    -0.230592277224E+04   -0.21467E-05   -0.28323E-05  2721   0.459E-03
 260 F= -.23261959E+04 E0= -.23261959E+04  d E =-.157255E-04  mag=     1.0000
       N       E                     dE             d eps       ncg     rms          rms(c)
DAV:   1    -0.230592279040E+04   -0.20309E-04   -0.11104E-03  4272   0.326E-02    0.128E-02
RMM:   2    -0.230592280485E+04   -0.14450E-04   -0.15845E-04  3953   0.862E-03    0.744E-03
RMM:   3    -0.230592280492E+04   -0.68016E-07   -0.13609E-05  2423   0.401E-03
 261 F= -.23261959E+04 E0= -.23261959E+04  d E =-.125626E-04  mag=     1.0000
       N       E                     dE             d eps       ncg     rms          rms(c)
DAV:   1    -0.230592281481E+04   -0.99650E-05   -0.56474E-04  4304   0.233E-02    0.105E-02
RMM:   2    -0.230592282563E+04   -0.10821E-04   -0.83992E-05  3504   0.629E-03    0.181E-02
RMM:   3    -0.230592282245E+04    0.31786E-05   -0.10149E-05  2363   0.368E-03
 262 F= -.23261959E+04 E0= -.23261959E+04  d E =-.155688E-04  mag=     1.0000
       N       E                     dE             d eps       ncg     rms          rms(c)
DAV:   1    -0.230592283698E+04   -0.11345E-04   -0.10611E-03  4288   0.329E-02    0.127E-02
RMM:   2    -0.230592285200E+04   -0.15024E-04   -0.16619E-04  4120   0.895E-03    0.700E-03
RMM:   3    -0.230592285251E+04   -0.50559E-06   -0.16105E-05  2480   0.424E-03
 263 F= -.23261959E+04 E0= -.23261959E+04  d E =-.966559E-05  mag=     1.0000
       N       E                     dE             d eps       ncg     rms          rms(c)
DAV:   1    -0.230592285644E+04   -0.44434E-05   -0.61032E-05  4648   0.807E-03    0.697E-03
RMM:   2    -0.230592286177E+04   -0.53273E-05   -0.16112E-05  2527   0.284E-03
 264 F= -.23261959E+04 E0= -.23261959E+04  d E =-.141051E-04  mag=     1.0000
       N       E                     dE             d eps       ncg     rms          rms(c)
DAV:   1    -0.230592287763E+04   -0.21189E-04   -0.78452E-04  4240   0.276E-02    0.106E-02
RMM:   2    -0.230592288942E+04   -0.11784E-04   -0.12662E-04  3678   0.772E-03    0.745E-03
RMM:   3    -0.230592289025E+04   -0.82710E-06   -0.10365E-05  2259   0.385E-03
 265 F= -.23261959E+04 E0= -.23261959E+04  d E =-.296572E-05  mag=     1.0000
       N       E                     dE             d eps       ncg     rms          rms(c)
DAV:   1    -0.230592289401E+04   -0.45895E-05   -0.35800E-05  3296   0.597E-03    0.435E-03
RMM:   2    -0.230592289489E+04   -0.87850E-06   -0.67193E-06  2330   0.259E-03
 266 F= -.23261959E+04 E0= -.23261959E+04  d E =-.249556E-05  mag=     1.0000
       N       E                     dE             d eps       ncg     rms          rms(c)
DAV:   1    -0.230592291626E+04   -0.22256E-04   -0.38639E-04  4104   0.197E-02    0.743E-03
RMM:   2    -0.230592292098E+04   -0.47194E-05   -0.51725E-05  2960   0.520E-03
 267 F= -.23261959E+04 E0= -.23261959E+04  d E =-.865334E-05  mag=     1.0000
       N       E                     dE             d eps       ncg     rms          rms(c)
DAV:   1    -0.230592293661E+04   -0.20349E-04   -0.32345E-04  4144   0.182E-02    0.920E-03
RMM:   2    -0.230592294470E+04   -0.80885E-05   -0.50351E-05  3035   0.539E-03
 268 F= -.23261960E+04 E0= -.23261960E+04  d E =-.164229E-04  mag=     1.0000
