       N       E                     dE             d eps       ncg     rms          rms(c)
DAV:   1     0.131581719283E+05    0.13158E+05   -0.84538E+05  4536   0.145E+03
DAV:   2    -0.100646517905E+04   -0.14165E+05   -0.13539E+05  4952   0.332E+02
DAV:   3    -0.247979367865E+04   -0.14733E+04   -0.14547E+04  5560   0.115E+02
DAV:   4    -0.252616820576E+04   -0.46375E+02   -0.46129E+02  6648   0.295E+01
DAV:   5    -0.252706406325E+04   -0.89586E+00   -0.89388E+00  6280   0.355E+00    0.170E+02
RMM:   6    -0.149880200301E+04    0.10283E+04   -0.19580E+03  4474   0.383E+01    0.726E+01
RMM:   7    -0.167284456080E+04   -0.17404E+03   -0.29320E+02  5230   0.144E+01    0.540E+01
RMM:   8    -0.171802775511E+04   -0.45183E+02   -0.74531E+01  5260   0.825E+00    0.466E+01
RMM:   9    -0.177593468355E+04   -0.57907E+02   -0.57092E+01  4987   0.726E+00    0.358E+01
RMM:  10    -0.190729486163E+04   -0.13136E+03   -0.68563E+01  5418   0.821E+00    0.315E+01
RMM:  11    -0.197479630231E+04   -0.67501E+02   -0.31032E+01  5438   0.501E+00    0.242E+01
RMM:  12    -0.203357229558E+04   -0.58776E+02   -0.20572E+01  5157   0.367E+00    0.190E+01
RMM:  13    -0.211116733243E+04   -0.77595E+02   -0.34395E+01  4955   0.451E+00    0.153E+01
RMM:  14    -0.218711493384E+04   -0.75948E+02   -0.42973E+01  4776   0.499E+00    0.108E+01
RMM:  15    -0.227196373503E+04   -0.84849E+02   -0.75307E+01  4585   0.598E+00    0.731E+00
RMM:  16    -0.230351443892E+04   -0.31551E+02   -0.27276E+01  4621   0.419E+00    0.490E+00
RMM:  17    -0.231620360111E+04   -0.12689E+02   -0.13577E+01  4698   0.255E+00    0.237E+00
RMM:  18    -0.231927992270E+04   -0.30763E+01   -0.27660E+00  5037   0.140E+00    0.132E+00
RMM:  19    -0.232039362360E+04   -0.11137E+01   -0.76113E-01  4995   0.599E-01    0.675E-01
RMM:  20    -0.232066898513E+04   -0.27536E+00   -0.15768E-01  4890   0.373E-01    0.409E-01
RMM:  21    -0.232075845334E+04   -0.89468E-01   -0.42754E-02  4813   0.156E-01    0.220E-01
RMM:  22    -0.232078161689E+04   -0.23164E-01   -0.10933E-02  4703   0.102E-01    0.159E-01
RMM:  23    -0.232080443896E+04   -0.22822E-01   -0.79080E-03  4479   0.698E-02    0.926E-02
RMM:  24    -0.232081632506E+04   -0.11886E-01   -0.35249E-03  4560   0.559E-02    0.607E-02
RMM:  25    -0.232082598004E+04   -0.96550E-02   -0.30266E-03  4464   0.420E-02    0.385E-02
RMM:  26    -0.232083092831E+04   -0.49483E-02   -0.17102E-03  4501   0.375E-02    0.232E-02
RMM:  27    -0.232083273236E+04   -0.18040E-02   -0.74425E-04  4346   0.213E-02    0.140E-02
RMM:  28    -0.232083343721E+04   -0.70485E-03   -0.21980E-04  3861   0.131E-02    0.753E-03
RMM:  29    -0.232083370773E+04   -0.27052E-03   -0.79956E-05  3655   0.763E-03    0.482E-03
RMM:  30    -0.232083383032E+04   -0.12259E-03   -0.28077E-05  3193   0.550E-03    0.281E-03
RMM:  31    -0.232083389703E+04   -0.66713E-04   -0.18316E-05  3021   0.402E-03    0.188E-03
RMM:  32    -0.232083391815E+04   -0.21120E-04   -0.74223E-06  2842   0.315E-03    0.105E-03
RMM:  33    -0.232083392215E+04   -0.39999E-05   -0.33782E-06  2426   0.216E-03
   1 F= -.23422242E+04 E0= -.23422208E+04  d E =-.234222E+04  mag=     5.9061
       N       E                     dE             d eps       ncg     rms          rms(c)
DAV:   1    -0.232060314474E+04    0.23077E+00   -0.12191E+02  4880   0.770E+00    0.274E+00
RMM:   2    -0.232131880679E+04   -0.71566E+00   -0.81541E+00  6345   0.166E+00    0.202E+00
RMM:   3    -0.232129297411E+04    0.25833E-01   -0.56742E-01  5929   0.542E-01    0.182E+00
RMM:   4    -0.232125199415E+04    0.40980E-01   -0.92740E-02  6389   0.157E-01    0.975E-01
RMM:   5    -0.232123966357E+04    0.12331E-01   -0.54991E-02  4955   0.113E-01    0.676E-01
RMM:   6    -0.232123819279E+04    0.14708E-02   -0.20244E-02  5457   0.864E-02    0.536E-01
RMM:   7    -0.232123498237E+04    0.32104E-02   -0.51339E-03  5833   0.385E-02    0.151E-01
RMM:   8    -0.232123516088E+04   -0.17851E-03   -0.17388E-03  5062   0.207E-02    0.202E-01
RMM:   9    -0.232123488470E+04    0.27618E-03   -0.67825E-04  4373   0.129E-02    0.544E-02
RMM:  10    -0.232123505023E+04   -0.16552E-03   -0.18847E-04  3660   0.778E-03    0.260E-02
RMM:  11    -0.232123520171E+04   -0.15148E-03   -0.66039E-05  3339   0.630E-03    0.150E-02
RMM:  12    -0.232123533154E+04   -0.12983E-03   -0.41177E-05  3119   0.529E-03    0.904E-03
RMM:  13    -0.232123544194E+04   -0.11040E-03   -0.28098E-05  2993   0.453E-03    0.521E-03
RMM:  14    -0.232123551806E+04   -0.76115E-04   -0.26452E-05  2997   0.429E-03    0.344E-03
RMM:  15    -0.232123553397E+04   -0.15910E-04   -0.94153E-06  2851   0.363E-03    0.189E-03
RMM:  16    -0.232123554059E+04   -0.66225E-05   -0.53055E-06  2645   0.250E-03
   2 F= -.23426290E+04 E0= -.23426288E+04  d E =-.404711E+00  mag=     5.9953
       N       E                     dE             d eps       ncg     rms          rms(c)
DAV:   1    -0.232125239213E+04   -0.16858E-01   -0.12555E+01  4776   0.242E+00    0.869E-01
RMM:   2    -0.232130945547E+04   -0.57063E-01   -0.65683E-01  6416   0.452E-01    0.573E-01
RMM:   3    -0.232130971616E+04   -0.26069E-03   -0.59712E-02  5987   0.158E-01    0.521E-01
RMM:   4    -0.232130659719E+04    0.31190E-02   -0.94324E-03  5741   0.459E-02    0.277E-01
RMM:   5    -0.232130623064E+04    0.36655E-03   -0.39800E-03  4930   0.320E-02    0.253E-01
RMM:   6    -0.232130563562E+04    0.59502E-03   -0.15494E-03  4744   0.237E-02    0.120E-01
RMM:   7    -0.232130549732E+04    0.13830E-03   -0.32378E-04  3803   0.105E-02    0.372E-02
RMM:   8    -0.232130550050E+04   -0.31769E-05   -0.92383E-05  3057   0.714E-03
   3 F= -.23426978E+04 E0= -.23426975E+04  d E =-.473530E+00  mag=     5.9952
       N       E                     dE             d eps       ncg     rms          rms(c)
DAV:   1    -0.232141815930E+04   -0.11266E+00   -0.20198E+01  4592   0.375E+00    0.109E+00
RMM:   2    -0.232160035919E+04   -0.18220E+00   -0.19762E+00  6566   0.761E-01    0.803E-01
RMM:   3    -0.232161188156E+04   -0.11522E-01   -0.18874E-01  6303   0.244E-01    0.718E-01
RMM:   4    -0.232160658973E+04    0.52918E-02   -0.20229E-02  6217   0.628E-02    0.386E-01
RMM:   5    -0.232160539004E+04    0.11997E-02   -0.70162E-03  5651   0.418E-02    0.338E-01
RMM:   6    -0.232160477071E+04    0.61933E-03   -0.40782E-03  5686   0.315E-02    0.232E-01
RMM:   7    -0.232160431191E+04    0.45880E-03   -0.77511E-04  4730   0.154E-02    0.567E-02
RMM:   8    -0.232160428812E+04    0.23795E-04   -0.22596E-04  3397   0.997E-03    0.527E-02
RMM:   9    -0.232160425037E+04    0.37746E-04   -0.12020E-04  3082   0.633E-03    0.251E-02
RMM:  10    -0.232160424522E+04    0.51544E-05   -0.29875E-05  2972   0.456E-03
   4 F= -.23429976E+04 E0= -.23429976E+04  d E =-.299832E+00  mag=     5.9983
       N       E                     dE             d eps       ncg     rms          rms(c)
DAV:   1    -0.232115390795E+04    0.45034E+00   -0.69551E+01  4504   0.699E+00    0.202E+00
RMM:   2    -0.232181884219E+04   -0.66493E+00   -0.70998E+00  6530   0.151E+00    0.167E+00
RMM:   3    -0.232186153500E+04   -0.42693E-01   -0.73635E-01  6417   0.477E-01    0.148E+00
RMM:   4    -0.232183831793E+04    0.23217E-01   -0.77076E-02  6385   0.121E-01    0.737E-01
RMM:   5    -0.232183436416E+04    0.39538E-02   -0.22136E-02  5902   0.730E-02    0.676E-01
RMM:   6    -0.232183201427E+04    0.23499E-02   -0.16830E-02  5715   0.580E-02    0.500E-01
RMM:   7    -0.232183010330E+04    0.19110E-02   -0.42061E-03  5681   0.358E-02    0.141E-01
RMM:   8    -0.232182997479E+04    0.12851E-03   -0.10249E-03  4733   0.177E-02    0.135E-01
RMM:   9    -0.232182972070E+04    0.25410E-03   -0.59476E-04  4465   0.128E-02    0.466E-02
RMM:  10    -0.232182971419E+04    0.65036E-05   -0.19601E-04  3459   0.799E-03    0.191E-02
RMM:  11    -0.232182972401E+04   -0.98153E-05   -0.25675E-05  2926   0.511E-03
   5 F= -.23432254E+04 E0= -.23432254E+04  d E =-.527602E+00  mag=     5.9994
       N       E                     dE             d eps       ncg     rms          rms(c)
DAV:   1    -0.232172148581E+04    0.10823E+00   -0.27812E+01  4544   0.473E+00    0.143E+00
RMM:   2    -0.232199303939E+04   -0.27155E+00   -0.27114E+00  6433   0.109E+00    0.162E+00
RMM:   3    -0.232198177012E+04    0.11269E-01   -0.25862E-01  6362   0.319E-01    0.853E-01
RMM:   4    -0.232197497954E+04    0.67906E-02   -0.31167E-02  5692   0.849E-02    0.573E-01
RMM:   5    -0.232197455265E+04    0.42688E-03   -0.99617E-03  5840   0.532E-02    0.586E-01
RMM:   6    -0.232197107658E+04    0.34761E-02   -0.76180E-03  5233   0.503E-02    0.153E-01
RMM:   7    -0.232197089135E+04    0.18523E-03   -0.91593E-04  4679   0.272E-02    0.485E-02
RMM:   8    -0.232197088874E+04    0.26157E-05   -0.22331E-04  4020   0.957E-03    0.575E-02
RMM:   9    -0.232197086525E+04    0.23483E-04   -0.92810E-05  3176   0.764E-03    0.289E-02
RMM:  10    -0.232197087335E+04   -0.80992E-05   -0.41157E-05  3092   0.483E-03
   6 F= -.23433648E+04 E0= -.23433647E+04  d E =-.139434E+00  mag=     5.9982
       N       E                     dE             d eps       ncg     rms          rms(c)
DAV:   1    -0.232196942338E+04    0.14419E-02   -0.71506E-01  4688   0.758E-01    0.223E-01
RMM:   2    -0.232197587116E+04   -0.64478E-02   -0.65784E-02  6432   0.168E-01    0.222E-01
RMM:   3    -0.232197610740E+04   -0.23624E-03   -0.72480E-03  5821   0.524E-02    0.156E-01
RMM:   4    -0.232197584170E+04    0.26571E-03   -0.80490E-04  4530   0.141E-02    0.805E-02
RMM:   5    -0.232197585578E+04   -0.14086E-04   -0.26312E-04  3481   0.954E-03    0.965E-02
RMM:   6    -0.232197577275E+04    0.83037E-04   -0.18264E-04  3884   0.920E-03    0.302E-02
RMM:   7    -0.232197576946E+04    0.32884E-05   -0.29370E-05  2965   0.561E-03
   7 F= -.23433700E+04 E0= -.23433699E+04  d E =-.144589E+00  mag=     5.9985
       N       E                     dE             d eps       ncg     rms          rms(c)
DAV:   1    -0.232187187910E+04    0.10389E+00   -0.77071E+00  4560   0.249E+00    0.945E-01
RMM:   2    -0.232205492788E+04   -0.18305E+00   -0.19055E+00  6579   0.686E-01    0.886E-01
RMM:   3    -0.232206827817E+04   -0.13350E-01   -0.23635E-01  6240   0.282E-01    0.644E-01
RMM:   4    -0.232206408802E+04    0.41901E-02   -0.19788E-02  6162   0.575E-02    0.339E-01
RMM:   5    -0.232206324826E+04    0.83976E-03   -0.27377E-03  5570   0.239E-02    0.303E-01
RMM:   6    -0.232206207435E+04    0.11739E-02   -0.25492E-03  5801   0.257E-02    0.168E-01
RMM:   7    -0.232206190063E+04    0.17372E-03   -0.13830E-03  5169   0.194E-02    0.987E-02
RMM:   8    -0.232206181777E+04    0.82865E-04   -0.27035E-04  3473   0.106E-02    0.452E-02
RMM:   9    -0.232206178485E+04    0.32918E-04   -0.44832E-05  3080   0.537E-03    0.281E-02
RMM:  10    -0.232206177873E+04    0.61210E-05   -0.34010E-05  2937   0.447E-03
   8 F= -.23434543E+04 E0= -.23434541E+04  d E =-.843629E-01  mag=     5.9960
       N       E                     dE             d eps       ncg     rms          rms(c)
DAV:   1    -0.232200386167E+04    0.57923E-01   -0.30459E+00  4560   0.156E+00    0.595E-01
RMM:   2    -0.232207585212E+04   -0.71990E-01   -0.75227E-01  6579   0.429E-01    0.550E-01
RMM:   3    -0.232208135982E+04   -0.55077E-02   -0.93597E-02  6170   0.177E-01    0.406E-01
RMM:   4    -0.232207966094E+04    0.16989E-02   -0.78107E-03  5840   0.363E-02    0.211E-01
RMM:   5    -0.232207934260E+04    0.31834E-03   -0.11260E-03  4974   0.161E-02    0.192E-01
RMM:   6    -0.232207888134E+04    0.46126E-03   -0.10676E-03  5397   0.170E-02    0.104E-01
RMM:   7    -0.232207881325E+04    0.68085E-04   -0.48449E-04  4707   0.124E-02    0.491E-02
RMM:   8    -0.232207879584E+04    0.17416E-04   -0.83218E-05  2984   0.696E-03    0.276E-02
RMM:   9    -0.232207878445E+04    0.11387E-04   -0.16927E-05  2957   0.375E-03    0.174E-02
RMM:  10    -0.232207878392E+04    0.52589E-06   -0.17348E-05  2910   0.311E-03
   9 F= -.23434704E+04 E0= -.23434698E+04  d E =-.100424E+00  mag=     5.9907
       N       E                     dE             d eps       ncg     rms          rms(c)
DAV:   1    -0.232192489411E+04    0.15389E+00   -0.11342E+01  4528   0.299E+00    0.102E+00
RMM:   2    -0.232212040603E+04   -0.19551E+00   -0.19876E+00  6590   0.739E-01    0.101E+00
RMM:   3    -0.232213219629E+04   -0.11790E-01   -0.24072E-01  6308   0.274E-01    0.718E-01
RMM:   4    -0.232212716195E+04    0.50343E-02   -0.21236E-02  6273   0.610E-02    0.374E-01
RMM:   5    -0.232212650977E+04    0.65219E-03   -0.35558E-03  5674   0.270E-02    0.347E-01
RMM:   6    -0.232212503908E+04    0.14707E-02   -0.32733E-03  5705   0.304E-02    0.147E-01
RMM:   7    -0.232212497125E+04    0.67826E-04   -0.11989E-03  4792   0.200E-02    0.886E-02
RMM:   8    -0.232212490486E+04    0.66386E-04   -0.23527E-04  3376   0.104E-02    0.428E-02
RMM:   9    -0.232212488511E+04    0.19757E-04   -0.46674E-05  3114   0.543E-03    0.245E-02
RMM:  10    -0.232212489451E+04   -0.94036E-05   -0.36453E-05  2986   0.464E-03
  10 F= -.23435164E+04 E0= -.23435153E+04  d E =-.460468E-01  mag=     5.9785
       N       E                     dE             d eps       ncg     rms          rms(c)
DAV:   1    -0.232212455118E+04    0.33393E-03   -0.26801E-02  5304   0.145E-01    0.500E-02
RMM:   2    -0.232212502072E+04   -0.46954E-03   -0.46748E-03  6227   0.372E-02    0.527E-02
RMM:   3    -0.232212504300E+04   -0.22277E-04   -0.54668E-04  2960   0.138E-02    0.344E-02
RMM:   4    -0.232212503323E+04    0.97685E-05   -0.51240E-05  2969   0.437E-03
  11 F= -.23435166E+04 E0= -.23435154E+04  d E =-.461845E-01  mag=     5.9769
       N       E                     dE             d eps       ncg     rms          rms(c)
DAV:   1    -0.232201516325E+04    0.10988E+00   -0.79481E+00  4528   0.255E+00    0.849E-01
RMM:   2    -0.232216345981E+04   -0.14830E+00   -0.14917E+00  6619   0.621E-01    0.920E-01
RMM:   3    -0.232217189173E+04   -0.84319E-02   -0.17564E-01  6308   0.232E-01    0.638E-01
RMM:   4    -0.232216809982E+04    0.37919E-02   -0.15868E-02  6133   0.520E-02    0.331E-01
RMM:   5    -0.232216755362E+04    0.54620E-03   -0.22473E-03  5413   0.210E-02    0.283E-01
RMM:   6    -0.232216658799E+04    0.96563E-03   -0.18496E-03  5378   0.233E-02    0.122E-01
RMM:   7    -0.232216647952E+04    0.10847E-03   -0.93886E-04  5002   0.181E-02    0.393E-02
RMM:   8    -0.232216650154E+04   -0.22024E-04   -0.99124E-05  3280   0.848E-03    0.444E-02
RMM:   9    -0.232216649596E+04    0.55838E-05   -0.38635E-05  2916   0.508E-03
  12 F= -.23435589E+04 E0= -.23435564E+04  d E =-.423032E-01  mag=     5.9521
       N       E                     dE             d eps       ncg     rms          rms(c)
DAV:   1    -0.232201461598E+04    0.15189E+00   -0.86716E+00  4504   0.267E+00    0.893E-01
RMM:   2    -0.232217637346E+04   -0.16176E+00   -0.16234E+00  6625   0.651E-01    0.994E-01
RMM:   3    -0.232218499468E+04   -0.86212E-02   -0.19037E-01  6307   0.242E-01    0.667E-01
RMM:   4    -0.232218097698E+04    0.40177E-02   -0.17338E-02  6175   0.546E-02    0.362E-01
RMM:   5    -0.232218035768E+04    0.61931E-03   -0.25491E-03  5451   0.223E-02    0.320E-01
RMM:   6    -0.232217924729E+04    0.11104E-02   -0.19205E-03  5396   0.238E-02    0.148E-01
RMM:   7    -0.232217907612E+04    0.17117E-03   -0.11669E-03  5092   0.201E-02    0.111E-01
RMM:   8    -0.232217901708E+04    0.59039E-04   -0.20358E-04  3563   0.102E-02    0.926E-02
RMM:   9    -0.232217899485E+04    0.22227E-04   -0.12165E-04  3206   0.722E-03    0.843E-02
RMM:  10    -0.232217900456E+04   -0.97029E-05   -0.29418E-04  4086   0.920E-03    0.734E-02
RMM:  11    -0.232217905839E+04   -0.53831E-04   -0.15091E-04  3306   0.795E-03    0.809E-02
RMM:  12    -0.232217896883E+04    0.89557E-04   -0.33253E-04  3489   0.929E-03    0.498E-02
RMM:  13    -0.232217898652E+04   -0.17686E-04   -0.44913E-04  4124   0.104E-02    0.578E-02
RMM:  14    -0.232217884203E+04    0.14449E-03   -0.86118E-04  4430   0.143E-02    0.114E-01
RMM:  15    -0.232217910283E+04   -0.26080E-03   -0.41376E-04  3914   0.105E-02    0.753E-02
RMM:  16    -0.232217926568E+04   -0.16286E-03   -0.12784E-04  3289   0.700E-03    0.522E-02
RMM:  17    -0.232217951948E+04   -0.25380E-03   -0.48706E-04  4373   0.111E-02    0.499E-02
RMM:  18    -0.232217983360E+04   -0.31412E-03   -0.78348E-04  4350   0.145E-02    0.898E-02
RMM:  19    -0.232217972723E+04    0.10637E-03   -0.58005E-05  2949   0.615E-03    0.503E-02
RMM:  20    -0.232217968991E+04    0.37322E-04   -0.20989E-05  2718   0.312E-03    0.538E-02
RMM:  21    -0.232217964592E+04    0.43986E-04   -0.22878E-04  3693   0.737E-03    0.439E-02
RMM:  22    -0.232217955437E+04    0.91553E-04   -0.66309E-04  4350   0.125E-02    0.583E-02
RMM:  23    -0.232217934603E+04    0.20834E-03   -0.64498E-04  4221   0.130E-02    0.107E-01
RMM:  24    -0.232217909440E+04    0.25163E-03   -0.38288E-04  4000   0.101E-02    0.157E-01
RMM:  25    -0.232217913321E+04   -0.38811E-04   -0.25366E-05  2904   0.449E-03    0.152E-01
RMM:  26    -0.232217911581E+04    0.17404E-04   -0.56975E-06  2630   0.177E-03    0.155E-01
RMM:  27    -0.232217918434E+04   -0.68530E-04   -0.12106E-05  2608   0.229E-03    0.143E-01
RMM:  28    -0.232217946558E+04   -0.28124E-03   -0.40385E-04  4111   0.959E-03    0.879E-02
RMM:  29    -0.232217965193E+04   -0.18635E-03   -0.56049E-04  4190   0.120E-02    0.529E-02
RMM:  30    -0.232217975160E+04   -0.99674E-04   -0.34826E-04  3906   0.932E-03    0.455E-02
RMM:  31    -0.232217984592E+04   -0.94324E-04   -0.24844E-04  3594   0.824E-03    0.529E-02
RMM:  32    -0.232217995170E+04   -0.10578E-03   -0.20070E-04  3602   0.792E-03    0.688E-02
RMM:  33    -0.232218001696E+04   -0.65258E-04   -0.84491E-05  3056   0.587E-03    0.772E-02
RMM:  34    -0.232217995206E+04    0.64895E-04   -0.27567E-05  2786   0.402E-03    0.585E-02
RMM:  35    -0.232217986425E+04    0.87819E-04   -0.10588E-04  3152   0.507E-03    0.460E-02
RMM:  36    -0.232217977969E+04    0.84553E-04   -0.16475E-04  3326   0.618E-03    0.391E-02
RMM:  37    -0.232217969272E+04    0.86969E-04   -0.23111E-04  3449   0.743E-03    0.415E-02
RMM:  38    -0.232217959470E+04    0.98020E-04   -0.23554E-04  3618   0.782E-03    0.551E-02
RMM:  39    -0.232217955748E+04    0.37228E-04   -0.54316E-05  2970   0.488E-03    0.637E-02
RMM:  40    -0.232217953865E+04    0.18823E-04   -0.15580E-05  2777   0.272E-03    0.668E-02
RMM:  41    -0.232217954029E+04   -0.16411E-05   -0.17311E-06  2492   0.205E-03
  13 F= -.23435729E+04 E0= -.23435675E+04  d E =-.563390E-01  mag=     5.8660
       N       E                     dE             d eps       ncg     rms          rms(c)
DAV:   1    -0.232212395778E+04    0.55581E-01   -0.50519E+00  4516   0.200E+00    0.675E-01
RMM:   2    -0.232220615545E+04   -0.82198E-01   -0.84247E-01  6599   0.449E-01    0.618E-01
RMM:   3    -0.232221388106E+04   -0.77256E-02   -0.95825E-02  6252   0.170E-01    0.552E-01
RMM:   4    -0.232221163421E+04    0.22468E-02   -0.95261E-03  5991   0.401E-02    0.382E-01
RMM:   5    -0.232221147065E+04    0.16356E-03   -0.98933E-04  4326   0.147E-02    0.435E-01
RMM:   6    -0.232221186979E+04   -0.39914E-03   -0.66982E-04  4047   0.127E-02    0.433E-01
RMM:   7    -0.232221076839E+04    0.11014E-02   -0.13547E-03  4381   0.173E-02    0.276E-01
RMM:   8    -0.232220972218E+04    0.10462E-02   -0.36959E-03  5518   0.293E-02    0.339E-01
RMM:   9    -0.232220781702E+04    0.19052E-02   -0.17751E-03  4825   0.223E-02    0.343E-01
RMM:  10    -0.232220656244E+04    0.12546E-02   -0.69967E-04  4416   0.136E-02    0.413E-01
RMM:  11    -0.232221063951E+04   -0.40771E-02   -0.68923E-03  4796   0.396E-02    0.291E-01
RMM:  12    -0.232221104768E+04   -0.40817E-03   -0.23697E-03  4553   0.286E-02    0.293E-01
RMM:  13    -0.232221213731E+04   -0.10896E-02   -0.24213E-03  5219   0.225E-02    0.445E-01
RMM:  14    -0.232221087547E+04    0.12618E-02   -0.28808E-03  4718   0.258E-02    0.163E-01
RMM:  15    -0.232220967937E+04    0.11961E-02   -0.20497E-03  4728   0.231E-02    0.211E-01
RMM:  16    -0.232220873190E+04    0.94748E-03   -0.13534E-03  4673   0.181E-02    0.273E-01
RMM:  17    -0.232220796351E+04    0.76839E-03   -0.53698E-04  4120   0.121E-02    0.329E-01
RMM:  18    -0.232220872066E+04   -0.75715E-03   -0.23944E-04  3455   0.842E-03    0.281E-01
RMM:  19    -0.232220974563E+04   -0.10250E-02   -0.10100E-03  4475   0.153E-02    0.228E-01
RMM:  20    -0.232221090781E+04   -0.11622E-02   -0.17939E-03  4728   0.211E-02    0.249E-01
RMM:  21    -0.232221171683E+04   -0.80902E-03   -0.97602E-04  4488   0.158E-02    0.301E-01
RMM:  22    -0.232221222636E+04   -0.50953E-03   -0.36528E-04  3811   0.962E-03    0.337E-01
RMM:  23    -0.232221175264E+04    0.47372E-03   -0.94887E-05  3058   0.625E-03    0.273E-01
RMM:  24    -0.232221007969E+04    0.16730E-02   -0.32757E-03  4854   0.269E-02    0.183E-01
RMM:  25    -0.232220879601E+04    0.12837E-02   -0.18824E-03  4526   0.234E-02    0.262E-01
RMM:  26    -0.232220696009E+04    0.18359E-02   -0.24184E-03  5190   0.232E-02    0.415E-01
RMM:  27    -0.232220413556E+04    0.28245E-02   -0.20368E-03  4751   0.233E-02    0.629E-01
RMM:  28    -0.232220414215E+04   -0.65882E-05   -0.18634E-04  3186   0.833E-03    0.630E-01
RMM:  29    -0.232220440889E+04   -0.26674E-03   -0.18185E-05  2873   0.333E-03    0.610E-01
RMM:  30    -0.232220464328E+04   -0.23439E-03   -0.11121E-05  2688   0.232E-03    0.592E-01
RMM:  31    -0.232220484444E+04   -0.20116E-03   -0.10566E-05  2593   0.206E-03    0.576E-01
RMM:  32    -0.232220458856E+04    0.25588E-03   -0.52602E-06  2407   0.157E-03    0.588E-01
RMM:  33    -0.232220453376E+04    0.54802E-04   -0.20544E-06  2494   0.128E-03    0.587E-01
RMM:  34    -0.232220454404E+04   -0.10276E-04   -0.37699E-07  2161   0.105E-03    0.588E-01
RMM:  35    -0.232220439613E+04    0.14791E-03   -0.23570E-06  1866   0.945E-04    0.596E-01
RMM:  36    -0.232220439369E+04    0.24339E-05   -0.16600E-07  1357   0.690E-04
  14 F= -.23435991E+04 E0= -.23435976E+04  d E =-.261505E-01  mag=     6.2240
       N       E                     dE             d eps       ncg     rms          rms(c)
DAV:   1    -0.232205028368E+04    0.15411E+00   -0.99678E+00  4504   0.280E+00    0.113E+00
RMM:   2    -0.232221448845E+04   -0.16420E+00   -0.16730E+00  6597   0.629E-01    0.913E-01
RMM:   3    -0.232223273301E+04   -0.18245E-01   -0.19296E-01  6178   0.243E-01    0.964E-01
RMM:   4    -0.232222575029E+04    0.69827E-02   -0.20512E-02  6242   0.622E-02    0.688E-01
RMM:   5    -0.232222451480E+04    0.12355E-02   -0.33637E-03  5087   0.270E-02    0.795E-01
RMM:   6    -0.232222828262E+04   -0.37678E-02   -0.59168E-03  4976   0.362E-02    0.801E-01
RMM:   7    -0.232222267894E+04    0.56037E-02   -0.10984E-02  5016   0.494E-02    0.708E-01
RMM:   8    -0.232222198307E+04    0.69587E-03   -0.80166E-04  4114   0.214E-02    0.749E-01
RMM:   9    -0.232222728428E+04   -0.53012E-02   -0.21155E-02  4721   0.708E-02    0.850E-01
RMM:  10    -0.232222586817E+04    0.14161E-02   -0.17885E-02  5255   0.726E-02    0.121E+00
RMM:  11    -0.232223023147E+04   -0.43633E-02   -0.10389E-02  5487   0.525E-02    0.158E+00
RMM:  12    -0.232222521782E+04    0.50137E-02   -0.61579E-03  4833   0.390E-02    0.841E-01
RMM:  13    -0.232222515383E+04    0.63981E-04   -0.78119E-03  4809   0.431E-02    0.537E-01
RMM:  14    -0.232222414743E+04    0.10064E-02   -0.15040E-02  5006   0.604E-02    0.428E-01
RMM:  15    -0.232221770339E+04    0.64440E-02   -0.11655E-02  5190   0.574E-02    0.809E-01
RMM:  16    -0.232221476195E+04    0.29414E-02   -0.23838E-03  5131   0.251E-02    0.950E-01
RMM:  17    -0.232221674999E+04   -0.19880E-02   -0.19639E-04  3526   0.852E-03    0.863E-01
RMM:  18    -0.232222143244E+04   -0.46825E-02   -0.18904E-03  4510   0.217E-02    0.636E-01
RMM:  19    -0.232222549493E+04   -0.40625E-02   -0.38027E-03  4806   0.316E-02    0.466E-01
RMM:  20    -0.232222746969E+04   -0.19748E-02   -0.21306E-03  4869   0.240E-02    0.443E-01
RMM:  21    -0.232222916967E+04   -0.17000E-02   -0.12678E-03  4720   0.175E-02    0.487E-01
RMM:  22    -0.232222871331E+04    0.45636E-03   -0.89529E-05  3022   0.789E-03    0.446E-01
RMM:  23    -0.232222759120E+04    0.11221E-02   -0.49306E-04  4154   0.108E-02    0.429E-01
RMM:  24    -0.232222599154E+04    0.15997E-02   -0.10064E-03  4563   0.159E-02    0.447E-01
RMM:  25    -0.232222131508E+04    0.46765E-02   -0.51425E-03  5161   0.343E-02    0.665E-01
RMM:  26    -0.232222753964E+04   -0.62246E-02   -0.68616E-03  5103   0.382E-02    0.482E-01
RMM:  27    -0.232223131067E+04   -0.37710E-02   -0.49818E-03  5040   0.347E-02    0.602E-01
RMM:  28    -0.232224518697E+04   -0.13876E-01   -0.15741E-02  5343   0.584E-02    0.134E+00
RMM:  29    -0.232224324056E+04    0.19464E-02   -0.11613E-03  3983   0.263E-02    0.109E+00
RMM:  30    -0.232224295386E+04    0.28669E-03   -0.23160E-04  3233   0.608E-03    0.113E+00
RMM:  31    -0.232224514455E+04   -0.21907E-02   -0.19831E-04  3592   0.755E-03    0.123E+00
RMM:  32    -0.232224599086E+04   -0.84631E-03   -0.69778E-05  3009   0.535E-03    0.124E+00
RMM:  33    -0.232224542642E+04    0.56444E-03   -0.10383E-05  2747   0.329E-03    0.121E+00
RMM:  34    -0.232224556299E+04   -0.13657E-03   -0.22784E-06  2392   0.145E-03    0.123E+00
RMM:  35    -0.232224535860E+04    0.20438E-03   -0.22308E-06  2398   0.156E-03    0.121E+00
RMM:  36    -0.232224598121E+04   -0.62261E-03   -0.35297E-05  2890   0.292E-03    0.123E+00
RMM:  37    -0.232224656270E+04   -0.58149E-03   -0.31675E-05  2896   0.289E-03    0.124E+00
RMM:  38    -0.232224740466E+04   -0.84196E-03   -0.40081E-05  2946   0.369E-03    0.127E+00
RMM:  39    -0.232224824065E+04   -0.83598E-03   -0.39968E-05  2955   0.372E-03    0.129E+00
RMM:  40    -0.232224856846E+04   -0.32782E-03   -0.27769E-05  2893   0.358E-03    0.130E+00
RMM:  41    -0.232225058318E+04   -0.20147E-02   -0.19136E-04  3589   0.662E-03    0.137E+00
RMM:  42    -0.232225451766E+04   -0.39345E-02   -0.60071E-04  4021   0.120E-02    0.147E+00
RMM:  43    -0.232225374097E+04    0.77669E-03   -0.15849E-04  3291   0.797E-03    0.145E+00
RMM:  44    -0.232225618537E+04   -0.24444E-02   -0.34708E-04  3790   0.909E-03    0.153E+00
RMM:  45    -0.232225859397E+04   -0.24086E-02   -0.19709E-04  3253   0.822E-03    0.158E+00
RMM:  46    -0.232225399696E+04    0.45970E-02   -0.46250E-04  3695   0.105E-02    0.145E+00
RMM:  47    -0.232225422862E+04   -0.23166E-03   -0.32724E-05  2881   0.477E-03    0.149E+00
RMM:  48    -0.232224577309E+04    0.84555E-02   -0.21677E-03  4709   0.213E-02    0.115E+00
RMM:  49    -0.232224017078E+04    0.56023E-02   -0.17446E-03  4518   0.218E-02    0.930E-01
RMM:  50    -0.232223490022E+04    0.52706E-02   -0.28364E-03  4969   0.251E-02    0.609E-01
RMM:  51    -0.232223065849E+04    0.42417E-02   -0.35917E-03  5000   0.302E-02    0.410E-01
RMM:  52    -0.232222886568E+04    0.17928E-02   -0.17234E-03  4834   0.212E-02    0.405E-01
RMM:  53    -0.232222779968E+04    0.10660E-02   -0.73644E-04  4425   0.132E-02    0.396E-01
RMM:  54    -0.232222734660E+04    0.45309E-03   -0.16435E-04  3363   0.762E-03    0.403E-01
RMM:  55    -0.232222684754E+04    0.49905E-03   -0.11635E-04  3362   0.638E-03    0.406E-01
RMM:  56    -0.232222587498E+04    0.97256E-03   -0.32828E-04  3989   0.961E-03    0.423E-01
RMM:  57    -0.232222382672E+04    0.20483E-02   -0.11748E-03  4687   0.169E-02    0.499E-01
RMM:  58    -0.232222147037E+04    0.23563E-02   -0.11809E-03  4664   0.176E-02    0.620E-01
RMM:  59    -0.232222039242E+04    0.10780E-02   -0.34321E-04  3738   0.999E-03    0.675E-01
RMM:  60    -0.232222042372E+04   -0.31302E-04   -0.33069E-05  2955   0.417E-03    0.678E-01
RMM:  61    -0.232222110925E+04   -0.68553E-03   -0.41927E-05  2858   0.394E-03    0.644E-01
RMM:  62    -0.232222225210E+04   -0.11429E-02   -0.17412E-04  3403   0.662E-03    0.589E-01
RMM:  63    -0.232222353804E+04   -0.12859E-02   -0.27232E-04  3670   0.830E-03    0.533E-01
RMM:  64    -0.232222636703E+04   -0.28290E-02   -0.18405E-03  4854   0.209E-02    0.449E-01
RMM:  65    -0.232222869185E+04   -0.23248E-02   -0.19063E-03  4772   0.222E-02    0.462E-01
RMM:  66    -0.232223027712E+04   -0.15853E-02   -0.10972E-03  4615   0.166E-02    0.514E-01
RMM:  67    -0.232223185865E+04   -0.15815E-02   -0.78996E-04  4411   0.141E-02    0.591E-01
RMM:  68    -0.232223182755E+04    0.31097E-04   -0.72435E-05  2972   0.630E-03    0.565E-01
RMM:  69    -0.232223241558E+04   -0.58803E-03   -0.73301E-05  3048   0.471E-03    0.615E-01
RMM:  70    -0.232223233331E+04    0.82263E-04   -0.58053E-06  2772   0.318E-03    0.599E-01
RMM:  71    -0.232223244688E+04   -0.11357E-03   -0.39768E-06  2513   0.147E-03    0.613E-01
RMM:  72    -0.232223377664E+04   -0.13298E-02   -0.21763E-04  3577   0.688E-03    0.709E-01
RMM:  73    -0.232223350511E+04    0.27154E-03   -0.16016E-05  2735   0.401E-03    0.666E-01
RMM:  74    -0.232223281915E+04    0.68596E-03   -0.68421E-05  2981   0.397E-03    0.628E-01
RMM:  75    -0.232223129354E+04    0.15256E-02   -0.43483E-04  4069   0.955E-03    0.536E-01
RMM:  76    -0.232222974418E+04    0.15494E-02   -0.61528E-04  4154   0.122E-02    0.471E-01
RMM:  77    -0.232223055907E+04   -0.81489E-03   -0.10191E-04  3055   0.620E-03    0.537E-01
RMM:  78    -0.232223044083E+04    0.11825E-03   -0.52389E-06  2585   0.268E-03    0.513E-01
RMM:  79    -0.232223018668E+04    0.25414E-03   -0.12039E-05  2388   0.173E-03    0.501E-01
RMM:  80    -0.232222997757E+04    0.20912E-03   -0.18734E-05  2735   0.213E-03    0.494E-01
RMM:  81    -0.232222975024E+04    0.22732E-03   -0.19907E-05  2756   0.231E-03    0.486E-01
RMM:  82    -0.232222996582E+04   -0.21558E-03   -0.80815E-06  2458   0.203E-03    0.500E-01
RMM:  83    -0.232222980356E+04    0.16226E-03   -0.39880E-06  2082   0.125E-03    0.487E-01
RMM:  84    -0.232222941857E+04    0.38499E-03   -0.38048E-05  2915   0.300E-03    0.471E-01
RMM:  85    -0.232222890961E+04    0.50897E-03   -0.76065E-05  3053   0.405E-03    0.453E-01
RMM:  86    -0.232222832342E+04    0.58619E-03   -0.11605E-04  3127   0.508E-03    0.440E-01
RMM:  87    -0.232222831484E+04    0.85775E-05   -0.12639E-05  2717   0.301E-03
  15 F= -.23436249E+04 E0= -.23436166E+04  d E =-.519852E-01  mag=     5.9009
       N       E                     dE             d eps       ncg     rms          rms(c)
DAV:   1    -0.232217193962E+04    0.56384E-01   -0.51079E+00  4504   0.197E+00    0.724E-01
RMM:   2    -0.232225846567E+04   -0.86526E-01   -0.90109E-01  6546   0.436E-01    0.604E-01
RMM:   3    -0.232226820547E+04   -0.97398E-02   -0.10650E-01  5785   0.182E-01    0.788E-01
RMM:   4    -0.232227009285E+04   -0.18874E-02   -0.10291E-02  5003   0.344E-02    0.822E-01
RMM:   5    -0.232226706363E+04    0.30292E-02   -0.41454E-03  5096   0.299E-02    0.469E-01
RMM:   6    -0.232226464267E+04    0.24210E-02   -0.33974E-03  5101   0.287E-02    0.495E-01
RMM:   7    -0.232226282877E+04    0.18139E-02   -0.22254E-03  5388   0.234E-02    0.515E-01
RMM:   8    -0.232225518850E+04    0.76403E-02   -0.62230E-03  4943   0.392E-02    0.731E-01
RMM:   9    -0.232226125309E+04   -0.60646E-02   -0.24262E-03  4667   0.273E-02    0.539E-01
RMM:  10    -0.232226460723E+04   -0.33541E-02   -0.54946E-03  5034   0.356E-02    0.344E-01
RMM:  11    -0.232226643488E+04   -0.18276E-02   -0.38419E-03  5116   0.314E-02    0.384E-01
RMM:  12    -0.232226883076E+04   -0.23959E-02   -0.33531E-03  4916   0.287E-02    0.612E-01
RMM:  13    -0.232226685323E+04    0.19775E-02   -0.15747E-03  4641   0.215E-02    0.322E-01
RMM:  14    -0.232226490702E+04    0.19462E-02   -0.25301E-03  4810   0.245E-02    0.307E-01
RMM:  15    -0.232226317809E+04    0.17289E-02   -0.19020E-03  4678   0.226E-02    0.358E-01
RMM:  16    -0.232226189882E+04    0.12793E-02   -0.10027E-03  4576   0.157E-02    0.423E-01
RMM:  17    -0.232226098301E+04    0.91582E-03   -0.38102E-04  3879   0.104E-02    0.474E-01
RMM:  18    -0.232226290566E+04   -0.19227E-02   -0.81330E-04  4123   0.138E-02    0.389E-01
RMM:  19    -0.232226437887E+04   -0.14732E-02   -0.11340E-03  4499   0.171E-02    0.347E-01
RMM:  20    -0.232226687094E+04   -0.24921E-02   -0.29205E-03  5023   0.263E-02    0.434E-01
RMM:  21    -0.232226901351E+04   -0.21426E-02   -0.18627E-03  4768   0.224E-02    0.571E-01
RMM:  22    -0.232226901991E+04   -0.64062E-05   -0.22160E-04  3191   0.856E-03    0.532E-01
RMM:  23    -0.232226676957E+04    0.22503E-02   -0.13108E-03  4404   0.172E-02    0.354E-01
RMM:  24    -0.232226557219E+04    0.11974E-02   -0.82730E-04  4130   0.155E-02    0.344E-01
RMM:  25    -0.232226479242E+04    0.77977E-03   -0.61888E-04  4429   0.117E-02    0.342E-01
RMM:  26    -0.232226384754E+04    0.94487E-03   -0.55297E-04  4247   0.124E-02    0.355E-01
RMM:  27    -0.232226274104E+04    0.11065E-02   -0.70158E-04  4456   0.139E-02    0.402E-01
RMM:  28    -0.232226201200E+04    0.72904E-03   -0.31706E-04  3843   0.994E-03    0.446E-01
RMM:  29    -0.232226245096E+04   -0.43896E-03   -0.47831E-05  2951   0.498E-03    0.425E-01
RMM:  30    -0.232226241832E+04    0.32642E-04   -0.31175E-06  2583   0.189E-03    0.425E-01
RMM:  31    -0.232226242141E+04   -0.30933E-05   -0.69959E-07  2323   0.117E-03
  16 F= -.23436596E+04 E0= -.23436554E+04  d E =-.347342E-01  mag=     6.0438
       N       E                     dE             d eps       ncg     rms          rms(c)
DAV:   1    -0.232201942550E+04    0.24299E+00   -0.14467E+01  4504   0.331E+00    0.113E+00
RMM:   2    -0.232226111991E+04   -0.24169E+00   -0.25660E+00  6533   0.739E-01    0.649E-01
RMM:   3    -0.232228672215E+04   -0.25602E-01   -0.31416E-01  5921   0.307E-01    0.586E-01
RMM:   4    -0.232228693544E+04   -0.21330E-03   -0.28484E-02  6349   0.612E-02    0.423E-01
RMM:   5    -0.232228544042E+04    0.14950E-02   -0.42223E-03  5748   0.312E-02    0.369E-01
RMM:   6    -0.232228442086E+04    0.10196E-02   -0.36195E-03  5399   0.318E-02    0.271E-01
RMM:   7    -0.232228416645E+04    0.25441E-03   -0.11063E-03  5152   0.200E-02    0.285E-01
RMM:   8    -0.232228411976E+04    0.46698E-04   -0.14529E-04  3194   0.614E-03    0.280E-01
RMM:   9    -0.232228412937E+04   -0.96138E-05   -0.15259E-05  2949   0.399E-03
  17 F= -.23436825E+04 E0= -.23436727E+04  d E =-.575614E-01  mag=     5.9543
       N       E                     dE             d eps       ncg     rms          rms(c)
DAV:   1    -0.232224918787E+04    0.34932E-01   -0.29196E+00  4544   0.148E+00    0.537E-01
RMM:   2    -0.232230188109E+04   -0.52693E-01   -0.54280E-01  6545   0.333E-01    0.522E-01
RMM:   3    -0.232230734695E+04   -0.54659E-02   -0.66669E-02  6266   0.137E-01    0.502E-01
RMM:   4    -0.232230511568E+04    0.22313E-02   -0.62338E-03  5530   0.307E-02    0.190E-01
RMM:   5    -0.232230520965E+04   -0.93964E-04   -0.97090E-04  4668   0.147E-02    0.240E-01
RMM:   6    -0.232230491461E+04    0.29504E-03   -0.46092E-04  3942   0.118E-02    0.155E-01
RMM:   7    -0.232230509370E+04   -0.17910E-03   -0.27659E-04  3807   0.968E-03    0.210E-01
RMM:   8    -0.232230509214E+04    0.15653E-05   -0.34778E-04  3743   0.102E-02    0.124E-01
RMM:   9    -0.232230536430E+04   -0.27216E-03   -0.45926E-04  4147   0.107E-02    0.111E-01
RMM:  10    -0.232230561407E+04   -0.24977E-03   -0.28348E-04  3582   0.907E-03    0.825E-02
RMM:  11    -0.232230592670E+04   -0.31262E-03   -0.41815E-04  4009   0.105E-02    0.822E-02
RMM:  12    -0.232230600804E+04   -0.81343E-04   -0.30151E-04  3790   0.102E-02    0.996E-02
RMM:  13    -0.232230601502E+04   -0.69790E-05   -0.92889E-05  3128   0.613E-03
  18 F= -.23437045E+04 E0= -.23436989E+04  d E =-.220849E-01  mag=     5.8768
       N       E                     dE             d eps       ncg     rms          rms(c)
DAV:   1    -0.232184395842E+04    0.46205E+00   -0.25004E+01  4504   0.432E+00    0.147E+00
RMM:   2    -0.232228439714E+04   -0.44044E+00   -0.46782E+00  6550   0.982E-01    0.816E-01
RMM:   3    -0.232233050662E+04   -0.46109E-01   -0.56315E-01  6160   0.398E-01    0.554E-01
RMM:   4    -0.232233150996E+04   -0.10033E-02   -0.47958E-02  6233   0.752E-02    0.449E-01
RMM:   5    -0.232233079292E+04    0.71704E-03   -0.54316E-03  5994   0.345E-02    0.411E-01
RMM:   6    -0.232232938960E+04    0.14033E-02   -0.44017E-03  5570   0.345E-02    0.236E-01
RMM:   7    -0.232232923361E+04    0.15599E-03   -0.19008E-03  5279   0.226E-02    0.190E-01
RMM:   8    -0.232232883901E+04    0.39460E-03   -0.50847E-04  4207   0.122E-02    0.540E-02
RMM:   9    -0.232232886675E+04   -0.27736E-04   -0.16414E-04  3247   0.787E-03    0.652E-02
RMM:  10    -0.232232883135E+04    0.35397E-04   -0.62744E-05  2931   0.577E-03    0.177E-02
RMM:  11    -0.232232885204E+04   -0.20688E-04   -0.30530E-05  2993   0.380E-03    0.939E-03
RMM:  12    -0.232232886127E+04   -0.92345E-05   -0.59343E-06  2905   0.324E-03
  19 F= -.23437281E+04 E0= -.23437251E+04  d E =-.456092E-01  mag=     5.9119
       N       E                     dE             d eps       ncg     rms          rms(c)
DAV:   1    -0.232229790718E+04    0.30945E-01   -0.31290E+00  4528   0.152E+00    0.507E-01
RMM:   2    -0.232234650574E+04   -0.48599E-01   -0.51471E-01  6555   0.342E-01    0.325E-01
RMM:   3    -0.232235122924E+04   -0.47235E-02   -0.62524E-02  6123   0.136E-01    0.254E-01
RMM:   4    -0.232235091320E+04    0.31603E-03   -0.54177E-03  5471   0.284E-02    0.171E-01
RMM:   5    -0.232235061951E+04    0.29369E-03   -0.80419E-04  4805   0.159E-02    0.110E-01
RMM:   6    -0.232235068287E+04   -0.63365E-04   -0.70240E-04  5158   0.144E-02    0.131E-01
RMM:   7    -0.232235048796E+04    0.19491E-03   -0.27324E-04  3669   0.102E-02    0.387E-02
RMM:   8    -0.232235048097E+04    0.69900E-05   -0.58632E-05  2949   0.551E-03
  20 F= -.23437505E+04 E0= -.23437478E+04  d E =-.224392E-01  mag=     5.9241
       N       E                     dE             d eps       ncg     rms          rms(c)
DAV:   1    -0.232209795292E+04    0.25254E+00   -0.15720E+01  4504   0.341E+00    0.115E+00
RMM:   2    -0.232234475534E+04   -0.24680E+00   -0.26178E+00  6527   0.771E-01    0.777E-01
RMM:   3    -0.232236959917E+04   -0.24844E-01   -0.33378E-01  6239   0.314E-01    0.633E-01
RMM:   4    -0.232236712070E+04    0.24785E-02   -0.27464E-02  6447   0.651E-02    0.390E-01
RMM:   5    -0.232236562869E+04    0.14920E-02   -0.39809E-03  5700   0.328E-02    0.251E-01
RMM:   6    -0.232236522637E+04    0.40232E-03   -0.38530E-03  5512   0.317E-02    0.179E-01
RMM:   7    -0.232236502675E+04    0.19962E-03   -0.96629E-04  4777   0.214E-02    0.118E-01
RMM:   8    -0.232236487093E+04    0.15582E-03   -0.24120E-04  3452   0.878E-03    0.679E-02
RMM:   9    -0.232236482641E+04    0.44523E-04   -0.99379E-05  2944   0.635E-03    0.376E-02
RMM:  10    -0.232236480386E+04    0.22554E-04   -0.53363E-05  2975   0.456E-03    0.118E-02
RMM:  11    -0.232236480195E+04    0.19094E-05   -0.13721E-05  2946   0.358E-03
  21 F= -.23437667E+04 E0= -.23437641E+04  d E =-.386103E-01  mag=     5.9338
       N       E                     dE             d eps       ncg     rms          rms(c)
DAV:   1    -0.232233195920E+04    0.32845E-01   -0.43066E+00  4516   0.175E+00    0.538E-01
RMM:   2    -0.232237974536E+04   -0.47786E-01   -0.50615E-01  6545   0.362E-01    0.354E-01
RMM:   3    -0.232238387713E+04   -0.41318E-02   -0.58508E-02  5998   0.136E-01    0.305E-01
RMM:   4    -0.232238330850E+04    0.56863E-03   -0.55270E-03  5460   0.302E-02    0.205E-01
RMM:   5    -0.232238307160E+04    0.23690E-03   -0.10912E-03  4994   0.168E-02    0.168E-01
RMM:   6    -0.232238294901E+04    0.12259E-03   -0.90852E-04  4916   0.150E-02    0.134E-01
RMM:   7    -0.232238278241E+04    0.16660E-03   -0.34922E-04  4549   0.108E-02    0.403E-02
RMM:   8    -0.232238277749E+04    0.49147E-05   -0.67327E-05  2968   0.626E-03
  22 F= -.23437857E+04 E0= -.23437831E+04  d E =-.189980E-01  mag=     5.9361
       N       E                     dE             d eps       ncg     rms          rms(c)
DAV:   1    -0.232230578337E+04    0.76999E-01   -0.71262E+00  4504   0.225E+00    0.698E-01
RMM:   2    -0.232238535960E+04   -0.79576E-01   -0.84346E-01  6552   0.466E-01    0.466E-01
RMM:   3    -0.232239218318E+04   -0.68236E-02   -0.96801E-02  6044   0.173E-01    0.412E-01
RMM:   4    -0.232239103396E+04    0.11492E-02   -0.91109E-03  5862   0.391E-02    0.266E-01
RMM:   5    -0.232239066408E+04    0.36988E-03   -0.17681E-03  5289   0.207E-02    0.221E-01
RMM:   6    -0.232239045545E+04    0.20863E-03   -0.15241E-03  5388   0.188E-02    0.177E-01
RMM:   7    -0.232239015936E+04    0.29609E-03   -0.62123E-04  5112   0.138E-02    0.518E-02
RMM:   8    -0.232239015419E+04    0.51691E-05   -0.11737E-04  3027   0.749E-03    0.461E-02
RMM:   9    -0.232239012485E+04    0.29344E-04   -0.41682E-05  2932   0.462E-03    0.160E-02
RMM:  10    -0.232239012097E+04    0.38741E-05   -0.22937E-05  2984   0.318E-03
  23 F= -.23437943E+04 E0= -.23437917E+04  d E =-.276080E-01  mag=     5.9357
       N       E                     dE             d eps       ncg     rms          rms(c)
DAV:   1    -0.232238982510E+04    0.29975E-03   -0.11879E+00  4544   0.102E+00    0.320E-01
RMM:   2    -0.232240562690E+04   -0.15802E-01   -0.16486E-01  6476   0.226E-01    0.255E-01
RMM:   3    -0.232240682362E+04   -0.11967E-02   -0.18585E-02  6116   0.860E-02    0.237E-01
RMM:   4    -0.232240627358E+04    0.55004E-03   -0.16950E-03  5519   0.206E-02    0.124E-01
RMM:   5    -0.232240620481E+04    0.68769E-04   -0.56140E-04  4651   0.137E-02    0.112E-01
RMM:   6    -0.232240608208E+04    0.12273E-03   -0.39766E-04  4586   0.125E-02    0.540E-02
RMM:   7    -0.232240605749E+04    0.24592E-04   -0.65507E-05  3248   0.721E-03    0.162E-02
RMM:   8    -0.232240605455E+04    0.29401E-05   -0.14414E-05  2939   0.452E-03
  24 F= -.23438101E+04 E0= -.23438077E+04  d E =-.158442E-01  mag=     5.9391
       N       E                     dE             d eps       ncg     rms          rms(c)
DAV:   1    -0.232238017122E+04    0.25886E-01   -0.26322E+00  4516   0.151E+00    0.478E-01
RMM:   2    -0.232241545973E+04   -0.35289E-01   -0.36788E-01  6434   0.338E-01    0.390E-01
RMM:   3    -0.232241791618E+04   -0.24564E-02   -0.41662E-02  6193   0.129E-01    0.347E-01
RMM:   4    -0.232241673179E+04    0.11844E-02   -0.37702E-03  6041   0.305E-02    0.182E-01
RMM:   5    -0.232241657679E+04    0.15500E-03   -0.12345E-03  5248   0.195E-02    0.164E-01
RMM:   6    -0.232241630393E+04    0.27286E-03   -0.85041E-04  5293   0.172E-02    0.802E-02
RMM:   7    -0.232241624451E+04    0.59421E-04   -0.14629E-04  4132   0.928E-03    0.239E-02
RMM:   8    -0.232241623566E+04    0.88427E-05   -0.25024E-05  2969   0.547E-03
  25 F= -.23438202E+04 E0= -.23438180E+04  d E =-.258907E-01  mag=     5.9457
       N       E                     dE             d eps       ncg     rms          rms(c)
DAV:   1    -0.232241692452E+04   -0.68002E-03   -0.83932E-01  4592   0.898E-01    0.293E-01
RMM:   2    -0.232242916878E+04   -0.12244E-01   -0.12834E-01  6453   0.200E-01    0.233E-01
RMM:   3    -0.232243012025E+04   -0.95147E-03   -0.14884E-02  6117   0.803E-02    0.215E-01
RMM:   4    -0.232242964556E+04    0.47469E-03   -0.14220E-03  5178   0.185E-02    0.107E-01
RMM:   5    -0.232242960375E+04    0.41808E-04   -0.42241E-04  4320   0.117E-02    0.968E-02
RMM:   6    -0.232242950856E+04    0.95196E-04   -0.31331E-04  4329   0.108E-02    0.463E-02
RMM:   7    -0.232242949023E+04    0.18324E-04   -0.50001E-05  3031   0.653E-03    0.147E-02
RMM:   8    -0.232242948885E+04    0.13856E-05   -0.12821E-05  2921   0.425E-03
  26 F= -.23438328E+04 E0= -.23438309E+04  d E =-.125988E-01  mag=     5.9514
       N       E                     dE             d eps       ncg     rms          rms(c)
DAV:   1    -0.232240600345E+04    0.23487E-01   -0.21533E+00  4528   0.144E+00    0.471E-01
RMM:   2    -0.232243738740E+04   -0.31384E-01   -0.32944E-01  6389   0.321E-01    0.372E-01
RMM:   3    -0.232243965879E+04   -0.22714E-02   -0.38220E-02  6190   0.130E-01    0.325E-01
RMM:   4    -0.232243861676E+04    0.10420E-02   -0.35999E-03  5904   0.291E-02    0.174E-01
RMM:   5    -0.232243850816E+04    0.10860E-03   -0.10743E-03  5094   0.180E-02    0.154E-01
RMM:   6    -0.232243825438E+04    0.25378E-03   -0.77425E-04  5175   0.161E-02    0.729E-02
RMM:   7    -0.232243819942E+04    0.54961E-04   -0.12116E-04  3712   0.877E-03    0.244E-02
RMM:   8    -0.232243819588E+04    0.35438E-05   -0.30636E-05  2948   0.538E-03
  27 F= -.23438404E+04 E0= -.23438388E+04  d E =-.202567E-01  mag=     5.9583
       N       E                     dE             d eps       ncg     rms          rms(c)
DAV:   1    -0.232244251129E+04   -0.43119E-02   -0.33320E-01  4648   0.541E-01    0.167E-01
RMM:   2    -0.232244608302E+04   -0.35717E-02   -0.37877E-02  6487   0.109E-01    0.118E-01
RMM:   3    -0.232244643493E+04   -0.35190E-03   -0.42035E-03  5470   0.414E-02    0.122E-01
RMM:   4    -0.232244629533E+04    0.13960E-03   -0.46470E-04  3238   0.107E-02    0.611E-02
RMM:   5    -0.232244627697E+04    0.18362E-04   -0.13838E-04  3340   0.810E-03    0.445E-02
RMM:   6    -0.232244626618E+04    0.10788E-04   -0.84798E-05  2982   0.710E-03    0.298E-02
RMM:   7    -0.232244625635E+04    0.98308E-05   -0.15347E-05  2915   0.454E-03
  28 F= -.23438482E+04 E0= -.23438466E+04  d E =-.772207E-02  mag=     5.9629
       N       E                     dE             d eps       ncg     rms          rms(c)
DAV:   1    -0.232243121676E+04    0.15049E-01   -0.30016E+00  4516   0.162E+00    0.494E-01
RMM:   2    -0.232246303831E+04   -0.31822E-01   -0.33906E-01  6466   0.325E-01    0.325E-01
RMM:   3    -0.232246599331E+04   -0.29550E-02   -0.37706E-02  6109   0.124E-01    0.308E-01
RMM:   4    -0.232246535232E+04    0.64099E-03   -0.41304E-03  5927   0.295E-02    0.204E-01
RMM:   5    -0.232246501212E+04    0.34020E-03   -0.12040E-03  5072   0.199E-02    0.113E-01
RMM:   6    -0.232246501948E+04   -0.73593E-05   -0.69145E-04  4659   0.160E-02    0.990E-02
RMM:   7    -0.232246488819E+04    0.13129E-03   -0.14586E-04  3358   0.814E-03    0.220E-02
RMM:   8    -0.232246487922E+04    0.89723E-05   -0.26490E-05  2970   0.458E-03
  29 F= -.23438657E+04 E0= -.23438645E+04  d E =-.253078E-01  mag=     5.9697
       N       E                     dE             d eps       ncg     rms          rms(c)
DAV:   1    -0.232234215194E+04    0.12274E+00   -0.12050E+01  4504   0.324E+00    0.995E-01
RMM:   2    -0.232247115901E+04   -0.12901E+00   -0.13685E+00  6419   0.655E-01    0.687E-01
RMM:   3    -0.232248281282E+04   -0.11654E-01   -0.15727E-01  6152   0.250E-01    0.641E-01
RMM:   4    -0.232247971573E+04    0.30971E-02   -0.16602E-02  6373   0.594E-02    0.406E-01
RMM:   5    -0.232247845823E+04    0.12575E-02   -0.46605E-03  5614   0.380E-02    0.245E-01
RMM:   6    -0.232247843081E+04    0.27415E-04   -0.32331E-03  5678   0.313E-02    0.207E-01
RMM:   7    -0.232247786000E+04    0.57081E-03   -0.66307E-04  5153   0.162E-02    0.473E-02
RMM:   8    -0.232247781868E+04    0.41317E-04   -0.11660E-04  3150   0.655E-03    0.378E-02
RMM:   9    -0.232247780979E+04    0.88895E-05   -0.53919E-05  2943   0.517E-03
  30 F= -.23438765E+04 E0= -.23438757E+04  d E =-.360861E-01  mag=     5.9788
       N       E                     dE             d eps       ncg     rms          rms(c)
DAV:   1    -0.232248053408E+04   -0.27154E-02   -0.48700E-01  4752   0.634E-01    0.193E-01
RMM:   2    -0.232248574198E+04   -0.52079E-02   -0.56075E-02  6525   0.123E-01    0.115E-01
RMM:   3    -0.232248621127E+04   -0.46929E-03   -0.63250E-03  5144   0.457E-02    0.842E-02
RMM:   4    -0.232248625847E+04   -0.47201E-04   -0.69396E-04  3269   0.110E-02    0.954E-02
RMM:   5    -0.232248616927E+04    0.89200E-04   -0.20148E-04  3285   0.862E-03    0.386E-02
RMM:   6    -0.232248617160E+04   -0.23297E-05   -0.64810E-05  3118   0.602E-03
  31 F= -.23438846E+04 E0= -.23438838E+04  d E =-.808731E-02  mag=     5.9815
       N       E                     dE             d eps       ncg     rms          rms(c)
DAV:   1    -0.232245700309E+04    0.29166E-01   -0.43655E+00  4504   0.190E+00    0.579E-01
RMM:   2    -0.232250349900E+04   -0.46496E-01   -0.50243E-01  6463   0.364E-01    0.345E-01
RMM:   3    -0.232250766647E+04   -0.41675E-02   -0.57624E-02  5806   0.140E-01    0.242E-01
RMM:   4    -0.232250810663E+04   -0.44017E-03   -0.61427E-03  5672   0.317E-02    0.279E-01
RMM:   5    -0.232250740266E+04    0.70397E-03   -0.17438E-03  5341   0.215E-02    0.133E-01
RMM:   6    -0.232250728848E+04    0.11418E-03   -0.54369E-04  4671   0.129E-02    0.597E-02
RMM:   7    -0.232250726166E+04    0.26823E-04   -0.13284E-04  3051   0.895E-03    0.448E-02
RMM:   8    -0.232250723330E+04    0.28357E-04   -0.32638E-05  2909   0.403E-03    0.136E-02
RMM:   9    -0.232250723176E+04    0.15383E-05   -0.22202E-05  2944   0.291E-03
  32 F= -.23439048E+04 E0= -.23439042E+04  d E =-.283131E-01  mag=     5.9852
       N       E                     dE             d eps       ncg     rms          rms(c)
DAV:   1    -0.232232661257E+04    0.18062E+00   -0.17477E+01  4504   0.380E+00    0.116E+00
RMM:   2    -0.232251457350E+04   -0.18796E+00   -0.20256E+00  6513   0.735E-01    0.725E-01
RMM:   3    -0.232253237927E+04   -0.17806E-01   -0.24414E-01  5973   0.283E-01    0.562E-01
RMM:   4    -0.232253292439E+04   -0.54512E-03   -0.24940E-02  6149   0.624E-02    0.553E-01
RMM:   5    -0.232253013070E+04    0.27937E-02   -0.63951E-03  5890   0.403E-02    0.275E-01
RMM:   6    -0.232252959957E+04    0.53113E-03   -0.32306E-03  5056   0.292E-02    0.886E-02
RMM:   7    -0.232252959133E+04    0.82467E-05   -0.56153E-04  4269   0.193E-02    0.107E-01
RMM:   8    -0.232252943464E+04    0.15669E-03   -0.15909E-04  3027   0.701E-03    0.287E-02
RMM:   9    -0.232252941154E+04    0.23101E-04   -0.94613E-05  3126   0.515E-03    0.166E-02
RMM:  10    -0.232252941217E+04   -0.63163E-06   -0.19013E-05  2916   0.411E-03
  33 F= -.23439253E+04 E0= -.23439249E+04  d E =-.488092E-01  mag=     5.9898
       N       E                     dE             d eps       ncg     rms          rms(c)
DAV:   1    -0.232254151504E+04   -0.12104E-01   -0.60758E-01  4688   0.740E-01    0.264E-01
RMM:   2    -0.232254716501E+04   -0.56500E-02   -0.61982E-02  6100   0.150E-01    0.159E-01
RMM:   3    -0.232254778343E+04   -0.61842E-03   -0.73962E-03  5752   0.654E-02    0.185E-01
RMM:   4    -0.232254751224E+04    0.27119E-03   -0.87158E-04  4721   0.159E-02    0.992E-02
RMM:   5    -0.232254744984E+04    0.62395E-04   -0.36336E-04  4377   0.132E-02    0.806E-02
RMM:   6    -0.232254741072E+04    0.39124E-04   -0.19305E-04  3159   0.103E-02    0.417E-02
RMM:   7    -0.232254739331E+04    0.17408E-04   -0.24263E-05  2922   0.521E-03    0.118E-02
RMM:   8    -0.232254739412E+04   -0.80653E-06   -0.99977E-06  2904   0.360E-03
  34 F= -.23439432E+04 E0= -.23439428E+04  d E =-.178661E-01  mag=     5.9910
       N       E                     dE             d eps       ncg     rms          rms(c)
DAV:   1    -0.232254269863E+04    0.46947E-02   -0.16153E+00  4536   0.121E+00    0.431E-01
RMM:   2    -0.232255774983E+04   -0.15051E-01   -0.16528E-01  6080   0.246E-01    0.260E-01
RMM:   3    -0.232255940492E+04   -0.16551E-02   -0.19772E-02  5916   0.104E-01    0.307E-01
RMM:   4    -0.232255865617E+04    0.74875E-03   -0.23187E-03  5743   0.253E-02    0.162E-01
RMM:   5    -0.232255846353E+04    0.19264E-03   -0.92911E-04  4775   0.200E-02    0.122E-01
RMM:   6    -0.232255839354E+04    0.69993E-04   -0.51265E-04  4445   0.150E-02    0.731E-02
RMM:   7    -0.232255833530E+04    0.58234E-04   -0.70259E-05  3151   0.655E-03    0.206E-02
RMM:   8    -0.232255833756E+04   -0.22587E-05   -0.23012E-05  2933   0.472E-03
  35 F= -.23439540E+04 E0= -.23439536E+04  d E =-.286375E-01  mag=     5.9919
       N       E                     dE             d eps       ncg     rms          rms(c)
DAV:   1    -0.232256141385E+04   -0.30785E-02   -0.61926E-01  4560   0.753E-01    0.227E-01
RMM:   2    -0.232256753985E+04   -0.61260E-02   -0.65638E-02  6463   0.154E-01    0.153E-01
RMM:   3    -0.232256816070E+04   -0.62085E-03   -0.76193E-03  5850   0.587E-02    0.172E-01
RMM:   4    -0.232256788726E+04    0.27344E-03   -0.75075E-04  3796   0.142E-02    0.835E-02
RMM:   5    -0.232256786572E+04    0.21540E-04   -0.23658E-04  3784   0.941E-03    0.891E-02
RMM:   6    -0.232256779897E+04    0.66748E-04   -0.20644E-04  3805   0.982E-03    0.294E-02
RMM:   7    -0.232256779518E+04    0.37836E-05   -0.34844E-05  3022   0.586E-03
  36 F= -.23439632E+04 E0= -.23439628E+04  d E =-.920264E-02  mag=     5.9929
       N       E                     dE             d eps       ncg     rms          rms(c)
DAV:   1    -0.232253689377E+04    0.30905E-01   -0.39658E+00  4504   0.191E+00    0.573E-01
RMM:   2    -0.232257608151E+04   -0.39188E-01   -0.42031E-01  6425   0.389E-01    0.387E-01
RMM:   3    -0.232258002346E+04   -0.39419E-02   -0.49571E-02  6142   0.153E-01    0.426E-01
RMM:   4    -0.232257835410E+04    0.16694E-02   -0.48109E-03  6054   0.354E-02    0.209E-01
RMM:   5    -0.232257820187E+04    0.15223E-03   -0.14678E-03  5484   0.198E-02    0.222E-01
RMM:   6    -0.232257779661E+04    0.40526E-03   -0.12474E-03  5336   0.207E-02    0.814E-02
RMM:   7    -0.232257775611E+04    0.40504E-04   -0.24921E-04  4502   0.112E-02    0.468E-02
RMM:   8    -0.232257774229E+04    0.13819E-04   -0.62660E-05  2968   0.606E-03    0.281E-02
RMM:   9    -0.232257773651E+04    0.57729E-05   -0.17411E-05  2958   0.365E-03
  37 F= -.23439725E+04 E0= -.23439723E+04  d E =-.185232E-01  mag=     5.9951
       N       E                     dE             d eps       ncg     rms          rms(c)
DAV:   1    -0.232258168426E+04   -0.39420E-02   -0.11138E+00  4528   0.107E+00    0.301E-01
RMM:   2    -0.232258884726E+04   -0.71630E-02   -0.77172E-02  6231   0.194E-01    0.191E-01
RMM:   3    -0.232258925662E+04   -0.40936E-03   -0.75960E-03  5740   0.712E-02    0.186E-01
RMM:   4    -0.232258897283E+04    0.28380E-03   -0.89638E-04  5290   0.184E-02    0.936E-02
RMM:   5    -0.232258892257E+04    0.50253E-04   -0.37036E-04  4556   0.140E-02    0.685E-02
RMM:   6    -0.232258889394E+04    0.28634E-04   -0.18727E-04  3413   0.106E-02    0.475E-02
RMM:   7    -0.232258886963E+04    0.24311E-04   -0.41802E-05  2988   0.599E-03    0.212E-02
RMM:   8    -0.232258886620E+04    0.34287E-05   -0.13526E-05  2896   0.384E-03
  38 F= -.23439832E+04 E0= -.23439830E+04  d E =-.107162E-01  mag=     5.9962
       N       E                     dE             d eps       ncg     rms          rms(c)
DAV:   1    -0.232257526744E+04    0.13602E-01   -0.33106E+00  4504   0.185E+00    0.519E-01
RMM:   2    -0.232259658514E+04   -0.21318E-01   -0.22989E-01  6195   0.335E-01    0.328E-01
RMM:   3    -0.232259778784E+04   -0.12027E-02   -0.22707E-02  5860   0.124E-01    0.316E-01
RMM:   4    -0.232259696419E+04    0.82365E-03   -0.26828E-03  5915   0.316E-02    0.162E-01
RMM:   5    -0.232259677680E+04    0.18739E-03   -0.11039E-03  5006   0.232E-02    0.108E-01
RMM:   6    -0.232259670138E+04    0.75422E-04   -0.52109E-04  4541   0.167E-02    0.741E-02
RMM:   7    -0.232259662318E+04    0.78200E-04   -0.10737E-04  3639   0.775E-03    0.205E-02
RMM:   8    -0.232259661773E+04    0.54512E-05   -0.22613E-05  2961   0.462E-03
  39 F= -.23439903E+04 E0= -.23439901E+04  d E =-.177675E-01  mag=     5.9972
       N       E                     dE             d eps       ncg     rms          rms(c)
DAV:   1    -0.232259595683E+04    0.66635E-03   -0.13158E+00  4560   0.116E+00    0.323E-01
RMM:   2    -0.232260702860E+04   -0.11072E-01   -0.11753E-01  6212   0.219E-01    0.225E-01
RMM:   3    -0.232260806789E+04   -0.10393E-02   -0.13314E-02  5675   0.868E-02    0.254E-01
RMM:   4    -0.232260750111E+04    0.56678E-03   -0.13052E-03  5119   0.198E-02    0.108E-01
RMM:   5    -0.232260746816E+04    0.32947E-04   -0.47780E-04  4822   0.135E-02    0.101E-01
RMM:   6    -0.232260736962E+04    0.98540E-04   -0.37343E-04  4692   0.123E-02    0.496E-02
RMM:   7    -0.232260733985E+04    0.29763E-04   -0.55762E-05  3095   0.680E-03    0.178E-02
RMM:   8    -0.232260734016E+04   -0.30639E-06   -0.17152E-05  2911   0.426E-03
  40 F= -.23440009E+04 E0= -.23440007E+04  d E =-.106318E-01  mag=     5.9974
       N       E                     dE             d eps       ncg     rms          rms(c)
DAV:   1    -0.232256641072E+04    0.40929E-01   -0.54483E+00  4504   0.237E+00    0.654E-01
RMM:   2    -0.232261192487E+04   -0.45514E-01   -0.48701E-01  6179   0.448E-01    0.423E-01
RMM:   3    -0.232261627770E+04   -0.43528E-02   -0.55866E-02  5664   0.182E-01    0.477E-01
RMM:   4    -0.232261444671E+04    0.18310E-02   -0.54006E-03  6083   0.392E-02    0.229E-01
RMM:   5    -0.232261418018E+04    0.26654E-03   -0.18722E-03  5568   0.252E-02    0.193E-01
RMM:   6    -0.232261389187E+04    0.28830E-03   -0.15086E-03  5657   0.227E-02    0.119E-01
RMM:   7    -0.232261370994E+04    0.18194E-03   -0.27920E-04  4725   0.121E-02    0.373E-02
RMM:   8    -0.232261371014E+04   -0.20396E-06   -0.70835E-05  2965   0.609E-03
  41 F= -.23440071E+04 E0= -.23440069E+04  d E =-.168527E-01  mag=     5.9972
       N       E                     dE             d eps       ncg     rms          rms(c)
DAV:   1    -0.232260883261E+04    0.48773E-02   -0.16416E+00  4528   0.123E+00    0.333E-01
RMM:   2    -0.232262157594E+04   -0.12743E-01   -0.13506E-01  6266   0.224E-01    0.233E-01
RMM:   3    -0.232262284500E+04   -0.12691E-02   -0.15676E-02  5683   0.888E-02    0.263E-01
RMM:   4    -0.232262219272E+04    0.65228E-03   -0.14928E-03  5186   0.206E-02    0.119E-01
RMM:   5    -0.232262215765E+04    0.35072E-04   -0.60623E-04  4683   0.146E-02    0.103E-01
RMM:   6    -0.232262207249E+04    0.85161E-04   -0.39185E-04  4435   0.125E-02    0.595E-02
RMM:   7    -0.232262202783E+04    0.44660E-04   -0.76659E-05  3332   0.696E-03    0.176E-02
RMM:   8    -0.232262202786E+04   -0.32000E-07   -0.21836E-05  2920   0.435E-03
  42 F= -.23440156E+04 E0= -.23440154E+04  d E =-.845911E-02  mag=     5.9971
       N       E                     dE             d eps       ncg     rms          rms(c)
DAV:   1    -0.232258076672E+04    0.41261E-01   -0.59026E+00  4504   0.232E+00    0.629E-01
RMM:   2    -0.232262670243E+04   -0.45936E-01   -0.48786E-01  6259   0.426E-01    0.428E-01
RMM:   3    -0.232263125284E+04   -0.45504E-02   -0.55471E-02  5766   0.166E-01    0.496E-01
RMM:   4    -0.232262900305E+04    0.22498E-02   -0.53451E-03  6147   0.381E-02    0.229E-01
RMM:   5    -0.232262876996E+04    0.23309E-03   -0.20636E-03  5329   0.254E-02    0.187E-01
RMM:   6    -0.232262855980E+04    0.21016E-03   -0.14291E-03  5338   0.224E-02    0.123E-01
RMM:   7    -0.232262836506E+04    0.19474E-03   -0.29667E-04  4531   0.113E-02    0.343E-02
RMM:   8    -0.232262836334E+04    0.17230E-05   -0.78752E-05  3045   0.623E-03
  43 F= -.23440222E+04 E0= -.23440220E+04  d E =-.150883E-01  mag=     5.9969
       N       E                     dE             d eps       ncg     rms          rms(c)
DAV:   1    -0.232262991504E+04   -0.15500E-02   -0.90218E-01  4592   0.892E-01    0.287E-01
RMM:   2    -0.232263869887E+04   -0.87838E-02   -0.95070E-02  6064   0.181E-01    0.179E-01
RMM:   3    -0.232263938078E+04   -0.68191E-03   -0.10779E-02  5658   0.764E-02    0.144E-01
RMM:   4    -0.232263929913E+04    0.81657E-04   -0.11103E-03  4959   0.174E-02    0.105E-01
RMM:   5    -0.232263922986E+04    0.69262E-04   -0.43607E-04  4857   0.136E-02    0.727E-02
RMM:   6    -0.232263922066E+04    0.92081E-05   -0.16858E-04  3328   0.912E-03    0.618E-02
RMM:   7    -0.232263917903E+04    0.41628E-04   -0.53378E-05  2968   0.640E-03    0.191E-02
RMM:   8    -0.232263917607E+04    0.29598E-05   -0.12746E-05  2914   0.342E-03
  44 F= -.23440326E+04 E0= -.23440325E+04  d E =-.104271E-01  mag=     5.9974
       N       E                     dE             d eps       ncg     rms          rms(c)
DAV:   1    -0.232263132502E+04    0.78540E-02   -0.12346E+00  4504   0.104E+00    0.335E-01
RMM:   2    -0.232264334937E+04   -0.12024E-01   -0.13002E-01  6044   0.211E-01    0.219E-01
RMM:   3    -0.232264430134E+04   -0.95198E-03   -0.14825E-02  5738   0.873E-02    0.190E-01
RMM:   4    -0.232264408801E+04    0.21333E-03   -0.15215E-03  5293   0.204E-02    0.119E-01
RMM:   5    -0.232264401039E+04    0.77624E-04   -0.60282E-04  5108   0.158E-02    0.907E-02
RMM:   6    -0.232264398530E+04    0.25091E-04   -0.23703E-04  3428   0.106E-02    0.695E-02
RMM:   7    -0.232264392851E+04    0.56786E-04   -0.60170E-05  3021   0.641E-03    0.170E-02
RMM:   8    -0.232264392739E+04    0.11237E-05   -0.15982E-05  2940   0.389E-03
  45 F= -.23440369E+04 E0= -.23440368E+04  d E =-.147306E-01  mag=     5.9980
       N       E                     dE             d eps       ncg     rms          rms(c)
DAV:   1    -0.232264144910E+04    0.24794E-02   -0.71084E-01  4528   0.805E-01    0.265E-01
RMM:   2    -0.232265234993E+04   -0.10901E-01   -0.11561E-01  6294   0.180E-01    0.194E-01
RMM:   3    -0.232265328689E+04   -0.93696E-03   -0.12889E-02  5705   0.718E-02    0.159E-01
RMM:   4    -0.232265315034E+04    0.13655E-03   -0.12272E-03  3990   0.155E-02    0.894E-02
RMM:   5    -0.232265311383E+04    0.36512E-04   -0.27690E-04  4101   0.103E-02    0.822E-02
RMM:   6    -0.232265307668E+04    0.37146E-04   -0.19417E-04  3306   0.894E-03    0.549E-02
RMM:   7    -0.232265304502E+04    0.31661E-04   -0.48179E-05  2993   0.629E-03    0.155E-02
RMM:   8    -0.232265304351E+04    0.15103E-05   -0.12113E-05  2909   0.405E-03
  46 F= -.23440455E+04 E0= -.23440454E+04  d E =-.856964E-02  mag=     5.9983
       N       E                     dE             d eps       ncg     rms          rms(c)
DAV:   1    -0.232260063680E+04    0.52408E-01   -0.37799E+00  4504   0.186E+00    0.614E-01
RMM:   2    -0.232265871267E+04   -0.58076E-01   -0.61488E-01  6327   0.418E-01    0.464E-01
RMM:   3    -0.232266352127E+04   -0.48086E-02   -0.69265E-02  6042   0.164E-01    0.364E-01
RMM:   4    -0.232266274857E+04    0.77270E-03   -0.64790E-03  5912   0.352E-02    0.206E-01
RMM:   5    -0.232266254473E+04    0.20384E-03   -0.15277E-03  5508   0.212E-02    0.188E-01
RMM:   6    -0.232266233593E+04    0.20879E-03   -0.10583E-03  5205   0.180E-02    0.128E-01
RMM:   7    -0.232266216125E+04    0.17468E-03   -0.27315E-04  4336   0.104E-02    0.433E-02
RMM:   8    -0.232266214499E+04    0.16259E-04   -0.76371E-05  2971   0.644E-03    0.377E-02
RMM:   9    -0.232266212443E+04    0.20565E-04   -0.27321E-05  2909   0.402E-03    0.124E-02
RMM:  10    -0.232266212079E+04    0.36361E-05   -0.11040E-05  2943   0.300E-03
  47 F= -.23440533E+04 E0= -.23440533E+04  d E =-.164038E-01  mag=     5.9987
       N       E                     dE             d eps       ncg     rms          rms(c)
DAV:   1    -0.232265773108E+04    0.43933E-02   -0.12066E+00  4504   0.106E+00    0.329E-01
RMM:   2    -0.232267118839E+04   -0.13457E-01   -0.14309E-01  6238   0.208E-01    0.223E-01
RMM:   3    -0.232267236238E+04   -0.11740E-02   -0.15323E-02  5669   0.825E-02    0.210E-01
RMM:   4    -0.232267196916E+04    0.39322E-03   -0.16429E-03  5421   0.197E-02    0.113E-01
RMM:   5    -0.232267193256E+04    0.36606E-04   -0.50686E-04  4649   0.138E-02    0.114E-01
RMM:   6    -0.232267182978E+04    0.10278E-03   -0.29747E-04  3983   0.108E-02    0.575E-02
RMM:   7    -0.232267179810E+04    0.31681E-04   -0.59545E-05  3182   0.689E-03    0.121E-02
RMM:   8    -0.232267179594E+04    0.21618E-05   -0.11351E-05  2928   0.406E-03
  48 F= -.23440626E+04 E0= -.23440625E+04  d E =-.921917E-02  mag=     5.9987
       N       E                     dE             d eps       ncg     rms          rms(c)
DAV:   1    -0.232263723027E+04    0.34568E-01   -0.35199E+00  4504   0.182E+00    0.564E-01
RMM:   2    -0.232267658607E+04   -0.39356E-01   -0.41871E-01  6216   0.357E-01    0.385E-01
RMM:   3    -0.232268008999E+04   -0.35039E-02   -0.45670E-02  5818   0.141E-01    0.363E-01
RMM:   4    -0.232267890095E+04    0.11890E-02   -0.48222E-03  6107   0.336E-02    0.195E-01
RMM:   5    -0.232267879357E+04    0.10739E-03   -0.14517E-03  5402   0.220E-02    0.198E-01
RMM:   6    -0.232267849752E+04    0.29605E-03   -0.91559E-04  5190   0.170E-02    0.105E-01
RMM:   7    -0.232267838667E+04    0.11085E-03   -0.19610E-04  4192   0.101E-02    0.218E-02
RMM:   8    -0.232267837778E+04    0.88860E-05   -0.32882E-05  2950   0.559E-03
  49 F= -.23440684E+04 E0= -.23440683E+04  d E =-.150408E-01  mag=     5.9983
       N       E                     dE             d eps       ncg     rms          rms(c)
DAV:   1    -0.232267319491E+04    0.51918E-02   -0.12344E+00  4528   0.101E+00    0.298E-01
RMM:   2    -0.232268632402E+04   -0.13129E-01   -0.13948E-01  6314   0.188E-01    0.209E-01
RMM:   3    -0.232268772206E+04   -0.13980E-02   -0.16204E-02  5794   0.774E-02    0.227E-01
RMM:   4    -0.232268725312E+04    0.46894E-03   -0.15843E-03  4591   0.178E-02    0.108E-01
RMM:   5    -0.232268717248E+04    0.80640E-04   -0.47548E-04  4325   0.123E-02    0.896E-02
RMM:   6    -0.232268713605E+04    0.36431E-04   -0.27751E-04  3516   0.106E-02    0.616E-02
RMM:   7    -0.232268710135E+04    0.34694E-04   -0.64836E-05  3265   0.652E-03    0.132E-02
RMM:   8    -0.232268710087E+04    0.48072E-06   -0.13782E-05  2930   0.394E-03
  50 F= -.23440769E+04 E0= -.23440767E+04  d E =-.849261E-02  mag=     5.9980
       N       E                     dE             d eps       ncg     rms          rms(c)
DAV:   1    -0.232264704816E+04    0.40053E-01   -0.41110E+00  4504   0.184E+00    0.542E-01
RMM:   2    -0.232269077450E+04   -0.43726E-01   -0.46463E-01  6248   0.343E-01    0.382E-01
RMM:   3    -0.232269562514E+04   -0.48506E-02   -0.55903E-02  5902   0.142E-01    0.424E-01
RMM:   4    -0.232269396371E+04    0.16614E-02   -0.52921E-03  5875   0.318E-02    0.199E-01
RMM:   5    -0.232269371631E+04    0.24740E-03   -0.15614E-03  5175   0.206E-02    0.166E-01
RMM:   6    -0.232269357466E+04    0.14165E-03   -0.10091E-03  5038   0.175E-02    0.117E-01
RMM:   7    -0.232269343610E+04    0.13856E-03   -0.25344E-04  4171   0.101E-02    0.306E-02
RMM:   8    -0.232269343309E+04    0.30092E-05   -0.59326E-05  2980   0.583E-03
  51 F= -.23440828E+04 E0= -.23440826E+04  d E =-.144210E-01  mag=     5.9975
       N       E                     dE             d eps       ncg     rms          rms(c)
DAV:   1    -0.232268206355E+04    0.11373E-01   -0.15568E+00  4516   0.117E+00    0.364E-01
RMM:   2    -0.232270200812E+04   -0.19945E-01   -0.21353E-01  6239   0.229E-01    0.236E-01
RMM:   3    -0.232270402948E+04   -0.20214E-02   -0.24260E-02  5710   0.990E-02    0.255E-01
RMM:   4    -0.232270361749E+04    0.41199E-03   -0.23722E-03  4945   0.209E-02    0.136E-01
RMM:   5    -0.232270349036E+04    0.12712E-03   -0.66259E-04  4926   0.150E-02    0.104E-01
RMM:   6    -0.232270342446E+04    0.65900E-04   -0.43463E-04  4615   0.128E-02    0.703E-02
RMM:   7    -0.232270336958E+04    0.54880E-04   -0.85946E-05  3211   0.708E-03    0.192E-02
RMM:   8    -0.232270337029E+04   -0.70156E-06   -0.23945E-05  2915   0.469E-03
  52 F= -.23440925E+04 E0= -.23440923E+04  d E =-.967632E-02  mag=     5.9972
       N       E                     dE             d eps       ncg     rms          rms(c)
DAV:   1    -0.232264609819E+04    0.57271E-01   -0.47082E+00  4504   0.203E+00    0.632E-01
RMM:   2    -0.232270606949E+04   -0.59971E-01   -0.64249E-01  6219   0.399E-01    0.399E-01
RMM:   3    -0.232271236877E+04   -0.62993E-02   -0.75557E-02  5797   0.172E-01    0.429E-01
RMM:   4    -0.232271128810E+04    0.10807E-02   -0.72227E-03  6075   0.358E-02    0.244E-01
RMM:   5    -0.232271074491E+04    0.54318E-03   -0.18599E-03  5501   0.237E-02    0.166E-01
RMM:   6    -0.232271067426E+04    0.70652E-04   -0.13496E-03  5585   0.207E-02    0.137E-01
RMM:   7    -0.232271045633E+04    0.21793E-03   -0.32606E-04  4546   0.113E-02    0.367E-02
RMM:   8    -0.232271044354E+04    0.12795E-04   -0.69417E-05  3000   0.618E-03    0.299E-02
RMM:   9    -0.232271043670E+04    0.68344E-05   -0.35894E-05  2932   0.432E-03
  53 F= -.23440991E+04 E0= -.23440989E+04  d E =-.162905E-01  mag=     5.9970
       N       E                     dE             d eps       ncg     rms          rms(c)
DAV:   1    -0.232268907920E+04    0.21364E-01   -0.23953E+00  4504   0.140E+00    0.447E-01
RMM:   2    -0.232271985765E+04   -0.30778E-01   -0.32773E-01  6408   0.285E-01    0.275E-01
RMM:   3    -0.232272255498E+04   -0.26973E-02   -0.35767E-02  6021   0.112E-01    0.225E-01
RMM:   4    -0.232272237659E+04    0.17839E-03   -0.34133E-03  5649   0.247E-02    0.183E-01
RMM:   5    -0.232272211896E+04    0.25763E-03   -0.10084E-03  4837   0.170E-02    0.129E-01
RMM:   6    -0.232272204484E+04    0.74122E-04   -0.64453E-04  4525   0.142E-02    0.104E-01
RMM:   7    -0.232272194490E+04    0.99935E-04   -0.16461E-04  3705   0.843E-03    0.309E-02
RMM:   8    -0.232272193762E+04    0.72778E-05   -0.40386E-05  2931   0.538E-03
  54 F= -.23441100E+04 E0= -.23441099E+04  d E =-.109447E-01  mag=     5.9974
       N       E                     dE             d eps       ncg     rms          rms(c)
DAV:   1    -0.232268645459E+04    0.35490E-01   -0.29873E+00  4504   0.157E+00    0.502E-01
RMM:   2    -0.232272480770E+04   -0.38353E-01   -0.40867E-01  6386   0.318E-01    0.315E-01
RMM:   3    -0.232272828287E+04   -0.34752E-02   -0.45202E-02  6056   0.126E-01    0.263E-01
RMM:   4    -0.232272795098E+04    0.33189E-03   -0.42630E-03  5890   0.277E-02    0.204E-01
RMM:   5    -0.232272765345E+04    0.29753E-03   -0.12343E-03  4982   0.185E-02    0.153E-01
RMM:   6    -0.232272752508E+04    0.12837E-03   -0.84073E-04  4764   0.158E-02    0.110E-01
RMM:   7    -0.232272740899E+04    0.11610E-03   -0.19961E-04  4126   0.921E-03    0.305E-02
RMM:   8    -0.232272740111E+04    0.78792E-05   -0.48485E-05  2954   0.568E-03
  55 F= -.23441149E+04 E0= -.23441148E+04  d E =-.157945E-01  mag=     5.9979
       N       E                     dE             d eps       ncg     rms          rms(c)
DAV:   1    -0.232270497613E+04    0.22433E-01   -0.25518E+00  4504   0.140E+00    0.445E-01
RMM:   2    -0.232273728909E+04   -0.32313E-01   -0.34092E-01  6476   0.287E-01    0.323E-01
RMM:   3    -0.232274019916E+04   -0.29101E-02   -0.37391E-02  6168   0.111E-01    0.309E-01
RMM:   4    -0.232273936678E+04    0.83238E-03   -0.37118E-03  5632   0.260E-02    0.172E-01
RMM:   5    -0.232273918434E+04    0.18244E-03   -0.96695E-04  4658   0.158E-02    0.146E-01
RMM:   6    -0.232273903720E+04    0.14714E-03   -0.75337E-04  4592   0.157E-02    0.860E-02
RMM:   7    -0.232273896837E+04    0.68823E-04   -0.15826E-04  4008   0.865E-03    0.245E-02
RMM:   8    -0.232273896577E+04    0.26089E-05   -0.37529E-05  2943   0.551E-03
  56 F= -.23441259E+04 E0= -.23441258E+04  d E =-.110066E-01  mag=     5.9984
       N       E                     dE             d eps       ncg     rms          rms(c)
DAV:   1    -0.232266591624E+04    0.73052E-01   -0.60000E+00  4504   0.215E+00    0.681E-01
RMM:   2    -0.232274197416E+04   -0.76058E-01   -0.80294E-01  6447   0.442E-01    0.490E-01
RMM:   3    -0.232274888760E+04   -0.69134E-02   -0.89689E-02  6218   0.172E-01    0.467E-01
RMM:   4    -0.232274699197E+04    0.18956E-02   -0.86501E-03  6173   0.396E-02    0.265E-01
RMM:   5    -0.232274647816E+04    0.51381E-03   -0.22354E-03  5247   0.234E-02    0.213E-01
RMM:   6    -0.232274623344E+04    0.24472E-03   -0.17336E-03  5325   0.226E-02    0.147E-01
RMM:   7    -0.232274602633E+04    0.20711E-03   -0.41987E-04  5037   0.126E-02    0.402E-02
RMM:   8    -0.232274601427E+04    0.12064E-04   -0.92254E-05  3043   0.695E-03    0.406E-02
RMM:   9    -0.232274599205E+04    0.22221E-04   -0.41369E-05  2931   0.456E-03    0.185E-02
RMM:  10    -0.232274598560E+04    0.64459E-05   -0.16152E-05  2945   0.321E-03
  57 F= -.23441321E+04 E0= -.23441320E+04  d E =-.171954E-01  mag=     5.9991
       N       E                     dE             d eps       ncg     rms          rms(c)
DAV:   1    -0.232271625213E+04    0.29740E-01   -0.28239E+00  4504   0.145E+00    0.471E-01
RMM:   2    -0.232275213788E+04   -0.35886E-01   -0.37977E-01  6429   0.295E-01    0.321E-01
RMM:   3    -0.232275519933E+04   -0.30615E-02   -0.41986E-02  6133   0.117E-01    0.287E-01
RMM:   4    -0.232275463165E+04    0.56768E-03   -0.40531E-03  5609   0.260E-02    0.190E-01
RMM:   5    -0.232275435001E+04    0.28164E-03   -0.10518E-03  4750   0.164E-02    0.134E-01
RMM:   6    -0.232275428148E+04    0.68533E-04   -0.80086E-04  4631   0.155E-02    0.104E-01
RMM:   7    -0.232275415449E+04    0.12699E-03   -0.19824E-04  3894   0.920E-03    0.224E-02
RMM:   8    -0.232275414190E+04    0.12585E-04   -0.34118E-05  2959   0.502E-03    0.129E-02
RMM:   9    -0.232275414063E+04    0.12725E-05   -0.12553E-05  2938   0.286E-03
  58 F= -.23441402E+04 E0= -.23441402E+04  d E =-.813287E-02  mag=     5.9992
       N       E                     dE             d eps       ncg     rms          rms(c)
DAV:   1    -0.232273071517E+04    0.23427E-01   -0.19494E+00  4516   0.121E+00    0.391E-01
RMM:   2    -0.232275547056E+04   -0.24755E-01   -0.26197E-01  6398   0.245E-01    0.266E-01
RMM:   3    -0.232275758883E+04   -0.21183E-02   -0.28800E-02  6055   0.974E-02    0.238E-01
RMM:   4    -0.232275720292E+04    0.38591E-03   -0.28052E-03  5191   0.216E-02    0.157E-01
RMM:   5    -0.232275701200E+04    0.19093E-03   -0.71988E-04  4463   0.139E-02    0.112E-01
RMM:   6    -0.232275695701E+04    0.54988E-04   -0.55302E-04  4264   0.133E-02    0.840E-02
RMM:   7    -0.232275687267E+04    0.84345E-04   -0.13260E-04  3532   0.801E-03    0.184E-02
RMM:   8    -0.232275686505E+04    0.76170E-05   -0.23572E-05  2951   0.462E-03
  59 F= -.23441429E+04 E0= -.23441429E+04  d E =-.108554E-01  mag=     5.9993
       N       E                     dE             d eps       ncg     rms          rms(c)
DAV:   1    -0.232273759467E+04    0.19278E-01   -0.20531E+00  4504   0.132E+00    0.431E-01
RMM:   2    -0.232276264200E+04   -0.25047E-01   -0.27009E-01  6203   0.262E-01    0.241E-01
RMM:   3    -0.232276457237E+04   -0.19304E-02   -0.29432E-02  5717   0.111E-01    0.169E-01
RMM:   4    -0.232276458056E+04   -0.81942E-05   -0.28422E-03  5450   0.240E-02    0.151E-01
RMM:   5    -0.232276435902E+04    0.22154E-03   -0.91784E-04  5232   0.177E-02    0.938E-02
RMM:   6    -0.232276427124E+04    0.87780E-04   -0.26992E-04  4553   0.108E-02    0.386E-02
RMM:   7    -0.232276426889E+04    0.23500E-05   -0.70093E-05  2944   0.744E-03
  60 F= -.23441505E+04 E0= -.23441504E+04  d E =-.754129E-02  mag=     5.9993
       N       E                     dE             d eps       ncg     rms          rms(c)
DAV:   1    -0.232275598053E+04    0.82907E-02   -0.70146E-01  4576   0.774E-01    0.253E-01
RMM:   2    -0.232276456398E+04   -0.85834E-02   -0.92690E-02  6190   0.154E-01    0.144E-01
RMM:   3    -0.232276524927E+04   -0.68529E-03   -0.10166E-02  5580   0.651E-02    0.108E-01
RMM:   4    -0.232276525104E+04   -0.17661E-05   -0.97751E-04  4125   0.143E-02    0.102E-01
RMM:   5    -0.232276516175E+04    0.89287E-04   -0.32167E-04  4058   0.111E-02    0.678E-02
RMM:   6    -0.232276514719E+04    0.14555E-04   -0.17345E-04  3578   0.856E-03    0.546E-02
RMM:   7    -0.232276510866E+04    0.38530E-04   -0.47994E-05  2996   0.633E-03    0.123E-02
RMM:   8    -0.232276510688E+04    0.17857E-05   -0.14340E-05  2922   0.349E-03
  61 F= -.23441514E+04 E0= -.23441513E+04  d E =-.846308E-02  mag=     5.9992
       N       E                     dE             d eps       ncg     rms          rms(c)
DAV:   1    -0.232274939016E+04    0.15719E-01   -0.17484E+00  4504   0.120E+00    0.349E-01
RMM:   2    -0.232276987024E+04   -0.20480E-01   -0.21908E-01  6366   0.229E-01    0.213E-01
RMM:   3    -0.232277180385E+04   -0.19336E-02   -0.24077E-02  5735   0.912E-02    0.208E-01
RMM:   4    -0.232277164396E+04    0.15989E-03   -0.23225E-03  4254   0.192E-02    0.144E-01
RMM:   5    -0.232277140333E+04    0.24063E-03   -0.56582E-04  4461   0.136E-02    0.773E-02
RMM:   6    -0.232277140311E+04    0.22391E-06   -0.35790E-04  4425   0.116E-02    0.645E-02
RMM:   7    -0.232277135203E+04    0.51081E-04   -0.93487E-05  3158   0.723E-03    0.209E-02
RMM:   8    -0.232277134420E+04    0.78309E-05   -0.22436E-05  2941   0.390E-03
  62 F= -.23441574E+04 E0= -.23441574E+04  d E =-.603442E-02  mag=     5.9991
       N       E                     dE             d eps       ncg     rms          rms(c)
DAV:   1    -0.232269699121E+04    0.74361E-01   -0.63048E+00  4504   0.228E+00    0.664E-01
RMM:   2    -0.232277082056E+04   -0.73829E-01   -0.79017E-01  6338   0.434E-01    0.406E-01
RMM:   3    -0.232277808894E+04   -0.72684E-02   -0.90752E-02  5842   0.176E-01    0.398E-01
RMM:   4    -0.232277749210E+04    0.59684E-03   -0.84526E-03  5889   0.361E-02    0.279E-01
RMM:   5    -0.232277662347E+04    0.86863E-03   -0.18885E-03  5398   0.225E-02    0.159E-01
RMM:   6    -0.232277658635E+04    0.37115E-04   -0.15034E-03  5433   0.208E-02    0.128E-01
RMM:   7    -0.232277640115E+04    0.18520E-03   -0.39340E-04  3877   0.126E-02    0.518E-02
RMM:   8    -0.232277635282E+04    0.48334E-04   -0.97463E-05  3206   0.650E-03    0.227E-02
RMM:   9    -0.232277635198E+04    0.83698E-06   -0.49842E-05  2924   0.472E-03
  63 F= -.23441621E+04 E0= -.23441620E+04  d E =-.106700E-01  mag=     5.9989
       N       E                     dE             d eps       ncg     rms          rms(c)
DAV:   1    -0.232274852902E+04    0.27824E-01   -0.31706E+00  4504   0.162E+00    0.482E-01
RMM:   2    -0.232278345186E+04   -0.34923E-01   -0.37444E-01  6173   0.307E-01    0.287E-01
RMM:   3    -0.232278651087E+04   -0.30590E-02   -0.41125E-02  5706   0.128E-01    0.248E-01
RMM:   4    -0.232278648180E+04    0.29073E-04   -0.41469E-03  5608   0.276E-02    0.217E-01
RMM:   5    -0.232278594373E+04    0.53807E-03   -0.11562E-03  5293   0.194E-02    0.103E-01
RMM:   6    -0.232278591346E+04    0.30265E-04   -0.57185E-04  4792   0.144E-02    0.792E-02
RMM:   7    -0.232278585183E+04    0.61629E-04   -0.14618E-04  3131   0.892E-03    0.332E-02
RMM:   8    -0.232278583222E+04    0.19620E-04   -0.42649E-05  3026   0.477E-03    0.119E-02
RMM:   9    -0.232278583082E+04    0.13916E-05   -0.17865E-05  2936   0.329E-03
  64 F= -.23441707E+04 E0= -.23441706E+04  d E =-.861565E-02  mag=     5.9989
       N       E                     dE             d eps       ncg     rms          rms(c)
DAV:   1    -0.232277920375E+04    0.66285E-02   -0.69793E-01  4528   0.757E-01    0.226E-01
RMM:   2    -0.232278687787E+04   -0.76741E-02   -0.82173E-02  6185   0.144E-01    0.135E-01
RMM:   3    -0.232278752699E+04   -0.64912E-03   -0.87016E-03  5465   0.586E-02    0.118E-01
RMM:   4    -0.232278751067E+04    0.16324E-04   -0.89549E-04  3529   0.132E-02    0.101E-01
RMM:   5    -0.232278738750E+04    0.12317E-03   -0.26860E-04  4028   0.108E-02    0.424E-02
RMM:   6    -0.232278738234E+04    0.51630E-05   -0.99751E-05  3420   0.770E-03
  65 F= -.23441718E+04 E0= -.23441718E+04  d E =-.976562E-02  mag=     5.9990
       N       E                     dE             d eps       ncg     rms          rms(c)
DAV:   1    -0.232276674292E+04    0.20645E-01   -0.17276E+00  4504   0.122E+00    0.414E-01
RMM:   2    -0.232279189315E+04   -0.25150E-01   -0.27102E-01  6115   0.265E-01    0.229E-01
RMM:   3    -0.232279396268E+04   -0.20695E-02   -0.29353E-02  5762   0.111E-01    0.151E-01
RMM:   4    -0.232279406936E+04   -0.10668E-03   -0.27727E-03  5061   0.227E-02    0.151E-01
[...]
RMM:   4    -0.232289131902E+04    0.27637E-04   -0.16894E-04  3001   0.637E-03    0.284E-02
RMM:   5    -0.232289131464E+04    0.43875E-05   -0.21060E-05  2872   0.292E-03
 262 F= -.23442439E+04 E0= -.23442439E+04  d E =-.573091E-04  mag=     5.9992
       N       E                     dE             d eps       ncg     rms          rms(c)
DAV:   1    -0.232289068404E+04    0.63498E-03   -0.25380E-02  4504   0.124E-01    0.543E-02
RMM:   2    -0.232289118879E+04   -0.50474E-03   -0.51447E-03  6000   0.338E-02    0.416E-02
RMM:   3    -0.232289122999E+04   -0.41200E-04   -0.58012E-04  3027   0.138E-02    0.392E-02
RMM:   4    -0.232289121430E+04    0.15682E-04   -0.56901E-05  2924   0.403E-03    0.146E-02
RMM:   5    -0.232289121202E+04    0.22840E-05   -0.58017E-06  2401   0.151E-03
 263 F= -.23442440E+04 E0= -.23442439E+04  d E =-.685272E-04  mag=     5.9992
       N       E                     dE             d eps       ncg     rms          rms(c)
DAV:   1    -0.232289120496E+04    0.93441E-05   -0.37729E-03  4224   0.478E-02    0.222E-02
RMM:   2    -0.232289127916E+04   -0.74204E-04   -0.79369E-04  4541   0.131E-02    0.106E-02
RMM:   3    -0.232289128642E+04   -0.72583E-05   -0.88226E-05  2662   0.617E-03
 264 F= -.23442440E+04 E0= -.23442439E+04  d E =-.311308E-04  mag=     5.9992
       N       E                     dE             d eps       ncg     rms          rms(c)
DAV:   1    -0.232289076956E+04    0.50961E-03   -0.33424E-02  4516   0.143E-01    0.579E-02
RMM:   2    -0.232289145126E+04   -0.68170E-03   -0.69862E-03  6104   0.390E-02    0.400E-02
RMM:   3    -0.232289150093E+04   -0.49667E-04   -0.76710E-04  3089   0.158E-02    0.286E-02
RMM:   4    -0.232289149394E+04    0.69891E-05   -0.76222E-05  2977   0.437E-03
 265 F= -.23442441E+04 E0= -.23442440E+04  d E =-.108887E-03  mag=     5.9992
       N       E                     dE             d eps       ncg     rms          rms(c)
DAV:   1    -0.232288896533E+04    0.25356E-02   -0.13308E-01  4504   0.285E-01    0.114E-01
RMM:   2    -0.232289164194E+04   -0.26766E-02   -0.27424E-02  6458   0.767E-02    0.818E-02
RMM:   3    -0.232289184357E+04   -0.20163E-03   -0.30449E-03  3847   0.307E-02    0.638E-02
RMM:   4    -0.232289180803E+04    0.35539E-04   -0.29012E-04  3021   0.767E-03    0.355E-02
RMM:   5    -0.232289179809E+04    0.99385E-05   -0.33301E-05  2942   0.382E-03
 266 F= -.23442441E+04 E0= -.23442441E+04  d E =-.153830E-03  mag=     5.9992
       N       E                     dE             d eps       ncg     rms          rms(c)
DAV:   1    -0.232289160159E+04    0.20644E-03   -0.17463E-02  4460   0.102E-01    0.427E-02
RMM:   2    -0.232289196497E+04   -0.36338E-03   -0.36101E-03  5576   0.280E-02    0.444E-02
RMM:   3    -0.232289197602E+04   -0.11052E-04   -0.40235E-04  2978   0.114E-02    0.270E-02
RMM:   4    -0.232289197137E+04    0.46505E-05   -0.40774E-05  2947   0.358E-03
 267 F= -.23442442E+04 E0= -.23442441E+04  d E =-.606498E-04  mag=     5.9992
       N       E                     dE             d eps       ncg     rms          rms(c)
DAV:   1    -0.232288903577E+04    0.29403E-02   -0.16062E-01  4504   0.307E-01    0.123E-01
RMM:   2    -0.232289221430E+04   -0.31785E-02   -0.32706E-02  6478   0.831E-02    0.789E-02
RMM:   3    -0.232289246412E+04   -0.24982E-03   -0.35830E-03  3906   0.327E-02    0.594E-02
RMM:   4    -0.232289244140E+04    0.22722E-04   -0.33886E-04  3024   0.778E-03    0.404E-02
RMM:   5    -0.232289242742E+04    0.13980E-04   -0.38528E-05  2906   0.400E-03    0.305E-02
RMM:   6    -0.232289242233E+04    0.50893E-05   -0.42566E-05  2905   0.390E-03
 268 F= -.23442443E+04 E0= -.23442442E+04  d E =-.173913E-03  mag=     5.9992
       N       E                     dE             d eps       ncg     rms          rms(c)
DAV:   1    -0.232287943823E+04    0.12989E-01   -0.64111E-01  4504   0.614E-01    0.255E-01
RMM:   2    -0.232289222509E+04   -0.12787E-01   -0.13162E-01  6540   0.166E-01    0.176E-01
RMM:   3    -0.232289325610E+04   -0.10310E-02   -0.14634E-02  5437   0.651E-02    0.149E-01
RMM:   4    -0.232289305037E+04    0.20572E-03   -0.14172E-03  3246   0.143E-02    0.796E-02
RMM:   5    -0.232289300354E+04    0.46832E-04   -0.13254E-04  3112   0.649E-03    0.648E-02
RMM:   6    -0.232289295276E+04    0.50783E-04   -0.12903E-04  3076   0.659E-03    0.340E-02
RMM:   7    -0.232289294719E+04    0.55699E-05   -0.67430E-05  3096   0.570E-03
 269 F= -.23442441E+04 E0= -.23442441E+04  d E =-.245463E-04  mag=     5.9992
       N       E                     dE             d eps       ncg     rms          rms(c)
DAV:   1    -0.232288673246E+04    0.62203E-02   -0.28299E-01  4504   0.408E-01    0.167E-01
RMM:   2    -0.232289237464E+04   -0.56422E-02   -0.57487E-02  6474   0.110E-01    0.121E-01
RMM:   3    -0.232289278664E+04   -0.41200E-03   -0.62987E-03  4651   0.428E-02    0.956E-02
RMM:   4    -0.232289269284E+04    0.93798E-04   -0.59906E-04  3046   0.978E-03    0.514E-02
RMM:   5    -0.232289267395E+04    0.18889E-04   -0.55414E-05  2942   0.450E-03    0.428E-02
RMM:   6    -0.232289264929E+04    0.24668E-04   -0.55937E-05  2971   0.448E-03    0.213E-02
RMM:   7    -0.232289264676E+04    0.25290E-05   -0.29472E-05  2982   0.403E-03
 270 F= -.23442443E+04 E0= -.23442442E+04  d E =-.170379E-03  mag=     5.9992
       N       E                     dE             d eps       ncg     rms          rms(c)
DAV:   1    -0.232289212945E+04    0.51983E-03   -0.19253E-02  4484   0.106E-01    0.454E-02
RMM:   2    -0.232289251301E+04   -0.38356E-03   -0.39732E-03  5620   0.293E-02    0.316E-02
RMM:   3    -0.232289254535E+04   -0.32343E-04   -0.44858E-04  2991   0.121E-02    0.283E-02
RMM:   4    -0.232289253786E+04    0.74926E-05   -0.44122E-05  2942   0.382E-03
 271 F= -.23442443E+04 E0= -.23442442E+04  d E =-.178394E-03  mag=     5.9992
       N       E                     dE             d eps       ncg     rms          rms(c)
DAV:   1    -0.232289179973E+04    0.74562E-03   -0.50603E-02  4504   0.176E-01    0.765E-02
RMM:   2    -0.232289280603E+04   -0.10063E-02   -0.10341E-02  6303   0.477E-02    0.551E-02
RMM:   3    -0.232289287218E+04   -0.66155E-04   -0.11370E-03  3303   0.190E-02    0.400E-02
RMM:   4    -0.232289285184E+04    0.20337E-04   -0.10606E-04  2981   0.535E-03    0.175E-02
RMM:   5    -0.232289284919E+04    0.26544E-05   -0.95919E-06  2747   0.213E-03
 272 F= -.23442444E+04 E0= -.23442444E+04  d E =-.117327E-03  mag=     5.9992
       N       E                     dE             d eps       ncg     rms          rms(c)
DAV:   1    -0.232289059247E+04    0.22594E-02   -0.12641E-01  4504   0.278E-01    0.112E-01
RMM:   2    -0.232289309460E+04   -0.25021E-02   -0.25670E-02  6473   0.750E-02    0.781E-02
RMM:   3    -0.232289327482E+04   -0.18021E-03   -0.28222E-03  3800   0.291E-02    0.575E-02
RMM:   4    -0.232289324146E+04    0.33355E-04   -0.26385E-04  3012   0.739E-03    0.330E-02
RMM:   5    -0.232289323172E+04    0.97403E-05   -0.31684E-05  2896   0.375E-03
 273 F= -.23442445E+04 E0= -.23442444E+04  d E =-.192080E-03  mag=     5.9992
       N       E                     dE             d eps       ncg     rms          rms(c)
DAV:   1    -0.232289264798E+04    0.59348E-03   -0.40867E-02  4504   0.161E-01    0.650E-02
RMM:   2    -0.232289346053E+04   -0.81255E-03   -0.81918E-03  6240   0.433E-02    0.590E-02
RMM:   3    -0.232289350360E+04   -0.43068E-04   -0.92881E-04  3128   0.172E-02    0.442E-02
RMM:   4    -0.232289348952E+04    0.14072E-04   -0.94147E-05  2974   0.525E-03    0.251E-02
RMM:   5    -0.232289348463E+04    0.48918E-05   -0.12489E-05  2779   0.211E-03
 274 F= -.23442446E+04 E0= -.23442445E+04  d E =-.996214E-04  mag=     5.9992
       N       E                     dE             d eps       ncg     rms          rms(c)
DAV:   1    -0.232289330998E+04    0.17955E-03   -0.13902E-02  4528   0.936E-02    0.368E-02
RMM:   2    -0.232289357921E+04   -0.26923E-03   -0.27630E-03  5619   0.251E-02    0.277E-02
RMM:   3    -0.232289360043E+04   -0.21220E-04   -0.31889E-04  2957   0.104E-02    0.234E-02
RMM:   4    -0.232289359531E+04    0.51242E-05   -0.30089E-05  2932   0.321E-03
 275 F= -.23442446E+04 E0= -.23442445E+04  d E =-.120575E-03  mag=     5.9992
       N       E                     dE             d eps       ncg     rms          rms(c)
DAV:   1    -0.232289261283E+04    0.98760E-03   -0.56653E-02  4504   0.189E-01    0.756E-02
RMM:   2    -0.232289373120E+04   -0.11184E-02   -0.11234E-02  6303   0.501E-02    0.680E-02
RMM:   3    -0.232289380693E+04   -0.75730E-04   -0.12938E-03  3308   0.203E-02    0.579E-02
RMM:   4    -0.232289377364E+04    0.33295E-04   -0.12685E-04  2976   0.584E-03    0.243E-02
RMM:   5    -0.232289377030E+04    0.33349E-05   -0.17091E-05  2896   0.257E-03
 276 F= -.23442446E+04 E0= -.23442445E+04  d E =-.116179E-03  mag=     5.9992
       N       E                     dE             d eps       ncg     rms          rms(c)
DAV:   1    -0.232289308574E+04    0.68790E-03   -0.27911E-02  4516   0.132E-01    0.559E-02
RMM:   2    -0.232289362902E+04   -0.54328E-03   -0.55519E-03  6095   0.356E-02    0.399E-02
RMM:   3    -0.232289367175E+04   -0.42731E-04   -0.61131E-04  3057   0.144E-02    0.372E-02
RMM:   4    -0.232289365791E+04    0.13843E-04   -0.60236E-05  2936   0.411E-03    0.158E-02
RMM:   5    -0.232289365545E+04    0.24563E-05   -0.61819E-06  2575   0.157E-03
 277 F= -.23442446E+04 E0= -.23442446E+04  d E =-.125930E-03  mag=     5.9992
       N       E                     dE             d eps       ncg     rms          rms(c)
DAV:   1    -0.232289281171E+04    0.84619E-03   -0.55288E-02  4504   0.192E-01    0.798E-02
RMM:   2    -0.232289388633E+04   -0.10746E-02   -0.11073E-02  6306   0.509E-02    0.541E-02
RMM:   3    -0.232289397053E+04   -0.84208E-04   -0.12159E-03  3333   0.203E-02    0.489E-02
RMM:   4    -0.232289394509E+04    0.25447E-04   -0.12178E-04  2974   0.567E-03    0.228E-02
RMM:   5    -0.232289394072E+04    0.43699E-05   -0.13714E-05  2844   0.239E-03
 278 F= -.23442447E+04 E0= -.23442447E+04  d E =-.112733E-03  mag=     5.9992
       N       E                     dE             d eps       ncg     rms          rms(c)
DAV:   1    -0.232289373221E+04    0.21288E-03   -0.15303E-02  4528   0.101E-01    0.403E-02
RMM:   2    -0.232289403329E+04   -0.30109E-03   -0.30383E-03  5792   0.269E-02    0.354E-02
RMM:   3    -0.232289404774E+04   -0.14450E-04   -0.34123E-04  2963   0.110E-02    0.235E-02
RMM:   4    -0.232289404179E+04    0.59496E-05   -0.32487E-05  2963   0.342E-03
 279 F= -.23442447E+04 E0= -.23442447E+04  d E =-.122238E-03  mag=     5.9992
       N       E                     dE             d eps       ncg     rms          rms(c)
DAV:   1    -0.232289365032E+04    0.39743E-03   -0.30568E-02  4516   0.145E-01    0.565E-02
RMM:   2    -0.232289424430E+04   -0.59399E-03   -0.60534E-03  6185   0.385E-02    0.444E-02
RMM:   3    -0.232289428768E+04   -0.43377E-04   -0.67895E-04  3110   0.157E-02    0.386E-02
RMM:   4    -0.232289427372E+04    0.13958E-04   -0.67391E-05  2973   0.472E-03    0.178E-02
RMM:   5    -0.232289427247E+04    0.12484E-05   -0.10331E-05  2830   0.220E-03
 280 F= -.23442448E+04 E0= -.23442448E+04  d E =-.891296E-04  mag=     5.9992
       N       E                     dE             d eps       ncg     rms          rms(c)
DAV:   1    -0.232289426759E+04    0.61299E-05   -0.22662E-03  4816   0.398E-02    0.167E-02
RMM:   2    -0.232289431442E+04   -0.46827E-04   -0.45698E-04  4189   0.109E-02    0.208E-02
RMM:   3    -0.232289431453E+04   -0.11113E-06   -0.53851E-05  2854   0.553E-03
 281 F= -.23442448E+04 E0= -.23442448E+04  d E =-.920938E-04  mag=     5.9992
       N       E                     dE             d eps       ncg     rms          rms(c)
DAV:   1    -0.232289413763E+04    0.17679E-03   -0.18327E-02  4528   0.126E-01    0.487E-02
RMM:   2    -0.232289446332E+04   -0.32568E-03   -0.33162E-03  6074   0.315E-02    0.370E-02
RMM:   3    -0.232289448107E+04   -0.17751E-04   -0.35832E-04  2993   0.130E-02    0.291E-02
RMM:   4    -0.232289447108E+04    0.99907E-05   -0.38959E-05  2963   0.404E-03
 282 F= -.23442449E+04 E0= -.23442448E+04  d E =-.637356E-04  mag=     5.9992
       N       E                     dE             d eps       ncg     rms          rms(c)
DAV:   1    -0.232289447652E+04    0.45479E-05   -0.18184E-04  5312   0.130E-02    0.151E-02
RMM:   2    -0.232289449191E+04   -0.15387E-04   -0.55384E-05  2968   0.400E-03    0.345E-02
RMM:   3    -0.232289447708E+04    0.14824E-04   -0.13861E-05  2460   0.301E-03    0.681E-03
RMM:   4    -0.232289447704E+04    0.46086E-07   -0.27037E-06  1758   0.107E-03
 283 F= -.23442449E+04 E0= -.23442448E+04  d E =-.603259E-04  mag=     5.9992
       N       E                     dE             d eps       ncg     rms          rms(c)
DAV:   1    -0.232289440904E+04    0.68043E-04   -0.90595E-03  4528   0.911E-02    0.350E-02
RMM:   2    -0.232289455872E+04   -0.14968E-03   -0.15647E-03  5925   0.223E-02    0.208E-02
RMM:   3    -0.232289456937E+04   -0.10648E-04   -0.16358E-04  2937   0.928E-03    0.185E-02
RMM:   4    -0.232289456503E+04    0.43355E-05   -0.17186E-05  2929   0.286E-03
 284 F= -.23442449E+04 E0= -.23442449E+04  d E =-.354737E-04  mag=     5.9992
       N       E                     dE             d eps       ncg     rms          rms(c)
DAV:   1    -0.232289456260E+04    0.67652E-05   -0.22416E-05  4120   0.504E-03    0.973E-03
RMM:   2    -0.232289457032E+04   -0.77203E-05   -0.16825E-05  2506   0.306E-03
 285 F= -.23442449E+04 E0= -.23442449E+04  d E =-.426744E-04  mag=     5.9992
       N       E                     dE             d eps       ncg     rms          rms(c)
DAV:   1    -0.232289451501E+04    0.47596E-04   -0.64935E-03  4528   0.802E-02    0.307E-02
RMM:   2    -0.232289462089E+04   -0.10588E-03   -0.10984E-03  5822   0.198E-02    0.200E-02
RMM:   3    -0.232289462673E+04   -0.58422E-05   -0.11486E-04  2921   0.822E-03    0.153E-02
RMM:   4    -0.232289462347E+04    0.32586E-05   -0.11433E-05  2884   0.259E-03
 286 F= -.23442449E+04 E0= -.23442449E+04  d E =-.224426E-04  mag=     5.9992
       N       E                     dE             d eps       ncg     rms          rms(c)
DAV:   1    -0.232289462182E+04    0.49123E-05   -0.14625E-05  4000   0.426E-03    0.782E-03
RMM:   2    -0.232289462573E+04   -0.39108E-05   -0.10464E-05  2333   0.268E-03
 287 F= -.23442449E+04 E0= -.23442449E+04  d E =-.257587E-04  mag=     5.9992
       N       E                     dE             d eps       ncg     rms          rms(c)
DAV:   1    -0.232289460820E+04    0.13617E-04   -0.51517E-03  4528   0.732E-02    0.277E-02
RMM:   2    -0.232289468520E+04   -0.77003E-04   -0.80788E-04  5670   0.175E-02    0.161E-02
RMM:   3    -0.232289469013E+04   -0.49232E-05   -0.84292E-05  2911   0.735E-03
 288 F= -.23442450E+04 E0= -.23442449E+04  d E =-.172830E-04  mag=     5.9992
       N       E                     dE             d eps       ncg     rms          rms(c)
DAV:   1    -0.232289468217E+04    0.30315E-05   -0.87100E-05  5304   0.101E-02    0.808E-03
RMM:   2    -0.232289468496E+04   -0.27867E-05   -0.14762E-05  2503   0.255E-03
 289 F= -.23442450E+04 E0= -.23442449E+04  d E =-.176148E-04  mag=     5.9992
       N       E                     dE             d eps       ncg     rms          rms(c)
DAV:   1    -0.232289468934E+04   -0.71647E-05   -0.31349E-03  4480   0.563E-02    0.204E-02
RMM:   2    -0.232289473589E+04   -0.46556E-04   -0.48580E-04  4839   0.137E-02    0.120E-02
RMM:   3    -0.232289473947E+04   -0.35797E-05   -0.52927E-05  2841   0.644E-03
 290 F= -.23442450E+04 E0= -.23442449E+04  d E =-.151239E-04  mag=     5.9992
       N       E                     dE             d eps       ncg     rms          rms(c)
DAV:   1    -0.232289473744E+04   -0.15504E-05   -0.76722E-06  3712   0.373E-03    0.633E-03
RMM:   2    -0.232289473904E+04   -0.15966E-05   -0.43577E-06  2272   0.190E-03
 291 F= -.23442450E+04 E0= -.23442449E+04  d E =-.152722E-04  mag=     5.9992
       N       E                     dE             d eps       ncg     rms          rms(c)
DAV:   1    -0.232289473863E+04   -0.11887E-05   -0.25772E-03  4448   0.509E-02    0.185E-02
RMM:   2    -0.232289477729E+04   -0.38659E-04   -0.39343E-04  4479   0.122E-02    0.147E-02
RMM:   3    -0.232289477977E+04   -0.24816E-05   -0.46404E-05  2806   0.622E-03
 292 F= -.23442450E+04 E0= -.23442449E+04  d E =-.178947E-04  mag=     5.9992
       N       E                     dE             d eps       ncg     rms          rms(c)
DAV:   1    -0.232289478026E+04   -0.29649E-05   -0.48927E-05  4584   0.732E-03    0.676E-03
RMM:   2    -0.232289478270E+04   -0.24439E-05   -0.11882E-05  2459   0.284E-03
 293 F= -.23442450E+04 E0= -.23442449E+04  d E =-.179013E-04  mag=     5.9992
       N       E                     dE             d eps       ncg     rms          rms(c)
DAV:   1    -0.232289476737E+04    0.12887E-04   -0.23489E-03  4416   0.461E-02    0.164E-02
RMM:   2    -0.232289480722E+04   -0.39848E-04   -0.40746E-04  4317   0.118E-02    0.119E-02
RMM:   3    -0.232289481015E+04   -0.29372E-05   -0.44925E-05  2630   0.588E-03
 294 F= -.23442450E+04 E0= -.23442450E+04  d E =-.971597E-05  mag=     5.9992
       N       E                     dE             d eps       ncg     rms          rms(c)
DAV:   1    -0.232289480945E+04   -0.22378E-05   -0.92926E-06  3600   0.345E-03    0.554E-03
RMM:   2    -0.232289481003E+04   -0.57576E-06   -0.27741E-06  2255   0.179E-03
 295 F= -.23442450E+04 E0= -.23442450E+04  d E =-.902433E-05  mag=     5.9992
       N       E                     dE             d eps       ncg     rms          rms(c)
DAV:   1    -0.232289482387E+04   -0.14420E-04   -0.22787E-03  4416   0.459E-02    0.165E-02
RMM:   2    -0.232289486175E+04   -0.37872E-04   -0.38868E-04  4209   0.113E-02    0.116E-02
RMM:   3    -0.232289486439E+04   -0.26464E-05   -0.43219E-05  2595   0.585E-03
 296 F= -.23442450E+04 E0= -.23442450E+04  d E =-.166422E-04  mag=     5.9992
       N       E                     dE             d eps       ncg     rms          rms(c)
DAV:   1    -0.232289487176E+04   -0.10012E-04   -0.20109E-04  5088   0.138E-02    0.673E-03
RMM:   2    -0.232289487548E+04   -0.37236E-05   -0.39204E-05  2551   0.383E-03
 297 F= -.23442450E+04 E0= -.23442450E+04  d E =-.164965E-04  mag=     5.9992
       N       E                     dE             d eps       ncg     rms          rms(c)
DAV:   1    -0.232289488871E+04   -0.16948E-04   -0.13937E-03  4384   0.355E-02    0.132E-02
RMM:   2    -0.232289491438E+04   -0.25671E-04   -0.25860E-04  3755   0.972E-03    0.113E-02
RMM:   3    -0.232289491572E+04   -0.13464E-05   -0.31336E-05  2442   0.543E-03
 298 F= -.23442450E+04 E0= -.23442450E+04  d E =-.128024E-04  mag=     5.9992
       N       E                     dE             d eps       ncg     rms          rms(c)
DAV:   1    -0.232289492050E+04   -0.61279E-05   -0.67583E-05  4480   0.808E-03    0.613E-03
RMM:   2    -0.232289492329E+04   -0.27884E-05   -0.16560E-05  2413   0.292E-03
 299 F= -.23442450E+04 E0= -.23442450E+04  d E =-.143899E-04  mag=     5.9992
       N       E                     dE             d eps       ncg     rms          rms(c)
DAV:   1    -0.232289492474E+04   -0.42318E-05   -0.12982E-03  4304   0.338E-02    0.124E-02
RMM:   2    -0.232289494908E+04   -0.24348E-04   -0.24544E-04  3674   0.912E-03    0.109E-02
RMM:   3    -0.232289495046E+04   -0.13761E-05   -0.29118E-05  2366   0.523E-03
 300 F= -.23442450E+04 E0= -.23442450E+04  d E =-.831921E-05  mag=     5.9992
       N       E                     dE             d eps       ncg     rms          rms(c)
DAV:   1    -0.232289495345E+04   -0.43702E-05   -0.57139E-05  3856   0.734E-03    0.515E-03
RMM:   2    -0.232289495521E+04   -0.17516E-05   -0.13663E-05  2389   0.272E-03
 301 F= -.23442450E+04 E0= -.23442450E+04  d E =-.917957E-05  mag=     5.9992
