       N       E                     dE             d eps       ncg     rms          rms(c)
DAV:   1     0.127743211617E+05    0.12774E+05   -0.83258E+05  4448   0.144E+03
DAV:   2    -0.107053036365E+04   -0.13845E+05   -0.13266E+05  5336   0.330E+02
DAV:   3    -0.247672561218E+04   -0.14062E+04   -0.13932E+04  5344   0.111E+02
DAV:   4    -0.252122104830E+04   -0.44495E+02   -0.44234E+02  6696   0.291E+01
DAV:   5    -0.252208500407E+04   -0.86396E+00   -0.86224E+00  5632   0.325E+00    0.170E+02
RMM:   6    -0.147647879810E+04    0.10456E+04   -0.19443E+03  4413   0.387E+01    0.728E+01
RMM:   7    -0.165045590735E+04   -0.17398E+03   -0.28279E+02  4982   0.138E+01    0.491E+01
RMM:   8    -0.170777330901E+04   -0.57317E+02   -0.44612E+01  5295   0.693E+00    0.433E+01
RMM:   9    -0.177936272441E+04   -0.71589E+02   -0.60277E+01  4891   0.715E+00    0.347E+01
RMM:  10    -0.193106595837E+04   -0.15170E+03   -0.72473E+01  5175   0.828E+00    0.205E+01
RMM:  11    -0.202468867802E+04   -0.93623E+02   -0.39260E+01  5090   0.525E+00    0.155E+01
RMM:  12    -0.213860549302E+04   -0.11392E+03   -0.65027E+01  4567   0.601E+00    0.117E+01
RMM:  13    -0.225574669078E+04   -0.11714E+03   -0.10103E+02  4434   0.701E+00    0.733E+00
RMM:  14    -0.230188932874E+04   -0.46143E+02   -0.45666E+01  4535   0.501E+00    0.383E+00
RMM:  15    -0.231299492868E+04   -0.11106E+02   -0.13534E+01  4943   0.293E+00    0.214E+00
RMM:  16    -0.231533779180E+04   -0.23429E+01   -0.26971E+00  5255   0.113E+00    0.131E+00
RMM:  17    -0.231613347164E+04   -0.79568E+00   -0.61498E-01  4767   0.550E-01    0.676E-01
RMM:  18    -0.231633324826E+04   -0.19978E+00   -0.16053E-01  4982   0.297E-01    0.384E-01
RMM:  19    -0.231640504250E+04   -0.71794E-01   -0.48450E-02  4600   0.153E-01    0.234E-01
RMM:  20    -0.231643650787E+04   -0.31465E-01   -0.14136E-02  4613   0.998E-02    0.143E-01
RMM:  21    -0.231645256447E+04   -0.16057E-01   -0.62790E-03  4548   0.668E-02    0.825E-02
RMM:  22    -0.231646189117E+04   -0.93267E-02   -0.30186E-03  4621   0.476E-02    0.623E-02
RMM:  23    -0.231646956510E+04   -0.76739E-02   -0.22673E-03  4450   0.377E-02    0.410E-02
RMM:  24    -0.231647355251E+04   -0.39874E-02   -0.14815E-03  4630   0.301E-02    0.202E-02
RMM:  25    -0.231647527044E+04   -0.17179E-02   -0.69138E-04  4151   0.212E-02    0.128E-02
RMM:  26    -0.231647560476E+04   -0.33432E-03   -0.13742E-04  3894   0.115E-02    0.764E-03
RMM:  27    -0.231647586787E+04   -0.26311E-03   -0.73495E-05  3581   0.700E-03    0.399E-03
RMM:  28    -0.231647595466E+04   -0.86793E-04   -0.23793E-05  3132   0.536E-03    0.293E-03
RMM:  29    -0.231647600366E+04   -0.48999E-04   -0.15321E-05  2968   0.373E-03    0.152E-03
RMM:  30    -0.231647601621E+04   -0.12550E-04   -0.60278E-06  2766   0.297E-03    0.102E-03
RMM:  31    -0.231647601972E+04   -0.35144E-05   -0.29855E-06  2373   0.195E-03
   1 F= -.23369961E+04 E0= -.23369961E+04  d E =-.233700E+04  mag=     4.0000
       N       E                     dE             d eps       ncg     rms          rms(c)
DAV:   1    -0.231642591161E+04    0.50105E-01   -0.99366E+00  5112   0.223E+00    0.996E-01
RMM:   2    -0.231661607327E+04   -0.19016E+00   -0.19332E+00  6204   0.583E-01    0.661E-01
RMM:   3    -0.231662981734E+04   -0.13744E-01   -0.18074E-01  5631   0.213E-01    0.564E-01
RMM:   4    -0.231662906151E+04    0.75584E-03   -0.18887E-02  5787   0.458E-02    0.437E-01
RMM:   5    -0.231662683966E+04    0.22218E-02   -0.43579E-03  5156   0.279E-02    0.213E-01
RMM:   6    -0.231662637476E+04    0.46490E-03   -0.16935E-03  5062   0.210E-02    0.705E-02
RMM:   7    -0.231662632144E+04    0.53321E-04   -0.31821E-04  4072   0.130E-02    0.317E-02
RMM:   8    -0.231662631475E+04    0.66847E-05   -0.75474E-05  3115   0.603E-03
   2 F= -.23371450E+04 E0= -.23371450E+04  d E =-.148915E+00  mag=     4.0000
       N       E                     dE             d eps       ncg     rms          rms(c)
DAV:   1    -0.231633901017E+04    0.28731E+00   -0.17686E+01  4656   0.298E+00    0.132E+00
RMM:   2    -0.231668593606E+04   -0.34693E+00   -0.35352E+00  6208   0.830E-01    0.852E-01
RMM:   3    -0.231670726072E+04   -0.21325E-01   -0.28730E-01  5641   0.282E-01    0.727E-01
RMM:   4    -0.231670588641E+04    0.13743E-02   -0.32244E-02  5992   0.599E-02    0.546E-01
RMM:   5    -0.231670226149E+04    0.36249E-02   -0.75813E-03  5403   0.377E-02    0.294E-01
RMM:   6    -0.231670137267E+04    0.88881E-03   -0.30142E-03  5271   0.279E-02    0.965E-02
RMM:   7    -0.231670125401E+04    0.11867E-03   -0.54281E-04  4509   0.175E-02    0.437E-02
RMM:   8    -0.231670123174E+04    0.22265E-04   -0.13496E-04  3546   0.777E-03    0.190E-02
RMM:   9    -0.231670122396E+04    0.77820E-05   -0.31349E-05  2987   0.542E-03
   3 F= -.23372190E+04 E0= -.23372190E+04  d E =-.222861E+00  mag=     4.0000
       N       E                     dE             d eps       ncg     rms          rms(c)
DAV:   1    -0.231652922686E+04    0.17200E+00   -0.12697E+01  4584   0.289E+00    0.118E+00
RMM:   2    -0.231673470540E+04   -0.20548E+00   -0.21504E+00  5929   0.732E-01    0.774E-01
RMM:   3    -0.231675062207E+04   -0.15917E-01   -0.21380E-01  5574   0.289E-01    0.742E-01
RMM:   4    -0.231674724771E+04    0.33744E-02   -0.21189E-02  6149   0.595E-02    0.437E-01
RMM:   5    -0.231674506659E+04    0.21811E-02   -0.61167E-03  5380   0.376E-02    0.234E-01
RMM:   6    -0.231674447506E+04    0.59153E-03   -0.26640E-03  5076   0.283E-02    0.913E-02
RMM:   7    -0.231674432732E+04    0.14775E-03   -0.49276E-04  4583   0.190E-02    0.387E-02
RMM:   8    -0.231674431066E+04    0.16654E-04   -0.13211E-04  3314   0.661E-03    0.179E-02
RMM:   9    -0.231674430303E+04    0.76307E-05   -0.21863E-05  2923   0.488E-03
   4 F= -.23372611E+04 E0= -.23372611E+04  d E =-.420984E-01  mag=     4.0000
       N       E                     dE             d eps       ncg     rms          rms(c)
DAV:   1    -0.231673617453E+04    0.81361E-02   -0.77483E-01  4664   0.724E-01    0.294E-01
RMM:   2    -0.231674869038E+04   -0.12516E-01   -0.12989E-01  5785   0.173E-01    0.213E-01
RMM:   3    -0.231674968773E+04   -0.99736E-03   -0.13264E-02  5078   0.919E-02    0.194E-01
RMM:   4    -0.231674942603E+04    0.26170E-03   -0.13710E-03  4167   0.155E-02    0.103E-01
RMM:   5    -0.231674928433E+04    0.14170E-03   -0.30334E-04  4140   0.111E-02    0.447E-02
RMM:   6    -0.231674926575E+04    0.18579E-04   -0.11749E-04  3682   0.837E-03    0.124E-02
RMM:   7    -0.231674926389E+04    0.18647E-05   -0.16688E-05  2873   0.537E-03
   5 F= -.23372663E+04 E0= -.23372663E+04  d E =-.472882E-01  mag=     4.0000
       N       E                     dE             d eps       ncg     rms          rms(c)
DAV:   1    -0.231674727116E+04    0.19946E-02   -0.14044E+00  4528   0.960E-01    0.409E-01
RMM:   2    -0.231677252010E+04   -0.25249E-01   -0.26051E-01  5795   0.228E-01    0.227E-01
RMM:   3    -0.231677427500E+04   -0.17549E-02   -0.23978E-02  5266   0.102E-01    0.149E-01
RMM:   4    -0.231677434479E+04   -0.69793E-04   -0.25744E-03  4762   0.207E-02    0.143E-01
RMM:   5    -0.231677420176E+04    0.14303E-03   -0.62360E-04  4571   0.145E-02    0.104E-01
RMM:   6    -0.231677407992E+04    0.12185E-03   -0.19927E-04  4045   0.911E-03    0.232E-02
RMM:   7    -0.231677407720E+04    0.27200E-05   -0.40403E-05  2993   0.676E-03
   6 F= -.23372903E+04 E0= -.23372903E+04  d E =-.240746E-01  mag=     4.0000
       N       E                     dE             d eps       ncg     rms          rms(c)
DAV:   1    -0.231671458387E+04    0.59496E-01   -0.39910E+00  4496   0.161E+00    0.689E-01
RMM:   2    -0.231678578745E+04   -0.71204E-01   -0.73638E-01  5845   0.381E-01    0.391E-01
RMM:   3    -0.231679115246E+04   -0.53650E-02   -0.72328E-02  5375   0.164E-01    0.280E-01
RMM:   4    -0.231679135229E+04   -0.19982E-03   -0.73299E-03  5334   0.334E-02    0.253E-01
RMM:   5    -0.231679084804E+04    0.50425E-03   -0.18163E-03  5126   0.226E-02    0.168E-01
RMM:   6    -0.231679050854E+04    0.33949E-03   -0.62336E-04  4699   0.152E-02    0.446E-02
RMM:   7    -0.231679048620E+04    0.22343E-04   -0.12989E-04  4026   0.109E-02    0.203E-02
RMM:   8    -0.231679048475E+04    0.14507E-05   -0.34576E-05  3096   0.477E-03
   7 F= -.23373055E+04 E0= -.23373055E+04  d E =-.392374E-01  mag=     4.0000
       N       E                     dE             d eps       ncg     rms          rms(c)
DAV:   1    -0.231679241298E+04   -0.19268E-02   -0.80448E-01  4680   0.747E-01    0.297E-01
RMM:   2    -0.231680483281E+04   -0.12420E-01   -0.12680E-01  5956   0.161E-01    0.159E-01
RMM:   3    -0.231680577581E+04   -0.94300E-03   -0.12609E-02  5246   0.686E-02    0.122E-01
RMM:   4    -0.231680581784E+04   -0.42027E-04   -0.13211E-03  3774   0.139E-02    0.108E-01
RMM:   5    -0.231680569836E+04    0.11948E-03   -0.27906E-04  3688   0.970E-03    0.561E-02
RMM:   6    -0.231680566860E+04    0.29752E-04   -0.10314E-04  3566   0.743E-03    0.149E-02
RMM:   7    -0.231680567332E+04   -0.47121E-05   -0.17014E-05  2903   0.539E-03
   8 F= -.23373202E+04 E0= -.23373202E+04  d E =-.147095E-01  mag=     4.0000
       N       E                     dE             d eps       ncg     rms          rms(c)
DAV:   1    -0.231670735502E+04    0.98314E-01   -0.72227E+00  4464   0.224E+00    0.895E-01
RMM:   2    -0.231681948067E+04   -0.11213E+00   -0.11489E+00  5941   0.492E-01    0.518E-01
RMM:   3    -0.231682870761E+04   -0.92269E-02   -0.12306E-01  5477   0.205E-01    0.466E-01
RMM:   4    -0.231682837073E+04    0.33689E-03   -0.11965E-02  5798   0.415E-02    0.304E-01
RMM:   5    -0.231682755786E+04    0.81287E-03   -0.25920E-03  5081   0.248E-02    0.184E-01
RMM:   6    -0.231682721654E+04    0.34132E-03   -0.10878E-03  4820   0.188E-02    0.565E-02
RMM:   7    -0.231682720897E+04    0.75683E-05   -0.18278E-04  4359   0.128E-02    0.264E-02
RMM:   8    -0.231682721612E+04   -0.71483E-05   -0.43484E-05  3073   0.496E-03
   9 F= -.23373403E+04 E0= -.23373403E+04  d E =-.348187E-01  mag=     4.0000
       N       E                     dE             d eps       ncg     rms          rms(c)
DAV:   1    -0.231683305355E+04   -0.58446E-02   -0.56157E-01  4720   0.624E-01    0.211E-01
RMM:   2    -0.231683880198E+04   -0.57484E-02   -0.60307E-02  6007   0.129E-01    0.114E-01
RMM:   3    -0.231683915051E+04   -0.34853E-03   -0.55682E-03  5132   0.457E-02    0.770E-02
RMM:   4    -0.231683917795E+04   -0.27435E-04   -0.64951E-04  3841   0.117E-02    0.820E-02
RMM:   5    -0.231683912299E+04    0.54954E-04   -0.17113E-04  3314   0.870E-03    0.457E-02
RMM:   6    -0.231683910623E+04    0.16762E-04   -0.50266E-05  3042   0.640E-03    0.900E-03
RMM:   7    -0.231683910819E+04   -0.19596E-05   -0.10389E-05  2874   0.454E-03
  10 F= -.23373518E+04 E0= -.23373518E+04  d E =-.115115E-01  mag=     4.0000
       N       E                     dE             d eps       ncg     rms          rms(c)
DAV:   1    -0.231680268199E+04    0.36424E-01   -0.50463E+00  4448   0.188E+00    0.635E-01
RMM:   2    -0.231685460385E+04   -0.51922E-01   -0.54648E-01  5992   0.393E-01    0.345E-01
RMM:   3    -0.231685782974E+04   -0.32259E-02   -0.50600E-02  5496   0.140E-01    0.253E-01
RMM:   4    -0.231685799015E+04   -0.16041E-03   -0.58011E-03  5454   0.330E-02    0.239E-01
RMM:   5    -0.231685754919E+04    0.44096E-03   -0.16742E-03  5134   0.232E-02    0.152E-01
RMM:   6    -0.231685731474E+04    0.23445E-03   -0.51040E-04  4862   0.152E-02    0.338E-02
RMM:   7    -0.231685731029E+04    0.44418E-05   -0.79205E-05  3260   0.936E-03
  11 F= -.23373689E+04 E0= -.23373689E+04  d E =-.285786E-01  mag=     4.0000
       N       E                     dE             d eps       ncg     rms          rms(c)
DAV:   1    -0.231686284285E+04   -0.55281E-02   -0.67069E-01  4608   0.651E-01    0.223E-01
RMM:   2    -0.231686871350E+04   -0.58707E-02   -0.61812E-02  6036   0.133E-01    0.124E-01
RMM:   3    -0.231686897253E+04   -0.25902E-03   -0.44623E-03  5028   0.427E-02    0.103E-01
RMM:   4    -0.231686893423E+04    0.38296E-04   -0.58172E-04  3502   0.111E-02    0.811E-02
RMM:   5    -0.231686886578E+04    0.68446E-04   -0.17412E-04  3693   0.908E-03    0.314E-02
RMM:   6    -0.231686886538E+04    0.40766E-06   -0.51390E-05  3050   0.636E-03
  12 F= -.23373802E+04 E0= -.23373802E+04  d E =-.113290E-01  mag=     4.0000
       N       E                     dE             d eps       ncg     rms          rms(c)
DAV:   1    -0.231683077853E+04    0.38087E-01   -0.60265E+00  4424   0.194E+00    0.669E-01
RMM:   2    -0.231688375664E+04   -0.52978E-01   -0.55870E-01  6030   0.402E-01    0.378E-01
RMM:   3    -0.231688622361E+04   -0.24670E-02   -0.41400E-02  5568   0.124E-01    0.330E-01
RMM:   4    -0.231688566607E+04    0.55754E-03   -0.52352E-03  5618   0.316E-02    0.236E-01
RMM:   5    -0.231688502466E+04    0.64141E-03   -0.16033E-03  5237   0.232E-02    0.976E-02
RMM:   6    -0.231688496842E+04    0.56239E-04   -0.48265E-04  4562   0.142E-02    0.320E-02
RMM:   7    -0.231688495916E+04    0.92552E-05   -0.54710E-05  3117   0.715E-03
  13 F= -.23373957E+04 E0= -.23373957E+04  d E =-.267682E-01  mag=     4.0000
       N       E                     dE             d eps       ncg     rms          rms(c)
DAV:   1    -0.231689062102E+04   -0.56526E-02   -0.10769E+00  4496   0.753E-01    0.245E-01
RMM:   2    -0.231689731263E+04   -0.66916E-02   -0.70443E-02  6007   0.150E-01    0.198E-01
RMM:   3    -0.231689755347E+04   -0.24084E-03   -0.58054E-03  5407   0.474E-02    0.174E-01
RMM:   4    -0.231689731929E+04    0.23419E-03   -0.71870E-04  3908   0.133E-02    0.784E-02
RMM:   5    -0.231689725052E+04    0.68765E-04   -0.26354E-04  4201   0.112E-02    0.283E-02
RMM:   6    -0.231689725157E+04   -0.10533E-05   -0.42942E-05  2950   0.740E-03
  14 F= -.23374077E+04 E0= -.23374077E+04  d E =-.120137E-01  mag=     4.0000
       N       E                     dE             d eps       ncg     rms          rms(c)
DAV:   1    -0.231685909064E+04    0.38160E-01   -0.96692E+00  4424   0.226E+00    0.733E-01
RMM:   2    -0.231691943398E+04   -0.60343E-01   -0.63669E-01  5965   0.458E-01    0.592E-01
RMM:   3    -0.231692183779E+04   -0.24038E-02   -0.52529E-02  5743   0.141E-01    0.541E-01
RMM:   4    -0.231691955545E+04    0.22823E-02   -0.64653E-03  5644   0.388E-02    0.237E-01
RMM:   5    -0.231691888394E+04    0.67151E-03   -0.24728E-03  5097   0.311E-02    0.916E-02
RMM:   6    -0.231691888271E+04    0.12290E-05   -0.47936E-04  4594   0.175E-02    0.386E-02
RMM:   7    -0.231691886696E+04    0.15752E-04   -0.66079E-05  3267   0.649E-03    0.187E-02
RMM:   8    -0.231691885957E+04    0.73889E-05   -0.24866E-05  2943   0.477E-03
  15 F= -.23374285E+04 E0= -.23374285E+04  d E =-.328065E-01  mag=     4.0000
       N       E                     dE             d eps       ncg     rms          rms(c)
DAV:   1    -0.231691143949E+04    0.74275E-02   -0.15903E+00  4560   0.920E-01    0.297E-01
RMM:   2    -0.231692134567E+04   -0.99062E-02   -0.10432E-01  6027   0.186E-01    0.248E-01
RMM:   3    -0.231692166891E+04   -0.32324E-03   -0.86226E-03  5566   0.582E-02    0.216E-01
RMM:   4    -0.231692131285E+04    0.35606E-03   -0.10450E-03  4494   0.160E-02    0.957E-02
RMM:   5    -0.231692119874E+04    0.11412E-03   -0.38571E-04  4436   0.132E-02    0.355E-02
RMM:   6    -0.231692119758E+04    0.11548E-05   -0.71070E-05  3136   0.877E-03
  16 F= -.23374305E+04 E0= -.23374305E+04  d E =-.348250E-01  mag=     4.0000
       N       E                     dE             d eps       ncg     rms          rms(c)
DAV:   1    -0.231692747811E+04   -0.62794E-02   -0.73511E-01  4512   0.615E-01    0.203E-01
RMM:   2    -0.231693169699E+04   -0.42189E-02   -0.43376E-02  6022   0.117E-01    0.199E-01
RMM:   3    -0.231693172008E+04   -0.23084E-04   -0.38655E-03  5038   0.352E-02    0.146E-01
RMM:   4    -0.231693154861E+04    0.17146E-03   -0.45284E-04  3367   0.101E-02    0.595E-02
RMM:   5    -0.231693150968E+04    0.38929E-04   -0.13505E-04  3585   0.779E-03    0.240E-02
RMM:   6    -0.231693151093E+04   -0.12466E-05   -0.27542E-05  2908   0.602E-03
  17 F= -.23374405E+04 E0= -.23374405E+04  d E =-.100535E-01  mag=     4.0000
       N       E                     dE             d eps       ncg     rms          rms(c)
DAV:   1    -0.231692179833E+04    0.97114E-02   -0.66162E+00  4424   0.184E+00    0.605E-01
RMM:   2    -0.231695953337E+04   -0.37735E-01   -0.38912E-01  5994   0.356E-01    0.589E-01
RMM:   3    -0.231696015594E+04   -0.62257E-03   -0.35652E-02  5759   0.113E-01    0.451E-01
RMM:   4    -0.231695850007E+04    0.16559E-02   -0.40746E-03  5380   0.296E-02    0.180E-01
RMM:   5    -0.231695812578E+04    0.37430E-03   -0.12749E-03  4781   0.213E-02    0.747E-02
RMM:   6    -0.231695813559E+04   -0.98149E-05   -0.28587E-04  4157   0.141E-02    0.259E-02
RMM:   7    -0.231695813575E+04   -0.16190E-06   -0.40086E-05  2980   0.508E-03
  18 F= -.23374664E+04 E0= -.23374664E+04  d E =-.359137E-01  mag=     4.0000
       N       E                     dE             d eps       ncg     rms          rms(c)
DAV:   1    -0.231684247772E+04    0.11566E+00   -0.26432E+01  4424   0.370E+00    0.121E+00
RMM:   2    -0.231699397043E+04   -0.15149E+00   -0.15694E+00  5990   0.718E-01    0.121E+00
RMM:   3    -0.231699868491E+04   -0.47145E-02   -0.15054E-01  5801   0.229E-01    0.101E+00
RMM:   4    -0.231699070957E+04    0.79753E-02   -0.16590E-02  5779   0.606E-02    0.370E-01
RMM:   5    -0.231698911276E+04    0.15968E-02   -0.55113E-03  5031   0.429E-02    0.170E-01
RMM:   6    -0.231698912967E+04   -0.16911E-04   -0.14711E-03  4825   0.272E-02    0.634E-02
RMM:   7    -0.231698910790E+04    0.21771E-04   -0.18004E-04  3612   0.976E-03    0.283E-02
RMM:   8    -0.231698911010E+04   -0.21974E-05   -0.51200E-05  3010   0.593E-03
  19 F= -.23374959E+04 E0= -.23374959E+04  d E =-.654435E-01  mag=     4.0000
       N       E                     dE             d eps       ncg     rms          rms(c)
DAV:   1    -0.231699711206E+04   -0.80042E-02   -0.35795E+00  4512   0.135E+00    0.481E-01
RMM:   2    -0.231702143233E+04   -0.24320E-01   -0.25585E-01  6026   0.279E-01    0.428E-01
RMM:   3    -0.231702285051E+04   -0.14182E-02   -0.24098E-02  5743   0.855E-02    0.410E-01
RMM:   4    -0.231702157267E+04    0.12778E-02   -0.27208E-03  5309   0.244E-02    0.150E-01
RMM:   5    -0.231702131397E+04    0.25871E-03   -0.85944E-04  4720   0.185E-02    0.626E-02
RMM:   6    -0.231702132011E+04   -0.61492E-05   -0.19445E-04  3978   0.119E-02    0.283E-02
RMM:   7    -0.231702132076E+04   -0.64456E-06   -0.29669E-05  2911   0.487E-03
  20 F= -.23375273E+04 E0= -.23375273E+04  d E =-.314075E-01  mag=     4.0000
       N       E                     dE             d eps       ncg     rms          rms(c)
DAV:   1    -0.231691767205E+04    0.10365E+00   -0.21167E+01  4424   0.327E+00    0.116E+00
RMM:   2    -0.231706177471E+04   -0.14410E+00   -0.15221E+00  6000   0.679E-01    0.106E+00
RMM:   3    -0.231707178118E+04   -0.10006E-01   -0.15313E-01  5819   0.208E-01    0.109E+00
RMM:   4    -0.231706299735E+04    0.87838E-02   -0.16679E-02  5810   0.599E-02    0.372E-01
RMM:   5    -0.231706143702E+04    0.15603E-02   -0.51868E-03  5108   0.433E-02    0.174E-01
RMM:   6    -0.231706138180E+04    0.55223E-04   -0.16947E-03  4956   0.278E-02    0.829E-02
RMM:   7    -0.231706133209E+04    0.49713E-04   -0.23269E-04  3807   0.114E-02    0.297E-02
RMM:   8    -0.231706133176E+04    0.33327E-06   -0.65019E-05  3119   0.632E-03
  21 F= -.23375655E+04 E0= -.23375655E+04  d E =-.695876E-01  mag=     4.0000
       N       E                     dE             d eps       ncg     rms          rms(c)
DAV:   1    -0.231705843652E+04    0.28956E-02   -0.59055E-01  4912   0.546E-01    0.193E-01
RMM:   2    -0.231706245949E+04   -0.40230E-02   -0.42199E-02  6090   0.112E-01    0.182E-01
RMM:   3    -0.231706267672E+04   -0.21723E-03   -0.37919E-03  5116   0.345E-02    0.175E-01
RMM:   4    -0.231706245599E+04    0.22072E-03   -0.43827E-04  3363   0.104E-02    0.619E-02
RMM:   5    -0.231706241214E+04    0.43852E-04   -0.14921E-04  3767   0.860E-03    0.262E-02
RMM:   6    -0.231706241363E+04   -0.14901E-05   -0.34352E-05  2940   0.641E-03
  22 F= -.23375663E+04 E0= -.23375663E+04  d E =-.703845E-01  mag=     4.0000
       N       E                     dE             d eps       ncg     rms          rms(c)
DAV:   1    -0.231703976005E+04    0.22652E-01   -0.46101E+00  4424   0.147E+00    0.594E-01
RMM:   2    -0.231708590896E+04   -0.46149E-01   -0.49797E-01  6122   0.330E-01    0.460E-01
RMM:   3    -0.231708980582E+04   -0.38969E-02   -0.45552E-02  5786   0.101E-01    0.529E-01
RMM:   4    -0.231708795349E+04    0.18523E-02   -0.49869E-03  5346   0.279E-02    0.197E-01
RMM:   5    -0.231708756198E+04    0.39151E-03   -0.11577E-03  4617   0.180E-02    0.946E-02
RMM:   6    -0.231708754062E+04    0.21363E-04   -0.47858E-04  4400   0.136E-02    0.477E-02
RMM:   7    -0.231708752835E+04    0.12270E-04   -0.65989E-05  2924   0.734E-03    0.152E-02
RMM:   8    -0.231708752929E+04   -0.93522E-06   -0.18672E-05  2896   0.364E-03
  23 F= -.23375903E+04 E0= -.23375903E+04  d E =-.239854E-01  mag=     4.0000
       N       E                     dE             d eps       ncg     rms          rms(c)
DAV:   1    -0.231697101759E+04    0.11651E+00   -0.12857E+01  4424   0.246E+00    0.980E-01
RMM:   2    -0.231709981729E+04   -0.12880E+00   -0.13841E+00  6166   0.555E-01    0.830E-01
RMM:   3    -0.231711067813E+04   -0.10861E-01   -0.13450E-01  5885   0.173E-01    0.923E-01
RMM:   4    -0.231710512261E+04    0.55555E-02   -0.13815E-02  5934   0.475E-02    0.335E-01
RMM:   5    -0.231710401377E+04    0.11088E-02   -0.33423E-03  5135   0.292E-02    0.170E-01
RMM:   6    -0.231710391807E+04    0.95698E-04   -0.16840E-03  4938   0.222E-02    0.919E-02
RMM:   7    -0.231710385291E+04    0.65164E-04   -0.23857E-04  3698   0.124E-02    0.295E-02
RMM:   8    -0.231710385171E+04    0.11973E-05   -0.68623E-05  3003   0.480E-03
  24 F= -.23376048E+04 E0= -.23376048E+04  d E =-.385229E-01  mag=     4.0000
       N       E                     dE             d eps       ncg     rms          rms(c)
DAV:   1    -0.231703217022E+04    0.71683E-01   -0.72607E+00  4440   0.182E+00    0.792E-01
RMM:   2    -0.231713320366E+04   -0.10103E+00   -0.10936E+00  6248   0.444E-01    0.584E-01
RMM:   3    -0.231714276728E+04   -0.95636E-02   -0.11086E-01  5890   0.146E-01    0.637E-01
RMM:   4    -0.231714081204E+04    0.19552E-02   -0.10726E-02  5612   0.372E-02    0.304E-01
RMM:   5    -0.231714005703E+04    0.75502E-03   -0.16460E-03  4790   0.195E-02    0.165E-01
RMM:   6    -0.231713990936E+04    0.14767E-03   -0.12876E-03  4859   0.185E-02    0.941E-02
RMM:   7    -0.231713985822E+04    0.51141E-04   -0.20828E-04  3406   0.119E-02    0.316E-02
RMM:   8    -0.231713985037E+04    0.78502E-05   -0.50261E-05  2901   0.481E-03
  25 F= -.23376402E+04 E0= -.23376402E+04  d E =-.353103E-01  mag=     4.0000
       N       E                     dE             d eps       ncg     rms          rms(c)
DAV:   1    -0.231691134941E+04    0.22851E+00   -0.16759E+01  4424   0.278E+00    0.120E+00
RMM:   2    -0.231714601776E+04   -0.23467E+00   -0.25175E+00  6252   0.681E-01    0.109E+00
RMM:   3    -0.231716745118E+04   -0.21433E-01   -0.27801E-01  5958   0.230E-01    0.105E+00
RMM:   4    -0.231716184146E+04    0.56097E-02   -0.25384E-02  5921   0.585E-02    0.454E-01
RMM:   5    -0.231716020402E+04    0.16374E-02   -0.41089E-03  5262   0.301E-02    0.250E-01
RMM:   6    -0.231715985132E+04    0.35270E-03   -0.30268E-03  4894   0.273E-02    0.148E-01
RMM:   7    -0.231715972717E+04    0.12414E-03   -0.52896E-04  4376   0.179E-02    0.583E-02
RMM:   8    -0.231715969291E+04    0.34262E-04   -0.11701E-04  3045   0.625E-03    0.226E-02
RMM:   9    -0.231715969026E+04    0.26549E-05   -0.38458E-05  2911   0.428E-03
  26 F= -.23376591E+04 E0= -.23376591E+04  d E =-.542285E-01  mag=     4.0000
       N       E                     dE             d eps       ncg     rms          rms(c)
DAV:   1    -0.231707599123E+04    0.83702E-01   -0.78500E+00  4520   0.218E+00    0.852E-01
RMM:   2    -0.231718809715E+04   -0.11211E+00   -0.12035E+00  6128   0.493E-01    0.721E-01
RMM:   3    -0.231719813795E+04   -0.10041E-01   -0.12420E-01  5837   0.170E-01    0.750E-01
RMM:   4    -0.231719524053E+04    0.28974E-02   -0.11892E-02  5781   0.422E-02    0.294E-01
RMM:   5    -0.231719447180E+04    0.76873E-03   -0.19047E-03  4991   0.230E-02    0.162E-01
RMM:   6    -0.231719427050E+04    0.20130E-03   -0.13189E-03  4937   0.210E-02    0.100E-01
RMM:   7    -0.231719420928E+04    0.61219E-04   -0.20891E-04  4211   0.134E-02    0.317E-02
RMM:   8    -0.231719419875E+04    0.10533E-04   -0.44307E-05  2922   0.461E-03    0.137E-02
RMM:   9    -0.231719419859E+04    0.16278E-06   -0.13889E-05  2888   0.332E-03
  27 F= -.23376933E+04 E0= -.23376933E+04  d E =-.342079E-01  mag=     4.0000
       N       E                     dE             d eps       ncg     rms          rms(c)
DAV:   1    -0.231714482706E+04    0.49372E-01   -0.38474E+00  4528   0.152E+00    0.589E-01
RMM:   2    -0.231719871196E+04   -0.53885E-01   -0.58072E-01  6117   0.341E-01    0.466E-01
RMM:   3    -0.231720393052E+04   -0.52186E-02   -0.58261E-02  5791   0.118E-01    0.535E-01
RMM:   4    -0.231720245867E+04    0.14718E-02   -0.57353E-03  5437   0.293E-02    0.204E-01
RMM:   5    -0.231720208059E+04    0.37808E-03   -0.89373E-04  4621   0.164E-02    0.111E-01
RMM:   6    -0.231720198494E+04    0.95648E-04   -0.62903E-04  4783   0.153E-02    0.715E-02
RMM:   7    -0.231720195259E+04    0.32354E-04   -0.91878E-05  3267   0.943E-03    0.184E-02
RMM:   8    -0.231720194942E+04    0.31710E-05   -0.22155E-05  2892   0.407E-03
  28 F= -.23377008E+04 E0= -.23377008E+04  d E =-.417578E-01  mag=     4.0000
       N       E                     dE             d eps       ncg     rms          rms(c)
DAV:   1    -0.231712778414E+04    0.74168E-01   -0.78432E+00  4424   0.222E+00    0.811E-01
RMM:   2    -0.231722501478E+04   -0.97231E-01   -0.10508E+00  6053   0.476E-01    0.700E-01
RMM:   3    -0.231723363305E+04   -0.86183E-02   -0.10741E-01  5759   0.167E-01    0.750E-01
RMM:   4    -0.231723082936E+04    0.28037E-02   -0.10403E-02  5733   0.411E-02    0.262E-01
RMM:   5    -0.231723024790E+04    0.58146E-03   -0.16563E-03  4903   0.220E-02    0.166E-01
RMM:   6    -0.231723003569E+04    0.21221E-03   -0.10553E-03  4922   0.199E-02    0.105E-01
RMM:   7    -0.231722996098E+04    0.74705E-04   -0.19441E-04  4203   0.126E-02    0.275E-02
RMM:   8    -0.231722994908E+04    0.11899E-04   -0.35626E-05  2930   0.447E-03    0.134E-02
RMM:   9    -0.231722994547E+04    0.36086E-05   -0.13036E-05  2874   0.351E-03
  29 F= -.23377285E+04 E0= -.23377285E+04  d E =-.276382E-01  mag=     4.0000
       N       E                     dE             d eps       ncg     rms          rms(c)
DAV:   1    -0.231722346746E+04    0.64816E-02   -0.62739E-01  4608   0.627E-01    0.225E-01
RMM:   2    -0.231723102140E+04   -0.75539E-02   -0.82519E-02  6067   0.132E-01    0.152E-01
RMM:   3    -0.231723177213E+04   -0.75073E-03   -0.79221E-03  5186   0.450E-02    0.192E-01
RMM:   4    -0.231723159586E+04    0.17626E-03   -0.79319E-04  3197   0.113E-02    0.740E-02
RMM:   5    -0.231723154642E+04    0.49444E-04   -0.12656E-04  3152   0.753E-03    0.450E-02
RMM:   6    -0.231723153021E+04    0.16214E-04   -0.86750E-05  3454   0.731E-03    0.288E-02
RMM:   7    -0.231723152484E+04    0.53702E-05   -0.14317E-05  2883   0.516E-03
  30 F= -.23377299E+04 E0= -.23377299E+04  d E =-.291139E-01  mag=     4.0000
       N       E                     dE             d eps       ncg     rms          rms(c)
DAV:   1    -0.231717092100E+04    0.60609E-01   -0.85365E+00  4424   0.242E+00    0.735E-01
RMM:   2    -0.231725222529E+04   -0.81304E-01   -0.86684E-01  6021   0.467E-01    0.666E-01
RMM:   3    -0.231725900019E+04   -0.67749E-02   -0.85674E-02  5666   0.163E-01    0.707E-01
RMM:   4    -0.231725635494E+04    0.26452E-02   -0.87696E-03  5708   0.406E-02    0.269E-01
RMM:   5    -0.231725567342E+04    0.68152E-03   -0.16831E-03  4950   0.238E-02    0.141E-01
RMM:   6    -0.231725555137E+04    0.12206E-03   -0.10034E-03  4754   0.198E-02    0.915E-02
RMM:   7    -0.231725549979E+04    0.51575E-04   -0.15666E-04  3558   0.118E-02    0.257E-02
RMM:   8    -0.231725549530E+04    0.44953E-05   -0.33334E-05  2916   0.427E-03
  31 F= -.23377525E+04 E0= -.23377525E+04  d E =-.225060E-01  mag=     4.0000
       N       E                     dE             d eps       ncg     rms          rms(c)
DAV:   1    -0.231724947570E+04    0.60241E-02   -0.78564E-01  4544   0.736E-01    0.221E-01
RMM:   2    -0.231725681147E+04   -0.73358E-02   -0.79190E-02  5944   0.139E-01    0.157E-01
RMM:   3    -0.231725747220E+04   -0.66073E-03   -0.72071E-03  5144   0.502E-02    0.194E-01
RMM:   4    -0.231725728044E+04    0.19175E-03   -0.77784E-04  3411   0.121E-02    0.865E-02
RMM:   5    -0.231725721317E+04    0.67271E-04   -0.15188E-04  3415   0.850E-03    0.398E-02
RMM:   6    -0.231725720542E+04    0.77574E-05   -0.85920E-05  3385   0.748E-03
  32 F= -.23377537E+04 E0= -.23377537E+04  d E =-.237701E-01  mag=     4.0000
       N       E                     dE             d eps       ncg     rms          rms(c)
DAV:   1    -0.231722241664E+04    0.34797E-01   -0.71352E+00  4424   0.235E+00    0.669E-01
RMM:   2    -0.231727947487E+04   -0.57058E-01   -0.60562E-01  5875   0.430E-01    0.582E-01
RMM:   3    -0.231728446081E+04   -0.49859E-02   -0.56432E-02  5556   0.151E-01    0.726E-01
RMM:   4    -0.231728126387E+04    0.31969E-02   -0.62447E-03  5616   0.378E-02    0.190E-01
RMM:   5    -0.231728083995E+04    0.42392E-03   -0.12727E-03  4700   0.217E-02    0.102E-01
RMM:   6    -0.231728076481E+04    0.75138E-04   -0.58957E-04  4824   0.180E-02    0.582E-02
RMM:   7    -0.231728074116E+04    0.23654E-04   -0.73762E-05  3413   0.933E-03    0.162E-02
RMM:   8    -0.231728073711E+04    0.40460E-05   -0.16335E-05  2887   0.356E-03
  33 F= -.23377758E+04 E0= -.23377758E+04  d E =-.221139E-01  mag=     4.0000
       N       E                     dE             d eps       ncg     rms          rms(c)
DAV:   1    -0.231719190584E+04    0.88835E-01   -0.12198E+01  4424   0.308E+00    0.882E-01
RMM:   2    -0.231729120061E+04   -0.99295E-01   -0.10466E+00  5922   0.561E-01    0.843E-01
RMM:   3    -0.231729878873E+04   -0.75881E-02   -0.98897E-02  5582   0.203E-01    0.954E-01
RMM:   4    -0.231729322274E+04    0.55660E-02   -0.10719E-02  5676   0.498E-02    0.246E-01
RMM:   5    -0.231729246802E+04    0.75472E-03   -0.22085E-03  4817   0.286E-02    0.132E-01
RMM:   6    -0.231729231944E+04    0.14858E-03   -0.10536E-03  4887   0.234E-02    0.673E-02
RMM:   7    -0.231729228264E+04    0.36800E-04   -0.12608E-04  4021   0.116E-02    0.213E-02
RMM:   8    -0.231729227496E+04    0.76881E-05   -0.27768E-05  2920   0.403E-03
  34 F= -.23377856E+04 E0= -.23377856E+04  d E =-.318366E-01  mag=     4.0000
       N       E                     dE             d eps       ncg     rms          rms(c)
DAV:   1    -0.231725495930E+04    0.37323E-01   -0.70368E+00  4424   0.232E+00    0.666E-01
RMM:   2    -0.231731471249E+04   -0.59753E-01   -0.61404E-01  5934   0.425E-01    0.735E-01
RMM:   3    -0.231731749468E+04   -0.27822E-02   -0.51061E-02  5557   0.150E-01    0.711E-01
RMM:   4    -0.231731427169E+04    0.32230E-02   -0.61151E-03  5513   0.373E-02    0.187E-01
RMM:   5    -0.231731382053E+04    0.45116E-03   -0.13139E-03  4877   0.231E-02    0.102E-01
RMM:   6    -0.231731375659E+04    0.63935E-04   -0.49281E-04  4639   0.178E-02    0.433E-02
RMM:   7    -0.231731374536E+04    0.11229E-04   -0.68972E-05  3199   0.764E-03    0.160E-02
RMM:   8    -0.231731374072E+04    0.46443E-05   -0.13520E-05  2884   0.377E-03
  35 F= -.23378057E+04 E0= -.23378057E+04  d E =-.201811E-01  mag=     4.0000
       N       E                     dE             d eps       ncg     rms          rms(c)
DAV:   1    -0.231721683420E+04    0.96911E-01   -0.13005E+01  4424   0.315E+00    0.909E-01
RMM:   2    -0.231732725448E+04   -0.11042E+00   -0.11311E+00  5911   0.581E-01    0.104E+00
RMM:   3    -0.231733188358E+04   -0.46291E-02   -0.97487E-02  5573   0.211E-01    0.954E-01
RMM:   4    -0.231732607556E+04    0.58080E-02   -0.11285E-02  5621   0.513E-02    0.254E-01
RMM:   5    -0.231732522195E+04    0.85361E-03   -0.24481E-03  4949   0.315E-02    0.138E-01
RMM:   6    -0.231732509221E+04    0.12974E-03   -0.93237E-04  4849   0.238E-02    0.626E-02
RMM:   7    -0.231732506496E+04    0.27250E-04   -0.12897E-04  3731   0.100E-02    0.223E-02
RMM:   8    -0.231732505585E+04    0.91123E-05   -0.26876E-05  2913   0.450E-03
  36 F= -.23378153E+04 E0= -.23378153E+04  d E =-.297393E-01  mag=     4.0000
       N       E                     dE             d eps       ncg     rms          rms(c)
DAV:   1    -0.231729763826E+04    0.27427E-01   -0.49628E+00  4480   0.195E+00    0.659E-01
RMM:   2    -0.231734728825E+04   -0.49650E-01   -0.48370E-01  5940   0.377E-01    0.931E-01
RMM:   3    -0.231734637014E+04    0.91811E-03   -0.42246E-02  5618   0.135E-01    0.577E-01
RMM:   4    -0.231734417433E+04    0.21958E-02   -0.49424E-03  5198   0.334E-02    0.165E-01
RMM:   5    -0.231734377851E+04    0.39582E-03   -0.91502E-04  5164   0.224E-02    0.105E-01
RMM:   6    -0.231734371973E+04    0.58781E-04   -0.39402E-04  4670   0.156E-02    0.348E-02
RMM:   7    -0.231734371279E+04    0.69401E-05   -0.52100E-05  3096   0.700E-03
  37 F= -.23378328E+04 E0= -.23378328E+04  d E =-.174932E-01  mag=     4.0000
       N       E                     dE             d eps       ncg     rms          rms(c)
DAV:   1    -0.231730400769E+04    0.39712E-01   -0.50890E+00  4440   0.198E+00    0.668E-01
RMM:   2    -0.231735497361E+04   -0.50966E-01   -0.49603E-01  5926   0.380E-01    0.953E-01
RMM:   3    -0.231735385668E+04    0.11169E-02   -0.42924E-02  5580   0.135E-01    0.584E-01
RMM:   4    -0.231735159468E+04    0.22620E-02   -0.50335E-03  5174   0.339E-02    0.167E-01
RMM:   5    -0.231735118257E+04    0.41211E-03   -0.95963E-04  5185   0.228E-02    0.107E-01
RMM:   6    -0.231735111202E+04    0.70547E-04   -0.40778E-04  4687   0.159E-02    0.355E-02
RMM:   7    -0.231735110228E+04    0.97456E-05   -0.55477E-05  3157   0.716E-03
  38 F= -.23378390E+04 E0= -.23378390E+04  d E =-.236637E-01  mag=     4.0000
       N       E                     dE             d eps       ncg     rms          rms(c)
DAV:   1    -0.231731044253E+04    0.40669E-01   -0.52739E+00  4440   0.185E+00    0.692E-01
RMM:   2    -0.231737851796E+04   -0.68075E-01   -0.63726E-01  6072   0.384E-01    0.122E+00
RMM:   3    -0.231737367356E+04    0.48444E-02   -0.56607E-02  5718   0.131E-01    0.476E-01
RMM:   4    -0.231737250501E+04    0.11685E-02   -0.62552E-03  5184   0.301E-02    0.181E-01
RMM:   5    -0.231737210416E+04    0.40086E-03   -0.90530E-04  4904   0.188E-02    0.162E-01
RMM:   6    -0.231737194758E+04    0.15657E-03   -0.73904E-04  4553   0.177E-02    0.397E-02
RMM:   7    -0.231737193557E+04    0.12011E-04   -0.55428E-05  3018   0.712E-03    0.201E-02
RMM:   8    -0.231737193125E+04    0.43171E-05   -0.15430E-05  2891   0.333E-03
  39 F= -.23378587E+04 E0= -.23378587E+04  d E =-.196994E-01  mag=     4.0000
       N       E                     dE             d eps       ncg     rms          rms(c)
DAV:   1    -0.231716123932E+04    0.21070E+00   -0.19284E+01  4424   0.354E+00    0.133E+00
RMM:   2    -0.231741216807E+04   -0.25093E+00   -0.23572E+00  6099   0.739E-01    0.232E+00
RMM:   3    -0.231739553991E+04    0.16628E-01   -0.21493E-01  5808   0.248E-01    0.926E-01
RMM:   4    -0.231739117065E+04    0.43693E-02   -0.23459E-02  5368   0.576E-02    0.352E-01
RMM:   5    -0.231738958942E+04    0.15812E-02   -0.35005E-03  5104   0.357E-02    0.305E-01
RMM:   6    -0.231738899166E+04    0.59776E-03   -0.27624E-03  4927   0.330E-02    0.779E-02
RMM:   7    -0.231738894627E+04    0.45384E-04   -0.21996E-04  3919   0.125E-02    0.423E-02
RMM:   8    -0.231738892572E+04    0.20556E-04   -0.54855E-05  2960   0.516E-03    0.233E-02
RMM:   9    -0.231738892208E+04    0.36381E-05   -0.37715E-05  2915   0.459E-03
  40 F= -.23378734E+04 E0= -.23378734E+04  d E =-.344664E-01  mag=     4.0000
       N       E                     dE             d eps       ncg     rms          rms(c)
DAV:   1    -0.231731403609E+04    0.74890E-01   -0.72486E+00  4424   0.197E+00    0.811E-01
RMM:   2    -0.231742036018E+04   -0.10632E+00   -0.96739E-01  6174   0.442E-01    0.164E+00
RMM:   3    -0.231740894470E+04    0.11415E-01   -0.85675E-02  5812   0.147E-01    0.451E-01
RMM:   4    -0.231740817988E+04    0.76482E-03   -0.97163E-03  5168   0.339E-02    0.221E-01
RMM:   5    -0.231740772110E+04    0.45878E-03   -0.14558E-03  4984   0.212E-02    0.252E-01
RMM:   6    -0.231740733247E+04    0.38862E-03   -0.16004E-03  4816   0.221E-02    0.768E-02
RMM:   7    -0.231740729218E+04    0.40296E-04   -0.12648E-04  3098   0.781E-03    0.245E-02
RMM:   8    -0.231740728823E+04    0.39519E-05   -0.26805E-05  2892   0.408E-03
  41 F= -.23378908E+04 E0= -.23378908E+04  d E =-.174018E-01  mag=     4.0000
       N       E                     dE             d eps       ncg     rms          rms(c)
DAV:   1    -0.231735792266E+04    0.49370E-01   -0.42144E+00  4496   0.152E+00    0.624E-01
RMM:   2    -0.231742097037E+04   -0.63048E-01   -0.56821E-01  6167   0.338E-01    0.130E+00
RMM:   3    -0.231741342471E+04    0.75457E-02   -0.49432E-02  5782   0.113E-01    0.336E-01
RMM:   4    -0.231741301897E+04    0.40573E-03   -0.57376E-03  5024   0.260E-02    0.169E-01
RMM:   5    -0.231741275991E+04    0.25906E-03   -0.86013E-04  4676   0.165E-02    0.200E-01
RMM:   6    -0.231741250943E+04    0.25048E-03   -0.96653E-04  4556   0.176E-02    0.573E-02
RMM:   7    -0.231741248853E+04    0.20906E-04   -0.79774E-05  2990   0.684E-03    0.189E-02
RMM:   8    -0.231741248734E+04    0.11847E-05   -0.17306E-05  2877   0.344E-03
  42 F= -.23378953E+04 E0= -.23378953E+04  d E =-.218889E-01  mag=     4.0000
       N       E                     dE             d eps       ncg     rms          rms(c)
DAV:   1    -0.231738078244E+04    0.31706E-01   -0.36722E+00  4424   0.134E+00    0.576E-01
RMM:   2    -0.231742984298E+04   -0.49061E-01   -0.44950E-01  6058   0.299E-01    0.114E+00
RMM:   3    -0.231742405842E+04    0.57846E-02   -0.39668E-02  5702   0.100E-01    0.343E-01
RMM:   4    -0.231742356336E+04    0.49506E-03   -0.45228E-03  4878   0.245E-02    0.163E-01
RMM:   5    -0.231742328351E+04    0.27985E-03   -0.90288E-04  4936   0.180E-02    0.162E-01
RMM:   6    -0.231742311242E+04    0.17109E-03   -0.63917E-04  4507   0.148E-02    0.503E-02
RMM:   7    -0.231742309292E+04    0.19494E-04   -0.46335E-05  2948   0.647E-03    0.146E-02
RMM:   8    -0.231742309259E+04    0.33356E-06   -0.13593E-05  2880   0.322E-03
  43 F= -.23379058E+04 E0= -.23379058E+04  d E =-.105242E-01  mag=     4.0000
       N       E                     dE             d eps       ncg     rms          rms(c)
DAV:   1    -0.231741812379E+04    0.49691E-02   -0.50625E-01  4656   0.494E-01    0.211E-01
RMM:   2    -0.231742479011E+04   -0.66663E-02   -0.61583E-02  6085   0.109E-01    0.408E-01
RMM:   3    -0.231742409952E+04    0.69059E-03   -0.53775E-03  4927   0.371E-02    0.131E-01
RMM:   4    -0.231742402059E+04    0.78931E-04   -0.60920E-04  3250   0.951E-03    0.602E-02
RMM:   5    -0.231742397875E+04    0.41841E-04   -0.12529E-04  3399   0.722E-03    0.582E-02
RMM:   6    -0.231742395710E+04    0.21653E-04   -0.84134E-05  2943   0.716E-03    0.170E-02
RMM:   7    -0.231742395549E+04    0.16036E-05   -0.95471E-06  2873   0.393E-03
  44 F= -.23379067E+04 E0= -.23379067E+04  d E =-.113622E-01  mag=     4.0000
       N       E                     dE             d eps       ncg     rms          rms(c)
DAV:   1    -0.231740378197E+04    0.20175E-01   -0.29770E+00  4424   0.124E+00    0.456E-01
RMM:   2    -0.231743692801E+04   -0.33146E-01   -0.31210E-01  6038   0.252E-01    0.863E-01
RMM:   3    -0.231743414828E+04    0.27797E-02   -0.28454E-02  5667   0.869E-02    0.291E-01
RMM:   4    -0.231743376951E+04    0.37877E-03   -0.30417E-03  4805   0.205E-02    0.141E-01
RMM:   5    -0.231743352499E+04    0.24453E-03   -0.60648E-04  4462   0.147E-02    0.118E-01
RMM:   6    -0.231743343809E+04    0.86896E-04   -0.45799E-04  4135   0.139E-02    0.426E-02
RMM:   7    -0.231743342368E+04    0.14408E-04   -0.41110E-05  2943   0.631E-03    0.133E-02
RMM:   8    -0.231743342186E+04    0.18237E-05   -0.10920E-05  2873   0.304E-03
  45 F= -.23379158E+04 E0= -.23379158E+04  d E =-.914542E-02  mag=     4.0000
       N       E                     dE             d eps       ncg     rms          rms(c)
DAV:   1    -0.231740671506E+04    0.26709E-01   -0.30170E+00  4424   0.125E+00    0.459E-01
RMM:   2    -0.231744046172E+04   -0.33747E-01   -0.31713E-01  6004   0.253E-01    0.875E-01
RMM:   3    -0.231743755536E+04    0.29064E-02   -0.28702E-02  5657   0.864E-02    0.291E-01
RMM:   4    -0.231743717150E+04    0.38385E-03   -0.30863E-03  4823   0.205E-02    0.143E-01
RMM:   5    -0.231743691728E+04    0.25423E-03   -0.62866E-04  4488   0.149E-02    0.122E-01
RMM:   6    -0.231743682463E+04    0.92646E-04   -0.48505E-04  4166   0.141E-02    0.445E-02
RMM:   7    -0.231743680902E+04    0.15613E-04   -0.44529E-05  2949   0.637E-03    0.137E-02
RMM:   8    -0.231743680707E+04    0.19520E-05   -0.11630E-05  2880   0.311E-03
  46 F= -.23379189E+04 E0= -.23379189E+04  d E =-.122230E-01  mag=     4.0000
       N       E                     dE             d eps       ncg     rms          rms(c)
DAV:   1    -0.231741014651E+04    0.26663E-01   -0.40360E+00  4424   0.161E+00    0.526E-01
RMM:   2    -0.231744809911E+04   -0.37953E-01   -0.38075E-01  5854   0.303E-01    0.715E-01
RMM:   3    -0.231744831919E+04   -0.22008E-03   -0.35601E-02  5552   0.110E-01    0.456E-01
RMM:   4    -0.231744712415E+04    0.11950E-02   -0.36715E-03  5123   0.266E-02    0.156E-01
RMM:   5    -0.231744675560E+04    0.36855E-03   -0.84424E-04  4972   0.190E-02    0.757E-02
RMM:   6    -0.231744672006E+04    0.35541E-04   -0.34286E-04  4572   0.133E-02    0.429E-02
RMM:   7    -0.231744670726E+04    0.12804E-04   -0.46082E-05  2994   0.695E-03    0.156E-02
RMM:   8    -0.231744670340E+04    0.38607E-05   -0.12943E-05  2876   0.355E-03
  47 F= -.23379282E+04 E0= -.23379282E+04  d E =-.925489E-02  mag=     4.0000
       N       E                     dE             d eps       ncg     rms          rms(c)
DAV:   1    -0.231743733672E+04    0.93705E-02   -0.12437E+00  4496   0.893E-01    0.290E-01
RMM:   2    -0.231744883925E+04   -0.11503E-01   -0.11599E-01  5848   0.167E-01    0.381E-01
RMM:   3    -0.231744907569E+04   -0.23644E-03   -0.11027E-02  5398   0.630E-02    0.262E-01
RMM:   4    -0.231744867615E+04    0.39953E-03   -0.11539E-03  4504   0.150E-02    0.864E-02
RMM:   5    -0.231744855869E+04    0.11746E-03   -0.25116E-04  4085   0.110E-02    0.417E-02
RMM:   6    -0.231744854730E+04    0.11388E-04   -0.10776E-04  3781   0.877E-03    0.265E-02
RMM:   7    -0.231744854279E+04    0.45158E-05   -0.17104E-05  2876   0.550E-03
  48 F= -.23379296E+04 E0= -.23379296E+04  d E =-.107453E-01  mag=     4.0000
       N       E                     dE             d eps       ncg     rms          rms(c)
DAV:   1    -0.231743247315E+04    0.16074E-01   -0.24925E+00  4428   0.140E+00    0.411E-01
RMM:   2    -0.231745435780E+04   -0.21885E-01   -0.23129E-01  5744   0.256E-01    0.237E-01
RMM:   3    -0.231745603848E+04   -0.16807E-02   -0.20976E-02  5305   0.996E-02    0.284E-01
RMM:   4    -0.231745571769E+04    0.32079E-03   -0.22578E-03  4965   0.208E-02    0.157E-01
RMM:   5    -0.231745547229E+04    0.24540E-03   -0.50558E-04  4340   0.143E-02    0.756E-02
RMM:   6    -0.231745541564E+04    0.56649E-04   -0.30493E-04  4532   0.123E-02    0.374E-02
RMM:   7    -0.231745540467E+04    0.10973E-04   -0.35590E-05  2906   0.777E-03    0.118E-02
RMM:   8    -0.231745540374E+04    0.92396E-06   -0.11909E-05  2885   0.312E-03
  49 F= -.23379362E+04 E0= -.23379362E+04  d E =-.654835E-02  mag=     4.0000
       N       E                     dE             d eps       ncg     rms          rms(c)
DAV:   1    -0.231744749165E+04    0.79130E-02   -0.10107E+00  4464   0.894E-01    0.261E-01
RMM:   2    -0.231745631607E+04   -0.88244E-02   -0.93349E-02  5733   0.162E-01    0.144E-01
RMM:   3    -0.231745694298E+04   -0.62691E-03   -0.82496E-03  5128   0.645E-02    0.156E-01
RMM:   4    -0.231745687581E+04    0.67167E-04   -0.89325E-04  3860   0.131E-02    0.105E-01
RMM:   5    -0.231745676846E+04    0.10736E-03   -0.20687E-04  3719   0.101E-02    0.475E-02
RMM:   6    -0.231745674559E+04    0.22865E-04   -0.11935E-04  3954   0.842E-03    0.232E-02
RMM:   7    -0.231745674191E+04    0.36812E-05   -0.15272E-05  2869   0.613E-03
  50 F= -.23379373E+04 E0= -.23379373E+04  d E =-.769202E-02  mag=     4.0000
       N       E                     dE             d eps       ncg     rms          rms(c)
DAV:   1    -0.231743889469E+04    0.17851E-01   -0.26930E+00  4424   0.150E+00    0.398E-01
RMM:   2    -0.231746070611E+04   -0.21811E-01   -0.23012E-01  5667   0.267E-01    0.211E-01
RMM:   3    -0.231746203662E+04   -0.13305E-02   -0.20132E-02  5132   0.105E-01    0.165E-01
RMM:   4    -0.231746209672E+04   -0.60099E-04   -0.21638E-03  4885   0.210E-02    0.187E-01
RMM:   5    -0.231746183871E+04    0.25801E-03   -0.54094E-04  4537   0.146E-02    0.962E-02
RMM:   6    -0.231746175655E+04    0.82157E-04   -0.25923E-04  4324   0.113E-02    0.218E-02
RMM:   7    -0.231746175235E+04    0.42084E-05   -0.32223E-05  2882   0.796E-03
  51 F= -.23379424E+04 E0= -.23379424E+04  d E =-.503115E-02  mag=     4.0000
       N       E                     dE             d eps       ncg     rms          rms(c)
DAV:   1    -0.231745825964E+04    0.34969E-02   -0.43837E-01  4576   0.606E-01    0.161E-01
RMM:   2    -0.231746183470E+04   -0.35751E-02   -0.37691E-02  5683   0.108E-01    0.883E-02
RMM:   3    -0.231746205788E+04   -0.22319E-03   -0.31804E-03  4756   0.395E-02    0.844E-02
RMM:   4    -0.231746204806E+04    0.98211E-05   -0.34655E-04  3069   0.859E-03    0.704E-02
RMM:   5    -0.231746200191E+04    0.46151E-04   -0.86895E-05  3067   0.686E-03    0.312E-02
RMM:   6    -0.231746199219E+04    0.97181E-05   -0.43129E-05  3066   0.617E-03
  52 F= -.23379426E+04 E0= -.23379426E+04  d E =-.528177E-02  mag=     4.0000
       N       E                     dE             d eps       ncg     rms          rms(c)
DAV:   1    -0.231745062486E+04    0.11377E-01   -0.24599E+00  4428   0.147E+00    0.364E-01
RMM:   2    -0.231746474215E+04   -0.14117E-01   -0.15240E-01  5506   0.245E-01    0.183E-01
RMM:   3    -0.231746529098E+04   -0.54884E-03   -0.12776E-02  5034   0.887E-02    0.120E-01
RMM:   4    -0.231746527403E+04    0.16953E-04   -0.14846E-03  4695   0.214E-02    0.148E-01
RMM:   5    -0.231746517563E+04    0.98398E-04   -0.42581E-04  4287   0.150E-02    0.109E-01
RMM:   6    -0.231746509398E+04    0.81653E-04   -0.15791E-04  4158   0.927E-03    0.170E-02
RMM:   7    -0.231746509147E+04    0.25062E-05   -0.20235E-05  2866   0.634E-03
  53 F= -.23379461E+04 E0= -.23379461E+04  d E =-.346825E-02  mag=     4.0000
       N       E                     dE             d eps       ncg     rms          rms(c)
DAV:   1    -0.231746505008E+04    0.43896E-04   -0.45467E-03  5400   0.636E-02    0.167E-02
RMM:   2    -0.231746507721E+04   -0.27124E-04   -0.29064E-04  4366   0.114E-02    0.103E-02
RMM:   3    -0.231746507958E+04   -0.23748E-05   -0.28801E-05  2830   0.502E-03
  54 F= -.23379461E+04 E0= -.23379461E+04  d E =-.347229E-02  mag=     4.0000
       N       E                     dE             d eps       ncg     rms          rms(c)
DAV:   1    -0.231745851393E+04    0.65633E-02   -0.20565E+00  4428   0.133E+00    0.315E-01
RMM:   2    -0.231746900585E+04   -0.10492E-01   -0.11120E-01  5607   0.221E-01    0.177E-01
RMM:   3    -0.231746941996E+04   -0.41410E-03   -0.90359E-03  4996   0.844E-02    0.209E-01
RMM:   4    -0.231746927229E+04    0.14767E-03   -0.10420E-03  4786   0.177E-02    0.144E-01
RMM:   5    -0.231746904553E+04    0.22676E-03   -0.43846E-04  4508   0.151E-02    0.399E-02
RMM:   6    -0.231746903934E+04    0.61820E-05   -0.95183E-05  3853   0.104E-02
  55 F= -.23379504E+04 E0= -.23379504E+04  d E =-.429298E-02  mag=     4.0000
       N       E                     dE             d eps       ncg     rms          rms(c)
DAV:   1    -0.231746349987E+04    0.55457E-02   -0.10027E+00  4432   0.931E-01    0.222E-01
RMM:   2    -0.231746863819E+04   -0.51383E-02   -0.54330E-02  5651   0.155E-01    0.129E-01
RMM:   3    -0.231746892004E+04   -0.28185E-03   -0.45632E-03  4956   0.597E-02    0.178E-01
RMM:   4    -0.231746877042E+04    0.14963E-03   -0.51864E-04  3864   0.126E-02    0.884E-02
RMM:   5    -0.231746867443E+04    0.95990E-04   -0.20806E-04  4181   0.110E-02    0.288E-02
RMM:   6    -0.231746867114E+04    0.32931E-05   -0.47755E-05  3116   0.817E-03
  56 F= -.23379502E+04 E0= -.23379502E+04  d E =-.416048E-02  mag=     4.0000
       N       E                     dE             d eps       ncg     rms          rms(c)
DAV:   1    -0.231746810158E+04    0.57285E-03   -0.20945E-01  4496   0.427E-01    0.997E-02
RMM:   2    -0.231746916030E+04   -0.10587E-02   -0.11225E-02  5920   0.720E-02    0.531E-02
RMM:   3    -0.231746918222E+04   -0.21912E-04   -0.89591E-04  4123   0.253E-02    0.361E-02
RMM:   4    -0.231746919383E+04   -0.11614E-04   -0.11739E-04  3047   0.703E-03    0.621E-02
RMM:   5    -0.231746916593E+04    0.27899E-04   -0.40790E-05  2923   0.529E-03    0.183E-02
RMM:   6    -0.231746916519E+04    0.74459E-06   -0.12265E-05  2875   0.388E-03
  57 F= -.23379506E+04 E0= -.23379506E+04  d E =-.454695E-02  mag=     4.0000
       N       E                     dE             d eps       ncg     rms          rms(c)
DAV:   1    -0.231746658240E+04    0.25835E-02   -0.90444E-01  4428   0.860E-01    0.209E-01
RMM:   2    -0.231747178480E+04   -0.52024E-02   -0.54622E-02  5755   0.145E-01    0.124E-01
RMM:   3    -0.231747212934E+04   -0.34454E-03   -0.46302E-03  4984   0.548E-02    0.188E-01
RMM:   4    -0.231747194701E+04    0.18233E-03   -0.51108E-04  3469   0.117E-02    0.708E-02
RMM:   5    -0.231747187706E+04    0.69943E-04   -0.15613E-04  4005   0.934E-03    0.288E-02
RMM:   6    -0.231747187359E+04    0.34753E-05   -0.45271E-05  3048   0.773E-03
  58 F= -.23379537E+04 E0= -.23379537E+04  d E =-.305322E-02  mag=     4.0000
       N       E                     dE             d eps       ncg     rms          rms(c)
DAV:   1    -0.231745076038E+04    0.21117E-01   -0.37166E+00  4424   0.174E+00    0.428E-01
RMM:   2    -0.231747225335E+04   -0.21493E-01   -0.22576E-01  5593   0.293E-01    0.257E-01
RMM:   3    -0.231747375938E+04   -0.15060E-02   -0.19577E-02  5022   0.116E-01    0.398E-01
RMM:   4    -0.231747292302E+04    0.83637E-03   -0.21806E-03  5321   0.232E-02    0.143E-01
RMM:   5    -0.231747264998E+04    0.27304E-03   -0.61031E-04  4596   0.169E-02    0.620E-02
RMM:   6    -0.231747263091E+04    0.19066E-04   -0.23763E-04  4323   0.136E-02    0.243E-02
RMM:   7    -0.231747262923E+04    0.16844E-05   -0.28241E-05  2932   0.571E-03
  59 F= -.23379552E+04 E0= -.23379552E+04  d E =-.451760E-02  mag=     4.0000
       N       E                     dE             d eps       ncg     rms          rms(c)
DAV:   1    -0.231747177505E+04    0.85586E-03   -0.21871E-01  4560   0.422E-01    0.102E-01
RMM:   2    -0.231747301959E+04   -0.12445E-02   -0.12996E-02  5794   0.711E-02    0.658E-02
RMM:   3    -0.231747311124E+04   -0.91652E-04   -0.11363E-03  4077   0.267E-02    0.103E-01
RMM:   4    -0.231747305246E+04    0.58777E-04   -0.12159E-04  2953   0.657E-03    0.330E-02
RMM:   5    -0.231747303678E+04    0.15677E-04   -0.44985E-05  2997   0.505E-03    0.137E-02
RMM:   6    -0.231747303641E+04    0.37721E-06   -0.11138E-05  2872   0.436E-03
  60 F= -.23379554E+04 E0= -.23379554E+04  d E =-.475182E-02  mag=     4.0000
       N       E                     dE             d eps       ncg     rms          rms(c)
DAV:   1    -0.231747310067E+04   -0.63889E-04   -0.44455E-01  4428   0.584E-01    0.172E-01
RMM:   2    -0.231747521361E+04   -0.21129E-02   -0.22621E-02  5763   0.101E-01    0.894E-02
RMM:   3    -0.231747527330E+04   -0.59696E-04   -0.15605E-03  4818   0.378E-02    0.129E-01
RMM:   4    -0.231747518595E+04    0.87354E-04   -0.22202E-04  3222   0.918E-03    0.607E-02
RMM:   5    -0.231747514491E+04    0.41037E-04   -0.10693E-04  4033   0.870E-03    0.193E-02
RMM:   6    -0.231747514309E+04    0.18215E-05   -0.18072E-05  2891   0.661E-03
  61 F= -.23379577E+04 E0= -.23379577E+04  d E =-.236311E-02  mag=     4.0000
       N       E                     dE             d eps       ncg     rms          rms(c)
DAV:   1    -0.231747313693E+04    0.20080E-02   -0.51895E-01  4432   0.632E-01    0.188E-01
RMM:   2    -0.231747564515E+04   -0.25082E-02   -0.26710E-02  5525   0.109E-01    0.106E-01
RMM:   3    -0.231747577762E+04   -0.13247E-03   -0.19285E-03  4815   0.416E-02    0.177E-01
RMM:   4    -0.231747559306E+04    0.18457E-03   -0.30059E-04  3600   0.100E-02    0.573E-02
RMM:   5    -0.231747554897E+04    0.44085E-04   -0.13086E-04  4062   0.943E-03    0.198E-02
RMM:   6    -0.231747554672E+04    0.22496E-05   -0.20923E-05  2892   0.671E-03
  62 F= -.23379584E+04 E0= -.23379584E+04  d E =-.304753E-02  mag=     4.0000
       N       E                     dE             d eps       ncg     rms          rms(c)
DAV:   1    -0.231747562344E+04   -0.74468E-04   -0.63983E-01  4428   0.617E-01    0.183E-01
RMM:   2    -0.231747784378E+04   -0.22203E-02   -0.23725E-02  5569   0.102E-01    0.103E-01
RMM:   3    -0.231747793242E+04   -0.88632E-04   -0.15061E-03  4747   0.369E-02    0.172E-01
RMM:   4    -0.231747775783E+04    0.17459E-03   -0.25552E-04  3179   0.918E-03    0.562E-02
RMM:   5    -0.231747772352E+04    0.34316E-04   -0.11116E-04  3882   0.819E-03    0.193E-02
RMM:   6    -0.231747772356E+04   -0.43074E-07   -0.18378E-05  2881   0.619E-03
  63 F= -.23379607E+04 E0= -.23379607E+04  d E =-.230412E-02  mag=     4.0000
       N       E                     dE             d eps       ncg     rms          rms(c)
DAV:   1    -0.231747538963E+04    0.23339E-02   -0.91139E-01  4428   0.735E-01    0.219E-01
RMM:   2    -0.231747858079E+04   -0.31912E-02   -0.34064E-02  5618   0.121E-01    0.120E-01
RMM:   3    -0.231747867182E+04   -0.91024E-04   -0.19878E-03  4833   0.403E-02    0.196E-01
RMM:   4    -0.231747845147E+04    0.22035E-03   -0.36092E-04  3504   0.105E-02    0.689E-02
RMM:   5    -0.231747839859E+04    0.52879E-04   -0.14984E-04  4045   0.948E-03    0.223E-02
RMM:   6    -0.231747839805E+04    0.53627E-06   -0.24674E-05  2884   0.698E-03
  64 F= -.23379616E+04 E0= -.23379616E+04  d E =-.313596E-02  mag=     4.0000
       N       E                     dE             d eps       ncg     rms          rms(c)
DAV:   1    -0.231747783213E+04    0.56646E-03   -0.80038E-01  4412   0.655E-01    0.199E-01
RMM:   2    -0.231748098588E+04   -0.31538E-02   -0.33918E-02  5672   0.112E-01    0.119E-01
RMM:   3    -0.231748110335E+04   -0.11747E-03   -0.20772E-03  4851   0.388E-02    0.192E-01
RMM:   4    -0.231748088513E+04    0.21823E-03   -0.33279E-04  3262   0.101E-02    0.629E-02
RMM:   5    -0.231748083580E+04    0.49329E-04   -0.16710E-04  3978   0.938E-03    0.221E-02
RMM:   6    -0.231748083437E+04    0.14322E-05   -0.25188E-05  2886   0.695E-03
  65 F= -.23379640E+04 E0= -.23379640E+04  d E =-.242071E-02  mag=     4.0000
       N       E                     dE             d eps       ncg     rms          rms(c)
DAV:   1    -0.231747935077E+04    0.14850E-02   -0.52797E-01  4448   0.533E-01    0.162E-01
RMM:   2    -0.231748144294E+04   -0.20922E-02   -0.22499E-02  5726   0.910E-02    0.964E-02
RMM:   3    -0.231748150855E+04   -0.65613E-04   -0.13287E-03  4548   0.307E-02    0.154E-01
RMM:   4    -0.231748136971E+04    0.13883E-03   -0.21992E-04  3003   0.842E-03    0.516E-02
RMM:   5    -0.231748133548E+04    0.34232E-04   -0.11302E-04  3699   0.784E-03    0.181E-02
RMM:   6    -0.231748133412E+04    0.13614E-05   -0.17729E-05  2879   0.605E-03
  66 F= -.23379645E+04 E0= -.23379645E+04  d E =-.291017E-02  mag=     4.0000
       N       E                     dE             d eps       ncg     rms          rms(c)
DAV:   1    -0.231748051865E+04    0.81683E-03   -0.61069E-01  4412   0.629E-01    0.194E-01
RMM:   2    -0.231748365131E+04   -0.31327E-02   -0.33419E-02  5792   0.109E-01    0.124E-01
RMM:   3    -0.231748384602E+04   -0.19471E-03   -0.23292E-03  4791   0.373E-02    0.191E-01
RMM:   4    -0.231748362854E+04    0.21748E-03   -0.34556E-04  3147   0.977E-03    0.635E-02
RMM:   5    -0.231748359086E+04    0.37681E-04   -0.13246E-04  3890   0.846E-03    0.241E-02
RMM:   6    -0.231748358869E+04    0.21694E-05   -0.24268E-05  2879   0.649E-03
  67 F= -.23379668E+04 E0= -.23379668E+04  d E =-.229873E-02  mag=     4.0000
       N       E                     dE             d eps       ncg     rms          rms(c)
DAV:   1    -0.231747644865E+04    0.71422E-02   -0.16369E+00  4408   0.103E+00    0.317E-01
RMM:   2    -0.231748485268E+04   -0.84040E-02   -0.89568E-02  5726   0.180E-01    0.208E-01
RMM:   3    -0.231748541264E+04   -0.55996E-03   -0.63514E-03  5063   0.641E-02    0.323E-01
RMM:   4    -0.231748478329E+04    0.62935E-03   -0.95137E-04  4681   0.160E-02    0.102E-01
RMM:   5    -0.231748468367E+04    0.99624E-04   -0.34315E-04  4270   0.129E-02    0.402E-02
RMM:   6    -0.231748467696E+04    0.67090E-05   -0.63731E-05  3105   0.924E-03
  68 F= -.23379679E+04 E0= -.23379679E+04  d E =-.346135E-02  mag=     4.0000
       N       E                     dE             d eps       ncg     rms          rms(c)
DAV:   1    -0.231748250701E+04    0.21767E-02   -0.65827E-01  4472   0.655E-01    0.201E-01
RMM:   2    -0.231748673142E+04   -0.42244E-02   -0.44764E-02  5843   0.117E-01    0.151E-01
RMM:   3    -0.231748704140E+04   -0.30998E-03   -0.33122E-03  4966   0.417E-02    0.221E-01
RMM:   4    -0.231748675389E+04    0.28751E-03   -0.43429E-04  3170   0.104E-02    0.620E-02
RMM:   5    -0.231748671567E+04    0.38222E-04   -0.15462E-04  3708   0.840E-03    0.262E-02
RMM:   6    -0.231748671502E+04    0.64421E-06   -0.33105E-05  2894   0.644E-03
  69 F= -.23379703E+04 E0= -.23379703E+04  d E =-.233102E-02  mag=     4.0000
       N       E                     dE             d eps       ncg     rms          rms(c)
DAV:   1    -0.231746397395E+04    0.22742E-01   -0.37967E+00  4424   0.157E+00    0.481E-01
RMM:   2    -0.231748829138E+04   -0.24317E-01   -0.25849E-01  5766   0.280E-01    0.359E-01
RMM:   3    -0.231749017623E+04   -0.18848E-02   -0.19898E-02  5197   0.104E-01    0.535E-01
RMM:   4    -0.231748847998E+04    0.16963E-02   -0.25667E-03  5481   0.246E-02    0.150E-01
RMM:   5    -0.231748825536E+04    0.22461E-03   -0.88930E-04  4655   0.178E-02    0.667E-02
RMM:   6    -0.231748824306E+04    0.12303E-04   -0.23362E-04  4216   0.125E-02    0.216E-02
RMM:   7    -0.231748824252E+04    0.53903E-06   -0.31711E-05  2901   0.540E-03
  70 F= -.23379725E+04 E0= -.23379725E+04  d E =-.456294E-02  mag=     4.0000
       N       E                     dE             d eps       ncg     rms          rms(c)
DAV:   1    -0.231748320360E+04    0.50395E-02   -0.90025E-01  4440   0.810E-01    0.272E-01
RMM:   2    -0.231749052310E+04   -0.73195E-02   -0.77813E-02  5776   0.151E-01    0.207E-01
RMM:   3    -0.231749119976E+04   -0.67666E-03   -0.65547E-03  5126   0.583E-02    0.310E-01
RMM:   4    -0.231749061342E+04    0.58634E-03   -0.82861E-04  4273   0.144E-02    0.782E-02
RMM:   5    -0.231749054129E+04    0.72131E-04   -0.27050E-04  4114   0.112E-02    0.339E-02
RMM:   6    -0.231749053647E+04    0.48261E-05   -0.61696E-05  3202   0.824E-03
  71 F= -.23379752E+04 E0= -.23379752E+04  d E =-.267839E-02  mag=     4.0000
       N       E                     dE             d eps       ncg     rms          rms(c)
DAV:   1    -0.231748506601E+04    0.54753E-02   -0.69329E-01  4472   0.712E-01    0.240E-01
RMM:   2    -0.231749070478E+04   -0.56388E-02   -0.60020E-02  5792   0.133E-01    0.181E-01
RMM:   3    -0.231749123922E+04   -0.53444E-03   -0.51586E-03  5103   0.538E-02    0.272E-01
RMM:   4    -0.231749078938E+04    0.44984E-03   -0.63970E-04  3819   0.126E-02    0.690E-02
RMM:   5    -0.231749073240E+04    0.56984E-04   -0.20539E-04  4049   0.988E-03    0.301E-02
RMM:   6    -0.231749072745E+04    0.49478E-05   -0.47196E-05  3009   0.746E-03
  72 F= -.23379757E+04 E0= -.23379757E+04  d E =-.320561E-02  mag=     4.0000
       N       E                     dE             d eps       ncg     rms          rms(c)
DAV:   1    -0.231748346191E+04    0.72705E-02   -0.83797E-01  4424   0.775E-01    0.256E-01
RMM:   2    -0.231749216606E+04   -0.87041E-02   -0.92213E-02  5916   0.150E-01    0.196E-01
RMM:   3    -0.231749305274E+04   -0.88668E-03   -0.90934E-03  5232   0.627E-02    0.280E-01
RMM:   4    -0.231749261175E+04    0.44100E-03   -0.97934E-04  3598   0.135E-02    0.825E-02
RMM:   5    -0.231749253139E+04    0.80357E-04   -0.21717E-04  3932   0.954E-03    0.389E-02
RMM:   6    -0.231749252381E+04    0.75818E-05   -0.81743E-05  3216   0.789E-03
  73 F= -.23379777E+04 E0= -.23379777E+04  d E =-.203537E-02  mag=     4.0000
       N       E                     dE             d eps       ncg     rms          rms(c)
DAV:   1    -0.231748211927E+04    0.10412E-01   -0.99450E-01  4424   0.846E-01    0.280E-01
RMM:   2    -0.231749248171E+04   -0.10362E-01   -0.10979E-01  5940   0.164E-01    0.218E-01
RMM:   3    -0.231749354881E+04   -0.10671E-02   -0.10880E-02  5299   0.670E-02    0.311E-01
RMM:   4    -0.231749300104E+04    0.54777E-03   -0.11655E-03  3814   0.147E-02    0.894E-02
RMM:   5    -0.231749290674E+04    0.94302E-04   -0.27192E-04  4054   0.105E-02    0.428E-02
RMM:   6    -0.231749289645E+04    0.10289E-04   -0.10190E-04  3429   0.848E-03    0.132E-02
RMM:   7    -0.231749289632E+04    0.12256E-06   -0.13735E-05  2871   0.513E-03
  74 F= -.23379784E+04 E0= -.23379784E+04  d E =-.266338E-02  mag=     4.0000
       N       E                     dE             d eps       ncg     rms          rms(c)
DAV:   1    -0.231748298386E+04    0.99126E-02   -0.98261E-01  4424   0.783E-01    0.272E-01
RMM:   2    -0.231749434554E+04   -0.11362E-01   -0.12107E-01  5961   0.158E-01    0.184E-01
RMM:   3    -0.231749552394E+04   -0.11784E-02   -0.12419E-02  5295   0.668E-02    0.269E-01
RMM:   4    -0.231749515232E+04    0.37162E-03   -0.12160E-03  3387   0.134E-02    0.866E-02
RMM:   5    -0.231749505580E+04    0.96526E-04   -0.20895E-04  3496   0.862E-03    0.471E-02
RMM:   6    -0.231749503651E+04    0.19287E-04   -0.14321E-04  3600   0.838E-03    0.135E-02
RMM:   7    -0.231749503560E+04    0.91008E-06   -0.15248E-05  2872   0.545E-03
  75 F= -.23379808E+04 E0= -.23379808E+04  d E =-.239820E-02  mag=     4.0000
       N       E                     dE             d eps       ncg     rms          rms(c)
DAV:   1    -0.231747336844E+04    0.21668E-01   -0.18240E+00  4424   0.106E+00    0.371E-01
RMM:   2    -0.231749445179E+04   -0.21083E-01   -0.22481E-01  5981   0.214E-01    0.250E-01
RMM:   3    -0.231749664560E+04   -0.21938E-02   -0.23287E-02  5457   0.905E-02    0.365E-01
RMM:   4    -0.231749596239E+04    0.68321E-03   -0.22580E-03  4101   0.180E-02    0.119E-01
RMM:   5    -0.231749578697E+04    0.17542E-03   -0.38313E-04  4017   0.111E-02    0.663E-02
RMM:   6    -0.231749574525E+04    0.41720E-04   -0.27657E-04  4112   0.107E-02    0.191E-02
RMM:   7    -0.231749574228E+04    0.29637E-05   -0.28761E-05  2877   0.660E-03
  76 F= -.23379818E+04 E0= -.23379818E+04  d E =-.344608E-02  mag=     4.0000
       N       E                     dE             d eps       ncg     rms          rms(c)
DAV:   1    -0.231748845869E+04    0.72866E-02   -0.62907E-01  4460   0.600E-01    0.221E-01
RMM:   2    -0.231749706751E+04   -0.86088E-02   -0.91679E-02  6069   0.127E-01    0.148E-01
RMM:   3    -0.231749794588E+04   -0.87837E-03   -0.94154E-03  5004   0.516E-02    0.201E-01
RMM:   4    -0.231749776026E+04    0.18562E-03   -0.88943E-04  3144   0.106E-02    0.766E-02
RMM:   5    -0.231749769528E+04    0.64984E-04   -0.11955E-04  3012   0.640E-03    0.413E-02
RMM:   6    -0.231749768061E+04    0.14672E-04   -0.98326E-05  3144   0.658E-03    0.112E-02
RMM:   7    -0.231749768097E+04   -0.35993E-06   -0.11405E-05  2868   0.484E-03
  77 F= -.23379840E+04 E0= -.23379840E+04  d E =-.218441E-02  mag=     4.0000
       N       E                     dE             d eps       ncg     rms          rms(c)
DAV:   1    -0.231741769678E+04    0.79984E-01   -0.56555E+00  4424   0.180E+00    0.662E-01
RMM:   2    -0.231749490871E+04   -0.77212E-01   -0.82227E-01  6167   0.383E-01    0.445E-01
RMM:   3    -0.231750322815E+04   -0.83194E-02   -0.90830E-02  5648   0.158E-01    0.595E-01
RMM:   4    -0.231750162560E+04    0.16026E-02   -0.81063E-03  5483   0.312E-02    0.242E-01
RMM:   5    -0.231750105108E+04    0.57452E-03   -0.10770E-03  4441   0.161E-02    0.139E-01
RMM:   6    -0.231750086407E+04    0.18701E-03   -0.11582E-03  4828   0.178E-02    0.437E-02
RMM:   7    -0.231750085257E+04    0.11499E-04   -0.12619E-04  3192   0.103E-02    0.208E-02
RMM:   8    -0.231750084852E+04    0.40513E-05   -0.31467E-05  2874   0.418E-03
  78 F= -.23379879E+04 E0= -.23379879E+04  d E =-.605478E-02  mag=     4.0000
       N       E                     dE             d eps       ncg     rms          rms(c)
DAV:   1    -0.231748224505E+04    0.18608E-01   -0.12741E+00  4424   0.855E-01    0.315E-01
RMM:   2    -0.231749965263E+04   -0.17408E-01   -0.18528E-01  6177   0.182E-01    0.207E-01
RMM:   3    -0.231750143895E+04   -0.17863E-02   -0.19570E-02  5427   0.729E-02    0.277E-01
RMM:   4    -0.231750109680E+04    0.34215E-03   -0.18146E-03  3405   0.147E-02    0.111E-01
RMM:   5    -0.231750096406E+04    0.13274E-03   -0.24303E-04  3383   0.878E-03    0.603E-02
RMM:   6    -0.231750093155E+04    0.32508E-04   -0.21791E-04  3819   0.901E-03    0.168E-02
RMM:   7    -0.231750093121E+04    0.33865E-06   -0.21611E-05  2880   0.581E-03
  79 F= -.23379883E+04 E0= -.23379883E+04  d E =-.645292E-02  mag=     4.0000
       N       E                     dE             d eps       ncg     rms          rms(c)
DAV:   1    -0.231747634885E+04    0.24583E-01   -0.16547E+00  4424   0.959E-01    0.375E-01
RMM:   2    -0.231750170209E+04   -0.25353E-01   -0.26971E-01  6129   0.213E-01    0.251E-01
RMM:   3    -0.231750445158E+04   -0.27495E-02   -0.29366E-02  5530   0.881E-02    0.344E-01
RMM:   4    -0.231750390844E+04    0.54313E-03   -0.26621E-03  3723   0.174E-02    0.128E-01
RMM:   5    -0.231750373058E+04    0.17786E-03   -0.32743E-04  3513   0.976E-03    0.730E-02
RMM:   6    -0.231750367498E+04    0.55602E-04   -0.32907E-04  4158   0.105E-02    0.204E-02
RMM:   7    -0.231750367381E+04    0.11700E-05   -0.31290E-05  2890   0.673E-03
  80 F= -.23379915E+04 E0= -.23379915E+04  d E =-.325681E-02  mag=     4.0000
       N       E                     dE             d eps       ncg     rms          rms(c)
DAV:   1    -0.231739093150E+04    0.11274E+00   -0.68630E+00  4424   0.195E+00    0.766E-01
RMM:   2    -0.231749698635E+04   -0.10605E+00   -0.11276E+00  6121   0.435E-01    0.534E-01
RMM:   3    -0.231750861825E+04   -0.11632E-01   -0.12743E-01  5682   0.179E-01    0.732E-01
RMM:   4    -0.231750602696E+04    0.25913E-02   -0.11010E-02  5729   0.357E-02    0.271E-01
RMM:   5    -0.231750530753E+04    0.71943E-03   -0.14866E-03  4562   0.175E-02    0.162E-01
RMM:   6    -0.231750501587E+04    0.29166E-03   -0.16338E-03  4938   0.205E-02    0.512E-02
RMM:   7    -0.231750499911E+04    0.16758E-04   -0.16826E-04  3743   0.115E-02    0.251E-02
RMM:   8    -0.231750499347E+04    0.56447E-05   -0.38300E-05  2891   0.443E-03
  81 F= -.23379938E+04 E0= -.23379938E+04  d E =-.557716E-02  mag=     4.0000
       N       E                     dE             d eps       ncg     rms          rms(c)
DAV:   1    -0.231746150109E+04    0.43498E-01   -0.25191E+00  4432   0.115E+00    0.475E-01
RMM:   2    -0.231750457658E+04   -0.43075E-01   -0.45646E-01  6238   0.264E-01    0.334E-01
RMM:   3    -0.231750945137E+04   -0.48748E-02   -0.51969E-02  5633   0.110E-01    0.454E-01
RMM:   4    -0.231750852015E+04    0.93123E-03   -0.45817E-03  4121   0.218E-02    0.164E-01
RMM:   5    -0.231750824861E+04    0.27154E-03   -0.50960E-04  3583   0.109E-02    0.991E-02
RMM:   6    -0.231750814270E+04    0.10591E-03   -0.59024E-04  4362   0.127E-02    0.305E-02
RMM:   7    -0.231750814116E+04    0.15401E-05   -0.61372E-05  2928   0.767E-03
  82 F= -.23379976E+04 E0= -.23379976E+04  d E =-.376985E-02  mag=     4.0000
       N       E                     dE             d eps       ncg     rms          rms(c)
DAV:   1    -0.231715104575E+04    0.35710E+00   -0.19002E+01  4424   0.316E+00    0.132E+00
RMM:   2    -0.231748459090E+04   -0.33355E+00   -0.35283E+00  6252   0.744E-01    0.104E+00
RMM:   3    -0.231752225877E+04   -0.37668E-01   -0.41265E-01  5813   0.298E-01    0.138E+00
RMM:   4    -0.231751250532E+04    0.97534E-02   -0.34665E-02  6130   0.625E-02    0.472E-01
RMM:   5    -0.231751037545E+04    0.21299E-02   -0.45977E-03  5022   0.273E-02    0.297E-01
RMM:   6    -0.231750936386E+04    0.10116E-02   -0.54712E-03  5025   0.336E-02    0.101E-01
RMM:   7    -0.231750932641E+04    0.37454E-04   -0.65356E-04  4590   0.180E-02    0.504E-02
RMM:   8    -0.231750930582E+04    0.20591E-04   -0.12453E-04  3063   0.682E-03    0.232E-02
RMM:   9    -0.231750930917E+04   -0.33503E-05   -0.49256E-05  2920   0.444E-03
  83 F= -.23380004E+04 E0= -.23380004E+04  d E =-.654538E-02  mag=     4.0000
       N       E                     dE             d eps       ncg     rms          rms(c)
DAV:   1    -0.231748682232E+04    0.22484E-01   -0.12604E+00  4456   0.811E-01    0.335E-01
RMM:   2    -0.231750829180E+04   -0.21469E-01   -0.22735E-01  6254   0.187E-01    0.220E-01
RMM:   3    -0.231751065805E+04   -0.23662E-02   -0.24920E-02  5451   0.720E-02    0.300E-01
RMM:   4    -0.231751028936E+04    0.36869E-03   -0.22760E-03  3288   0.149E-02    0.113E-01
RMM:   5    -0.231751014213E+04    0.14723E-03   -0.22882E-04  3293   0.801E-03    0.630E-02
RMM:   6    -0.231751010236E+04    0.39763E-04   -0.21425E-04  3690   0.853E-03    0.156E-02
RMM:   7    -0.231751010307E+04   -0.70609E-06   -0.23016E-05  2873   0.571E-03
  84 F= -.23380008E+04 E0= -.23380008E+04  d E =-.693991E-02  mag=     4.0000
       N       E                     dE             d eps       ncg     rms          rms(c)
DAV:   1    -0.231744816225E+04    0.61940E-01   -0.34039E+00  4424   0.131E+00    0.572E-01
RMM:   2    -0.231750900630E+04   -0.60844E-01   -0.64215E-01  6112   0.314E-01    0.419E-01
RMM:   3    -0.231751584523E+04   -0.68389E-02   -0.73160E-02  5706   0.128E-01    0.569E-01
RMM:   4    -0.231751428833E+04    0.15569E-02   -0.63877E-03  5078   0.266E-02    0.202E-01
RMM:   5    -0.231751388289E+04    0.40543E-03   -0.84272E-04  4168   0.135E-02    0.116E-01
RMM:   6    -0.231751373796E+04    0.14493E-03   -0.80929E-04  4681   0.150E-02    0.341E-02
RMM:   7    -0.231751373515E+04    0.28141E-05   -0.88796E-05  2962   0.874E-03
  85 F= -.23380051E+04 E0= -.23380051E+04  d E =-.427757E-02  mag=     4.0000
       N       E                     dE             d eps       ncg     rms          rms(c)
DAV:   1    -0.231743719149E+04    0.76546E-01   -0.39249E+00  4424   0.141E+00    0.619E-01
RMM:   2    -0.231750724951E+04   -0.70058E-01   -0.74123E-01  6127   0.340E-01    0.462E-01
RMM:   3    -0.231751558911E+04   -0.83396E-02   -0.88118E-02  5702   0.143E-01    0.623E-01
RMM:   4    -0.231751373482E+04    0.18543E-02   -0.75214E-03  5338   0.292E-02    0.221E-01
RMM:   5    -0.231751328104E+04    0.45378E-03   -0.10063E-03  4233   0.142E-02    0.129E-01
RMM:   6    -0.231751311520E+04    0.16584E-03   -0.98099E-04  4811   0.162E-02    0.409E-02
RMM:   7    -0.231751311175E+04    0.34499E-05   -0.10828E-04  3095   0.919E-03    0.204E-02
RMM:   8    -0.231751311070E+04    0.10529E-05   -0.27043E-05  2876   0.429E-03
  86 F= -.23380051E+04 E0= -.23380051E+04  d E =-.431902E-02  mag=     4.0000
       N       E                     dE             d eps       ncg     rms          rms(c)
DAV:   1    -0.231749820121E+04    0.14911E-01   -0.82395E-01  4460   0.647E-01    0.280E-01
RMM:   2    -0.231751280528E+04   -0.14604E-01   -0.15435E-01  6165   0.154E-01    0.183E-01
RMM:   3    -0.231751436937E+04   -0.15641E-02   -0.16770E-02  5344   0.598E-02    0.250E-01
RMM:   4    -0.231751410681E+04    0.26256E-03   -0.15311E-03  3169   0.127E-02    0.969E-02
RMM:   5    -0.231751400244E+04    0.10437E-03   -0.17203E-04  3187   0.719E-03    0.510E-02
RMM:   6    -0.231751397738E+04    0.25061E-04   -0.12995E-04  3355   0.751E-03    0.133E-02
RMM:   7    -0.231751397877E+04   -0.13964E-05   -0.16881E-05  2865   0.534E-03
  87 F= -.23380057E+04 E0= -.23380057E+04  d E =-.488549E-02  mag=     4.0000
       N       E                     dE             d eps       ncg     rms          rms(c)
DAV:   1    -0.231745103414E+04    0.62943E-01   -0.37715E+00  4424   0.134E+00    0.586E-01
RMM:   2    -0.231751251843E+04   -0.61484E-01   -0.64931E-01  6172   0.314E-01    0.432E-01
RMM:   3    -0.231751953033E+04   -0.70119E-02   -0.76573E-02  5706   0.129E-01    0.589E-01
RMM:   4    -0.231751788291E+04    0.16474E-02   -0.66088E-03  5042   0.270E-02    0.202E-01
RMM:   5    -0.231751748659E+04    0.39632E-03   -0.87602E-04  4069   0.135E-02    0.122E-01
RMM:   6    -0.231751734220E+04    0.14439E-03   -0.87050E-04  4610   0.153E-02    0.351E-02
RMM:   7    -0.231751733714E+04    0.50539E-05   -0.86601E-05  2977   0.856E-03
  88 F= -.23380098E+04 E0= -.23380098E+04  d E =-.408255E-02  mag=     4.0000
       N       E                     dE             d eps       ncg     rms          rms(c)
DAV:   1    -0.231744774292E+04    0.69599E-01   -0.39350E+00  4424   0.137E+00    0.603E-01
RMM:   2    -0.231751188398E+04   -0.64141E-01   -0.67900E-01  6204   0.321E-01    0.448E-01
RMM:   3    -0.231751932745E+04   -0.74435E-02   -0.80888E-02  5723   0.134E-01    0.611E-01
RMM:   4    -0.231751754979E+04    0.17777E-02   -0.69707E-03  5126   0.278E-02    0.208E-01
RMM:   5    -0.231751714983E+04    0.39996E-03   -0.92056E-04  4086   0.137E-02    0.126E-01
RMM:   6    -0.231751700521E+04    0.14462E-03   -0.92253E-04  4651   0.157E-02    0.387E-02
RMM:   7    -0.231751700003E+04    0.51849E-05   -0.89007E-05  3011   0.859E-03
  89 F= -.23380101E+04 E0= -.23380101E+04  d E =-.445743E-02  mag=     4.0000
       N       E                     dE             d eps       ncg     rms          rms(c)
DAV:   1    -0.231751085069E+04    0.61545E-02   -0.38519E-01  4528   0.426E-01    0.183E-01
RMM:   2    -0.231751699360E+04   -0.61429E-02   -0.64752E-02  6275   0.997E-02    0.110E-01
RMM:   3    -0.231751761054E+04   -0.61694E-03   -0.71274E-03  4242   0.379E-02    0.129E-01
RMM:   4    -0.231751757038E+04    0.40160E-04   -0.64088E-04  3041   0.850E-03    0.685E-02
RMM:   5    -0.231751751968E+04    0.50698E-04   -0.73163E-05  2969   0.485E-03    0.334E-02
RMM:   6    -0.231751750937E+04    0.10318E-04   -0.59958E-05  2933   0.514E-03    0.898E-03
RMM:   7    -0.231751750994E+04   -0.57585E-06   -0.84516E-06  2847   0.394E-03
  90 F= -.23380104E+04 E0= -.23380104E+04  d E =-.474787E-02  mag=     4.0000
       N       E                     dE             d eps       ncg     rms          rms(c)
DAV:   1    -0.231745076262E+04    0.66747E-01   -0.45272E+00  4424   0.150E+00    0.618E-01
RMM:   2    -0.231751631170E+04   -0.65549E-01   -0.69040E-01  6153   0.337E-01    0.458E-01
RMM:   3    -0.231752341587E+04   -0.71042E-02   -0.78823E-02  5683   0.134E-01    0.625E-01
RMM:   4    -0.231752152074E+04    0.18951E-02   -0.69835E-03  5298   0.287E-02    0.218E-01
RMM:   5    -0.231752107972E+04    0.44103E-03   -0.10373E-03  4323   0.151E-02    0.123E-01
RMM:   6    -0.231752095183E+04    0.12789E-03   -0.86175E-04  4660   0.156E-02    0.355E-02
RMM:   7    -0.231752094818E+04    0.36459E-05   -0.86571E-05  2977   0.887E-03
  91 F= -.23380145E+04 E0= -.23380145E+04  d E =-.412618E-02  mag=     4.0000
       N       E                     dE             d eps       ncg     rms          rms(c)
DAV:   1    -0.231747414288E+04    0.46809E-01   -0.30210E+00  4424   0.123E+00    0.508E-01
RMM:   2    -0.231751773530E+04   -0.43592E-01   -0.46049E-01  6163   0.275E-01    0.368E-01
RMM:   3    -0.231752261250E+04   -0.48772E-02   -0.52409E-02  5664   0.109E-01    0.509E-01
RMM:   4    -0.231752137507E+04    0.12374E-02   -0.47113E-03  4713   0.235E-02    0.178E-01
RMM:   5    -0.231752108819E+04    0.28688E-03   -0.67557E-04  3987   0.125E-02    0.993E-02
RMM:   6    -0.231752101255E+04    0.75636E-04   -0.53670E-04  4323   0.129E-02    0.283E-02
RMM:   7    -0.231752101305E+04   -0.49573E-06   -0.56014E-05  2916   0.771E-03
  92 F= -.23380152E+04 E0= -.23380152E+04  d E =-.473439E-02  mag=     4.0000
       N       E                     dE             d eps       ncg     rms          rms(c)
DAV:   1    -0.231748370808E+04    0.37304E-01   -0.30242E+00  4424   0.122E+00    0.481E-01
RMM:   2    -0.231752155721E+04   -0.37849E-01   -0.39993E-01  6167   0.261E-01    0.346E-01
RMM:   3    -0.231752560112E+04   -0.40439E-02   -0.44518E-02  5631   0.103E-01    0.482E-01
RMM:   4    -0.231752449462E+04    0.11065E-02   -0.40956E-03  4465   0.221E-02    0.165E-01
RMM:   5    -0.231752424960E+04    0.24502E-03   -0.60849E-04  3868   0.119E-02    0.931E-02
RMM:   6    -0.231752419091E+04    0.58694E-04   -0.47515E-04  4205   0.121E-02    0.262E-02
RMM:   7    -0.231752418974E+04    0.11699E-05   -0.46684E-05  2913   0.712E-03
  93 F= -.23380189E+04 E0= -.23380189E+04  d E =-.372319E-02  mag=     4.0000
       N       E                     dE             d eps       ncg     rms          rms(c)
DAV:   1    -0.231724056674E+04    0.28362E+00   -0.20968E+01  4424   0.321E+00    0.128E+00
RMM:   2    -0.231751203058E+04   -0.27146E+00   -0.28493E+00  6224   0.703E-01    0.110E+00
RMM:   3    -0.231753783506E+04   -0.25804E-01   -0.32615E-01  5789   0.273E-01    0.135E+00
RMM:   4    -0.231752842051E+04    0.94146E-02   -0.29311E-02  6041   0.609E-02    0.452E-01
RMM:   5    -0.231752652540E+04    0.18951E-02   -0.52445E-03  5171   0.303E-02    0.271E-01
RMM:   6    -0.231752595111E+04    0.57429E-03   -0.39101E-03  4947   0.304E-02    0.884E-02
RMM:   7    -0.231752592938E+04    0.21727E-04   -0.43610E-04  4453   0.168E-02    0.484E-02
RMM:   8    -0.231752591554E+04    0.13845E-04   -0.10291E-04  2974   0.595E-03    0.193E-02
RMM:   9    -0.231752591971E+04   -0.41738E-05   -0.33228E-05  2934   0.380E-03
  94 F= -.23380220E+04 E0= -.23380220E+04  d E =-.684360E-02  mag=     4.0000
       N       E                     dE             d eps       ncg     rms          rms(c)
DAV:   1    -0.231745683842E+04    0.69077E-01   -0.59368E+00  4424   0.166E+00    0.659E-01
RMM:   2    -0.231752589287E+04   -0.69054E-01   -0.72570E-01  6210   0.355E-01    0.499E-01
RMM:   3    -0.231753288071E+04   -0.69878E-02   -0.79920E-02  5721   0.137E-01    0.677E-01
RMM:   4    -0.231753062234E+04    0.22584E-02   -0.74243E-03  5390   0.304E-02    0.227E-01
RMM:   5    -0.231753015741E+04    0.46493E-03   -0.12788E-03  4379   0.164E-02    0.130E-01
[...]
RMM:   2    -0.231761095051E+04   -0.54141E-03   -0.57343E-03  5781   0.450E-02    0.412E-02
RMM:   3    -0.231761100154E+04   -0.51024E-04   -0.55428E-04  3502   0.180E-02    0.707E-02
RMM:   4    -0.231761097287E+04    0.28663E-04   -0.60787E-05  2928   0.480E-03    0.209E-02
RMM:   5    -0.231761096832E+04    0.45553E-05   -0.15603E-05  2892   0.331E-03
 206 F= -.23381477E+04 E0= -.23381477E+04  d E =-.866585E-04  mag=     4.0000
       N       E                     dE             d eps       ncg     rms          rms(c)
DAV:   1    -0.231761096509E+04    0.77856E-05   -0.77476E-05  4968   0.865E-03    0.603E-03
RMM:   2    -0.231761096736E+04   -0.22725E-05   -0.11220E-05  2677   0.266E-03
 207 F= -.23381477E+04 E0= -.23381477E+04  d E =-.873035E-04  mag=     4.0000
       N       E                     dE             d eps       ncg     rms          rms(c)
DAV:   1    -0.231761056937E+04    0.39572E-03   -0.54959E-02  4432   0.217E-01    0.655E-02
RMM:   2    -0.231761099690E+04   -0.42753E-03   -0.45570E-03  5731   0.408E-02    0.329E-02
RMM:   3    -0.231761102371E+04   -0.26813E-04   -0.42573E-04  3416   0.168E-02    0.443E-02
RMM:   4    -0.231761101581E+04    0.79043E-05   -0.46981E-05  2918   0.422E-03
 208 F= -.23381477E+04 E0= -.23381477E+04  d E =-.858539E-04  mag=     4.0000
       N       E                     dE             d eps       ncg     rms          rms(c)
DAV:   1    -0.231761101052E+04    0.13194E-04   -0.14637E-05  3856   0.453E-03    0.920E-03
RMM:   2    -0.231761101172E+04   -0.12033E-05   -0.56735E-06  2644   0.246E-03
 209 F= -.23381477E+04 E0= -.23381477E+04  d E =-.817890E-04  mag=     4.0000
       N       E                     dE             d eps       ncg     rms          rms(c)
DAV:   1    -0.231761083838E+04    0.17214E-03   -0.33875E-02  4432   0.174E-01    0.518E-02
RMM:   2    -0.231761104300E+04   -0.20463E-03   -0.22152E-03  5685   0.313E-02    0.244E-02
RMM:   3    -0.231761104539E+04   -0.23902E-05   -0.17444E-04  3156   0.126E-02    0.153E-02
RMM:   4    -0.231761104458E+04    0.81025E-06   -0.25338E-05  2902   0.394E-03
 210 F= -.23381478E+04 E0= -.23381478E+04  d E =-.602339E-04  mag=     4.0000
       N       E                     dE             d eps       ncg     rms          rms(c)
DAV:   1    -0.231761104418E+04    0.12159E-05   -0.41289E-05  3984   0.488E-03    0.164E-02
RMM:   2    -0.231761106556E+04   -0.21381E-04   -0.32640E-05  2697   0.292E-03    0.591E-02
RMM:   3    -0.231761104279E+04    0.22767E-04   -0.12006E-05  2075   0.202E-03    0.274E-03
RMM:   4    -0.231761104281E+04   -0.20635E-07   -0.11245E-06  1455   0.790E-04
 211 F= -.23381478E+04 E0= -.23381478E+04  d E =-.588661E-04  mag=     4.0000
       N       E                     dE             d eps       ncg     rms          rms(c)
DAV:   1    -0.231761088604E+04    0.15675E-03   -0.29357E-02  4464   0.164E-01    0.473E-02
RMM:   2    -0.231761105782E+04   -0.17178E-03   -0.18510E-03  5608   0.288E-02    0.216E-02
RMM:   3    -0.231761105941E+04   -0.15921E-05   -0.14285E-04  3026   0.106E-02    0.153E-02
RMM:   4    -0.231761106268E+04   -0.32654E-05   -0.21887E-05  2895   0.344E-03
 212 F= -.23381479E+04 E0= -.23381479E+04  d E =-.487640E-04  mag=     4.0000
       N       E                     dE             d eps       ncg     rms          rms(c)
DAV:   1    -0.231761105986E+04   -0.44238E-06   -0.36147E-04  5112   0.182E-02    0.731E-03
RMM:   2    -0.231761106192E+04   -0.20649E-05   -0.21397E-05  2656   0.393E-03
 213 F= -.23381478E+04 E0= -.23381478E+04  d E =-.451092E-04  mag=     4.0000
       N       E                     dE             d eps       ncg     rms          rms(c)
DAV:   1    -0.231761095279E+04    0.10706E-03   -0.23273E-02  4432   0.149E-01    0.444E-02
RMM:   2    -0.231761109288E+04   -0.14009E-03   -0.14563E-03  5719   0.276E-02    0.378E-02
RMM:   3    -0.231761110608E+04   -0.13193E-04   -0.14304E-04  2993   0.113E-02    0.526E-02
RMM:   4    -0.231761108827E+04    0.17805E-04   -0.19708E-05  2887   0.360E-03    0.110E-02
RMM:   5    -0.231761108649E+04    0.17783E-05   -0.77793E-06  2850   0.255E-03
 214 F= -.23381479E+04 E0= -.23381479E+04  d E =-.379155E-04  mag=     4.0000
       N       E                     dE             d eps       ncg     rms          rms(c)
DAV:   1    -0.231761108752E+04    0.74561E-06   -0.19413E-04  5016   0.139E-02    0.383E-03
RMM:   2    -0.231761108858E+04   -0.10529E-05   -0.12021E-05  2530   0.319E-03
 215 F= -.23381479E+04 E0= -.23381479E+04  d E =-.388414E-04  mag=     4.0000
       N       E                     dE             d eps       ncg     rms          rms(c)
DAV:   1    -0.231761100163E+04    0.85899E-04   -0.15161E-02  4432   0.121E-01    0.357E-02
RMM:   2    -0.231761109669E+04   -0.95065E-04   -0.10251E-03  5650   0.223E-02    0.217E-02
RMM:   3    -0.231761110548E+04   -0.87926E-05   -0.94532E-05  2956   0.960E-03
 216 F= -.23381479E+04 E0= -.23381479E+04  d E =-.435248E-04  mag=     4.0000
       N       E                     dE             d eps       ncg     rms          rms(c)
DAV:   1    -0.231761109806E+04   -0.13720E-05   -0.10491E-04  5112   0.864E-03    0.937E-03
RMM:   2    -0.231761109875E+04   -0.68662E-06   -0.79178E-06  2478   0.236E-03
 217 F= -.23381479E+04 E0= -.23381479E+04  d E =-.355069E-04  mag=     4.0000
       N       E                     dE             d eps       ncg     rms          rms(c)
DAV:   1    -0.231761098648E+04    0.11158E-03   -0.13432E-02  4432   0.117E-01    0.356E-02
RMM:   2    -0.231761107499E+04   -0.88509E-04   -0.96430E-04  5598   0.215E-02    0.177E-02
RMM:   3    -0.231761107782E+04   -0.28345E-05   -0.81669E-05  2926   0.913E-03
 218 F= -.23381480E+04 E0= -.23381480E+04  d E =-.371886E-04  mag=     4.0000
       N       E                     dE             d eps       ncg     rms          rms(c)
DAV:   1    -0.231761107479E+04    0.19718E-06   -0.49967E-05  4088   0.513E-03    0.156E-02
RMM:   2    -0.231761108739E+04   -0.12596E-04   -0.21541E-05  2627   0.317E-03    0.473E-02
RMM:   3    -0.231761107318E+04    0.14208E-04   -0.88949E-06  2187   0.190E-03    0.547E-03
RMM:   4    -0.231761107289E+04    0.28723E-06   -0.20787E-06  2375   0.127E-03
 219 F= -.23381480E+04 E0= -.23381480E+04  d E =-.336905E-04  mag=     4.0000
       N       E                     dE             d eps       ncg     rms          rms(c)
DAV:   1    -0.231761094902E+04    0.12416E-03   -0.12884E-02  4432   0.115E-01    0.334E-02
RMM:   2    -0.231761103764E+04   -0.88615E-04   -0.95250E-04  5601   0.206E-02    0.169E-02
RMM:   3    -0.231761104214E+04   -0.45001E-05   -0.77827E-05  2924   0.847E-03
 220 F= -.23381480E+04 E0= -.23381480E+04  d E =-.305767E-04  mag=     4.0000
       N       E                     dE             d eps       ncg     rms          rms(c)
DAV:   1    -0.231761103932E+04   -0.16886E-05   -0.41107E-05  3920   0.426E-03    0.109E-02
RMM:   2    -0.231761104325E+04   -0.39293E-05   -0.87956E-06  2419   0.237E-03
 221 F= -.23381480E+04 E0= -.23381480E+04  d E =-.315102E-04  mag=     4.0000
       N       E                     dE             d eps       ncg     rms          rms(c)
DAV:   1    -0.231761094149E+04    0.97839E-04   -0.12918E-02  4448   0.116E-01    0.346E-02
RMM:   2    -0.231761102857E+04   -0.87084E-04   -0.93025E-04  5543   0.216E-02    0.207E-02
RMM:   3    -0.231761103419E+04   -0.56167E-05   -0.71339E-05  2914   0.855E-03
 222 F= -.23381480E+04 E0= -.23381480E+04  d E =-.349485E-04  mag=     4.0000
       N       E                     dE             d eps       ncg     rms          rms(c)
DAV:   1    -0.231761102359E+04    0.49772E-05   -0.15344E-04  5344   0.119E-02    0.109E-02
RMM:   2    -0.231761102526E+04   -0.16700E-05   -0.12298E-05  2538   0.281E-03
 223 F= -.23381480E+04 E0= -.23381480E+04  d E =-.300905E-04  mag=     4.0000
       N       E                     dE             d eps       ncg     rms          rms(c)
DAV:   1    -0.231761093316E+04    0.90430E-04   -0.13127E-02  4464   0.114E-01    0.335E-02
RMM:   2    -0.231761101972E+04   -0.86559E-04   -0.93440E-04  5524   0.211E-02    0.185E-02
RMM:   3    -0.231761102293E+04   -0.32105E-05   -0.73510E-05  2929   0.914E-03
 224 F= -.23381480E+04 E0= -.23381480E+04  d E =-.274609E-04  mag=     4.0000
       N       E                     dE             d eps       ncg     rms          rms(c)
DAV:   1    -0.231761102242E+04   -0.27011E-05   -0.10936E-04  5264   0.993E-03    0.124E-02
RMM:   2    -0.231761102910E+04   -0.66739E-05   -0.16808E-05  2579   0.274E-03
 225 F= -.23381480E+04 E0= -.23381480E+04  d E =-.315174E-04  mag=     4.0000
       N       E                     dE             d eps       ncg     rms          rms(c)
DAV:   1    -0.231761091584E+04    0.10658E-03   -0.13563E-02  4432   0.117E-01    0.342E-02
RMM:   2    -0.231761100927E+04   -0.93428E-04   -0.96581E-04  5539   0.218E-02    0.308E-02
RMM:   3    -0.231761101435E+04   -0.50811E-05   -0.80595E-05  2922   0.889E-03
 226 F= -.23381481E+04 E0= -.23381481E+04  d E =-.311235E-04  mag=     4.0000
       N       E                     dE             d eps       ncg     rms          rms(c)
DAV:   1    -0.231761100118E+04    0.80896E-05   -0.17516E-04  5320   0.127E-02    0.101E-02
RMM:   2    -0.231761100101E+04    0.16397E-06   -0.12081E-05  2499   0.286E-03
 227 F= -.23381481E+04 E0= -.23381481E+04  d E =-.223829E-04  mag=     4.0000
       N       E                     dE             d eps       ncg     rms          rms(c)
DAV:   1    -0.231761089546E+04    0.10572E-03   -0.12546E-02  4496   0.112E-01    0.326E-02
RMM:   2    -0.231761097471E+04   -0.79251E-04   -0.85582E-04  5512   0.203E-02    0.156E-02
RMM:   3    -0.231761097624E+04   -0.15276E-05   -0.70524E-05  2923   0.870E-03
 228 F= -.23381481E+04 E0= -.23381481E+04  d E =-.304597E-04  mag=     4.0000
       N       E                     dE             d eps       ncg     rms          rms(c)
DAV:   1    -0.231761097952E+04   -0.48096E-05   -0.76896E-05  5128   0.900E-03    0.564E-03
RMM:   2    -0.231761098077E+04   -0.12467E-05   -0.62860E-06  2471   0.221E-03
 229 F= -.23381481E+04 E0= -.23381481E+04  d E =-.314070E-04  mag=     4.0000
       N       E                     dE             d eps       ncg     rms          rms(c)
DAV:   1    -0.231761090229E+04    0.77229E-04   -0.10972E-02  4432   0.104E-01    0.293E-02
RMM:   2    -0.231761097184E+04   -0.69545E-04   -0.74144E-04  5465   0.192E-02    0.184E-02
RMM:   3    -0.231761097708E+04   -0.52439E-05   -0.61061E-05  2902   0.809E-03
 230 F= -.23381481E+04 E0= -.23381481E+04  d E =-.305841E-04  mag=     4.0000
       N       E                     dE             d eps       ncg     rms          rms(c)
DAV:   1    -0.231761096696E+04    0.48751E-05   -0.22283E-04  5240   0.145E-02    0.973E-03
RMM:   2    -0.231761096846E+04   -0.14931E-05   -0.16294E-05  2553   0.326E-03
 231 F= -.23381481E+04 E0= -.23381481E+04  d E =-.264859E-04  mag=     4.0000
       N       E                     dE             d eps       ncg     rms          rms(c)
DAV:   1    -0.231761091900E+04    0.47959E-04   -0.79821E-03  4464   0.899E-02    0.265E-02
RMM:   2    -0.231761096792E+04   -0.48916E-04   -0.53610E-04  5299   0.168E-02    0.141E-02
RMM:   3    -0.231761097010E+04   -0.21748E-05   -0.46678E-05  2886   0.744E-03
 232 F= -.23381482E+04 E0= -.23381482E+04  d E =-.263925E-04  mag=     4.0000
       N       E                     dE             d eps       ncg     rms          rms(c)
DAV:   1    -0.231761096700E+04    0.92300E-06   -0.55496E-05  4536   0.674E-03    0.115E-02
RMM:   2    -0.231761097284E+04   -0.58415E-05   -0.12404E-05  2486   0.301E-03
 233 F= -.23381482E+04 E0= -.23381482E+04  d E =-.306592E-04  mag=     4.0000
       N       E                     dE             d eps       ncg     rms          rms(c)
DAV:   1    -0.231761091531E+04    0.51693E-04   -0.74596E-03  4432   0.879E-02    0.266E-02
RMM:   2    -0.231761096053E+04   -0.45222E-04   -0.50144E-04  5398   0.160E-02    0.131E-02
RMM:   3    -0.231761096367E+04   -0.31447E-05   -0.52891E-05  2851   0.730E-03
 234 F= -.23381482E+04 E0= -.23381482E+04  d E =-.171357E-04  mag=     4.0000
       N       E                     dE             d eps       ncg     rms          rms(c)
DAV:   1    -0.231761095862E+04    0.19045E-05   -0.99429E-05  5272   0.964E-03    0.103E-02
RMM:   2    -0.231761096210E+04   -0.34721E-05   -0.11300E-05  2522   0.242E-03
 235 F= -.23381482E+04 E0= -.23381482E+04  d E =-.182363E-04  mag=     4.0000
       N       E                     dE             d eps       ncg     rms          rms(c)
DAV:   1    -0.231761093319E+04    0.25431E-04   -0.49189E-03  4432   0.711E-02    0.203E-02
RMM:   2    -0.231761096499E+04   -0.31797E-04   -0.34420E-04  4817   0.132E-02    0.122E-02
RMM:   3    -0.231761096772E+04   -0.27340E-05   -0.35696E-05  2794   0.634E-03
 236 F= -.23381482E+04 E0= -.23381482E+04  d E =-.191205E-04  mag=     4.0000
       N       E                     dE             d eps       ncg     rms          rms(c)
DAV:   1    -0.231761095801E+04    0.69792E-05   -0.66889E-04  4552   0.262E-02    0.113E-02
RMM:   2    -0.231761096401E+04   -0.60012E-05   -0.50172E-05  3008   0.528E-03
 237 F= -.23381482E+04 E0= -.23381482E+04  d E =-.203893E-04  mag=     4.0000
       N       E                     dE             d eps       ncg     rms          rms(c)
DAV:   1    -0.231761094196E+04    0.16048E-04   -0.46999E-03  4432   0.707E-02    0.221E-02
RMM:   2    -0.231761097377E+04   -0.31805E-04   -0.33076E-04  4722   0.143E-02    0.206E-02
RMM:   3    -0.231761097719E+04   -0.34208E-05   -0.40364E-05  2840   0.688E-03
 238 F= -.23381482E+04 E0= -.23381482E+04  d E =-.262754E-04  mag=     4.0000
       N       E                     dE             d eps       ncg     rms          rms(c)
DAV:   1    -0.231761096255E+04    0.11215E-04   -0.11278E-03  4616   0.345E-02    0.129E-02
RMM:   2    -0.231761096917E+04   -0.66129E-05   -0.78962E-05  3165   0.704E-03
 239 F= -.23381482E+04 E0= -.23381482E+04  d E =-.246804E-04  mag=     4.0000
       N       E                     dE             d eps       ncg     rms          rms(c)
DAV:   1    -0.231761094878E+04    0.13770E-04   -0.33838E-03  4432   0.597E-02    0.227E-02
RMM:   2    -0.231761098122E+04   -0.32438E-04   -0.24330E-04  4173   0.130E-02    0.451E-02
RMM:   3    -0.231761097057E+04    0.10646E-04   -0.31692E-05  2857   0.624E-03    0.132E-02
RMM:   4    -0.231761096909E+04    0.14844E-05   -0.39582E-06  2688   0.241E-03
 240 F= -.23381482E+04 E0= -.23381482E+04  d E =-.191030E-04  mag=     4.0000
       N       E                     dE             d eps       ncg     rms          rms(c)
DAV:   1    -0.231761095911E+04    0.11459E-04   -0.42569E-04  4832   0.211E-02    0.689E-03
RMM:   2    -0.231761096187E+04   -0.27550E-05   -0.28440E-05  2772   0.458E-03
 241 F= -.23381482E+04 E0= -.23381482E+04  d E =-.189246E-04  mag=     4.0000
       N       E                     dE             d eps       ncg     rms          rms(c)
DAV:   1    -0.231761096509E+04   -0.59795E-05   -0.11234E-04  4334   0.109E-02    0.738E-03
RMM:   2    -0.231761096893E+04   -0.38309E-05   -0.11311E-05  2417   0.254E-03
 242 F= -.23381482E+04 E0= -.23381482E+04  d E =-.226305E-04  mag=     4.0000
       N       E                     dE             d eps       ncg     rms          rms(c)
DAV:   1    -0.231761094925E+04    0.15847E-04   -0.26047E-03  4368   0.518E-02    0.152E-02
RMM:   2    -0.231761096562E+04   -0.16376E-04   -0.17927E-04  3780   0.102E-02    0.673E-03
RMM:   3    -0.231761096670E+04   -0.10809E-05   -0.18515E-05  2485   0.561E-03
 243 F= -.23381483E+04 E0= -.23381483E+04  d E =-.107630E-04  mag=     4.0000
       N       E                     dE             d eps       ncg     rms          rms(c)
DAV:   1    -0.231761096379E+04    0.18372E-05   -0.15579E-04  4946   0.126E-02    0.887E-03
RMM:   2    -0.231761096862E+04   -0.48294E-05   -0.17090E-05  2527   0.309E-03
 244 F= -.23381483E+04 E0= -.23381483E+04  d E =-.157942E-04  mag=     4.0000
       N       E                     dE             d eps       ncg     rms          rms(c)
DAV:   1    -0.231761096667E+04   -0.28838E-05   -0.19096E-03  4368   0.451E-02    0.140E-02
RMM:   2    -0.231761097800E+04   -0.11327E-04   -0.12684E-04  3517   0.921E-03    0.671E-03
RMM:   3    -0.231761097826E+04   -0.26083E-06   -0.12232E-05  2523   0.518E-03
 245 F= -.23381483E+04 E0= -.23381483E+04  d E =-.111652E-04  mag=     4.0000
       N       E                     dE             d eps       ncg     rms          rms(c)
DAV:   1    -0.231761097367E+04    0.43323E-05   -0.96580E-04  4432   0.320E-02    0.134E-02
RMM:   2    -0.231761098639E+04   -0.12727E-04   -0.72513E-05  3159   0.671E-03    0.345E-02
RMM:   3    -0.231761097914E+04    0.72498E-05   -0.10964E-05  2628   0.378E-03
 246 F= -.23381483E+04 E0= -.23381483E+04  d E =-.131473E-04  mag=     4.0000
       N       E                     dE             d eps       ncg     rms          rms(c)
DAV:   1    -0.231761096955E+04    0.16845E-04   -0.22939E-03  4400   0.484E-02    0.140E-02
RMM:   2    -0.231761098425E+04   -0.14708E-04   -0.15620E-04  3623   0.932E-03    0.107E-02
RMM:   3    -0.231761098615E+04   -0.18975E-05   -0.17379E-05  2689   0.502E-03
 247 F= -.23381483E+04 E0= -.23381483E+04  d E =-.143493E-04  mag=     4.0000
       N       E                     dE             d eps       ncg     rms          rms(c)
DAV:   1    -0.231761096929E+04    0.14960E-04   -0.19114E-03  4464   0.442E-02    0.135E-02
RMM:   2    -0.231761098132E+04   -0.12021E-04   -0.13324E-04  3460   0.868E-03    0.710E-03
RMM:   3    -0.231761098166E+04   -0.34619E-06   -0.13097E-05  2736   0.452E-03
 248 F= -.23381483E+04 E0= -.23381483E+04  d E =-.165501E-04  mag=     4.0000
       N       E                     dE             d eps       ncg     rms          rms(c)
DAV:   1    -0.231761097256E+04    0.87508E-05   -0.16930E-03  4400   0.416E-02    0.116E-02
RMM:   2    -0.231761098391E+04   -0.11344E-04   -0.12275E-04  3404   0.829E-03    0.568E-03
RMM:   3    -0.231761098452E+04   -0.61168E-06   -0.12555E-05  2506   0.443E-03
 249 F= -.23381483E+04 E0= -.23381483E+04  d E =-.154303E-04  mag=     4.0000
       N       E                     dE             d eps       ncg     rms          rms(c)
DAV:   1    -0.231761095394E+04    0.29968E-04   -0.29937E-03  4416   0.553E-02    0.168E-02
RMM:   2    -0.231761097575E+04   -0.21814E-04   -0.21823E-04  3920   0.107E-02    0.201E-02
RMM:   3    -0.231761097600E+04   -0.24922E-06   -0.22982E-05  2765   0.525E-03
 250 F= -.23381483E+04 E0= -.23381483E+04  d E =-.235241E-04  mag=     4.0000
       N       E                     dE             d eps       ncg     rms          rms(c)
DAV:   1    -0.231761095424E+04    0.21518E-04   -0.23214E-03  4384   0.486E-02    0.146E-02
RMM:   2    -0.231761096965E+04   -0.15410E-04   -0.16871E-04  3681   0.951E-03    0.860E-03
RMM:   3    -0.231761097145E+04   -0.18025E-05   -0.20233E-05  2672   0.500E-03
 251 F= -.23381483E+04 E0= -.23381483E+04  d E =-.139529E-04  mag=     4.0000
       N       E                     dE             d eps       ncg     rms          rms(c)
DAV:   1    -0.231761094446E+04    0.25188E-04   -0.18638E-03  4462   0.435E-02    0.139E-02
RMM:   2    -0.231761095696E+04   -0.12501E-04   -0.13586E-04  3457   0.867E-03    0.106E-02
RMM:   3    -0.231761095841E+04   -0.14468E-05   -0.15725E-05  2698   0.456E-03
 252 F= -.23381483E+04 E0= -.23381483E+04  d E =-.174833E-04  mag=     4.0000
       N       E                     dE             d eps       ncg     rms          rms(c)
DAV:   1    -0.231761094541E+04    0.11549E-04   -0.25337E-03  4400   0.510E-02    0.154E-02
RMM:   2    -0.231761096278E+04   -0.17374E-04   -0.18520E-04  3803   0.996E-03    0.114E-02
RMM:   3    -0.231761096566E+04   -0.28805E-05   -0.24362E-05  2685   0.530E-03
 253 F= -.23381483E+04 E0= -.23381483E+04  d E =-.175040E-04  mag=     4.0000
