       N       E                     dE             d eps       ncg     rms          rms(c)
DAV:   1     0.130785082512E+05    0.13079E+05   -0.84471E+05  4560   0.143E+03
DAV:   2    -0.104071136615E+04   -0.14119E+05   -0.13501E+05  4960   0.329E+02
DAV:   3    -0.248471610320E+04   -0.14440E+04   -0.14270E+04  5500   0.113E+02
DAV:   4    -0.252777866626E+04   -0.43063E+02   -0.42818E+02  6700   0.278E+01
DAV:   5    -0.252860060391E+04   -0.82194E+00   -0.82013E+00  5760   0.321E+00    0.170E+02
RMM:   6    -0.149767612314E+04    0.10309E+04   -0.19283E+03  4513   0.378E+01    0.725E+01
RMM:   7    -0.165803050867E+04   -0.16035E+03   -0.29034E+02  5175   0.143E+01    0.492E+01
RMM:   8    -0.171589019139E+04   -0.57860E+02   -0.58689E+01  5318   0.779E+00    0.372E+01
RMM:   9    -0.183263568607E+04   -0.11675E+03   -0.61005E+01  5144   0.757E+00    0.328E+01
RMM:  10    -0.194990174899E+04   -0.11727E+03   -0.53368E+01  5481   0.692E+00    0.232E+01
RMM:  11    -0.203581339930E+04   -0.85912E+02   -0.36112E+01  5320   0.488E+00    0.186E+01
RMM:  12    -0.209678759631E+04   -0.60974E+02   -0.23034E+01  5122   0.386E+00    0.142E+01
RMM:  13    -0.219343272528E+04   -0.96645E+02   -0.57649E+01  4660   0.584E+00    0.137E+01
RMM:  14    -0.228610438805E+04   -0.92672E+02   -0.87403E+01  4629   0.644E+00    0.121E+01
RMM:  15    -0.230507345813E+04   -0.18969E+02   -0.19284E+01  4741   0.396E+00    0.702E+00
RMM:  16    -0.231436975626E+04   -0.92963E+01   -0.10720E+01  4644   0.194E+00    0.459E+00
RMM:  17    -0.231871969065E+04   -0.43499E+01   -0.37801E+00  4957   0.158E+00    0.258E+00
RMM:  18    -0.232050038464E+04   -0.17807E+01   -0.15619E+00  5223   0.730E-01    0.159E+00
RMM:  19    -0.232154609131E+04   -0.10457E+01   -0.10217E+00  4597   0.574E-01    0.912E-01
RMM:  20    -0.232185366276E+04   -0.30757E+00   -0.38067E-01  4793   0.343E-01    0.541E-01
RMM:  21    -0.232196188535E+04   -0.10822E+00   -0.10069E-01  4844   0.185E-01    0.314E-01
RMM:  22    -0.232201981149E+04   -0.57926E-01   -0.32755E-02  4784   0.116E-01    0.203E-01
RMM:  23    -0.232204691076E+04   -0.27099E-01   -0.10420E-02  4706   0.757E-02    0.126E-01
RMM:  24    -0.232206321381E+04   -0.16303E-01   -0.48277E-03  4556   0.463E-02    0.851E-02
RMM:  25    -0.232207535824E+04   -0.12144E-01   -0.26488E-03  4533   0.402E-02    0.578E-02
RMM:  26    -0.232208219118E+04   -0.68329E-02   -0.18341E-03  4656   0.299E-02    0.360E-02
RMM:  27    -0.232208516086E+04   -0.29697E-02   -0.92158E-04  4332   0.239E-02    0.237E-02
RMM:  28    -0.232208605459E+04   -0.89373E-03   -0.33740E-04  4246   0.133E-02    0.125E-02
RMM:  29    -0.232208629531E+04   -0.24072E-03   -0.67301E-05  3678   0.775E-03    0.636E-03
RMM:  30    -0.232208642363E+04   -0.12832E-03   -0.29363E-05  3233   0.492E-03    0.401E-03
RMM:  31    -0.232208648861E+04   -0.64974E-04   -0.14300E-05  2972   0.400E-03    0.201E-03
RMM:  32    -0.232208650972E+04   -0.21116E-04   -0.67166E-06  2894   0.298E-03    0.121E-03
RMM:  33    -0.232208651993E+04   -0.10211E-04   -0.38384E-06  2564   0.222E-03    0.749E-04
RMM:  34    -0.232208652291E+04   -0.29776E-05   -0.20584E-06  2484   0.176E-03
   1 F= -.23434917E+04 E0= -.23434898E+04  d E =-.364474E-02  mag=     3.9569
       N       E                     dE             d eps       ncg     rms          rms(c)
DAV:   1    -0.232208014132E+04    0.63786E-02   -0.18537E+00  4680   0.639E-01    0.322E-01
RMM:   2    -0.232208085127E+04   -0.70994E-03   -0.14705E-02  4489   0.680E-02    0.214E-01
RMM:   3    -0.232208157109E+04   -0.71982E-03   -0.35414E-03  4744   0.318E-02    0.307E-01
RMM:   4    -0.232208058677E+04    0.98432E-03   -0.12242E-03  4300   0.158E-02    0.115E-01
RMM:   5    -0.232208059948E+04   -0.12711E-04   -0.37826E-04  3412   0.991E-03    0.118E-01
RMM:   6    -0.232208047321E+04    0.12627E-03   -0.89689E-05  3010   0.582E-03    0.199E-02
RMM:   7    -0.232208047115E+04    0.20596E-05   -0.21124E-05  2825   0.285E-03
   2 F= -.23434852E+04 E0= -.23434841E+04  d E =-.223924E-02  mag=     3.9692
       N       E                     dE             d eps       ncg     rms          rms(c)
DAV:   1    -0.232207847047E+04    0.20027E-02   -0.73239E+00  4520   0.121E+00    0.642E-01
RMM:   2    -0.232208052182E+04   -0.20514E-02   -0.51108E-02  4912   0.129E-01    0.443E-01
RMM:   3    -0.232208358213E+04   -0.30603E-02   -0.13772E-02  5372   0.629E-02    0.633E-01
RMM:   4    -0.232207942011E+04    0.41620E-02   -0.48507E-03  5214   0.313E-02    0.243E-01
RMM:   5    -0.232207929052E+04    0.12959E-03   -0.14486E-03  4374   0.193E-02    0.215E-01
RMM:   6    -0.232207893425E+04    0.35627E-03   -0.29464E-04  3490   0.927E-03    0.545E-02
RMM:   7    -0.232207895910E+04   -0.24850E-04   -0.12448E-04  3038   0.582E-03    0.561E-02
RMM:   8    -0.232207894506E+04    0.14039E-04   -0.57189E-05  2947   0.447E-03    0.215E-02
RMM:   9    -0.232207895283E+04   -0.77670E-05   -0.13953E-05  2887   0.303E-03
   3 F= -.23434845E+04 E0= -.23434816E+04  d E =-.575174E-02  mag=     3.9371
       N       E                     dE             d eps       ncg     rms          rms(c)
DAV:   1    -0.232205484694E+04    0.24098E-01   -0.37529E+00  4500   0.953E-01    0.523E-01
RMM:   2    -0.232205609556E+04   -0.12486E-02   -0.42619E-02  4694   0.112E-01    0.360E-01
RMM:   3    -0.232205586299E+04    0.23257E-03   -0.60430E-03  4916   0.465E-02    0.364E-01
RMM:   4    -0.232205605789E+04   -0.19490E-03   -0.36940E-03  5370   0.253E-02    0.381E-01
RMM:   5    -0.232205468482E+04    0.13731E-02   -0.93146E-04  4117   0.156E-02    0.767E-02
RMM:   6    -0.232205475524E+04   -0.70415E-04   -0.38458E-04  3427   0.968E-03    0.101E-01
RMM:   7    -0.232205463843E+04    0.11680E-03   -0.10032E-04  2933   0.602E-03    0.186E-02
RMM:   8    -0.232205464939E+04   -0.10953E-04   -0.33190E-05  2930   0.332E-03    0.206E-02
RMM:   9    -0.232205464915E+04    0.23098E-06   -0.13485E-05  2791   0.284E-03
   4 F= -.23434599E+04 E0= -.23434586E+04  d E =-.270624E-02  mag=     3.9607
       N       E                     dE             d eps       ncg     rms          rms(c)
DAV:   1    -0.232207027003E+04   -0.15621E-01   -0.83369E+00  4520   0.148E+00    0.892E-01
RMM:   2    -0.232207315589E+04   -0.28859E-02   -0.14959E-01  5369   0.210E-01    0.686E-01
RMM:   3    -0.232207313236E+04    0.23527E-04   -0.21831E-02  5608   0.863E-02    0.877E-01
RMM:   4    -0.232206831459E+04    0.48178E-02   -0.11642E-02  5461   0.450E-02    0.495E-01
RMM:   5    -0.232206654032E+04    0.17743E-02   -0.49549E-03  5346   0.337E-02    0.323E-01
RMM:   6    -0.232206545309E+04    0.10872E-02   -0.19815E-03  5186   0.205E-02    0.136E-01
RMM:   7    -0.232206528679E+04    0.16630E-03   -0.19970E-04  3215   0.793E-03    0.575E-02
RMM:   8    -0.232206526606E+04    0.20736E-04   -0.96849E-05  3049   0.566E-03    0.456E-02
RMM:   9    -0.232206524321E+04    0.22842E-04   -0.60824E-05  3123   0.500E-03    0.164E-02
RMM:  10    -0.232206524255E+04    0.66163E-06   -0.13250E-05  2920   0.387E-03
   5 F= -.23434703E+04 E0= -.23434678E+04  d E =-.492989E-02  mag=     3.9431
       N       E                     dE             d eps       ncg     rms          rms(c)
DAV:   1    -0.232207425913E+04   -0.90159E-02   -0.41258E+00  4500   0.103E+00    0.562E-01
RMM:   2    -0.232207752335E+04   -0.32642E-02   -0.74602E-02  5659   0.150E-01    0.488E-01
RMM:   3    -0.232207642670E+04    0.10966E-02   -0.87318E-03  5361   0.552E-02    0.516E-01
RMM:   4    -0.232207483705E+04    0.15896E-02   -0.48902E-03  5100   0.300E-02    0.316E-01
RMM:   5    -0.232207412235E+04    0.71470E-03   -0.22718E-03  4894   0.252E-02    0.220E-01
RMM:   6    -0.232207357706E+04    0.54529E-03   -0.79375E-04  4331   0.143E-02    0.633E-02
RMM:   7    -0.232207355194E+04    0.25119E-04   -0.11505E-04  3278   0.657E-03    0.461E-02
RMM:   8    -0.232207353155E+04    0.20391E-04   -0.45203E-05  2977   0.451E-03    0.241E-02
RMM:   9    -0.232207352991E+04    0.16463E-05   -0.22880E-05  2988   0.346E-03
   6 F= -.23434786E+04 E0= -.23434771E+04  d E =-.300697E-02  mag=     3.9597
       N       E                     dE             d eps       ncg     rms          rms(c)
DAV:   1    -0.232206576207E+04    0.77695E-02   -0.80599E+00  4480   0.144E+00    0.618E-01
RMM:   2    -0.232207144605E+04   -0.56840E-02   -0.85439E-02  4961   0.151E-01    0.430E-01
RMM:   3    -0.232207185201E+04   -0.40596E-03   -0.10087E-02  5213   0.609E-02    0.560E-01
RMM:   4    -0.232207024198E+04    0.16100E-02   -0.51956E-03  5423   0.289E-02    0.344E-01
RMM:   5    -0.232206962931E+04    0.61268E-03   -0.21675E-03  5060   0.221E-02    0.216E-01
RMM:   6    -0.232206911731E+04    0.51200E-03   -0.66292E-04  3910   0.122E-02    0.516E-02
RMM:   7    -0.232206907342E+04    0.43885E-04   -0.80328E-05  3073   0.569E-03    0.248E-02
RMM:   8    -0.232206907881E+04   -0.53857E-05   -0.50756E-05  3023   0.402E-03
   7 F= -.23434743E+04 E0= -.23434722E+04  d E =-.423053E-02  mag=     3.9502
       N       E                     dE             d eps       ncg     rms          rms(c)
DAV:   1    -0.232208075809E+04   -0.11685E-01   -0.69916E+00  4500   0.128E+00    0.417E-01
RMM:   2    -0.232208614661E+04   -0.53885E-02   -0.71151E-02  4525   0.141E-01    0.302E-01
RMM:   3    -0.232208659690E+04   -0.45029E-03   -0.85922E-03  4391   0.714E-02    0.407E-01
RMM:   4    -0.232208526797E+04    0.13289E-02   -0.34277E-03  4575   0.266E-02    0.215E-01
RMM:   5    -0.232208515036E+04    0.11760E-03   -0.12925E-03  4176   0.213E-02    0.181E-01
RMM:   6    -0.232208479134E+04    0.35902E-03   -0.35060E-04  3713   0.998E-03    0.407E-02
RMM:   7    -0.232208477697E+04    0.14368E-04   -0.54497E-05  3014   0.485E-03    0.203E-02
RMM:   8    -0.232208478443E+04   -0.74592E-05   -0.27344E-05  2880   0.338E-03
   8 F= -.23434897E+04 E0= -.23434879E+04  d E =-.365956E-02  mag=     3.9533
       N       E                     dE             d eps       ncg     rms          rms(c)
DAV:   1    -0.232207113516E+04    0.13642E-01   -0.19742E+01  4540   0.215E+00    0.596E-01
RMM:   2    -0.232208422965E+04   -0.13094E-01   -0.17326E-01  4498   0.200E-01    0.403E-01
RMM:   3    -0.232208544186E+04   -0.12122E-02   -0.19264E-02  4783   0.955E-02    0.497E-01
RMM:   4    -0.232208231656E+04    0.31253E-02   -0.63740E-03  5248   0.394E-02    0.132E-01
RMM:   5    -0.232208238724E+04   -0.70679E-04   -0.11075E-03  3976   0.200E-02    0.171E-01
RMM:   6    -0.232208213652E+04    0.25072E-03   -0.40431E-04  3400   0.916E-03    0.637E-02
RMM:   7    -0.232208214238E+04   -0.58596E-05   -0.96793E-05  2983   0.523E-03
   9 F= -.23434875E+04 E0= -.23434859E+04  d E =-.333198E-02  mag=     3.9553
       N       E                     dE             d eps       ncg     rms          rms(c)
DAV:   1    -0.232205058010E+04    0.31556E-01   -0.99693E+00  4520   0.148E+00    0.473E-01
RMM:   2    -0.232205591941E+04   -0.53393E-02   -0.83289E-02  4457   0.150E-01    0.292E-01
RMM:   3    -0.232205682531E+04   -0.90590E-03   -0.10546E-02  4716   0.753E-02    0.474E-01
RMM:   4    -0.232205465997E+04    0.21653E-02   -0.37631E-03  4843   0.287E-02    0.175E-01
RMM:   5    -0.232205465002E+04    0.99513E-05   -0.11038E-03  3782   0.182E-02    0.162E-01
RMM:   6    -0.232205437723E+04    0.27279E-03   -0.25079E-04  3260   0.852E-03    0.332E-02
RMM:   7    -0.232205437614E+04    0.10909E-05   -0.50662E-05  2953   0.445E-03
  10 F= -.23434585E+04 E0= -.23434562E+04  d E =-.469944E-02  mag=     3.9485
       N       E                     dE             d eps       ncg     rms          rms(c)
DAV:   1    -0.232205792013E+04   -0.35429E-02   -0.19839E+01  4480   0.222E+00    0.944E-01
RMM:   2    -0.232207713516E+04   -0.19215E-01   -0.29979E-01  4709   0.275E-01    0.646E-01
RMM:   3    -0.232208087948E+04   -0.37443E-02   -0.43376E-02  5129   0.162E-01    0.930E-01
RMM:   4    -0.232207210825E+04    0.87712E-02   -0.12910E-02  5706   0.516E-02    0.454E-01
RMM:   5    -0.232207141004E+04    0.69821E-03   -0.55160E-03  5183   0.338E-02    0.363E-01
RMM:   6    -0.232206998494E+04    0.14251E-02   -0.19392E-03  4527   0.217E-02    0.702E-02
RMM:   7    -0.232206993189E+04    0.53058E-04   -0.24060E-04  3505   0.103E-02    0.486E-02
RMM:   8    -0.232206994276E+04   -0.10876E-04   -0.11353E-04  3179   0.614E-03    0.467E-02
RMM:   9    -0.232206992825E+04    0.14515E-04   -0.34334E-05  2947   0.446E-03    0.174E-02
RMM:  10    -0.232206993540E+04   -0.71540E-05   -0.11745E-05  2905   0.293E-03
  11 F= -.23434761E+04 E0= -.23434746E+04  d E =-.294009E-02  mag=     3.9625
       N       E                     dE             d eps       ncg     rms          rms(c)
DAV:   1    -0.232206242856E+04    0.74997E-02   -0.10053E+01  4520   0.155E+00    0.526E-01
RMM:   2    -0.232207478029E+04   -0.12352E-01   -0.15326E-01  4610   0.173E-01    0.393E-01
RMM:   3    -0.232207529157E+04   -0.51128E-03   -0.15804E-02  4877   0.964E-02    0.471E-01
RMM:   4    -0.232207311078E+04    0.21808E-02   -0.46959E-03  5108   0.339E-02    0.275E-01
RMM:   5    -0.232207288571E+04    0.22507E-03   -0.21000E-03  4588   0.245E-02    0.247E-01
RMM:   6    -0.232207219483E+04    0.69089E-03   -0.74045E-04  3973   0.135E-02    0.719E-02
RMM:   7    -0.232207213848E+04    0.56352E-04   -0.17538E-04  3244   0.886E-03    0.368E-02
RMM:   8    -0.232207213751E+04    0.96291E-06   -0.66202E-05  3080   0.518E-03
  12 F= -.23434770E+04 E0= -.23434752E+04  d E =-.357754E-02  mag=     3.9603
       N       E                     dE             d eps       ncg     rms          rms(c)
DAV:   1    -0.232208132281E+04   -0.91843E-02   -0.20241E+01  4480   0.209E+00    0.530E-01
RMM:   2    -0.232209655113E+04   -0.15228E-01   -0.17697E-01  5070   0.223E-01    0.339E-01
RMM:   3    -0.232209679345E+04   -0.24232E-03   -0.17832E-02  4859   0.100E-01    0.377E-01
RMM:   4    -0.232209533994E+04    0.14535E-02   -0.43406E-03  5150   0.321E-02    0.204E-01
RMM:   5    -0.232209491964E+04    0.42031E-03   -0.96828E-04  4426   0.165E-02    0.126E-01
RMM:   6    -0.232209500997E+04   -0.90330E-04   -0.53407E-04  3557   0.118E-02    0.157E-01
RMM:   7    -0.232209479245E+04    0.21751E-03   -0.17989E-04  3287   0.777E-03    0.349E-02
RMM:   8    -0.232209479337E+04   -0.91858E-06   -0.53471E-05  2955   0.459E-03
  13 F= -.23435002E+04 E0= -.23434983E+04  d E =-.381134E-02  mag=     3.9556
       N       E                     dE             d eps       ncg     rms          rms(c)
DAV:   1    -0.232207514406E+04    0.19648E-01   -0.53915E+00  4560   0.112E+00    0.328E-01
RMM:   2    -0.232207830871E+04   -0.31647E-02   -0.39776E-02  4458   0.104E-01    0.218E-01
RMM:   3    -0.232207836834E+04   -0.59636E-04   -0.43530E-03  4133   0.501E-02    0.234E-01
RMM:   4    -0.232207797448E+04    0.39386E-03   -0.15868E-03  4367   0.192E-02    0.144E-01
RMM:   5    -0.232207774595E+04    0.22854E-03   -0.30633E-04  3608   0.104E-02    0.570E-02
RMM:   6    -0.232207778473E+04   -0.38781E-04   -0.15599E-04  3144   0.662E-03    0.840E-02
RMM:   7    -0.232207772261E+04    0.62114E-04   -0.47209E-05  2878   0.426E-03    0.267E-02
RMM:   8    -0.232207771681E+04    0.58059E-05   -0.13446E-05  2652   0.225E-03
  14 F= -.23434826E+04 E0= -.23434804E+04  d E =-.433339E-02  mag=     3.9493
       N       E                     dE             d eps       ncg     rms          rms(c)
DAV:   1    -0.232209440948E+04   -0.16687E-01   -0.11957E+00  4540   0.371E-01    0.399E-01
RMM:   2    -0.232209389241E+04    0.51707E-03   -0.57166E-03  4015   0.368E-02    0.234E-01
RMM:   3    -0.232209453872E+04   -0.64631E-03   -0.22477E-03  4338   0.222E-02    0.307E-01
RMM:   4    -0.232209377707E+04    0.76164E-03   -0.11696E-03  4047   0.146E-02    0.142E-01
RMM:   5    -0.232209364041E+04    0.13666E-03   -0.26384E-04  3571   0.818E-03    0.629E-02
RMM:   6    -0.232209358998E+04    0.50433E-04   -0.66975E-05  2894   0.506E-03    0.212E-02
RMM:   7    -0.232209358508E+04    0.49030E-05   -0.10331E-05  2608   0.223E-03
  15 F= -.23434990E+04 E0= -.23434975E+04  d E =-.305750E-02  mag=     3.9593
       N       E                     dE             d eps       ncg     rms          rms(c)
DAV:   1    -0.232209965396E+04   -0.60640E-02   -0.60693E-01  4800   0.265E-01    0.335E-01
RMM:   2    -0.232209867378E+04    0.98018E-03   -0.58556E-03  4401   0.323E-02    0.195E-01
RMM:   3    -0.232209864444E+04    0.29347E-04   -0.15540E-03  4311   0.218E-02    0.197E-01
RMM:   4    -0.232209855792E+04    0.86519E-04   -0.10853E-03  4060   0.132E-02    0.178E-01
RMM:   5    -0.232209832776E+04    0.23015E-03   -0.32575E-04  3488   0.904E-03    0.887E-02
RMM:   6    -0.232209826968E+04    0.58087E-04   -0.14562E-04  2980   0.593E-03    0.465E-02
RMM:   7    -0.232209824651E+04    0.23167E-04   -0.18855E-05  2690   0.310E-03    0.115E-02
RMM:   8    -0.232209824740E+04   -0.89037E-06   -0.72156E-06  2367   0.180E-03
  16 F= -.23435037E+04 E0= -.23435019E+04  d E =-.356413E-02  mag=     3.9577
       N       E                     dE             d eps       ncg     rms          rms(c)
DAV:   1    -0.232206757688E+04    0.30670E-01   -0.12577E+00  4840   0.372E-01    0.461E-01
RMM:   2    -0.232206561585E+04    0.19610E-02   -0.12218E-02  4735   0.472E-02    0.268E-01
RMM:   3    -0.232206534069E+04    0.27515E-03   -0.28403E-03  4732   0.305E-02    0.219E-01
RMM:   4    -0.232206554021E+04   -0.19952E-03   -0.18978E-03  4442   0.175E-02    0.263E-01
RMM:   5    -0.232206490726E+04    0.63295E-03   -0.60196E-04  3524   0.120E-02    0.972E-02
RMM:   6    -0.232206488748E+04    0.19780E-04   -0.25899E-04  3332   0.777E-03    0.817E-02
RMM:   7    -0.232206480960E+04    0.77880E-04   -0.48381E-05  2874   0.480E-03    0.155E-02
RMM:   8    -0.232206481175E+04   -0.21492E-05   -0.16692E-05  2668   0.243E-03
  17 F= -.23434697E+04 E0= -.23434679E+04  d E =-.358900E-02  mag=     3.9571
       N       E                     dE             d eps       ncg     rms          rms(c)
DAV:   1    -0.232206976446E+04   -0.49549E-02   -0.62194E-01  4720   0.270E-01    0.260E-01
RMM:   2    -0.232206984157E+04   -0.77109E-04   -0.33203E-03  3767   0.272E-02    0.158E-01
RMM:   3    -0.232206991397E+04   -0.72402E-04   -0.99611E-04  3674   0.169E-02    0.121E-01
RMM:   4    -0.232206983102E+04    0.82944E-04   -0.50906E-04  3714   0.103E-02    0.869E-02
RMM:   5    -0.232206975659E+04    0.74435E-04   -0.79003E-05  3054   0.580E-03    0.226E-02
RMM:   6    -0.232206975968E+04   -0.30891E-05   -0.23054E-05  2748   0.304E-03
  18 F= -.23434749E+04 E0= -.23434730E+04  d E =-.366581E-02  mag=     3.9566
       N       E                     dE             d eps       ncg     rms          rms(c)
DAV:   1    -0.232209035451E+04   -0.20598E-01   -0.12596E+00  5020   0.381E-01    0.541E-01
RMM:   2    -0.232208701571E+04    0.33388E-02   -0.16810E-02  4603   0.562E-02    0.306E-01
RMM:   3    -0.232208699428E+04    0.21430E-04   -0.44079E-03  4720   0.389E-02    0.295E-01
RMM:   4    -0.232208627623E+04    0.71806E-03   -0.25982E-03  5330   0.220E-02    0.180E-01
RMM:   5    -0.232208601506E+04    0.26117E-03   -0.59537E-04  3697   0.123E-02    0.112E-01
RMM:   6    -0.232208596103E+04    0.54030E-04   -0.23860E-04  3018   0.702E-03    0.905E-02
RMM:   7    -0.232208588323E+04    0.77804E-04   -0.52480E-05  2993   0.445E-03    0.164E-02
RMM:   8    -0.232208588195E+04    0.12761E-05   -0.12435E-05  2784   0.273E-03
  19 F= -.23434911E+04 E0= -.23434893E+04  d E =-.356114E-02  mag=     3.9570
       N       E                     dE             d eps       ncg     rms          rms(c)
DAV:   1    -0.232209284229E+04   -0.69591E-02   -0.57204E-01  4680   0.287E-01    0.284E-01
RMM:   2    -0.232209253174E+04    0.31055E-03   -0.62411E-03  4361   0.390E-02    0.191E-01
RMM:   3    -0.232209327269E+04   -0.74094E-03   -0.20101E-03  4188   0.225E-02    0.342E-01
RMM:   4    -0.232209228646E+04    0.98623E-03   -0.96237E-04  4441   0.137E-02    0.122E-01
RMM:   5    -0.232209225409E+04    0.32363E-04   -0.40853E-04  3720   0.957E-03    0.102E-01
RMM:   6    -0.232209215779E+04    0.96301E-04   -0.14073E-04  3005   0.639E-03    0.317E-02
RMM:   7    -0.232209215091E+04    0.68834E-05   -0.23710E-05  2851   0.311E-03
  20 F= -.23434976E+04 E0= -.23434958E+04  d E =-.363615E-02  mag=     3.9561
       N       E                     dE             d eps       ncg     rms          rms(c)
DAV:   1    -0.232207915427E+04    0.13004E-01   -0.10328E+00  4480   0.369E-01    0.231E-01
RMM:   2    -0.232208008568E+04   -0.93141E-03   -0.57595E-03  4363   0.418E-02    0.265E-01
RMM:   3    -0.232207997372E+04    0.11196E-03   -0.15800E-03  4216   0.175E-02    0.236E-01
RMM:   4    -0.232207954715E+04    0.42658E-03   -0.53256E-04  3786   0.104E-02    0.925E-02
RMM:   5    -0.232207957334E+04   -0.26190E-04   -0.30311E-04  3530   0.828E-03    0.879E-02
RMM:   6    -0.232207949636E+04    0.76981E-04   -0.79452E-05  2909   0.554E-03    0.246E-02
RMM:   7    -0.232207949477E+04    0.15813E-05   -0.17669E-05  2800   0.255E-03
  21 F= -.23434844E+04 E0= -.23434825E+04  d E =-.363356E-02  mag=     3.9578
       N       E                     dE             d eps       ncg     rms          rms(c)
DAV:   1    -0.232209857894E+04   -0.19083E-01   -0.52750E-01  4540   0.268E-01    0.185E-01
RMM:   2    -0.232210018857E+04   -0.16096E-02   -0.55345E-03  4496   0.412E-02    0.397E-01
RMM:   3    -0.232209873093E+04    0.14576E-02   -0.13091E-03  4108   0.161E-02    0.108E-01
RMM:   4    -0.232209883064E+04   -0.99710E-04   -0.47770E-04  3238   0.916E-03    0.139E-01
RMM:   5    -0.232209866292E+04    0.16772E-03   -0.21849E-04  3258   0.687E-03    0.378E-02
RMM:   6    -0.232209866194E+04    0.97939E-06   -0.35925E-05  2846   0.352E-03
  22 F= -.23435033E+04 E0= -.23435016E+04  d E =-.325430E-02  mag=     3.9602
       N       E                     dE             d eps       ncg     rms          rms(c)
DAV:   1    -0.232206938165E+04    0.29281E-01   -0.10493E+00  4480   0.381E-01    0.265E-01
RMM:   2    -0.232207352796E+04   -0.41463E-02   -0.12950E-02  4687   0.586E-02    0.655E-01
RMM:   3    -0.232206971940E+04    0.38086E-02   -0.25721E-03  4762   0.224E-02    0.146E-01
RMM:   4    -0.232206996086E+04   -0.24146E-03   -0.99923E-04  3847   0.123E-02    0.210E-01
RMM:   5    -0.232206957126E+04    0.38960E-03   -0.45926E-04  3631   0.987E-03    0.521E-02
RMM:   6    -0.232206959816E+04   -0.26898E-04   -0.14001E-04  3092   0.619E-03    0.561E-02
RMM:   7    -0.232206955631E+04    0.41843E-04   -0.48294E-05  2858   0.452E-03    0.110E-02
RMM:   8    -0.232206955532E+04    0.99171E-06   -0.83063E-06  2713   0.202E-03
  23 F= -.23434752E+04 E0= -.23434732E+04  d E =-.414309E-02  mag=     3.9534
       N       E                     dE             d eps       ncg     rms          rms(c)
DAV:   1    -0.232211962619E+04   -0.50070E-01   -0.54155E-01  4540   0.277E-01    0.269E-01
RMM:   2    -0.232212226838E+04   -0.26422E-02   -0.11111E-02  5419   0.502E-02    0.537E-01
RMM:   3    -0.232211966472E+04    0.26037E-02   -0.29178E-03  4831   0.238E-02    0.195E-01
RMM:   4    -0.232211951881E+04    0.14591E-03   -0.73659E-04  3876   0.120E-02    0.148E-01
RMM:   5    -0.232211939696E+04    0.12185E-03   -0.40980E-04  3525   0.100E-02    0.877E-02
RMM:   6    -0.232211932959E+04    0.67376E-04   -0.91318E-05  3161   0.557E-03    0.349E-02
RMM:   7    -0.232211933455E+04   -0.49652E-05   -0.41462E-05  2877   0.411E-03
  24 F= -.23435245E+04 E0= -.23435225E+04  d E =-.405979E-02  mag=     3.9493
       N       E                     dE             d eps       ncg     rms          rms(c)
DAV:   1    -0.232205158402E+04    0.67746E-01   -0.10359E+00  4480   0.394E-01    0.379E-01
RMM:   2    -0.232205273270E+04   -0.11487E-02   -0.18113E-02  5307   0.628E-02    0.447E-01
RMM:   3    -0.232205194405E+04    0.78865E-03   -0.47716E-03  5002   0.324E-02    0.388E-01
RMM:   4    -0.232205065086E+04    0.12932E-02   -0.14140E-03  4272   0.166E-02    0.146E-01
RMM:   5    -0.232205074693E+04   -0.96076E-04   -0.81907E-04  3834   0.132E-02    0.166E-01
RMM:   6    -0.232205047008E+04    0.27686E-03   -0.28014E-04  3293   0.825E-03    0.357E-02
RMM:   7    -0.232205047359E+04   -0.35093E-05   -0.57687E-05  3008   0.463E-03
  25 F= -.23434556E+04 E0= -.23434540E+04  d E =-.323187E-02  mag=     3.9586
