       N       E                     dE             d eps       ncg     rms          rms(c)
DAV:   1     0.132306943370E+05    0.13231E+05   -0.85233E+05  4560   0.145E+03
DAV:   2    -0.102360922449E+04   -0.14254E+05   -0.13619E+05  4976   0.332E+02
DAV:   3    -0.249803596748E+04   -0.14744E+04   -0.14559E+04  5600   0.115E+02
DAV:   4    -0.254452144228E+04   -0.46485E+02   -0.46235E+02  6760   0.296E+01
DAV:   5    -0.254535502918E+04   -0.83359E+00   -0.83173E+00  6448   0.350E+00    0.171E+02
RMM:   6    -0.150088058028E+04    0.10445E+04   -0.19770E+03  4512   0.385E+01    0.724E+01
RMM:   7    -0.167362071893E+04   -0.17274E+03   -0.29044E+02  5160   0.143E+01    0.494E+01
RMM:   8    -0.173157088989E+04   -0.57950E+02   -0.49988E+01  5468   0.703E+00    0.457E+01
RMM:   9    -0.179602857141E+04   -0.64458E+02   -0.53508E+01  5144   0.662E+00    0.363E+01
RMM:  10    -0.193158492755E+04   -0.13556E+03   -0.63142E+01  5170   0.768E+00    0.218E+01
RMM:  11    -0.202966056175E+04   -0.98076E+02   -0.36224E+01  5154   0.510E+00    0.171E+01
RMM:  12    -0.209771923400E+04   -0.68059E+02   -0.27491E+01  5020   0.402E+00    0.145E+01
RMM:  13    -0.219594114884E+04   -0.98222E+02   -0.61980E+01  4857   0.581E+00    0.146E+01
RMM:  14    -0.226937066087E+04   -0.73430E+02   -0.53508E+01  4816   0.547E+00    0.101E+01
RMM:  15    -0.230115428039E+04   -0.31784E+02   -0.22720E+01  5031   0.385E+00    0.993E+00
RMM:  16    -0.232691298462E+04   -0.25759E+02   -0.22896E+01  4551   0.326E+00    0.480E+00
RMM:  17    -0.233466382358E+04   -0.77508E+01   -0.71098E+00  4788   0.230E+00    0.250E+00
RMM:  18    -0.233709207206E+04   -0.24282E+01   -0.25623E+00  5332   0.990E-01    0.260E+00
RMM:  19    -0.233753687341E+04   -0.44480E+00   -0.29356E-01  5509   0.393E-01    0.417E+00
RMM:  20    -0.233754486325E+04   -0.79898E-02   -0.67190E-02  5205   0.192E-01    0.395E+00
RMM:  21    -0.233751402131E+04    0.30842E-01   -0.40517E-02  4988   0.118E-01    0.365E+00
RMM:  22    -0.233717436121E+04    0.33966E+00   -0.51194E-01  4565   0.285E-01    0.320E+00
RMM:  23    -0.233681254006E+04    0.36182E+00   -0.31605E-01  4583   0.210E-01    0.413E+00
RMM:  24    -0.233615273955E+04    0.65980E+00   -0.33331E-01  4864   0.197E-01    0.530E+00
RMM:  25    -0.233773005284E+04   -0.15773E+01   -0.20123E+00  4668   0.403E-01    0.312E+00
RMM:  26    -0.233788278456E+04   -0.15273E+00   -0.29168E-01  4760   0.224E-01    0.413E+00
RMM:  27    -0.233802518390E+04   -0.14240E+00   -0.24942E-01  5260   0.233E-01    0.227E+00
RMM:  28    -0.233805379937E+04   -0.28615E-01   -0.90202E-02  5120   0.156E-01    0.110E+00
RMM:  29    -0.233806298047E+04   -0.91811E-02   -0.94031E-03  5662   0.525E-02    0.956E-01
RMM:  30    -0.233810023260E+04   -0.37252E-01   -0.24945E-02  4649   0.914E-02    0.106E+00
RMM:  31    -0.233812091773E+04   -0.20685E-01   -0.60630E-03  4674   0.559E-02    0.850E-01
RMM:  32    -0.233814480563E+04   -0.23888E-01   -0.90658E-03  4566   0.618E-02    0.507E-01
RMM:  33    -0.233816690007E+04   -0.22094E-01   -0.14526E-02  4624   0.782E-02    0.866E-02
RMM:  34    -0.233817325690E+04   -0.63568E-02   -0.33448E-03  4795   0.495E-02    0.950E-02
RMM:  35    -0.233817577291E+04   -0.25160E-02   -0.10107E-03  4575   0.214E-02    0.126E-01
RMM:  36    -0.233817687362E+04   -0.11007E-02   -0.25617E-04  4074   0.158E-02    0.116E-01
RMM:  37    -0.233817778542E+04   -0.91180E-03   -0.40387E-04  4067   0.127E-02    0.417E-02
RMM:  38    -0.233817798238E+04   -0.19697E-03   -0.79625E-05  3611   0.807E-03    0.440E-02
RMM:  39    -0.233817821710E+04   -0.23471E-03   -0.56931E-05  3565   0.519E-03    0.340E-02
RMM:  40    -0.233817832407E+04   -0.10697E-03   -0.39362E-05  3173   0.527E-03    0.734E-03
RMM:  41    -0.233817838032E+04   -0.56246E-04   -0.15192E-05  2971   0.351E-03    0.404E-03
RMM:  42    -0.233817840838E+04   -0.28068E-04   -0.76336E-06  2802   0.294E-03    0.435E-03
RMM:  43    -0.233817841702E+04   -0.86351E-05   -0.34305E-06  2476   0.225E-03
   1 F= -.23597398E+04 E0= -.23597398E+04  d E =-.235974E+04  mag=     3.9990
       N       E                     dE             d eps       ncg     rms          rms(c)
DAV:   1    -0.233805157612E+04    0.12683E+00   -0.17168E+01  4944   0.256E+00    0.139E+00
RMM:   2    -0.233825266159E+04   -0.20109E+00   -0.23392E+00  6604   0.712E-01    0.144E+00
RMM:   3    -0.233824030217E+04    0.12359E-01   -0.17215E-01  6466   0.225E-01    0.108E+00
RMM:   4    -0.233822655157E+04    0.13751E-01   -0.23372E-02  6074   0.693E-02    0.521E-01
RMM:   5    -0.233822673750E+04   -0.18593E-03   -0.87364E-03  5734   0.389E-02    0.647E-01
RMM:   6    -0.233822171993E+04    0.50176E-02   -0.78112E-03  5810   0.391E-02    0.157E-01
RMM:   7    -0.233822176054E+04   -0.40614E-04   -0.12050E-03  4720   0.163E-02    0.125E-01
RMM:   8    -0.233822166321E+04    0.97335E-04   -0.28782E-04  3190   0.909E-03    0.599E-02
RMM:   9    -0.233822170650E+04   -0.43291E-04   -0.65913E-05  3056   0.596E-03    0.253E-02
RMM:  10    -0.233822178453E+04   -0.78029E-04   -0.41036E-05  3137   0.516E-03    0.144E-02
RMM:  11    -0.233822183008E+04   -0.45554E-04   -0.15084E-05  2909   0.438E-03    0.740E-03
RMM:  12    -0.233822187322E+04   -0.43132E-04   -0.13301E-05  2909   0.329E-03    0.406E-03
RMM:  13    -0.233822191322E+04   -0.40005E-04   -0.11265E-05  2901   0.336E-03    0.372E-03
RMM:  14    -0.233822192901E+04   -0.15794E-04   -0.55781E-06  2787   0.270E-03    0.249E-03
RMM:  15    -0.233822194199E+04   -0.12972E-04   -0.43124E-06  2592   0.211E-03    0.934E-04
RMM:  16    -0.233822194687E+04   -0.48792E-05   -0.22854E-06  2498   0.186E-03
   2 F= -.23597814E+04 E0= -.23597814E+04  d E =-.416065E-01  mag=     4.0000
       N       E                     dE             d eps       ncg     rms          rms(c)
DAV:   1    -0.233822144553E+04    0.49646E-03   -0.22621E+00  4736   0.865E-01    0.546E-01
RMM:   2    -0.233824723006E+04   -0.25785E-01   -0.30181E-01  6586   0.247E-01    0.580E-01
RMM:   3    -0.233824515432E+04    0.20757E-02   -0.23800E-02  6234   0.832E-02    0.444E-01
RMM:   4    -0.233824296368E+04    0.21906E-02   -0.32365E-03  5213   0.268E-02    0.201E-01
RMM:   5    -0.233824293830E+04    0.25378E-04   -0.12279E-03  4008   0.150E-02    0.229E-01
RMM:   6    -0.233824229250E+04    0.64581E-03   -0.11175E-03  4945   0.150E-02    0.615E-02
RMM:   7    -0.233824229322E+04   -0.72803E-06   -0.23515E-04  3300   0.772E-03    0.567E-02
RMM:   8    -0.233824226051E+04    0.32711E-04   -0.53804E-05  2989   0.529E-03    0.219E-02
RMM:   9    -0.233824225759E+04    0.29217E-05   -0.11162E-05  2919   0.291E-03
   3 F= -.23598024E+04 E0= -.23598024E+04  d E =-.625919E-01  mag=     4.0000
       N       E                     dE             d eps       ncg     rms          rms(c)
DAV:   1    -0.233820446302E+04    0.37797E-01   -0.42555E+00  4656   0.162E+00    0.641E-01
RMM:   2    -0.233828624387E+04   -0.81781E-01   -0.85394E-01  6639   0.451E-01    0.646E-01
RMM:   3    -0.233828940417E+04   -0.31603E-02   -0.94410E-02  6424   0.177E-01    0.444E-01
RMM:   4    -0.233828704151E+04    0.23627E-02   -0.79567E-03  5756   0.382E-02    0.231E-01
RMM:   5    -0.233828699115E+04    0.50367E-04   -0.15053E-03  4839   0.179E-02    0.269E-01
RMM:   6    -0.233828625655E+04    0.73460E-03   -0.13248E-03  5403   0.185E-02    0.126E-01
RMM:   7    -0.233828635651E+04   -0.99961E-04   -0.66636E-04  3966   0.136E-02    0.156E-01
RMM:   8    -0.233828609135E+04    0.26517E-03   -0.18275E-04  3220   0.829E-03    0.236E-02
RMM:   9    -0.233828608540E+04    0.59448E-05   -0.30515E-05  3064   0.429E-03
   4 F= -.23598453E+04 E0= -.23598453E+04  d E =-.428533E-01  mag=     4.0000
       N       E                     dE             d eps       ncg     rms          rms(c)
DAV:   1    -0.233820632447E+04    0.79767E-01   -0.49332E+00  4624   0.174E+00    0.690E-01
RMM:   2    -0.233830261445E+04   -0.96290E-01   -0.10112E+00  6648   0.492E-01    0.681E-01
RMM:   3    -0.233830654261E+04   -0.39282E-02   -0.10985E-01  6450   0.189E-01    0.474E-01
RMM:   4    -0.233830380996E+04    0.27327E-02   -0.92795E-03  5824   0.412E-02    0.250E-01
RMM:   5    -0.233830368407E+04    0.12589E-03   -0.16945E-03  4980   0.191E-02    0.282E-01
RMM:   6    -0.233830286231E+04    0.82176E-03   -0.15349E-03  5454   0.199E-02    0.136E-01
RMM:   7    -0.233830296616E+04   -0.10385E-03   -0.78549E-04  4214   0.147E-02    0.162E-01
RMM:   8    -0.233830267243E+04    0.29373E-03   -0.21918E-04  3319   0.868E-03    0.250E-02
RMM:   9    -0.233830266963E+04    0.28012E-05   -0.33632E-05  3084   0.455E-03
   5 F= -.23598609E+04 E0= -.23598609E+04  d E =-.584393E-01  mag=     4.0000
       N       E                     dE             d eps       ncg     rms          rms(c)
DAV:   1    -0.233826733097E+04    0.35341E-01   -0.53092E+00  4592   0.164E+00    0.565E-01
RMM:   2    -0.233833398418E+04   -0.66653E-01   -0.71106E-01  6606   0.413E-01    0.413E-01
RMM:   3    -0.233834099569E+04   -0.70115E-02   -0.85404E-02  6238   0.169E-01    0.484E-01
RMM:   4    -0.233833890765E+04    0.20880E-02   -0.75276E-03  5546   0.353E-02    0.225E-01
RMM:   5    -0.233833863983E+04    0.26782E-03   -0.94947E-04  3946   0.139E-02    0.205E-01
RMM:   6    -0.233833813676E+04    0.50307E-03   -0.10924E-03  5065   0.182E-02    0.956E-02
RMM:   7    -0.233833807542E+04    0.61341E-04   -0.62285E-04  4767   0.133E-02    0.527E-02
RMM:   8    -0.233833806775E+04    0.76744E-05   -0.79613E-05  3010   0.694E-03
   6 F= -.23598952E+04 E0= -.23598952E+04  d E =-.343803E-01  mag=     4.0000
       N       E                     dE             d eps       ncg     rms          rms(c)
DAV:   1    -0.233781809623E+04    0.51998E+00   -0.41128E+01  4548   0.456E+00    0.161E+00
RMM:   2    -0.233835536811E+04   -0.53727E+00   -0.57579E+00  6640   0.117E+00    0.115E+00
RMM:   3    -0.233839782827E+04   -0.42460E-01   -0.62846E-01  6255   0.454E-01    0.117E+00
RMM:   4    -0.233838656464E+04    0.11264E-01   -0.55146E-02  6288   0.940E-02    0.627E-01
RMM:   5    -0.233838500712E+04    0.15575E-02   -0.74620E-03  5642   0.385E-02    0.629E-01
RMM:   6    -0.233838104087E+04    0.39663E-02   -0.86594E-03  5846   0.473E-02    0.321E-01
RMM:   7    -0.233838021344E+04    0.82742E-03   -0.54386E-03  5481   0.352E-02    0.164E-01
RMM:   8    -0.233838020218E+04    0.11262E-04   -0.86477E-04  4384   0.189E-02    0.154E-01
RMM:   9    -0.233837988030E+04    0.32188E-03   -0.35420E-04  3388   0.105E-02    0.534E-02
RMM:  10    -0.233837990728E+04   -0.26986E-04   -0.16298E-04  3230   0.762E-03    0.198E-02
RMM:  11    -0.233837997616E+04   -0.68872E-04   -0.49775E-05  3114   0.519E-03    0.845E-03
RMM:  12    -0.233838002814E+04   -0.51980E-04   -0.14635E-05  2929   0.412E-03    0.490E-03
RMM:  13    -0.233838006877E+04   -0.40631E-04   -0.10040E-05  2892   0.331E-03    0.342E-03
RMM:  14    -0.233838010634E+04   -0.37575E-04   -0.96651E-06  2878   0.301E-03    0.224E-03
RMM:  15    -0.233838013034E+04   -0.23999E-04   -0.77829E-06  2768   0.273E-03    0.108E-03
RMM:  16    -0.233838013596E+04   -0.56213E-05   -0.32812E-06  2554   0.226E-03
   7 F= -.23599347E+04 E0= -.23599347E+04  d E =-.738212E-01  mag=     4.0000
       N       E                     dE             d eps       ncg     rms          rms(c)
DAV:   1    -0.233827990340E+04    0.10023E+00   -0.11267E+01  4560   0.257E+00    0.968E-01
RMM:   2    -0.233841456167E+04   -0.13466E+00   -0.14256E+00  6226   0.627E-01    0.747E-01
RMM:   3    -0.233842634567E+04   -0.11784E-01   -0.15562E-01  6061   0.257E-01    0.894E-01
RMM:   4    -0.233841746695E+04    0.88787E-02   -0.14337E-02  6337   0.584E-02    0.362E-01
RMM:   5    -0.233841696965E+04    0.49731E-03   -0.36258E-03  5514   0.284E-02    0.356E-01
RMM:   6    -0.233841537806E+04    0.15916E-02   -0.35298E-03  5702   0.333E-02    0.120E-01
RMM:   7    -0.233841538412E+04   -0.60588E-05   -0.94132E-04  5042   0.194E-02    0.120E-01
RMM:   8    -0.233841522753E+04    0.15659E-03   -0.20232E-04  3429   0.907E-03    0.418E-02
RMM:   9    -0.233841520441E+04    0.23119E-04   -0.68058E-05  3025   0.633E-03    0.201E-02
RMM:  10    -0.233841521545E+04   -0.11039E-04   -0.37059E-05  3046   0.485E-03    0.910E-03
RMM:  11    -0.233841522850E+04   -0.13057E-04   -0.10578E-05  2903   0.398E-03    0.475E-03
RMM:  12    -0.233841524123E+04   -0.12725E-04   -0.79495E-06  2881   0.313E-03    0.291E-03
RMM:  13    -0.233841525287E+04   -0.11636E-04   -0.56390E-06  2862   0.289E-03    0.181E-03
RMM:  14    -0.233841525987E+04   -0.70028E-05   -0.39302E-06  2767   0.227E-03
   8 F= -.23599689E+04 E0= -.23599689E+04  d E =-.342205E-01  mag=     4.0000
       N       E                     dE             d eps       ncg     rms          rms(c)
DAV:   1    -0.233840755147E+04    0.77014E-02   -0.80594E-01  4656   0.681E-01    0.257E-01
RMM:   2    -0.233841706271E+04   -0.95112E-02   -0.99823E-02  6235   0.165E-01    0.214E-01
RMM:   3    -0.233841783089E+04   -0.76818E-03   -0.10802E-02  5831   0.666E-02    0.250E-01
RMM:   4    -0.233841712782E+04    0.70307E-03   -0.99708E-04  3823   0.160E-02    0.932E-02
RMM:   5    -0.233841710154E+04    0.26280E-04   -0.27375E-04  3259   0.963E-03    0.950E-02
RMM:   6    -0.233841698799E+04    0.11356E-03   -0.25841E-04  4394   0.102E-02    0.284E-02
RMM:   7    -0.233841698831E+04   -0.32387E-06   -0.54808E-05  3103   0.695E-03
   9 F= -.23599704E+04 E0= -.23599704E+04  d E =-.357240E-01  mag=     4.0000
       N       E                     dE             d eps       ncg     rms          rms(c)
DAV:   1    -0.233829873878E+04    0.11825E+00   -0.84505E+00  4560   0.213E+00    0.839E-01
RMM:   2    -0.233843934457E+04   -0.14061E+00   -0.15012E+00  6382   0.575E-01    0.739E-01
RMM:   3    -0.233845095249E+04   -0.11608E-01   -0.15995E-01  6148   0.233E-01    0.783E-01
RMM:   4    -0.233844422987E+04    0.67226E-02   -0.13715E-02  6041   0.504E-02    0.341E-01
RMM:   5    -0.233844366143E+04    0.56844E-03   -0.26957E-03  5289   0.221E-02    0.337E-01
RMM:   6    -0.233844218031E+04    0.14811E-02   -0.33615E-03  5581   0.280E-02    0.126E-01
RMM:   7    -0.233844202723E+04    0.15308E-03   -0.92345E-04  4983   0.159E-02    0.628E-02
RMM:   8    -0.233844202729E+04   -0.59008E-07   -0.16937E-04  3248   0.867E-03    0.751E-02
RMM:   9    -0.233844195787E+04    0.69414E-04   -0.64574E-05  2998   0.634E-03    0.222E-02
RMM:  10    -0.233844195915E+04   -0.12718E-05   -0.49509E-05  3171   0.434E-03
  10 F= -.23599952E+04 E0= -.23599952E+04  d E =-.248154E-01  mag=     4.0000
       N       E                     dE             d eps       ncg     rms          rms(c)
DAV:   1    -0.233843537851E+04    0.65794E-02   -0.45128E-01  4640   0.494E-01    0.193E-01
RMM:   2    -0.233844279776E+04   -0.74193E-02   -0.78463E-02  6417   0.132E-01    0.183E-01
RMM:   3    -0.233844334840E+04   -0.55064E-03   -0.82054E-03  5029   0.523E-02    0.184E-01
RMM:   4    -0.233844297008E+04    0.37832E-03   -0.70836E-04  3244   0.123E-02    0.762E-02
RMM:   5    -0.233844294901E+04    0.21075E-04   -0.15757E-04  3147   0.665E-03    0.797E-02
RMM:   6    -0.233844286706E+04    0.81946E-04   -0.18645E-04  3397   0.780E-03    0.236E-02
RMM:   7    -0.233844286672E+04    0.33779E-06   -0.38977E-05  3066   0.515E-03
  11 F= -.23599961E+04 E0= -.23599961E+04  d E =-.257058E-01  mag=     4.0000
       N       E                     dE             d eps       ncg     rms          rms(c)
DAV:   1    -0.233842974890E+04    0.13118E-01   -0.12787E+00  4560   0.105E+00    0.367E-01
RMM:   2    -0.233845138263E+04   -0.21634E-01   -0.21976E-01  6325   0.260E-01    0.411E-01
RMM:   3    -0.233845092125E+04    0.46138E-03   -0.19360E-02  6004   0.988E-02    0.260E-01
RMM:   4    -0.233845009928E+04    0.82197E-03   -0.20736E-03  5506   0.228E-02    0.148E-01
RMM:   5    -0.233845000861E+04    0.90670E-04   -0.42815E-04  3287   0.117E-02    0.124E-01
RMM:   6    -0.233844980612E+04    0.20249E-03   -0.41321E-04  4690   0.128E-02    0.587E-02
RMM:   7    -0.233844983152E+04   -0.25397E-04   -0.17418E-04  3285   0.104E-02    0.681E-02
RMM:   8    -0.233844977630E+04    0.55219E-04   -0.59504E-05  3029   0.581E-03    0.123E-02
RMM:   9    -0.233844977761E+04   -0.13106E-05   -0.92547E-06  2935   0.355E-03
  12 F= -.23600030E+04 E0= -.23600030E+04  d E =-.690998E-02  mag=     4.0000
       N       E                     dE             d eps       ncg     rms          rms(c)
DAV:   1    -0.233844820144E+04    0.15749E-02   -0.12220E-01  4816   0.326E-01    0.113E-01
RMM:   2    -0.233845028011E+04   -0.20787E-02   -0.21322E-02  6301   0.810E-02    0.121E-01
RMM:   3    -0.233845026092E+04    0.19189E-04   -0.18496E-03  4267   0.309E-02    0.809E-02
RMM:   4    -0.233845018042E+04    0.80498E-04   -0.19568E-04  3170   0.804E-03    0.447E-02
RMM:   5    -0.233845017475E+04    0.56725E-05   -0.44166E-05  2980   0.472E-03
  13 F= -.23600034E+04 E0= -.23600034E+04  d E =-.730916E-02  mag=     4.0000
       N       E                     dE             d eps       ncg     rms          rms(c)
DAV:   1    -0.233844336537E+04    0.68151E-02   -0.82421E-01  4560   0.822E-01    0.268E-01
RMM:   2    -0.233845662256E+04   -0.13257E-01   -0.13391E-01  6595   0.201E-01    0.287E-01
RMM:   3    -0.233845664586E+04   -0.23309E-04   -0.10997E-02  5947   0.683E-02    0.199E-01
RMM:   4    -0.233845613741E+04    0.50845E-03   -0.12249E-03  4297   0.167E-02    0.861E-02
RMM:   5    -0.233845613701E+04    0.40379E-06   -0.21490E-04  3175   0.935E-03    0.939E-02
RMM:   6    -0.233845605086E+04    0.86143E-04   -0.17702E-04  3500   0.865E-03    0.516E-02
RMM:   7    -0.233845604630E+04    0.45654E-05   -0.90287E-05  3059   0.762E-03
  14 F= -.23600094E+04 E0= -.23600094E+04  d E =-.602790E-02  mag=     4.0000
       N       E                     dE             d eps       ncg     rms          rms(c)
DAV:   1    -0.233838321320E+04    0.72838E-01   -0.50085E+00  4536   0.203E+00    0.668E-01
RMM:   2    -0.233846486177E+04   -0.81649E-01   -0.82281E-01  6542   0.503E-01    0.725E-01
RMM:   3    -0.233846439205E+04    0.46972E-03   -0.66449E-02  6253   0.173E-01    0.487E-01
RMM:   4    -0.233846144974E+04    0.29423E-02   -0.75812E-03  5952   0.409E-02    0.233E-01
RMM:   5    -0.233846137771E+04    0.72033E-04   -0.12004E-03  4505   0.185E-02    0.226E-01
RMM:   6    -0.233846078441E+04    0.59330E-03   -0.10802E-03  5092   0.189E-02    0.113E-01
RMM:   7    -0.233846082889E+04   -0.44483E-04   -0.63749E-04  4534   0.165E-02    0.120E-01
RMM:   8    -0.233846065408E+04    0.17482E-03   -0.15843E-04  3224   0.783E-03    0.201E-02
RMM:   9    -0.233846064785E+04    0.62263E-05   -0.23482E-05  2989   0.450E-03
  15 F= -.23600144E+04 E0= -.23600144E+04  d E =-.110326E-01  mag=     4.0000
       N       E                     dE             d eps       ncg     rms          rms(c)
DAV:   1    -0.233845320489E+04    0.74492E-02   -0.62340E-01  4704   0.749E-01    0.252E-01
RMM:   2    -0.233846541353E+04   -0.12209E-01   -0.12123E-01  6578   0.188E-01    0.285E-01
RMM:   3    -0.233846543597E+04   -0.22448E-04   -0.10204E-02  5998   0.633E-02    0.184E-01
RMM:   4    -0.233846502206E+04    0.41391E-03   -0.11162E-03  4150   0.157E-02    0.890E-02
RMM:   5    -0.233846501321E+04    0.88485E-05   -0.17233E-04  3063   0.799E-03    0.836E-02
RMM:   6    -0.233846492594E+04    0.87278E-04   -0.15609E-04  3632   0.836E-03    0.342E-02
RMM:   7    -0.233846493416E+04   -0.82202E-05   -0.69190E-05  3066   0.677E-03
  16 F= -.23600187E+04 E0= -.23600187E+04  d E =-.428550E-02  mag=     4.0000
       N       E                     dE             d eps       ncg     rms          rms(c)
DAV:   1    -0.233839978932E+04    0.65137E-01   -0.36635E+00  4536   0.182E+00    0.616E-01
RMM:   2    -0.233847217280E+04   -0.72383E-01   -0.71645E-01  6585   0.457E-01    0.709E-01
RMM:   3    -0.233847179655E+04    0.37626E-03   -0.61432E-02  6349   0.156E-01    0.445E-01
RMM:   4    -0.233846939186E+04    0.24047E-02   -0.66255E-03  5853   0.377E-02    0.215E-01
RMM:   5    -0.233846934750E+04    0.44352E-04   -0.10422E-03  4121   0.168E-02    0.203E-01
RMM:   6    -0.233846883542E+04    0.51208E-03   -0.89043E-04  4907   0.181E-02    0.873E-02
RMM:   7    -0.233846888105E+04   -0.45623E-04   -0.42163E-04  4324   0.143E-02    0.952E-02
RMM:   8    -0.233846877572E+04    0.10532E-03   -0.10292E-04  3067   0.665E-03    0.194E-02
RMM:   9    -0.233846877192E+04    0.37991E-05   -0.18152E-05  2975   0.419E-03
  17 F= -.23600226E+04 E0= -.23600226E+04  d E =-.813663E-02  mag=     4.0000
       N       E                     dE             d eps       ncg     rms          rms(c)
DAV:   1    -0.233846712248E+04    0.16532E-02   -0.26401E-01  4784   0.506E-01    0.198E-01
RMM:   2    -0.233847272967E+04   -0.56072E-02   -0.56440E-02  6184   0.128E-01    0.211E-01
RMM:   3    -0.233847289203E+04   -0.16235E-03   -0.56332E-03  5652   0.498E-02    0.168E-01
RMM:   4    -0.233847257064E+04    0.32138E-03   -0.55671E-04  3738   0.125E-02    0.625E-02
RMM:   5    -0.233847256544E+04    0.52068E-05   -0.12939E-04  3111   0.760E-03    0.664E-02
RMM:   6    -0.233847251257E+04    0.52862E-04   -0.10339E-04  3590   0.765E-03    0.240E-02
RMM:   7    -0.233847252118E+04   -0.86074E-05   -0.42212E-05  3036   0.607E-03
  18 F= -.23600260E+04 E0= -.23600260E+04  d E =-.341409E-02  mag=     4.0000
       N       E                     dE             d eps       ncg     rms          rms(c)
DAV:   1    -0.233845913021E+04    0.13382E-01   -0.78872E-01  4560   0.876E-01    0.343E-01
RMM:   2    -0.233847586358E+04   -0.16733E-01   -0.16895E-01  6186   0.222E-01    0.363E-01
RMM:   3    -0.233847638239E+04   -0.51882E-03   -0.16697E-02  6008   0.866E-02    0.294E-01
RMM:   4    -0.233847540229E+04    0.98010E-03   -0.16790E-03  5276   0.215E-02    0.109E-01
RMM:   5    -0.233847538103E+04    0.21269E-04   -0.39814E-04  3587   0.119E-02    0.114E-01
RMM:   6    -0.233847521894E+04    0.16209E-03   -0.29146E-04  4425   0.119E-02    0.436E-02
RMM:   7    -0.233847523925E+04   -0.20313E-04   -0.12736E-04  3231   0.917E-03    0.540E-02
RMM:   8    -0.233847520065E+04    0.38600E-04   -0.39670E-05  2976   0.529E-03    0.112E-02
RMM:   9    -0.233847519989E+04    0.75882E-06   -0.76773E-06  2934   0.336E-03
  19 F= -.23600281E+04 E0= -.23600281E+04  d E =-.551589E-02  mag=     4.0000
       N       E                     dE             d eps       ncg     rms          rms(c)
DAV:   1    -0.233847266782E+04    0.25328E-02   -0.26669E-01  4592   0.463E-01    0.179E-01
RMM:   2    -0.233847870533E+04   -0.60375E-02   -0.60643E-02  6475   0.121E-01    0.223E-01
RMM:   3    -0.233847874144E+04   -0.36114E-04   -0.59014E-03  5123   0.446E-02    0.142E-01
RMM:   4    -0.233847854907E+04    0.19238E-03   -0.57425E-04  3271   0.110E-02    0.646E-02
RMM:   5    -0.233847852600E+04    0.23068E-04   -0.89790E-05  3053   0.591E-03    0.549E-02
RMM:   6    -0.233847849059E+04    0.35410E-04   -0.71392E-05  3075   0.575E-03    0.257E-02
RMM:   7    -0.233847849883E+04   -0.82413E-05   -0.41143E-05  3026   0.497E-03
  20 F= -.23600311E+04 E0= -.23600311E+04  d E =-.298096E-02  mag=     4.0000
       N       E                     dE             d eps       ncg     rms          rms(c)
DAV:   1    -0.233843098525E+04    0.47505E-01   -0.23943E+00  4536   0.139E+00    0.540E-01
RMM:   2    -0.233848483064E+04   -0.53845E-01   -0.54499E-01  6501   0.362E-01    0.646E-01
RMM:   3    -0.233848574610E+04   -0.91546E-03   -0.54239E-02  6302   0.133E-01    0.439E-01
RMM:   4    -0.233848395983E+04    0.17863E-02   -0.52809E-03  5643   0.319E-02    0.203E-01
RMM:   5    -0.233848369743E+04    0.26240E-03   -0.82932E-04  3874   0.144E-02    0.162E-01
RMM:   6    -0.233848339168E+04    0.30576E-03   -0.60359E-04  4797   0.151E-02    0.809E-02
RMM:   7    -0.233848346174E+04   -0.70060E-04   -0.38067E-04  4058   0.121E-02    0.102E-01
RMM:   8    -0.233848332402E+04    0.13771E-03   -0.11848E-04  3046   0.728E-03    0.174E-02
RMM:   9    -0.233848332159E+04    0.24342E-05   -0.15890E-05  3000   0.423E-03
  21 F= -.23600350E+04 E0= -.23600350E+04  d E =-.686263E-02  mag=     4.0000
       N       E                     dE             d eps       ncg     rms          rms(c)
DAV:   1    -0.233847758884E+04    0.57352E-02   -0.49641E-01  4624   0.637E-01    0.224E-01
RMM:   2    -0.233848695706E+04   -0.93682E-02   -0.97491E-02  6318   0.155E-01    0.221E-01
RMM:   3    -0.233848759614E+04   -0.63908E-03   -0.10569E-02  5836   0.618E-02    0.195E-01
RMM:   4    -0.233848715199E+04    0.44415E-03   -0.91628E-04  3903   0.144E-02    0.766E-02
RMM:   5    -0.233848716552E+04   -0.13528E-04   -0.19198E-04  3151   0.825E-03    0.889E-02
RMM:   6    -0.233848707138E+04    0.94139E-04   -0.15325E-04  3516   0.837E-03    0.307E-02
RMM:   7    -0.233848707996E+04   -0.85764E-05   -0.60607E-05  3079   0.644E-03
  22 F= -.23600385E+04 E0= -.23600385E+04  d E =-.354020E-02  mag=     4.0000
       N       E                     dE             d eps       ncg     rms          rms(c)
DAV:   1    -0.233846362006E+04    0.23451E-01   -0.13542E+00  4536   0.105E+00    0.373E-01
RMM:   2    -0.233848907829E+04   -0.25458E-01   -0.26584E-01  6389   0.258E-01    0.361E-01
RMM:   3    -0.233849099136E+04   -0.19131E-02   -0.29686E-02  6120   0.104E-01    0.328E-01
RMM:   4    -0.233848975372E+04    0.12376E-02   -0.25635E-03  5489   0.241E-02    0.128E-01
RMM:   5    -0.233848978172E+04   -0.28004E-04   -0.54362E-04  3682   0.122E-02    0.146E-01
RMM:   6    -0.233848952936E+04    0.25236E-03   -0.38732E-04  4324   0.127E-02    0.545E-02
RMM:   7    -0.233848955703E+04   -0.27669E-04   -0.19321E-04  3358   0.969E-03    0.636E-02
RMM:   8    -0.233848951096E+04    0.46062E-04   -0.54477E-05  3017   0.593E-03    0.144E-02
RMM:   9    -0.233848950956E+04    0.14059E-05   -0.82713E-06  2939   0.325E-03
  23 F= -.23600406E+04 E0= -.23600406E+04  d E =-.561971E-02  mag=     4.0000
       N       E                     dE             d eps       ncg     rms          rms(c)
DAV:   1    -0.233848531470E+04    0.41963E-02   -0.37893E-01  4624   0.521E-01    0.192E-01
RMM:   2    -0.233849223103E+04   -0.69163E-02   -0.72915E-02  6480   0.128E-01    0.175E-01
RMM:   3    -0.233849277242E+04   -0.54139E-03   -0.80367E-03  5458   0.509E-02    0.168E-01
RMM:   4    -0.233849244487E+04    0.32755E-03   -0.68491E-04  3437   0.121E-02    0.642E-02
RMM:   5    -0.233849243858E+04    0.62899E-05   -0.12605E-04  3066   0.707E-03    0.652E-02
RMM:   6    -0.233849239728E+04    0.41301E-04   -0.94509E-05  3095   0.626E-03    0.381E-02
RMM:   7    -0.233849238567E+04    0.11609E-04   -0.46244E-05  3095   0.555E-03    0.132E-02
RMM:   8    -0.233849238510E+04    0.57265E-06   -0.90896E-06  2904   0.373E-03
  24 F= -.23600435E+04 E0= -.23600435E+04  d E =-.288873E-02  mag=     4.0000
       N       E                     dE             d eps       ncg     rms          rms(c)
DAV:   1    -0.233843354572E+04    0.58840E-01   -0.34055E+00  4536   0.156E+00    0.574E-01
RMM:   2    -0.233849549772E+04   -0.61952E-01   -0.65612E-01  6429   0.382E-01    0.507E-01
RMM:   3    -0.233850041905E+04   -0.49213E-02   -0.71816E-02  6239   0.150E-01    0.501E-01
RMM:   4    -0.233849756211E+04    0.28569E-02   -0.61560E-03  5886   0.353E-02    0.199E-01
RMM:   5    -0.233849754105E+04    0.21059E-04   -0.11406E-03  4751   0.170E-02    0.205E-01
RMM:   6    -0.233849706591E+04    0.47514E-03   -0.88477E-04  4810   0.158E-02    0.105E-01
RMM:   7    -0.233849701037E+04    0.55545E-04   -0.43370E-04  4613   0.125E-02    0.668E-02
RMM:   8    -0.233849696093E+04    0.49435E-04   -0.94982E-05  3036   0.686E-03    0.297E-02
RMM:   9    -0.233849694722E+04    0.13714E-04   -0.16657E-05  2963   0.401E-03    0.160E-02
RMM:  10    -0.233849694254E+04    0.46745E-05   -0.20374E-05  2971   0.310E-03
  25 F= -.23600481E+04 E0= -.23600481E+04  d E =-.751620E-02  mag=     4.0000
       N       E                     dE             d eps       ncg     rms          rms(c)
DAV:   1    -0.233849005265E+04    0.68946E-02   -0.60921E-01  4640   0.656E-01    0.247E-01
RMM:   2    -0.233850107064E+04   -0.11018E-01   -0.11686E-01  6382   0.163E-01    0.201E-01
RMM:   3    -0.233850220427E+04   -0.11336E-02   -0.12863E-02  5722   0.642E-02    0.233E-01
RMM:   4    -0.233850156914E+04    0.63513E-03   -0.11197E-03  3771   0.156E-02    0.823E-02
RMM:   5    -0.233850154154E+04    0.27600E-04   -0.23192E-04  3544   0.944E-03    0.767E-02
RMM:   6    -0.233850149717E+04    0.44367E-04   -0.16680E-04  3151   0.857E-03    0.503E-02
RMM:   7    -0.233850147357E+04    0.23601E-04   -0.56154E-05  3058   0.657E-03    0.207E-02
RMM:   8    -0.233850147094E+04    0.26295E-05   -0.14778E-05  2940   0.452E-03
  26 F= -.23600528E+04 E0= -.23600528E+04  d E =-.465811E-02  mag=     4.0000
       N       E                     dE             d eps       ncg     rms          rms(c)
DAV:   1    -0.233842363656E+04    0.77837E-01   -0.43769E+00  4536   0.176E+00    0.663E-01
RMM:   2    -0.233850220614E+04   -0.78570E-01   -0.83884E-01  6315   0.437E-01    0.508E-01
RMM:   3    -0.233851104739E+04   -0.88413E-02   -0.95269E-02  6160   0.176E-01    0.628E-01
RMM:   4    -0.233850655785E+04    0.44895E-02   -0.80347E-03  6093   0.414E-02    0.224E-01
RMM:   5    -0.233850648468E+04    0.73170E-04   -0.17388E-03  5359   0.219E-02    0.225E-01
RMM:   6    -0.233850602669E+04    0.45799E-03   -0.12960E-03  4956   0.196E-02    0.136E-01
RMM:   7    -0.233850582832E+04    0.19838E-03   -0.41878E-04  4897   0.129E-02    0.331E-02
RMM:   8    -0.233850581367E+04    0.14644E-04   -0.47026E-05  2999   0.658E-03    0.317E-02
RMM:   9    -0.233850580473E+04    0.89393E-05   -0.25609E-05  2987   0.399E-03
  27 F= -.23600575E+04 E0= -.23600575E+04  d E =-.938406E-02  mag=     4.0000
       N       E                     dE             d eps       ncg     rms          rms(c)
DAV:   1    -0.233849978937E+04    0.60243E-02   -0.43229E-01  4640   0.519E-01    0.207E-01
RMM:   2    -0.233850810542E+04   -0.83160E-02   -0.87700E-02  6532   0.133E-01    0.180E-01
RMM:   3    -0.233850894909E+04   -0.84368E-03   -0.98665E-03  5254   0.533E-02    0.197E-01
RMM:   4    -0.233850849925E+04    0.44984E-03   -0.85432E-04  3397   0.129E-02    0.687E-02
RMM:   5    -0.233850847251E+04    0.26736E-04   -0.13892E-04  3155   0.711E-03    0.594E-02
RMM:   6    -0.233850845416E+04    0.18354E-04   -0.11709E-04  3061   0.673E-03    0.434E-02
RMM:   7    -0.233850843840E+04    0.15761E-04   -0.40998E-05  3045   0.524E-03    0.169E-02
RMM:   8    -0.233850843702E+04    0.13773E-05   -0.10159E-05  2922   0.344E-03
  28 F= -.23600602E+04 E0= -.23600602E+04  d E =-.273275E-02  mag=     4.0000
       N       E                     dE             d eps       ncg     rms          rms(c)
DAV:   1    -0.233843500468E+04    0.73434E-01   -0.38763E+00  4536   0.156E+00    0.615E-01
RMM:   2    -0.233850854458E+04   -0.73540E-01   -0.78386E-01  6457   0.395E-01    0.484E-01
RMM:   3    -0.233851726992E+04   -0.87253E-02   -0.92243E-02  6222   0.165E-01    0.595E-01
RMM:   4    -0.233851331867E+04    0.39513E-02   -0.76055E-03  5866   0.373E-02    0.205E-01
RMM:   5    -0.233851314822E+04    0.17045E-03   -0.13621E-03  5027   0.184E-02    0.184E-01
RMM:   6    -0.233851296553E+04    0.18269E-03   -0.10409E-03  4529   0.164E-02    0.144E-01
RMM:   7    -0.233851274354E+04    0.22199E-03   -0.37274E-04  4472   0.112E-02    0.303E-02
RMM:   8    -0.233851272498E+04    0.18552E-04   -0.30273E-05  3009   0.562E-03    0.228E-02
RMM:   9    -0.233851271999E+04    0.49973E-05   -0.29243E-05  2964   0.379E-03
  29 F= -.23600648E+04 E0= -.23600648E+04  d E =-.735948E-02  mag=     4.0000
       N       E                     dE             d eps       ncg     rms          rms(c)
DAV:   1    -0.233850481519E+04    0.79098E-02   -0.40486E-01  4576   0.503E-01    0.201E-01
RMM:   2    -0.233851261234E+04   -0.77972E-02   -0.82182E-02  6461   0.129E-01    0.177E-01
RMM:   3    -0.233851343468E+04   -0.82233E-03   -0.96130E-03  5178   0.532E-02    0.193E-01
RMM:   4    -0.233851300022E+04    0.43446E-03   -0.80432E-04  3394   0.127E-02    0.657E-02
RMM:   5    -0.233851296929E+04    0.30923E-04   -0.13447E-04  3141   0.700E-03    0.538E-02
RMM:   6    -0.233851295766E+04    0.11632E-04   -0.10649E-04  3066   0.652E-03    0.434E-02
RMM:   7    -0.233851294056E+04    0.17103E-04   -0.36868E-05  3030   0.513E-03    0.116E-02
RMM:   8    -0.233851294071E+04   -0.14919E-06   -0.81138E-06  2893   0.323E-03
  30 F= -.23600652E+04 E0= -.23600652E+04  d E =-.770536E-02  mag=     4.0000
       N       E                     dE             d eps       ncg     rms          rms(c)
DAV:   1    -0.233850229413E+04    0.10646E-01   -0.80272E-01  4536   0.733E-01    0.295E-01
RMM:   2    -0.233851777806E+04   -0.15484E-01   -0.16521E-01  6364   0.183E-01    0.248E-01
RMM:   3    -0.233851944580E+04   -0.16677E-02   -0.19785E-02  5760   0.788E-02    0.276E-01
RMM:   4    -0.233851863162E+04    0.81418E-03   -0.16627E-03  4090   0.181E-02    0.985E-02
RMM:   5    -0.233851861444E+04    0.17176E-04   -0.29698E-04  3413   0.100E-02    0.986E-02
RMM:   6    -0.233851851873E+04    0.95708E-04   -0.22950E-04  3585   0.944E-03    0.473E-02
RMM:   7    -0.233851850265E+04    0.16086E-04   -0.83815E-05  3230   0.693E-03    0.156E-02
RMM:   8    -0.233851850368E+04   -0.10301E-05   -0.14336E-05  2939   0.473E-03
  31 F= -.23600708E+04 E0= -.23600708E+04  d E =-.558340E-02  mag=     4.0000
       N       E                     dE             d eps       ncg     rms          rms(c)
DAV:   1    -0.233840218922E+04    0.11631E+00   -0.60026E+00  4536   0.201E+00    0.807E-01
RMM:   2    -0.233851790907E+04   -0.11572E+00   -0.12422E+00  6367   0.505E-01    0.634E-01
RMM:   3    -0.233853011938E+04   -0.12210E-01   -0.14895E-01  6186   0.216E-01    0.708E-01
RMM:   4    -0.233852528355E+04    0.48358E-02   -0.12331E-02  6217   0.482E-02    0.295E-01
RMM:   5    -0.233852505069E+04    0.23285E-03   -0.22332E-03  5347   0.234E-02    0.273E-01
RMM:   6    -0.233852427120E+04    0.77949E-03   -0.17482E-03  5343   0.223E-02    0.133E-01
RMM:   7    -0.233852421234E+04    0.58864E-04   -0.73781E-04  5042   0.159E-02    0.897E-02
RMM:   8    -0.233852413798E+04    0.74357E-04   -0.18677E-04  3142   0.871E-03    0.509E-02
RMM:   9    -0.233852409654E+04    0.41435E-04   -0.30025E-05  2984   0.514E-03    0.220E-02
RMM:  10    -0.233852408735E+04    0.91939E-05   -0.39220E-05  3007   0.416E-03
  32 F= -.23600765E+04 E0= -.23600765E+04  d E =-.112871E-01  mag=     4.0000
       N       E                     dE             d eps       ncg     rms          rms(c)
DAV:   1    -0.233850853863E+04    0.15558E-01   -0.96062E-01  4576   0.825E-01    0.322E-01
RMM:   2    -0.233852756017E+04   -0.19022E-01   -0.20235E-01  6320   0.205E-01    0.270E-01
RMM:   3    -0.233852954621E+04   -0.19860E-02   -0.23647E-02  5854   0.861E-02    0.297E-01
RMM:   4    -0.233852863593E+04    0.91028E-03   -0.20271E-03  4413   0.196E-02    0.114E-01
RMM:   5    -0.233852860759E+04    0.28336E-04   -0.36745E-04  3388   0.102E-02    0.111E-01
RMM:   6    -0.233852846217E+04    0.14542E-03   -0.29086E-04  4000   0.106E-02    0.396E-02
RMM:   7    -0.233852845634E+04    0.58289E-05   -0.92661E-05  3327   0.698E-03
  33 F= -.23600808E+04 E0= -.23600808E+04  d E =-.437258E-02  mag=     4.0000
       N       E                     dE             d eps       ncg     rms          rms(c)
DAV:   1    -0.233844033769E+04    0.88124E-01   -0.44003E+00  4536   0.177E+00    0.694E-01
RMM:   2    -0.233852732914E+04   -0.86991E-01   -0.92959E-01  6349   0.440E-01    0.570E-01
RMM:   3    -0.233853633007E+04   -0.90009E-02   -0.10912E-01  6124   0.189E-01    0.624E-01
RMM:   4    -0.233853262412E+04    0.37060E-02   -0.95028E-03  6090   0.421E-02    0.262E-01
RMM:   5    -0.233853236992E+04    0.25420E-03   -0.17054E-03  5089   0.198E-02    0.234E-01
RMM:   6    -0.233853173131E+04    0.63861E-03   -0.13126E-03  5051   0.201E-02    0.890E-02
RMM:   7    -0.233853172826E+04    0.30455E-05   -0.47936E-04  4685   0.136E-02    0.630E-02
RMM:   8    -0.233853170014E+04    0.28126E-04   -0.99538E-05  3055   0.682E-03    0.403E-02
RMM:   9    -0.233853167597E+04    0.24168E-04   -0.19856E-05  2964   0.441E-03    0.176E-02
RMM:  10    -0.233853167590E+04    0.65644E-07   -0.29780E-05  3002   0.339E-03
  34 F= -.23600841E+04 E0= -.23600841E+04  d E =-.765136E-02  mag=     4.0000
       N       E                     dE             d eps       ncg     rms          rms(c)
DAV:   1    -0.233851755814E+04    0.14118E-01   -0.94367E-01  4576   0.823E-01    0.327E-01
RMM:   2    -0.233853646073E+04   -0.18903E-01   -0.19889E-01  6324   0.208E-01    0.309E-01
RMM:   3    -0.233853795742E+04   -0.14967E-02   -0.23327E-02  5875   0.876E-02    0.274E-01
RMM:   4    -0.233853724931E+04    0.70811E-03   -0.20133E-03  4744   0.200E-02    0.131E-01
RMM:   5    -0.233853717770E+04    0.71618E-04   -0.36715E-04  3354   0.106E-02    0.110E-01
RMM:   6    -0.233853703339E+04    0.14431E-03   -0.31278E-04  4304   0.114E-02    0.393E-02
RMM:   7    -0.233853703746E+04   -0.40758E-05   -0.98238E-05  3245   0.778E-03
  35 F= -.23600898E+04 E0= -.23600898E+04  d E =-.570446E-02  mag=     4.0000
       N       E                     dE             d eps       ncg     rms          rms(c)
DAV:   1    -0.233845545937E+04    0.81574E-01   -0.41123E+00  4536   0.172E+00    0.691E-01
RMM:   2    -0.233853746257E+04   -0.82003E-01   -0.86833E-01  6324   0.434E-01    0.634E-01
RMM:   3    -0.233854439664E+04   -0.69341E-02   -0.10509E-01  6093   0.190E-01    0.568E-01
RMM:   4    -0.233854151845E+04    0.28782E-02   -0.89040E-03  6024   0.418E-02    0.286E-01
RMM:   5    -0.233854112964E+04    0.38881E-03   -0.16976E-03  4978   0.203E-02    0.230E-01
RMM:   6    -0.233854051589E+04    0.61375E-03   -0.13201E-03  5085   0.212E-02    0.888E-02
RMM:   7    -0.233854056113E+04   -0.45249E-04   -0.50881E-04  4582   0.149E-02    0.841E-02
RMM:   8    -0.233854047918E+04    0.81953E-04   -0.12767E-04  3085   0.717E-03    0.363E-02
RMM:   9    -0.233854046020E+04    0.18984E-04   -0.21953E-05  2999   0.463E-03    0.161E-02
RMM:  10    -0.233854045951E+04    0.68254E-06   -0.28877E-05  2999   0.357E-03
  36 F= -.23600940E+04 E0= -.23600940E+04  d E =-.990013E-02  mag=     4.0000
       N       E                     dE             d eps       ncg     rms          rms(c)
DAV:   1    -0.233851760360E+04    0.22857E-01   -0.14583E+00  4536   0.103E+00    0.422E-01
RMM:   2    -0.233854483472E+04   -0.27231E-01   -0.28435E-01  6222   0.259E-01    0.385E-01
RMM:   3    -0.233854695453E+04   -0.21198E-02   -0.33418E-02  5924   0.109E-01    0.348E-01
RMM:   4    -0.233854575548E+04    0.11991E-02   -0.29368E-03  5318   0.251E-02    0.161E-01
RMM:   5    -0.233854568391E+04    0.71569E-04   -0.59553E-04  3626   0.132E-02    0.140E-01
RMM:   6    -0.233854547910E+04    0.20481E-03   -0.45225E-04  4507   0.132E-02    0.592E-02
RMM:   7    -0.233854550815E+04   -0.29046E-04   -0.18917E-04  3582   0.994E-03    0.624E-02
RMM:   8    -0.233854546030E+04    0.47852E-04   -0.61094E-05  2996   0.606E-03    0.190E-02
RMM:   9    -0.233854545528E+04    0.50127E-05   -0.93243E-06  2953   0.327E-03
  37 F= -.23600998E+04 E0= -.23600998E+04  d E =-.575780E-02  mag=     4.0000
       N       E                     dE             d eps       ncg     rms          rms(c)
DAV:   1    -0.233853098242E+04    0.14478E-01   -0.79685E-01  4564   0.763E-01    0.313E-01
RMM:   2    -0.233854604518E+04   -0.15063E-01   -0.15685E-01  6190   0.193E-01    0.292E-01
RMM:   3    -0.233854713781E+04   -0.10926E-02   -0.18047E-02  5806   0.815E-02    0.261E-01
RMM:   4    -0.233854644868E+04    0.68913E-03   -0.16157E-03  4541   0.188E-02    0.120E-01
RMM:   5    -0.233854640527E+04    0.43417E-04   -0.32241E-04  3266   0.102E-02    0.104E-01
RMM:   6    -0.233854629174E+04    0.11353E-03   -0.24754E-04  4120   0.103E-02    0.447E-02
RMM:   7    -0.233854630959E+04   -0.17853E-04   -0.11105E-04  3254   0.778E-03    0.493E-02
RMM:   8    -0.233854627969E+04    0.29898E-04   -0.36998E-05  2971   0.518E-03    0.141E-02
RMM:   9    -0.233854627665E+04    0.30390E-05   -0.57554E-06  2919   0.265E-03
  38 F= -.23601012E+04 E0= -.23601012E+04  d E =-.715688E-02  mag=     4.0000
       N       E                     dE             d eps       ncg     rms          rms(c)
DAV:   1    -0.233852395312E+04    0.22327E-01   -0.14270E+00  4536   0.979E-01    0.396E-01
RMM:   2    -0.233855199766E+04   -0.28045E-01   -0.29382E-01  6480   0.257E-01    0.321E-01
RMM:   3    -0.233855520918E+04   -0.32115E-02   -0.34766E-02  5813   0.108E-01    0.352E-01
RMM:   4    -0.233855389227E+04    0.13169E-02   -0.31082E-03  4920   0.245E-02    0.146E-01
RMM:   5    -0.233855391650E+04   -0.24226E-04   -0.51425E-04  3760   0.120E-02    0.149E-01
RMM:   6    -0.233855368234E+04    0.23416E-03   -0.42860E-04  4303   0.131E-02    0.610E-02
RMM:   7    -0.233855371178E+04   -0.29443E-04   -0.19524E-04  3648   0.886E-03    0.648E-02
RMM:   8    -0.233855366611E+04    0.45671E-04   -0.57266E-05  2999   0.606E-03    0.187E-02
RMM:   9    -0.233855366061E+04    0.55055E-05   -0.95108E-06  2954   0.285E-03
  39 F= -.23601093E+04 E0= -.23601093E+04  d E =-.811988E-02  mag=     4.0000
       N       E                     dE             d eps       ncg     rms          rms(c)
DAV:   1    -0.233844725654E+04    0.10641E+00   -0.53375E+00  4536   0.189E+00    0.765E-01
RMM:   2    -0.233855178350E+04   -0.10453E+00   -0.11001E+00  6463   0.497E-01    0.593E-01
RMM:   3    -0.233856415248E+04   -0.12369E-01   -0.13164E-01  5957   0.216E-01    0.669E-01
RMM:   4    -0.233855952221E+04    0.46303E-02   -0.11646E-02  5971   0.471E-02    0.288E-01
RMM:   5    -0.233855952685E+04   -0.46369E-05   -0.19222E-03  5366   0.219E-02    0.283E-01
RMM:   6    -0.233855873630E+04    0.79056E-03   -0.16551E-03  5396   0.229E-02    0.127E-01
RMM:   7    -0.233855880116E+04   -0.64864E-04   -0.72671E-04  5015   0.154E-02    0.123E-01
RMM:   8    -0.233855863777E+04    0.16339E-03   -0.21094E-04  3155   0.882E-03    0.404E-02
RMM:   9    -0.233855861359E+04    0.24181E-04   -0.35803E-05  3011   0.488E-03    0.217E-02
RMM:  10    -0.233855860621E+04    0.73732E-05   -0.31391E-05  2948   0.386E-03
  40 F= -.23601157E+04 E0= -.23601157E+04  d E =-.145546E-01  mag=     4.0000
       N       E                     dE             d eps       ncg     rms          rms(c)
DAV:   1    -0.233854422790E+04    0.14386E-01   -0.95928E-01  4592   0.806E-01    0.327E-01
RMM:   2    -0.233856345564E+04   -0.19228E-01   -0.20113E-01  6506   0.214E-01    0.261E-01
RMM:   3    -0.233856514172E+04   -0.16861E-02   -0.21315E-02  5739   0.826E-02    0.264E-01
RMM:   4    -0.233856438985E+04    0.75187E-03   -0.20370E-03  3809   0.193E-02    0.120E-01
RMM:   5    -0.233856439508E+04   -0.52331E-05   -0.31213E-04  3359   0.999E-03    0.120E-01
RMM:   6    -0.233856425073E+04    0.14435E-03   -0.26744E-04  3650   0.104E-02    0.519E-02
RMM:   7    -0.233856426693E+04   -0.16196E-04   -0.13779E-04  3525   0.781E-03    0.517E-02
RMM:   8    -0.233856423939E+04    0.27537E-04   -0.40508E-05  2977   0.558E-03    0.158E-02
RMM:   9    -0.233856423602E+04    0.33705E-05   -0.61320E-06  2900   0.259E-03
  41 F= -.23601220E+04 E0= -.23601220E+04  d E =-.631096E-02  mag=     4.0000
       N       E                     dE             d eps       ncg     rms          rms(c)
DAV:   1    -0.233846587072E+04    0.98369E-01   -0.49993E+00  4536   0.185E+00    0.747E-01
RMM:   2    -0.233856560301E+04   -0.99732E-01   -0.10465E+00  6512   0.487E-01    0.578E-01
RMM:   3    -0.233857489866E+04   -0.92957E-02   -0.11733E-01  6107   0.197E-01    0.569E-01
RMM:   4    -0.233857140489E+04    0.34938E-02   -0.10586E-02  5814   0.433E-02    0.273E-01
RMM:   5    -0.233857142329E+04   -0.18396E-04   -0.15756E-03  5112   0.199E-02    0.272E-01
RMM:   6    -0.233857072424E+04    0.69905E-03   -0.13645E-03  5195   0.201E-02    0.130E-01
RMM:   7    -0.233857074050E+04   -0.16262E-04   -0.67159E-04  5065   0.146E-02    0.108E-01
RMM:   8    -0.233857062266E+04    0.11784E-03   -0.19092E-04  3147   0.878E-03    0.420E-02
RMM:   9    -0.233857059971E+04    0.22958E-04   -0.26491E-05  2971   0.458E-03    0.202E-02
RMM:  10    -0.233857059502E+04    0.46839E-05   -0.28822E-05  2948   0.359E-03
  42 F= -.23601300E+04 E0= -.23601300E+04  d E =-.142800E-01  mag=     4.0000
       N       E                     dE             d eps       ncg     rms          rms(c)
DAV:   1    -0.233856035995E+04    0.10240E-01   -0.49259E-01  4704   0.578E-01    0.235E-01
RMM:   2    -0.233857027202E+04   -0.99121E-02   -0.10354E-01  6515   0.154E-01    0.191E-01
RMM:   3    -0.233857106953E+04   -0.79751E-03   -0.10701E-02  5217   0.570E-02    0.188E-01
RMM:   4    -0.233857069137E+04    0.37816E-03   -0.10423E-03  3398   0.141E-02    0.867E-02
RMM:   5    -0.233857069170E+04   -0.33420E-06   -0.16403E-04  3117   0.763E-03    0.848E-02
RMM:   6    -0.233857061837E+04    0.73331E-04   -0.13517E-04  3115   0.768E-03    0.358E-02
RMM:   7    -0.233857062502E+04   -0.66520E-05   -0.67118E-05  3176   0.623E-03
  43 F= -.23601306E+04 E0= -.23601306E+04  d E =-.148301E-01  mag=     4.0000
       N       E                     dE             d eps       ncg     rms          rms(c)
DAV:   1    -0.233853206761E+04    0.38551E-01   -0.20703E+00  4536   0.117E+00    0.477E-01
RMM:   2    -0.233857565984E+04   -0.43592E-01   -0.45419E-01  6604   0.315E-01    0.399E-01
RMM:   3    -0.233857944624E+04   -0.37864E-02   -0.50919E-02  6070   0.129E-01    0.355E-01
RMM:   4    -0.233857804415E+04    0.14021E-02   -0.46559E-03  5038   0.283E-02    0.167E-01
RMM:   5    -0.233857810996E+04   -0.65805E-04   -0.67358E-04  4056   0.133E-02    0.185E-01
RMM:   6    -0.233857778443E+04    0.32552E-03   -0.58133E-04  4432   0.139E-02    0.867E-02
RMM:   7    -0.233857781899E+04   -0.34558E-04   -0.30679E-04  4101   0.103E-02    0.877E-02
RMM:   8    -0.233857774424E+04    0.74750E-04   -0.98191E-05  3074   0.700E-03    0.254E-02
RMM:   9    -0.233857773735E+04    0.68900E-05   -0.11187E-05  2962   0.338E-03
  44 F= -.23601387E+04 E0= -.23601387E+04  d E =-.809388E-02  mag=     4.0000
       N       E                     dE             d eps       ncg     rms          rms(c)
DAV:   1    -0.233825259851E+04    0.32515E+00   -0.14745E+01  4536   0.314E+00    0.127E+00
RMM:   2    -0.233856919279E+04   -0.31659E+00   -0.33024E+00  6569   0.850E-01    0.106E+00
RMM:   3    -0.233859550695E+04   -0.26314E-01   -0.37649E-01  6201   0.354E-01    0.894E-01
RMM:   4    -0.233858639938E+04    0.91076E-02   -0.32600E-02  6124   0.743E-02    0.427E-01
RMM:   5    -0.233858637098E+04    0.28396E-04   -0.48233E-03  5553   0.346E-02    0.448E-01
RMM:   6    -0.233858501488E+04    0.13561E-02   -0.42165E-03  5586   0.329E-02    0.293E-01
RMM:   7    -0.233858473793E+04    0.27694E-03   -0.20758E-03  5789   0.246E-02    0.216E-01
RMM:   8    -0.233858431842E+04    0.41951E-03   -0.68050E-04  3912   0.145E-02    0.917E-02
RMM:   9    -0.233858423138E+04    0.87040E-04   -0.94765E-05  3083   0.707E-03    0.398E-02
RMM:  10    -0.233858421535E+04    0.16034E-04   -0.76257E-05  3025   0.554E-03    0.141E-02
RMM:  11    -0.233858422606E+04   -0.10716E-04   -0.25148E-05  3005   0.416E-03    0.657E-03
RMM:  12    -0.233858423372E+04   -0.76601E-05   -0.54934E-06  2888   0.268E-03
  45 F= -.23601479E+04 E0= -.23601479E+04  d E =-.173633E-01  mag=     4.0000
       N       E                     dE             d eps       ncg     rms          rms(c)
DAV:   1    -0.233851634363E+04    0.67882E-01   -0.35367E+00  4536   0.149E+00    0.621E-01
RMM:   2    -0.233859106878E+04   -0.74725E-01   -0.77492E-01  6560   0.406E-01    0.563E-01
RMM:   3    -0.233859665048E+04   -0.55817E-02   -0.87992E-02  6141   0.170E-01    0.442E-01
RMM:   4    -0.233859447487E+04    0.21756E-02   -0.78868E-03  5609   0.356E-02    0.205E-01
RMM:   5    -0.233859462797E+04   -0.15310E-03   -0.11525E-03  4821   0.170E-02    0.250E-01
RMM:   6    -0.233859403983E+04    0.58814E-03   -0.10310E-03  4786   0.170E-02    0.115E-01
RMM:   7    -0.233859404390E+04   -0.40745E-05   -0.43476E-04  4549   0.121E-02    0.933E-02
RMM:   8    -0.233859396339E+04    0.80507E-04   -0.13652E-04  3108   0.755E-03    0.406E-02
RMM:   9    -0.233859394587E+04    0.17523E-04   -0.18660E-05  2980   0.397E-03    0.173E-02
RMM:  10    -0.233859394309E+04    0.27849E-05   -0.18659E-05  2962   0.287E-03
  46 F= -.23601589E+04 E0= -.23601589E+04  d E =-.109477E-01  mag=     4.0000
       N       E                     dE             d eps       ncg     rms          rms(c)
DAV:   1    -0.233836637517E+04    0.22757E+00   -0.10589E+01  4536   0.259E+00    0.108E+00
RMM:   2    -0.233859158050E+04   -0.22521E+00   -0.23367E+00  6564   0.704E-01    0.989E-01
RMM:   3    -0.233860889360E+04   -0.17313E-01   -0.27645E-01  6242   0.301E-01    0.764E-01
RMM:   4    -0.233860231002E+04    0.65836E-02   -0.23643E-02  6079   0.614E-02    0.343E-01
RMM:   5    -0.233860198782E+04    0.32220E-03   -0.36874E-03  5469   0.305E-02    0.342E-01
RMM:   6    -0.233860154045E+04    0.44736E-03   -0.29123E-03  5312   0.267E-02    0.277E-01
RMM:   7    -0.233860104634E+04    0.49411E-03   -0.12996E-03  5587   0.196E-02    0.147E-01
RMM:   8    -0.233860087562E+04    0.17072E-03   -0.39727E-04  3405   0.113E-02    0.888E-02
RMM:   9    -0.233860079635E+04    0.79277E-04   -0.68025E-05  3047   0.616E-03    0.326E-02
RMM:  10    -0.233860078315E+04    0.13198E-04   -0.59559E-05  3049   0.463E-03    0.107E-02
RMM:  11    -0.233860078771E+04   -0.45572E-05   -0.13337E-05  2963   0.340E-03
  47 F= -.23601680E+04 E0= -.23601680E+04  d E =-.200514E-01  mag=     4.0000
       N       E                     dE             d eps       ncg     rms          rms(c)
DAV:   1    -0.233855066953E+04    0.50114E-01   -0.29920E+00  4560   0.140E+00    0.568E-01
RMM:   2    -0.233860919648E+04   -0.58527E-01   -0.60230E-01  6450   0.369E-01    0.550E-01
RMM:   3    -0.233861222841E+04   -0.30319E-02   -0.65342E-02  6126   0.146E-01    0.394E-01
RMM:   4    -0.233861043637E+04    0.17920E-02   -0.59921E-03  5686   0.327E-02    0.176E-01
RMM:   5    -0.233861034968E+04    0.86697E-04   -0.10136E-03  5084   0.184E-02    0.184E-01
RMM:   6    -0.233861022176E+04    0.12792E-03   -0.75668E-04  4471   0.155E-02    0.147E-01
RMM:   7    -0.233861002608E+04    0.19568E-03   -0.27493E-04  4614   0.109E-02    0.319E-02
RMM:   8    -0.233861003455E+04   -0.84714E-05   -0.53669E-05  3037   0.652E-03
  48 F= -.23601783E+04 E0= -.23601783E+04  d E =-.103644E-01  mag=     4.0000
       N       E                     dE             d eps       ncg     rms          rms(c)
DAV:   1    -0.233856197630E+04    0.48050E-01   -0.25108E+00  4552   0.128E+00    0.526E-01
RMM:   2    -0.233861127442E+04   -0.49298E-01   -0.50734E-01  6405   0.339E-01    0.515E-01
RMM:   3    -0.233861371645E+04   -0.24420E-02   -0.55225E-02  6090   0.135E-01    0.365E-01
RMM:   4    -0.233861216685E+04    0.15496E-02   -0.50853E-03  5645   0.302E-02    0.162E-01
RMM:   5    -0.233861214094E+04    0.25906E-04   -0.84598E-04  5006   0.169E-02    0.179E-01
RMM:   6    -0.233861196723E+04    0.17371E-03   -0.62994E-04  4303   0.142E-02    0.126E-01
RMM:   7    -0.233861182370E+04    0.14352E-03   -0.23379E-04  4461   0.102E-02    0.233E-02
RMM:   8    -0.233861181869E+04    0.50103E-05   -0.23804E-05  2968   0.578E-03
  49 F= -.23601812E+04 E0= -.23601811E+04  d E =-.132063E-01  mag=     4.0000
       N       E                     dE             d eps       ncg     rms          rms(c)
DAV:   1    -0.233854736562E+04    0.64458E-01   -0.40024E+00  4536   0.158E+00    0.602E-01
RMM:   2    -0.233861631373E+04   -0.68948E-01   -0.71402E-01  6551   0.397E-01    0.534E-01
RMM:   3    -0.233862101563E+04   -0.47019E-02   -0.78906E-02  6203   0.157E-01    0.411E-01
RMM:   4    -0.233861900057E+04    0.20151E-02   -0.72227E-03  5620   0.343E-02    0.199E-01
RMM:   5    -0.233861895540E+04    0.45172E-04   -0.10705E-03  4802   0.170E-02    0.216E-01
RMM:   6    -0.233861864408E+04    0.31132E-03   -0.90572E-04  4483   0.161E-02    0.138E-01
RMM:   7    -0.233861854817E+04    0.95914E-04   -0.45408E-04  4849   0.123E-02    0.855E-02
RMM:   8    -0.233861849393E+04    0.54232E-04   -0.11826E-04  3088   0.769E-03    0.431E-02
RMM:   9    -0.233861847604E+04    0.17896E-04   -0.16975E-05  2972   0.367E-03    0.183E-02
RMM:  10    -0.233861847087E+04    0.51715E-05   -0.19915E-05  2950   0.297E-03
  50 F= -.23601890E+04 E0= -.23601889E+04  d E =-.779629E-02  mag=     4.0000
       N       E                     dE             d eps       ncg     rms          rms(c)
DAV:   1    -0.233856173905E+04    0.56737E-01   -0.32946E+00  4548   0.143E+00    0.542E-01
RMM:   2    -0.233861811239E+04   -0.56373E-01   -0.58513E-01  6544   0.360E-01    0.470E-01
RMM:   3    -0.233862223917E+04   -0.41268E-02   -0.64624E-02  6152   0.142E-01    0.368E-01
RMM:   4    -0.233862066134E+04    0.15778E-02   -0.58864E-03  5514   0.307E-02    0.179E-01
RMM:   5    -0.233862056621E+04    0.95130E-04   -0.88708E-04  4718   0.159E-02    0.182E-01
RMM:   6    -0.233862040409E+04    0.16212E-03   -0.69676E-04  4058   0.145E-02    0.138E-01
RMM:   7    -0.233862023978E+04    0.16431E-03   -0.32378E-04  4681   0.110E-02    0.315E-02
RMM:   8    -0.233862024769E+04   -0.79049E-05   -0.48698E-05  3020   0.642E-03
  51 F= -.23601918E+04 E0= -.23601918E+04  d E =-.106502E-01  mag=     4.0000
       N       E                     dE             d eps       ncg     rms          rms(c)
DAV:   1    -0.233855524987E+04    0.64990E-01   -0.43293E+00  4536   0.172E+00    0.630E-01
RMM:   2    -0.233862593292E+04   -0.70683E-01   -0.73838E-01  6383   0.429E-01    0.505E-01
RMM:   3    -0.233863147578E+04   -0.55429E-02   -0.82992E-02  6163   0.170E-01    0.422E-01
RMM:   4    -0.233862944179E+04    0.20340E-02   -0.76373E-03  6019   0.380E-02    0.229E-01
RMM:   5    -0.233862947962E+04   -0.37834E-04   -0.12492E-03  4845   0.194E-02    0.256E-01
RMM:   6    -0.233862883738E+04    0.64224E-03   -0.10446E-03  5134   0.181E-02    0.108E-01
RMM:   7    -0.233862877896E+04    0.58423E-04   -0.49251E-04  4839   0.141E-02    0.656E-02
RMM:   8    -0.233862876109E+04    0.17868E-04   -0.11274E-04  3126   0.816E-03    0.508E-02
RMM:   9    -0.233862873548E+04    0.25610E-04   -0.22117E-05  2968   0.444E-03    0.189E-02
RMM:  10    -0.233862872925E+04    0.62290E-05   -0.27115E-05  2975   0.350E-03
  52 F= -.23602019E+04 E0= -.23602017E+04  d E =-.100350E-01  mag=     4.0000
       N       E                     dE             d eps       ncg     rms          rms(c)
DAV:   1    -0.233860993881E+04    0.18797E-01   -0.11481E+00  4592   0.886E-01    0.319E-01
RMM:   2    -0.233862843895E+04   -0.18500E-01   -0.19389E-01  6388   0.219E-01    0.242E-01
RMM:   3    -0.233863004571E+04   -0.16068E-02   -0.21645E-02  5993   0.865E-02    0.215E-01
RMM:   4    -0.233862952997E+04    0.51573E-03   -0.20160E-03  4824   0.196E-02    0.118E-01
RMM:   5    -0.233862953696E+04   -0.69935E-05   -0.33030E-04  3420   0.108E-02    0.131E-01
RMM:   6    -0.233862936204E+04    0.17493E-03   -0.29103E-04  3904   0.107E-02    0.541E-02
RMM:   7    -0.233862934636E+04    0.15676E-04   -0.13150E-04  3668   0.832E-03    0.325E-02
RMM:   8    -0.233862934179E+04    0.45724E-05   -0.29668E-05  2983   0.563E-03
  53 F= -.23602033E+04 E0= -.23602031E+04  d E =-.114651E-01  mag=     4.0000
       N       E                     dE             d eps       ncg     rms          rms(c)
DAV:   1    -0.233857576431E+04    0.53582E-01   -0.36146E+00  4536   0.154E+00    0.563E-01
RMM:   2    -0.233863381319E+04   -0.58049E-01   -0.59528E-01  6415   0.384E-01    0.518E-01
RMM:   3    -0.233863787653E+04   -0.40633E-02   -0.67040E-02  6221   0.150E-01    0.463E-01
RMM:   4    -0.233863576587E+04    0.21107E-02   -0.65685E-03  5904   0.353E-02    0.237E-01
RMM:   5    -0.233863549122E+04    0.27466E-03   -0.10115E-03  4148   0.161E-02    0.193E-01
RMM:   6    -0.233863503459E+04    0.45663E-03   -0.83335E-04  4821   0.169E-02    0.756E-02
RMM:   7    -0.233863501015E+04    0.24441E-04   -0.38939E-04  4500   0.129E-02    0.334E-02
RMM:   8    -0.233863501733E+04   -0.71774E-05   -0.56989E-05  3038   0.664E-03
  54 F= -.23602105E+04 E0= -.23602103E+04  d E =-.716447E-02  mag=     4.0000
       N       E                     dE             d eps       ncg     rms          rms(c)
DAV:   1    -0.233858574170E+04    0.49268E-01   -0.29964E+00  4536   0.140E+00    0.516E-01
RMM:   2    -0.233863425734E+04   -0.48516E-01   -0.49779E-01  6420   0.351E-01    0.477E-01
RMM:   3    -0.233863767021E+04   -0.34129E-02   -0.55958E-02  6213   0.136E-01    0.430E-01
RMM:   4    -0.233863586735E+04    0.18029E-02   -0.54736E-03  5816   0.321E-02    0.216E-01
RMM:   5    -0.233863563869E+04    0.22867E-03   -0.86114E-04  3934   0.150E-02    0.176E-01
RMM:   6    -0.233863525792E+04    0.38077E-03   -0.69864E-04  4689   0.157E-02    0.681E-02
RMM:   7    -0.233863523624E+04    0.21681E-04   -0.31953E-04  4379   0.119E-02    0.221E-02
RMM:   8    -0.233863523408E+04    0.21540E-05   -0.26495E-05  2980   0.566E-03
  55 F= -.23602121E+04 E0= -.23602118E+04  d E =-.875890E-02  mag=     4.0000
       N       E                     dE             d eps       ncg     rms          rms(c)
DAV:   1    -0.233861489278E+04    0.20343E-01   -0.14527E+00  4560   0.921E-01    0.343E-01
RMM:   2    -0.233863871964E+04   -0.23827E-01   -0.24178E-01  6630   0.234E-01    0.352E-01
RMM:   3    -0.233864022313E+04   -0.15035E-02   -0.27269E-02  6107   0.883E-02    0.295E-01
RMM:   4    -0.233863941719E+04    0.80593E-03   -0.26218E-03  4509   0.210E-02    0.144E-01
RMM:   5    -0.233863930479E+04    0.11240E-03   -0.36740E-04  3293   0.974E-03    0.114E-01
RMM:   6    -0.233863914759E+04    0.15720E-03   -0.30219E-04  3795   0.101E-02    0.481E-02
RMM:   7    -0.233863916517E+04   -0.17573E-04   -0.17614E-04  3400   0.837E-03    0.533E-02
RMM:   8    -0.233863914252E+04    0.22647E-04   -0.35864E-05  2970   0.516E-03    0.139E-02
RMM:   9    -0.233863914019E+04    0.23247E-05   -0.57781E-06  2823   0.245E-03
  56 F= -.23602168E+04 E0= -.23602165E+04  d E =-.469800E-02  mag=     4.0000
       N       E                     dE             d eps       ncg     rms          rms(c)
DAV:   1    -0.233842478661E+04    0.21436E+00   -0.13052E+01  4536   0.276E+00    0.102E+00
RMM:   2    -0.233863981399E+04   -0.21503E+00   -0.21864E+00  6620   0.704E-01    0.102E+00
RMM:   3    -0.233865314853E+04   -0.13335E-01   -0.25108E-01  6434   0.270E-01    0.832E-01
RMM:   4    -0.233864695147E+04    0.61971E-02   -0.23595E-02  6114   0.615E-02    0.454E-01
RMM:   5    -0.233864568987E+04    0.12616E-02   -0.31722E-03  5024   0.262E-02    0.344E-01
RMM:   6    -0.233864423383E+04    0.14560E-02   -0.27531E-03  5194   0.280E-02    0.151E-01
RMM:   7    -0.233864421513E+04    0.18698E-04   -0.15904E-03  5111   0.220E-02    0.110E-01
RMM:   8    -0.233864414283E+04    0.72299E-04   -0.24786E-04  3315   0.101E-02    0.620E-02
RMM:   9    -0.233864409897E+04    0.43865E-04   -0.53172E-05  3018   0.580E-03    0.324E-02
RMM:  10    -0.233864408548E+04    0.13483E-04   -0.58004E-05  3006   0.470E-03    0.987E-03
RMM:  11    -0.233864408601E+04   -0.52706E-06   -0.10890E-05  2940   0.302E-03
  57 F= -.23602241E+04 E0= -.23602237E+04  d E =-.120783E-01  mag=     4.0000
       N       E                     dE             d eps       ncg     rms          rms(c)
DAV:   1    -0.233863117521E+04    0.12910E-01   -0.12280E+00  4564   0.982E-01    0.356E-01
RMM:   2    -0.233865004316E+04   -0.18868E-01   -0.19560E-01  6166   0.238E-01    0.271E-01
RMM:   3    -0.233865162148E+04   -0.15783E-02   -0.20302E-02  6014   0.909E-02    0.287E-01
RMM:   4    -0.233865069312E+04    0.92836E-03   -0.19600E-03  5464   0.220E-02    0.123E-01
RMM:   5    -0.233865071858E+04   -0.25457E-04   -0.44846E-04  3541   0.121E-02    0.137E-01
RMM:   6    -0.233865049420E+04    0.22438E-03   -0.35295E-04  4435   0.121E-02    0.488E-02
RMM:   7    -0.233865049371E+04    0.48778E-06   -0.12063E-04  3542   0.878E-03    0.464E-02
RMM:   8    -0.233865047609E+04    0.17621E-04   -0.32635E-05  2969   0.536E-03    0.128E-02
RMM:   9    -0.233865047375E+04    0.23403E-05   -0.60967E-06  2932   0.286E-03
  58 F= -.23602311E+04 E0= -.23602307E+04  d E =-.693271E-02  mag=     4.0000
       N       E                     dE             d eps       ncg     rms          rms(c)
DAV:   1    -0.233862440220E+04    0.26074E-01   -0.18004E+00  4536   0.119E+00    0.431E-01
RMM:   2    -0.233865210809E+04   -0.27706E-01   -0.28729E-01  6153   0.289E-01    0.327E-01
RMM:   3    -0.233865443486E+04   -0.23268E-02   -0.29807E-02  6030   0.112E-01    0.347E-01
RMM:   4    -0.233865306200E+04    0.13729E-02   -0.28869E-03  5775   0.269E-02    0.153E-01
RMM:   5    -0.233865307875E+04   -0.16751E-04   -0.66253E-04  4001   0.145E-02    0.163E-01
RMM:   6    -0.233865275723E+04    0.32152E-03   -0.51636E-04  4684   0.142E-02    0.577E-02
RMM:   7    -0.233865274573E+04    0.11497E-04   -0.16502E-04  3884   0.101E-02    0.450E-02
RMM:   8    -0.233865273146E+04    0.14270E-04   -0.39766E-05  2983   0.554E-03    0.190E-02
RMM:   9    -0.233865272668E+04    0.47825E-05   -0.78072E-06  2930   0.335E-03
  59 F= -.23602340E+04 E0= -.23602336E+04  d E =-.986400E-02  mag=     4.0000
       N       E                     dE             d eps       ncg     rms          rms(c)
DAV:   1    -0.233863454909E+04    0.18182E-01   -0.13463E+00  4548   0.979E-01    0.347E-01
RMM:   2    -0.233865618420E+04   -0.21635E-01   -0.22560E-01  6394   0.244E-01    0.235E-01
RMM:   3    -0.233865798959E+04   -0.18054E-02   -0.22899E-02  6048   0.903E-02    0.239E-01
RMM:   4    -0.233865738415E+04    0.60543E-03   -0.20771E-03  4559   0.204E-02    0.110E-01
RMM:   5    -0.233865734186E+04    0.42293E-04   -0.37552E-04  3767   0.121E-02    0.109E-01
RMM:   6    -0.233865727529E+04    0.66566E-04   -0.26235E-04  3571   0.979E-03    0.842E-02
RMM:   7    -0.233865720884E+04    0.66448E-04   -0.11715E-04  3314   0.822E-03    0.253E-02
RMM:   8    -0.233865720827E+04    0.57090E-06   -0.23391E-05  2970   0.550E-03
  60 F= -.23602392E+04 E0= -.23602388E+04  d E =-.519664E-02  mag=     4.0000
       N       E                     dE             d eps       ncg     rms          rms(c)
DAV:   1    -0.233860337292E+04    0.53836E-01   -0.33056E+00  4536   0.153E+00    0.546E-01
RMM:   2    -0.233865647885E+04   -0.53106E-01   -0.55348E-01  6402   0.381E-01    0.377E-01
RMM:   3    -0.233866099048E+04   -0.45116E-02   -0.58380E-02  6172   0.142E-01    0.372E-01
RMM:   4    -0.233865948066E+04    0.15098E-02   -0.51334E-03  5831   0.320E-02    0.170E-01
RMM:   5    -0.233865929670E+04    0.18396E-03   -0.88672E-04  4633   0.174E-02    0.148E-01
RMM:   6    -0.233865929974E+04   -0.30443E-05   -0.62692E-04  4663   0.138E-02    0.157E-01
RMM:   7    -0.233865905260E+04    0.24714E-03   -0.29825E-04  4039   0.112E-02    0.227E-02
RMM:   8    -0.233865904900E+04    0.35989E-05   -0.32230E-05  3061   0.566E-03
  61 F= -.23602422E+04 E0= -.23602418E+04  d E =-.819416E-02  mag=     4.0000
       N       E                     dE             d eps       ncg     rms          rms(c)
DAV:   1    -0.233863819937E+04    0.20853E-01   -0.17305E+00  4560   0.110E+00    0.375E-01
RMM:   2    -0.233866284562E+04   -0.24646E-01   -0.25644E-01  6414   0.263E-01    0.263E-01
RMM:   3    -0.233866526565E+04   -0.24200E-02   -0.26654E-02  6082   0.973E-02    0.302E-01
RMM:   4    -0.233866430557E+04    0.96008E-03   -0.25573E-03  5164   0.232E-02    0.140E-01
RMM:   5    -0.233866428461E+04    0.20958E-04   -0.46862E-04  3421   0.116E-02    0.135E-01
RMM:   6    -0.233866407429E+04    0.21032E-03   -0.35279E-04  4069   0.119E-02    0.538E-02
RMM:   7    -0.233866405993E+04    0.14367E-04   -0.14125E-04  3716   0.855E-03    0.303E-02
RMM:   8    -0.233866405540E+04    0.45286E-05   -0.24843E-05  2956   0.551E-03
  62 F= -.23602481E+04 E0= -.23602478E+04  d E =-.594246E-02  mag=     4.0000
       N       E                     dE             d eps       ncg     rms          rms(c)
DAV:   1    -0.233856529941E+04    0.98761E-01   -0.66560E+00  4536   0.215E+00    0.733E-01
RMM:   2    -0.233866034395E+04   -0.95045E-01   -0.98907E-01  6355   0.517E-01    0.504E-01
RMM:   3    -0.233866896290E+04   -0.86189E-02   -0.10322E-01  6173   0.192E-01    0.534E-01
RMM:   4    -0.233866590777E+04    0.30551E-02   -0.97495E-03  6239   0.448E-02    0.274E-01
RMM:   5    -0.233866582969E+04    0.78080E-04   -0.16617E-03  4954   0.213E-02    0.269E-01
RMM:   6    -0.233866502050E+04    0.80919E-03   -0.13188E-03  5157   0.209E-02    0.114E-01
RMM:   7    -0.233866491908E+04    0.10142E-03   -0.52609E-04  4866   0.149E-02    0.455E-02
RMM:   8    -0.233866492306E+04   -0.39850E-05   -0.95342E-05  3118   0.766E-03
  63 F= -.23602509E+04 E0= -.23602506E+04  d E =-.867757E-02  mag=     4.0000
       N       E                     dE             d eps       ncg     rms          rms(c)
DAV:   1    -0.233865993059E+04    0.49885E-02   -0.38976E-01  4656   0.521E-01    0.173E-01
RMM:   2    -0.233866547189E+04   -0.55413E-02   -0.57480E-02  6486   0.125E-01    0.116E-01
RMM:   3    -0.233866600207E+04   -0.53018E-03   -0.58590E-03  5185   0.462E-02    0.134E-01
RMM:   4    -0.233866581641E+04    0.18567E-03   -0.55835E-04  3307   0.113E-02    0.662E-02
RMM:   5    -0.233866579983E+04    0.16573E-04   -0.94793E-05  3057   0.678E-03    0.573E-02
RMM:   6    -0.233866576765E+04    0.32181E-04   -0.82337E-05  3078   0.616E-03    0.329E-02
RMM:   7    -0.233866575779E+04    0.98662E-05   -0.33342E-05  3068   0.513E-03
  64 F= -.23602513E+04 E0= -.23602510E+04  d E =-.905659E-02  mag=     4.0000
       N       E                     dE             d eps       ncg     rms          rms(c)
DAV:   1    -0.233863290895E+04    0.32859E-01   -0.26677E+00  4536   0.136E+00    0.466E-01
RMM:   2    -0.233867079772E+04   -0.37889E-01   -0.38545E-01  6310   0.321E-01    0.425E-01
RMM:   3    -0.233867397910E+04   -0.31814E-02   -0.38920E-02  6113   0.119E-01    0.452E-01
RMM:   4    -0.233867184872E+04    0.21304E-02   -0.40145E-03  5739   0.300E-02    0.166E-01
RMM:   5    -0.233867179785E+04    0.50867E-04   -0.77281E-04  3967   0.145E-02    0.159E-01
RMM:   6    -0.233867146690E+04    0.33095E-03   -0.55119E-04  4505   0.146E-02    0.583E-02
RMM:   7    -0.233867145877E+04    0.81293E-05   -0.19352E-04  3918   0.104E-02    0.381E-02
RMM:   8    -0.233867145494E+04    0.38295E-05   -0.45483E-05  2994   0.577E-03
  65 F= -.23602578E+04 E0= -.23602575E+04  d E =-.652417E-02  mag=     4.0000
       N       E                     dE             d eps       ncg     rms          rms(c)
DAV:   1    -0.233862396953E+04    0.47489E-01   -0.33661E+00  4536   0.153E+00    0.528E-01
RMM:   2    -0.233867206074E+04   -0.48091E-01   -0.48870E-01  6322   0.364E-01    0.492E-01
RMM:   3    -0.233867600401E+04   -0.39433E-02   -0.49627E-02  6139   0.133E-01    0.513E-01
RMM:   4    -0.233867327544E+04    0.27286E-02   -0.51125E-03  5845   0.338E-02    0.187E-01
RMM:   5    -0.233867321837E+04    0.57072E-04   -0.10072E-03  4314   0.164E-02    0.180E-01
RMM:   6    -0.233867280122E+04    0.41715E-03   -0.69505E-04  4682   0.162E-02    0.654E-02
RMM:   7    -0.233867279518E+04    0.60348E-05   -0.24618E-04  4160   0.116E-02    0.453E-02
RMM:   8    -0.233867278776E+04    0.74221E-05   -0.59109E-05  3015   0.600E-03
  66 F= -.23602600E+04 E0= -.23602598E+04  d E =-.879106E-02  mag=     4.0000
       N       E                     dE             d eps       ncg     rms          rms(c)
DAV:   1    -0.233863284662E+04    0.39949E-01   -0.29995E+00  4536   0.134E+00    0.479E-01
RMM:   2    -0.233867827915E+04   -0.45433E-01   -0.45586E-01  6537   0.332E-01    0.547E-01
RMM:   3    -0.233868083066E+04   -0.25515E-02   -0.47870E-02  6251   0.122E-01    0.442E-01
RMM:   4    -0.233867901718E+04    0.18135E-02   -0.48691E-03  5528   0.301E-02    0.176E-01
RMM:   5    -0.233867892237E+04    0.94807E-04   -0.72716E-04  3843   0.137E-02    0.167E-01
RMM:   6    -0.233867859453E+04    0.32785E-03   -0.56085E-04  4440   0.144E-02    0.697E-02
RMM:   7    -0.233867862104E+04   -0.26508E-04   -0.29974E-04  3907   0.112E-02    0.678E-02
RMM:   8    -0.233867857825E+04    0.42784E-04   -0.74667E-05  3034   0.629E-03    0.285E-02
RMM:   9    -0.233867856901E+04    0.92389E-05   -0.13396E-05  2985   0.359E-03
  67 F= -.23602666E+04 E0= -.23602663E+04  d E =-.651438E-02  mag=     4.0000
       N       E                     dE             d eps       ncg     rms          rms(c)
DAV:   1    -0.233849458872E+04    0.18399E+00   -0.12038E+01  4536   0.268E+00    0.949E-01
RMM:   2    -0.233867612589E+04   -0.18154E+00   -0.18382E+00  6559   0.668E-01    0.101E+00
RMM:   3    -0.233868902514E+04   -0.12899E-01   -0.19636E-01  6349   0.247E-01    0.902E-01
RMM:   4    -0.233868128511E+04    0.77400E-02   -0.19398E-02  6119   0.606E-02    0.354E-01
RMM:   5    -0.233868084364E+04    0.44146E-03   -0.29732E-03  5281   0.265E-02    0.331E-01
RMM:   6    -0.233867953561E+04    0.13080E-02   -0.24069E-03  5260   0.276E-02    0.146E-01
RMM:   7    -0.233867958044E+04   -0.44832E-04   -0.12422E-03  5095   0.205E-02    0.135E-01
RMM:   8    -0.233867942864E+04    0.15180E-03   -0.31364E-04  3488   0.104E-02    0.651E-02
RMM:   9    -0.233867937876E+04    0.49876E-04   -0.57987E-05  3072   0.603E-03    0.275E-02
RMM:  10    -0.233867937188E+04    0.68848E-05   -0.37765E-05  2983   0.463E-03
  68 F= -.23602688E+04 E0= -.23602687E+04  d E =-.880003E-02  mag=     4.0000
       N       E                     dE             d eps       ncg     rms          rms(c)
DAV:   1    -0.233865913323E+04    0.20246E-01   -0.14125E+00  4548   0.917E-01    0.328E-01
RMM:   2    -0.233868077374E+04   -0.21641E-01   -0.21523E-01  6592   0.228E-01    0.391E-01
RMM:   3    -0.233868165730E+04   -0.88356E-03   -0.22351E-02  6121   0.841E-02    0.283E-01
RMM:   4    -0.233868088299E+04    0.77430E-03   -0.22178E-03  4528   0.204E-02    0.112E-01
RMM:   5    -0.233868086808E+04    0.14907E-04   -0.32721E-04  3404   0.101E-02    0.118E-01
RMM:   6    -0.233868071373E+04    0.15435E-03   -0.24833E-04  3698   0.103E-02    0.487E-02
RMM:   7    -0.233868071341E+04    0.32636E-06   -0.12828E-04  3425   0.791E-03    0.332E-02
RMM:   8    -0.233868070440E+04    0.90056E-05   -0.27270E-05  2955   0.523E-03
  69 F= -.23602697E+04 E0= -.23602695E+04  d E =-.962265E-02  mag=     4.0000
       N       E                     dE             d eps       ncg     rms          rms(c)
DAV:   1    -0.233864656224E+04    0.34151E-01   -0.27936E+00  4536   0.138E+00    0.475E-01
RMM:   2    -0.233868410912E+04   -0.37547E-01   -0.38818E-01  6332   0.323E-01    0.408E-01
RMM:   3    -0.233868783899E+04   -0.37299E-02   -0.41381E-02  6069   0.125E-01    0.453E-01
RMM:   4    -0.233868576190E+04    0.20771E-02   -0.42419E-03  5840   0.309E-02    0.166E-01
RMM:   5    -0.233868574332E+04    0.18578E-04   -0.86209E-04  4568   0.163E-02    0.178E-01
RMM:   6    -0.233868538053E+04    0.36279E-03   -0.67065E-04  4951   0.155E-02    0.734E-02
RMM:   7    -0.233868536517E+04    0.15366E-04   -0.22376E-04  3906   0.108E-02    0.503E-02
RMM:   8    -0.233868534267E+04    0.22497E-04   -0.53279E-05  3005   0.604E-03    0.274E-02
RMM:   9    -0.233868533333E+04    0.93345E-05   -0.10642E-05  2969   0.345E-03
  70 F= -.23602751E+04 E0= -.23602749E+04  d E =-.544832E-02  mag=     4.0000
       N       E                     dE             d eps       ncg     rms          rms(c)
DAV:   1    -0.233868032374E+04    0.50189E-02   -0.36622E-01  4640   0.500E-01    0.174E-01
RMM:   2    -0.233868531116E+04   -0.49874E-02   -0.51151E-02  6321   0.117E-01    0.161E-01
RMM:   3    -0.233868575188E+04   -0.44072E-03   -0.54066E-03  5210   0.455E-02    0.164E-01
RMM:   4    -0.233868547557E+04    0.27632E-03   -0.55458E-04  3402   0.118E-02    0.600E-02
RMM:   5    -0.233868547476E+04    0.81069E-06   -0.11649E-04  3131   0.723E-03    0.655E-02
RMM:   6    -0.233868542637E+04    0.48390E-04   -0.88618E-05  3132   0.688E-03    0.262E-02
RMM:   7    -0.233868542516E+04    0.12008E-05   -0.32755E-05  3033   0.555E-03
  71 F= -.23602755E+04 E0= -.23602753E+04  d E =-.583617E-02  mag=     4.0000
       N       E                     dE             d eps       ncg     rms          rms(c)
DAV:   1    -0.233866322711E+04    0.22199E-01   -0.19444E+00  4536   0.114E+00    0.369E-01
RMM:   2    -0.233868790633E+04   -0.24679E-01   -0.26344E-01  6474   0.261E-01    0.236E-01
RMM:   3    -0.233869014726E+04   -0.22409E-02   -0.27784E-02  5948   0.100E-01    0.241E-01
RMM:   4    -0.233868979004E+04    0.35722E-03   -0.27045E-03  4695   0.223E-02    0.139E-01
RMM:   5    -0.233868965414E+04    0.13590E-03   -0.49043E-04  4321   0.139E-02    0.109E-01
RMM:   6    -0.233868961479E+04    0.39356E-04   -0.35849E-04  3880   0.116E-02    0.100E-01
RMM:   7    -0.233868951933E+04    0.95454E-04   -0.15183E-04  3337   0.893E-03    0.357E-02
RMM:   8    -0.233868951043E+04    0.88983E-05   -0.32464E-05  2986   0.588E-03
  72 F= -.23602799E+04 E0= -.23602798E+04  d E =-.438334E-02  mag=     4.0000
       N       E                     dE             d eps       ncg     rms          rms(c)
DAV:   1    -0.233862018579E+04    0.69334E-01   -0.50186E+00  4536   0.183E+00    0.592E-01
RMM:   2    -0.233868396089E+04   -0.63775E-01   -0.68023E-01  6370   0.417E-01    0.383E-01
RMM:   3    -0.233868991696E+04   -0.59561E-02   -0.72913E-02  6063   0.161E-01    0.396E-01
RMM:   4    -0.233868884502E+04    0.10719E-02   -0.70467E-03  5966   0.357E-02    0.230E-01
RMM:   5    -0.233868859868E+04    0.24633E-03   -0.12582E-03  4931   0.208E-02    0.202E-01
RMM:   6    -0.233868829645E+04    0.30224E-03   -0.99111E-04  5084   0.176E-02    0.146E-01
RMM:   7    -0.233868809309E+04    0.20336E-03   -0.38438E-04  4442   0.127E-02    0.488E-02
RMM:   8    -0.233868808716E+04    0.59371E-05   -0.80454E-05  3043   0.739E-03
  73 F= -.23602789E+04 E0= -.23602788E+04  d E =-.343793E-02  mag=     4.0000
       N       E                     dE             d eps       ncg     rms          rms(c)
DAV:   1    -0.233866802695E+04    0.20066E-01   -0.16382E+00  4536   0.105E+00    0.334E-01
RMM:   2    -0.233868879666E+04   -0.20770E-01   -0.22026E-01  6384   0.239E-01    0.218E-01
RMM:   3    -0.233869069929E+04   -0.19026E-02   -0.23281E-02  5982   0.899E-02    0.223E-01
RMM:   4    -0.233869035924E+04    0.34005E-03   -0.22361E-03  4500   0.201E-02    0.137E-01
RMM:   5    -0.233869021868E+04    0.14056E-03   -0.41363E-04  3862   0.126E-02    0.984E-02
RMM:   6    -0.233869018497E+04    0.33713E-04   -0.32776E-04  3989   0.109E-02    0.941E-02
RMM:   7    -0.233869009935E+04    0.85618E-04   -0.14206E-04  3268   0.877E-03    0.240E-02
RMM:   8    -0.233869009897E+04    0.38673E-06   -0.26839E-05  2986   0.559E-03
  74 F= -.23602807E+04 E0= -.23602806E+04  d E =-.517694E-02  mag=     4.0000
       N       E                     dE             d eps       ncg     rms          rms(c)
DAV:   1    -0.233866262072E+04    0.27479E-01   -0.23737E+00  4536   0.127E+00    0.403E-01
RMM:   2    -0.233869190309E+04   -0.29282E-01   -0.31253E-01  6350   0.285E-01    0.235E-01
RMM:   3    -0.233869450301E+04   -0.25999E-02   -0.34152E-02  5924   0.114E-01    0.208E-01
RMM:   4    -0.233869433223E+04    0.17079E-03   -0.31945E-03  4745   0.240E-02    0.152E-01
RMM:   5    -0.233869414516E+04    0.18706E-03   -0.57729E-04  4615   0.144E-02    0.139E-01
RMM:   6    -0.233869404766E+04    0.97509E-04   -0.47608E-04  3875   0.136E-02    0.101E-01
RMM:   7    -0.233869393730E+04    0.11036E-03   -0.15167E-04  3939   0.856E-03    0.222E-02
RMM:   8    -0.233869393669E+04    0.60692E-06   -0.22975E-05  2962   0.566E-03
  75 F= -.23602845E+04 E0= -.23602844E+04  d E =-.378258E-02  mag=     4.0000
       N       E                     dE             d eps       ncg     rms          rms(c)
DAV:   1    -0.233869005576E+04    0.38815E-02   -0.31265E-01  4608   0.462E-01    0.150E-01
RMM:   2    -0.233869393094E+04   -0.38752E-02   -0.41484E-02  6428   0.104E-01    0.920E-02
RMM:   3    -0.233869429756E+04   -0.36663E-03   -0.45118E-03  4487   0.401E-02    0.883E-02
RMM:   4    -0.233869423207E+04    0.65489E-04   -0.42848E-04  3188   0.985E-03    0.530E-02
RMM:   5    -0.233869419834E+04    0.33739E-04   -0.81628E-05  3069   0.661E-03    0.332E-02
RMM:   6    -0.233869420999E+04   -0.11658E-04   -0.55986E-05  3093   0.583E-03    0.463E-02
RMM:   7    -0.233869418796E+04    0.22037E-04   -0.25767E-05  2952   0.471E-03    0.117E-02
RMM:   8    -0.233869418747E+04    0.48279E-06   -0.59007E-06  2881   0.292E-03
  76 F= -.23602847E+04 E0= -.23602846E+04  d E =-.401360E-02  mag=     4.0000
       N       E                     dE             d eps       ncg     rms          rms(c)
DAV:   1    -0.233867065160E+04    0.23536E-01   -0.21160E+00  4536   0.119E+00    0.390E-01
RMM:   2    -0.233869610650E+04   -0.25455E-01   -0.27231E-01  6307   0.266E-01    0.225E-01
RMM:   3    -0.233869836997E+04   -0.22635E-02   -0.29188E-02  5964   0.104E-01    0.208E-01
RMM:   4    -0.233869815212E+04    0.21785E-03   -0.28588E-03  5015   0.229E-02    0.145E-01
RMM:   5    -0.233869793605E+04    0.21607E-03   -0.55591E-04  4590   0.152E-02    0.966E-02
RMM:   6    -0.233869798569E+04   -0.49636E-04   -0.34054E-04  3846   0.114E-02    0.116E-01
RMM:   7    -0.233869783902E+04    0.14667E-03   -0.14630E-04  3274   0.880E-03    0.232E-02
RMM:   8    -0.233869784069E+04   -0.16707E-05   -0.31026E-05  2999   0.560E-03
  77 F= -.23602880E+04 E0= -.23602879E+04  d E =-.330562E-02  mag=     4.0000
       N       E                     dE             d eps       ncg     rms          rms(c)
DAV:   1    -0.233869585446E+04    0.19846E-02   -0.16732E-01  4720   0.336E-01    0.112E-01
RMM:   2    -0.233869788224E+04   -0.20278E-02   -0.21725E-02  6372   0.753E-02    0.688E-02
RMM:   3    -0.233869808991E+04   -0.20767E-03   -0.23632E-03  3906   0.291E-02    0.757E-02
RMM:   4    -0.233869803999E+04    0.49924E-04   -0.23362E-04  3129   0.794E-03    0.424E-02
RMM:   5    -0.233869803622E+04    0.37750E-05   -0.49930E-05  3017   0.506E-03
  78 F= -.23602881E+04 E0= -.23602880E+04  d E =-.340422E-02  mag=     4.0000
       N       E                     dE             d eps       ncg     rms          rms(c)
DAV:   1    -0.233867607299E+04    0.21967E-01   -0.18145E+00  4536   0.107E+00    0.342E-01
RMM:   2    -0.233869988882E+04   -0.23816E-01   -0.25304E-01  6510   0.247E-01    0.213E-01
RMM:   3    -0.233870210493E+04   -0.22161E-02   -0.26285E-02  6014   0.939E-02    0.227E-01
RMM:   4    -0.233870182282E+04    0.28211E-03   -0.25888E-03  4248   0.206E-02    0.145E-01
RMM:   5    -0.233870159396E+04    0.22886E-03   -0.45432E-04  4231   0.132E-02    0.839E-02
RMM:   6    -0.233870163218E+04   -0.38219E-04   -0.32937E-04  4021   0.112E-02    0.106E-01
RMM:   7    -0.233870152835E+04    0.10383E-03   -0.13162E-04  3248   0.809E-03    0.214E-02
RMM:   8    -0.233870152382E+04    0.45302E-05   -0.21331E-05  2989   0.473E-03
  79 F= -.23602913E+04 E0= -.23602912E+04  d E =-.317482E-02  mag=     4.0000
       N       E                     dE             d eps       ncg     rms          rms(c)
DAV:   1    -0.233867133449E+04    0.30194E-01   -0.21876E+00  4536   0.118E+00    0.379E-01
RMM:   2    -0.233870017371E+04   -0.28839E-01   -0.30552E-01  6432   0.270E-01    0.254E-01
[...]
RMM:   4    -0.233874714489E+04    0.30896E-04   -0.68631E-05  3019   0.602E-03    0.276E-02
RMM:   5    -0.233874714720E+04   -0.23066E-05   -0.31337E-05  3012   0.429E-03
 168 F= -.23603265E+04 E0= -.23603263E+04  d E =-.625382E-03  mag=     4.0000
       N       E                     dE             d eps       ncg     rms          rms(c)
DAV:   1    -0.233874620238E+04    0.94250E-03   -0.34896E-01  4536   0.486E-01    0.158E-01
RMM:   2    -0.233874786953E+04   -0.16671E-02   -0.18409E-02  6068   0.890E-02    0.876E-02
RMM:   3    -0.233874801574E+04   -0.14621E-03   -0.17324E-03  4935   0.356E-02    0.118E-01
RMM:   4    -0.233874788738E+04    0.12836E-03   -0.23605E-04  3259   0.999E-03    0.463E-02
RMM:   5    -0.233874787142E+04    0.15962E-04   -0.10017E-04  3884   0.793E-03    0.262E-02
RMM:   6    -0.233874787395E+04   -0.25277E-05   -0.31002E-05  2975   0.614E-03
 169 F= -.23603271E+04 E0= -.23603269E+04  d E =-.572310E-03  mag=     4.0000
       N       E                     dE             d eps       ncg     rms          rms(c)
DAV:   1    -0.233874780997E+04    0.61457E-04   -0.20230E-02  4936   0.117E-01    0.394E-02
RMM:   2    -0.233874791591E+04   -0.10594E-03   -0.11141E-03  5975   0.222E-02    0.279E-02
RMM:   3    -0.233874793171E+04   -0.15800E-04   -0.10982E-04  3049   0.905E-03    0.415E-02
RMM:   4    -0.233874791327E+04    0.18437E-04   -0.16648E-05  2949   0.345E-03    0.134E-02
RMM:   5    -0.233874791459E+04   -0.13184E-05   -0.75225E-06  2846   0.203E-03
 170 F= -.23603271E+04 E0= -.23603269E+04  d E =-.575932E-03  mag=     4.0000
       N       E                     dE             d eps       ncg     rms          rms(c)
DAV:   1    -0.233874734115E+04    0.57212E-03   -0.26600E-01  4536   0.417E-01    0.133E-01
RMM:   2    -0.233874851490E+04   -0.11738E-02   -0.13087E-02  6015   0.747E-02    0.672E-02
RMM:   3    -0.233874856212E+04   -0.47217E-04   -0.11287E-03  4342   0.281E-02    0.664E-02
RMM:   4    -0.233874854509E+04    0.17036E-04   -0.15565E-04  3160   0.836E-03    0.515E-02
RMM:   5    -0.233874852321E+04    0.21876E-04   -0.79152E-05  3367   0.713E-03    0.280E-02
RMM:   6    -0.233874852272E+04    0.49113E-06   -0.23613E-05  2956   0.548E-03
 171 F= -.23603275E+04 E0= -.23603273E+04  d E =-.443077E-03  mag=     4.0000
       N       E                     dE             d eps       ncg     rms          rms(c)
DAV:   1    -0.233874845945E+04    0.63755E-04   -0.23679E-02  4736   0.124E-01    0.406E-02
RMM:   2    -0.233874856873E+04   -0.10928E-03   -0.12074E-03  5919   0.233E-02    0.202E-02
RMM:   3    -0.233874857225E+04   -0.35136E-05   -0.10289E-04  3002   0.918E-03    0.170E-02
RMM:   4    -0.233874857325E+04   -0.99999E-06   -0.16049E-05  2969   0.295E-03
 172 F= -.23603275E+04 E0= -.23603273E+04  d E =-.444513E-03  mag=     4.0000
       N       E                     dE             d eps       ncg     rms          rms(c)
DAV:   1    -0.233874800745E+04    0.56480E-03   -0.30322E-01  4536   0.446E-01    0.142E-01
RMM:   2    -0.233874920926E+04   -0.12018E-02   -0.13477E-02  5989   0.773E-02    0.723E-02
RMM:   3    -0.233874930882E+04   -0.99555E-04   -0.12197E-03  4587   0.297E-02    0.103E-01
RMM:   4    -0.233874922423E+04    0.84590E-04   -0.16971E-04  3130   0.859E-03    0.479E-02
RMM:   5    -0.233874920527E+04    0.18963E-04   -0.80937E-05  3654   0.691E-03    0.289E-02
RMM:   6    -0.233874920479E+04    0.47075E-06   -0.30443E-05  2965   0.578E-03
 173 F= -.23603280E+04 E0= -.23603278E+04  d E =-.444355E-03  mag=     4.0000
       N       E                     dE             d eps       ncg     rms          rms(c)
DAV:   1    -0.233874916451E+04    0.40750E-04   -0.20940E-02  4872   0.117E-01    0.383E-02
RMM:   2    -0.233874925160E+04   -0.87083E-04   -0.96374E-04  5895   0.214E-02    0.185E-02
RMM:   3    -0.233874925353E+04   -0.19321E-05   -0.79526E-05  2981   0.876E-03
 174 F= -.23603280E+04 E0= -.23603278E+04  d E =-.444039E-03  mag=     4.0000
       N       E                     dE             d eps       ncg     rms          rms(c)
DAV:   1    -0.233874878619E+04    0.46541E-03   -0.29718E-01  4536   0.441E-01    0.142E-01
RMM:   2    -0.233874987540E+04   -0.10892E-02   -0.12273E-02  5970   0.760E-02    0.759E-02
RMM:   3    -0.233874997174E+04   -0.96341E-04   -0.11234E-03  4719   0.300E-02    0.105E-01
RMM:   4    -0.233874986906E+04    0.10268E-03   -0.17709E-04  3185   0.896E-03    0.480E-02
RMM:   5    -0.233874989180E+04   -0.22741E-04   -0.10378E-04  3346   0.745E-03    0.658E-02
RMM:   6    -0.233874984399E+04    0.47811E-04   -0.54121E-05  3010   0.658E-03    0.124E-02
RMM:   7    -0.233874984349E+04    0.49327E-06   -0.88353E-06  2943   0.349E-03
 175 F= -.23603284E+04 E0= -.23603282E+04  d E =-.444808E-03  mag=     4.0000
       N       E                     dE             d eps       ncg     rms          rms(c)
DAV:   1    -0.233874984322E+04    0.76603E-06   -0.39134E-03  5264   0.508E-02    0.179E-02
RMM:   2    -0.233874986111E+04   -0.17883E-04   -0.17059E-04  3811   0.101E-02    0.192E-02
RMM:   3    -0.233874986062E+04    0.48238E-06   -0.21707E-05  2864   0.570E-03
 176 F= -.23603284E+04 E0= -.23603282E+04  d E =-.445331E-03  mag=     4.0000
       N       E                     dE             d eps       ncg     rms          rms(c)
DAV:   1    -0.233874950352E+04    0.35758E-03   -0.23837E-01  4536   0.405E-01    0.132E-01
RMM:   2    -0.233875037384E+04   -0.87032E-03   -0.98289E-03  5961   0.703E-02    0.703E-02
RMM:   3    -0.233875046779E+04   -0.93948E-04   -0.82062E-04  4581   0.269E-02    0.106E-01
RMM:   4    -0.233875035599E+04    0.11180E-03   -0.13800E-04  3147   0.849E-03    0.425E-02
RMM:   5    -0.233875034804E+04    0.79440E-05   -0.75069E-05  3437   0.716E-03
 177 F= -.23603288E+04 E0= -.23603286E+04  d E =-.392162E-03  mag=     4.0000
       N       E                     dE             d eps       ncg     rms          rms(c)
DAV:   1    -0.233875032166E+04    0.34324E-04   -0.64462E-03  5400   0.678E-02    0.283E-02
RMM:   2    -0.233875037086E+04   -0.49200E-04   -0.32803E-04  4978   0.143E-02    0.448E-02
RMM:   3    -0.233875034853E+04    0.22338E-04   -0.45647E-05  2979   0.645E-03    0.150E-02
RMM:   4    -0.233875034604E+04    0.24843E-05   -0.45081E-06  2882   0.235E-03
 178 F= -.23603288E+04 E0= -.23603286E+04  d E =-.374378E-03  mag=     4.0000
       N       E                     dE             d eps       ncg     rms          rms(c)
DAV:   1    -0.233874994805E+04    0.40047E-03   -0.23364E-01  4536   0.389E-01    0.122E-01
RMM:   2    -0.233875082562E+04   -0.87757E-03   -0.98987E-03  5966   0.675E-02    0.612E-02
RMM:   3    -0.233875084511E+04   -0.19487E-04   -0.81825E-04  4236   0.260E-02    0.578E-02
RMM:   4    -0.233875084329E+04    0.18138E-05   -0.12557E-04  3091   0.777E-03    0.546E-02
RMM:   5    -0.233875082419E+04    0.19102E-04   -0.63608E-05  3140   0.638E-03    0.357E-02
RMM:   6    -0.233875081535E+04    0.88375E-05   -0.27117E-05  2954   0.538E-03
 179 F= -.23603292E+04 E0= -.23603289E+04  d E =-.344924E-03  mag=     4.0000
       N       E                     dE             d eps       ncg     rms          rms(c)
DAV:   1    -0.233875076975E+04    0.54438E-04   -0.19510E-02  4784   0.113E-01    0.366E-02
RMM:   2    -0.233875085046E+04   -0.80702E-04   -0.86470E-04  5836   0.206E-02    0.228E-02
RMM:   3    -0.233875085765E+04   -0.71933E-05   -0.72480E-05  3024   0.827E-03
 180 F= -.23603292E+04 E0= -.23603289E+04  d E =-.351338E-03  mag=     4.0000
       N       E                     dE             d eps       ncg     rms          rms(c)
DAV:   1    -0.233875067784E+04    0.17262E-03   -0.20226E-01  4536   0.353E-01    0.114E-01
RMM:   2    -0.233875142746E+04   -0.74962E-03   -0.84064E-03  5996   0.624E-02    0.641E-02
RMM:   3    -0.233875146380E+04   -0.36341E-04   -0.65965E-04  4016   0.225E-02    0.752E-02
RMM:   4    -0.233875142204E+04    0.41756E-04   -0.11544E-04  3086   0.771E-03    0.470E-02
RMM:   5    -0.233875142600E+04   -0.39545E-05   -0.67813E-05  3096   0.642E-03
 181 F= -.23603296E+04 E0= -.23603293E+04  d E =-.418214E-03  mag=     4.0000
       N       E                     dE             d eps       ncg     rms          rms(c)
DAV:   1    -0.233875128493E+04    0.13712E-03   -0.53907E-02  4560   0.183E-01    0.601E-02
RMM:   2    -0.233875150603E+04   -0.22110E-03   -0.23361E-03  6119   0.350E-02    0.451E-02
RMM:   3    -0.233875152129E+04   -0.15267E-04   -0.22487E-04  3195   0.126E-02    0.519E-02
RMM:   4    -0.233875148978E+04    0.31517E-04   -0.32159E-05  2983   0.521E-03    0.174E-02
RMM:   5    -0.233875149987E+04   -0.10093E-04   -0.22804E-05  3004   0.371E-03    0.345E-02
RMM:   6    -0.233875148663E+04    0.13243E-04   -0.12321E-05  2919   0.362E-03    0.433E-03
RMM:   7    -0.233875148651E+04    0.11914E-06   -0.21631E-06  2768   0.170E-03
 182 F= -.23603296E+04 E0= -.23603293E+04  d E =-.401139E-03  mag=     4.0000
       N       E                     dE             d eps       ncg     rms          rms(c)
DAV:   1    -0.233875123707E+04    0.24956E-03   -0.22066E-01  4536   0.362E-01    0.114E-01
RMM:   2    -0.233875201889E+04   -0.78182E-03   -0.87143E-03  5989   0.623E-02    0.591E-02
RMM:   3    -0.233875205076E+04   -0.31875E-04   -0.70557E-04  3884   0.233E-02    0.595E-02
RMM:   4    -0.233875202083E+04    0.29927E-04   -0.10538E-04  3100   0.770E-03    0.400E-02
RMM:   5    -0.233875200309E+04    0.17739E-04   -0.54976E-05  3169   0.631E-03    0.140E-02
RMM:   6    -0.233875200710E+04   -0.40022E-05   -0.14852E-05  2964   0.484E-03
 183 F= -.23603299E+04 E0= -.23603296E+04  d E =-.354090E-03  mag=     4.0000
       N       E                     dE             d eps       ncg     rms          rms(c)
DAV:   1    -0.233875196160E+04    0.41494E-04   -0.33037E-02  4656   0.140E-01    0.449E-02
RMM:   2    -0.233875208486E+04   -0.12326E-03   -0.13536E-03  5896   0.249E-02    0.239E-02
RMM:   3    -0.233875209119E+04   -0.63348E-05   -0.10469E-04  3009   0.917E-03    0.270E-02
RMM:   4    -0.233875208430E+04    0.68987E-05   -0.16502E-05  2952   0.330E-03
 184 F= -.23603299E+04 E0= -.23603296E+04  d E =-.367014E-03  mag=     4.0000
       N       E                     dE             d eps       ncg     rms          rms(c)
DAV:   1    -0.233875207890E+04    0.12293E-04   -0.17117E-01  4568   0.328E-01    0.111E-01
RMM:   2    -0.233875272592E+04   -0.64701E-03   -0.68682E-03  5952   0.572E-02    0.880E-02
RMM:   3    -0.233875283216E+04   -0.10624E-03   -0.75880E-04  4028   0.237E-02    0.125E-01
RMM:   4    -0.233875266016E+04    0.17199E-03   -0.11859E-04  3183   0.854E-03    0.283E-02
RMM:   5    -0.233875266905E+04   -0.88856E-05   -0.68409E-05  3483   0.662E-03
 185 F= -.23603304E+04 E0= -.23603301E+04  d E =-.426525E-03  mag=     4.0000
       N       E                     dE             d eps       ncg     rms          rms(c)
DAV:   1    -0.233875264950E+04    0.10667E-04   -0.13605E-02  4952   0.931E-02    0.331E-02
RMM:   2    -0.233875270437E+04   -0.54872E-04   -0.59190E-04  5509   0.187E-02    0.235E-02
RMM:   3    -0.233875271217E+04   -0.78052E-05   -0.64685E-05  2994   0.817E-03
 186 F= -.23603304E+04 E0= -.23603301E+04  d E =-.424931E-03  mag=     4.0000
       N       E                     dE             d eps       ncg     rms          rms(c)
DAV:   1    -0.233875266577E+04    0.38601E-04   -0.13472E-01  4536   0.293E-01    0.986E-02
RMM:   2    -0.233875316025E+04   -0.49449E-03   -0.54935E-03  6004   0.522E-02    0.598E-02
RMM:   3    -0.233875323456E+04   -0.74306E-04   -0.49825E-04  3743   0.192E-02    0.959E-02
RMM:   4    -0.233875313768E+04    0.96876E-04   -0.87295E-05  3037   0.738E-03    0.305E-02
RMM:   5    -0.233875315062E+04   -0.12940E-04   -0.50586E-05  3105   0.543E-03    0.435E-02
RMM:   6    -0.233875312853E+04    0.22096E-04   -0.29353E-05  2965   0.519E-03    0.864E-03
RMM:   7    -0.233875312803E+04    0.49706E-06   -0.44410E-06  2892   0.254E-03
 187 F= -.23603306E+04 E0= -.23603303E+04  d E =-.276634E-03  mag=     4.0000
       N       E                     dE             d eps       ncg     rms          rms(c)
DAV:   1    -0.233875313744E+04   -0.89130E-05   -0.87474E-03  4848   0.745E-02    0.253E-02
RMM:   2    -0.233875317080E+04   -0.33361E-04   -0.36069E-04  4788   0.143E-02    0.170E-02
RMM:   3    -0.233875317491E+04   -0.41086E-05   -0.40946E-05  2956   0.694E-03
 188 F= -.23603306E+04 E0= -.23603303E+04  d E =-.288095E-03  mag=     4.0000
       N       E                     dE             d eps       ncg     rms          rms(c)
DAV:   1    -0.233875319480E+04   -0.23997E-04   -0.11800E-01  4536   0.285E-01    0.101E-01
RMM:   2    -0.233875358014E+04   -0.38534E-03   -0.45118E-03  5935   0.497E-02    0.494E-02
RMM:   3    -0.233875359171E+04   -0.11572E-04   -0.32172E-04  3808   0.181E-02    0.609E-02
RMM:   4    -0.233875355993E+04    0.31780E-04   -0.65481E-05  3064   0.677E-03    0.315E-02
RMM:   5    -0.233875355083E+04    0.90928E-05   -0.38680E-05  3095   0.560E-03
 189 F= -.23603309E+04 E0= -.23603306E+04  d E =-.256667E-03  mag=     4.0000
       N       E                     dE             d eps       ncg     rms          rms(c)
DAV:   1    -0.233875355688E+04    0.30448E-05   -0.25235E-03  5432   0.425E-02    0.227E-02
RMM:   2    -0.233875360454E+04   -0.47662E-04   -0.14781E-04  3629   0.974E-03    0.597E-02
RMM:   3    -0.233875356448E+04    0.40066E-04   -0.35471E-05  2890   0.598E-03    0.919E-03
RMM:   4    -0.233875356455E+04   -0.75350E-07   -0.48316E-06  2678   0.195E-03
 190 F= -.23603309E+04 E0= -.23603306E+04  d E =-.252765E-03  mag=     4.0000
       N       E                     dE             d eps       ncg     rms          rms(c)
DAV:   1    -0.233875354880E+04    0.15683E-04   -0.11226E-01  4536   0.269E-01    0.877E-02
RMM:   2    -0.233875391978E+04   -0.37098E-03   -0.42251E-03  5949   0.466E-02    0.452E-02
RMM:   3    -0.233875393000E+04   -0.10220E-04   -0.29126E-04  3652   0.173E-02    0.521E-02
RMM:   4    -0.233875390693E+04    0.23067E-04   -0.55678E-05  3019   0.621E-03    0.313E-02
RMM:   5    -0.233875390516E+04    0.17684E-05   -0.36034E-05  3036   0.503E-03
 191 F= -.23603311E+04 E0= -.23603308E+04  d E =-.237691E-03  mag=     4.0000
       N       E                     dE             d eps       ncg     rms          rms(c)
DAV:   1    -0.233875389281E+04    0.14114E-04   -0.10357E-02  4888   0.823E-02    0.287E-02
RMM:   2    -0.233875393766E+04   -0.44842E-04   -0.41949E-04  5053   0.167E-02    0.302E-02
RMM:   3    -0.233875393625E+04    0.14101E-05   -0.46905E-05  2966   0.707E-03
 192 F= -.23603311E+04 E0= -.23603308E+04  d E =-.237363E-03  mag=     4.0000
       N       E                     dE             d eps       ncg     rms          rms(c)
DAV:   1    -0.233875394701E+04   -0.93510E-05   -0.10251E-01  4536   0.256E-01    0.885E-02
RMM:   2    -0.233875430869E+04   -0.36168E-03   -0.39309E-03  5948   0.454E-02    0.630E-02
RMM:   3    -0.233875434456E+04   -0.35873E-04   -0.35089E-04  3558   0.170E-02    0.811E-02
RMM:   4    -0.233875426508E+04    0.79485E-04   -0.68243E-05  3041   0.683E-03    0.275E-02
RMM:   5    -0.233875428210E+04   -0.17019E-04   -0.42437E-05  3026   0.486E-03    0.475E-02
RMM:   6    -0.233875425613E+04    0.25964E-04   -0.25031E-05  2964   0.475E-03    0.700E-03
RMM:   7    -0.233875425683E+04   -0.70066E-06   -0.58546E-06  2901   0.300E-03
 193 F= -.23603314E+04 E0= -.23603310E+04  d E =-.230008E-03  mag=     4.0000
       N       E                     dE             d eps       ncg     rms          rms(c)
DAV:   1    -0.233875425834E+04   -0.22059E-05   -0.95028E-03  4784   0.779E-02    0.266E-02
RMM:   2    -0.233875429149E+04   -0.33156E-04   -0.37031E-04  4925   0.143E-02    0.137E-02
RMM:   3    -0.233875429333E+04   -0.18366E-05   -0.27148E-05  2962   0.636E-03
 194 F= -.23603314E+04 E0= -.23603311E+04  d E =-.238975E-03  mag=     4.0000
       N       E                     dE             d eps       ncg     rms          rms(c)
DAV:   1    -0.233875431762E+04   -0.26125E-04   -0.86976E-02  4580   0.242E-01    0.830E-02
RMM:   2    -0.233875460380E+04   -0.28618E-03   -0.33144E-03  5934   0.424E-02    0.414E-02
RMM:   3    -0.233875460584E+04   -0.20427E-05   -0.21784E-04  3418   0.148E-02    0.450E-02
RMM:   4    -0.233875458796E+04    0.17880E-04   -0.49074E-05  3022   0.588E-03    0.287E-02
RMM:   5    -0.233875458168E+04    0.62829E-05   -0.27934E-05  2974   0.479E-03
 195 F= -.23603316E+04 E0= -.23603313E+04  d E =-.222580E-03  mag=     4.0000
       N       E                     dE             d eps       ncg     rms          rms(c)
DAV:   1    -0.233875456574E+04    0.22221E-04   -0.11809E-02  4832   0.894E-02    0.323E-02
RMM:   2    -0.233875462040E+04   -0.54657E-04   -0.47925E-04  5174   0.182E-02    0.364E-02
RMM:   3    -0.233875461401E+04    0.63897E-05   -0.55633E-05  2983   0.772E-03
 196 F= -.23603316E+04 E0= -.23603313E+04  d E =-.230592E-03  mag=     4.0000
       N       E                     dE             d eps       ncg     rms          rms(c)
DAV:   1    -0.233875463067E+04   -0.10276E-04   -0.77957E-02  4548   0.218E-01    0.753E-02
RMM:   2    -0.233875491411E+04   -0.28344E-03   -0.29666E-03  6003   0.392E-02    0.624E-02
RMM:   3    -0.233875491498E+04   -0.87253E-06   -0.24263E-04  3318   0.138E-02    0.615E-02
RMM:   4    -0.233875486511E+04    0.49865E-04   -0.46079E-05  3029   0.580E-03    0.216E-02
RMM:   5    -0.233875488202E+04   -0.16902E-04   -0.32426E-05  2996   0.449E-03    0.442E-02
RMM:   6    -0.233875485983E+04    0.22181E-04   -0.18041E-05  2935   0.416E-03    0.432E-03
RMM:   7    -0.233875485988E+04   -0.47119E-07   -0.32996E-06  2820   0.221E-03
 197 F= -.23603318E+04 E0= -.23603314E+04  d E =-.173528E-03  mag=     4.0000
       N       E                     dE             d eps       ncg     rms          rms(c)
DAV:   1    -0.233875486603E+04   -0.61947E-05   -0.81763E-03  4800   0.704E-02    0.237E-02
RMM:   2    -0.233875489493E+04   -0.28899E-04   -0.30803E-04  4663   0.130E-02    0.165E-02
RMM:   3    -0.233875489765E+04   -0.27215E-05   -0.27557E-05  2958   0.606E-03
 198 F= -.23603318E+04 E0= -.23603315E+04  d E =-.187930E-03  mag=     4.0000
       N       E                     dE             d eps       ncg     rms          rms(c)
DAV:   1    -0.233875497288E+04   -0.77954E-04   -0.79834E-02  4568   0.233E-01    0.820E-02
RMM:   2    -0.233875522860E+04   -0.25572E-03   -0.29353E-03  5934   0.411E-02    0.453E-02
RMM:   3    -0.233875524698E+04   -0.18375E-04   -0.21986E-04  3482   0.150E-02    0.606E-02
RMM:   4    -0.233875520387E+04    0.43105E-04   -0.53278E-05  3020   0.609E-03    0.228E-02
RMM:   5    -0.233875520005E+04    0.38238E-05   -0.25685E-05  3008   0.473E-03
 199 F= -.23603320E+04 E0= -.23603317E+04  d E =-.235543E-03  mag=     4.0000
       N       E                     dE             d eps       ncg     rms          rms(c)
DAV:   1    -0.233875519751E+04    0.63558E-05   -0.70989E-03  4928   0.700E-02    0.259E-02
RMM:   2    -0.233875522847E+04   -0.30958E-04   -0.27788E-04  4774   0.145E-02    0.268E-02
RMM:   3    -0.233875522556E+04    0.29096E-05   -0.34743E-05  2988   0.682E-03
 200 F= -.23603320E+04 E0= -.23603317E+04  d E =-.241037E-03  mag=     4.0000
       N       E                     dE             d eps       ncg     rms          rms(c)
DAV:   1    -0.233875526846E+04   -0.39985E-04   -0.74158E-02  4536   0.214E-01    0.732E-02
RMM:   2    -0.233875551319E+04   -0.24473E-03   -0.26945E-03  5944   0.377E-02    0.490E-02
RMM:   3    -0.233875554504E+04   -0.31847E-04   -0.22844E-04  3352   0.142E-02    0.699E-02
RMM:   4    -0.233875548810E+04    0.56941E-04   -0.50124E-05  3015   0.583E-03    0.248E-02
RMM:   5    -0.233875549692E+04   -0.88222E-05   -0.29356E-05  2995   0.422E-03
 201 F= -.23603322E+04 E0= -.23603319E+04  d E =-.191891E-03  mag=     4.0000
