       N       E                     dE             d eps       ncg     rms          rms(c)
DAV:   1     0.128419143391E+05    0.12842E+05   -0.83742E+05  4456   0.144E+03
DAV:   2    -0.107422779637E+04   -0.13916E+05   -0.13338E+05  5288   0.331E+02
DAV:   3    -0.248308033548E+04   -0.14089E+04   -0.13957E+04  5376   0.111E+02
DAV:   4    -0.252822246925E+04   -0.45142E+02   -0.44915E+02  6712   0.295E+01
DAV:   5    -0.252903185860E+04   -0.80939E+00   -0.80785E+00  5584   0.318E+00    0.171E+02
RMM:   6    -0.148210041374E+04    0.10469E+04   -0.19496E+03  4423   0.387E+01    0.725E+01
RMM:   7    -0.165209522993E+04   -0.16999E+03   -0.28337E+02  4996   0.140E+01    0.498E+01
RMM:   8    -0.171121996525E+04   -0.59125E+02   -0.48732E+01  5214   0.724E+00    0.423E+01
RMM:   9    -0.179782137607E+04   -0.86601E+02   -0.64939E+01  5011   0.775E+00    0.343E+01
RMM:  10    -0.193569196158E+04   -0.13787E+03   -0.61860E+01  5203   0.756E+00    0.189E+01
RMM:  11    -0.203836018644E+04   -0.10267E+03   -0.43103E+01  4907   0.537E+00    0.148E+01
RMM:  12    -0.215354913602E+04   -0.11519E+03   -0.66377E+01  4489   0.616E+00    0.107E+01
RMM:  13    -0.228976774223E+04   -0.13622E+03   -0.14106E+02  4428   0.783E+00    0.543E+00
RMM:  14    -0.231202883947E+04   -0.22261E+02   -0.26945E+01  4483   0.464E+00    0.403E+00
RMM:  15    -0.231770467725E+04   -0.56758E+01   -0.91543E+00  4846   0.194E+00    0.234E+00
RMM:  16    -0.232035404733E+04   -0.26494E+01   -0.24433E+00  5139   0.125E+00    0.170E+00
RMM:  17    -0.232098491721E+04   -0.63087E+00   -0.41567E-01  5086   0.544E-01    0.647E-01
RMM:  18    -0.232124335433E+04   -0.25844E+00   -0.12299E-01  5193   0.288E-01    0.431E-01
RMM:  19    -0.232130879327E+04   -0.65439E-01   -0.37305E-02  4588   0.160E-01    0.222E-01
RMM:  20    -0.232133474318E+04   -0.25950E-01   -0.11007E-02  4585   0.102E-01    0.194E-01
RMM:  21    -0.232134808799E+04   -0.13345E-01   -0.60602E-03  4473   0.637E-02    0.876E-02
RMM:  22    -0.232135881283E+04   -0.10725E-01   -0.33158E-03  4508   0.472E-02    0.719E-02
RMM:  23    -0.232136579937E+04   -0.69865E-02   -0.23859E-03  4522   0.364E-02    0.437E-02
RMM:  24    -0.232136886234E+04   -0.30630E-02   -0.11702E-03  4645   0.291E-02    0.206E-02
RMM:  25    -0.232137015526E+04   -0.12929E-02   -0.50476E-04  4091   0.172E-02    0.185E-02
RMM:  26    -0.232137047874E+04   -0.32348E-03   -0.12598E-04  3788   0.118E-02    0.678E-03
RMM:  27    -0.232137069066E+04   -0.21192E-03   -0.58337E-05  3521   0.646E-03    0.600E-03
RMM:  28    -0.232137079484E+04   -0.10418E-03   -0.21010E-05  3093   0.501E-03    0.299E-03
RMM:  29    -0.232137083897E+04   -0.44128E-04   -0.11587E-05  2888   0.316E-03    0.157E-03
RMM:  30    -0.232137085243E+04   -0.13458E-04   -0.55933E-06  2767   0.287E-03    0.104E-03
RMM:  31    -0.232137085537E+04   -0.29463E-05   -0.29244E-06  2392   0.196E-03
   1 F= -.23418630E+04 E0= -.23418630E+04  d E =-.234186E+04  mag=     3.9999
       N       E                     dE             d eps       ncg     rms          rms(c)
DAV:   1    -0.231625581457E+04    0.51150E+01   -0.30818E+02  4712   0.111E+01    0.526E+00
RMM:   2    -0.232411411002E+04   -0.78583E+01   -0.67571E+01  6263   0.351E+00    0.886E+00
RMM:   3    -0.232269998468E+04    0.14141E+01   -0.38153E+00  5945   0.900E-01    0.533E+00
RMM:   4    -0.232269069157E+04    0.92931E-02   -0.51135E-01  5991   0.274E-01    0.323E+00
RMM:   5    -0.232270871437E+04   -0.18023E-01   -0.99295E-02  5679   0.121E-01    0.237E+00
RMM:   6    -0.232268373143E+04    0.24983E-01   -0.81587E-02  5348   0.124E-01    0.105E+00
RMM:   7    -0.232267658813E+04    0.71433E-02   -0.55007E-02  4744   0.110E-01    0.426E-01
RMM:   8    -0.232267647221E+04    0.11592E-03   -0.79744E-03  4993   0.547E-02    0.213E-01
RMM:   9    -0.232267679919E+04   -0.32698E-03   -0.14296E-03  4686   0.245E-02    0.817E-02
RMM:  10    -0.232267696406E+04   -0.16487E-03   -0.35029E-04  4143   0.129E-02    0.377E-02
RMM:  11    -0.232267711769E+04   -0.15363E-03   -0.15167E-04  3833   0.903E-03    0.266E-02
RMM:  12    -0.232267718460E+04   -0.66906E-04   -0.36869E-05  3119   0.613E-03    0.173E-02
RMM:  13    -0.232267722230E+04   -0.37699E-04   -0.22247E-05  2973   0.466E-03    0.943E-03
RMM:  14    -0.232267724514E+04   -0.22844E-04   -0.17880E-05  2893   0.446E-03    0.951E-03
RMM:  15    -0.232267725274E+04   -0.76021E-05   -0.92037E-06  2828   0.390E-03
   2 F= -.23431783E+04 E0= -.23431783E+04  d E =-.131529E+01  mag=     3.9970
       N       E                     dE             d eps       ncg     rms          rms(c)
DAV:   1    -0.232256961760E+04    0.10763E+00   -0.70772E+00  4816   0.153E+00    0.943E-01
RMM:   2    -0.232273946998E+04   -0.16985E+00   -0.14351E+00  6411   0.463E-01    0.232E+00
RMM:   3    -0.232270276102E+04    0.36709E-01   -0.13174E-01  5419   0.160E-01    0.420E-01
RMM:   4    -0.232270345817E+04   -0.69715E-03   -0.16278E-02  4906   0.367E-02    0.237E-01
RMM:   5    -0.232270302086E+04    0.43730E-03   -0.15849E-03  3978   0.197E-02    0.183E-01
RMM:   6    -0.232270268504E+04    0.33582E-03   -0.13393E-03  4694   0.178E-02    0.496E-02
RMM:   7    -0.232270270203E+04   -0.16989E-04   -0.20523E-04  3239   0.904E-03    0.285E-02
RMM:   8    -0.232270270510E+04   -0.30691E-05   -0.33514E-05  2962   0.471E-03
   3 F= -.23432020E+04 E0= -.23432020E+04  d E =-.133903E+01  mag=     3.9992
       N       E                     dE             d eps       ncg     rms          rms(c)
DAV:   1    -0.232150559833E+04    0.11971E+01   -0.12767E+02  4464   0.695E+00    0.327E+00
RMM:   2    -0.232328285016E+04   -0.17773E+01   -0.17081E+01  6523   0.199E+00    0.501E+00
RMM:   3    -0.232316651277E+04    0.11634E+00   -0.16611E+00  5524   0.740E-01    0.241E+00
RMM:   4    -0.232313129826E+04    0.35215E-01   -0.20832E-01  5997   0.162E-01    0.108E+00
RMM:   5    -0.232311241005E+04    0.18888E-01   -0.40963E-02  4917   0.950E-02    0.769E-01
RMM:   6    -0.232310387127E+04    0.85388E-02   -0.29036E-02  5146   0.987E-02    0.251E-01
RMM:   7    -0.232310357973E+04    0.29154E-03   -0.40679E-03  5456   0.373E-02    0.999E-02
RMM:   8    -0.232310368684E+04   -0.10711E-03   -0.45559E-04  4276   0.131E-02    0.596E-02
RMM:   9    -0.232310393995E+04   -0.25311E-03   -0.30282E-04  4076   0.113E-02    0.276E-02
RMM:  10    -0.232310409675E+04   -0.15680E-03   -0.11901E-04  3705   0.832E-03    0.147E-02
RMM:  11    -0.232310417561E+04   -0.78855E-04   -0.38963E-05  3132   0.538E-03    0.117E-02
RMM:  12    -0.232310426827E+04   -0.92666E-04   -0.43352E-05  3258   0.527E-03    0.540E-03
RMM:  13    -0.232310429967E+04   -0.31398E-04   -0.18140E-05  2898   0.449E-03    0.333E-03
RMM:  14    -0.232310430973E+04   -0.10063E-04   -0.79593E-06  2829   0.339E-03    0.197E-03
RMM:  15    -0.232310431416E+04   -0.44278E-05   -0.40727E-06  2699   0.253E-03
   4 F= -.23436121E+04 E0= -.23436121E+04  d E =-.410075E+00  mag=     4.0000
       N       E                     dE             d eps       ncg     rms          rms(c)
DAV:   1    -0.232308115625E+04    0.23153E-01   -0.31282E+00  4592   0.116E+00    0.519E-01
RMM:   2    -0.232312415232E+04   -0.42996E-01   -0.38301E-01  6525   0.294E-01    0.105E+00
RMM:   3    -0.232311613525E+04    0.80171E-02   -0.25573E-02  5475   0.842E-02    0.286E-01
RMM:   4    -0.232311570325E+04    0.43200E-03   -0.37605E-03  4454   0.209E-02    0.146E-01
RMM:   5    -0.232311532959E+04    0.37366E-03   -0.93374E-04  4272   0.164E-02    0.113E-01
RMM:   6    -0.232311518796E+04    0.14163E-03   -0.44706E-04  4003   0.130E-02    0.238E-02
RMM:   7    -0.232311518420E+04    0.37521E-05   -0.44987E-05  3022   0.552E-03
   5 F= -.23436216E+04 E0= -.23436216E+04  d E =-.419598E+00  mag=     4.0000
       N       E                     dE             d eps       ncg     rms          rms(c)
DAV:   1    -0.232252598294E+04    0.58921E+00   -0.87659E+01  4432   0.631E+00    0.283E+00
RMM:   2    -0.232382990335E+04   -0.13039E+01   -0.11773E+01  6548   0.160E+00    0.500E+00
RMM:   3    -0.232364257501E+04    0.18733E+00   -0.10494E+00  5824   0.503E-01    0.133E+00
RMM:   4    -0.232364185966E+04    0.71535E-03   -0.13112E-01  5734   0.112E-01    0.760E-01
RMM:   5    -0.232363911215E+04    0.27475E-02   -0.14412E-02  4997   0.556E-02    0.753E-01
RMM:   6    -0.232363353754E+04    0.55746E-02   -0.15896E-02  5443   0.655E-02    0.212E-01
RMM:   7    -0.232363360078E+04   -0.63232E-04   -0.23942E-03  4842   0.254E-02    0.106E-01
RMM:   8    -0.232363345450E+04    0.14627E-03   -0.25783E-04  3483   0.105E-02    0.439E-02
RMM:   9    -0.232363340319E+04    0.51314E-04   -0.14845E-04  3511   0.747E-03    0.169E-02
RMM:  10    -0.232363339541E+04    0.77835E-05   -0.39147E-05  2940   0.529E-03
   6 F= -.23441493E+04 E0= -.23441493E+04  d E =-.527672E+00  mag=     4.0000
       N       E                     dE             d eps       ncg     rms          rms(c)
DAV:   1    -0.232199347894E+04    0.16399E+01   -0.14536E+02  4424   0.788E+00    0.373E+00
RMM:   2    -0.232426725755E+04   -0.22738E+01   -0.20748E+01  6523   0.199E+00    0.625E+00
RMM:   3    -0.232390267584E+04    0.36458E+00   -0.16240E+00  5965   0.611E-01    0.169E+00
RMM:   4    -0.232389756348E+04    0.51124E-02   -0.18891E-01  5662   0.140E-01    0.915E-01
RMM:   5    -0.232389232853E+04    0.52349E-02   -0.21671E-02  4900   0.700E-02    0.855E-01
RMM:   6    -0.232388561137E+04    0.67172E-02   -0.25753E-02  5497   0.840E-02    0.331E-01
RMM:   7    -0.232388518808E+04    0.42330E-03   -0.24698E-03  5211   0.281E-02    0.117E-01
RMM:   8    -0.232388500040E+04    0.18768E-03   -0.37443E-04  3799   0.125E-02    0.473E-02
RMM:   9    -0.232388492184E+04    0.78553E-04   -0.17350E-04  3664   0.844E-03    0.260E-02
RMM:  10    -0.232388489975E+04    0.22099E-04   -0.64668E-05  3157   0.678E-03    0.115E-02
RMM:  11    -0.232388489078E+04    0.89605E-05   -0.25701E-05  2936   0.472E-03
   7 F= -.23444164E+04 E0= -.23444164E+04  d E =-.794756E+00  mag=     4.0000
       N       E                     dE             d eps       ncg     rms          rms(c)
DAV:   1    -0.232384761721E+04    0.37283E-01   -0.23240E+01  4480   0.378E+00    0.143E+00
RMM:   2    -0.232401237090E+04   -0.16475E+00   -0.18851E+00  5954   0.702E-01    0.842E-01
RMM:   3    -0.232401728102E+04   -0.49101E-02   -0.17775E-01  5362   0.254E-01    0.790E-01
RMM:   4    -0.232401493040E+04    0.23506E-02   -0.20977E-02  5771   0.693E-02    0.618E-01
RMM:   5    -0.232400995893E+04    0.49715E-02   -0.96547E-03  4954   0.536E-02    0.241E-01
RMM:   6    -0.232400940825E+04    0.55068E-03   -0.25570E-03  5145   0.349E-02    0.819E-02
RMM:   7    -0.232400932824E+04    0.80014E-04   -0.51054E-04  4372   0.138E-02    0.377E-02
RMM:   8    -0.232400928168E+04    0.46561E-04   -0.89128E-05  3452   0.876E-03    0.209E-02
RMM:   9    -0.232400926084E+04    0.20837E-04   -0.57764E-05  3472   0.625E-03    0.992E-03
RMM:  10    -0.232400925551E+04    0.53308E-05   -0.14705E-05  2878   0.504E-03
   8 F= -.23445435E+04 E0= -.23445435E+04  d E =-.127128E+00  mag=     4.0000
       N       E                     dE             d eps       ncg     rms          rms(c)
DAV:   1    -0.232400961095E+04   -0.35011E-03   -0.29255E-01  4864   0.410E-01    0.161E-01
RMM:   2    -0.232401169120E+04   -0.20802E-02   -0.23839E-02  6016   0.814E-02    0.923E-02
RMM:   3    -0.232401171443E+04   -0.23230E-04   -0.19922E-03  4481   0.296E-02    0.737E-02
RMM:   4    -0.232401173298E+04   -0.18545E-04   -0.26723E-04  3122   0.855E-03    0.891E-02
RMM:   5    -0.232401164653E+04    0.86448E-04   -0.10300E-04  3176   0.677E-03    0.218E-02
RMM:   6    -0.232401164717E+04   -0.63906E-06   -0.30135E-05  2942   0.559E-03
   9 F= -.23445456E+04 E0= -.23445456E+04  d E =-.129229E+00  mag=     4.0000
       N       E                     dE             d eps       ncg     rms          rms(c)
DAV:   1    -0.232390916103E+04    0.10249E+00   -0.20192E+01  4448   0.289E+00    0.117E+00
RMM:   2    -0.232409673581E+04   -0.18757E+00   -0.19843E+00  6030   0.571E-01    0.105E+00
RMM:   3    -0.232410241721E+04   -0.56814E-02   -0.17577E-01  5580   0.235E-01    0.951E-01
RMM:   4    -0.232409451642E+04    0.79008E-02   -0.16951E-02  5905   0.529E-02    0.419E-01
RMM:   5    -0.232409150393E+04    0.30125E-02   -0.96417E-03  5066   0.404E-02    0.202E-01
RMM:   6    -0.232409119470E+04    0.30924E-03   -0.27017E-03  4502   0.271E-02    0.669E-02
RMM:   7    -0.232409117827E+04    0.16422E-04   -0.47123E-04  3629   0.139E-02    0.328E-02
RMM:   8    -0.232409118634E+04   -0.80691E-05   -0.96037E-05  3130   0.707E-03
  10 F= -.23446251E+04 E0= -.23446251E+04  d E =-.794597E-01  mag=     4.0000
       N       E                     dE             d eps       ncg     rms          rms(c)
DAV:   1    -0.232409015663E+04    0.10216E-02   -0.18729E-01  4936   0.279E-01    0.111E-01
RMM:   2    -0.232409182066E+04   -0.16640E-02   -0.17813E-02  5996   0.557E-02    0.781E-02
RMM:   3    -0.232409189970E+04   -0.79043E-04   -0.16037E-03  3374   0.219E-02    0.732E-02
RMM:   4    -0.232409186627E+04    0.33436E-04   -0.16705E-04  3074   0.585E-03    0.424E-02
RMM:   5    -0.232409184348E+04    0.22787E-04   -0.76072E-05  2971   0.446E-03    0.233E-02
RMM:   6    -0.232409184216E+04    0.13186E-05   -0.32012E-05  2882   0.374E-03
  11 F= -.23446257E+04 E0= -.23446257E+04  d E =-.801097E-01  mag=     4.0000
       N       E                     dE             d eps       ncg     rms          rms(c)
DAV:   1    -0.232399279626E+04    0.99047E-01   -0.18334E+01  4432   0.297E+00    0.115E+00
RMM:   2    -0.232414695887E+04   -0.15416E+00   -0.16803E+00  6020   0.581E-01    0.710E-01
RMM:   3    -0.232415709325E+04   -0.10134E-01   -0.15400E-01  5601   0.227E-01    0.783E-01
RMM:   4    -0.232415233591E+04    0.47573E-02   -0.16019E-02  5983   0.523E-02    0.346E-01
RMM:   5    -0.232415060056E+04    0.17354E-02   -0.61289E-03  5054   0.352E-02    0.189E-01
RMM:   6    -0.232415030742E+04    0.29313E-03   -0.22568E-03  4939   0.252E-02    0.676E-02
RMM:   7    -0.232415022481E+04    0.82608E-04   -0.35513E-04  4428   0.137E-02    0.319E-02
RMM:   8    -0.232415021820E+04    0.66116E-05   -0.10535E-04  3250   0.688E-03    0.173E-02
RMM:   9    -0.232415021730E+04    0.90484E-06   -0.27156E-05  2973   0.494E-03
  12 F= -.23446849E+04 E0= -.23446849E+04  d E =-.591729E-01  mag=     4.0000
       N       E                     dE             d eps       ncg     rms          rms(c)
DAV:   1    -0.232414717868E+04    0.30395E-02   -0.50310E-01  4944   0.486E-01    0.188E-01
RMM:   2    -0.232415121716E+04   -0.40385E-02   -0.44156E-02  6085   0.973E-02    0.109E-01
RMM:   3    -0.232415150768E+04   -0.29052E-03   -0.42962E-03  4504   0.378E-02    0.111E-01
RMM:   4    -0.232415142789E+04    0.79783E-04   -0.46313E-04  3211   0.914E-03    0.592E-02
RMM:   5    -0.232415137764E+04    0.50258E-04   -0.14631E-04  3216   0.691E-03    0.330E-02
RMM:   6    -0.232415136661E+04    0.11025E-04   -0.60880E-05  3042   0.602E-03    0.976E-03
RMM:   7    -0.232415136696E+04   -0.34575E-06   -0.11735E-05  2892   0.432E-03
  13 F= -.23446862E+04 E0= -.23446862E+04  d E =-.604500E-01  mag=     4.0000
       N       E                     dE             d eps       ncg     rms          rms(c)
DAV:   1    -0.232413619886E+04    0.15168E-01   -0.63864E+00  4448   0.178E+00    0.629E-01
RMM:   2    -0.232417819000E+04   -0.41991E-01   -0.45998E-01  6142   0.338E-01    0.331E-01
RMM:   3    -0.232417941171E+04   -0.12217E-02   -0.36622E-02  5615   0.112E-01    0.248E-01
RMM:   4    -0.232417935345E+04    0.58265E-04   -0.48476E-03  5328   0.283E-02    0.223E-01
RMM:   5    -0.232417886495E+04    0.48850E-03   -0.13780E-03  4844   0.206E-02    0.130E-01
RMM:   6    -0.232417869239E+04    0.17256E-03   -0.40477E-04  4510   0.139E-02    0.370E-02
RMM:   7    -0.232417867845E+04    0.13942E-04   -0.95951E-05  3455   0.811E-03    0.184E-02
RMM:   8    -0.232417867472E+04    0.37299E-05   -0.18304E-05  2894   0.472E-03
  14 F= -.23447138E+04 E0= -.23447138E+04  d E =-.276153E-01  mag=     4.0000
       N       E                     dE             d eps       ncg     rms          rms(c)
DAV:   1    -0.232417595374E+04    0.27247E-02   -0.63244E-01  4544   0.558E-01    0.198E-01
RMM:   2    -0.232418011080E+04   -0.41571E-02   -0.45579E-02  6128   0.107E-01    0.103E-01
RMM:   3    -0.232418027783E+04   -0.16703E-03   -0.39568E-03  4766   0.384E-02    0.753E-02
RMM:   4    -0.232418027363E+04    0.42000E-05   -0.51095E-04  3309   0.979E-03    0.714E-02
RMM:   5    -0.232418022259E+04    0.51037E-04   -0.14117E-04  3280   0.767E-03    0.405E-02
RMM:   6    -0.232418020540E+04    0.17188E-04   -0.45459E-05  3009   0.619E-03    0.127E-02
RMM:   7    -0.232418020375E+04    0.16569E-05   -0.14423E-05  2905   0.424E-03
  15 F= -.23447154E+04 E0= -.23447154E+04  d E =-.292341E-01  mag=     4.0000
       N       E                     dE             d eps       ncg     rms          rms(c)
DAV:   1    -0.232417778437E+04    0.24210E-02   -0.37653E+00  4448   0.132E+00    0.440E-01
RMM:   2    -0.232420056261E+04   -0.22778E-01   -0.25173E-01  6219   0.239E-01    0.292E-01
RMM:   3    -0.232420101932E+04   -0.45671E-03   -0.18552E-02  5489   0.776E-02    0.212E-01
RMM:   4    -0.232420086224E+04    0.15707E-03   -0.25936E-03  4499   0.193E-02    0.177E-01
RMM:   5    -0.232420051565E+04    0.34659E-03   -0.79906E-04  4229   0.149E-02    0.951E-02
RMM:   6    -0.232420040937E+04    0.10628E-03   -0.37618E-04  4131   0.120E-02    0.406E-02
RMM:   7    -0.232420039873E+04    0.10641E-04   -0.83663E-05  3140   0.742E-03    0.164E-02
RMM:   8    -0.232420039630E+04    0.24323E-05   -0.18543E-05  2910   0.384E-03
  16 F= -.23447351E+04 E0= -.23447351E+04  d E =-.196998E-01  mag=     4.0000
       N       E                     dE             d eps       ncg     rms          rms(c)
DAV:   1    -0.232419645870E+04    0.39400E-02   -0.11451E+00  4512   0.727E-01    0.242E-01
RMM:   2    -0.232420351660E+04   -0.70579E-02   -0.77851E-02  6138   0.132E-01    0.159E-01
RMM:   3    -0.232420361206E+04   -0.95452E-04   -0.54703E-03  4652   0.445E-02    0.111E-01
RMM:   4    -0.232420357181E+04    0.40245E-04   -0.74358E-04  3474   0.111E-02    0.967E-02
RMM:   5    -0.232420347357E+04    0.98238E-04   -0.23813E-04  3390   0.898E-03    0.553E-02
RMM:   6    -0.232420343832E+04    0.35250E-04   -0.12290E-04  3422   0.751E-03    0.242E-02
RMM:   7    -0.232420343529E+04    0.30354E-05   -0.28398E-05  2936   0.539E-03
  17 F= -.23447379E+04 E0= -.23447379E+04  d E =-.224542E-01  mag=     4.0000
       N       E                     dE             d eps       ncg     rms          rms(c)
DAV:   1    -0.232420882633E+04   -0.53880E-02   -0.21160E+00  4440   0.112E+00    0.350E-01
RMM:   2    -0.232421628513E+04   -0.74588E-02   -0.83675E-02  5866   0.186E-01    0.171E-01
RMM:   3    -0.232421647650E+04   -0.19137E-03   -0.64624E-03  5048   0.656E-02    0.190E-01
RMM:   4    -0.232421618710E+04    0.28940E-03   -0.93159E-04  4841   0.178E-02    0.105E-01
RMM:   5    -0.232421604001E+04    0.14709E-03   -0.43341E-04  4339   0.149E-02    0.342E-02
RMM:   6    -0.232421602811E+04    0.11908E-04   -0.84422E-05  3629   0.990E-03    0.128E-02
RMM:   7    -0.232421602378E+04    0.43243E-05   -0.17615E-05  2925   0.420E-03
  18 F= -.23447505E+04 E0= -.23447505E+04  d E =-.126117E-01  mag=     4.0000
       N       E                     dE             d eps       ncg     rms          rms(c)
DAV:   1    -0.232420086043E+04    0.15168E-01   -0.60012E+00  4432   0.189E+00    0.590E-01
RMM:   2    -0.232422205254E+04   -0.21192E-01   -0.23818E-01  5814   0.311E-01    0.284E-01
RMM:   3    -0.232422249998E+04   -0.44744E-03   -0.17958E-02  5045   0.110E-01    0.308E-01
RMM:   4    -0.232422176262E+04    0.73736E-03   -0.26229E-03  5503   0.297E-02    0.185E-01
RMM:   5    -0.232422130588E+04    0.45674E-03   -0.12345E-03  4763   0.242E-02    0.584E-02
RMM:   6    -0.232422126288E+04    0.42999E-04   -0.24852E-04  4384   0.149E-02    0.223E-02
RMM:   7    -0.232422124697E+04    0.15914E-04   -0.48987E-05  3470   0.546E-03    0.145E-02
RMM:   8    -0.232422123658E+04    0.10394E-04   -0.13478E-05  2892   0.453E-03    0.739E-03
RMM:   9    -0.232422123228E+04    0.42928E-05   -0.14429E-05  2872   0.358E-03
  19 F= -.23447557E+04 E0= -.23447557E+04  d E =-.178521E-01  mag=     4.0000
       N       E                     dE             d eps       ncg     rms          rms(c)
DAV:   1    -0.232422067965E+04    0.55693E-03   -0.33481E-01  4624   0.446E-01    0.139E-01
RMM:   2    -0.232422185161E+04   -0.11720E-02   -0.13044E-02  5906   0.746E-02    0.656E-02
RMM:   3    -0.232422187763E+04   -0.26022E-04   -0.99066E-04  4209   0.269E-02    0.671E-02
RMM:   4    -0.232422184735E+04    0.30280E-04   -0.14042E-04  3074   0.756E-03    0.451E-02
RMM:   5    -0.232422182589E+04    0.21467E-04   -0.64399E-05  3283   0.647E-03    0.128E-02
RMM:   6    -0.232422182647E+04   -0.58595E-06   -0.14711E-05  2895   0.522E-03
  20 F= -.23447563E+04 E0= -.23447563E+04  d E =-.184393E-01  mag=     4.0000
       N       E                     dE             d eps       ncg     rms          rms(c)
DAV:   1    -0.232422390641E+04   -0.20805E-02   -0.22987E+00  4440   0.117E+00    0.341E-01
RMM:   2    -0.232423307964E+04   -0.91732E-02   -0.99290E-02  5952   0.191E-01    0.194E-01
RMM:   3    -0.232423337549E+04   -0.29585E-03   -0.72170E-03  5126   0.655E-02    0.219E-01
RMM:   4    -0.232423300078E+04    0.37471E-03   -0.99847E-04  4734   0.172E-02    0.107E-01
RMM:   5    -0.232423288258E+04    0.11820E-03   -0.35772E-04  4167   0.129E-02    0.420E-02
RMM:   6    -0.232423286477E+04    0.17816E-04   -0.11467E-04  3764   0.985E-03    0.126E-02
RMM:   7    -0.232423286303E+04    0.17318E-05   -0.17813E-05  2917   0.484E-03
  21 F= -.23447675E+04 E0= -.23447675E+04  d E =-.111945E-01  mag=     4.0000
       N       E                     dE             d eps       ncg     rms          rms(c)
DAV:   1    -0.232421976383E+04    0.13101E-01   -0.47130E+00  4432   0.167E+00    0.490E-01
RMM:   2    -0.232423852699E+04   -0.18763E-01   -0.20314E-01  5928   0.275E-01    0.277E-01
RMM:   3    -0.232423919506E+04   -0.66807E-03   -0.14854E-02  5196   0.917E-02    0.321E-01
RMM:   4    -0.232423840490E+04    0.79017E-03   -0.21040E-03  5393   0.246E-02    0.154E-01
RMM:   5    -0.232423816459E+04    0.24031E-03   -0.73167E-04  4440   0.176E-02    0.622E-02
RMM:   6    -0.232423812442E+04    0.40169E-04   -0.24806E-04  4309   0.132E-02    0.190E-02
RMM:   7    -0.232423811963E+04    0.47875E-05   -0.33485E-05  3118   0.563E-03
  22 F= -.23447730E+04 E0= -.23447730E+04  d E =-.166917E-01  mag=     4.0000
       N       E                     dE             d eps       ncg     rms          rms(c)
DAV:   1    -0.232423349339E+04    0.46310E-02   -0.29753E+00  4432   0.137E+00    0.405E-01
RMM:   2    -0.232424610561E+04   -0.12612E-01   -0.14057E-01  5840   0.224E-01    0.260E-01
RMM:   3    -0.232424626397E+04   -0.15836E-03   -0.10623E-02  5103   0.780E-02    0.271E-01
RMM:   4    -0.232424570380E+04    0.56018E-03   -0.14056E-03  5098   0.202E-02    0.139E-01
RMM:   5    -0.232424547030E+04    0.23350E-03   -0.71743E-04  4411   0.162E-02    0.564E-02
RMM:   6    -0.232424543043E+04    0.39866E-04   -0.20257E-04  4048   0.117E-02    0.223E-02
RMM:   7    -0.232424542610E+04    0.43272E-05   -0.34477E-05  3001   0.539E-03
  23 F= -.23447803E+04 E0= -.23447803E+04  d E =-.728029E-02  mag=     4.0000
       N       E                     dE             d eps       ncg     rms          rms(c)
DAV:   1    -0.232424533070E+04    0.99728E-04   -0.35752E-02  5080   0.150E-01    0.451E-02
RMM:   2    -0.232424548686E+04   -0.15616E-03   -0.17436E-03  5582   0.261E-02    0.306E-02
RMM:   3    -0.232424548801E+04   -0.11522E-05   -0.12557E-04  3003   0.948E-03    0.330E-02
RMM:   4    -0.232424547884E+04    0.91709E-05   -0.17939E-05  2898   0.323E-03
  24 F= -.23447803E+04 E0= -.23447803E+04  d E =-.733072E-02  mag=     4.0000
       N       E                     dE             d eps       ncg     rms          rms(c)
DAV:   1    -0.232424204784E+04    0.34402E-02   -0.14002E+00  4440   0.106E+00    0.314E-01
RMM:   2    -0.232425039920E+04   -0.83514E-02   -0.93518E-02  5931   0.190E-01    0.153E-01
RMM:   3    -0.232425066539E+04   -0.26619E-03   -0.77556E-03  5092   0.614E-02    0.107E-01
RMM:   4    -0.232425069479E+04   -0.29399E-04   -0.95776E-04  4657   0.167E-02    0.132E-01
RMM:   5    -0.232425054309E+04    0.15170E-03   -0.35983E-04  4373   0.127E-02    0.560E-02
RMM:   6    -0.232425050790E+04    0.35190E-04   -0.12020E-04  3958   0.841E-03    0.152E-02
RMM:   7    -0.232425050265E+04    0.52437E-05   -0.19429E-05  2906   0.578E-03
  25 F= -.23447858E+04 E0= -.23447858E+04  d E =-.544082E-02  mag=     4.0000
       N       E                     dE             d eps       ncg     rms          rms(c)
DAV:   1    -0.232424939953E+04    0.11084E-02   -0.23507E-01  4544   0.434E-01    0.129E-01
RMM:   2    -0.232425080287E+04   -0.14033E-02   -0.15755E-02  5904   0.778E-02    0.630E-02
RMM:   3    -0.232425084217E+04   -0.39302E-04   -0.12910E-03  4026   0.254E-02    0.436E-02
RMM:   4    -0.232425084655E+04   -0.43743E-05   -0.16102E-04  3238   0.755E-03    0.554E-02
RMM:   5    -0.232425081729E+04    0.29259E-04   -0.61751E-05  3027   0.609E-03    0.222E-02
RMM:   6    -0.232425081019E+04    0.71030E-05   -0.24017E-05  2956   0.500E-03
  26 F= -.23447862E+04 E0= -.23447862E+04  d E =-.591868E-02  mag=     4.0000
       N       E                     dE             d eps       ncg     rms          rms(c)
DAV:   1    -0.232424491623E+04    0.59011E-02   -0.95926E-01  4440   0.921E-01    0.269E-01
RMM:   2    -0.232425475700E+04   -0.98408E-02   -0.10428E-01  5982   0.174E-01    0.157E-01
RMM:   3    -0.232425548741E+04   -0.73041E-03   -0.94657E-03  5186   0.582E-02    0.183E-01
RMM:   4    -0.232425529579E+04    0.19163E-03   -0.10741E-03  3952   0.134E-02    0.809E-02
RMM:   5    -0.232425521767E+04    0.78115E-04   -0.21377E-04  3768   0.972E-03    0.431E-02
RMM:   6    -0.232425520180E+04    0.15871E-04   -0.11570E-04  3829   0.824E-03    0.225E-02
RMM:   7    -0.232425519818E+04    0.36250E-05   -0.19297E-05  2890   0.587E-03
  27 F= -.23447909E+04 E0= -.23447909E+04  d E =-.464387E-02  mag=     4.0000
       N       E                     dE             d eps       ncg     rms          rms(c)
DAV:   1    -0.232423867027E+04    0.16532E-01   -0.17236E+00  4432   0.123E+00    0.360E-01
RMM:   2    -0.232425638395E+04   -0.17714E-01   -0.18763E-01  6029   0.235E-01    0.213E-01
RMM:   3    -0.232425766179E+04   -0.12778E-02   -0.16971E-02  5434   0.765E-02    0.246E-01
RMM:   4    -0.232425731078E+04    0.35101E-03   -0.19357E-03  4691   0.177E-02    0.108E-01
RMM:   5    -0.232425716992E+04    0.14086E-03   -0.37920E-04  4358   0.124E-02    0.579E-02
RMM:   6    -0.232425713996E+04    0.29964E-04   -0.20594E-04  4232   0.102E-02    0.311E-02
RMM:   7    -0.232425713166E+04    0.83021E-05   -0.33072E-05  2921   0.708E-03
  28 F= -.23447932E+04 E0= -.23447932E+04  d E =-.691486E-02  mag=     4.0000
       N       E                     dE             d eps       ncg     rms          rms(c)
DAV:   1    -0.232425515794E+04    0.19820E-02   -0.56153E-01  4464   0.690E-01    0.190E-01
RMM:   2    -0.232426042345E+04   -0.52655E-02   -0.55231E-02  5950   0.126E-01    0.113E-01
RMM:   3    -0.232426075172E+04   -0.32826E-03   -0.47250E-03  4724   0.430E-02    0.136E-01
RMM:   4    -0.232426064961E+04    0.10211E-03   -0.56227E-04  3337   0.990E-03    0.566E-02
RMM:   5    -0.232426060268E+04    0.46929E-04   -0.12162E-04  3322   0.753E-03    0.294E-02
RMM:   6    -0.232426059582E+04    0.68632E-05   -0.59484E-05  3182   0.644E-03
  29 F= -.23447966E+04 E0= -.23447966E+04  d E =-.346545E-02  mag=     4.0000
       N       E                     dE             d eps       ncg     rms          rms(c)
DAV:   1    -0.232421588104E+04    0.44722E-01   -0.50468E+00  4432   0.207E+00    0.570E-01
RMM:   2    -0.232426348255E+04   -0.47602E-01   -0.49922E-01  5930   0.378E-01    0.346E-01
RMM:   3    -0.232426625275E+04   -0.27702E-02   -0.43003E-02  5403   0.121E-01    0.403E-01
RMM:   4    -0.232426538051E+04    0.87224E-03   -0.51466E-03  5352   0.279E-02    0.172E-01
RMM:   5    -0.232426495386E+04    0.42665E-03   -0.11485E-03  4931   0.198E-02    0.922E-02
RMM:   6    -0.232426487073E+04    0.83137E-04   -0.58060E-04  4621   0.156E-02    0.428E-02
RMM:   7    -0.232426485640E+04    0.14324E-04   -0.88667E-05  3287   0.887E-03    0.164E-02
RMM:   8    -0.232426485483E+04    0.15742E-05   -0.18399E-05  2919   0.386E-03
  30 F= -.23448009E+04 E0= -.23448009E+04  d E =-.772623E-02  mag=     4.0000
       N       E                     dE             d eps       ncg     rms          rms(c)
DAV:   1    -0.232426287749E+04    0.19789E-02   -0.58601E-01  4528   0.703E-01    0.189E-01
RMM:   2    -0.232426774232E+04   -0.48648E-02   -0.51519E-02  5930   0.126E-01    0.101E-01
RMM:   3    -0.232426810110E+04   -0.35877E-03   -0.48113E-03  4642   0.455E-02    0.119E-01
RMM:   4    -0.232426803749E+04    0.63611E-04   -0.53259E-04  3352   0.979E-03    0.537E-02
RMM:   5    -0.232426800095E+04    0.36534E-04   -0.98967E-05  3239   0.702E-03    0.287E-02
RMM:   6    -0.232426799421E+04    0.67388E-05   -0.50362E-05  3199   0.621E-03
  31 F= -.23448041E+04 E0= -.23448041E+04  d E =-.323730E-02  mag=     4.0000
       N       E                     dE             d eps       ncg     rms          rms(c)
DAV:   1    -0.232422774662E+04    0.40254E-01   -0.52663E+00  4432   0.210E+00    0.565E-01
RMM:   2    -0.232427188261E+04   -0.44136E-01   -0.46639E-01  5888   0.378E-01    0.319E-01
RMM:   3    -0.232427474740E+04   -0.28648E-02   -0.41348E-02  5417   0.124E-01    0.368E-01
RMM:   4    -0.232427410379E+04    0.64360E-03   -0.46612E-03  5383   0.274E-02    0.160E-01
RMM:   5    -0.232427379210E+04    0.31169E-03   -0.99815E-04  4786   0.187E-02    0.874E-02
RMM:   6    -0.232427373060E+04    0.61502E-04   -0.44285E-04  4609   0.146E-02    0.393E-02
RMM:   7    -0.232427371933E+04    0.11269E-04   -0.51850E-05  3118   0.775E-03    0.138E-02
RMM:   8    -0.232427371726E+04    0.20716E-05   -0.11729E-05  2883   0.359E-03
  32 F= -.23448101E+04 E0= -.23448101E+04  d E =-.925561E-02  mag=     4.0000
       N       E                     dE             d eps       ncg     rms          rms(c)
DAV:   1    -0.232408203134E+04    0.19169E+00   -0.21079E+01  4424   0.422E+00    0.113E+00
RMM:   2    -0.232426179473E+04   -0.17976E+00   -0.18927E+00  5984   0.775E-01    0.702E-01
RMM:   3    -0.232427368828E+04   -0.11894E-01   -0.17782E-01  5522   0.252E-01    0.786E-01
RMM:   4    -0.232427042700E+04    0.32613E-02   -0.19219E-02  5900   0.566E-02    0.324E-01
RMM:   5    -0.232426920345E+04    0.12236E-02   -0.42890E-03  5237   0.366E-02    0.192E-01
RMM:   6    -0.232426889485E+04    0.30860E-03   -0.21335E-03  4884   0.288E-02    0.889E-02
RMM:   7    -0.232426883134E+04    0.63509E-04   -0.27654E-04  4532   0.161E-02    0.328E-02
RMM:   8    -0.232426881803E+04    0.13303E-04   -0.62776E-05  3057   0.566E-03    0.160E-02
RMM:   9    -0.232426881376E+04    0.42757E-05   -0.16928E-05  2917   0.396E-03
  33 F= -.23448058E+04 E0= -.23448058E+04  d E =-.494211E-02  mag=     4.0000
       N       E                     dE             d eps       ncg     rms          rms(c)
DAV:   1    -0.232418459218E+04    0.84226E-01   -0.10263E+01  4432   0.296E+00    0.790E-01
RMM:   2    -0.232426929443E+04   -0.84702E-01   -0.90015E-01  5947   0.527E-01    0.393E-01
RMM:   3    -0.232427592905E+04   -0.66346E-02   -0.89845E-02  5413   0.183E-01    0.441E-01
RMM:   4    -0.232427532128E+04    0.60777E-03   -0.93484E-03  5815   0.376E-02    0.242E-01
RMM:   5    -0.232427465022E+04    0.67106E-03   -0.11734E-03  4613   0.207E-02    0.117E-01
RMM:   6    -0.232427452250E+04    0.12773E-03   -0.78518E-04  4667   0.206E-02    0.332E-02
RMM:   7    -0.232427452676E+04   -0.42612E-05   -0.92119E-05  3556   0.120E-02
  34 F= -.23448111E+04 E0= -.23448111E+04  d E =-.102438E-01  mag=     4.0000
       N       E                     dE             d eps       ncg     rms          rms(c)
DAV:   1    -0.232427257535E+04    0.19471E-02   -0.11388E+00  4432   0.977E-01    0.249E-01
RMM:   2    -0.232427885508E+04   -0.62797E-02   -0.66942E-02  5760   0.165E-01    0.118E-01
RMM:   3    -0.232427914413E+04   -0.28905E-03   -0.62898E-03  4860   0.621E-02    0.971E-02
RMM:   4    -0.232427916370E+04   -0.19573E-04   -0.69888E-04  4196   0.138E-02    0.936E-02
RMM:   5    -0.232427907280E+04    0.90907E-04   -0.22348E-04  4097   0.107E-02    0.414E-02
RMM:   6    -0.232427905236E+04    0.20438E-04   -0.72285E-05  3520   0.771E-03    0.124E-02
RMM:   7    -0.232427905044E+04    0.19174E-05   -0.13269E-05  2872   0.523E-03
  35 F= -.23448157E+04 E0= -.23448157E+04  d E =-.460953E-02  mag=     4.0000
       N       E                     dE             d eps       ncg     rms          rms(c)
DAV:   1    -0.232426943314E+04    0.96192E-02   -0.21768E+00  4432   0.135E+00    0.348E-01
RMM:   2    -0.232428152011E+04   -0.12087E-01   -0.12909E-01  5715   0.228E-01    0.161E-01
RMM:   3    -0.232428206733E+04   -0.54722E-03   -0.12002E-02  4881   0.851E-02    0.115E-01
RMM:   4    -0.232428212446E+04   -0.57128E-04   -0.13806E-03  4766   0.198E-02    0.127E-01
RMM:   5    -0.232428199533E+04    0.12913E-03   -0.39439E-04  4446   0.137E-02    0.692E-02
RMM:   6    -0.232428194732E+04    0.48014E-04   -0.13578E-04  3996   0.904E-03    0.172E-02
RMM:   7    -0.232428194391E+04    0.34045E-05   -0.21403E-05  2898   0.609E-03
  36 F= -.23448188E+04 E0= -.23448188E+04  d E =-.762622E-02  mag=     4.0000
       N       E                     dE             d eps       ncg     rms          rms(c)
DAV:   1    -0.232428070577E+04    0.12416E-02   -0.23841E-01  4656   0.447E-01    0.116E-01
RMM:   2    -0.232428203437E+04   -0.13286E-02   -0.14212E-02  5728   0.755E-02    0.537E-02
RMM:   3    -0.232428209100E+04   -0.56622E-04   -0.12820E-03  3985   0.270E-02    0.389E-02
RMM:   4    -0.232428210089E+04   -0.98931E-05   -0.15271E-04  3121   0.708E-03    0.474E-02
RMM:   5    -0.232428207905E+04    0.21838E-04   -0.43325E-05  2982   0.529E-03    0.189E-02
RMM:   6    -0.232428207495E+04    0.40961E-05   -0.16551E-05  2903   0.437E-03
  37 F= -.23448189E+04 E0= -.23448189E+04  d E =-.779916E-02  mag=     4.0000
       N       E                     dE             d eps       ncg     rms          rms(c)
DAV:   1    -0.232427914852E+04    0.29305E-02   -0.21688E+00  4432   0.127E+00    0.301E-01
RMM:   2    -0.232428796563E+04   -0.88171E-02   -0.92009E-02  5493   0.196E-01    0.190E-01
RMM:   3    -0.232428820608E+04   -0.24046E-03   -0.71803E-03  4815   0.721E-02    0.188E-01
RMM:   4    -0.232428793999E+04    0.26609E-03   -0.86344E-04  5032   0.167E-02    0.103E-01
RMM:   5    -0.232428783784E+04    0.10215E-03   -0.38467E-04  4140   0.133E-02    0.424E-02
RMM:   6    -0.232428782887E+04    0.89714E-05   -0.10882E-04  3519   0.924E-03    0.156E-02
RMM:   7    -0.232428782962E+04   -0.75597E-06   -0.15776E-05  2911   0.490E-03
  38 F= -.23448244E+04 E0= -.23448244E+04  d E =-.552251E-02  mag=     4.0000
       N       E                     dE             d eps       ncg     rms          rms(c)
DAV:   1    -0.232427699956E+04    0.10829E-01   -0.33709E+00  4432   0.158E+00    0.378E-01
RMM:   2    -0.232429077178E+04   -0.13772E-01   -0.14371E-01  5511   0.245E-01    0.240E-01
RMM:   3    -0.232429117246E+04   -0.40068E-03   -0.11311E-02  4883   0.918E-02    0.241E-01
RMM:   4    -0.232429072620E+04    0.44627E-03   -0.13513E-03  5381   0.210E-02    0.128E-01
RMM:   5    -0.232429057212E+04    0.15408E-03   -0.59644E-04  4392   0.163E-02    0.530E-02
RMM:   6    -0.232429055829E+04    0.13831E-04   -0.17093E-04  3912   0.112E-02    0.194E-02
RMM:   7    -0.232429055926E+04   -0.97146E-06   -0.23405E-05  2935   0.526E-03
  39 F= -.23448269E+04 E0= -.23448269E+04  d E =-.797642E-02  mag=     4.0000
       N       E                     dE             d eps       ncg     rms          rms(c)
DAV:   1    -0.232428934217E+04    0.12161E-02   -0.16501E+00  4432   0.111E+00    0.280E-01
RMM:   2    -0.232429598558E+04   -0.66434E-02   -0.70069E-02  5549   0.173E-01    0.171E-01
RMM:   3    -0.232429622047E+04   -0.23488E-03   -0.52833E-03  4854   0.611E-02    0.187E-01
RMM:   4    -0.232429594268E+04    0.27779E-03   -0.64997E-04  4656   0.148E-02    0.820E-02
RMM:   5    -0.232429586952E+04    0.73160E-04   -0.25808E-04  4073   0.117E-02    0.347E-02
RMM:   6    -0.232429586633E+04    0.31844E-05   -0.75846E-05  3311   0.842E-03
  40 F= -.23448321E+04 E0= -.23448321E+04  d E =-.523541E-02  mag=     4.0000
       N       E                     dE             d eps       ncg     rms          rms(c)
DAV:   1    -0.232424385003E+04    0.52019E-01   -0.14837E+01  4432   0.332E+00    0.838E-01
RMM:   2    -0.232430374938E+04   -0.59899E-01   -0.63221E-01  5553   0.520E-01    0.522E-01
RMM:   3    -0.232430578878E+04   -0.20394E-02   -0.48560E-02  5024   0.181E-01    0.568E-01
RMM:   4    -0.232430321380E+04    0.25750E-02   -0.58238E-03  5926   0.438E-02    0.248E-01
RMM:   5    -0.232430254705E+04    0.66675E-03   -0.23097E-03  4698   0.321E-02    0.110E-01
RMM:   6    -0.232430249878E+04    0.48270E-04   -0.75719E-04  4722   0.224E-02    0.425E-02
RMM:   7    -0.232430248430E+04    0.14480E-04   -0.87118E-05  3632   0.818E-03    0.221E-02
RMM:   8    -0.232430247361E+04    0.10687E-04   -0.17463E-05  2917   0.484E-03    0.125E-02
RMM:   9    -0.232430246779E+04    0.58238E-05   -0.14624E-05  2881   0.360E-03
  41 F= -.23448386E+04 E0= -.23448386E+04  d E =-.116694E-01  mag=     4.0000
       N       E                     dE             d eps       ncg     rms          rms(c)
DAV:   1    -0.232429854495E+04    0.39287E-02   -0.19861E+00  4480   0.120E+00    0.328E-01
RMM:   2    -0.232430663614E+04   -0.80912E-02   -0.88225E-02  5592   0.191E-01    0.169E-01
RMM:   3    -0.232430672039E+04   -0.84250E-04   -0.55478E-03  4869   0.686E-02    0.180E-01
RMM:   4    -0.232430650135E+04    0.21904E-03   -0.73730E-04  4831   0.163E-02    0.103E-01
RMM:   5    -0.232430637572E+04    0.12563E-03   -0.39325E-04  4359   0.143E-02    0.382E-02
RMM:   6    -0.232430637189E+04    0.38342E-05   -0.81533E-05  3396   0.923E-03
  42 F= -.23448424E+04 E0= -.23448424E+04  d E =-.385023E-02  mag=     4.0000
       N       E                     dE             d eps       ncg     rms          rms(c)
DAV:   1    -0.232430144252E+04    0.49332E-02   -0.14005E+00  4448   0.101E+00    0.278E-01
RMM:   2    -0.232430717281E+04   -0.57303E-02   -0.62806E-02  5618   0.161E-01    0.137E-01
RMM:   3    -0.232430720668E+04   -0.33869E-04   -0.38779E-03  4866   0.569E-02    0.133E-01
RMM:   4    -0.232430711072E+04    0.95962E-04   -0.51301E-04  4415   0.137E-02    0.925E-02
RMM:   5    -0.232430701493E+04    0.95790E-04   -0.28184E-04  4187   0.122E-02    0.346E-02
RMM:   6    -0.232430700846E+04    0.64698E-05   -0.60807E-05  3159   0.804E-03
  43 F= -.23448430E+04 E0= -.23448430E+04  d E =-.444611E-02  mag=     4.0000
       N       E                     dE             d eps       ncg     rms          rms(c)
DAV:   1    -0.232430529104E+04    0.17239E-02   -0.88084E-01  4512   0.791E-01    0.210E-01
RMM:   2    -0.232430884945E+04   -0.35584E-02   -0.38497E-02  5652   0.127E-01    0.109E-01
RMM:   3    -0.232430885732E+04   -0.78715E-05   -0.28925E-03  4710   0.514E-02    0.790E-02
RMM:   4    -0.232430887736E+04   -0.20038E-04   -0.44604E-04  4094   0.123E-02    0.935E-02
RMM:   5    -0.232430881017E+04    0.67189E-04   -0.19044E-04  3532   0.971E-03    0.407E-02
RMM:   6    -0.232430879466E+04    0.15505E-04   -0.44000E-05  2983   0.620E-03    0.127E-02
RMM:   7    -0.232430879388E+04    0.77838E-06   -0.12028E-05  2884   0.414E-03
  44 F= -.23448447E+04 E0= -.23448447E+04  d E =-.164242E-02  mag=     4.0000
       N       E                     dE             d eps       ncg     rms          rms(c)
DAV:   1    -0.232430859985E+04    0.19481E-03   -0.61681E-02  4704   0.209E-01    0.556E-02
RMM:   2    -0.232430885239E+04   -0.25254E-03   -0.27244E-03  5704   0.342E-02    0.291E-02
RMM:   3    -0.232430885246E+04   -0.66386E-07   -0.19735E-04  3182   0.137E-02    0.192E-02
RMM:   4    -0.232430884980E+04    0.26538E-05   -0.32578E-05  2967   0.413E-03
  45 F= -.23448447E+04 E0= -.23448447E+04  d E =-.166075E-02  mag=     4.0000
       N       E                     dE             d eps       ncg     rms          rms(c)
DAV:   1    -0.232430814234E+04    0.71012E-03   -0.49287E-01  4440   0.642E-01    0.186E-01
RMM:   2    -0.232431084583E+04   -0.27035E-02   -0.29002E-02  5816   0.109E-01    0.997E-02
RMM:   3    -0.232431098086E+04   -0.13503E-03   -0.24236E-03  4682   0.378E-02    0.122E-01
RMM:   4    -0.232431088046E+04    0.10040E-03   -0.31157E-04  3532   0.963E-03    0.523E-02
RMM:   5    -0.232431084929E+04    0.31166E-04   -0.12633E-04  3898   0.869E-03    0.211E-02
RMM:   6    -0.232431084620E+04    0.30971E-05   -0.27343E-05  2933   0.616E-03
  46 F= -.23448467E+04 E0= -.23448467E+04  d E =-.206948E-02  mag=     4.0000
       N       E                     dE             d eps       ncg     rms          rms(c)
DAV:   1    -0.232430634383E+04    0.45055E-02   -0.93730E-01  4432   0.885E-01    0.256E-01
RMM:   2    -0.232431150573E+04   -0.51619E-02   -0.55253E-02  5787   0.152E-01    0.142E-01
RMM:   3    -0.232431178928E+04   -0.28356E-03   -0.46634E-03  5021   0.533E-02    0.178E-01
RMM:   4    -0.232431156618E+04    0.22310E-03   -0.60027E-04  4261   0.132E-02    0.703E-02
RMM:   5    -0.232431150745E+04    0.58731E-04   -0.24481E-04  4343   0.116E-02    0.292E-02
RMM:   6    -0.232431149915E+04    0.83030E-05   -0.50682E-05  3173   0.741E-03
  47 F= -.23448475E+04 E0= -.23448475E+04  d E =-.282262E-02  mag=     4.0000
       N       E                     dE             d eps       ncg     rms          rms(c)
DAV:   1    -0.232431004117E+04    0.14663E-02   -0.48765E-01  4448   0.619E-01    0.175E-01
RMM:   2    -0.232431306920E+04   -0.30280E-02   -0.32366E-02  6036   0.109E-01    0.111E-01
RMM:   3    -0.232431328058E+04   -0.21139E-03   -0.30780E-03  4724   0.379E-02    0.126E-01
RMM:   4    -0.232431316815E+04    0.11243E-03   -0.33509E-04  3198   0.927E-03    0.507E-02
RMM:   5    -0.232431314307E+04    0.25077E-04   -0.11749E-04  3300   0.752E-03    0.238E-02
RMM:   6    -0.232431314047E+04    0.26071E-05   -0.34529E-05  2982   0.582E-03
  48 F= -.23448492E+04 E0= -.23448492E+04  d E =-.170076E-02  mag=     4.0000
       N       E                     dE             d eps       ncg     rms          rms(c)
DAV:   1    -0.232430306728E+04    0.10076E-01   -0.17538E+00  4432   0.117E+00    0.329E-01
RMM:   2    -0.232431402644E+04   -0.10959E-01   -0.11693E-01  5930   0.205E-01    0.213E-01
RMM:   3    -0.232431464249E+04   -0.61605E-03   -0.97691E-03  5248   0.680E-02    0.245E-01
RMM:   4    -0.232431420354E+04    0.43895E-03   -0.11450E-03  4559   0.163E-02    0.941E-02
RMM:   5    -0.232431411030E+04    0.93241E-04   -0.41217E-04  4397   0.131E-02    0.421E-02
RMM:   6    -0.232431410659E+04    0.37068E-05   -0.99595E-05  3383   0.887E-03
  49 F= -.23448503E+04 E0= -.23448503E+04  d E =-.277925E-02  mag=     4.0000
       N       E                     dE             d eps       ncg     rms          rms(c)
DAV:   1    -0.232431310997E+04    0.10003E-02   -0.54088E-01  4432   0.652E-01    0.188E-01
RMM:   2    -0.232431613545E+04   -0.30255E-02   -0.32483E-02  5936   0.113E-01    0.117E-01
RMM:   3    -0.232431625927E+04   -0.12381E-03   -0.26072E-03  4772   0.415E-02    0.139E-01
RMM:   4    -0.232431611194E+04    0.14733E-03   -0.32335E-04  3300   0.982E-03    0.547E-02
RMM:   5    -0.232431607978E+04    0.32156E-04   -0.14957E-04  3769   0.854E-03    0.225E-02
RMM:   6    -0.232431607801E+04    0.17761E-05   -0.32257E-05  2967   0.624E-03
  50 F= -.23448522E+04 E0= -.23448522E+04  d E =-.187498E-02  mag=     4.0000
       N       E                     dE             d eps       ncg     rms          rms(c)
DAV:   1    -0.232431208788E+04    0.39919E-02   -0.90039E-01  4432   0.841E-01    0.240E-01
RMM:   2    -0.232431710588E+04   -0.50180E-02   -0.53841E-02  5811   0.145E-01    0.151E-01
RMM:   3    -0.232431728695E+04   -0.18107E-03   -0.42110E-03  4871   0.529E-02    0.176E-01
RMM:   4    -0.232431705345E+04    0.23350E-03   -0.53301E-04  3849   0.121E-02    0.702E-02
RMM:   5    -0.232431699663E+04    0.56820E-04   -0.24868E-04  4180   0.107E-02    0.283E-02
RMM:   6    -0.232431699298E+04    0.36501E-05   -0.52827E-05  3051   0.732E-03
  51 F= -.23448529E+04 E0= -.23448529E+04  d E =-.266534E-02  mag=     4.0000
       N       E                     dE             d eps       ncg     rms          rms(c)
DAV:   1    -0.232431728118E+04   -0.28455E-03   -0.23183E-01  4512   0.448E-01    0.126E-01
RMM:   2    -0.232431843393E+04   -0.11527E-02   -0.12172E-02  5909   0.770E-02    0.920E-02
RMM:   3    -0.232431846227E+04   -0.28350E-04   -0.10053E-03  4195   0.280E-02    0.989E-02
RMM:   4    -0.232431838234E+04    0.79939E-04   -0.12945E-04  3087   0.776E-03    0.350E-02
RMM:   5    -0.232431837102E+04    0.11313E-04   -0.68741E-05  3341   0.671E-03    0.146E-02
RMM:   6    -0.232431837035E+04    0.67570E-06   -0.14464E-05  2920   0.514E-03
  52 F= -.23448544E+04 E0= -.23448544E+04  d E =-.143379E-02  mag=     4.0000
       N       E                     dE             d eps       ncg     rms          rms(c)
DAV:   1    -0.232431185884E+04    0.65122E-02   -0.16867E+00  4432   0.121E+00    0.336E-01
RMM:   2    -0.232432020182E+04   -0.83430E-02   -0.88131E-02  5735   0.205E-01    0.244E-01
RMM:   3    -0.232432036868E+04   -0.16687E-03   -0.69722E-03  5043   0.694E-02    0.263E-01
RMM:   4    -0.232431979640E+04    0.57228E-03   -0.96021E-04  4947   0.182E-02    0.949E-02
RMM:   5    -0.232431970024E+04    0.96156E-04   -0.48667E-04  4923   0.157E-02    0.380E-02
RMM:   6    -0.232431969119E+04    0.90547E-05   -0.92106E-05  3789   0.911E-03
  53 F= -.23448558E+04 E0= -.23448558E+04  d E =-.290508E-02  mag=     4.0000
       N       E                     dE             d eps       ncg     rms          rms(c)
DAV:   1    -0.232431985056E+04   -0.15031E-03   -0.21689E-01  4544   0.427E-01    0.112E-01
RMM:   2    -0.232432094222E+04   -0.10917E-02   -0.11273E-02  6035   0.729E-02    0.986E-02
RMM:   3    -0.232432095041E+04   -0.81855E-05   -0.87986E-04  3987   0.243E-02    0.842E-02
RMM:   4    -0.232432089451E+04    0.55899E-04   -0.11033E-04  3068   0.716E-03    0.338E-02
RMM:   5    -0.232432088462E+04    0.98860E-05   -0.56307E-05  3098   0.604E-03
  54 F= -.23448572E+04 E0= -.23448572E+04  d E =-.133572E-02  mag=     4.0000
       N       E                     dE             d eps       ncg     rms          rms(c)
DAV:   1    -0.232431328379E+04    0.76107E-02   -0.18752E+00  4432   0.126E+00    0.321E-01
RMM:   2    -0.232432257064E+04   -0.92868E-02   -0.96735E-02  5957   0.212E-01    0.269E-01
RMM:   3    -0.232432268274E+04   -0.11210E-03   -0.70336E-03  5299   0.648E-02    0.245E-01
RMM:   4    -0.232432222120E+04    0.46155E-03   -0.93406E-04  4859   0.174E-02    0.100E-01
RMM:   5    -0.232432212111E+04    0.10009E-03   -0.47050E-04  4577   0.151E-02    0.417E-02
RMM:   6    -0.232432211958E+04    0.15265E-05   -0.96825E-05  3493   0.964E-03
  55 F= -.23448588E+04 E0= -.23448588E+04  d E =-.298829E-02  mag=     4.0000
       N       E                     dE             d eps       ncg     rms          rms(c)
DAV:   1    -0.232432228757E+04   -0.16646E-03   -0.40048E-01  4472   0.577E-01    0.157E-01
RMM:   2    -0.232432400195E+04   -0.17144E-02   -0.18268E-02  5773   0.945E-02    0.113E-01
RMM:   3    -0.232432403621E+04   -0.34262E-04   -0.15670E-03  4516   0.385E-02    0.115E-01
RMM:   4    -0.232432393217E+04    0.10404E-03   -0.19116E-04  3329   0.899E-03    0.467E-02
RMM:   5    -0.232432391241E+04    0.19753E-04   -0.10449E-04  3616   0.793E-03    0.185E-02
RMM:   6    -0.232432391069E+04    0.17245E-05   -0.23297E-05  2941   0.580E-03
  56 F= -.23448607E+04 E0= -.23448607E+04  d E =-.181863E-02  mag=     4.0000
       N       E                     dE             d eps       ncg     rms          rms(c)
DAV:   1    -0.232431586966E+04    0.80428E-02   -0.24137E+00  4432   0.142E+00    0.378E-01
RMM:   2    -0.232432622160E+04   -0.10352E-01   -0.11025E-01  5559   0.230E-01    0.282E-01
RMM:   3    -0.232432629262E+04   -0.71018E-04   -0.86305E-03  4884   0.886E-02    0.288E-01
RMM:   4    -0.232432563860E+04    0.65402E-03   -0.11361E-03  5154   0.206E-02    0.113E-01
RMM:   5    -0.232432550554E+04    0.13306E-03   -0.61100E-04  4926   0.175E-02    0.459E-02
RMM:   6    -0.232432549687E+04    0.86745E-05   -0.12868E-04  4209   0.103E-02    0.229E-02
RMM:   7    -0.232432549116E+04    0.57071E-05   -0.21180E-05  2932   0.451E-03
  57 F= -.23448623E+04 E0= -.23448623E+04  d E =-.346621E-02  mag=     4.0000
       N       E                     dE             d eps       ncg     rms          rms(c)
DAV:   1    -0.232432489452E+04    0.60235E-03   -0.76765E-01  4480   0.775E-01    0.199E-01
RMM:   2    -0.232432784443E+04   -0.29499E-02   -0.31345E-02  5558   0.122E-01    0.143E-01
RMM:   3    -0.232432786189E+04   -0.17456E-04   -0.23390E-03  4696   0.480E-02    0.147E-01
RMM:   4    -0.232432770238E+04    0.15950E-03   -0.32235E-04  3848   0.109E-02    0.635E-02
RMM:   5    -0.232432766942E+04    0.32967E-04   -0.16162E-04  3890   0.954E-03    0.232E-02
RMM:   6    -0.232432767036E+04   -0.94116E-06   -0.33935E-05  2990   0.655E-03
  58 F= -.23448645E+04 E0= -.23448645E+04  d E =-.216277E-02  mag=     4.0000
       N       E                     dE             d eps       ncg     rms          rms(c)
DAV:   1    -0.232430549547E+04    0.22174E-01   -0.68901E+00  4432   0.232E+00    0.593E-01
RMM:   2    -0.232433178961E+04   -0.26294E-01   -0.27909E-01  5465   0.365E-01    0.435E-01
RMM:   3    -0.232433192849E+04   -0.13887E-03   -0.20908E-02  4907   0.134E-01    0.451E-01
RMM:   4    -0.232433040105E+04    0.15274E-02   -0.28600E-03  5473   0.316E-02    0.190E-01
RMM:   5    -0.232433010460E+04    0.29645E-03   -0.15194E-03  4925   0.264E-02    0.701E-02
RMM:   6    -0.232433010541E+04   -0.81011E-06   -0.30631E-04  4493   0.160E-02    0.341E-02
RMM:   7    -0.232433009848E+04    0.69292E-05   -0.42073E-05  3047   0.532E-03
  59 F= -.23448668E+04 E0= -.23448668E+04  d E =-.454666E-02  mag=     4.0000
       N       E                     dE             d eps       ncg     rms          rms(c)
DAV:   1    -0.232432882627E+04    0.12791E-02   -0.10262E+00  4528   0.894E-01    0.229E-01
RMM:   2    -0.232433266476E+04   -0.38385E-02   -0.40730E-02  5660   0.141E-01    0.161E-01
RMM:   3    -0.232433274696E+04   -0.82206E-04   -0.28265E-03  4854   0.498E-02    0.175E-01
RMM:   4    -0.232433251443E+04    0.23253E-03   -0.41754E-04  4239   0.123E-02    0.733E-02
RMM:   5    -0.232433246871E+04    0.45721E-04   -0.21844E-04  4057   0.109E-02    0.254E-02
RMM:   6    -0.232433247088E+04   -0.21672E-05   -0.42170E-05  2997   0.724E-03
  60 F= -.23448693E+04 E0= -.23448693E+04  d E =-.241208E-02  mag=     4.0000
       N       E                     dE             d eps       ncg     rms          rms(c)
DAV:   1    -0.232432255288E+04    0.99158E-02   -0.30908E+00  4464   0.155E+00    0.394E-01
RMM:   2    -0.232433397602E+04   -0.11423E-01   -0.12144E-01  5544   0.243E-01    0.279E-01
RMM:   3    -0.232433418992E+04   -0.21390E-03   -0.84995E-03  4995   0.834E-02    0.301E-01
RMM:   4    -0.232433351716E+04    0.67276E-03   -0.12357E-03  5196   0.209E-02    0.128E-01
RMM:   5    -0.232433338263E+04    0.13453E-03   -0.67861E-04  4690   0.180E-02    0.470E-02
RMM:   6    -0.232433338234E+04    0.29345E-06   -0.13145E-04  3665   0.110E-02    0.246E-02
RMM:   7    -0.232433337735E+04    0.49867E-05   -0.18746E-05  2925   0.425E-03
  61 F= -.23448702E+04 E0= -.23448702E+04  d E =-.339199E-02  mag=     4.0000
       N       E                     dE             d eps       ncg     rms          rms(c)
DAV:   1    -0.232433048599E+04    0.28964E-02   -0.15372E+00  4464   0.110E+00    0.284E-01
RMM:   2    -0.232433607275E+04   -0.55868E-02   -0.60128E-02  5449   0.170E-01    0.179E-01
RMM:   3    -0.232433612996E+04   -0.57210E-04   -0.42036E-03  4846   0.679E-02    0.196E-01
RMM:   4    -0.232433587792E+04    0.25204E-03   -0.62973E-04  4801   0.152E-02    0.985E-02
RMM:   5    -0.232433580058E+04    0.77336E-04   -0.35547E-04  4443   0.136E-02    0.319E-02
RMM:   6    -0.232433579954E+04    0.10480E-05   -0.61833E-05  3082   0.837E-03
  62 F= -.23448725E+04 E0= -.23448725E+04  d E =-.225790E-02  mag=     4.0000
       N       E                     dE             d eps       ncg     rms          rms(c)
DAV:   1    -0.232432314850E+04    0.12652E-01   -0.39271E+00  4464   0.176E+00    0.453E-01
RMM:   2    -0.232433731456E+04   -0.14166E-01   -0.15280E-01  5415   0.272E-01    0.285E-01
RMM:   3    -0.232433750770E+04   -0.19315E-03   -0.10843E-02  4926   0.101E-01    0.314E-01
RMM:   4    -0.232433685401E+04    0.65369E-03   -0.16069E-03  5375   0.237E-02    0.158E-01
RMM:   5    -0.232433666089E+04    0.19313E-03   -0.92431E-04  4846   0.207E-02    0.519E-02
RMM:   6    -0.232433665357E+04    0.73171E-05   -0.16597E-04  4076   0.125E-02    0.243E-02
RMM:   7    -0.232433664903E+04    0.45388E-05   -0.27421E-05  2973   0.433E-03
  63 F= -.23448731E+04 E0= -.23448731E+04  d E =-.284898E-02  mag=     4.0000
       N       E                     dE             d eps       ncg     rms          rms(c)
DAV:   1    -0.232433564910E+04    0.10045E-02   -0.33603E-01  4528   0.514E-01    0.131E-01
RMM:   2    -0.232433683011E+04   -0.11810E-02   -0.12794E-02  5488   0.791E-02    0.796E-02
RMM:   3    -0.232433683980E+04   -0.96908E-05   -0.96737E-04  4285   0.336E-02    0.790E-02
RMM:   4    -0.232433680486E+04    0.34938E-04   -0.13328E-04  3159   0.756E-03    0.489E-02
RMM:   5    -0.232433678643E+04    0.18431E-04   -0.85545E-05  3262   0.705E-03    0.171E-02
RMM:   6    -0.232433678609E+04    0.33420E-06   -0.14704E-05  2921   0.494E-03
  64 F= -.23448733E+04 E0= -.23448733E+04  d E =-.306109E-02  mag=     4.0000
       N       E                     dE             d eps       ncg     rms          rms(c)
DAV:   1    -0.232433719573E+04   -0.40930E-03   -0.62270E-01  4496   0.665E-01    0.202E-01
RMM:   2    -0.232433946403E+04   -0.22683E-02   -0.25398E-02  5685   0.109E-01    0.104E-01
RMM:   3    -0.232433945261E+04    0.11422E-04   -0.20091E-03  4685   0.434E-02    0.774E-02
RMM:   4    -0.232433945010E+04    0.25124E-05   -0.29764E-04  3942   0.106E-02    0.843E-02
RMM:   5    -0.232433940461E+04    0.45490E-04   -0.19584E-04  3585   0.998E-03    0.370E-02
RMM:   6    -0.232433939103E+04    0.13579E-04   -0.34650E-05  2977   0.589E-03    0.142E-02
RMM:   7    -0.232433938986E+04    0.11699E-05   -0.88268E-06  2869   0.368E-03
  65 F= -.23448758E+04 E0= -.23448758E+04  d E =-.244859E-02  mag=     4.0000
       N       E                     dE             d eps       ncg     rms          rms(c)
DAV:   1    -0.232433841091E+04    0.98012E-03   -0.48698E-01  4496   0.588E-01    0.180E-01
RMM:   2    -0.232434019539E+04   -0.17845E-02   -0.19956E-02  5591   0.964E-02    0.926E-02
RMM:   3    -0.232434019019E+04    0.51945E-05   -0.15947E-03  4590   0.382E-02    0.709E-02
RMM:   4    -0.232434018881E+04    0.13844E-05   -0.23573E-04  3654   0.937E-03    0.758E-02
RMM:   5    -0.232434015000E+04    0.38804E-04   -0.15787E-04  3457   0.876E-03    0.307E-02
RMM:   6    -0.232434014059E+04    0.94118E-05   -0.27470E-05  2947   0.563E-03
  66 F= -.23448764E+04 E0= -.23448764E+04  d E =-.306238E-02  mag=     4.0000
       N       E                     dE             d eps       ncg     rms          rms(c)
DAV:   1    -0.232433929973E+04    0.85027E-03   -0.67789E-01  4440   0.678E-01    0.200E-01
RMM:   2    -0.232434230772E+04   -0.30080E-02   -0.32601E-02  5905   0.116E-01    0.109E-01
RMM:   3    -0.232434236799E+04   -0.60269E-04   -0.24762E-03  4774   0.383E-02    0.887E-02
RMM:   4    -0.232434235897E+04    0.90215E-05   -0.34446E-04  3445   0.100E-02    0.889E-02
RMM:   5    -0.232434230146E+04    0.57508E-04   -0.22502E-04  3746   0.972E-03    0.328E-02
RMM:   6    -0.232434229340E+04    0.80574E-05   -0.40553E-05  2993   0.623E-03
  67 F= -.23448786E+04 E0= -.23448786E+04  d E =-.219763E-02  mag=     4.0000
       N       E                     dE             d eps       ncg     rms          rms(c)
DAV:   1    -0.232434096808E+04    0.13334E-02   -0.38392E-01  4496   0.510E-01    0.151E-01
RMM:   2    -0.232434269405E+04   -0.17260E-02   -0.18680E-02  5846   0.873E-02    0.822E-02
RMM:   3    -0.232434272644E+04   -0.32390E-04   -0.14492E-03  4333   0.311E-02    0.659E-02
RMM:   4    -0.232434272256E+04    0.38821E-05   -0.19913E-04  3147   0.817E-03    0.672E-02
RMM:   5    -0.232434269036E+04    0.32195E-04   -0.12795E-04  3288   0.761E-03    0.262E-02
RMM:   6    -0.232434268477E+04    0.55909E-05   -0.25412E-05  2938   0.530E-03
  68 F= -.23448790E+04 E0= -.23448790E+04  d E =-.262250E-02  mag=     4.0000
       N       E                     dE             d eps       ncg     rms          rms(c)
DAV:   1    -0.232434184072E+04    0.84964E-03   -0.64435E-01  4440   0.717E-01    0.213E-01
RMM:   2    -0.232434498443E+04   -0.31437E-02   -0.33874E-02  5742   0.121E-01    0.111E-01
RMM:   3    -0.232434508518E+04   -0.10074E-03   -0.29346E-03  4861   0.449E-02    0.918E-02
RMM:   4    -0.232434506759E+04    0.17584E-04   -0.37301E-04  3901   0.108E-02    0.839E-02
RMM:   5    -0.232434502132E+04    0.46275E-04   -0.21426E-04  3824   0.102E-02    0.371E-02
RMM:   6    -0.232434500772E+04    0.13594E-04   -0.47522E-05  3021   0.642E-03    0.148E-02
RMM:   7    -0.232434500553E+04    0.21896E-05   -0.11692E-05  2872   0.448E-03
  69 F= -.23448813E+04 E0= -.23448813E+04  d E =-.227725E-02  mag=     4.0000
       N       E                     dE             d eps       ncg     rms          rms(c)
DAV:   1    -0.232433696150E+04    0.80462E-02   -0.16426E+00  4432   0.115E+00    0.339E-01
RMM:   2    -0.232434499955E+04   -0.80380E-02   -0.86536E-02  5799   0.194E-01    0.180E-01
RMM:   3    -0.232434523102E+04   -0.23147E-03   -0.69703E-03  5141   0.668E-02    0.159E-01
RMM:   4    -0.232434514318E+04    0.87847E-04   -0.92128E-04  4860   0.167E-02    0.129E-01
RMM:   5    -0.232434501862E+04    0.12455E-03   -0.53478E-04  4899   0.153E-02    0.556E-02
RMM:   6    -0.232434498973E+04    0.28894E-04   -0.11029E-04  3802   0.849E-03    0.234E-02
RMM:   7    -0.232434498270E+04    0.70287E-05   -0.22218E-05  2907   0.531E-03
  70 F= -.23448812E+04 E0= -.23448812E+04  d E =-.218459E-02  mag=     4.0000
       N       E                     dE             d eps       ncg     rms          rms(c)
DAV:   1    -0.232434354165E+04    0.14481E-02   -0.41725E-01  4480   0.578E-01    0.170E-01
RMM:   2    -0.232434555567E+04   -0.20140E-02   -0.21705E-02  5879   0.978E-02    0.887E-02
RMM:   3    -0.232434561438E+04   -0.58707E-04   -0.17862E-03  4614   0.333E-02    0.705E-02
RMM:   4    -0.232434560639E+04    0.79938E-05   -0.23378E-04  3394   0.892E-03    0.690E-02
RMM:   5    -0.232434557225E+04    0.34138E-04   -0.13728E-04  3497   0.843E-03    0.264E-02
RMM:   6    -0.232434556709E+04    0.51599E-05   -0.25222E-05  2919   0.576E-03
  71 F= -.23448818E+04 E0= -.23448818E+04  d E =-.280424E-02  mag=     4.0000
       N       E                     dE             d eps       ncg     rms          rms(c)
DAV:   1    -0.232434464045E+04    0.93179E-03   -0.72235E-01  4432   0.743E-01    0.215E-01
RMM:   2    -0.232434826058E+04   -0.36201E-02   -0.38818E-02  5859   0.126E-01    0.132E-01
RMM:   3    -0.232434837849E+04   -0.11791E-03   -0.29849E-03  4876   0.459E-02    0.134E-01
RMM:   4    -0.232434826160E+04    0.11689E-03   -0.39580E-04  3765   0.112E-02    0.752E-02
RMM:   5    -0.232434821304E+04    0.48556E-04   -0.22850E-04  4116   0.105E-02    0.273E-02
RMM:   6    -0.232434821011E+04    0.29312E-05   -0.43294E-05  3001   0.677E-03
  72 F= -.23448843E+04 E0= -.23448843E+04  d E =-.248267E-02  mag=     4.0000
       N       E                     dE             d eps       ncg     rms          rms(c)
DAV:   1    -0.232434472203E+04    0.34910E-02   -0.87300E-01  4448   0.815E-01    0.238E-01
RMM:   2    -0.232434907306E+04   -0.43510E-02   -0.46662E-02  5788   0.139E-01    0.146E-01
RMM:   3    -0.232434927866E+04   -0.20560E-03   -0.42040E-03  4937   0.523E-02    0.150E-01
RMM:   4    -0.232434913770E+04    0.14096E-03   -0.50385E-04  4014   0.123E-02    0.832E-02
RMM:   5    -0.232434908741E+04    0.50291E-04   -0.27912E-04  4238   0.114E-02    0.337E-02
RMM:   6    -0.232434908170E+04    0.57037E-05   -0.62160E-05  3098   0.694E-03
  73 F= -.23448850E+04 E0= -.23448850E+04  d E =-.317910E-02  mag=     4.0000
       N       E                     dE             d eps       ncg     rms          rms(c)
DAV:   1    -0.232434950408E+04   -0.41668E-03   -0.23040E-01  4568   0.411E-01    0.119E-01
RMM:   2    -0.232435067628E+04   -0.11722E-02   -0.12392E-02  6101   0.712E-02    0.805E-02
RMM:   3    -0.232435075134E+04   -0.75063E-04   -0.10829E-03  3826   0.237E-02    0.846E-02
RMM:   4    -0.232435070153E+04    0.49812E-04   -0.12540E-04  3045   0.717E-03    0.377E-02
RMM:   5    -0.232435069383E+04    0.76962E-05   -0.61989E-05  3069   0.581E-03
  74 F= -.23448866E+04 E0= -.23448866E+04  d E =-.159190E-02  mag=     4.0000
       N       E                     dE             d eps       ncg     rms          rms(c)
DAV:   1    -0.232434352488E+04    0.71767E-02   -0.20706E+00  4432   0.123E+00    0.350E-01
RMM:   2    -0.232435391320E+04   -0.10388E-01   -0.11040E-01  5955   0.209E-01    0.225E-01
RMM:   3    -0.232435449812E+04   -0.58492E-03   -0.88367E-03  5256   0.680E-02    0.238E-01
RMM:   4    -0.232435412111E+04    0.37702E-03   -0.10936E-03  4850   0.174E-02    0.115E-01
RMM:   5    -0.232435404132E+04    0.79791E-04   -0.53206E-04  4464   0.150E-02    0.466E-02
RMM:   6    -0.232435404149E+04   -0.17305E-06   -0.12170E-04  3445   0.923E-03    0.218E-02
RMM:   7    -0.232435403872E+04    0.27713E-05   -0.17748E-05  2904   0.477E-03
  75 F= -.23448899E+04 E0= -.23448899E+04  d E =-.487882E-02  mag=     4.0000
       N       E                     dE             d eps       ncg     rms          rms(c)
DAV:   1    -0.232431202879E+04    0.42013E-01   -0.82762E+00  4432   0.246E+00    0.692E-01
RMM:   2    -0.232435365061E+04   -0.41622E-01   -0.44015E-01  5859   0.417E-01    0.468E-01
RMM:   3    -0.232435603510E+04   -0.23845E-02   -0.34819E-02  5230   0.137E-01    0.511E-01
RMM:   4    -0.232435419889E+04    0.18362E-02   -0.43484E-03  5603   0.352E-02    0.225E-01
RMM:   5    -0.232435387872E+04    0.32017E-03   -0.21354E-03  4940   0.292E-02    0.911E-02
RMM:   6    -0.232435389371E+04   -0.14991E-04   -0.47332E-04  4586   0.174E-02    0.403E-02
RMM:   7    -0.232435388592E+04    0.77904E-05   -0.61363E-05  3074   0.624E-03
  76 F= -.23448896E+04 E0= -.23448896E+04  d E =-.462383E-02  mag=     4.0000
       N       E                     dE             d eps       ncg     rms          rms(c)
DAV:   1    -0.232434310034E+04    0.10793E-01   -0.23782E+00  4432   0.132E+00    0.375E-01
RMM:   2    -0.232435505105E+04   -0.11951E-01   -0.12614E-01  5894   0.224E-01    0.261E-01
RMM:   3    -0.232435565357E+04   -0.60252E-03   -0.10344E-02  5198   0.747E-02    0.253E-01
RMM:   4    -0.232435524016E+04    0.41341E-03   -0.12860E-03  4989   0.189E-02    0.121E-01
RMM:   5    -0.232435514278E+04    0.97387E-04   -0.57852E-04  4526   0.155E-02    0.569E-02
RMM:   6    -0.232435514261E+04    0.16106E-06   -0.13043E-04  3578   0.947E-03    0.298E-02
RMM:   7    -0.232435513720E+04    0.54119E-05   -0.21944E-05  2924   0.499E-03
  77 F= -.23448909E+04 E0= -.23448909E+04  d E =-.592756E-02  mag=     4.0000
       N       E                     dE             d eps       ncg     rms          rms(c)
DAV:   1    -0.232435589738E+04   -0.75476E-03   -0.51854E-01  4480   0.621E-01    0.179E-01
RMM:   2    -0.232435835002E+04   -0.24526E-02   -0.25961E-02  5823   0.104E-01    0.115E-01
RMM:   3    -0.232435847316E+04   -0.12314E-03   -0.19980E-03  4500   0.357E-02    0.127E-01
RMM:   4    -0.232435836000E+04    0.11316E-03   -0.25862E-04  3314   0.934E-03    0.554E-02
RMM:   5    -0.232435833913E+04    0.20870E-04   -0.12070E-04  3475   0.807E-03    0.233E-02
RMM:   6    -0.232435833783E+04    0.13023E-05   -0.30305E-05  2969   0.591E-03
  78 F= -.23448940E+04 E0= -.23448940E+04  d E =-.313285E-02  mag=     4.0000
       N       E                     dE             d eps       ncg     rms          rms(c)
DAV:   1    -0.232434298782E+04    0.15351E-01   -0.46514E+00  4432   0.186E+00    0.535E-01
RMM:   2    -0.232436516415E+04   -0.22176E-01   -0.23399E-01  5772   0.312E-01    0.349E-01
RMM:   3    -0.232436644149E+04   -0.12773E-02   -0.18333E-02  5134   0.107E-01    0.401E-01
RMM:   4    -0.232436528254E+04    0.11590E-02   -0.23877E-03  5470   0.268E-02    0.165E-01
RMM:   5    -0.232436512837E+04    0.15416E-03   -0.11001E-03  4908   0.216E-02    0.674E-02
RMM:   6    -0.232436512700E+04    0.13752E-05   -0.26735E-04  4418   0.133E-02    0.292E-02
RMM:   7    -0.232436512157E+04    0.54259E-05   -0.34225E-05  2963   0.495E-03
  79 F= -.23449006E+04 E0= -.23449006E+04  d E =-.972102E-02  mag=     4.0000
       N       E                     dE             d eps       ncg     rms          rms(c)
DAV:   1    -0.232427832458E+04    0.86802E-01   -0.18465E+01  4432   0.375E+00    0.105E+00
RMM:   2    -0.232436572749E+04   -0.87403E-01   -0.92185E-01  5804   0.619E-01    0.686E-01
RMM:   3    -0.232437183581E+04   -0.61083E-02   -0.79923E-02  5153   0.212E-01    0.813E-01
RMM:   4    -0.232436712126E+04    0.47146E-02   -0.96702E-03  5806   0.529E-02    0.333E-01
RMM:   5    -0.232436648103E+04    0.64023E-03   -0.44948E-03  5099   0.420E-02    0.151E-01
RMM:   6    -0.232436646060E+04    0.20429E-04   -0.12743E-03  5148   0.260E-02    0.661E-02
RMM:   7    -0.232436643286E+04    0.27735E-04   -0.17558E-04  3649   0.969E-03    0.276E-02
RMM:   8    -0.232436644150E+04   -0.86389E-05   -0.50769E-05  3043   0.597E-03
  80 F= -.23449016E+04 E0= -.23449016E+04  d E =-.106991E-01  mag=     4.0000
       N       E                     dE             d eps       ncg     rms          rms(c)
DAV:   1    -0.232435015770E+04    0.16275E-01   -0.36964E+00  4432   0.166E+00    0.480E-01
RMM:   2    -0.232436792485E+04   -0.17767E-01   -0.18601E-01  5867   0.279E-01    0.335E-01
RMM:   3    -0.232436879172E+04   -0.86687E-03   -0.14957E-02  5226   0.917E-02    0.341E-01
RMM:   4    -0.232436802392E+04    0.76780E-03   -0.19488E-03  5296   0.240E-02    0.147E-01
RMM:   5    -0.232436789741E+04    0.12651E-03   -0.83564E-04  4814   0.187E-02    0.713E-02
RMM:   6    -0.232436789849E+04   -0.10750E-05   -0.19846E-04  4166   0.116E-02    0.376E-02
RMM:   7    -0.232436788880E+04    0.96844E-05   -0.32662E-05  2951   0.506E-03
  81 F= -.23449032E+04 E0= -.23449032E+04  d E =-.122900E-01  mag=     4.0000
       N       E                     dE             d eps       ncg     rms          rms(c)
DAV:   1    -0.232436736232E+04    0.53616E-03   -0.10803E+00  4480   0.880E-01    0.244E-01
RMM:   2    -0.232437220959E+04   -0.48473E-02   -0.51237E-02  5822   0.143E-01    0.163E-01
RMM:   3    -0.232437245315E+04   -0.24356E-03   -0.39900E-03  4872   0.512E-02    0.178E-01
RMM:   4    -0.232437224663E+04    0.20652E-03   -0.51693E-04  3869   0.125E-02    0.842E-02
RMM:   5    -0.232437220657E+04    0.40061E-04   -0.27700E-04  4031   0.111E-02    0.318E-02
RMM:   6    -0.232437220602E+04    0.54901E-06   -0.55913E-05  3051   0.724E-03
  82 F= -.23449073E+04 E0= -.23449073E+04  d E =-.415210E-02  mag=     4.0000
       N       E                     dE             d eps       ncg     rms          rms(c)
DAV:   1    -0.232433716285E+04    0.35044E-01   -0.96715E+00  4432   0.263E+00    0.734E-01
RMM:   2    -0.232438088565E+04   -0.43723E-01   -0.46119E-01  5742   0.428E-01    0.492E-01
RMM:   3    -0.232438359586E+04   -0.27102E-02   -0.40250E-02  5097   0.156E-01    0.556E-01
RMM:   4    -0.232438157069E+04    0.20252E-02   -0.48443E-03  5713   0.369E-02    0.253E-01
RMM:   5    -0.232438125631E+04    0.31438E-03   -0.24786E-03  5029   0.297E-02    0.109E-01
RMM:   6    -0.232438125454E+04    0.17755E-05   -0.63453E-04  4701   0.185E-02    0.455E-02
RMM:   7    -0.232438125096E+04    0.35832E-05   -0.92279E-05  3098   0.692E-03
  83 F= -.23449159E+04 E0= -.23449159E+04  d E =-.127378E-01  mag=     4.0000
       N       E                     dE             d eps       ncg     rms          rms(c)
DAV:   1    -0.232420001927E+04    0.18124E+00   -0.38210E+01  4432   0.523E+00    0.145E+00
RMM:   2    -0.232437387955E+04   -0.17386E+00   -0.18379E+00  5819   0.850E-01    0.951E-01
RMM:   3    -0.232438551667E+04   -0.11637E-01   -0.16814E-01  5159   0.299E-01    0.109E+00
RMM:   4    -0.232437788442E+04    0.76322E-02   -0.19321E-02  5931   0.720E-02    0.517E-01
RMM:   5    -0.232437647010E+04    0.14143E-02   -0.99207E-03  5184   0.573E-02    0.241E-01
RMM:   6    -0.232437649493E+04   -0.24831E-04   -0.30414E-03  5270   0.358E-02    0.105E-01
RMM:   7    -0.232437644746E+04    0.47471E-04   -0.40230E-04  4115   0.142E-02    0.415E-02
RMM:   8    -0.232437650141E+04   -0.53957E-04   -0.12031E-04  3226   0.699E-03    0.210E-02
RMM:   9    -0.232437654718E+04   -0.45770E-04   -0.26098E-05  2941   0.471E-03    0.104E-02
RMM:  10    -0.232437658074E+04   -0.33560E-04   -0.15446E-05  2888   0.381E-03    0.446E-03
RMM:  11    -0.232437659131E+04   -0.10562E-04   -0.53622E-06  2836   0.308E-03    0.326E-03
RMM:  12    -0.232437659929E+04   -0.79843E-05   -0.44226E-06  2726   0.208E-03
  84 F= -.23449106E+04 E0= -.23449106E+04  d E =-.737901E-02  mag=     4.0000
       N       E                     dE             d eps       ncg     rms          rms(c)
DAV:   1    -0.232429835034E+04    0.78241E-01   -0.18321E+01  4432   0.359E+00    0.102E+00
RMM:   2    -0.232438487306E+04   -0.86523E-01   -0.90010E-01  5855   0.598E-01    0.771E-01
RMM:   3    -0.232438771957E+04   -0.28465E-02   -0.71676E-02  5263   0.199E-01    0.743E-01
RMM:   4    -0.232438422988E+04    0.34897E-02   -0.95042E-03  5623   0.520E-02    0.340E-01
RMM:   5    -0.232438360179E+04    0.62809E-03   -0.47660E-03  4938   0.409E-02    0.154E-01
RMM:   6    -0.232438360799E+04   -0.61978E-05   -0.87183E-04  4746   0.243E-02    0.754E-02
RMM:   7    -0.232438357724E+04    0.30748E-04   -0.16712E-04  3500   0.848E-03    0.286E-02
RMM:   8    -0.232438357308E+04    0.41543E-05   -0.34932E-05  3003   0.567E-03
  85 F= -.23449180E+04 E0= -.23449180E+04  d E =-.148100E-01  mag=     4.0000
       N       E                     dE             d eps       ncg     rms          rms(c)
DAV:   1    -0.232437564580E+04    0.79314E-02   -0.41450E+00  4432   0.168E+00    0.486E-01
RMM:   2    -0.232439242084E+04   -0.16775E-01   -0.17963E-01  5802   0.272E-01    0.307E-01
RMM:   3    -0.232439324338E+04   -0.82254E-03   -0.14292E-02  5186   0.911E-02    0.338E-01
RMM:   4    -0.232439251885E+04    0.72453E-03   -0.19107E-03  5467   0.236E-02    0.175E-01
RMM:   5    -0.232439233010E+04    0.18875E-03   -0.10926E-03  4715   0.205E-02    0.584E-02
RMM:   6    -0.232439233043E+04   -0.33242E-06   -0.19453E-04  3682   0.123E-02    0.230E-02
RMM:   7    -0.232439232725E+04    0.31776E-05   -0.30281E-05  2969   0.442E-03
  86 F= -.23449265E+04 E0= -.23449265E+04  d E =-.854737E-02  mag=     4.0000
       N       E                     dE             d eps       ncg     rms          rms(c)
DAV:   1    -0.232433662252E+04    0.55708E-01   -0.14742E+01  4432   0.317E+00    0.910E-01
RMM:   2    -0.232439626472E+04   -0.59642E-01   -0.63792E-01  5814   0.514E-01    0.569E-01
RMM:   3    -0.232439924142E+04   -0.29767E-02   -0.51228E-02  5236   0.175E-01    0.617E-01
RMM:   4    -0.232439700438E+04    0.22370E-02   -0.69294E-03  5858   0.442E-02    0.343E-01
RMM:   5    -0.232439627379E+04    0.73059E-03   -0.39079E-03  5019   0.377E-02    0.128E-01
RMM:   6    -0.232439626479E+04    0.90012E-05   -0.84005E-04  4799   0.222E-02    0.504E-02
RMM:   7    -0.232439625768E+04    0.71138E-05   -0.13901E-04  3386   0.772E-03    0.238E-02
RMM:   8    -0.232439626583E+04   -0.81524E-05   -0.35239E-05  2990   0.516E-03
  87 F= -.23449302E+04 E0= -.23449302E+04  d E =-.121889E-01  mag=     4.0000
       N       E                     dE             d eps       ncg     rms          rms(c)
DAV:   1    -0.232439123989E+04    0.50178E-02   -0.13924E+00  4480   0.973E-01    0.283E-01
RMM:   2    -0.232439695347E+04   -0.57136E-02   -0.60668E-02  5875   0.159E-01    0.187E-01
RMM:   3    -0.232439718043E+04   -0.22696E-03   -0.45786E-03  5092   0.516E-02    0.194E-01
RMM:   4    -0.232439695956E+04    0.22087E-03   -0.67369E-04  4355   0.139E-02    0.101E-01
RMM:   5    -0.232439689743E+04    0.62131E-04   -0.38453E-04  4296   0.127E-02    0.405E-02
RMM:   6    -0.232439689454E+04    0.28903E-05   -0.66755E-05  3064   0.792E-03
  88 F= -.23449309E+04 E0= -.23449309E+04  d E =-.128952E-01  mag=     4.0000
       N       E                     dE             d eps       ncg     rms          rms(c)
DAV:   1    -0.232439349386E+04    0.34036E-02   -0.41787E+00  4432   0.164E+00    0.485E-01
RMM:   2    -0.232440778545E+04   -0.14292E-01   -0.15748E-01  5715   0.257E-01    0.272E-01
RMM:   3    -0.232440781156E+04   -0.26111E-04   -0.11193E-02  4957   0.921E-02    0.196E-01
RMM:   4    -0.232440800809E+04   -0.19654E-03   -0.19104E-03  5077   0.245E-02    0.239E-01
RMM:   5    -0.232440765524E+04    0.35285E-03   -0.11191E-03  5095   0.198E-02    0.878E-02
RMM:   6    -0.232440760062E+04    0.54626E-04   -0.17574E-04  3671   0.908E-03    0.238E-02
RMM:   7    -0.232440759645E+04    0.41699E-05   -0.34688E-05  2937   0.561E-03
  89 F= -.23449410E+04 E0= -.23449410E+04  d E =-.101185E-01  mag=     4.0000
       N       E                     dE             d eps       ncg     rms          rms(c)
DAV:   1    -0.232438892823E+04    0.18672E-01   -0.81507E+00  4432   0.228E+00    0.673E-01
RMM:   2    -0.232441686885E+04   -0.27941E-01   -0.30590E-01  5713   0.361E-01    0.384E-01
RMM:   3    -0.232441695268E+04   -0.83827E-04   -0.21519E-02  4976   0.123E-01    0.287E-01
RMM:   4    -0.232441734687E+04   -0.39419E-03   -0.37903E-03  5351   0.339E-02    0.344E-01
RMM:   5    -0.232441655875E+04    0.78813E-03   -0.21410E-03  5375   0.272E-02    0.110E-01
RMM:   6    -0.232441649885E+04    0.59899E-04   -0.34384E-04  4367   0.126E-02    0.321E-02
RMM:   7    -0.232441649800E+04    0.84305E-06   -0.65304E-05  3014   0.713E-03
  90 F= -.23449492E+04 E0= -.23449492E+04  d E =-.182786E-01  mag=     4.0000
       N       E                     dE             d eps       ncg     rms          rms(c)
DAV:   1    -0.232430607718E+04    0.11042E+00   -0.32056E+01  4432   0.456E+00    0.131E+00
RMM:   2    -0.232441625919E+04   -0.11018E+00   -0.11980E+00  5736   0.720E-01    0.764E-01
RMM:   3    -0.232441731513E+04   -0.10559E-02   -0.90863E-02  5006   0.243E-01    0.564E-01
RMM:   4    -0.232441857586E+04   -0.12607E-02   -0.14734E-02  5468   0.678E-02    0.660E-01
RMM:   5    -0.232441588420E+04    0.26917E-02   -0.80418E-03  5597   0.519E-02    0.258E-01
RMM:   6    -0.232441552702E+04    0.35718E-03   -0.16131E-03  5059   0.253E-02    0.747E-02
RMM:   7    -0.232441551663E+04    0.10391E-04   -0.30728E-04  3920   0.151E-02    0.328E-02
RMM:   8    -0.232441556645E+04   -0.49815E-04   -0.87630E-05  3440   0.605E-03    0.179E-02
RMM:   9    -0.232441560885E+04   -0.42407E-04   -0.20504E-05  2915   0.471E-03    0.876E-03
RMM:  10    -0.232441563581E+04   -0.26961E-04   -0.11904E-05  2873   0.348E-03    0.422E-03
RMM:  11    -0.232441564907E+04   -0.13254E-04   -0.50638E-06  2826   0.296E-03    0.301E-03
RMM:  12    -0.232441566082E+04   -0.11753E-04   -0.59806E-06  2774   0.229E-03    0.157E-03
RMM:  13    -0.232441566525E+04   -0.44325E-05   -0.30504E-06  2660   0.235E-03
  91 F= -.23449471E+04 E0= -.23449471E+04  d E =-.162457E-01  mag=     4.0000
       N       E                     dE             d eps       ncg     rms          rms(c)
DAV:   1    -0.232437788135E+04    0.37779E-01   -0.11838E+01  4432   0.278E+00    0.818E-01
RMM:   2    -0.232441970884E+04   -0.41827E-01   -0.45536E-01  5787   0.444E-01    0.488E-01
RMM:   3    -0.232442005368E+04   -0.34484E-03   -0.30957E-02  5136   0.144E-01    0.406E-01
RMM:   4    -0.232441997795E+04    0.75734E-04   -0.51366E-03  5569   0.394E-02    0.368E-01
RMM:   5    -0.232441918045E+04    0.79750E-03   -0.36787E-03  5271   0.350E-02    0.142E-01
RMM:   6    -0.232441905105E+04    0.12939E-03   -0.45826E-04  4436   0.170E-02    0.435E-02
RMM:   7    -0.232441903654E+04    0.14516E-04   -0.10203E-04  3241   0.615E-03    0.187E-02
RMM:   8    -0.232441903619E+04    0.35125E-06   -0.15488E-05  2927   0.414E-03
  92 F= -.23449512E+04 E0= -.23449512E+04  d E =-.203019E-01  mag=     4.0000
       N       E                     dE             d eps       ncg     rms          rms(c)
DAV:   1    -0.232441099481E+04    0.80417E-02   -0.69565E+00  4432   0.206E+00    0.610E-01
RMM:   2    -0.232443207543E+04   -0.21081E-01   -0.22935E-01  5707   0.317E-01    0.358E-01
RMM:   3    -0.232443200574E+04    0.69688E-04   -0.16205E-02  4789   0.112E-01    0.237E-01
RMM:   4    -0.232443224179E+04   -0.23605E-03   -0.35715E-03  4846   0.348E-02    0.270E-01
RMM:   5    -0.232443187363E+04    0.36816E-03   -0.15633E-03  4836   0.256E-02    0.139E-01
RMM:   6    -0.232443172120E+04    0.15243E-03   -0.28337E-04  4026   0.102E-02    0.310E-02
RMM:   7    -0.232443171411E+04    0.70932E-05   -0.53775E-05  3009   0.614E-03
  93 F= -.23449629E+04 E0= -.23449629E+04  d E =-.117404E-01  mag=     4.0000
       N       E                     dE             d eps       ncg     rms          rms(c)
DAV:   1    -0.232441138742E+04    0.20334E-01   -0.86955E+00  4432   0.231E+00    0.679E-01
RMM:   2    -0.232443768247E+04   -0.26295E-01   -0.28535E-01  5675   0.356E-01    0.404E-01
RMM:   3    -0.232443766363E+04    0.18833E-04   -0.20654E-02  4816   0.125E-01    0.272E-01
RMM:   4    -0.232443804536E+04   -0.38172E-03   -0.44902E-03  4955   0.388E-02    0.325E-01
RMM:   5    -0.232443745708E+04    0.58828E-03   -0.20327E-03  5049   0.284E-02    0.147E-01
RMM:   6    -0.232443729380E+04    0.16328E-03   -0.36434E-04  4283   0.114E-02    0.359E-02
RMM:   7    -0.232443729103E+04    0.27651E-05   -0.71233E-05  3035   0.693E-03
  94 F= -.23449676E+04 E0= -.23449676E+04  d E =-.163626E-01  mag=     4.0000
       N       E                     dE             d eps       ncg     rms          rms(c)
DAV:   1    -0.232441971845E+04    0.17575E-01   -0.89943E+00  4432   0.235E+00    0.691E-01
RMM:   2    -0.232444838471E+04   -0.28666E-01   -0.30786E-01  5733   0.367E-01    0.418E-01
RMM:   3    -0.232444889622E+04   -0.51150E-03   -0.22019E-02  4863   0.127E-01    0.334E-01
RMM:   4    -0.232444917153E+04   -0.27531E-03   -0.43035E-03  5414   0.362E-02    0.357E-01
RMM:   5    -0.232444838707E+04    0.78447E-03   -0.25849E-03  5359   0.304E-02    0.107E-01
RMM:   6    -0.232444831205E+04    0.75015E-04   -0.31885E-04  3945   0.133E-02    0.388E-02
RMM:   7    -0.232444831135E+04    0.70495E-06   -0.78266E-05  3082   0.613E-03
[...]
 271 F= -.23450590E+04 E0= -.23450590E+04  d E =-.696883E-04  mag=     4.0000
       N       E                     dE             d eps       ncg     rms          rms(c)
DAV:   1    -0.232452239068E+04    0.59770E-04   -0.37047E-03  4344   0.487E-02    0.205E-02
RMM:   2    -0.232452243485E+04   -0.44170E-04   -0.42083E-04  3905   0.106E-02    0.268E-02
RMM:   3    -0.232452243131E+04    0.35419E-05   -0.36815E-05  2621   0.514E-03
 272 F= -.23450591E+04 E0= -.23450591E+04  d E =-.391185E-04  mag=     4.0000
       N       E                     dE             d eps       ncg     rms          rms(c)
DAV:   1    -0.232452199423E+04    0.44062E-03   -0.32541E-02  4432   0.144E-01    0.578E-02
RMM:   2    -0.232452236029E+04   -0.36606E-03   -0.36435E-03  6064   0.296E-02    0.592E-02
RMM:   3    -0.232452236047E+04   -0.17451E-06   -0.31082E-04  3027   0.106E-02    0.383E-02
RMM:   4    -0.232452234838E+04    0.12091E-04   -0.37000E-05  2941   0.359E-03    0.158E-02
RMM:   5    -0.232452234603E+04    0.23507E-05   -0.81222E-06  2823   0.252E-03
 273 F= -.23450591E+04 E0= -.23450591E+04  d E =-.112711E-03  mag=     4.0000
       N       E                     dE             d eps       ncg     rms          rms(c)
DAV:   1    -0.232452060834E+04    0.17400E-02   -0.12962E-01  4432   0.288E-01    0.114E-01
RMM:   2    -0.232452203058E+04   -0.14222E-02   -0.14319E-02  6143   0.584E-02    0.108E-01
RMM:   3    -0.232452206649E+04   -0.35906E-04   -0.13065E-03  3477   0.212E-02    0.783E-02
RMM:   4    -0.232452201434E+04    0.52145E-04   -0.13924E-04  3079   0.653E-03    0.295E-02
RMM:   5    -0.232452200667E+04    0.76708E-05   -0.26291E-05  2909   0.435E-03
 274 F= -.23450591E+04 E0= -.23450591E+04  d E =-.912131E-04  mag=     4.0000
       N       E                     dE             d eps       ncg     rms          rms(c)
DAV:   1    -0.232452191794E+04    0.96403E-04   -0.24533E-02  4440   0.125E-01    0.485E-02
RMM:   2    -0.232452219353E+04   -0.27559E-03   -0.27212E-03  5924   0.261E-02    0.543E-02
RMM:   3    -0.232452218727E+04    0.62617E-05   -0.22708E-04  3017   0.980E-03    0.311E-02
RMM:   4    -0.232452217926E+04    0.80078E-05   -0.24785E-05  2870   0.307E-03
 275 F= -.23450591E+04 E0= -.23450591E+04  d E =-.127404E-03  mag=     4.0000
       N       E                     dE             d eps       ncg     rms          rms(c)
DAV:   1    -0.232452208952E+04    0.97747E-04   -0.65329E-03  4440   0.631E-02    0.275E-02
RMM:   2    -0.232452217049E+04   -0.80962E-04   -0.76795E-04  4445   0.136E-02    0.370E-02
RMM:   3    -0.232452216332E+04    0.71611E-05   -0.66155E-05  2848   0.598E-03
 276 F= -.23450592E+04 E0= -.23450592E+04  d E =-.538121E-04  mag=     4.0000
       N       E                     dE             d eps       ncg     rms          rms(c)
DAV:   1    -0.232452144249E+04    0.72799E-03   -0.57398E-02  4432   0.187E-01    0.753E-02
RMM:   2    -0.232452210495E+04   -0.66246E-03   -0.65726E-03  6124   0.383E-02    0.788E-02
RMM:   3    -0.232452210579E+04   -0.84494E-06   -0.56506E-04  3112   0.135E-02    0.487E-02
RMM:   4    -0.232452208738E+04    0.18418E-04   -0.65772E-05  2989   0.438E-03    0.205E-02
RMM:   5    -0.232452208348E+04    0.38908E-05   -0.12466E-05  2855   0.288E-03
 277 F= -.23450593E+04 E0= -.23450593E+04  d E =-.183288E-03  mag=     4.0000
       N       E                     dE             d eps       ncg     rms          rms(c)
DAV:   1    -0.232451924740E+04    0.28400E-02   -0.22859E-01  4432   0.374E-01    0.149E-01
RMM:   2    -0.232452181053E+04   -0.25631E-02   -0.25765E-02  6151   0.753E-02    0.143E-01
RMM:   3    -0.232452188380E+04   -0.73271E-04   -0.24061E-03  3771   0.286E-02    0.101E-01
RMM:   4    -0.232452180044E+04    0.83357E-04   -0.24802E-04  3191   0.789E-03    0.386E-02
RMM:   5    -0.232452178844E+04    0.12001E-04   -0.40087E-05  2950   0.487E-03    0.204E-02
RMM:   6    -0.232452178716E+04    0.12819E-05   -0.22718E-05  2893   0.432E-03
 278 F= -.23450594E+04 E0= -.23450594E+04  d E =-.306091E-03  mag=     4.0000
       N       E                     dE             d eps       ncg     rms          rms(c)
DAV:   1    -0.232452128199E+04    0.50645E-03   -0.49253E-02  4440   0.176E-01    0.704E-02
RMM:   2    -0.232452180941E+04   -0.52742E-03   -0.53200E-03  6089   0.357E-02    0.675E-02
RMM:   3    -0.232452182201E+04   -0.12595E-04   -0.49611E-04  3085   0.145E-02    0.477E-02
RMM:   4    -0.232452180280E+04    0.19210E-04   -0.52622E-05  2960   0.420E-03    0.177E-02
RMM:   5    -0.232452180011E+04    0.26883E-05   -0.98523E-06  2857   0.267E-03
 279 F= -.23450596E+04 E0= -.23450596E+04  d E =-.195773E-03  mag=     4.0000
       N       E                     dE             d eps       ncg     rms          rms(c)
DAV:   1    -0.232451960346E+04    0.21993E-02   -0.19064E-01  4432   0.346E-01    0.136E-01
RMM:   2    -0.232452161698E+04   -0.20135E-02   -0.20447E-02  6152   0.694E-02    0.122E-01
RMM:   3    -0.232452168937E+04   -0.72398E-04   -0.18624E-03  3717   0.257E-02    0.935E-02
RMM:   4    -0.232452161387E+04    0.75499E-04   -0.20526E-04  3153   0.753E-03    0.359E-02
RMM:   5    -0.232452160174E+04    0.12132E-04   -0.39183E-05  2955   0.501E-03    0.177E-02
RMM:   6    -0.232452160054E+04    0.12012E-05   -0.19511E-05  2895   0.440E-03
 280 F= -.23450598E+04 E0= -.23450598E+04  d E =-.356139E-03  mag=     4.0000
       N       E                     dE             d eps       ncg     rms          rms(c)
DAV:   1    -0.232452131702E+04    0.28473E-03   -0.16008E-02  4560   0.101E-01    0.406E-02
RMM:   2    -0.232452149064E+04   -0.17362E-03   -0.17489E-03  5660   0.210E-02    0.395E-02
RMM:   3    -0.232452149441E+04   -0.37721E-05   -0.16594E-04  2965   0.877E-03    0.276E-02
RMM:   4    -0.232452148796E+04    0.64500E-05   -0.17480E-05  2892   0.270E-03
 281 F= -.23450598E+04 E0= -.23450598E+04  d E =-.348283E-03  mag=     4.0000
       N       E                     dE             d eps       ncg     rms          rms(c)
DAV:   1    -0.232452066114E+04    0.83327E-03   -0.68075E-02  4432   0.199E-01    0.792E-02
RMM:   2    -0.232452139186E+04   -0.73072E-03   -0.74094E-03  6000   0.395E-02    0.711E-02
RMM:   3    -0.232452142411E+04   -0.32246E-04   -0.70772E-04  3216   0.176E-02    0.539E-02
RMM:   4    -0.232452140071E+04    0.23400E-04   -0.76769E-05  2997   0.455E-03    0.228E-02
RMM:   5    -0.232452139660E+04    0.41073E-05   -0.13661E-05  2866   0.294E-03
 282 F= -.23450599E+04 E0= -.23450599E+04  d E =-.126158E-03  mag=     4.0000
       N       E                     dE             d eps       ncg     rms          rms(c)
DAV:   1    -0.232451424028E+04    0.71604E-02   -0.61375E-01  4432   0.598E-01    0.240E-01
RMM:   2    -0.232452090478E+04   -0.66645E-02   -0.67312E-02  6168   0.120E-01    0.222E-01
RMM:   3    -0.232452113089E+04   -0.22611E-03   -0.62226E-03  4777   0.453E-02    0.161E-01
RMM:   4    -0.232452092317E+04    0.20772E-03   -0.67559E-04  3529   0.113E-02    0.637E-02
RMM:   5    -0.232452088973E+04    0.33434E-04   -0.98894E-05  3106   0.709E-03    0.325E-02
RMM:   6    -0.232452088714E+04    0.25987E-05   -0.57467E-05  3023   0.637E-03
 283 F= -.23450601E+04 E0= -.23450601E+04  d E =-.270192E-03  mag=     4.0000
       N       E                     dE             d eps       ncg     rms          rms(c)
DAV:   1    -0.232451996547E+04    0.92427E-03   -0.84102E-02  4440   0.222E-01    0.907E-02
RMM:   2    -0.232452088656E+04   -0.92109E-03   -0.92585E-03  6174   0.458E-02    0.884E-02
RMM:   3    -0.232452090947E+04   -0.22909E-04   -0.86619E-04  3224   0.178E-02    0.611E-02
RMM:   4    -0.232452088001E+04    0.29465E-04   -0.92970E-05  3013   0.523E-03    0.229E-02
RMM:   5    -0.232452087632E+04    0.36868E-05   -0.14461E-05  2881   0.309E-03
 284 F= -.23450603E+04 E0= -.23450603E+04  d E =-.241086E-03  mag=     4.0000
       N       E                     dE             d eps       ncg     rms          rms(c)
DAV:   1    -0.232451480593E+04    0.60741E-02   -0.53062E-01  4432   0.558E-01    0.223E-01
RMM:   2    -0.232452051919E+04   -0.57133E-02   -0.57692E-02  6179   0.112E-01    0.205E-01
RMM:   3    -0.232452073113E+04   -0.21194E-03   -0.54055E-03  4615   0.434E-02    0.150E-01
RMM:   4    -0.232452054980E+04    0.18134E-03   -0.58132E-04  3464   0.108E-02    0.593E-02
RMM:   5    -0.232452052038E+04    0.29419E-04   -0.88454E-05  3082   0.684E-03    0.300E-02
RMM:   6    -0.232452051811E+04    0.22640E-05   -0.50342E-05  2986   0.614E-03
 285 F= -.23450606E+04 E0= -.23450606E+04  d E =-.515551E-03  mag=     4.0000
       N       E                     dE             d eps       ncg     rms          rms(c)
DAV:   1    -0.232451909075E+04    0.14296E-02   -0.10403E-01  4448   0.247E-01    0.101E-01
RMM:   2    -0.232452022992E+04   -0.11392E-02   -0.11448E-02  6191   0.508E-02    0.976E-02
RMM:   3    -0.232452025943E+04   -0.29507E-04   -0.10759E-03  3287   0.199E-02    0.678E-02
RMM:   4    -0.232452022286E+04    0.36568E-04   -0.11351E-04  3035   0.569E-03    0.256E-02
RMM:   5    -0.232452021791E+04    0.49448E-05   -0.18040E-05  2891   0.340E-03
 286 F= -.23450606E+04 E0= -.23450606E+04  d E =-.496109E-03  mag=     4.0000
       N       E                     dE             d eps       ncg     rms          rms(c)
DAV:   1    -0.232451801988E+04    0.22030E-02   -0.19619E-01  4432   0.333E-01    0.133E-01
RMM:   2    -0.232452009687E+04   -0.20770E-02   -0.20950E-02  6228   0.670E-02    0.123E-01
RMM:   3    -0.232452017638E+04   -0.79511E-04   -0.19642E-03  3496   0.261E-02    0.898E-02
RMM:   4    -0.232452011131E+04    0.65074E-04   -0.21071E-04  3139   0.725E-03    0.358E-02
RMM:   5    -0.232452010167E+04    0.96379E-05   -0.32653E-05  2916   0.426E-03
 287 F= -.23450608E+04 E0= -.23450608E+04  d E =-.261774E-03  mag=     4.0000
       N       E                     dE             d eps       ncg     rms          rms(c)
DAV:   1    -0.232450040930E+04    0.19702E-01   -0.17703E+00  4432   0.999E-01    0.399E-01
RMM:   2    -0.232451924409E+04   -0.18835E-01   -0.18929E-01  6167   0.200E-01    0.382E-01
RMM:   3    -0.232451982967E+04   -0.58558E-03   -0.17847E-02  5492   0.803E-02    0.265E-01
RMM:   4    -0.232451929318E+04    0.53650E-03   -0.19271E-03  4421   0.180E-02    0.106E-01
RMM:   5    -0.232451919750E+04    0.95677E-04   -0.27369E-04  3649   0.107E-02    0.552E-02
RMM:   6    -0.232451919098E+04    0.65243E-05   -0.16410E-04  3351   0.930E-03    0.168E-02
RMM:   7    -0.232451919168E+04   -0.70457E-06   -0.27740E-05  2950   0.520E-03
 288 F= -.23450611E+04 E0= -.23450611E+04  d E =-.488202E-03  mag=     4.0000
       N       E                     dE             d eps       ncg     rms          rms(c)
DAV:   1    -0.232451581498E+04    0.33760E-02   -0.31082E-01  4440   0.418E-01    0.167E-01
RMM:   2    -0.232451913066E+04   -0.33157E-02   -0.33400E-02  6178   0.843E-02    0.158E-01
RMM:   3    -0.232451922644E+04   -0.95775E-04   -0.30139E-03  3991   0.327E-02    0.112E-01
RMM:   4    -0.232451913255E+04    0.93885E-04   -0.33865E-04  3243   0.847E-03    0.443E-02
RMM:   5    -0.232451911653E+04    0.16026E-04   -0.47630E-05  2964   0.508E-03    0.233E-02
RMM:   6    -0.232451911606E+04    0.47020E-06   -0.29647E-05  2923   0.447E-03
 289 F= -.23450614E+04 E0= -.23450614E+04  d E =-.380960E-03  mag=     4.0000
       N       E                     dE             d eps       ncg     rms          rms(c)
DAV:   1    -0.232448842214E+04    0.30694E-01   -0.27912E+00  4432   0.125E+00    0.503E-01
RMM:   2    -0.232451834315E+04   -0.29921E-01   -0.29979E-01  6074   0.250E-01    0.499E-01
RMM:   3    -0.232451900397E+04   -0.66082E-03   -0.28057E-02  5503   0.103E-01    0.331E-01
RMM:   4    -0.232451818879E+04    0.81518E-03   -0.30424E-03  4949   0.224E-02    0.132E-01
RMM:   5    -0.232451804264E+04    0.14615E-03   -0.41971E-04  3958   0.129E-02    0.700E-02
RMM:   6    -0.232451803107E+04    0.11567E-04   -0.25454E-04  3723   0.111E-02    0.213E-02
RMM:   7    -0.232451803171E+04   -0.63574E-06   -0.39740E-05  2996   0.588E-03
 290 F= -.23450617E+04 E0= -.23450617E+04  d E =-.669549E-03  mag=     4.0000
       N       E                     dE             d eps       ncg     rms          rms(c)
DAV:   1    -0.232451337458E+04    0.46565E-02   -0.41853E-01  4432   0.480E-01    0.193E-01
RMM:   2    -0.232451786877E+04   -0.44942E-02   -0.45269E-02  6157   0.971E-02    0.183E-01
RMM:   3    -0.232451799936E+04   -0.13059E-03   -0.40901E-03  4236   0.376E-02    0.129E-01
RMM:   4    -0.232451787658E+04    0.12278E-03   -0.45738E-04  3308   0.936E-03    0.513E-02
RMM:   5    -0.232451785533E+04    0.21253E-04   -0.63077E-05  2996   0.560E-03    0.272E-02
RMM:   6    -0.232451785455E+04    0.78176E-06   -0.40802E-05  2961   0.491E-03
 291 F= -.23450621E+04 E0= -.23450621E+04  d E =-.363353E-03  mag=     4.0000
       N       E                     dE             d eps       ncg     rms          rms(c)
DAV:   1    -0.232447653870E+04    0.41317E-01   -0.37574E+00  4432   0.144E+00    0.582E-01
RMM:   2    -0.232451710757E+04   -0.40569E-01   -0.40612E-01  6084   0.287E-01    0.583E-01
RMM:   3    -0.232451800034E+04   -0.89276E-03   -0.38241E-02  5548   0.120E-01    0.381E-01
RMM:   4    -0.232451693096E+04    0.10694E-02   -0.41229E-03  5046   0.256E-02    0.153E-01
RMM:   5    -0.232451673307E+04    0.19788E-03   -0.52303E-04  4022   0.144E-02    0.818E-02
RMM:   6    -0.232451671995E+04    0.13121E-04   -0.35527E-04  3832   0.123E-02    0.251E-02
RMM:   7    -0.232451672072E+04   -0.76721E-06   -0.56594E-05  3012   0.627E-03
 292 F= -.23450626E+04 E0= -.23450626E+04  d E =-.854213E-03  mag=     4.0000
       N       E                     dE             d eps       ncg     rms          rms(c)
DAV:   1    -0.232451048118E+04    0.62388E-02   -0.59805E-01  4456   0.584E-01    0.237E-01
RMM:   2    -0.232451679770E+04   -0.63165E-02   -0.63896E-02  6131   0.119E-01    0.218E-01
RMM:   3    -0.232451699879E+04   -0.20109E-03   -0.58100E-03  4874   0.462E-02    0.159E-01
RMM:   4    -0.232451680149E+04    0.19729E-03   -0.64714E-04  3522   0.112E-02    0.621E-02
RMM:   5    -0.232451676816E+04    0.33331E-04   -0.10163E-04  3116   0.721E-03    0.317E-02
RMM:   6    -0.232451676636E+04    0.17984E-05   -0.58073E-05  3032   0.641E-03
 293 F= -.23450633E+04 E0= -.23450633E+04  d E =-.726936E-03  mag=     4.0000
       N       E                     dE             d eps       ncg     rms          rms(c)
DAV:   1    -0.232449933270E+04    0.17435E-01   -0.15770E+00  4432   0.948E-01    0.387E-01
RMM:   2    -0.232451604589E+04   -0.16713E-01   -0.16800E-01  6030   0.191E-01    0.376E-01
RMM:   3    -0.232451645626E+04   -0.41037E-03   -0.15780E-02  5456   0.783E-02    0.257E-01
RMM:   4    -0.232451593298E+04    0.52328E-03   -0.17111E-03  4551   0.175E-02    0.998E-02
RMM:   5    -0.232451584572E+04    0.87259E-04   -0.26463E-04  3785   0.108E-02    0.518E-02
RMM:   6    -0.232451583752E+04    0.81927E-05   -0.14865E-04  3464   0.911E-03    0.158E-02
RMM:   7    -0.232451583769E+04   -0.16275E-06   -0.24517E-05  2938   0.534E-03
 294 F= -.23450635E+04 E0= -.23450635E+04  d E =-.906795E-03  mag=     4.0000
       N       E                     dE             d eps       ncg     rms          rms(c)
DAV:   1    -0.232451510028E+04    0.73725E-03   -0.10704E-01  4544   0.247E-01    0.998E-02
RMM:   2    -0.232451623055E+04   -0.11303E-02   -0.11265E-02  6112   0.497E-02    0.104E-01
RMM:   3    -0.232451624177E+04   -0.11218E-04   -0.10571E-03  3322   0.197E-02    0.659E-02
RMM:   4    -0.232451620492E+04    0.36852E-04   -0.10998E-04  3053   0.555E-03    0.258E-02
RMM:   5    -0.232451619857E+04    0.63490E-05   -0.19460E-05  2885   0.349E-03
 295 F= -.23450636E+04 E0= -.23450636E+04  d E =-.979107E-03  mag=     4.0000
       N       E                     dE             d eps       ncg     rms          rms(c)
DAV:   1    -0.232451277222E+04    0.34327E-02   -0.37197E-01  4432   0.460E-01    0.187E-01
RMM:   2    -0.232451668695E+04   -0.39147E-02   -0.39454E-02  6185   0.933E-02    0.178E-01
RMM:   3    -0.232451680806E+04   -0.12111E-03   -0.37234E-03  4258   0.363E-02    0.128E-01
RMM:   4    -0.232451667007E+04    0.13799E-03   -0.39080E-04  3326   0.942E-03    0.490E-02
RMM:   5    -0.232451664893E+04    0.21138E-04   -0.64212E-05  3028   0.592E-03    0.252E-02
RMM:   6    -0.232451664679E+04    0.21381E-05   -0.33684E-05  2926   0.529E-03
 296 F= -.23450635E+04 E0= -.23450635E+04  d E =-.888300E-03  mag=     4.0000
       N       E                     dE             d eps       ncg     rms          rms(c)
DAV:   1    -0.232451555277E+04    0.10962E-02   -0.88586E-02  4448   0.224E-01    0.893E-02
RMM:   2    -0.232451647632E+04   -0.92356E-03   -0.93058E-03  6167   0.462E-02    0.846E-02
RMM:   3    -0.232451650016E+04   -0.23835E-04   -0.84259E-04  3214   0.181E-02    0.594E-02
RMM:   4    -0.232451647079E+04    0.29368E-04   -0.91782E-05  3021   0.522E-03    0.241E-02
RMM:   5    -0.232451646488E+04    0.59087E-05   -0.16933E-05  2864   0.328E-03
 297 F= -.23450635E+04 E0= -.23450635E+04  d E =-.967911E-03  mag=     4.0000
       N       E                     dE             d eps       ncg     rms          rms(c)
DAV:   1    -0.232451600534E+04    0.46545E-03   -0.30406E-02  4480   0.132E-01    0.538E-02
RMM:   2    -0.232451632171E+04   -0.31637E-03   -0.32329E-03  5891   0.272E-02    0.443E-02
RMM:   3    -0.232451633956E+04   -0.17850E-04   -0.30661E-04  3024   0.110E-02    0.376E-02
RMM:   4    -0.232451632752E+04    0.12042E-04   -0.32896E-05  2913   0.338E-03    0.147E-02
RMM:   5    -0.232451632612E+04    0.14023E-05   -0.67618E-06  2747   0.201E-03
 298 F= -.23450636E+04 E0= -.23450636E+04  d E =-.984298E-03  mag=     4.0000
       N       E                     dE             d eps       ncg     rms          rms(c)
DAV:   1    -0.232451390135E+04    0.24262E-02   -0.22842E-01  4432   0.371E-01    0.150E-01
RMM:   2    -0.232451628332E+04   -0.23820E-02   -0.24134E-02  6130   0.746E-02    0.138E-01
RMM:   3    -0.232451635449E+04   -0.71161E-04   -0.22338E-03  3807   0.283E-02    0.103E-01
RMM:   4    -0.232451626652E+04    0.87964E-04   -0.24362E-04  3208   0.800E-03    0.392E-02
RMM:   5    -0.232451625291E+04    0.13609E-04   -0.44992E-05  2965   0.523E-03    0.193E-02
RMM:   6    -0.232451625200E+04    0.91127E-06   -0.22653E-05  2904   0.456E-03
 299 F= -.23450639E+04 E0= -.23450639E+04  d E =-.360836E-03  mag=     4.0000
       N       E                     dE             d eps       ncg     rms          rms(c)
DAV:   1    -0.232451260210E+04    0.36508E-02   -0.31164E-01  4432   0.433E-01    0.176E-01
RMM:   2    -0.232451586870E+04   -0.32666E-02   -0.33015E-02  5998   0.864E-02    0.166E-01
RMM:   3    -0.232451594967E+04   -0.80969E-04   -0.30739E-03  4372   0.363E-02    0.120E-01
RMM:   4    -0.232451583177E+04    0.11790E-03   -0.33265E-04  3271   0.875E-03    0.452E-02
RMM:   5    -0.232451581355E+04    0.18217E-04   -0.57867E-05  3002   0.583E-03    0.225E-02
RMM:   6    -0.232451581218E+04    0.13736E-05   -0.30392E-05  2928   0.516E-03
 300 F= -.23450640E+04 E0= -.23450640E+04  d E =-.428994E-03  mag=     4.0000
       N       E                     dE             d eps       ncg     rms          rms(c)
DAV:   1    -0.232451265570E+04    0.31579E-02   -0.28634E-01  4432   0.410E-01    0.164E-01
RMM:   2    -0.232451566869E+04   -0.30130E-02   -0.30286E-02  6018   0.817E-02    0.162E-01
RMM:   3    -0.232451572733E+04   -0.58640E-04   -0.28220E-03  4224   0.353E-02    0.110E-01
RMM:   4    -0.232451563079E+04    0.96542E-04   -0.30057E-04  3246   0.815E-03    0.426E-02
RMM:   5    -0.232451561522E+04    0.15576E-04   -0.47161E-05  2975   0.528E-03    0.220E-02
RMM:   6    -0.232451561395E+04    0.12675E-05   -0.28301E-05  2923   0.468E-03
 301 F= -.23450643E+04 E0= -.23450643E+04  d E =-.278694E-03  mag=     4.0000
