       N       E                     dE             d eps       ncg     rms          rms(c)
DAV:   1     0.124351633455E+05    0.12435E+05   -0.84053E+05  4640   0.142E+03
DAV:   2    -0.125463921177E+04   -0.13690E+05   -0.13148E+05  5040   0.322E+02
DAV:   3    -0.249380899699E+04   -0.12392E+04   -0.12286E+04  5440   0.104E+02
DAV:   4    -0.252179352527E+04   -0.27985E+02   -0.27798E+02  5600   0.195E+01
DAV:   5    -0.252270947871E+04   -0.91595E+00   -0.91425E+00  5840   0.293E+00    0.170E+02
RMM:   6    -0.148969361972E+04    0.10330E+04   -0.19022E+03  4508   0.377E+01    0.723E+01
RMM:   7    -0.165534208951E+04   -0.16565E+03   -0.27216E+02  5027   0.136E+01    0.497E+01
RMM:   8    -0.171356162223E+04   -0.58220E+02   -0.64278E+01  5156   0.791E+00    0.414E+01
RMM:   9    -0.179858901350E+04   -0.85027E+02   -0.66025E+01  5080   0.752E+00    0.348E+01
RMM:  10    -0.192277543944E+04   -0.12419E+03   -0.55686E+01  5170   0.702E+00    0.221E+01
RMM:  11    -0.203114749006E+04   -0.10837E+03   -0.45133E+01  5064   0.540E+00    0.183E+01
RMM:  12    -0.210200367626E+04   -0.70856E+02   -0.31991E+01  5102   0.443E+00    0.148E+01
RMM:  13    -0.218871813445E+04   -0.86714E+02   -0.47839E+01  4584   0.531E+00    0.989E+00
RMM:  14    -0.228463571387E+04   -0.95918E+02   -0.87565E+01  4541   0.647E+00    0.859E+00
RMM:  15    -0.229844087991E+04   -0.13805E+02   -0.12466E+01  4586   0.376E+00    0.590E+00
RMM:  16    -0.231315477950E+04   -0.14714E+02   -0.15279E+01  4480   0.230E+00    0.265E+00
RMM:  17    -0.231666510337E+04   -0.35103E+01   -0.30528E+00  4506   0.150E+00    0.186E+00
RMM:  18    -0.231786683909E+04   -0.12017E+01   -0.13420E+00  5072   0.583E-01    0.100E+00
RMM:  19    -0.231820258811E+04   -0.33575E+00   -0.45738E-01  4920   0.409E-01    0.520E-01
RMM:  20    -0.231827461489E+04   -0.72027E-01   -0.97860E-02  4985   0.194E-01    0.305E-01
RMM:  21    -0.231830375218E+04   -0.29137E-01   -0.17514E-02  4742   0.904E-02    0.191E-01
RMM:  22    -0.231833275003E+04   -0.28998E-01   -0.98199E-03  4501   0.697E-02    0.153E-01
RMM:  23    -0.231834930901E+04   -0.16559E-01   -0.53289E-03  4577   0.547E-02    0.101E-01
RMM:  24    -0.231835860282E+04   -0.92938E-02   -0.28590E-03  4696   0.411E-02    0.579E-02
RMM:  25    -0.231836526273E+04   -0.66599E-02   -0.18519E-03  4581   0.307E-02    0.706E-02
RMM:  26    -0.231836820679E+04   -0.29441E-02   -0.93256E-04  4337   0.232E-02    0.220E-02
RMM:  27    -0.231836913799E+04   -0.93120E-03   -0.30638E-04  4204   0.136E-02    0.149E-02
RMM:  28    -0.231836952154E+04   -0.38354E-03   -0.92181E-05  3777   0.803E-03    0.706E-03
RMM:  29    -0.231836971429E+04   -0.19275E-03   -0.40435E-05  3443   0.556E-03    0.432E-03
RMM:  30    -0.231836980326E+04   -0.88968E-04   -0.19090E-05  3090   0.432E-03    0.230E-03
RMM:  31    -0.231836983599E+04   -0.32733E-04   -0.96839E-06  2910   0.357E-03    0.148E-03
RMM:  32    -0.231836984792E+04   -0.11936E-04   -0.53688E-06  2752   0.268E-03    0.116E-03
RMM:  33    -0.231836985046E+04   -0.25341E-05   -0.26168E-06  2476   0.200E-03
   1 F= -.23393053E+04 E0= -.23393053E+04  d E =-.349449E-17  mag=     5.0000
       N       E                     dE             d eps       ncg     rms          rms(c)
DAV:   1    -0.231842914857E+04   -0.59301E-01   -0.19989E+00  4480   0.480E-01    0.319E-01
RMM:   2    -0.231842957138E+04   -0.42281E-03   -0.10561E-02  4099   0.368E-02    0.232E-01
RMM:   3    -0.231842967141E+04   -0.10002E-03   -0.20420E-03  4595   0.180E-02    0.291E-01
RMM:   4    -0.231842911429E+04    0.55711E-03   -0.10655E-03  3476   0.118E-02    0.146E-01
RMM:   5    -0.231842907624E+04    0.38048E-04   -0.60492E-04  3308   0.990E-03    0.996E-02
RMM:   6    -0.231842895385E+04    0.12239E-03   -0.12821E-04  2862   0.582E-03    0.187E-02
RMM:   7    -0.231842895065E+04    0.32003E-05   -0.23147E-05  2749   0.253E-03
   2 F= -.23393647E+04 E0= -.23393647E+04  d E =-.272022E-19  mag=     5.0000
       N       E                     dE             d eps       ncg     rms          rms(c)
DAV:   1    -0.231828254797E+04    0.14641E+00   -0.79215E+00  4480   0.960E-01    0.620E-01
RMM:   2    -0.231828425708E+04   -0.17091E-02   -0.39659E-02  4450   0.722E-02    0.440E-01
RMM:   3    -0.231828486615E+04   -0.60907E-03   -0.73904E-03  5136   0.367E-02    0.577E-01
RMM:   4    -0.231828262250E+04    0.22437E-02   -0.40655E-03  4535   0.223E-02    0.277E-01
RMM:   5    -0.231828252207E+04    0.10043E-03   -0.21515E-03  4306   0.183E-02    0.189E-01
RMM:   6    -0.231828207415E+04    0.44792E-03   -0.48838E-04  3253   0.953E-03    0.371E-02
RMM:   7    -0.231828205796E+04    0.16190E-04   -0.88285E-05  2953   0.423E-03    0.183E-02
RMM:   8    -0.231828205378E+04    0.41799E-05   -0.21159E-05  2885   0.285E-03
   3 F= -.23392173E+04 E0= -.23392173E+04  d E =-.238783E-16  mag=     5.0000
       N       E                     dE             d eps       ncg     rms          rms(c)
DAV:   1    -0.231832753247E+04   -0.45475E-01   -0.37129E+00  4480   0.712E-01    0.411E-01
RMM:   2    -0.231832810148E+04   -0.56902E-03   -0.13653E-02  4129   0.444E-02    0.295E-01
RMM:   3    -0.231832915212E+04   -0.10506E-02   -0.35940E-03  4809   0.219E-02    0.481E-01
RMM:   4    -0.231832749845E+04    0.16537E-02   -0.17277E-03  3958   0.150E-02    0.933E-02
RMM:   5    -0.231832748952E+04    0.89300E-05   -0.25668E-04  3074   0.794E-03    0.357E-02
RMM:   6    -0.231832749235E+04   -0.28299E-05   -0.55611E-05  2845   0.397E-03
   4 F= -.23392632E+04 E0= -.23392632E+04  d E =-.210902E-16  mag=     5.0000
       N       E                     dE             d eps       ncg     rms          rms(c)
DAV:   1    -0.231839625560E+04   -0.68766E-01   -0.72885E+00  4480   0.101E+00    0.588E-01
RMM:   2    -0.231839699420E+04   -0.73860E-03   -0.28864E-02  4408   0.692E-02    0.406E-01
RMM:   3    -0.231839764119E+04   -0.64699E-03   -0.78391E-03  5201   0.368E-02    0.494E-01
RMM:   4    -0.231839594737E+04    0.16938E-02   -0.38600E-03  4555   0.234E-02    0.296E-01
RMM:   5    -0.231839535604E+04    0.59132E-03   -0.13081E-03  3700   0.162E-02    0.114E-01
RMM:   6    -0.231839526835E+04    0.87695E-04   -0.13915E-04  3064   0.693E-03    0.317E-02
RMM:   7    -0.231839526342E+04    0.49265E-05   -0.41488E-05  2945   0.397E-03
   5 F= -.23393305E+04 E0= -.23393305E+04  d E =-.453506E-19  mag=     5.0000
       N       E                     dE             d eps       ncg     rms          rms(c)
DAV:   1    -0.231838791533E+04    0.73530E-02   -0.38312E+00  4480   0.732E-01    0.434E-01
RMM:   2    -0.231838851974E+04   -0.60442E-03   -0.19785E-02  4243   0.535E-02    0.293E-01
RMM:   3    -0.231838942997E+04   -0.91022E-03   -0.40235E-03  4940   0.259E-02    0.485E-01
RMM:   4    -0.231838772349E+04    0.17065E-02   -0.21545E-03  4346   0.170E-02    0.120E-01
RMM:   5    -0.231838766604E+04    0.57457E-04   -0.30313E-04  3215   0.935E-03    0.506E-02
RMM:   6    -0.231838765493E+04    0.11109E-04   -0.89653E-05  2943   0.526E-03    0.299E-02
RMM:   7    -0.231838764887E+04    0.60607E-05   -0.25353E-05  2809   0.337E-03
   6 F= -.23393235E+04 E0= -.23393235E+04  d E =-.922885E-18  mag=     5.0000
       N       E                     dE             d eps       ncg     rms          rms(c)
DAV:   1    -0.231831519369E+04    0.72461E-01   -0.81951E+00  4480   0.103E+00    0.711E-01
RMM:   2    -0.231831465367E+04    0.54002E-03   -0.67847E-02  4662   0.828E-02    0.491E-01
RMM:   3    -0.231831483476E+04   -0.18109E-03   -0.13375E-02  5430   0.471E-02    0.657E-01
RMM:   4    -0.231831129509E+04    0.35397E-02   -0.66148E-03  4967   0.295E-02    0.323E-01
RMM:   5    -0.231831079242E+04    0.50267E-03   -0.26294E-03  4436   0.222E-02    0.207E-01
RMM:   6    -0.231831027493E+04    0.51748E-03   -0.64904E-04  3609   0.114E-02    0.540E-02
RMM:   7    -0.231831024098E+04    0.33953E-04   -0.97588E-05  3054   0.573E-03    0.310E-02
RMM:   8    -0.231831023464E+04    0.63431E-05   -0.40227E-05  2994   0.400E-03
   7 F= -.23392453E+04 E0= -.23392453E+04  d E =-.575946E-15  mag=     5.0000
       N       E                     dE             d eps       ncg     rms          rms(c)
DAV:   1    -0.231831838069E+04   -0.81397E-02   -0.64917E+00  4640   0.903E-01    0.518E-01
RMM:   2    -0.231832199822E+04   -0.36175E-02   -0.61467E-02  4173   0.754E-02    0.300E-01
RMM:   3    -0.231832172746E+04    0.27076E-03   -0.40865E-03  4773   0.279E-02    0.324E-01
RMM:   4    -0.231832130013E+04    0.42733E-03   -0.20667E-03  4339   0.167E-02    0.206E-01
RMM:   5    -0.231832104727E+04    0.25286E-03   -0.40055E-04  3230   0.101E-02    0.661E-02
RMM:   6    -0.231832100770E+04    0.39565E-04   -0.11219E-04  2910   0.577E-03    0.280E-02
RMM:   7    -0.231832100191E+04    0.57961E-05   -0.19942E-05  2807   0.310E-03
   8 F= -.23392560E+04 E0= -.23392560E+04  d E =-.451171E-16  mag=     5.0000
       N       E                     dE             d eps       ncg     rms          rms(c)
DAV:   1    -0.231838733933E+04   -0.66332E-01   -0.20112E+01  4480   0.167E+00    0.891E-01
RMM:   2    -0.231838844299E+04   -0.11037E-02   -0.13410E-01  4524   0.119E-01    0.508E-01
RMM:   3    -0.231838953791E+04   -0.10949E-02   -0.17968E-02  5390   0.587E-02    0.636E-01
RMM:   4    -0.231838544413E+04    0.40938E-02   -0.77804E-03  4886   0.328E-02    0.285E-01
RMM:   5    -0.231838580406E+04   -0.35993E-03   -0.29014E-03  4436   0.211E-02    0.306E-01
RMM:   6    -0.231838509098E+04    0.71308E-03   -0.83172E-04  3491   0.121E-02    0.489E-02
RMM:   7    -0.231838508096E+04    0.10017E-04   -0.91081E-05  2973   0.531E-03    0.227E-02
RMM:   8    -0.231838508341E+04   -0.24434E-05   -0.36945E-05  2966   0.299E-03
   9 F= -.23393210E+04 E0= -.23393210E+04  d E =-.123862E-17  mag=     5.0000
       N       E                     dE             d eps       ncg     rms          rms(c)
DAV:   1    -0.231838247760E+04    0.26034E-02   -0.10230E+01  4480   0.137E+00    0.461E-01
RMM:   2    -0.231838488733E+04   -0.24097E-02   -0.53041E-02  4023   0.878E-02    0.235E-01
RMM:   3    -0.231838433975E+04    0.54758E-03   -0.29177E-03  4877   0.255E-02    0.251E-01
RMM:   4    -0.231838409230E+04    0.24745E-03   -0.15963E-03  3799   0.146E-02    0.190E-01
RMM:   5    -0.231838399417E+04    0.98136E-04   -0.64671E-04  3487   0.110E-02    0.102E-01
RMM:   6    -0.231838386922E+04    0.12494E-03   -0.17969E-04  3022   0.684E-03    0.248E-02
RMM:   7    -0.231838386586E+04    0.33666E-05   -0.24338E-05  2784   0.290E-03
  10 F= -.23393198E+04 E0= -.23393198E+04  d E =-.118879E-17  mag=     5.0000
       N       E                     dE             d eps       ncg     rms          rms(c)
DAV:   1    -0.231834266600E+04    0.41203E-01   -0.20422E+01  4480   0.198E+00    0.597E-01
RMM:   2    -0.231834671436E+04   -0.40484E-02   -0.90525E-02  4336   0.118E-01    0.370E-01
RMM:   3    -0.231834702934E+04   -0.31498E-03   -0.11199E-02  5395   0.450E-02    0.431E-01
RMM:   4    -0.231834449007E+04    0.25393E-02   -0.46661E-03  4640   0.267E-02    0.925E-02
RMM:   5    -0.231834457284E+04   -0.82771E-04   -0.76186E-04  3294   0.136E-02    0.131E-01
RMM:   6    -0.231834444958E+04    0.12326E-03   -0.18935E-04  3009   0.643E-03    0.416E-02
RMM:   7    -0.231834443532E+04    0.14258E-04   -0.47781E-05  2931   0.401E-03    0.142E-02
RMM:   8    -0.231834443569E+04   -0.36851E-06   -0.15483E-05  2862   0.260E-03
  11 F= -.23392794E+04 E0= -.23392794E+04  d E =-.893253E-16  mag=     5.0000
       N       E                     dE             d eps       ncg     rms          rms(c)
DAV:   1    -0.231833728720E+04    0.71481E-02   -0.10257E+01  4640   0.131E+00    0.509E-01
RMM:   2    -0.231833876104E+04   -0.14738E-02   -0.52866E-02  4112   0.750E-02    0.245E-01
RMM:   3    -0.231833788661E+04    0.87443E-03   -0.33013E-03  4403   0.251E-02    0.219E-01
RMM:   4    -0.231833778773E+04    0.98884E-04   -0.11943E-03  3697   0.123E-02    0.191E-01
RMM:   5    -0.231833754070E+04    0.24703E-03   -0.45931E-04  3281   0.982E-03    0.581E-02
RMM:   6    -0.231833750980E+04    0.30899E-04   -0.10167E-04  2883   0.603E-03    0.268E-02
RMM:   7    -0.231833750130E+04    0.85052E-05   -0.19493E-05  2763   0.310E-03
  12 F= -.23392727E+04 E0= -.23392727E+04  d E =-.245025E-14  mag=     5.0000
       N       E                     dE             d eps       ncg     rms          rms(c)
DAV:   1    -0.231836675508E+04   -0.29245E-01   -0.20067E+01  4480   0.164E+00    0.961E-01
RMM:   2    -0.231837156756E+04   -0.48125E-02   -0.18081E-01  4628   0.151E-01    0.494E-01
RMM:   3    -0.231837249159E+04   -0.92403E-03   -0.21384E-02  5088   0.753E-02    0.637E-01
RMM:   4    -0.231836817740E+04    0.43142E-02   -0.72630E-03  5156   0.335E-02    0.292E-01
RMM:   5    -0.231836831450E+04   -0.13710E-03   -0.29130E-03  4648   0.215E-02    0.311E-01
RMM:   6    -0.231836734853E+04    0.96596E-03   -0.97726E-04  4303   0.143E-02    0.515E-02
RMM:   7    -0.231836733900E+04    0.95342E-05   -0.18318E-04  3214   0.762E-03    0.302E-02
RMM:   8    -0.231836734442E+04   -0.54189E-05   -0.47932E-05  3054   0.455E-03
  13 F= -.23393031E+04 E0= -.23393031E+04  d E =-.169269E-18  mag=     5.0000
       N       E                     dE             d eps       ncg     rms          rms(c)
DAV:   1    -0.231831081402E+04    0.56525E-01   -0.53378E+00  4640   0.946E-01    0.529E-01
RMM:   2    -0.231831301287E+04   -0.21988E-02   -0.57333E-02  4481   0.796E-02    0.330E-01
RMM:   3    -0.231831341218E+04   -0.39931E-03   -0.72590E-03  5280   0.343E-02    0.437E-01
RMM:   4    -0.231831165599E+04    0.17562E-02   -0.23868E-03  4414   0.179E-02    0.222E-01
RMM:   5    -0.231831142276E+04    0.23323E-03   -0.10810E-03  3750   0.128E-02    0.148E-01
RMM:   6    -0.231831118384E+04    0.23893E-03   -0.28250E-04  3202   0.818E-03    0.377E-02
RMM:   7    -0.231831117120E+04    0.12637E-04   -0.44795E-05  2915   0.441E-03    0.138E-02
RMM:   8    -0.231831116989E+04    0.13048E-05   -0.19052E-05  2842   0.290E-03
  14 F= -.23392472E+04 E0= -.23392472E+04  d E =-.101565E-16  mag=     5.0000
       N       E                     dE             d eps       ncg     rms          rms(c)
DAV:   1    -0.231841987364E+04   -0.10870E+00   -0.11376E+00  5120   0.283E-01    0.527E-01
RMM:   2    -0.231841644622E+04    0.34274E-02   -0.16877E-02  4299   0.355E-02    0.335E-01
RMM:   3    -0.231841641882E+04    0.27398E-04   -0.52211E-03  4848   0.297E-02    0.384E-01
RMM:   4    -0.231841533416E+04    0.10847E-02   -0.24708E-03  4306   0.170E-02    0.258E-01
RMM:   5    -0.231841505142E+04    0.28274E-03   -0.10610E-03  3884   0.130E-02    0.153E-01
RMM:   6    -0.231841478586E+04    0.26556E-03   -0.34483E-04  3053   0.830E-03    0.383E-02
RMM:   7    -0.231841477695E+04    0.89078E-05   -0.45164E-05  2827   0.351E-03
  15 F= -.23393498E+04 E0= -.23393498E+04  d E =-.743638E-16  mag=     5.0000
       N       E                     dE             d eps       ncg     rms          rms(c)
DAV:   1    -0.231838229906E+04    0.32487E-01   -0.58050E-01  4480   0.183E-01    0.282E-01
RMM:   2    -0.231838181943E+04    0.47964E-03   -0.40615E-03  3551   0.179E-02    0.178E-01
RMM:   3    -0.231838218158E+04   -0.36215E-03   -0.14028E-03  3921   0.141E-02    0.286E-01
RMM:   4    -0.231838158344E+04    0.59814E-03   -0.76672E-04  3186   0.988E-03    0.103E-01
RMM:   5    -0.231838153691E+04    0.46528E-04   -0.24195E-04  3046   0.677E-03    0.546E-02
RMM:   6    -0.231838150052E+04    0.36394E-04   -0.73464E-05  2656   0.446E-03    0.208E-02
RMM:   7    -0.231838149732E+04    0.31966E-05   -0.74153E-06  2442   0.179E-03
  16 F= -.23393168E+04 E0= -.23393168E+04  d E =-.151818E-16  mag=     5.0000
       N       E                     dE             d eps       ncg     rms          rms(c)
DAV:   1    -0.231835495490E+04    0.26546E-01   -0.11415E+00  4480   0.260E-01    0.348E-01
RMM:   2    -0.231835451311E+04    0.44180E-03   -0.52058E-03  3729   0.214E-02    0.219E-01
RMM:   3    -0.231835480499E+04   -0.29188E-03   -0.19739E-03  4366   0.161E-02    0.267E-01
RMM:   4    -0.231835432026E+04    0.48474E-03   -0.11713E-03  3662   0.124E-02    0.164E-01
RMM:   5    -0.231835421208E+04    0.10818E-03   -0.42824E-04  3127   0.846E-03    0.942E-02
RMM:   6    -0.231835411555E+04    0.96532E-04   -0.89376E-05  2781   0.494E-03    0.133E-02
RMM:   7    -0.231835411525E+04    0.29644E-06   -0.12848E-05  2599   0.190E-03
  17 F= -.23392898E+04 E0= -.23392898E+04  d E =-.671126E-16  mag=     5.0000
       N       E                     dE             d eps       ncg     rms          rms(c)
DAV:   1    -0.231837828466E+04   -0.24169E-01   -0.57826E-01  4640   0.184E-01    0.247E-01
RMM:   2    -0.231837813320E+04    0.15146E-03   -0.23552E-03  3454   0.146E-02    0.155E-01
RMM:   3    -0.231837839459E+04   -0.26139E-03   -0.10710E-03  3759   0.119E-02    0.216E-01
RMM:   4    -0.231837804946E+04    0.34514E-03   -0.57477E-04  3265   0.920E-03    0.106E-01
RMM:   5    -0.231837799467E+04    0.54784E-04   -0.20248E-04  2913   0.614E-03    0.547E-02
RMM:   6    -0.231837796062E+04    0.34055E-04   -0.35878E-05  2668   0.369E-03    0.999E-03
RMM:   7    -0.231837796052E+04    0.10185E-06   -0.52735E-06  2482   0.155E-03
  18 F= -.23393138E+04 E0= -.23393138E+04  d E =-.187289E-15  mag=     5.0000
       N       E                     dE             d eps       ncg     rms          rms(c)
DAV:   1    -0.231835666407E+04    0.21297E-01   -0.11681E+00  4640   0.249E-01    0.301E-01
RMM:   2    -0.231835671636E+04   -0.52285E-04   -0.39534E-03  3567   0.185E-02    0.180E-01
RMM:   3    -0.231835712870E+04   -0.41234E-03   -0.13038E-03  3946   0.134E-02    0.257E-01
RMM:   4    -0.231835668872E+04    0.43998E-03   -0.74942E-04  3435   0.103E-02    0.929E-02
RMM:   5    -0.231835666686E+04    0.21861E-04   -0.14362E-04  2918   0.603E-03    0.462E-02
RMM:   6    -0.231835664034E+04    0.26520E-04   -0.39457E-05  2699   0.382E-03    0.124E-02
RMM:   7    -0.231835664006E+04    0.27915E-06   -0.60174E-06  2579   0.175E-03
  19 F= -.23392918E+04 E0= -.23392918E+04  d E =-.544853E-17  mag=     5.0000
       N       E                     dE             d eps       ncg     rms          rms(c)
DAV:   1    -0.231837316948E+04   -0.16529E-01   -0.58007E-01  4560   0.265E-01    0.199E-01
RMM:   2    -0.231837324290E+04   -0.73420E-04   -0.18226E-03  3617   0.156E-02    0.120E-01
RMM:   3    -0.231837327461E+04   -0.31713E-04   -0.39539E-04  3583   0.850E-03    0.969E-02
RMM:   4    -0.231837321161E+04    0.63008E-04   -0.32746E-04  3003   0.746E-03    0.595E-02
RMM:   5    -0.231837319959E+04    0.12018E-04   -0.61530E-05  2743   0.416E-03    0.459E-02
RMM:   6    -0.231837318161E+04    0.17975E-04   -0.16132E-05  2511   0.250E-03    0.728E-03
RMM:   7    -0.231837318114E+04    0.47356E-06   -0.35007E-06  2287   0.128E-03
  20 F= -.23393089E+04 E0= -.23393089E+04  d E =-.106196E-16  mag=     5.0000
       N       E                     dE             d eps       ncg     rms          rms(c)
DAV:   1    -0.231836587963E+04    0.73020E-02   -0.11409E+00  4480   0.366E-01    0.263E-01
RMM:   2    -0.231836571110E+04    0.16852E-03   -0.19251E-03  3835   0.180E-02    0.157E-01
RMM:   3    -0.231836592312E+04   -0.21202E-03   -0.80674E-04  3923   0.124E-02    0.214E-01
RMM:   4    -0.231836562325E+04    0.29987E-03   -0.63531E-04  3333   0.920E-03    0.103E-01
RMM:   5    -0.231836559580E+04    0.27450E-04   -0.17138E-04  2949   0.596E-03    0.467E-02
RMM:   6    -0.231836556528E+04    0.30522E-04   -0.39772E-05  2674   0.367E-03    0.141E-02
RMM:   7    -0.231836556298E+04    0.22962E-05   -0.74194E-06  2537   0.182E-03
  21 F= -.23393008E+04 E0= -.23393008E+04  d E =-.102115E-15  mag=     5.0000
       N       E                     dE             d eps       ncg     rms          rms(c)
DAV:   1    -0.231838468027E+04   -0.19115E-01   -0.59152E-01  4480   0.270E-01    0.231E-01
RMM:   2    -0.231838511765E+04   -0.43738E-03   -0.43106E-03  4374   0.256E-02    0.282E-01
RMM:   3    -0.231838421209E+04    0.90556E-03   -0.11860E-03  3972   0.138E-02    0.110E-01
RMM:   4    -0.231838436187E+04   -0.14978E-03   -0.61628E-04  3892   0.895E-03    0.179E-01
RMM:   5    -0.231838410602E+04    0.25586E-03   -0.25336E-04  2943   0.652E-03    0.277E-02
RMM:   6    -0.231838410007E+04    0.59469E-05   -0.30941E-05  2716   0.290E-03
  22 F= -.23393196E+04 E0= -.23393196E+04  d E =-.625377E-16  mag=     5.0000
       N       E                     dE             d eps       ncg     rms          rms(c)
DAV:   1    -0.231834424723E+04    0.39859E-01   -0.11861E+00  4480   0.401E-01    0.376E-01
RMM:   2    -0.231834663185E+04   -0.23846E-02   -0.16562E-02  4911   0.475E-02    0.549E-01
RMM:   3    -0.231834259827E+04    0.40336E-02   -0.37698E-03  4999   0.242E-02    0.160E-01
RMM:   4    -0.231834286321E+04   -0.26495E-03   -0.14433E-03  4495   0.133E-02    0.252E-01
RMM:   5    -0.231834237306E+04    0.49015E-03   -0.65426E-04  3527   0.977E-03    0.812E-02
RMM:   6    -0.231834231788E+04    0.55188E-04   -0.87036E-05  2977   0.512E-03    0.150E-02
RMM:   7    -0.231834231366E+04    0.42116E-05   -0.19003E-05  2791   0.279E-03
  23 F= -.23392778E+04 E0= -.23392778E+04  d E =-.198399E-16  mag=     5.0000
       N       E                     dE             d eps       ncg     rms          rms(c)
DAV:   1    -0.231837050588E+04   -0.28188E-01   -0.58482E-01  4480   0.263E-01    0.216E-01
RMM:   2    -0.231837103771E+04   -0.53183E-03   -0.39843E-03  4325   0.250E-02    0.278E-01
RMM:   3    -0.231837016758E+04    0.87012E-03   -0.11004E-03  4045   0.129E-02    0.113E-01
RMM:   4    -0.231837036455E+04   -0.19696E-03   -0.58004E-04  3602   0.869E-03    0.185E-01
RMM:   5    -0.231837008128E+04    0.28327E-03   -0.27016E-04  3190   0.714E-03    0.275E-02
RMM:   6    -0.231837007833E+04    0.29449E-05   -0.30415E-05  2806   0.333E-03
  24 F= -.23393061E+04 E0= -.23393061E+04  d E =-.423820E-16  mag=     5.0000
       N       E                     dE             d eps       ncg     rms          rms(c)
DAV:   1    -0.231836904444E+04    0.10368E-02   -0.11529E+00  4480   0.364E-01    0.257E-01
RMM:   2    -0.231836892918E+04    0.11526E-03   -0.20955E-03  3869   0.185E-02    0.208E-01
RMM:   3    -0.231836927934E+04   -0.35016E-03   -0.13208E-03  3884   0.137E-02    0.298E-01
RMM:   4    -0.231836863298E+04    0.64636E-03   -0.62594E-04  3691   0.978E-03    0.380E-02
RMM:   5    -0.231836863443E+04   -0.14480E-05   -0.89298E-05  2968   0.518E-03
  25 F= -.23393036E+04 E0= -.23393036E+04  d E =-.325356E-16  mag=     5.0000
       N       E                     dE             d eps       ncg     rms          rms(c)
DAV:   1    -0.231836402955E+04    0.46034E-02   -0.55960E-01  4800   0.268E-01    0.309E-01
RMM:   2    -0.231836366516E+04    0.36440E-03   -0.97548E-03  3902   0.293E-02    0.177E-01
RMM:   3    -0.231836385673E+04   -0.19157E-03   -0.14751E-03  4193   0.171E-02    0.237E-01
RMM:   4    -0.231836341273E+04    0.44401E-03   -0.70289E-04  3152   0.980E-03    0.120E-01
RMM:   5    -0.231836342415E+04   -0.11428E-04   -0.40078E-04  3138   0.765E-03    0.101E-01
RMM:   6    -0.231836331950E+04    0.10466E-03   -0.12950E-04  2891   0.574E-03    0.193E-02
RMM:   7    -0.231836331689E+04    0.26012E-05   -0.13025E-05  2654   0.251E-03
  26 F= -.23392984E+04 E0= -.23392984E+04  d E =-.366435E-16  mag=     5.0000
       N       E                     dE             d eps       ncg     rms          rms(c)
DAV:   1    -0.231835525259E+04    0.80669E-02   -0.10601E+00  4960   0.256E-01    0.571E-01
RMM:   2    -0.231835320548E+04    0.20471E-02   -0.31154E-02  4381   0.490E-02    0.304E-01
RMM:   3    -0.231835314982E+04    0.55666E-04   -0.46428E-03  4458   0.334E-02    0.296E-01
RMM:   4    -0.231835216750E+04    0.98231E-03   -0.17245E-03  4043   0.168E-02    0.138E-01
RMM:   5    -0.231835205931E+04    0.10819E-03   -0.46632E-04  3346   0.945E-03    0.544E-02
RMM:   6    -0.231835207464E+04   -0.15329E-04   -0.11037E-04  2891   0.608E-03    0.754E-02
RMM:   7    -0.231835203004E+04    0.44605E-04   -0.33482E-05  2741   0.331E-03    0.129E-02
RMM:   8    -0.231835202931E+04    0.72733E-06   -0.18828E-05  2698   0.212E-03
  27 F= -.23392879E+04 E0= -.23392879E+04  d E =-.294083E-16  mag=     5.0000
       N       E                     dE             d eps       ncg     rms          rms(c)
DAV:   1    -0.231836539653E+04   -0.13366E-01   -0.51639E-01  4480   0.179E-01    0.236E-01
RMM:   2    -0.231836555060E+04   -0.15407E-03   -0.44911E-03  3698   0.211E-02    0.136E-01
RMM:   3    -0.231836578305E+04   -0.23245E-03   -0.73084E-04  3702   0.116E-02    0.168E-01
RMM:   4    -0.231836560966E+04    0.17339E-03   -0.41105E-04  3075   0.842E-03    0.935E-02
RMM:   5    -0.231836563732E+04   -0.27661E-04   -0.22740E-04  2977   0.644E-03    0.769E-02
RMM:   6    -0.231836557352E+04    0.63800E-04   -0.59435E-05  2843   0.462E-03    0.105E-02
RMM:   7    -0.231836557297E+04    0.55326E-06   -0.81780E-06  2715   0.222E-03
  28 F= -.23393015E+04 E0= -.23393015E+04  d E =-.712872E-16  mag=     5.0000
       N       E                     dE             d eps       ncg     rms          rms(c)
DAV:   1    -0.231836815086E+04   -0.25773E-02   -0.10399E+00  4480   0.246E-01    0.310E-01
RMM:   2    -0.231836884744E+04   -0.69657E-03   -0.77446E-03  3983   0.276E-02    0.191E-01
RMM:   3    -0.231836938464E+04   -0.53721E-03   -0.12870E-03  4474   0.145E-02    0.234E-01
RMM:   4    -0.231836911856E+04    0.26608E-03   -0.80705E-04  3380   0.107E-02    0.141E-01
RMM:   5    -0.231836913470E+04   -0.16132E-04   -0.40364E-04  3155   0.855E-03    0.934E-02
RMM:   6    -0.231836904369E+04    0.91009E-04   -0.10502E-04  2916   0.568E-03    0.156E-02
RMM:   7    -0.231836904317E+04    0.51186E-06   -0.11356E-05  2775   0.245E-03
  29 F= -.23393041E+04 E0= -.23393041E+04  d E =-.190464E-16  mag=     5.0000
       N       E                     dE             d eps       ncg     rms          rms(c)
DAV:   1    -0.231835091542E+04    0.18128E-01   -0.51727E-01  4480   0.173E-01    0.256E-01
RMM:   2    -0.231835109641E+04   -0.18098E-03   -0.62611E-03  3672   0.234E-02    0.140E-01
RMM:   3    -0.231835122788E+04   -0.13147E-03   -0.56539E-04  3492   0.110E-02    0.122E-01
RMM:   4    -0.231835116270E+04    0.65180E-04   -0.45938E-04  3055   0.864E-03    0.734E-02
RMM:   5    -0.231835114736E+04    0.15335E-04   -0.87625E-05  2969   0.535E-03    0.352E-02
RMM:   6    -0.231835114365E+04    0.37180E-05   -0.26801E-05  2718   0.345E-03
  30 F= -.23392864E+04 E0= -.23392864E+04  d E =-.190191E-16  mag=     5.0000
       N       E                     dE             d eps       ncg     rms          rms(c)
DAV:   1    -0.231838203084E+04   -0.30883E-01   -0.10484E+00  4480   0.236E-01    0.317E-01
RMM:   2    -0.231838221269E+04   -0.18185E-03   -0.61586E-03  3827   0.235E-02    0.187E-01
RMM:   3    -0.231838293558E+04   -0.72289E-03   -0.14147E-03  3813   0.153E-02    0.301E-01
RMM:   4    -0.231838235063E+04    0.58495E-03   -0.70824E-04  3498   0.105E-02    0.971E-02
RMM:   5    -0.231838239161E+04   -0.40979E-04   -0.23996E-04  3100   0.777E-03    0.645E-02
RMM:   6    -0.231838233319E+04    0.58413E-04   -0.63733E-05  2835   0.507E-03    0.147E-02
RMM:   7    -0.231838233167E+04    0.15249E-05   -0.10476E-05  2733   0.228E-03
  31 F= -.23393181E+04 E0= -.23393181E+04  d E =-.648189E-16  mag=     5.0000
