       N       E                     dE             d eps       ncg     rms          rms(c)
DAV:   1     0.131740585559E+05    0.13174E+05   -0.84809E+05  4552   0.145E+03
DAV:   2    -0.101742885634E+04   -0.14191E+05   -0.13557E+05  4952   0.332E+02
DAV:   3    -0.248838963992E+04   -0.14710E+04   -0.14527E+04  5520   0.115E+02
DAV:   4    -0.253462731432E+04   -0.46238E+02   -0.45961E+02  6760   0.293E+01
DAV:   5    -0.253547277805E+04   -0.84546E+00   -0.84363E+00  6368   0.349E+00    0.171E+02
RMM:   6    -0.150220975165E+04    0.10333E+04   -0.19566E+03  4483   0.385E+01    0.770E+01
RMM:   7    -0.169222089736E+04   -0.19001E+03   -0.37266E+02  5152   0.146E+01    0.589E+01
RMM:   8    -0.171118066503E+04   -0.18960E+02   -0.87609E+01  5342   0.854E+00    0.426E+01
RMM:   9    -0.176398428144E+04   -0.52804E+02   -0.48312E+01  5271   0.558E+00    0.381E+01
RMM:  10    -0.193067625115E+04   -0.16669E+03   -0.85434E+01  5255   0.882E+00    0.447E+01
RMM:  11    -0.196174650958E+04   -0.31070E+02   -0.26367E+01  5409   0.470E+00    0.286E+01
RMM:  12    -0.201613379422E+04   -0.54387E+02   -0.22482E+01  5432   0.375E+00    0.208E+01
RMM:  13    -0.208794336882E+04   -0.71810E+02   -0.27560E+01  4958   0.431E+00    0.163E+01
RMM:  14    -0.215299542064E+04   -0.65052E+02   -0.26687E+01  4837   0.405E+00    0.136E+01
RMM:  15    -0.223544496286E+04   -0.82450E+02   -0.58575E+01  4670   0.543E+00    0.102E+01
RMM:  16    -0.230363940433E+04   -0.68194E+02   -0.64668E+01  4589   0.562E+00    0.724E+00
RMM:  17    -0.231728240949E+04   -0.13643E+02   -0.14900E+01  4674   0.342E+00    0.558E+00
RMM:  18    -0.232055945491E+04   -0.32770E+01   -0.43665E+00  5178   0.121E+00    0.415E+00
RMM:  19    -0.232364657025E+04   -0.30871E+01   -0.17776E+00  4802   0.101E+00    0.289E+00
RMM:  20    -0.232517081195E+04   -0.15242E+01   -0.53637E-01  4917   0.586E-01    0.148E+00
RMM:  21    -0.232561494355E+04   -0.44413E+00   -0.16009E-01  4902   0.302E-01    0.919E-01
RMM:  22    -0.232575258115E+04   -0.13764E+00   -0.78034E-02  4621   0.211E-01    0.474E-01
RMM:  23    -0.232578462543E+04   -0.32044E-01   -0.20821E-02  4860   0.130E-01    0.331E-01
RMM:  24    -0.232580284896E+04   -0.18224E-01   -0.70858E-03  4724   0.633E-02    0.254E-01
RMM:  25    -0.232582713070E+04   -0.24282E-01   -0.93738E-03  4494   0.743E-02    0.158E-01
RMM:  26    -0.232583866469E+04   -0.11534E-01   -0.28609E-03  4730   0.472E-02    0.813E-02
RMM:  27    -0.232584487321E+04   -0.62085E-02   -0.11484E-03  4664   0.255E-02    0.659E-02
RMM:  28    -0.232585260007E+04   -0.77269E-02   -0.16961E-03  4468   0.292E-02    0.407E-02
RMM:  29    -0.232585634905E+04   -0.37490E-02   -0.10995E-03  4322   0.236E-02    0.208E-02
RMM:  30    -0.232585754158E+04   -0.11925E-02   -0.41349E-04  4341   0.155E-02    0.117E-02
RMM:  31    -0.232585786438E+04   -0.32280E-03   -0.97637E-05  3883   0.771E-03    0.622E-03
RMM:  32    -0.232585799473E+04   -0.13036E-03   -0.25870E-05  3201   0.476E-03    0.381E-03
RMM:  33    -0.232585804818E+04   -0.53451E-04   -0.94379E-06  2877   0.333E-03    0.250E-03
RMM:  34    -0.232585807617E+04   -0.27984E-04   -0.68435E-06  2846   0.270E-03    0.156E-03
RMM:  35    -0.232585808315E+04   -0.69771E-05   -0.30967E-06  2488   0.224E-03
   1 F= -.23472966E+04 E0= -.23472960E+04  d E =-.234730E+04  mag=     3.0000
       N       E                     dE             d eps       ncg     rms          rms(c)
DAV:   1    -0.232543893730E+04    0.41914E+00   -0.52333E+01  4992   0.519E+00    0.216E+00
RMM:   2    -0.232647010548E+04   -0.10312E+01   -0.94319E+00  6243   0.167E+00    0.403E+00
RMM:   3    -0.232624195130E+04    0.22815E+00   -0.57462E-01  5888   0.482E-01    0.136E+00
RMM:   4    -0.232624055632E+04    0.13950E-02   -0.10231E-01  6103   0.137E-01    0.135E+00
RMM:   5    -0.232622525875E+04    0.15298E-01   -0.25851E-02  6321   0.805E-02    0.775E-01
RMM:   6    -0.232621956490E+04    0.56938E-02   -0.15791E-02  5634   0.623E-02    0.594E-01
RMM:   7    -0.232621467580E+04    0.48891E-02   -0.11857E-02  5627   0.563E-02    0.152E-01
RMM:   8    -0.232621454018E+04    0.13562E-03   -0.17453E-03  5609   0.254E-02    0.151E-01
RMM:   9    -0.232621430727E+04    0.23291E-03   -0.66082E-04  4998   0.149E-02    0.113E-01
RMM:  10    -0.232621404947E+04    0.25780E-03   -0.23758E-04  4492   0.104E-02    0.358E-02
RMM:  11    -0.232621397377E+04    0.75700E-04   -0.10519E-04  4011   0.775E-03    0.188E-02
RMM:  12    -0.232621395303E+04    0.20740E-04   -0.57831E-05  3654   0.660E-03    0.122E-02
RMM:  13    -0.232621396929E+04   -0.16256E-04   -0.35343E-05  3256   0.579E-03    0.778E-03
RMM:  14    -0.232621399899E+04   -0.29705E-04   -0.18724E-05  2973   0.506E-03    0.421E-03
RMM:  15    -0.232621401631E+04   -0.17313E-04   -0.77275E-06  2851   0.382E-03    0.328E-03
RMM:  16    -0.232621403104E+04   -0.14732E-04   -0.45102E-06  2831   0.270E-03    0.171E-03
RMM:  17    -0.232621403930E+04   -0.82666E-05   -0.25140E-06  2652   0.209E-03
   2 F= -.23476574E+04 E0= -.23476572E+04  d E =-.360865E+00  mag=     3.0000
       N       E                     dE             d eps       ncg     rms          rms(c)
DAV:   1    -0.232621392465E+04    0.10638E-03   -0.75417E-03  5198   0.643E-02    0.248E-02
RMM:   2    -0.232621405644E+04   -0.13178E-03   -0.12937E-03  4905   0.189E-02    0.389E-02
RMM:   3    -0.232621404735E+04    0.90866E-05   -0.11074E-04  3091   0.775E-03    0.207E-02
RMM:   4    -0.232621404530E+04    0.20546E-05   -0.16268E-05  2905   0.250E-03
   3 F= -.23476575E+04 E0= -.23476572E+04  d E =-.360932E+00  mag=     3.0000
       N       E                     dE             d eps       ncg     rms          rms(c)
DAV:   1    -0.232608397298E+04    0.13007E+00   -0.12325E+01  4640   0.320E+00    0.113E+00
RMM:   2    -0.232626010085E+04   -0.17613E+00   -0.18558E+00  6211   0.837E-01    0.107E+00
RMM:   3    -0.232627251929E+04   -0.12418E-01   -0.19362E-01  6023   0.289E-01    0.122E+00
RMM:   4    -0.232625752884E+04    0.14990E-01   -0.20962E-02  6111   0.807E-02    0.353E-01
RMM:   5    -0.232625785174E+04   -0.32290E-03   -0.61392E-03  6050   0.442E-02    0.435E-01
RMM:   6    -0.232625500027E+04    0.28515E-02   -0.33897E-03  5953   0.358E-02    0.149E-01
RMM:   7    -0.232625475817E+04    0.24211E-03   -0.12923E-03  4982   0.228E-02    0.826E-02
RMM:   8    -0.232625470362E+04    0.54545E-04   -0.25915E-04  3829   0.117E-02    0.637E-02
RMM:   9    -0.232625467112E+04    0.32508E-04   -0.76329E-05  3252   0.657E-03    0.362E-02
RMM:  10    -0.232625466543E+04    0.56897E-05   -0.32600E-05  3048   0.486E-03
   4 F= -.23476993E+04 E0= -.23476989E+04  d E =-.418089E-01  mag=     3.0000
       N       E                     dE             d eps       ncg     rms          rms(c)
DAV:   1    -0.232624942567E+04    0.52454E-02   -0.73112E-01  4736   0.790E-01    0.274E-01
RMM:   2    -0.232625967433E+04   -0.10249E-01   -0.10980E-01  6278   0.205E-01    0.212E-01
RMM:   3    -0.232626086985E+04   -0.11955E-02   -0.11357E-02  5890   0.704E-02    0.314E-01
RMM:   4    -0.232625987017E+04    0.99968E-03   -0.12335E-03  4538   0.196E-02    0.802E-02
RMM:   5    -0.232625984144E+04    0.28735E-04   -0.33044E-04  4365   0.115E-02    0.830E-02
RMM:   6    -0.232625977883E+04    0.62610E-04   -0.19089E-04  4006   0.948E-03    0.528E-02
RMM:   7    -0.232625974476E+04    0.34064E-04   -0.66558E-05  3224   0.691E-03    0.156E-02
RMM:   8    -0.232625974143E+04    0.33343E-05   -0.11253E-05  2926   0.400E-03
   5 F= -.23477041E+04 E0= -.23477037E+04  d E =-.465889E-01  mag=     3.0000
       N       E                     dE             d eps       ncg     rms          rms(c)
DAV:   1    -0.232611891423E+04    0.14083E+00   -0.76870E+00  4592   0.256E+00    0.951E-01
RMM:   2    -0.232630321151E+04   -0.18430E+00   -0.19791E+00  6497   0.761E-01    0.746E-01
RMM:   3    -0.232631812052E+04   -0.14909E-01   -0.22402E-01  6180   0.297E-01    0.860E-01
RMM:   4    -0.232631227667E+04    0.58438E-02   -0.19109E-02  6154   0.633E-02    0.367E-01
RMM:   5    -0.232631166964E+04    0.60703E-03   -0.32278E-03  5672   0.270E-02    0.316E-01
RMM:   6    -0.232631050535E+04    0.11643E-02   -0.25102E-03  5672   0.277E-02    0.157E-01
RMM:   7    -0.232631020188E+04    0.30347E-03   -0.10883E-03  5238   0.176E-02    0.744E-02
RMM:   8    -0.232631015048E+04    0.51402E-04   -0.18182E-04  3393   0.110E-02    0.501E-02
RMM:   9    -0.232631013097E+04    0.19505E-04   -0.53023E-05  3033   0.568E-03    0.350E-02
RMM:  10    -0.232631011971E+04    0.11268E-04   -0.22322E-05  2987   0.424E-03    0.133E-02
RMM:  11    -0.232631012458E+04   -0.48791E-05   -0.14528E-05  2954   0.329E-03
   6 F= -.23477532E+04 E0= -.23477529E+04  d E =-.491405E-01  mag=     3.0000
       N       E                     dE             d eps       ncg     rms          rms(c)
DAV:   1    -0.232627042481E+04    0.39695E-01   -0.18748E+00  4592   0.126E+00    0.467E-01
RMM:   2    -0.232631469175E+04   -0.44267E-01   -0.47675E-01  6469   0.373E-01    0.361E-01
RMM:   3    -0.232631895397E+04   -0.42622E-02   -0.56978E-02  6061   0.154E-01    0.438E-01
RMM:   4    -0.232631739824E+04    0.15557E-02   -0.46953E-03  5331   0.319E-02    0.173E-01
RMM:   5    -0.232631729134E+04    0.10691E-03   -0.81173E-04  4836   0.142E-02    0.156E-01
RMM:   6    -0.232631700206E+04    0.28928E-03   -0.62024E-04  4933   0.145E-02    0.767E-02
RMM:   7    -0.232631693430E+04    0.67754E-04   -0.24701E-04  3986   0.930E-03    0.339E-02
RMM:   8    -0.232631692142E+04    0.12880E-04   -0.36136E-05  3025   0.581E-03    0.187E-02
RMM:   9    -0.232631692246E+04   -0.10360E-05   -0.11944E-05  2897   0.360E-03
   7 F= -.23477594E+04 E0= -.23477592E+04  d E =-.553503E-01  mag=     3.0000
       N       E                     dE             d eps       ncg     rms          rms(c)
DAV:   1    -0.232619135060E+04    0.12557E+00   -0.86198E+00  4544   0.273E+00    0.998E-01
RMM:   2    -0.232634992589E+04   -0.15858E+00   -0.17032E+00  6287   0.733E-01    0.528E-01
RMM:   3    -0.232636482733E+04   -0.14901E-01   -0.19581E-01  6037   0.293E-01    0.595E-01
RMM:   4    -0.232636091479E+04    0.39125E-02   -0.16493E-02  6391   0.621E-02    0.293E-01
RMM:   5    -0.232636077491E+04    0.13987E-03   -0.25877E-03  5406   0.276E-02    0.314E-01
RMM:   6    -0.232635982182E+04    0.95309E-03   -0.18351E-03  5563   0.250E-02    0.165E-01
RMM:   7    -0.232635944700E+04    0.37482E-03   -0.65771E-04  5053   0.169E-02    0.453E-02
RMM:   8    -0.232635942030E+04    0.26704E-04   -0.11368E-04  3508   0.103E-02    0.399E-02
RMM:   9    -0.232635940043E+04    0.19862E-04   -0.48317E-05  3125   0.547E-03    0.289E-02
RMM:  10    -0.232635938556E+04    0.14875E-04   -0.25904E-05  3028   0.484E-03    0.152E-02
RMM:  11    -0.232635937994E+04    0.56152E-05   -0.16901E-05  2932   0.422E-03
   8 F= -.23478002E+04 E0= -.23477999E+04  d E =-.407352E-01  mag=     3.0000
       N       E                     dE             d eps       ncg     rms          rms(c)
DAV:   1    -0.232629189940E+04    0.67486E-01   -0.40006E+00  4576   0.185E+00    0.674E-01
RMM:   2    -0.232636426730E+04   -0.72368E-01   -0.77854E-01  6278   0.497E-01    0.344E-01
RMM:   3    -0.232637120504E+04   -0.69377E-02   -0.89552E-02  6002   0.200E-01    0.395E-01
RMM:   4    -0.232636956718E+04    0.16379E-02   -0.76210E-03  6082   0.422E-02    0.197E-01
RMM:   5    -0.232636952226E+04    0.44916E-04   -0.11792E-03  5164   0.192E-02    0.220E-01
RMM:   6    -0.232636901800E+04    0.50426E-03   -0.85274E-04  5246   0.176E-02    0.104E-01
RMM:   7    -0.232636886836E+04    0.14964E-03   -0.28334E-04  4846   0.116E-02    0.343E-02
RMM:   8    -0.232636885543E+04    0.12923E-04   -0.56085E-05  3095   0.743E-03    0.301E-02
RMM:   9    -0.232636884158E+04    0.13853E-04   -0.21637E-05  2961   0.422E-03    0.177E-02
RMM:  10    -0.232636883427E+04    0.73154E-05   -0.13652E-05  2960   0.373E-03
   9 F= -.23478085E+04 E0= -.23478082E+04  d E =-.490258E-01  mag=     3.0000
       N       E                     dE             d eps       ncg     rms          rms(c)
DAV:   1    -0.232628598370E+04    0.82858E-01   -0.55614E+00  4544   0.196E+00    0.757E-01
RMM:   2    -0.232639973414E+04   -0.11375E+00   -0.12044E+00  6632   0.556E-01    0.538E-01
RMM:   3    -0.232641120150E+04   -0.11467E-01   -0.14141E-01  6238   0.218E-01    0.643E-01
RMM:   4    -0.232640747268E+04    0.37288E-02   -0.11851E-02  5917   0.468E-02    0.242E-01
RMM:   5    -0.232640736184E+04    0.11084E-03   -0.15355E-03  4637   0.177E-02    0.235E-01
RMM:   6    -0.232640670854E+04    0.65330E-03   -0.90299E-04  4786   0.177E-02    0.955E-02
RMM:   7    -0.232640665468E+04    0.53859E-04   -0.51638E-04  4692   0.124E-02    0.511E-02
RMM:   8    -0.232640662254E+04    0.32142E-04   -0.91479E-05  3181   0.790E-03    0.259E-02
RMM:   9    -0.232640662125E+04    0.12819E-05   -0.28181E-05  2948   0.403E-03
  10 F= -.23478452E+04 E0= -.23478450E+04  d E =-.367797E-01  mag=     3.0000
       N       E                     dE             d eps       ncg     rms          rms(c)
DAV:   1    -0.232535687392E+04    0.10497E+01   -0.49908E+01  4520   0.590E+00    0.230E+00
RMM:   2    -0.232641436151E+04   -0.10575E+01   -0.11244E+01  6701   0.173E+00    0.163E+00
RMM:   3    -0.232652045753E+04   -0.10610E+00   -0.13240E+00  6362   0.632E-01    0.197E+00
RMM:   4    -0.232648080917E+04    0.39648E-01   -0.10743E-01  6461   0.141E-01    0.696E-01
RMM:   5    -0.232648002660E+04    0.78257E-03   -0.14116E-02  5989   0.518E-02    0.726E-01
RMM:   6    -0.232647546325E+04    0.45634E-02   -0.78824E-03  5618   0.473E-02    0.401E-01
RMM:   7    -0.232647411628E+04    0.13470E-02   -0.63045E-03  5550   0.396E-02    0.191E-01
RMM:   8    -0.232647370009E+04    0.41619E-03   -0.11910E-03  4792   0.234E-02    0.102E-01
RMM:   9    -0.232647366300E+04    0.37084E-04   -0.40002E-04  3772   0.119E-02    0.976E-02
RMM:  10    -0.232647354375E+04    0.11925E-03   -0.17263E-04  3286   0.860E-03    0.400E-02
RMM:  11    -0.232647353952E+04    0.42287E-05   -0.70956E-05  3096   0.533E-03
  11 F= -.23479092E+04 E0= -.23479090E+04  d E =-.100768E+00  mag=     3.0000
       N       E                     dE             d eps       ncg     rms          rms(c)
DAV:   1    -0.232630338643E+04    0.17016E+00   -0.81168E+00  4528   0.239E+00    0.913E-01
RMM:   2    -0.232647029692E+04   -0.16691E+00   -0.17709E+00  6660   0.672E-01    0.649E-01
RMM:   3    -0.232648795678E+04   -0.17660E-01   -0.20615E-01  6257   0.266E-01    0.807E-01
RMM:   4    -0.232648174826E+04    0.62085E-02   -0.17297E-02  6103   0.570E-02    0.283E-01
RMM:   5    -0.232648173599E+04    0.12272E-04   -0.23907E-03  5167   0.215E-02    0.306E-01
RMM:   6    -0.232648077174E+04    0.96425E-03   -0.13499E-03  4963   0.206E-02    0.138E-01
RMM:   7    -0.232648062544E+04    0.14630E-03   -0.91340E-04  5141   0.157E-02    0.711E-02
RMM:   8    -0.232648056803E+04    0.57409E-04   -0.15501E-04  3468   0.886E-03    0.335E-02
RMM:   9    -0.232648057288E+04   -0.48500E-05   -0.45591E-05  3016   0.496E-03
  12 F= -.23479151E+04 E0= -.23479149E+04  d E =-.106675E+00  mag=     3.0000
       N       E                     dE             d eps       ncg     rms          rms(c)
DAV:   1    -0.232624040358E+04    0.24016E+00   -0.14348E+01  4520   0.319E+00    0.123E+00
RMM:   2    -0.232649943297E+04   -0.25903E+00   -0.27791E+00  6564   0.858E-01    0.805E-01
RMM:   3    -0.232653579728E+04   -0.36364E-01   -0.35715E-01  6246   0.369E-01    0.124E+00
RMM:   4    -0.232652299402E+04    0.12803E-01   -0.30089E-02  6334   0.771E-02    0.406E-01
RMM:   5    -0.232652244268E+04    0.55133E-03   -0.43819E-03  5761   0.322E-02    0.383E-01
RMM:   6    -0.232652075145E+04    0.16912E-02   -0.27639E-03  5316   0.302E-02    0.178E-01
RMM:   7    -0.232652045231E+04    0.29914E-03   -0.14078E-03  5490   0.219E-02    0.105E-01
RMM:   8    -0.232652035198E+04    0.10033E-03   -0.36502E-04  4018   0.122E-02    0.674E-02
RMM:   9    -0.232652029958E+04    0.52398E-04   -0.10444E-04  3226   0.686E-03    0.404E-02
RMM:  10    -0.232652027692E+04    0.22662E-04   -0.38331E-05  2985   0.509E-03    0.233E-02
RMM:  11    -0.232652027549E+04    0.14320E-05   -0.24328E-05  3016   0.388E-03
  13 F= -.23479531E+04 E0= -.23479529E+04  d E =-.379906E-01  mag=     3.0000
       N       E                     dE             d eps       ncg     rms          rms(c)
DAV:   1    -0.232649554637E+04    0.24731E-01   -0.14501E+00  4656   0.998E-01    0.387E-01
RMM:   2    -0.232652126468E+04   -0.25718E-01   -0.27463E-01  6515   0.268E-01    0.276E-01
RMM:   3    -0.232652501886E+04   -0.37542E-02   -0.35120E-02  5991   0.123E-01    0.420E-01
RMM:   4    -0.232652347097E+04    0.15479E-02   -0.30184E-03  5038   0.253E-02    0.118E-01
RMM:   5    -0.232652344866E+04    0.22310E-04   -0.46917E-04  3907   0.113E-02    0.123E-01
RMM:   6    -0.232652325970E+04    0.18896E-03   -0.28369E-04  4154   0.108E-02    0.517E-02
RMM:   7    -0.232652324046E+04    0.19236E-04   -0.12118E-04  3657   0.802E-03    0.336E-02
RMM:   8    -0.232652323129E+04    0.91721E-05   -0.34360E-05  3010   0.557E-03
  14 F= -.23479555E+04 E0= -.23479553E+04  d E =-.404131E-01  mag=     3.0000
       N       E                     dE             d eps       ncg     rms          rms(c)
DAV:   1    -0.232637471686E+04    0.14852E+00   -0.88934E+00  4524   0.235E+00    0.951E-01
RMM:   2    -0.232654388474E+04   -0.16917E+00   -0.18061E+00  6614   0.656E-01    0.699E-01
RMM:   3    -0.232656745690E+04   -0.23572E-01   -0.23441E-01  6151   0.312E-01    0.101E+00
RMM:   4    -0.232655849478E+04    0.89621E-02   -0.18778E-02  6010   0.609E-02    0.318E-01
RMM:   5    -0.232655808754E+04    0.40724E-03   -0.29586E-03  5483   0.257E-02    0.285E-01
RMM:   6    -0.232655723846E+04    0.84907E-03   -0.19968E-03  5421   0.229E-02    0.156E-01
RMM:   7    -0.232655695568E+04    0.28278E-03   -0.72782E-04  5266   0.157E-02    0.540E-02
RMM:   8    -0.232655694812E+04    0.75635E-05   -0.11863E-04  3311   0.770E-03    0.384E-02
RMM:   9    -0.232655694208E+04    0.60428E-05   -0.38366E-05  3012   0.498E-03
  15 F= -.23479884E+04 E0= -.23479881E+04  d E =-.329069E-01  mag=     3.0000
       N       E                     dE             d eps       ncg     rms          rms(c)
DAV:   1    -0.232643518904E+04    0.12176E+00   -0.64500E+00  4528   0.199E+00    0.812E-01
RMM:   2    -0.232655793407E+04   -0.12275E+00   -0.13043E+00  6609   0.561E-01    0.642E-01
RMM:   3    -0.232657451171E+04   -0.16578E-01   -0.16725E-01  6130   0.258E-01    0.882E-01
RMM:   4    -0.232656756359E+04    0.69481E-02   -0.13560E-02  5867   0.527E-02    0.267E-01
RMM:   5    -0.232656730552E+04    0.25807E-03   -0.21585E-03  5319   0.221E-02    0.247E-01
RMM:   6    -0.232656664471E+04    0.66081E-03   -0.14547E-03  5281   0.199E-02    0.127E-01
RMM:   7    -0.232656649811E+04    0.14660E-03   -0.54825E-04  4976   0.137E-02    0.527E-02
RMM:   8    -0.232656650024E+04   -0.21257E-05   -0.98992E-05  3245   0.735E-03
  16 F= -.23479974E+04 E0= -.23479970E+04  d E =-.418119E-01  mag=     3.0000
       N       E                     dE             d eps       ncg     rms          rms(c)
DAV:   1    -0.232643914478E+04    0.12735E+00   -0.94250E+00  4520   0.238E+00    0.918E-01
RMM:   2    -0.232659150955E+04   -0.15236E+00   -0.16377E+00  6589   0.646E-01    0.593E-01
RMM:   3    -0.232660628208E+04   -0.14773E-01   -0.19245E-01  6312   0.257E-01    0.642E-01
RMM:   4    -0.232660302313E+04    0.32589E-02   -0.16131E-02  6079   0.538E-02    0.324E-01
RMM:   5    -0.232660276282E+04    0.26032E-03   -0.21583E-03  5115   0.229E-02    0.294E-01
RMM:   6    -0.232660210927E+04    0.65355E-03   -0.17688E-03  5571   0.224E-02    0.200E-01
RMM:   7    -0.232660169922E+04    0.41005E-03   -0.11004E-03  5355   0.190E-02    0.768E-02
RMM:   8    -0.232660167344E+04    0.25778E-04   -0.17081E-04  3304   0.826E-03    0.640E-02
RMM:   9    -0.232660163922E+04    0.34226E-04   -0.60576E-05  3059   0.605E-03    0.366E-02
RMM:  10    -0.232660164379E+04   -0.45727E-05   -0.24294E-05  2980   0.368E-03
  17 F= -.23480322E+04 E0= -.23480319E+04  d E =-.348913E-01  mag=     3.0000
       N       E                     dE             d eps       ncg     rms          rms(c)
DAV:   1    -0.232626627208E+04    0.33537E+00   -0.20228E+01  4520   0.351E+00    0.135E+00
RMM:   2    -0.232660047129E+04   -0.33420E+00   -0.35914E+00  6606   0.958E-01    0.885E-01
RMM:   3    -0.232663234475E+04   -0.31873E-01   -0.43604E-01  6338   0.386E-01    0.903E-01
RMM:   4    -0.232662585374E+04    0.64910E-02   -0.34788E-02  6403   0.789E-02    0.462E-01
RMM:   5    -0.232662516477E+04    0.68896E-03   -0.44558E-03  5494   0.314E-02    0.419E-01
RMM:   6    -0.232662409684E+04    0.10679E-02   -0.38458E-03  5874   0.324E-02    0.325E-01
RMM:   7    -0.232662291035E+04    0.11865E-02   -0.25292E-03  5790   0.285E-02    0.106E-01
RMM:   8    -0.232662280690E+04    0.10345E-03   -0.29947E-04  3935   0.107E-02    0.733E-02
RMM:   9    -0.232662278648E+04    0.20419E-04   -0.13336E-04  3223   0.742E-03    0.621E-02
RMM:  10    -0.232662275314E+04    0.33336E-04   -0.51400E-05  3027   0.563E-03    0.393E-02
RMM:  11    -0.232662276296E+04   -0.98178E-05   -0.52801E-05  3049   0.482E-03
  18 F= -.23480531E+04 E0= -.23480527E+04  d E =-.557105E-01  mag=     3.0000
       N       E                     dE             d eps       ncg     rms          rms(c)
DAV:   1    -0.232650319467E+04    0.11956E+00   -0.10648E+01  4552   0.256E+00    0.915E-01
RMM:   2    -0.232665107389E+04   -0.14788E+00   -0.15901E+00  6550   0.657E-01    0.533E-01
RMM:   3    -0.232665974400E+04   -0.86701E-02   -0.16360E-01  6244   0.231E-01    0.446E-01
RMM:   4    -0.232665902233E+04    0.72167E-03   -0.14162E-02  6280   0.505E-02    0.323E-01
RMM:   5    -0.232665866715E+04    0.35518E-03   -0.23352E-03  5279   0.248E-02    0.322E-01
RMM:   6    -0.232665809647E+04    0.57068E-03   -0.24412E-03  5526   0.262E-02    0.248E-01
RMM:   7    -0.232665751185E+04    0.58462E-03   -0.11129E-03  5373   0.181E-02    0.746E-02
RMM:   8    -0.232665748396E+04    0.27896E-04   -0.13094E-04  3301   0.803E-03    0.535E-02
RMM:   9    -0.232665746251E+04    0.21447E-04   -0.51624E-05  3062   0.557E-03    0.371E-02
RMM:  10    -0.232665746409E+04   -0.15766E-05   -0.36491E-05  3023   0.421E-03
  19 F= -.23480879E+04 E0= -.23480876E+04  d E =-.348334E-01  mag=     3.0000
       N       E                     dE             d eps       ncg     rms          rms(c)
DAV:   1    -0.232654042396E+04    0.11704E+00   -0.88383E+00  4520   0.236E+00    0.830E-01
RMM:   2    -0.232666394070E+04   -0.12352E+00   -0.13274E+00  6531   0.606E-01    0.484E-01
RMM:   3    -0.232667103932E+04   -0.70986E-02   -0.13693E-01  6213   0.215E-01    0.387E-01
RMM:   4    -0.232667040389E+04    0.63543E-03   -0.11642E-02  6223   0.450E-02    0.273E-01
RMM:   5    -0.232666994406E+04    0.45983E-03   -0.20897E-03  5456   0.240E-02    0.221E-01
RMM:   6    -0.232666945217E+04    0.49189E-03   -0.17771E-03  5566   0.250E-02    0.120E-01
RMM:   7    -0.232666941833E+04    0.33837E-04   -0.42482E-04  4062   0.128E-02    0.102E-01
RMM:   8    -0.232666930776E+04    0.11058E-03   -0.94301E-05  3143   0.645E-03    0.459E-02
RMM:   9    -0.232666929693E+04    0.10827E-04   -0.40379E-05  2999   0.484E-03    0.326E-02
RMM:  10    -0.232666929097E+04    0.59629E-05   -0.28173E-05  2996   0.366E-03
  20 F= -.23480999E+04 E0= -.23480996E+04  d E =-.467988E-01  mag=     3.0000
       N       E                     dE             d eps       ncg     rms          rms(c)
DAV:   1    -0.232649907562E+04    0.17022E+00   -0.11434E+01  4520   0.275E+00    0.983E-01
RMM:   2    -0.232668804556E+04   -0.18897E+00   -0.20383E+00  6593   0.739E-01    0.492E-01
RMM:   3    -0.232669878370E+04   -0.10738E-01   -0.21320E-01  6091   0.274E-01    0.332E-01
RMM:   4    -0.232669904851E+04   -0.26481E-03   -0.16861E-02  5980   0.509E-02    0.268E-01
RMM:   5    -0.232669928625E+04   -0.23773E-03   -0.25278E-03  5558   0.254E-02    0.358E-01
RMM:   6    -0.232669808403E+04    0.12022E-02   -0.19428E-03  5588   0.246E-02    0.101E-01
RMM:   7    -0.232669811312E+04   -0.29091E-04   -0.43097E-04  4008   0.122E-02    0.104E-01
RMM:   8    -0.232669797351E+04    0.13960E-03   -0.12202E-04  3180   0.746E-03    0.407E-02
RMM:   9    -0.232669795465E+04    0.18860E-04   -0.43080E-05  3066   0.490E-03    0.229E-02
RMM:  10    -0.232669795164E+04    0.30184E-05   -0.28875E-05  2952   0.386E-03
  21 F= -.23481283E+04 E0= -.23481281E+04  d E =-.284015E-01  mag=     3.0000
       N       E                     dE             d eps       ncg     rms          rms(c)
DAV:   1    -0.232663083397E+04    0.67121E-01   -0.41851E+00  4544   0.166E+00    0.594E-01
RMM:   2    -0.232670043179E+04   -0.69598E-01   -0.74930E-01  6598   0.447E-01    0.307E-01
RMM:   3    -0.232670402154E+04   -0.35897E-02   -0.72759E-02  6089   0.156E-01    0.219E-01
RMM:   4    -0.232670426111E+04   -0.23957E-03   -0.61386E-03  5392   0.312E-02    0.238E-01
RMM:   5    -0.232670378877E+04    0.47233E-03   -0.89520E-04  4411   0.169E-02    0.143E-01
RMM:   6    -0.232670378381E+04    0.49616E-05   -0.88785E-04  5193   0.163E-02    0.148E-01
RMM:   7    -0.232670357443E+04    0.20938E-03   -0.30030E-04  3741   0.108E-02    0.467E-02
RMM:   8    -0.232670356756E+04    0.68679E-05   -0.54993E-05  3097   0.542E-03
  22 F= -.23481337E+04 E0= -.23481335E+04  d E =-.338686E-01  mag=     3.0000
       N       E                     dE             d eps       ncg     rms          rms(c)
DAV:   1    -0.232658489033E+04    0.11868E+00   -0.97522E+00  4520   0.256E+00    0.866E-01
RMM:   2    -0.232671875597E+04   -0.13387E+00   -0.14187E+00  6524   0.644E-01    0.580E-01
RMM:   3    -0.232672505162E+04   -0.62956E-02   -0.13335E-01  6173   0.220E-01    0.580E-01
RMM:   4    -0.232672298582E+04    0.20658E-02   -0.13066E-02  6108   0.505E-02    0.382E-01
RMM:   5    -0.232672226917E+04    0.71665E-03   -0.22523E-03  5549   0.249E-02    0.283E-01
RMM:   6    -0.232672190626E+04    0.36291E-03   -0.24717E-03  5674   0.274E-02    0.202E-01
RMM:   7    -0.232672182623E+04    0.80024E-04   -0.11574E-03  5414   0.186E-02    0.125E-01
RMM:   8    -0.232672192665E+04   -0.10042E-03   -0.25114E-04  3511   0.977E-03    0.125E-01
RMM:   9    -0.232672195811E+04   -0.31459E-04   -0.30320E-05  3024   0.484E-03    0.121E-01
RMM:  10    -0.232672167920E+04    0.27891E-03   -0.19415E-04  3272   0.730E-03    0.119E-01
RMM:  11    -0.232672123300E+04    0.44620E-03   -0.65765E-04  3795   0.119E-02    0.108E-01
RMM:  12    -0.232672068136E+04    0.55164E-03   -0.12502E-03  4028   0.165E-02    0.103E-01
RMM:  13    -0.232671992907E+04    0.75228E-03   -0.22022E-03  4190   0.219E-02    0.117E-01
RMM:  14    -0.232672053643E+04   -0.60736E-03   -0.79957E-04  3926   0.155E-02    0.912E-02
RMM:  15    -0.232672158733E+04   -0.10509E-02   -0.76284E-03  4541   0.392E-02    0.800E-02
RMM:  16    -0.232672553036E+04   -0.39430E-02   -0.24190E-02  4732   0.729E-02    0.305E-01
RMM:  17    -0.232672319125E+04    0.23391E-02   -0.63207E-03  4393   0.434E-02    0.213E-01
RMM:  18    -0.232672386234E+04   -0.67109E-03   -0.17857E-04  3696   0.123E-02    0.221E-01
RMM:  19    -0.232672384376E+04    0.18586E-04   -0.24417E-05  2939   0.337E-03    0.228E-01
RMM:  20    -0.232672337600E+04    0.46775E-03   -0.20913E-04  3309   0.683E-03    0.235E-01
RMM:  21    -0.232672241390E+04    0.96210E-03   -0.11368E-03  4053   0.155E-02    0.240E-01
RMM:  22    -0.232671949845E+04    0.29154E-02   -0.14693E-02  4656   0.553E-02    0.375E-01
RMM:  23    -0.232672113593E+04   -0.16375E-02   -0.19140E-03  4258   0.279E-02    0.280E-01
RMM:  24    -0.232672216861E+04   -0.10327E-02   -0.53764E-03  4331   0.324E-02    0.176E-01
RMM:  25    -0.232672469113E+04   -0.25225E-02   -0.86838E-03  4524   0.447E-02    0.189E-01
RMM:  26    -0.232672609987E+04   -0.14087E-02   -0.15316E-03  4026   0.225E-02    0.237E-01
RMM:  27    -0.232672615605E+04   -0.56182E-04   -0.17230E-04  3282   0.803E-03    0.250E-01
RMM:  28    -0.232672614077E+04    0.15285E-04   -0.98732E-06  2926   0.369E-03    0.251E-01
RMM:  29    -0.232672621757E+04   -0.76804E-04   -0.49852E-06  2828   0.200E-03    0.253E-01
RMM:  30    -0.232672601087E+04    0.20670E-03   -0.17780E-05  2719   0.260E-03    0.250E-01
RMM:  31    -0.232672402539E+04    0.19855E-02   -0.20937E-03  4111   0.206E-02    0.230E-01
RMM:  32    -0.232672219218E+04    0.18332E-02   -0.34317E-03  4311   0.283E-02    0.218E-01
RMM:  33    -0.232672132209E+04    0.87009E-03   -0.26058E-03  4323   0.241E-02    0.224E-01
RMM:  34    -0.232672154949E+04   -0.22741E-03   -0.16554E-04  3140   0.986E-03    0.215E-01
RMM:  35    -0.232672161972E+04   -0.70229E-04   -0.35179E-05  2947   0.485E-03    0.205E-01
RMM:  36    -0.232672253235E+04   -0.91262E-03   -0.20206E-03  4107   0.209E-02    0.166E-01
RMM:  37    -0.232672472780E+04   -0.21955E-02   -0.57880E-03  4454   0.358E-02    0.192E-01
RMM:  38    -0.232672667297E+04   -0.19452E-02   -0.25313E-03  4203   0.252E-02    0.247E-01
RMM:  39    -0.232672588092E+04    0.79204E-03   -0.34682E-04  3486   0.125E-02    0.254E-01
RMM:  40    -0.232672629006E+04   -0.40914E-03   -0.70435E-05  3100   0.486E-03    0.266E-01
RMM:  41    -0.232672613329E+04    0.15678E-03   -0.39782E-05  2921   0.404E-03    0.288E-01
RMM:  42    -0.232672459258E+04    0.15407E-02   -0.13047E-03  4033   0.165E-02    0.285E-01
RMM:  43    -0.232672275830E+04    0.18343E-02   -0.28818E-03  4269   0.257E-02    0.296E-01
RMM:  44    -0.232672265227E+04    0.10603E-03   -0.42667E-04  3588   0.123E-02    0.290E-01
RMM:  45    -0.232672243650E+04    0.21577E-03   -0.18564E-04  3363   0.694E-03    0.293E-01
RMM:  46    -0.232672258229E+04   -0.14579E-03   -0.24780E-05  2870   0.464E-03    0.288E-01
RMM:  47    -0.232672357400E+04   -0.99171E-03   -0.13197E-03  3941   0.169E-02    0.274E-01
RMM:  48    -0.232672482929E+04   -0.12553E-02   -0.14822E-03  3953   0.191E-02    0.288E-01
RMM:  49    -0.232672431597E+04    0.51332E-03   -0.16838E-04  3145   0.875E-03    0.292E-01
RMM:  50    -0.232672209218E+04    0.22238E-02   -0.41576E-03  4342   0.294E-02    0.288E-01
RMM:  51    -0.232672082244E+04    0.12697E-02   -0.43888E-03  4306   0.329E-02    0.326E-01
RMM:  52    -0.232672108845E+04   -0.26602E-03   -0.43026E-04  3479   0.131E-02    0.321E-01
RMM:  53    -0.232672095274E+04    0.13571E-03   -0.20117E-04  3424   0.715E-03    0.339E-01
RMM:  54    -0.232672095648E+04   -0.37367E-05   -0.13106E-05  2883   0.389E-03
  23 F= -.23481515E+04 E0= -.23481513E+04  d E =-.177770E-01  mag=     3.0000
       N       E                     dE             d eps       ncg     rms          rms(c)
DAV:   1    -0.232671908523E+04    0.18675E-02   -0.14882E-01  4592   0.317E-01    0.361E-01
RMM:   2    -0.232672343429E+04   -0.43491E-02   -0.27796E-02  6470   0.872E-02    0.428E-01
RMM:   3    -0.232672215420E+04    0.12801E-02   -0.45939E-03  5480   0.376E-02    0.242E-01
RMM:   4    -0.232672178484E+04    0.36937E-03   -0.87831E-04  4477   0.157E-02    0.129E-01
RMM:   5    -0.232672202533E+04   -0.24049E-03   -0.46380E-04  3828   0.115E-02    0.136E-01
RMM:   6    -0.232672210441E+04   -0.79081E-04   -0.27751E-04  3435   0.922E-03    0.115E-01
RMM:   7    -0.232672217123E+04   -0.66819E-04   -0.55236E-05  2970   0.461E-03    0.112E-01
RMM:   8    -0.232672214454E+04    0.26683E-04   -0.46266E-06  2744   0.242E-03    0.114E-01
RMM:   9    -0.232672256335E+04   -0.41880E-03   -0.37073E-04  3649   0.881E-03    0.116E-01
RMM:  10    -0.232672193794E+04    0.62541E-03   -0.71151E-04  3783   0.124E-02    0.122E-01
RMM:  11    -0.232672279123E+04   -0.85329E-03   -0.13600E-03  4095   0.171E-02    0.111E-01
RMM:  12    -0.232672686161E+04   -0.40704E-02   -0.19625E-02  4765   0.648E-02    0.198E-01
RMM:  13    -0.232672951418E+04   -0.26526E-02   -0.35887E-03  4277   0.345E-02    0.288E-01
RMM:  14    -0.232672778022E+04    0.17340E-02   -0.12033E-03  3875   0.206E-02    0.285E-01
RMM:  15    -0.232672917640E+04   -0.13962E-02   -0.11479E-03  4550   0.164E-02    0.407E-01
RMM:  16    -0.232672319682E+04    0.59796E-02   -0.14526E-02  4630   0.560E-02    0.327E-01
RMM:  17    -0.232672188713E+04    0.13097E-02   -0.53628E-03  4348   0.402E-02    0.328E-01
RMM:  18    -0.232671971573E+04    0.21714E-02   -0.13602E-02  4944   0.530E-02    0.450E-01
RMM:  19    -0.232672093924E+04   -0.12235E-02   -0.78454E-04  3805   0.237E-02    0.390E-01
RMM:  20    -0.232672158641E+04   -0.64718E-03   -0.27599E-03  4198   0.257E-02    0.222E-01
RMM:  21    -0.232672179920E+04   -0.21278E-03   -0.32820E-04  3352   0.128E-02    0.169E-01
RMM:  22    -0.232672224623E+04   -0.44703E-03   -0.69585E-04  4057   0.119E-02    0.126E-01
RMM:  23    -0.232672297137E+04   -0.72514E-03   -0.92145E-04  3903   0.149E-02    0.115E-01
RMM:  24    -0.232672362890E+04   -0.65753E-03   -0.63536E-04  3696   0.127E-02    0.129E-01
RMM:  25    -0.232672311160E+04    0.51730E-03   -0.22173E-04  3279   0.902E-03    0.139E-01
RMM:  26    -0.232672226130E+04    0.85030E-03   -0.10376E-03  3932   0.148E-02    0.137E-01
RMM:  27    -0.232672128669E+04    0.97461E-03   -0.21226E-03  4142   0.219E-02    0.149E-01
RMM:  28    -0.232672086103E+04    0.42566E-03   -0.13220E-03  3987   0.175E-02    0.166E-01
RMM:  29    -0.232672108541E+04   -0.22438E-03   -0.80219E-05  3009   0.738E-03    0.159E-01
RMM:  30    -0.232672156764E+04   -0.48223E-03   -0.84824E-04  3776   0.141E-02    0.144E-01
RMM:  31    -0.232672217294E+04   -0.60530E-03   -0.10876E-03  3866   0.161E-02    0.159E-01
RMM:  32    -0.232672246324E+04   -0.29029E-03   -0.26840E-04  3275   0.872E-03    0.178E-01
RMM:  33    -0.232672242367E+04    0.39570E-04   -0.18909E-05  2862   0.409E-03    0.179E-01
RMM:  34    -0.232672181741E+04    0.60626E-03   -0.62111E-04  3635   0.117E-02    0.171E-01
RMM:  35    -0.232672114198E+04    0.67543E-03   -0.13014E-03  3979   0.168E-02    0.172E-01
RMM:  36    -0.232672059435E+04    0.54762E-03   -0.13989E-03  3993   0.173E-02    0.185E-01
RMM:  37    -0.232672083346E+04   -0.23911E-03   -0.84534E-05  3004   0.758E-03    0.174E-01
RMM:  38    -0.232672115341E+04   -0.31994E-03   -0.40967E-04  3485   0.102E-02    0.150E-01
RMM:  39    -0.232672233855E+04   -0.11851E-02   -0.53965E-03  4415   0.337E-02    0.134E-01
RMM:  40    -0.232672447705E+04   -0.21385E-02   -0.58163E-03  4354   0.366E-02    0.205E-01
RMM:  41    -0.232672588050E+04   -0.14034E-02   -0.15343E-03  4207   0.204E-02    0.262E-01
RMM:  42    -0.232672566284E+04    0.21765E-03   -0.10878E-04  3126   0.846E-03    0.267E-01
RMM:  43    -0.232672553365E+04    0.12920E-03   -0.23363E-05  2898   0.395E-03    0.262E-01
RMM:  44    -0.232672563856E+04   -0.10491E-03   -0.66064E-06  2722   0.188E-03    0.264E-01
RMM:  45    -0.232672576254E+04   -0.12399E-03   -0.10781E-05  2595   0.183E-03    0.271E-01
RMM:  46    -0.232672555296E+04    0.20959E-03   -0.20343E-05  2656   0.247E-03    0.267E-01
RMM:  47    -0.232672532237E+04    0.23058E-03   -0.39217E-05  2825   0.313E-03    0.267E-01
RMM:  48    -0.232672402823E+04    0.12941E-02   -0.10554E-03  4064   0.147E-02    0.249E-01
RMM:  49    -0.232672372906E+04    0.29917E-03   -0.27375E-04  3308   0.952E-03    0.261E-01
RMM:  50    -0.232672251618E+04    0.12129E-02   -0.17668E-03  4202   0.186E-02    0.267E-01
RMM:  51    -0.232672236340E+04    0.15278E-03   -0.27039E-04  3305   0.104E-02    0.262E-01
RMM:  52    -0.232672222854E+04    0.13486E-03   -0.12860E-04  3244   0.587E-03    0.269E-01
RMM:  53    -0.232672211439E+04    0.11415E-03   -0.41273E-05  2945   0.426E-03    0.267E-01
RMM:  54    -0.232672211433E+04    0.57611E-07   -0.62562E-06  2762   0.249E-03
  24 F= -.23481527E+04 E0= -.23481523E+04  d E =-.189821E-01  mag=     3.0000
       N       E                     dE             d eps       ncg     rms          rms(c)
DAV:   1    -0.232663769413E+04    0.84420E-01   -0.86319E+00  4520   0.234E+00    0.843E-01
RMM:   2    -0.232674518136E+04   -0.10749E+00   -0.10745E+00  6567   0.573E-01    0.886E-01
RMM:   3    -0.232674417106E+04    0.10103E-02   -0.10188E-01  6342   0.189E-01    0.573E-01
RMM:   4    -0.232674280342E+04    0.13676E-02   -0.10505E-02  5897   0.444E-02    0.377E-01
RMM:   5    -0.232674297095E+04   -0.16753E-03   -0.17862E-03  5092   0.218E-02    0.326E-01
RMM:   6    -0.232674402147E+04   -0.10505E-02   -0.24144E-03  5189   0.260E-02    0.290E-01
RMM:   7    -0.232674553572E+04   -0.15143E-02   -0.21059E-03  4661   0.241E-02    0.269E-01
RMM:   8    -0.232674626106E+04   -0.72534E-03   -0.41599E-04  3802   0.118E-02    0.280E-01
RMM:   9    -0.232674500809E+04    0.12530E-02   -0.87221E-04  4037   0.155E-02    0.317E-01
RMM:  10    -0.232674005264E+04    0.49554E-02   -0.97368E-03  4642   0.459E-02    0.315E-01
RMM:  11    -0.232673808237E+04    0.19703E-02   -0.52538E-03  4392   0.385E-02    0.346E-01
RMM:  12    -0.232673611142E+04    0.19710E-02   -0.54913E-03  4712   0.352E-02    0.385E-01
RMM:  13    -0.232673542385E+04    0.68757E-03   -0.14533E-03  4149   0.208E-02    0.366E-01
RMM:  14    -0.232673268557E+04    0.27383E-02   -0.72571E-03  4883   0.386E-02    0.263E-01
RMM:  15    -0.232672096688E+04    0.11719E-01   -0.18780E-02  4691   0.648E-02    0.556E-01
RMM:  16    -0.232673784497E+04   -0.16878E-01   -0.88866E-02  4676   0.130E-01    0.131E-01
RMM:  17    -0.232673832159E+04   -0.47662E-03   -0.26811E-03  4494   0.453E-02    0.133E-01
RMM:  18    -0.232674024958E+04   -0.19280E-02   -0.48765E-03  4680   0.309E-02    0.136E-01
RMM:  19    -0.232674207521E+04   -0.18256E-02   -0.21091E-03  4262   0.229E-02    0.194E-01
RMM:  20    -0.232674455834E+04   -0.24831E-02   -0.31255E-03  4557   0.262E-02    0.257E-01
RMM:  21    -0.232674355621E+04    0.10021E-02   -0.44080E-04  3622   0.150E-02    0.271E-01
RMM:  22    -0.232674355540E+04    0.80712E-06   -0.36796E-05  2959   0.447E-03
  25 F= -.23481747E+04 E0= -.23481742E+04  d E =-.219979E-01  mag=     3.0000
       N       E                     dE             d eps       ncg     rms          rms(c)
DAV:   1    -0.232674064803E+04    0.29082E-02   -0.49071E-01  4576   0.562E-01    0.328E-01
RMM:   2    -0.232674926558E+04   -0.86176E-02   -0.63789E-02  6573   0.140E-01    0.373E-01
RMM:   3    -0.232674978816E+04   -0.52257E-03   -0.65062E-03  5622   0.474E-02    0.332E-01
RMM:   4    -0.232675031941E+04   -0.53125E-03   -0.98186E-04  3742   0.131E-02    0.310E-01
RMM:   5    -0.232674984425E+04    0.47515E-03   -0.21369E-04  3423   0.886E-03    0.334E-01
RMM:   6    -0.232675040219E+04   -0.55794E-03   -0.10655E-04  3143   0.590E-03    0.328E-01
RMM:   7    -0.232675275327E+04   -0.23511E-02   -0.40577E-03  4765   0.306E-02    0.274E-01
RMM:   8    -0.232675396543E+04   -0.12122E-02   -0.28987E-03  4732   0.286E-02    0.257E-01
RMM:   9    -0.232675440058E+04   -0.43515E-03   -0.67584E-03  5105   0.390E-02    0.104E-01
RMM:  10    -0.232675453214E+04   -0.13156E-03   -0.47962E-04  3833   0.159E-02    0.745E-02
RMM:  11    -0.232675477135E+04   -0.23921E-03   -0.13379E-04  3418   0.667E-03    0.551E-02
RMM:  12    -0.232675493723E+04   -0.16588E-03   -0.20184E-04  3866   0.810E-03    0.264E-02
RMM:  13    -0.232675507425E+04   -0.13701E-03   -0.29980E-04  3804   0.944E-03    0.341E-02
RMM:  14    -0.232675509616E+04   -0.21918E-04   -0.78266E-05  3056   0.560E-03    0.105E-02
RMM:  15    -0.232675513525E+04   -0.39089E-04   -0.85022E-06  2692   0.273E-03    0.858E-03
RMM:  16    -0.232675516700E+04   -0.31744E-04   -0.64406E-06  2734   0.219E-03    0.404E-03
RMM:  17    -0.232675518461E+04   -0.17617E-04   -0.25397E-06  2616   0.185E-03    0.268E-03
RMM:  18    -0.232675519526E+04   -0.10648E-04   -0.22169E-06  2541   0.158E-03    0.193E-03
RMM:  19    -0.232675519867E+04   -0.34121E-05   -0.14229E-06  2516   0.148E-03
  26 F= -.23481865E+04 E0= -.23481864E+04  d E =-.337785E-01  mag=     3.0000
       N       E                     dE             d eps       ncg     rms          rms(c)
DAV:   1    -0.232673320120E+04    0.21994E-01   -0.19491E+00  4524   0.113E+00    0.359E-01
RMM:   2    -0.232675659119E+04   -0.23390E-01   -0.23842E-01  6572   0.274E-01    0.367E-01
RMM:   3    -0.232675709285E+04   -0.50166E-03   -0.23417E-02  6009   0.907E-02    0.278E-01
RMM:   4    -0.232675646722E+04    0.62563E-03   -0.23559E-03  4654   0.212E-02    0.132E-01
RMM:   5    -0.232675638995E+04    0.77266E-04   -0.37977E-04  3861   0.109E-02    0.117E-01
RMM:   6    -0.232675626377E+04    0.12618E-03   -0.36080E-04  4377   0.120E-02    0.654E-02
RMM:   7    -0.232675623979E+04    0.23984E-04   -0.17692E-04  3761   0.833E-03    0.377E-02
RMM:   8    -0.232675622832E+04    0.11464E-04   -0.39100E-05  3005   0.562E-03    0.290E-02
RMM:   9    -0.232675621947E+04    0.88515E-05   -0.87376E-06  2865   0.289E-03
  27 F= -.23481878E+04 E0= -.23481877E+04  d E =-.350790E-01  mag=     3.0000
       N       E                     dE             d eps       ncg     rms          rms(c)
DAV:   1    -0.232669223246E+04    0.63996E-01   -0.54406E+00  4520   0.192E+00    0.642E-01
RMM:   2    -0.232677125989E+04   -0.79027E-01   -0.79618E-01  6613   0.487E-01    0.711E-01
RMM:   3    -0.232677233693E+04   -0.10770E-02   -0.81304E-02  6208   0.166E-01    0.496E-01
RMM:   4    -0.232677026369E+04    0.20732E-02   -0.76770E-03  5652   0.388E-02    0.218E-01
RMM:   5    -0.232677007300E+04    0.19069E-03   -0.10805E-03  5173   0.173E-02    0.201E-01
RMM:   6    -0.232676962772E+04    0.44528E-03   -0.10033E-03  5219   0.182E-02    0.103E-01
RMM:   7    -0.232676962633E+04    0.13958E-05   -0.49087E-04  4698   0.129E-02    0.878E-02
RMM:   8    -0.232676954757E+04    0.78757E-04   -0.14163E-04  3222   0.784E-03    0.430E-02
RMM:   9    -0.232676953186E+04    0.15710E-04   -0.24659E-05  3029   0.441E-03    0.184E-02
RMM:  10    -0.232676952825E+04    0.36092E-05   -0.11582E-05  2893   0.276E-03
  28 F= -.23482015E+04 E0= -.23482014E+04  d E =-.136694E-01  mag=     3.0000
       N       E                     dE             d eps       ncg     rms          rms(c)
DAV:   1    -0.232671734164E+04    0.52190E-01   -0.39507E+00  4520   0.163E+00    0.544E-01
RMM:   2    -0.232677455061E+04   -0.57209E-01   -0.57812E-01  6605   0.414E-01    0.589E-01
RMM:   3    -0.232677570110E+04   -0.11505E-02   -0.59044E-02  6168   0.141E-01    0.426E-01
RMM:   4    -0.232677411322E+04    0.15879E-02   -0.55681E-03  5472   0.331E-02    0.183E-01
RMM:   5    -0.232677397773E+04    0.13550E-03   -0.75944E-04  4900   0.146E-02    0.168E-01
RMM:   6    -0.232677366768E+04    0.31004E-03   -0.74007E-04  5042   0.157E-02    0.877E-02
RMM:   7    -0.232677365956E+04    0.81207E-05   -0.34882E-04  4365   0.110E-02    0.721E-02
RMM:   8    -0.232677360713E+04    0.52430E-04   -0.96688E-05  3140   0.700E-03    0.363E-02
RMM:   9    -0.232677359648E+04    0.10657E-04   -0.17580E-05  2989   0.386E-03    0.158E-02
RMM:  10    -0.232677359438E+04    0.20965E-05   -0.85693E-06  2869   0.253E-03
  29 F= -.23482059E+04 E0= -.23482057E+04  d E =-.180636E-01  mag=     3.0000
       N       E                     dE             d eps       ncg     rms          rms(c)
DAV:   1    -0.232677599823E+04   -0.24018E-02   -0.42858E-01  4592   0.634E-01    0.222E-01
RMM:   2    -0.232678056054E+04   -0.45623E-02   -0.49474E-02  6056   0.146E-01    0.144E-01
RMM:   3    -0.232678098595E+04   -0.42541E-03   -0.54166E-03  5720   0.556E-02    0.179E-01
RMM:   4    -0.232678070093E+04    0.28502E-03   -0.57215E-04  4242   0.138E-02    0.723E-02
RMM:   5    -0.232678068408E+04    0.16849E-04   -0.19664E-04  3957   0.102E-02    0.673E-02
RMM:   6    -0.232678063367E+04    0.50410E-04   -0.14276E-04  4123   0.878E-03    0.345E-02
RMM:   7    -0.232678062025E+04    0.13423E-04   -0.34610E-05  3063   0.628E-03    0.171E-02
RMM:   8    -0.232678061729E+04    0.29606E-05   -0.10694E-05  2892   0.387E-03
  30 F= -.23482131E+04 E0= -.23482130E+04  d E =-.726116E-02  mag=     3.0000
       N       E                     dE             d eps       ncg     rms          rms(c)
DAV:   1    -0.232677473078E+04    0.58895E-02   -0.77594E-01  4528   0.854E-01    0.300E-01
RMM:   2    -0.232678301624E+04   -0.82855E-02   -0.89768E-02  6062   0.197E-01    0.200E-01
RMM:   3    -0.232678379273E+04   -0.77649E-03   -0.98075E-03  5868   0.719E-02    0.246E-01
RMM:   4    -0.232678324633E+04    0.54640E-03   -0.10299E-03  5220   0.185E-02    0.969E-02
RMM:   5    -0.232678322402E+04    0.22308E-04   -0.37070E-04  4561   0.129E-02    0.936E-02
RMM:   6    -0.232678311964E+04    0.10438E-03   -0.25564E-04  4733   0.111E-02    0.452E-02
RMM:   7    -0.232678309677E+04    0.22869E-04   -0.61212E-05  3221   0.746E-03    0.247E-02
RMM:   8    -0.232678308963E+04    0.71376E-05   -0.18467E-05  2912   0.466E-03
  31 F= -.23482159E+04 E0= -.23482158E+04  d E =-.100543E-01  mag=     3.0000
       N       E                     dE             d eps       ncg     rms          rms(c)
DAV:   1    -0.232678196923E+04    0.11275E-02   -0.29429E-01  4592   0.493E-01    0.168E-01
RMM:   2    -0.232678726015E+04   -0.52909E-02   -0.55581E-02  6589   0.132E-01    0.138E-01
RMM:   3    -0.232678770988E+04   -0.44974E-03   -0.55241E-03  5024   0.437E-02    0.156E-01
RMM:   4    -0.232678747259E+04    0.23729E-03   -0.54354E-04  3386   0.114E-02    0.493E-02
RMM:   5    -0.232678744403E+04    0.28565E-04   -0.77245E-05  3108   0.640E-03    0.317E-02
RMM:   6    -0.232678744853E+04   -0.45020E-05   -0.64227E-05  3115   0.618E-03
  32 F= -.23482207E+04 E0= -.23482206E+04  d E =-.477918E-02  mag=     3.0000
       N       E                     dE             d eps       ncg     rms          rms(c)
DAV:   1    -0.232674530344E+04    0.42141E-01   -0.26424E+00  4520   0.148E+00    0.503E-01
RMM:   2    -0.232679278282E+04   -0.47479E-01   -0.50038E-01  6554   0.396E-01    0.398E-01
RMM:   3    -0.232679720261E+04   -0.44198E-02   -0.51186E-02  6093   0.131E-01    0.485E-01
RMM:   4    -0.232679491464E+04    0.22880E-02   -0.49857E-03  5663   0.324E-02    0.148E-01
RMM:   5    -0.232679464651E+04    0.26812E-03   -0.70231E-04  4574   0.155E-02    0.904E-02
RMM:   6    -0.232679464519E+04    0.13284E-05   -0.52615E-04  4698   0.156E-02    0.890E-02
RMM:   7    -0.232679455809E+04    0.87098E-04   -0.13155E-04  3538   0.831E-03    0.280E-02
RMM:   8    -0.232679455516E+04    0.29271E-05   -0.24992E-05  2974   0.476E-03
  33 F= -.23482291E+04 E0= -.23482289E+04  d E =-.131465E-01  mag=     3.0000
       N       E                     dE             d eps       ncg     rms          rms(c)
DAV:   1    -0.232678539218E+04    0.91659E-02   -0.51070E-01  4528   0.647E-01    0.223E-01
RMM:   2    -0.232679451631E+04   -0.91241E-02   -0.95698E-02  6567   0.173E-01    0.189E-01
RMM:   3    -0.232679534302E+04   -0.82671E-03   -0.94147E-03  5478   0.562E-02    0.208E-01
RMM:   4    -0.232679490883E+04    0.43419E-03   -0.94571E-04  3654   0.145E-02    0.661E-02
RMM:   5    -0.232679487740E+04    0.31432E-04   -0.15177E-04  3425   0.812E-03    0.553E-02
RMM:   6    -0.232679485750E+04    0.19898E-04   -0.11419E-04  3224   0.789E-03    0.382E-02
RMM:   7    -0.232679484054E+04    0.16962E-04   -0.37211E-05  3134   0.580E-03    0.136E-02
RMM:   8    -0.232679484097E+04   -0.42838E-06   -0.87206E-06  2882   0.374E-03
  34 F= -.23482299E+04 E0= -.23482297E+04  d E =-.139856E-01  mag=     3.0000
       N       E                     dE             d eps       ncg     rms          rms(c)
DAV:   1    -0.232679036307E+04    0.44775E-02   -0.59509E-01  4528   0.704E-01    0.247E-01
RMM:   2    -0.232680044627E+04   -0.10083E-01   -0.10655E-01  6454   0.186E-01    0.182E-01
RMM:   3    -0.232680137938E+04   -0.93311E-03   -0.98967E-03  5469   0.624E-02    0.222E-01
RMM:   4    -0.232680087851E+04    0.50087E-03   -0.10703E-03  3769   0.153E-02    0.805E-02
RMM:   5    -0.232680086934E+04    0.91683E-05   -0.23119E-04  3567   0.924E-03    0.807E-02
RMM:   6    -0.232680079015E+04    0.79190E-04   -0.16857E-04  3501   0.907E-03    0.412E-02
RMM:   7    -0.232680078325E+04    0.69008E-05   -0.58348E-05  3163   0.620E-03
  35 F= -.23482366E+04 E0= -.23482364E+04  d E =-.668244E-02  mag=     3.0000
       N       E                     dE             d eps       ncg     rms          rms(c)
DAV:   1    -0.232675418219E+04    0.46608E-01   -0.28841E+00  4520   0.155E+00    0.546E-01
RMM:   2    -0.232680341331E+04   -0.49231E-01   -0.51948E-01  6533   0.414E-01    0.408E-01
RMM:   3    -0.232680812559E+04   -0.47123E-02   -0.49669E-02  5907   0.140E-01    0.509E-01
RMM:   4    -0.232680541235E+04    0.27132E-02   -0.52434E-03  5613   0.335E-02    0.176E-01
RMM:   5    -0.232680536301E+04    0.49347E-04   -0.10944E-03  5136   0.180E-02    0.181E-01
RMM:   6    -0.232680500096E+04    0.36204E-03   -0.80908E-04  5094   0.173E-02    0.107E-01
RMM:   7    -0.232680493840E+04    0.62560E-04   -0.32861E-04  4030   0.112E-02    0.793E-02
RMM:   8    -0.232680489692E+04    0.41483E-04   -0.91391E-05  3171   0.706E-03    0.260E-02
RMM:   9    -0.232680491077E+04   -0.13845E-04   -0.27653E-05  2993   0.446E-03    0.236E-02
RMM:  10    -0.232680492715E+04   -0.16385E-04   -0.13850E-05  2953   0.305E-03    0.114E-02
RMM:  11    -0.232680494381E+04   -0.16658E-04   -0.75713E-06  2876   0.264E-03    0.465E-03
RMM:  12    -0.232680495041E+04   -0.66058E-05   -0.33189E-06  2780   0.232E-03
  36 F= -.23482424E+04 E0= -.23482422E+04  d E =-.124815E-01  mag=     3.0000
       N       E                     dE             d eps       ncg     rms          rms(c)
DAV:   1    -0.232678935194E+04    0.15592E-01   -0.11697E+00  4528   0.961E-01    0.330E-01
RMM:   2    -0.232681028415E+04   -0.20932E-01   -0.22316E-01  6547   0.261E-01    0.195E-01
RMM:   3    -0.232681176473E+04   -0.14806E-02   -0.21850E-02  5946   0.873E-02    0.209E-01
RMM:   4    -0.232681149236E+04    0.27237E-03   -0.20596E-03  4099   0.189E-02    0.126E-01
RMM:   5    -0.232681139696E+04    0.95400E-04   -0.31406E-04  3716   0.103E-02    0.928E-02
RMM:   6    -0.232681133602E+04    0.60937E-04   -0.30397E-04  4090   0.110E-02    0.677E-02
RMM:   7    -0.232681128533E+04    0.50688E-04   -0.11089E-04  3525   0.752E-03    0.280E-02
RMM:   8    -0.232681128591E+04   -0.57774E-06   -0.26926E-05  2953   0.509E-03
  37 F= -.23482496E+04 E0= -.23482494E+04  d E =-.719229E-02  mag=     3.0000
       N       E                     dE             d eps       ncg     rms          rms(c)
DAV:   1    -0.232676555560E+04    0.45730E-01   -0.25650E+00  4520   0.142E+00    0.489E-01
RMM:   2    -0.232681154006E+04   -0.45984E-01   -0.49026E-01  6527   0.389E-01    0.291E-01
RMM:   3    -0.232681478672E+04   -0.32467E-02   -0.48029E-02  6149   0.129E-01    0.311E-01
RMM:   4    -0.232681419467E+04    0.59205E-03   -0.45458E-03  5356   0.277E-02    0.190E-01
RMM:   5    -0.232681399306E+04    0.20161E-03   -0.69420E-04  4619   0.141E-02    0.141E-01
RMM:   6    -0.232681383815E+04    0.15491E-03   -0.65690E-04  4849   0.151E-02    0.968E-02
RMM:   7    -0.232681373298E+04    0.10517E-03   -0.23098E-04  4402   0.101E-02    0.383E-02
RMM:   8    -0.232681373666E+04   -0.36810E-05   -0.51781E-05  2996   0.610E-03
  38 F= -.23482533E+04 E0= -.23482531E+04  d E =-.109162E-01  mag=     3.0000
       N       E                     dE             d eps       ncg     rms          rms(c)
DAV:   1    -0.232680399494E+04    0.97380E-02   -0.94155E-01  4528   0.835E-01    0.277E-01
RMM:   2    -0.232681790693E+04   -0.13912E-01   -0.14623E-01  6448   0.219E-01    0.211E-01
RMM:   3    -0.232681862112E+04   -0.71419E-03   -0.15050E-02  5899   0.763E-02    0.165E-01
RMM:   4    -0.232681833605E+04    0.28507E-03   -0.13585E-03  4164   0.181E-02    0.919E-02
RMM:   5    -0.232681830738E+04    0.28676E-04   -0.22357E-04  3519   0.926E-03    0.904E-02
RMM:   6    -0.232681824934E+04    0.58036E-04   -0.19107E-04  3411   0.909E-03    0.640E-02
RMM:   7    -0.232681822101E+04    0.28331E-04   -0.10742E-04  3354   0.745E-03    0.288E-02
RMM:   8    -0.232681822279E+04   -0.17799E-05   -0.27406E-05  2956   0.524E-03
  39 F= -.23482582E+04 E0= -.23482580E+04  d E =-.493047E-02  mag=     3.0000
       N       E                     dE             d eps       ncg     rms          rms(c)
DAV:   1    -0.232677058449E+04    0.47637E-01   -0.31930E+00  4520   0.154E+00    0.507E-01
RMM:   2    -0.232681759204E+04   -0.47008E-01   -0.49558E-01  6468   0.404E-01    0.368E-01
RMM:   3    -0.232682014821E+04   -0.25562E-02   -0.51322E-02  6212   0.140E-01    0.289E-01
RMM:   4    -0.232681926864E+04    0.87957E-03   -0.45496E-03  5715   0.319E-02    0.171E-01
RMM:   5    -0.232681912937E+04    0.13927E-03   -0.77901E-04  4547   0.151E-02    0.168E-01
RMM:   6    -0.232681896036E+04    0.16901E-03   -0.63001E-04  4651   0.146E-02    0.125E-01
RMM:   7    -0.232681881293E+04    0.14743E-03   -0.35309E-04  4518   0.115E-02    0.293E-02
RMM:   8    -0.232681881331E+04   -0.37867E-06   -0.39124E-05  2983   0.631E-03
  40 F= -.23482596E+04 E0= -.23482594E+04  d E =-.634597E-02  mag=     3.0000
       N       E                     dE             d eps       ncg     rms          rms(c)
DAV:   1    -0.232681418639E+04    0.46265E-02   -0.36974E-01  4592   0.522E-01    0.169E-01
RMM:   2    -0.232681962986E+04   -0.54435E-02   -0.56887E-02  6490   0.135E-01    0.136E-01
RMM:   3    -0.232681991398E+04   -0.28412E-03   -0.59256E-03  5370   0.478E-02    0.109E-01
RMM:   4    -0.232681980897E+04    0.10501E-03   -0.53486E-04  3360   0.117E-02    0.619E-02
RMM:   5    -0.232681978802E+04    0.20949E-04   -0.82663E-05  3217   0.619E-03    0.536E-02
RMM:   6    -0.232681976829E+04    0.19731E-04   -0.89129E-05  3189   0.639E-03    0.419E-02
RMM:   7    -0.232681975479E+04    0.13495E-04   -0.46837E-05  3083   0.530E-03    0.224E-02
RMM:   8    -0.232681975219E+04    0.26068E-05   -0.12590E-05  2881   0.372E-03
  41 F= -.23482603E+04 E0= -.23482601E+04  d E =-.700344E-02  mag=     3.0000
       N       E                     dE             d eps       ncg     rms          rms(c)
DAV:   1    -0.232681443104E+04    0.53237E-02   -0.78375E-01  4528   0.769E-01    0.241E-01
RMM:   2    -0.232682265508E+04   -0.82240E-02   -0.86377E-02  6304   0.189E-01    0.152E-01
RMM:   3    -0.232682329918E+04   -0.64411E-03   -0.83305E-03  5929   0.636E-02    0.208E-01
RMM:   4    -0.232682287998E+04    0.41920E-03   -0.83280E-04  4055   0.154E-02    0.659E-02
RMM:   5    -0.232682288310E+04   -0.31160E-05   -0.20285E-04  3835   0.953E-03    0.744E-02
RMM:   6    -0.232682283136E+04    0.51735E-04   -0.12641E-04  3201   0.860E-03    0.401E-02
RMM:   7    -0.232682282506E+04    0.62971E-05   -0.41779E-05  3041   0.634E-03
  42 F= -.23482639E+04 E0= -.23482637E+04  d E =-.362321E-02  mag=     3.0000
       N       E                     dE             d eps       ncg     rms          rms(c)
DAV:   1    -0.232681327336E+04    0.95580E-02   -0.94081E-01  4524   0.843E-01    0.266E-01
RMM:   2    -0.232682314660E+04   -0.98732E-02   -0.10405E-01  6325   0.208E-01    0.160E-01
RMM:   3    -0.232682392696E+04   -0.78036E-03   -0.10134E-02  5961   0.707E-02    0.219E-01
RMM:   4    -0.232682344999E+04    0.47697E-03   -0.99715E-04  4298   0.170E-02    0.718E-02
RMM:   5    -0.232682343003E+04    0.19960E-04   -0.23312E-04  4072   0.103E-02    0.673E-02
RMM:   6    -0.232682340101E+04    0.29022E-04   -0.15317E-04  3300   0.935E-03    0.496E-02
RMM:   7    -0.232682338396E+04    0.17052E-04   -0.44297E-05  3013   0.645E-03    0.287E-02
RMM:   8    -0.232682337619E+04    0.77652E-05   -0.15249E-05  2914   0.446E-03
  43 F= -.23482651E+04 E0= -.23482648E+04  d E =-.477741E-02  mag=     3.0000
       N       E                     dE             d eps       ncg     rms          rms(c)
DAV:   1    -0.232681977682E+04    0.36071E-02   -0.71091E-01  4528   0.652E-01    0.191E-01
RMM:   2    -0.232682581353E+04   -0.60367E-02   -0.63268E-02  6516   0.153E-01    0.111E-01
RMM:   3    -0.232682635238E+04   -0.53885E-03   -0.64310E-03  5409   0.491E-02    0.162E-01
RMM:   4    -0.232682616003E+04    0.19235E-03   -0.60857E-04  3306   0.116E-02    0.577E-02
RMM:   5    -0.232682613980E+04    0.20236E-04   -0.11032E-04  3266   0.731E-03    0.476E-02
RMM:   6    -0.232682613555E+04    0.42476E-05   -0.77148E-05  3117   0.668E-03
  44 F= -.23482683E+04 E0= -.23482681E+04  d E =-.323737E-02  mag=     3.0000
       N       E                     dE             d eps       ncg     rms          rms(c)
DAV:   1    -0.232677212473E+04    0.54015E-01   -0.63794E+00  4520   0.195E+00    0.576E-01
RMM:   2    -0.232682673031E+04   -0.54606E-01   -0.57364E-01  6504   0.459E-01    0.324E-01
RMM:   3    -0.232683161760E+04   -0.48873E-02   -0.58201E-02  6173   0.147E-01    0.482E-01
RMM:   4    -0.232682998079E+04    0.16368E-02   -0.55810E-03  5750   0.334E-02    0.177E-01
RMM:   5    -0.232682973493E+04    0.24586E-03   -0.97883E-04  4898   0.192E-02    0.136E-01
RMM:   6    -0.232682976434E+04   -0.29406E-04   -0.72313E-04  4746   0.166E-02    0.142E-01
RMM:   7    -0.232682952411E+04    0.24023E-03   -0.28679E-04  4356   0.115E-02    0.367E-02
RMM:   8    -0.232682951563E+04    0.84824E-05   -0.45146E-05  3138   0.585E-03
  45 F= -.23482731E+04 E0= -.23482729E+04  d E =-.806521E-02  mag=     3.0000
       N       E                     dE             d eps       ncg     rms          rms(c)
DAV:   1    -0.232682434742E+04    0.51767E-02   -0.14257E+00  4524   0.904E-01    0.271E-01
RMM:   2    -0.232683359861E+04   -0.92512E-02   -0.95799E-02  6386   0.196E-01    0.181E-01
RMM:   3    -0.232683432050E+04   -0.72189E-03   -0.86529E-03  5690   0.649E-02    0.236E-01
RMM:   4    -0.232683371873E+04    0.60177E-03   -0.98181E-04  3980   0.174E-02    0.897E-02
RMM:   5    -0.232683371312E+04    0.56047E-05   -0.24927E-04  3472   0.972E-03    0.979E-02
RMM:   6    -0.232683363505E+04    0.78077E-04   -0.20115E-04  4028   0.944E-03    0.491E-02
RMM:   7    -0.232683361785E+04    0.17192E-04   -0.74826E-05  3169   0.710E-03    0.200E-02
RMM:   8    -0.232683361578E+04    0.20784E-05   -0.17297E-05  2913   0.453E-03
  46 F= -.23482778E+04 E0= -.23482775E+04  d E =-.461720E-02  mag=     3.0000
       N       E                     dE             d eps       ncg     rms          rms(c)
DAV:   1    -0.232681890120E+04    0.14717E-01   -0.24731E+00  4520   0.119E+00    0.358E-01
RMM:   2    -0.232683497394E+04   -0.16073E-01   -0.16636E-01  6309   0.257E-01    0.239E-01
RMM:   3    -0.232683623079E+04   -0.12569E-02   -0.14946E-02  5866   0.865E-02    0.315E-01
RMM:   4    -0.232683518132E+04    0.10495E-02   -0.17055E-03  4977   0.227E-02    0.122E-01
RMM:   5    -0.232683515966E+04    0.21663E-04   -0.43116E-04  3869   0.120E-02    0.126E-01
RMM:   6    -0.232683501433E+04    0.14533E-03   -0.36239E-04  4803   0.120E-02    0.576E-02
RMM:   7    -0.232683499764E+04    0.16688E-04   -0.11682E-04  3340   0.828E-03    0.325E-02
RMM:   8    -0.232683498832E+04    0.93268E-05   -0.33446E-05  2957   0.529E-03
  47 F= -.23482798E+04 E0= -.23482796E+04  d E =-.667734E-02  mag=     3.0000
       N       E                     dE             d eps       ncg     rms          rms(c)
DAV:   1    -0.232682901953E+04    0.59781E-02   -0.14252E+00  4528   0.842E-01    0.245E-01
RMM:   2    -0.232683763973E+04   -0.86202E-02   -0.88718E-02  6408   0.182E-01    0.183E-01
RMM:   3    -0.232683825349E+04   -0.61377E-03   -0.74848E-03  5557   0.541E-02    0.245E-01
RMM:   4    -0.232683768558E+04    0.56791E-03   -0.80729E-04  3721   0.154E-02    0.792E-02
RMM:   5    -0.232683766732E+04    0.18261E-04   -0.20076E-04  3416   0.939E-03    0.724E-02
RMM:   6    -0.232683764406E+04    0.23257E-04   -0.16178E-04  3425   0.879E-03    0.534E-02
RMM:   7    -0.232683761579E+04    0.28275E-04   -0.46785E-05  3084   0.631E-03    0.127E-02
RMM:   8    -0.232683761487E+04    0.91882E-06   -0.85074E-06  2909   0.375E-03
  48 F= -.23482831E+04 E0= -.23482829E+04  d E =-.325478E-02  mag=     3.0000
       N       E                     dE             d eps       ncg     rms          rms(c)
DAV:   1    -0.232682241004E+04    0.15206E-01   -0.26425E+00  4520   0.115E+00    0.333E-01
RMM:   2    -0.232683845896E+04   -0.16049E-01   -0.16467E-01  6519   0.249E-01    0.259E-01
RMM:   3    -0.232683958443E+04   -0.11255E-02   -0.13898E-02  5875   0.732E-02    0.338E-01
RMM:   4    -0.232683850120E+04    0.10832E-02   -0.14970E-03  4599   0.209E-02    0.107E-01
RMM:   5    -0.232683846108E+04    0.40119E-04   -0.37872E-04  4025   0.120E-02    0.964E-02
RMM:   6    -0.232683842074E+04    0.40338E-04   -0.29541E-04  3811   0.110E-02    0.720E-02
RMM:   7    -0.232683836761E+04    0.53137E-04   -0.79290E-05  3171   0.749E-03    0.164E-02
RMM:   8    -0.232683836735E+04    0.25859E-06   -0.15003E-05  2930   0.458E-03
  49 F= -.23482847E+04 E0= -.23482845E+04  d E =-.486613E-02  mag=     3.0000
       N       E                     dE             d eps       ncg     rms          rms(c)
DAV:   1    -0.232682931610E+04    0.90515E-02   -0.20379E+00  4524   0.101E+00    0.299E-01
RMM:   2    -0.232684241341E+04   -0.13097E-01   -0.13348E-01  6421   0.225E-01    0.258E-01
RMM:   3    -0.232684286945E+04   -0.45604E-03   -0.10152E-02  5955   0.648E-02    0.299E-01
RMM:   4    -0.232684207345E+04    0.79600E-03   -0.11040E-03  4534   0.180E-02    0.101E-01
RMM:   5    -0.232684211466E+04   -0.41212E-04   -0.35626E-04  3693   0.108E-02    0.114E-01
RMM:   6    -0.232684196864E+04    0.14602E-03   -0.30871E-04  4417   0.116E-02    0.484E-02
RMM:   7    -0.232684195827E+04    0.10371E-04   -0.88506E-05  3288   0.721E-03    0.347E-02
RMM:   8    -0.232684194661E+04    0.11666E-04   -0.24528E-05  2936   0.457E-03    0.135E-02
RMM:   9    -0.232684194549E+04    0.11209E-05   -0.55532E-06  2881   0.221E-03
  50 F= -.23482891E+04 E0= -.23482889E+04  d E =-.442270E-02  mag=     3.0000
       N       E                     dE             d eps       ncg     rms          rms(c)
DAV:   1    -0.232681330231E+04    0.28644E-01   -0.46450E+00  4520   0.153E+00    0.449E-01
RMM:   2    -0.232684312603E+04   -0.29824E-01   -0.30464E-01  6420   0.341E-01    0.381E-01
RMM:   3    -0.232684426548E+04   -0.11395E-02   -0.23315E-02  6143   0.100E-01    0.451E-01
RMM:   4    -0.232684247069E+04    0.17948E-02   -0.25736E-03  5616   0.272E-02    0.154E-01
RMM:   5    -0.232684252528E+04   -0.54589E-04   -0.78733E-04  4645   0.151E-02    0.170E-01
RMM:   6    -0.232684221410E+04    0.31118E-03   -0.69083E-04  5043   0.163E-02    0.785E-02
RMM:   7    -0.232684217289E+04    0.41207E-04   -0.21978E-04  3652   0.106E-02    0.489E-02
RMM:   8    -0.232684215126E+04    0.21625E-04   -0.54301E-05  3048   0.587E-03    0.224E-02
RMM:   9    -0.232684214681E+04    0.44512E-05   -0.12696E-05  2984   0.321E-03
  51 F= -.23482906E+04 E0= -.23482904E+04  d E =-.590160E-02  mag=     3.0000
       N       E                     dE             d eps       ncg     rms          rms(c)
DAV:   1    -0.232684084686E+04    0.13044E-02   -0.29580E-01  4624   0.386E-01    0.112E-01
RMM:   2    -0.232684271158E+04   -0.18647E-02   -0.19096E-02  6402   0.847E-02    0.868E-02
RMM:   3    -0.232684279755E+04   -0.85970E-04   -0.14899E-03  4128   0.255E-02    0.110E-01
RMM:   4    -0.232684268916E+04    0.10839E-03   -0.16049E-04  3144   0.800E-03    0.374E-02
RMM:   5    -0.232684269711E+04   -0.79495E-05   -0.52089E-05  3021   0.477E-03
  52 F= -.23482908E+04 E0= -.23482906E+04  d E =-.612913E-02  mag=     3.0000
       N       E                     dE             d eps       ncg     rms          rms(c)
DAV:   1    -0.232682864142E+04    0.14048E-01   -0.28996E+00  4524   0.117E+00    0.343E-01
RMM:   2    -0.232684731979E+04   -0.18678E-01   -0.18894E-01  6478   0.258E-01    0.309E-01
RMM:   3    -0.232684795959E+04   -0.63980E-03   -0.15647E-02  6022   0.788E-02    0.336E-01
RMM:   4    -0.232684693189E+04    0.10277E-02   -0.16749E-03  4790   0.211E-02    0.135E-01
RMM:   5    -0.232684687218E+04    0.59717E-04   -0.41240E-04  3781   0.110E-02    0.117E-01
RMM:   6    -0.232684669185E+04    0.18033E-03   -0.46614E-04  4652   0.141E-02    0.427E-02
RMM:   7    -0.232684670921E+04   -0.17358E-04   -0.10551E-04  3274   0.803E-03    0.499E-02
RMM:   8    -0.232684668166E+04    0.27549E-04   -0.32029E-05  2957   0.473E-03    0.122E-02
RMM:   9    -0.232684668185E+04   -0.19606E-06   -0.67815E-06  2882   0.238E-03
  53 F= -.23482955E+04 E0= -.23482954E+04  d E =-.468218E-02  mag=     3.0000
       N       E                     dE             d eps       ncg     rms          rms(c)
DAV:   1    -0.232679032395E+04    0.56358E-01   -0.92058E+00  4520   0.208E+00    0.616E-01
RMM:   2    -0.232685015058E+04   -0.59827E-01   -0.60777E-01  6503   0.463E-01    0.536E-01
RMM:   3    -0.232685236276E+04   -0.22122E-02   -0.50552E-02  6294   0.140E-01    0.595E-01
RMM:   4    -0.232684913966E+04    0.32231E-02   -0.54031E-03  5825   0.373E-02    0.248E-01
RMM:   5    -0.232684893071E+04    0.20895E-03   -0.13198E-03  5002   0.183E-02    0.209E-01
RMM:   6    -0.232684837770E+04    0.55301E-03   -0.14732E-03  5289   0.235E-02    0.891E-02
RMM:   7    -0.232684843467E+04   -0.56972E-04   -0.42122E-04  4096   0.143E-02    0.102E-01
RMM:   8    -0.232684831439E+04    0.12029E-03   -0.12005E-04  3139   0.705E-03    0.216E-02
RMM:   9    -0.232684831652E+04   -0.21388E-05   -0.24152E-05  3045   0.390E-03
  54 F= -.23482984E+04 E0= -.23482983E+04  d E =-.757898E-02  mag=     3.0000
       N       E                     dE             d eps       ncg     rms          rms(c)
DAV:   1    -0.232682310403E+04    0.25210E-01   -0.48275E+00  4520   0.147E+00    0.436E-01
RMM:   2    -0.232685181088E+04   -0.28707E-01   -0.29532E-01  6489   0.320E-01    0.316E-01
RMM:   3    -0.232685336081E+04   -0.15499E-02   -0.25663E-02  6179   0.996E-02    0.372E-01
RMM:   4    -0.232685202365E+04    0.13372E-02   -0.26898E-03  5470   0.259E-02    0.178E-01
RMM:   5    -0.232685192023E+04    0.10342E-03   -0.60931E-04  4251   0.127E-02    0.150E-01
RMM:   6    -0.232685163862E+04    0.28160E-03   -0.75013E-04  4926   0.168E-02    0.639E-02
RMM:   7    -0.232685165655E+04   -0.17921E-04   -0.20493E-04  3610   0.978E-03    0.658E-02
RMM:   8    -0.232685160727E+04    0.49272E-04   -0.58563E-05  3027   0.588E-03    0.172E-02
RMM:   9    -0.232685160645E+04    0.82643E-06   -0.13255E-05  2939   0.330E-03
  55 F= -.23483026E+04 E0= -.23483026E+04  d E =-.425952E-02  mag=     3.0000
       N       E                     dE             d eps       ncg     rms          rms(c)
DAV:   1    -0.232684335283E+04    0.82544E-02   -0.14180E+00  4528   0.797E-01    0.236E-01
RMM:   2    -0.232685173340E+04   -0.83806E-02   -0.86219E-02  6487   0.173E-01    0.174E-01
RMM:   3    -0.232685218353E+04   -0.45013E-03   -0.74823E-03  5667   0.541E-02    0.201E-01
RMM:   4    -0.232685178888E+04    0.39465E-03   -0.78865E-04  3835   0.143E-02    0.976E-02
RMM:   5    -0.232685175419E+04    0.34691E-04   -0.17857E-04  3323   0.798E-03    0.805E-02
RMM:   6    -0.232685167543E+04    0.78765E-04   -0.22590E-04  3943   0.977E-03    0.375E-02
RMM:   7    -0.232685167667E+04   -0.12456E-05   -0.67082E-05  3217   0.616E-03
  56 F= -.23483032E+04 E0= -.23483032E+04  d E =-.486109E-02  mag=     3.0000
       N       E                     dE             d eps       ncg     rms          rms(c)
DAV:   1    -0.232682417392E+04    0.27502E-01   -0.50937E+00  4520   0.150E+00    0.451E-01
RMM:   2    -0.232685537744E+04   -0.31204E-01   -0.32118E-01  6539   0.330E-01    0.334E-01
RMM:   3    -0.232685683547E+04   -0.14580E-02   -0.28680E-02  6112   0.103E-01    0.340E-01
RMM:   4    -0.232685547737E+04    0.13581E-02   -0.27240E-03  5338   0.260E-02    0.154E-01
RMM:   5    -0.232685561111E+04   -0.13374E-03   -0.79365E-04  4703   0.159E-02    0.214E-01
RMM:   6    -0.232685516325E+04    0.44786E-03   -0.76256E-04  4893   0.159E-02    0.913E-02
RMM:   7    -0.232685516313E+04    0.11861E-06   -0.28864E-04  3587   0.102E-02    0.746E-02
RMM:   8    -0.232685510393E+04    0.59202E-04   -0.62847E-05  3024   0.644E-03    0.163E-02
RMM:   9    -0.232685510452E+04   -0.58657E-06   -0.17194E-05  2944   0.326E-03
  57 F= -.23483080E+04 E0= -.23483080E+04  d E =-.476190E-02  mag=     3.0000
       N       E                     dE             d eps       ncg     rms          rms(c)
DAV:   1    -0.232684846105E+04    0.66429E-02   -0.10771E+00  4576   0.690E-01    0.205E-01
RMM:   2    -0.232685500378E+04   -0.65427E-02   -0.67449E-02  6496   0.152E-01    0.148E-01
RMM:   3    -0.232685529044E+04   -0.28666E-03   -0.58942E-03  5312   0.472E-02    0.149E-01
RMM:   4    -0.232685502934E+04    0.26110E-03   -0.56477E-04  3537   0.122E-02    0.711E-02
RMM:   5    -0.232685505517E+04   -0.25826E-04   -0.16198E-04  3357   0.828E-03    0.974E-02
RMM:   6    -0.232685496246E+04    0.92706E-04   -0.16052E-04  3429   0.836E-03    0.418E-02
RMM:   7    -0.232685496364E+04   -0.11717E-05   -0.63017E-05  3085   0.599E-03
  58 F= -.23483085E+04 E0= -.23483084E+04  d E =-.523835E-02  mag=     3.0000
       N       E                     dE             d eps       ncg     rms          rms(c)
DAV:   1    -0.232681906383E+04    0.35899E-01   -0.60045E+00  4520   0.166E+00    0.485E-01
RMM:   2    -0.232685659212E+04   -0.37528E-01   -0.39157E-01  6471   0.368E-01    0.311E-01
RMM:   3    -0.232685904812E+04   -0.24560E-02   -0.39244E-02  6117   0.122E-01    0.326E-01
RMM:   4    -0.232685791352E+04    0.11346E-02   -0.34067E-03  5464   0.283E-02    0.165E-01
RMM:   5    -0.232685776978E+04    0.14374E-03   -0.76598E-04  4605   0.168E-02    0.172E-01
RMM:   6    -0.232685759052E+04    0.17926E-03   -0.68803E-04  4481   0.156E-02    0.119E-01
RMM:   7    -0.232685750687E+04    0.83650E-04   -0.25243E-04  3791   0.100E-02    0.557E-02
RMM:   8    -0.232685747115E+04    0.35722E-04   -0.53181E-05  3003   0.631E-03    0.194E-02
RMM:   9    -0.232685746489E+04    0.62643E-05   -0.12009E-05  2941   0.299E-03
  59 F= -.23483122E+04 E0= -.23483122E+04  d E =-.370600E-02  mag=     3.0000
       N       E                     dE             d eps       ncg     rms          rms(c)
DAV:   1    -0.232685743571E+04    0.35439E-04   -0.15142E-03  5080   0.272E-02    0.993E-03
RMM:   2    -0.232685744745E+04   -0.11741E-04   -0.11385E-04  3436   0.663E-03    0.839E-03
RMM:   3    -0.232685744837E+04   -0.91614E-06   -0.10574E-05  2846   0.353E-03
  60 F= -.23483122E+04 E0= -.23483122E+04  d E =-.370834E-02  mag=     3.0000
       N       E                     dE             d eps       ncg     rms          rms(c)
DAV:   1    -0.232682661172E+04    0.30836E-01   -0.53137E+00  4524   0.153E+00    0.443E-01
RMM:   2    -0.232686069865E+04   -0.34087E-01   -0.35150E-01  6505   0.332E-01    0.313E-01
RMM:   3    -0.232686267480E+04   -0.19761E-02   -0.34776E-02  6176   0.108E-01    0.291E-01
RMM:   4    -0.232686165783E+04    0.10170E-02   -0.30203E-03  5341   0.255E-02    0.155E-01
RMM:   5    -0.232686149939E+04    0.15844E-03   -0.60759E-04  4377   0.138E-02    0.131E-01
RMM:   6    -0.232686138417E+04    0.11523E-03   -0.66870E-04  4692   0.151E-02    0.994E-02
RMM:   7    -0.232686132809E+04    0.56079E-04   -0.22337E-04  3447   0.984E-03    0.765E-02
RMM:   8    -0.232686127917E+04    0.48914E-04   -0.60736E-05  2982   0.589E-03    0.249E-02
RMM:   9    -0.232686127269E+04    0.64826E-05   -0.13956E-05  2937   0.328E-03
  61 F= -.23483169E+04 E0= -.23483169E+04  d E =-.468854E-02  mag=     3.0000
       N       E                     dE             d eps       ncg     rms          rms(c)
DAV:   1    -0.232681890760E+04    0.42372E-01   -0.64827E+00  4520   0.169E+00    0.494E-01
RMM:   2    -0.232686076382E+04   -0.41856E-01   -0.43186E-01  6516   0.367E-01    0.348E-01
RMM:   3    -0.232686318730E+04   -0.24235E-02   -0.42720E-02  6245   0.120E-01    0.326E-01
RMM:   4    -0.232686191115E+04    0.12761E-02   -0.37476E-03  5638   0.283E-02    0.172E-01
RMM:   5    -0.232686169904E+04    0.21212E-03   -0.74704E-04  4529   0.149E-02    0.140E-01
RMM:   6    -0.232686153793E+04    0.16111E-03   -0.82680E-04  4866   0.167E-02    0.939E-02
RMM:   7    -0.232686145478E+04    0.83147E-04   -0.21096E-04  3692   0.101E-02    0.324E-02
RMM:   8    -0.232686145108E+04    0.36995E-05   -0.33853E-05  2956   0.528E-03
  62 F= -.23483180E+04 E0= -.23483180E+04  d E =-.583250E-02  mag=     3.0000
       N       E                     dE             d eps       ncg     rms          rms(c)
DAV:   1    -0.232684410770E+04    0.17347E-01   -0.26329E+00  4524   0.109E+00    0.324E-01
RMM:   2    -0.232686359669E+04   -0.19489E-01   -0.19962E-01  6557   0.246E-01    0.256E-01
RMM:   3    -0.232686460658E+04   -0.10099E-02   -0.19971E-02  6004   0.816E-02    0.237E-01
RMM:   4    -0.232686396949E+04    0.63709E-03   -0.17700E-03  4342   0.191E-02    0.113E-01
RMM:   5    -0.232686394429E+04    0.25196E-04   -0.29981E-04  3578   0.912E-03    0.121E-01
RMM:   6    -0.232686381962E+04    0.12467E-03   -0.31894E-04  3622   0.109E-02    0.725E-02
RMM:   7    -0.232686380420E+04    0.15428E-04   -0.17218E-04  3445   0.825E-03    0.501E-02
RMM:   8    -0.232686377412E+04    0.30080E-04   -0.42781E-05  3028   0.582E-03    0.148E-02
RMM:   9    -0.232686377178E+04    0.23324E-05   -0.75110E-06  2855   0.293E-03
  63 F= -.23483210E+04 E0= -.23483210E+04  d E =-.297451E-02  mag=     3.0000
       N       E                     dE             d eps       ncg     rms          rms(c)
DAV:   1    -0.232674938270E+04    0.11439E+00   -0.15191E+01  4520   0.264E+00    0.777E-01
RMM:   2    -0.232686365893E+04   -0.11428E+00   -0.11697E+00  6592   0.598E-01    0.618E-01
RMM:   3    -0.232686991187E+04   -0.62529E-02   -0.11863E-01  6402   0.199E-01    0.558E-01
RMM:   4    -0.232686607934E+04    0.38325E-02   -0.10238E-02  6053   0.455E-02    0.257E-01
RMM:   5    -0.232686565677E+04    0.42257E-03   -0.18392E-03  5079   0.226E-02    0.233E-01
RMM:   6    -0.232686527464E+04    0.38213E-03   -0.17254E-03  5261   0.229E-02    0.194E-01
RMM:   7    -0.232686510131E+04    0.17333E-03   -0.81308E-04  4697   0.159E-02    0.140E-01
RMM:   8    -0.232686491574E+04    0.18558E-03   -0.20887E-04  3324   0.884E-03    0.347E-02
RMM:   9    -0.232686490018E+04    0.15556E-04   -0.43882E-05  3037   0.549E-03    0.233E-02
RMM:  10    -0.232686489477E+04    0.54094E-05   -0.25303E-05  3017   0.341E-03
  64 F= -.23483237E+04 E0= -.23483237E+04  d E =-.568245E-02  mag=     3.0000
       N       E                     dE             d eps       ncg     rms          rms(c)
DAV:   1    -0.232684866343E+04    0.16237E-01   -0.21205E+00  4524   0.105E+00    0.319E-01
RMM:   2    -0.232686873014E+04   -0.20067E-01   -0.20392E-01  6550   0.254E-01    0.287E-01
RMM:   3    -0.232686945843E+04   -0.72829E-03   -0.20082E-02  5893   0.846E-02    0.239E-01
RMM:   4    -0.232686879774E+04    0.66069E-03   -0.17546E-03  4664   0.198E-02    0.125E-01
RMM:   5    -0.232686876108E+04    0.36662E-04   -0.30193E-04  3495   0.100E-02    0.129E-01
RMM:   6    -0.232686858321E+04    0.17787E-03   -0.33289E-04  4240   0.115E-02    0.589E-02
RMM:   7    -0.232686857616E+04    0.70438E-05   -0.17766E-04  3391   0.931E-03    0.473E-02
RMM:   8    -0.232686855051E+04    0.25656E-04   -0.38840E-05  3000   0.557E-03    0.138E-02
RMM:   9    -0.232686854879E+04    0.17178E-05   -0.78456E-06  2906   0.334E-03
  65 F= -.23483279E+04 E0= -.23483279E+04  d E =-.421141E-02  mag=     3.0000
       N       E                     dE             d eps       ncg     rms          rms(c)
DAV:   1    -0.232684376832E+04    0.24782E-01   -0.27375E+00  4520   0.120E+00    0.362E-01
RMM:   2    -0.232686971179E+04   -0.25943E-01   -0.26345E-01  6539   0.289E-01    0.328E-01
RMM:   3    -0.232687061893E+04   -0.90715E-03   -0.25969E-02  5990   0.972E-02    0.271E-01
RMM:   4    -0.232686976448E+04    0.85445E-03   -0.22643E-03  5064   0.226E-02    0.140E-01
RMM:   5    -0.232686972324E+04    0.41239E-04   -0.39379E-04  3708   0.113E-02    0.148E-01
RMM:   6    -0.232686949559E+04    0.22766E-03   -0.42868E-04  4491   0.128E-02    0.690E-02
RMM:   7    -0.232686948117E+04    0.14418E-04   -0.23109E-04  3519   0.105E-02    0.532E-02
RMM:   8    -0.232686944797E+04    0.33204E-04   -0.48350E-05  3046   0.593E-03    0.155E-02
RMM:   9    -0.232686944539E+04    0.25749E-05   -0.95851E-06  2914   0.366E-03
  66 F= -.23483295E+04 E0= -.23483294E+04  d E =-.574418E-02  mag=     3.0000
       N       E                     dE             d eps       ncg     rms          rms(c)
DAV:   1    -0.232685692459E+04    0.12523E-01   -0.15559E+00  4528   0.945E-01    0.285E-01
RMM:   2    -0.232687200661E+04   -0.15082E-01   -0.15197E-01  6372   0.217E-01    0.288E-01
RMM:   3    -0.232687249787E+04   -0.49126E-03   -0.15588E-02  5859   0.782E-02    0.246E-01
RMM:   4    -0.232687197910E+04    0.51877E-03   -0.14616E-03  4239   0.176E-02    0.128E-01
RMM:   5    -0.232687186442E+04    0.11468E-03   -0.28300E-04  3559   0.978E-03    0.975E-02
RMM:   6    -0.232687176394E+04    0.10048E-03   -0.25560E-04  4169   0.104E-02    0.655E-02
RMM:   7    -0.232687173312E+04    0.30822E-04   -0.15269E-04  3554   0.837E-03    0.412E-02
RMM:   8    -0.232687171592E+04    0.17194E-04   -0.45386E-05  3065   0.604E-03    0.163E-02
RMM:   9    -0.232687171212E+04    0.38037E-05   -0.71208E-06  2886   0.335E-03
  67 F= -.23483319E+04 E0= -.23483319E+04  d E =-.243025E-02  mag=     3.0000
       N       E                     dE             d eps       ncg     rms          rms(c)
DAV:   1    -0.232686858480E+04    0.31311E-02   -0.33734E-01  4592   0.440E-01    0.133E-01
RMM:   2    -0.232687187943E+04   -0.32946E-02   -0.33060E-02  6422   0.102E-01    0.140E-01
RMM:   3    -0.232687196577E+04   -0.86349E-04   -0.33646E-03  4631   0.367E-02    0.115E-01
RMM:   4    -0.232687185390E+04    0.11188E-03   -0.31833E-04  3265   0.911E-03    0.597E-02
RMM:   5    -0.232687182760E+04    0.26292E-04   -0.62237E-05  3053   0.535E-03    0.449E-02
RMM:   6    -0.232687180646E+04    0.21141E-04   -0.57132E-05  3149   0.525E-03    0.312E-02
RMM:   7    -0.232687179949E+04    0.69717E-05   -0.34576E-05  3078   0.474E-03
  68 F= -.23483321E+04 E0= -.23483320E+04  d E =-.259451E-02  mag=     3.0000
       N       E                     dE             d eps       ncg     rms          rms(c)
DAV:   1    -0.232685729273E+04    0.14514E-01   -0.15833E+00  4524   0.100E+00    0.292E-01
RMM:   2    -0.232687394521E+04   -0.16652E-01   -0.16852E-01  6468   0.230E-01    0.318E-01
RMM:   3    -0.232687488218E+04   -0.93697E-03   -0.17370E-02  5855   0.813E-02    0.300E-01
RMM:   4    -0.232687407791E+04    0.80427E-03   -0.16096E-03  4526   0.193E-02    0.107E-01
RMM:   5    -0.232687401031E+04    0.67598E-04   -0.28238E-04  3730   0.973E-03    0.926E-02
RMM:   6    -0.232687390391E+04    0.10639E-03   -0.26682E-04  4165   0.107E-02    0.560E-02
RMM:   7    -0.232687388044E+04    0.23472E-04   -0.12802E-04  3461   0.783E-03    0.338E-02
RMM:   8    -0.232687386997E+04    0.10472E-04   -0.32748E-05  2967   0.562E-03    0.196E-02
RMM:   9    -0.232687386503E+04    0.49389E-05   -0.68775E-06  2863   0.309E-03
  69 F= -.23483342E+04 E0= -.23483341E+04  d E =-.210860E-02  mag=     3.0000
       N       E                     dE             d eps       ncg     rms          rms(c)
DAV:   1    -0.232686756002E+04    0.63100E-02   -0.60326E-01  4528   0.620E-01    0.181E-01
RMM:   2    -0.232687397460E+04   -0.64146E-02   -0.64353E-02  6419   0.142E-01    0.211E-01
RMM:   3    -0.232687424515E+04   -0.27055E-03   -0.65943E-03  5327   0.508E-02    0.180E-01
RMM:   4    -0.232687395757E+04    0.28758E-03   -0.61197E-04  3545   0.122E-02    0.670E-02
[...]
       N       E                     dE             d eps       ncg     rms          rms(c)
DAV:   1    -0.232689559207E+04    0.11931E-05   -0.41862E-05  4352   0.664E-03    0.405E-03
RMM:   2    -0.232689559274E+04   -0.67668E-06   -0.57058E-06  2432   0.248E-03
 160 F= -.23483515E+04 E0= -.23483515E+04  d E =-.392514E-04  mag=     3.0000
       N       E                     dE             d eps       ncg     rms          rms(c)
DAV:   1    -0.232689555760E+04    0.34471E-04   -0.10510E-02  4520   0.938E-02    0.317E-02
RMM:   2    -0.232689564123E+04   -0.83638E-04   -0.89725E-04  5906   0.211E-02    0.194E-02
RMM:   3    -0.232689564905E+04   -0.78125E-05   -0.88450E-05  2981   0.859E-03
 161 F= -.23483515E+04 E0= -.23483515E+04  d E =-.381180E-04  mag=     3.0000
       N       E                     dE             d eps       ncg     rms          rms(c)
DAV:   1    -0.232689563961E+04    0.16227E-05   -0.18146E-04  5488   0.125E-02    0.121E-02
RMM:   2    -0.232689565159E+04   -0.11976E-04   -0.24546E-05  2779   0.336E-03    0.362E-02
RMM:   3    -0.232689563916E+04    0.12430E-04   -0.73300E-06  2288   0.267E-03    0.432E-03
RMM:   4    -0.232689563887E+04    0.28317E-06   -0.84975E-07  1606   0.963E-04
 162 F= -.23483515E+04 E0= -.23483515E+04  d E =-.298316E-04  mag=     3.0000
       N       E                     dE             d eps       ncg     rms          rms(c)
DAV:   1    -0.232689561706E+04    0.22096E-04   -0.61747E-03  4528   0.728E-02    0.242E-02
RMM:   2    -0.232689566897E+04   -0.51907E-04   -0.55510E-04  5546   0.163E-02    0.141E-02
RMM:   3    -0.232689567408E+04   -0.51116E-05   -0.52460E-05  2917   0.656E-03
 163 F= -.23483515E+04 E0= -.23483515E+04  d E =-.312359E-04  mag=     3.0000
       N       E                     dE             d eps       ncg     rms          rms(c)
DAV:   1    -0.232689566895E+04    0.19980E-07   -0.15324E-04  5408   0.115E-02    0.954E-03
RMM:   2    -0.232689567446E+04   -0.55072E-05   -0.20211E-05  2661   0.299E-03
 164 F= -.23483515E+04 E0= -.23483515E+04  d E =-.310495E-04  mag=     3.0000
       N       E                     dE             d eps       ncg     rms          rms(c)
DAV:   1    -0.232689565654E+04    0.12408E-04   -0.62439E-03  4528   0.749E-02    0.252E-02
RMM:   2    -0.232689570685E+04   -0.50314E-04   -0.53731E-04  5513   0.167E-02    0.156E-02
RMM:   3    -0.232689571315E+04   -0.62918E-05   -0.52159E-05  2917   0.730E-03
 165 F= -.23483516E+04 E0= -.23483515E+04  d E =-.218050E-04  mag=     3.0000
       N       E                     dE             d eps       ncg     rms          rms(c)
DAV:   1    -0.232689570632E+04    0.53050E-06   -0.60834E-05  4464   0.725E-03    0.885E-03
RMM:   2    -0.232689571061E+04   -0.42827E-05   -0.98174E-06  2420   0.317E-03
 166 F= -.23483516E+04 E0= -.23483515E+04  d E =-.201725E-04  mag=     3.0000
       N       E                     dE             d eps       ncg     rms          rms(c)
DAV:   1    -0.232689570636E+04   -0.31476E-07   -0.41290E-03  4496   0.595E-02    0.189E-02
RMM:   2    -0.232689574219E+04   -0.35832E-04   -0.37093E-04  4678   0.135E-02    0.151E-02
RMM:   3    -0.232689574606E+04   -0.38733E-05   -0.37485E-05  2804   0.626E-03
 167 F= -.23483516E+04 E0= -.23483516E+04  d E =-.189360E-04  mag=     3.0000
       N       E                     dE             d eps       ncg     rms          rms(c)
DAV:   1    -0.232689574428E+04   -0.20909E-05   -0.41853E-04  4992   0.191E-02    0.835E-03
RMM:   2    -0.232689574782E+04   -0.35433E-05   -0.41086E-05  2952   0.456E-03
 168 F= -.23483516E+04 E0= -.23483516E+04  d E =-.155264E-04  mag=     3.0000
       N       E                     dE             d eps       ncg     rms          rms(c)
DAV:   1    -0.232689575869E+04   -0.14413E-04   -0.34734E-03  4464   0.532E-02    0.176E-02
RMM:   2    -0.232689579126E+04   -0.32565E-04   -0.32360E-04  4289   0.125E-02    0.172E-02
RMM:   3    -0.232689579218E+04   -0.92659E-06   -0.38786E-05  2763   0.625E-03
 169 F= -.23483516E+04 E0= -.23483516E+04  d E =-.216006E-04  mag=     3.0000
       N       E                     dE             d eps       ncg     rms          rms(c)
DAV:   1    -0.232689579682E+04   -0.55614E-05   -0.47595E-04  4616   0.198E-02    0.124E-02
RMM:   2    -0.232689581238E+04   -0.15557E-04   -0.61680E-05  3243   0.536E-03    0.350E-02
RMM:   3    -0.232689580041E+04    0.11967E-04   -0.11176E-05  2476   0.327E-03    0.641E-03
RMM:   4    -0.232689580032E+04    0.88941E-07   -0.21707E-06  1859   0.116E-03
 170 F= -.23483516E+04 E0= -.23483516E+04  d E =-.213504E-04  mag=     3.0000
       N       E                     dE             d eps       ncg     rms          rms(c)
DAV:   1    -0.232689580284E+04   -0.24293E-05   -0.31398E-03  4488   0.515E-02    0.172E-02
RMM:   2    -0.232689583001E+04   -0.27169E-04   -0.27492E-04  4241   0.113E-02    0.168E-02
RMM:   3    -0.232689583232E+04   -0.23109E-05   -0.31127E-05  2796   0.568E-03
 171 F= -.23483516E+04 E0= -.23483516E+04  d E =-.236238E-04  mag=     3.0000
       N       E                     dE             d eps       ncg     rms          rms(c)
DAV:   1    -0.232689582746E+04    0.25439E-05   -0.96837E-04  4448   0.285E-02    0.112E-02
RMM:   2    -0.232689583563E+04   -0.81712E-05   -0.90151E-05  3385   0.678E-03
 172 F= -.23483516E+04 E0= -.23483516E+04  d E =-.223001E-04  mag=     3.0000
       N       E                     dE             d eps       ncg     rms          rms(c)
DAV:   1    -0.232689583019E+04   -0.27224E-05   -0.34132E-03  4440   0.507E-02    0.181E-02
RMM:   2    -0.232689586725E+04   -0.37064E-04   -0.32916E-04  4209   0.121E-02    0.248E-02
RMM:   3    -0.232689586130E+04    0.59451E-05   -0.33694E-05  2836   0.581E-03
 173 F= -.23483516E+04 E0= -.23483516E+04  d E =-.175006E-04  mag=     3.0000
       N       E                     dE             d eps       ncg     rms          rms(c)
DAV:   1    -0.232689585845E+04    0.87967E-05   -0.10591E-03  4496   0.281E-02    0.128E-02
RMM:   2    -0.232689587336E+04   -0.14903E-04   -0.10042E-04  3413   0.674E-03    0.259E-02
RMM:   3    -0.232689586741E+04    0.59485E-05   -0.13846E-05  2568   0.395E-03
 174 F= -.23483516E+04 E0= -.23483516E+04  d E =-.190419E-04  mag=     3.0000
       N       E                     dE             d eps       ncg     rms          rms(c)
DAV:   1    -0.232689587533E+04   -0.19721E-05   -0.24542E-03  4408   0.433E-02    0.154E-02
RMM:   2    -0.232689589943E+04   -0.24101E-04   -0.21441E-04  3780   0.973E-03    0.203E-02
RMM:   3    -0.232689589635E+04    0.30779E-05   -0.26473E-05  2559   0.529E-03
 175 F= -.23483517E+04 E0= -.23483516E+04  d E =-.223839E-04  mag=     3.0000
       N       E                     dE             d eps       ncg     rms          rms(c)
DAV:   1    -0.232689580995E+04    0.89483E-04   -0.13271E-02  4520   0.100E-01    0.329E-02
RMM:   2    -0.232689591965E+04   -0.10970E-03   -0.11378E-03  5853   0.221E-02    0.269E-02
RMM:   3    -0.232689592968E+04   -0.10029E-04   -0.13195E-04  2982   0.919E-03    0.345E-02
RMM:   4    -0.232689592004E+04    0.96385E-05   -0.15325E-05  2919   0.325E-03
 176 F= -.23483517E+04 E0= -.23483517E+04  d E =-.308281E-04  mag=     3.0000
       N       E                     dE             d eps       ncg     rms          rms(c)
DAV:   1    -0.232689592616E+04    0.35173E-05   -0.11318E-03  4704   0.280E-02    0.142E-02
RMM:   2    -0.232689594360E+04   -0.17446E-04   -0.10244E-04  3361   0.624E-03    0.282E-02
RMM:   3    -0.232689593481E+04    0.87927E-05   -0.15721E-05  2680   0.416E-03
 177 F= -.23483517E+04 E0= -.23483517E+04  d E =-.656265E-05  mag=     3.0000
       N       E                     dE             d eps       ncg     rms          rms(c)
DAV:   1    -0.232689591701E+04    0.26597E-04   -0.57822E-03  4448   0.630E-02    0.212E-02
RMM:   2    -0.232689597132E+04   -0.54309E-04   -0.49507E-04  4641   0.138E-02    0.322E-02
RMM:   3    -0.232689596699E+04    0.43229E-05   -0.55696E-05  2917   0.607E-03
 178 F= -.23483517E+04 E0= -.23483517E+04  d E =-.202747E-04  mag=     3.0000
       N       E                     dE             d eps       ncg     rms          rms(c)
DAV:   1    -0.232689580883E+04    0.16248E-03   -0.23113E-02  4520   0.126E-01    0.390E-02
RMM:   2    -0.232689599747E+04   -0.18863E-03   -0.19762E-03  5986   0.276E-02    0.277E-02
RMM:   3    -0.232689601516E+04   -0.17695E-04   -0.19418E-04  3050   0.102E-02    0.367E-02
RMM:   4    -0.232689600318E+04    0.11985E-04   -0.21906E-05  2949   0.351E-03    0.158E-02
RMM:   5    -0.232689600126E+04    0.19148E-05   -0.72765E-06  2811   0.213E-03
 179 F= -.23483517E+04 E0= -.23483517E+04  d E =-.176611E-04  mag=     3.0000
       N       E                     dE             d eps       ncg     rms          rms(c)
DAV:   1    -0.232689601426E+04   -0.11085E-04   -0.27338E-03  4592   0.423E-02    0.159E-02
RMM:   2    -0.232689604481E+04   -0.30544E-04   -0.24334E-04  3772   0.969E-03    0.261E-02
RMM:   3    -0.232689603714E+04    0.76701E-05   -0.29456E-05  2792   0.510E-03
 180 F= -.23483517E+04 E0= -.23483517E+04  d E =-.255235E-04  mag=     3.0000
       N       E                     dE             d eps       ncg     rms          rms(c)
DAV:   1    -0.232689591547E+04    0.12934E-03   -0.25222E-02  4520   0.127E-01    0.384E-02
RMM:   2    -0.232689611919E+04   -0.20372E-03   -0.21195E-03  6023   0.280E-02    0.267E-02
RMM:   3    -0.232689613278E+04   -0.13590E-04   -0.21313E-04  3073   0.104E-02    0.263E-02
RMM:   4    -0.232689612535E+04    0.74357E-05   -0.21617E-05  2941   0.337E-03
 181 F= -.23483518E+04 E0= -.23483518E+04  d E =-.827656E-04  mag=     3.0000
       N       E                     dE             d eps       ncg     rms          rms(c)
DAV:   1    -0.232689539982E+04    0.73296E-03   -0.10041E-01  4520   0.254E-01    0.772E-02
RMM:   2    -0.232689625118E+04   -0.85136E-03   -0.84171E-03  6271   0.545E-02    0.866E-02
RMM:   3    -0.232689628154E+04   -0.30355E-04   -0.85884E-04  3492   0.194E-02    0.780E-02
RMM:   4    -0.232689622479E+04    0.56753E-04   -0.84588E-05  3061   0.597E-03    0.274E-02
RMM:   5    -0.232689622671E+04   -0.19288E-05   -0.26858E-05  2911   0.371E-03
 182 F= -.23483518E+04 E0= -.23483518E+04  d E =-.122571E-03  mag=     3.0000
       N       E                     dE             d eps       ncg     rms          rms(c)
DAV:   1    -0.232689614671E+04    0.78075E-04   -0.19702E-02  4524   0.113E-01    0.360E-02
RMM:   2    -0.232689630875E+04   -0.16204E-03   -0.16258E-03  5843   0.249E-02    0.343E-02
RMM:   3    -0.232689631784E+04   -0.90871E-05   -0.18099E-04  3048   0.966E-03    0.336E-02
RMM:   4    -0.232689630630E+04    0.11538E-04   -0.16355E-05  2922   0.329E-03    0.145E-02
RMM:   5    -0.232689630683E+04   -0.53043E-06   -0.65722E-06  2621   0.185E-03
 183 F= -.23483519E+04 E0= -.23483519E+04  d E =-.637366E-04  mag=     3.0000
       N       E                     dE             d eps       ncg     rms          rms(c)
DAV:   1    -0.232689572224E+04    0.58407E-03   -0.83824E-02  4520   0.232E-01    0.727E-02
RMM:   2    -0.232689640597E+04   -0.68373E-03   -0.68908E-03  6161   0.508E-02    0.706E-02
RMM:   3    -0.232689644731E+04   -0.41344E-04   -0.67922E-04  3432   0.181E-02    0.756E-02
RMM:   4    -0.232689639214E+04    0.55170E-04   -0.71352E-05  3029   0.575E-03    0.246E-02
RMM:   5    -0.232689639194E+04    0.20419E-06   -0.22048E-05  2902   0.337E-03
 184 F= -.23483519E+04 E0= -.23483519E+04  d E =-.115643E-03  mag=     3.0000
       N       E                     dE             d eps       ncg     rms          rms(c)
DAV:   1    -0.232689627944E+04    0.11270E-03   -0.25909E-02  4524   0.132E-01    0.429E-02
RMM:   2    -0.232689650590E+04   -0.22646E-03   -0.22002E-03  6031   0.294E-02    0.475E-02
RMM:   3    -0.232689650669E+04   -0.78369E-06   -0.23791E-04  3118   0.111E-02    0.379E-02
RMM:   4    -0.232689649262E+04    0.14067E-04   -0.21788E-05  2945   0.371E-03    0.176E-02
RMM:   5    -0.232689649262E+04    0.23720E-08   -0.85423E-06  2737   0.218E-03
 185 F= -.23483520E+04 E0= -.23483520E+04  d E =-.702441E-04  mag=     3.0000
       N       E                     dE             d eps       ncg     rms          rms(c)
DAV:   1    -0.232689622974E+04    0.26288E-03   -0.39017E-02  4520   0.161E-01    0.515E-02
RMM:   2    -0.232689656507E+04   -0.33532E-03   -0.33189E-03  6130   0.359E-02    0.556E-02
RMM:   3    -0.232689657511E+04   -0.10044E-04   -0.33014E-04  3192   0.131E-02    0.515E-02
RMM:   4    -0.232689654950E+04    0.25607E-04   -0.34540E-05  2969   0.428E-03    0.171E-02
RMM:   5    -0.232689654946E+04    0.46537E-07   -0.11509E-05  2810   0.260E-03
 186 F= -.23483520E+04 E0= -.23483520E+04  d E =-.899458E-04  mag=     3.0000
       N       E                     dE             d eps       ncg     rms          rms(c)
DAV:   1    -0.232689637220E+04    0.17731E-03   -0.34464E-02  4520   0.152E-01    0.498E-02
RMM:   2    -0.232689667563E+04   -0.30343E-03   -0.29477E-03  6109   0.340E-02    0.561E-02
RMM:   3    -0.232689667686E+04   -0.12354E-05   -0.30525E-04  3170   0.126E-02    0.461E-02
RMM:   4    -0.232689665622E+04    0.20644E-04   -0.30111E-05  2953   0.415E-03    0.189E-02
RMM:   5    -0.232689665586E+04    0.35386E-06   -0.11153E-05  2799   0.252E-03
 187 F= -.23483521E+04 E0= -.23483521E+04  d E =-.686590E-04  mag=     3.0000
       N       E                     dE             d eps       ncg     rms          rms(c)
DAV:   1    -0.232689659203E+04    0.64184E-04   -0.99408E-03  4624   0.817E-02    0.268E-02
RMM:   2    -0.232689667787E+04   -0.85841E-04   -0.85608E-04  5400   0.185E-02    0.272E-02
RMM:   3    -0.232689668143E+04   -0.35515E-05   -0.91508E-05  2984   0.733E-03
 188 F= -.23483521E+04 E0= -.23483521E+04  d E =-.738380E-04  mag=     3.0000
       N       E                     dE             d eps       ncg     rms          rms(c)
DAV:   1    -0.232689645232E+04    0.22556E-03   -0.36470E-02  4520   0.158E-01    0.526E-02
RMM:   2    -0.232689677546E+04   -0.32315E-03   -0.31904E-03  6167   0.364E-02    0.555E-02
RMM:   3    -0.232689678087E+04   -0.54074E-05   -0.29890E-04  3141   0.125E-02    0.503E-02
RMM:   4    -0.232689675684E+04    0.24028E-04   -0.35167E-05  2980   0.434E-03    0.215E-02
RMM:   5    -0.232689675569E+04    0.11511E-05   -0.13303E-05  2833   0.278E-03
 189 F= -.23483522E+04 E0= -.23483521E+04  d E =-.718092E-04  mag=     3.0000
       N       E                     dE             d eps       ncg     rms          rms(c)
DAV:   1    -0.232689669936E+04    0.57483E-04   -0.61754E-03  4696   0.652E-02    0.221E-02
RMM:   2    -0.232689675233E+04   -0.52971E-04   -0.53115E-04  4848   0.148E-02    0.219E-02
RMM:   3    -0.232689675443E+04   -0.21074E-05   -0.62232E-05  2940   0.656E-03
 190 F= -.23483521E+04 E0= -.23483521E+04  d E =-.695777E-04  mag=     3.0000
       N       E                     dE             d eps       ncg     rms          rms(c)
DAV:   1    -0.232689654916E+04    0.20317E-03   -0.33580E-02  4520   0.154E-01    0.505E-02
RMM:   2    -0.232689682464E+04   -0.27549E-03   -0.28115E-03  6142   0.350E-02    0.425E-02
RMM:   3    -0.232689684374E+04   -0.19093E-04   -0.26931E-04  3117   0.125E-02    0.488E-02
RMM:   4    -0.232689681951E+04    0.24232E-04   -0.31904E-05  2964   0.434E-03    0.209E-02
RMM:   5    -0.232689681873E+04    0.77893E-06   -0.11956E-05  2855   0.262E-03
 191 F= -.23483522E+04 E0= -.23483522E+04  d E =-.632132E-04  mag=     3.0000
       N       E                     dE             d eps       ncg     rms          rms(c)
DAV:   1    -0.232689678657E+04    0.32936E-04   -0.32004E-03  4832   0.478E-02    0.164E-02
RMM:   2    -0.232689681351E+04   -0.26936E-04   -0.27085E-04  4074   0.109E-02    0.162E-02
RMM:   3    -0.232689681455E+04   -0.10426E-05   -0.33626E-05  2893   0.556E-03
 192 F= -.23483522E+04 E0= -.23483522E+04  d E =-.587115E-04  mag=     3.0000
       N       E                     dE             d eps       ncg     rms          rms(c)
DAV:   1    -0.232689668323E+04    0.13028E-03   -0.30081E-02  4520   0.149E-01    0.492E-02
RMM:   2    -0.232689692310E+04   -0.23987E-03   -0.24716E-03  6110   0.338E-02    0.386E-02
RMM:   3    -0.232689694147E+04   -0.18374E-04   -0.23679E-04  3139   0.124E-02    0.463E-02
RMM:   4    -0.232689691956E+04    0.21914E-04   -0.28415E-05  2953   0.430E-03    0.206E-02
RMM:   5    -0.232689691881E+04    0.74669E-06   -0.12035E-05  2858   0.264E-03
 193 F= -.23483523E+04 E0= -.23483523E+04  d E =-.634274E-04  mag=     3.0000
       N       E                     dE             d eps       ncg     rms          rms(c)
DAV:   1    -0.232689691503E+04    0.45335E-05   -0.22104E-04  5248   0.136E-02    0.786E-03
RMM:   2    -0.232689691887E+04   -0.38396E-05   -0.25045E-05  2852   0.346E-03
 194 F= -.23483523E+04 E0= -.23483523E+04  d E =-.598241E-04  mag=     3.0000
       N       E                     dE             d eps       ncg     rms          rms(c)
DAV:   1    -0.232689686933E+04    0.45695E-04   -0.18277E-02  4520   0.121E-01    0.413E-02
RMM:   2    -0.232689700978E+04   -0.14045E-03   -0.14738E-03  6076   0.267E-02    0.290E-02
RMM:   3    -0.232689702357E+04   -0.13792E-04   -0.14639E-04  3042   0.104E-02    0.396E-02
RMM:   4    -0.232689700829E+04    0.15287E-04   -0.18253E-05  2928   0.378E-03    0.159E-02
RMM:   5    -0.232689700803E+04    0.25907E-06   -0.83730E-06  2856   0.229E-03
 195 F= -.23483523E+04 E0= -.23483523E+04  d E =-.540430E-04  mag=     3.0000
       N       E                     dE             d eps       ncg     rms          rms(c)
DAV:   1    -0.232689700542E+04    0.28664E-05   -0.70515E-04  5056   0.242E-02    0.992E-03
RMM:   2    -0.232689701278E+04   -0.73651E-05   -0.63598E-05  3329   0.580E-03
 196 F= -.23483523E+04 E0= -.23483523E+04  d E =-.516962E-04  mag=     3.0000
       N       E                     dE             d eps       ncg     rms          rms(c)
DAV:   1    -0.232689700639E+04   -0.96693E-06   -0.25558E-04  4440   0.148E-02    0.701E-03
RMM:   2    -0.232689701046E+04   -0.40741E-05   -0.24553E-05  2696   0.361E-03
 197 F= -.23483523E+04 E0= -.23483523E+04  d E =-.534519E-04  mag=     3.0000
       N       E                     dE             d eps       ncg     rms          rms(c)
DAV:   1    -0.232689695454E+04    0.51844E-04   -0.11318E-02  4520   0.982E-02    0.332E-02
RMM:   2    -0.232689703725E+04   -0.82713E-04   -0.90144E-04  5965   0.219E-02    0.178E-02
RMM:   3    -0.232689704479E+04   -0.75342E-05   -0.85975E-05  2950   0.851E-03
 198 F= -.23483524E+04 E0= -.23483524E+04  d E =-.409386E-04  mag=     3.0000
       N       E                     dE             d eps       ncg     rms          rms(c)
DAV:   1    -0.232689703952E+04   -0.22638E-05   -0.14461E-04  5440   0.112E-02    0.120E-02
RMM:   2    -0.232689705096E+04   -0.11441E-04   -0.20689E-05  2691   0.317E-03    0.351E-02
RMM:   3    -0.232689703904E+04    0.11923E-04   -0.68074E-06  2243   0.262E-03    0.457E-03
RMM:   4    -0.232689703887E+04    0.17068E-06   -0.87873E-07  1563   0.937E-04
 199 F= -.23483524E+04 E0= -.23483523E+04  d E =-.344492E-04  mag=     3.0000
       N       E                     dE             d eps       ncg     rms          rms(c)
DAV:   1    -0.232689701833E+04    0.20711E-04   -0.68993E-03  4528   0.797E-02    0.271E-02
RMM:   2    -0.232689706481E+04   -0.46485E-04   -0.49295E-04  5794   0.166E-02    0.190E-02
RMM:   3    -0.232689707183E+04   -0.70225E-05   -0.49722E-05  2929   0.670E-03
 200 F= -.23483524E+04 E0= -.23483524E+04  d E =-.325749E-04  mag=     3.0000
       N       E                     dE             d eps       ncg     rms          rms(c)
DAV:   1    -0.232689706232E+04    0.24878E-05   -0.53662E-05  4144   0.638E-03    0.841E-03
RMM:   2    -0.232689706512E+04   -0.27939E-05   -0.73945E-06  2397   0.255E-03
 201 F= -.23483524E+04 E0= -.23483524E+04  d E =-.258645E-04  mag=     3.0000
