       N       E                     dE             d eps       ncg     rms          rms(c)
DAV:   1     0.126980486354E+05    0.12698E+05   -0.84450E+05  4640   0.143E+03
DAV:   2    -0.120670780104E+04   -0.13905E+05   -0.13323E+05  5120   0.324E+02
DAV:   3    -0.248551644387E+04   -0.12788E+04   -0.12674E+04  5440   0.107E+02
DAV:   4    -0.251624317517E+04   -0.30727E+02   -0.30547E+02  5680   0.212E+01
DAV:   5    -0.251722780051E+04   -0.98463E+00   -0.98274E+00  5920   0.311E+00    0.170E+02
RMM:   6    -0.148823366492E+04    0.10290E+04   -0.19101E+03  4507   0.377E+01    0.731E+01
RMM:   7    -0.166245682253E+04   -0.17422E+03   -0.31206E+02  5158   0.143E+01    0.527E+01
RMM:   8    -0.170560574698E+04   -0.43149E+02   -0.74097E+01  5284   0.814E+00    0.400E+01
RMM:   9    -0.178076798091E+04   -0.75162E+02   -0.55636E+01  5178   0.660E+00    0.362E+01
RMM:  10    -0.191732285397E+04   -0.13655E+03   -0.65803E+01  5342   0.775E+00    0.321E+01
RMM:  11    -0.196933888940E+04   -0.52016E+02   -0.25345E+01  5428   0.441E+00    0.212E+01
RMM:  12    -0.205589348742E+04   -0.86555E+02   -0.34509E+01  5100   0.462E+00    0.153E+01
RMM:  13    -0.212315526928E+04   -0.67262E+02   -0.28801E+01  4809   0.396E+00    0.120E+01
RMM:  14    -0.224254089046E+04   -0.11939E+03   -0.10181E+02  4604   0.721E+00    0.104E+01
RMM:  15    -0.228317385716E+04   -0.40633E+02   -0.37196E+01  4663   0.454E+00    0.926E+00
RMM:  16    -0.229184720650E+04   -0.86733E+01   -0.87725E+00  5109   0.235E+00    0.635E+00
RMM:  17    -0.230105351240E+04   -0.92063E+01   -0.68782E+00  4600   0.177E+00    0.392E+00
RMM:  18    -0.230617026194E+04   -0.51167E+01   -0.26758E+00  4552   0.129E+00    0.464E+00
RMM:  19    -0.230639399198E+04   -0.22373E+00   -0.32349E-01  5096   0.551E-01    0.391E+00
RMM:  20    -0.230823696516E+04   -0.18430E+01   -0.69663E-01  4525   0.501E-01    0.283E+00
RMM:  21    -0.230870025016E+04   -0.46328E+00   -0.27895E-01  4807   0.336E-01    0.144E+00
RMM:  22    -0.230895585306E+04   -0.25560E+00   -0.14364E-01  4643   0.235E-01    0.713E-01
RMM:  23    -0.230911168944E+04   -0.15584E+00   -0.81234E-02  4896   0.170E-01    0.454E-01
RMM:  24    -0.230922884654E+04   -0.11716E+00   -0.30442E-02  4744   0.114E-01    0.362E-01
RMM:  25    -0.230929345103E+04   -0.64604E-01   -0.12913E-02  4663   0.749E-02    0.202E-01
RMM:  26    -0.230933342515E+04   -0.39974E-01   -0.79539E-03  4596   0.606E-02    0.120E-01
RMM:  27    -0.230935335470E+04   -0.19930E-01   -0.38819E-03  4718   0.465E-02    0.910E-02
RMM:  28    -0.230936537550E+04   -0.12021E-01   -0.28238E-03  4582   0.343E-02    0.642E-02
RMM:  29    -0.230937009370E+04   -0.47182E-02   -0.13262E-03  4706   0.278E-02    0.279E-02
RMM:  30    -0.230937161867E+04   -0.15250E-02   -0.42259E-04  4235   0.131E-02    0.174E-02
RMM:  31    -0.230937208504E+04   -0.46636E-03   -0.11980E-04  3849   0.884E-03    0.676E-03
RMM:  32    -0.230937218935E+04   -0.10431E-03   -0.36858E-05  3380   0.492E-03    0.442E-03
RMM:  33    -0.230937222553E+04   -0.36185E-04   -0.89987E-06  2929   0.370E-03    0.221E-03
RMM:  34    -0.230937225194E+04   -0.26411E-04   -0.56922E-06  2830   0.244E-03    0.173E-03
RMM:  35    -0.230937226372E+04   -0.11773E-04   -0.29161E-06  2531   0.208E-03    0.818E-04
RMM:  36    -0.230937226843E+04   -0.47157E-05   -0.18436E-06  2521   0.151E-03
   1 F= -.23306075E+04 E0= -.23306075E+04  d E =-.470519E-10  mag=     3.0001
       N       E                     dE             d eps       ncg     rms          rms(c)
DAV:   1    -0.230937447684E+04   -0.22131E-02   -0.49198E+00  4480   0.953E-01    0.251E-01
RMM:   2    -0.230937659576E+04   -0.21189E-02   -0.25947E-02  3966   0.567E-02    0.161E-01
RMM:   3    -0.230937676301E+04   -0.16724E-03   -0.20663E-03  4227   0.242E-02    0.263E-01
RMM:   4    -0.230937599989E+04    0.76312E-03   -0.90121E-04  3660   0.137E-02    0.835E-02
RMM:   5    -0.230937609087E+04   -0.90977E-04   -0.31456E-04  3300   0.766E-03    0.112E-01
RMM:   6    -0.230937595735E+04    0.13352E-03   -0.87972E-05  2945   0.559E-03    0.292E-02
RMM:   7    -0.230937595678E+04    0.57292E-06   -0.24493E-05  2598   0.289E-03
   2 F= -.23306105E+04 E0= -.23306105E+04  d E =-.412932E-10  mag=     3.0000
       N       E                     dE             d eps       ncg     rms          rms(c)
DAV:   1    -0.230936380436E+04    0.12153E-01   -0.19716E+01  4480   0.190E+00    0.479E-01
RMM:   2    -0.230937170956E+04   -0.79052E-02   -0.93494E-02  4111   0.988E-02    0.341E-01
RMM:   3    -0.230937191284E+04   -0.20328E-03   -0.71271E-03  5228   0.357E-02    0.493E-01
RMM:   4    -0.230936930089E+04    0.26120E-02   -0.33024E-03  4388   0.258E-02    0.180E-01
RMM:   5    -0.230936947886E+04   -0.17798E-03   -0.12029E-03  4089   0.148E-02    0.210E-01
RMM:   6    -0.230936902385E+04    0.45502E-03   -0.33480E-04  3617   0.904E-03    0.682E-02
RMM:   7    -0.230936900556E+04    0.18286E-04   -0.10392E-04  2911   0.523E-03    0.546E-02
RMM:   8    -0.230936897835E+04    0.27213E-04   -0.32254E-05  2732   0.350E-03    0.170E-02
RMM:   9    -0.230936897787E+04    0.47495E-06   -0.68197E-06  2726   0.204E-03
   3 F= -.23306048E+04 E0= -.23306048E+04  d E =-.481364E-10  mag=     3.0000
       N       E                     dE             d eps       ncg     rms          rms(c)
DAV:   1    -0.230937260795E+04   -0.36296E-02   -0.98898E+00  4640   0.136E+00    0.410E-01
RMM:   2    -0.230937699022E+04   -0.43823E-02   -0.50075E-02  4489   0.865E-02    0.308E-01
RMM:   3    -0.230937718973E+04   -0.19951E-03   -0.48238E-03  4561   0.378E-02    0.399E-01
RMM:   4    -0.230937538066E+04    0.18091E-02   -0.19917E-03  4052   0.220E-02    0.117E-01
RMM:   5    -0.230937545877E+04   -0.78105E-04   -0.61782E-04  3950   0.106E-02    0.130E-01
RMM:   6    -0.230937531010E+04    0.14866E-03   -0.16221E-04  3050   0.687E-03    0.487E-02
RMM:   7    -0.230937530617E+04    0.39306E-05   -0.45112E-05  2801   0.384E-03
   4 F= -.23306105E+04 E0= -.23306105E+04  d E =-.406044E-10  mag=     3.0000
       N       E                     dE             d eps       ncg     rms          rms(c)
DAV:   1    -0.230936359492E+04    0.11715E-01   -0.19954E+01  4480   0.182E+00    0.546E-01
RMM:   2    -0.230937100762E+04   -0.74127E-02   -0.88138E-02  4300   0.102E-01    0.386E-01
RMM:   3    -0.230937241437E+04   -0.14068E-02   -0.86708E-03  5152   0.466E-02    0.583E-01
RMM:   4    -0.230936874984E+04    0.36645E-02   -0.38201E-03  4551   0.290E-02    0.246E-01
RMM:   5    -0.230936842380E+04    0.32604E-03   -0.12623E-03  4165   0.149E-02    0.172E-01
RMM:   6    -0.230936822163E+04    0.20217E-03   -0.37056E-04  3669   0.889E-03    0.767E-02
RMM:   7    -0.230936818808E+04    0.33543E-04   -0.11824E-04  2944   0.594E-03    0.570E-02
RMM:   8    -0.230936815607E+04    0.32016E-04   -0.43173E-05  2871   0.390E-03    0.204E-02
RMM:   9    -0.230936815437E+04    0.16972E-05   -0.93985E-06  2796   0.245E-03
   5 F= -.23306034E+04 E0= -.23306034E+04  d E =-.484379E-10  mag=     3.0000
       N       E                     dE             d eps       ncg     rms          rms(c)
DAV:   1    -0.230936495893E+04    0.31971E-02   -0.10049E+01  4480   0.130E+00    0.470E-01
RMM:   2    -0.230937183768E+04   -0.68788E-02   -0.58922E-02  4726   0.880E-02    0.592E-01
RMM:   3    -0.230936735260E+04    0.44851E-02   -0.67970E-03  5152   0.405E-02    0.306E-01
RMM:   4    -0.230936670590E+04    0.64670E-03   -0.27260E-03  4712   0.245E-02    0.212E-01
RMM:   5    -0.230936631635E+04    0.38955E-03   -0.10398E-03  4554   0.141E-02    0.129E-01
RMM:   6    -0.230936617303E+04    0.14332E-03   -0.18771E-04  3299   0.734E-03    0.633E-02
RMM:   7    -0.230936617318E+04   -0.14919E-06   -0.86064E-05  2999   0.563E-03
   6 F= -.23306018E+04 E0= -.23306018E+04  d E =-.318288E-10  mag=     3.0000
       N       E                     dE             d eps       ncg     rms          rms(c)
DAV:   1    -0.230934898198E+04    0.17191E-01   -0.19163E+01  4480   0.197E+00    0.746E-01
RMM:   2    -0.230936865105E+04   -0.19669E-01   -0.18320E-01  4647   0.149E-01    0.947E-01
RMM:   3    -0.230935793144E+04    0.10720E-01   -0.19814E-02  5353   0.715E-02    0.507E-01
RMM:   4    -0.230935607299E+04    0.18584E-02   -0.72716E-03  5279   0.368E-02    0.331E-01
RMM:   5    -0.230935512466E+04    0.94834E-03   -0.28722E-03  5329   0.225E-02    0.236E-01
RMM:   6    -0.230935457633E+04    0.54832E-03   -0.67211E-04  4301   0.122E-02    0.988E-02
RMM:   7    -0.230935451601E+04    0.60325E-04   -0.21735E-04  3467   0.818E-03    0.709E-02
RMM:   8    -0.230935448659E+04    0.29415E-04   -0.68718E-05  2996   0.516E-03    0.436E-02
RMM:   9    -0.230935447500E+04    0.11593E-04   -0.21445E-05  2947   0.405E-03    0.969E-03
RMM:  10    -0.230935448032E+04   -0.53237E-05   -0.78696E-06  2868   0.310E-03
   7 F= -.23305893E+04 E0= -.23305893E+04  d E =-.677874E-10  mag=     3.0000
       N       E                     dE             d eps       ncg     rms          rms(c)
DAV:   1    -0.230937418487E+04   -0.19710E-01   -0.51876E+00  4480   0.101E+00    0.361E-01
RMM:   2    -0.230937990969E+04   -0.57248E-02   -0.68541E-02  4215   0.861E-02    0.296E-01
RMM:   3    -0.230937903656E+04    0.87313E-03   -0.53257E-03  4131   0.435E-02    0.294E-01
RMM:   4    -0.230937812919E+04    0.90738E-03   -0.18776E-03  4617   0.201E-02    0.129E-01
RMM:   5    -0.230937808530E+04    0.43890E-04   -0.51993E-04  4328   0.107E-02    0.140E-01
RMM:   6    -0.230937797344E+04    0.11185E-03   -0.28990E-04  3148   0.850E-03    0.992E-02
RMM:   7    -0.230937787072E+04    0.10272E-03   -0.11593E-04  3131   0.642E-03    0.345E-02
RMM:   8    -0.230937786126E+04    0.94582E-05   -0.25922E-05  2810   0.371E-03
   8 F= -.23306131E+04 E0= -.23306131E+04  d E =-.576620E-10  mag=     3.0000
       N       E                     dE             d eps       ncg     rms          rms(c)
DAV:   1    -0.230936348173E+04    0.14389E-01   -0.95791E-01  4480   0.519E-01    0.252E-01
RMM:   2    -0.230936621193E+04   -0.27302E-02   -0.93559E-03  4451   0.549E-02    0.449E-01
RMM:   3    -0.230936350209E+04    0.27098E-02   -0.19730E-03  4374   0.249E-02    0.128E-01
RMM:   4    -0.230936357691E+04   -0.74821E-04   -0.60894E-04  3978   0.110E-02    0.135E-01
RMM:   5    -0.230936341354E+04    0.16337E-03   -0.29369E-04  3302   0.841E-03    0.607E-02
RMM:   6    -0.230936339641E+04    0.17137E-04   -0.86078E-05  3097   0.488E-03    0.426E-02
RMM:   7    -0.230936339339E+04    0.30223E-05   -0.33380E-05  2779   0.351E-03
   9 F= -.23305986E+04 E0= -.23305986E+04  d E =-.397997E-10  mag=     3.0000
       N       E                     dE             d eps       ncg     rms          rms(c)
DAV:   1    -0.230937246790E+04   -0.90715E-02   -0.49165E-01  4640   0.381E-01    0.211E-01
RMM:   2    -0.230937546293E+04   -0.29950E-02   -0.72067E-03  4590   0.461E-02    0.489E-01
RMM:   3    -0.230937226319E+04    0.31997E-02   -0.16642E-03  4510   0.216E-02    0.863E-02
RMM:   4    -0.230937235352E+04   -0.90334E-04   -0.44657E-04  3785   0.932E-03    0.121E-01
RMM:   5    -0.230937223994E+04    0.11358E-03   -0.22166E-04  3211   0.716E-03    0.610E-02
RMM:   6    -0.230937222062E+04    0.19320E-04   -0.57934E-05  2928   0.431E-03    0.382E-02
RMM:   7    -0.230937220957E+04    0.11050E-04   -0.20665E-05  2668   0.290E-03    0.207E-02
RMM:   8    -0.230937220491E+04    0.46593E-05   -0.51807E-06  2554   0.180E-03
  10 F= -.23306075E+04 E0= -.23306075E+04  d E =-.601221E-10  mag=     3.0000
       N       E                     dE             d eps       ncg     rms          rms(c)
DAV:   1    -0.230936742005E+04    0.47895E-02   -0.96617E-01  4480   0.514E-01    0.242E-01
RMM:   2    -0.230937105361E+04   -0.36336E-02   -0.82182E-03  4714   0.524E-02    0.543E-01
RMM:   3    -0.230936715010E+04    0.39035E-02   -0.19846E-03  4399   0.253E-02    0.104E-01
RMM:   4    -0.230936736853E+04   -0.21843E-03   -0.67661E-04  3964   0.117E-02    0.152E-01
RMM:   5    -0.230936717321E+04    0.19533E-03   -0.30814E-04  3293   0.835E-03    0.663E-02
RMM:   6    -0.230936716491E+04    0.82943E-05   -0.78116E-05  2962   0.491E-03
  11 F= -.23306024E+04 E0= -.23306024E+04  d E =-.314554E-10  mag=     3.0000
       N       E                     dE             d eps       ncg     rms          rms(c)
DAV:   1    -0.230938502921E+04   -0.17856E-01   -0.49344E-01  4480   0.373E-01    0.212E-01
RMM:   2    -0.230938591941E+04   -0.89020E-03   -0.53411E-03  4627   0.347E-02    0.355E-01
RMM:   3    -0.230938445675E+04    0.14627E-02   -0.13386E-03  4576   0.191E-02    0.116E-01
RMM:   4    -0.230938444244E+04    0.14315E-04   -0.63539E-04  4395   0.106E-02    0.107E-01
RMM:   5    -0.230938437619E+04    0.66252E-04   -0.21796E-04  3324   0.703E-03    0.810E-02
RMM:   6    -0.230938431645E+04    0.59737E-04   -0.61701E-05  2901   0.468E-03    0.248E-02
RMM:   7    -0.230938432636E+04   -0.99159E-05   -0.25683E-05  2833   0.309E-03
  12 F= -.23306197E+04 E0= -.23306197E+04  d E =-.388670E-10  mag=     3.0000
       N       E                     dE             d eps       ncg     rms          rms(c)
DAV:   1    -0.230936381174E+04    0.20505E-01   -0.95903E-01  4480   0.522E-01    0.314E-01
RMM:   2    -0.230936354978E+04    0.26196E-03   -0.96042E-03  5030   0.450E-02    0.325E-01
RMM:   3    -0.230936287614E+04    0.67365E-03   -0.28713E-03  4573   0.305E-02    0.263E-01
RMM:   4    -0.230936261998E+04    0.25615E-03   -0.14456E-03  4733   0.162E-02    0.207E-01
RMM:   5    -0.230936234956E+04    0.27042E-03   -0.46994E-04  3861   0.104E-02    0.127E-01
RMM:   6    -0.230936216743E+04    0.18213E-03   -0.14548E-04  3055   0.720E-03    0.327E-02
RMM:   7    -0.230936216959E+04   -0.21552E-05   -0.35284E-05  3030   0.404E-03
  13 F= -.23305972E+04 E0= -.23305972E+04  d E =-.491094E-10  mag=     3.0000
