       N       E                     dE             d eps       ncg     rms          rms(c)
DAV:   1     0.121144451986E+05    0.12114E+05   -0.83261E+05  4640   0.140E+03
DAV:   2    -0.129678504196E+04   -0.13411E+05   -0.12904E+05  5120   0.318E+02
DAV:   3    -0.249292334658E+04   -0.11961E+04   -0.11868E+04  5440   0.101E+02
DAV:   4    -0.251795907135E+04   -0.25036E+02   -0.24910E+02  5680   0.175E+01
DAV:   5    -0.251864363755E+04   -0.68457E+00   -0.68348E+00  5840   0.254E+00    0.171E+02
RMM:   6    -0.148173428412E+04    0.10369E+04   -0.19080E+03  4509   0.377E+01    0.756E+01
RMM:   7    -0.164665025721E+04   -0.16492E+03   -0.32137E+02  5040   0.139E+01    0.585E+01
RMM:   8    -0.168942686784E+04   -0.42777E+02   -0.78989E+01  5299   0.797E+00    0.411E+01
RMM:   9    -0.177961843269E+04   -0.90192E+02   -0.58264E+01  4993   0.551E+00    0.419E+01
RMM:  10    -0.187836458246E+04   -0.98746E+02   -0.53479E+01  5241   0.670E+00    0.300E+01
RMM:  11    -0.197444351372E+04   -0.96079E+02   -0.47046E+01  5057   0.563E+00    0.199E+01
RMM:  12    -0.206480007543E+04   -0.90357E+02   -0.35172E+01  4638   0.475E+00    0.146E+01
RMM:  13    -0.217920167986E+04   -0.11440E+03   -0.76896E+01  4653   0.645E+00    0.118E+01
RMM:  14    -0.223891512842E+04   -0.59713E+02   -0.39565E+01  4865   0.474E+00    0.851E+00
RMM:  15    -0.229497843520E+04   -0.56063E+02   -0.49895E+01  4549   0.484E+00    0.517E+00
RMM:  16    -0.230386537092E+04   -0.88869E+01   -0.10363E+01  4651   0.294E+00    0.652E+00
RMM:  17    -0.230533811991E+04   -0.14727E+01   -0.30662E+00  5366   0.864E-01    0.511E+00
RMM:  18    -0.230529362209E+04    0.44498E-01   -0.13241E-01  5650   0.335E-01    0.505E+00
RMM:  19    -0.230564735153E+04   -0.35373E+00   -0.21089E-01  4640   0.219E-01    0.500E+00
RMM:  20    -0.230617652249E+04   -0.52917E+00   -0.35910E-01  4495   0.314E-01    0.456E+00
RMM:  21    -0.230778850656E+04   -0.16120E+01   -0.14797E+00  4549   0.712E-01    0.443E+00
RMM:  22    -0.230949539738E+04   -0.17069E+01   -0.82742E-01  4735   0.603E-01    0.443E+00
RMM:  23    -0.231036854574E+04   -0.87315E+00   -0.35426E-01  4750   0.414E-01    0.275E+00
RMM:  24    -0.231085973026E+04   -0.49118E+00   -0.28046E-01  4692   0.286E-01    0.105E+00
RMM:  25    -0.231099986314E+04   -0.14013E+00   -0.12328E-01  4725   0.204E-01    0.403E-01
RMM:  26    -0.231105649398E+04   -0.56631E-01   -0.41421E-02  4766   0.110E-01    0.384E-01
RMM:  27    -0.231107137628E+04   -0.14882E-01   -0.11853E-02  4595   0.769E-02    0.137E-01
RMM:  28    -0.231108064246E+04   -0.92662E-02   -0.34848E-03  4802   0.423E-02    0.143E-01
RMM:  29    -0.231108830339E+04   -0.76609E-02   -0.18703E-03  4563   0.300E-02    0.951E-02
RMM:  30    -0.231109461579E+04   -0.63124E-02   -0.16567E-03  4506   0.292E-02    0.442E-02
RMM:  31    -0.231109793116E+04   -0.33154E-02   -0.74638E-04  4316   0.229E-02    0.359E-02
RMM:  32    -0.231110061034E+04   -0.26792E-02   -0.68747E-04  4127   0.175E-02    0.218E-02
RMM:  33    -0.231110144108E+04   -0.83074E-03   -0.22853E-04  3921   0.150E-02    0.122E-02
RMM:  34    -0.231110176661E+04   -0.32553E-03   -0.11366E-04  3737   0.799E-03    0.792E-03
RMM:  35    -0.231110188002E+04   -0.11341E-03   -0.36112E-05  3392   0.741E-03    0.527E-03
RMM:  36    -0.231110193199E+04   -0.51972E-04   -0.18346E-05  3129   0.396E-03    0.254E-03
RMM:  37    -0.231110195543E+04   -0.23443E-04   -0.91716E-06  2947   0.363E-03    0.139E-03
RMM:  38    -0.231110196267E+04   -0.72410E-05   -0.43577E-06  2631   0.245E-03
   1 F= -.23315593E+04 E0= -.23315593E+04  d E =-.253661E-06  mag=     5.0001
       N       E                     dE             d eps       ncg     rms          rms(c)
DAV:   1    -0.231105015581E+04    0.51800E-01   -0.21318E+00  4320   0.642E-01    0.318E-01
RMM:   2    -0.231104943499E+04    0.72081E-03   -0.92892E-03  3871   0.376E-02    0.239E-01
RMM:   3    -0.231104904194E+04    0.39306E-03   -0.18966E-03  4773   0.183E-02    0.199E-01
RMM:   4    -0.231104890535E+04    0.13659E-03   -0.11951E-03  4193   0.137E-02    0.152E-01
RMM:   5    -0.231104870949E+04    0.19586E-03   -0.44196E-04  3796   0.938E-03    0.397E-02
RMM:   6    -0.231104869926E+04    0.10230E-04   -0.53040E-05  2971   0.400E-03    0.155E-02
RMM:   7    -0.231104869946E+04   -0.19788E-06   -0.13512E-05  2703   0.253E-03
   2 F= -.23315067E+04 E0= -.23315067E+04  d E =-.545353E-06  mag=     5.0000
       N       E                     dE             d eps       ncg     rms          rms(c)
DAV:   1    -0.231112921398E+04   -0.80515E-01   -0.84499E+00  4480   0.124E+00    0.628E-01
RMM:   2    -0.231112522037E+04    0.39936E-02   -0.29336E-02  4222   0.722E-02    0.464E-01
RMM:   3    -0.231112393144E+04    0.12889E-02   -0.68129E-03  5155   0.367E-02    0.410E-01
RMM:   4    -0.231112312436E+04    0.80708E-03   -0.41686E-03  4751   0.257E-02    0.271E-01
RMM:   5    -0.231112254530E+04    0.57906E-03   -0.16474E-03  4508   0.174E-02    0.811E-02
RMM:   6    -0.231112249877E+04    0.46523E-04   -0.20086E-04  3635   0.725E-03    0.288E-02
RMM:   7    -0.231112249798E+04    0.79769E-06   -0.45028E-05  3093   0.398E-03
   3 F= -.23315794E+04 E0= -.23315794E+04  d E =-.121336E-06  mag=     5.0000
       N       E                     dE             d eps       ncg     rms          rms(c)
DAV:   1    -0.231108450299E+04    0.37996E-01   -0.42511E+00  4320   0.884E-01    0.451E-01
RMM:   2    -0.231108282382E+04    0.16792E-02   -0.14994E-02  4095   0.523E-02    0.331E-01
RMM:   3    -0.231108237197E+04    0.45185E-03   -0.35334E-03  4897   0.259E-02    0.321E-01
RMM:   4    -0.231108177843E+04    0.59353E-03   -0.22659E-03  4654   0.190E-02    0.181E-01
RMM:   5    -0.231108152493E+04    0.25350E-03   -0.66281E-04  3920   0.111E-02    0.656E-02
RMM:   6    -0.231108150854E+04    0.16386E-04   -0.11022E-04  3332   0.555E-03    0.325E-02
RMM:   7    -0.231108150978E+04   -0.12388E-05   -0.21671E-05  2850   0.295E-03
   4 F= -.23315389E+04 E0= -.23315389E+04  d E =-.102288E-06  mag=     5.0000
       N       E                     dE             d eps       ncg     rms          rms(c)
DAV:   1    -0.231108764277E+04   -0.61342E-02   -0.86516E+00  4400   0.123E+00    0.669E-01
RMM:   2    -0.231108279031E+04    0.48525E-02   -0.25804E-02  3975   0.716E-02    0.406E-01
RMM:   3    -0.231108280194E+04   -0.11626E-04   -0.99336E-03  5183   0.393E-02    0.498E-01
RMM:   4    -0.231108101232E+04    0.17896E-02   -0.42064E-03  5002   0.280E-02    0.182E-01
RMM:   5    -0.231108085019E+04    0.16213E-03   -0.60168E-04  3893   0.109E-02    0.871E-02
RMM:   6    -0.231108083010E+04    0.20090E-04   -0.13072E-04  3507   0.543E-03    0.515E-02
RMM:   7    -0.231108085178E+04   -0.21673E-04   -0.53496E-05  3126   0.386E-03    0.311E-02
RMM:   8    -0.231108085615E+04   -0.43703E-05   -0.16530E-05  2709   0.259E-03
   5 F= -.23315384E+04 E0= -.23315384E+04  d E =-.591038E-06  mag=     5.0000
       N       E                     dE             d eps       ncg     rms          rms(c)
DAV:   1    -0.231109919216E+04   -0.18340E-01   -0.42726E+00  4480   0.889E-01    0.460E-01
RMM:   2    -0.231109757548E+04    0.16167E-02   -0.15171E-02  3858   0.532E-02    0.313E-01
RMM:   3    -0.231109804769E+04   -0.47221E-03   -0.50945E-03  5097   0.268E-02    0.434E-01
RMM:   4    -0.231109632780E+04    0.17199E-02   -0.26679E-03  4514   0.217E-02    0.664E-02
RMM:   5    -0.231109634728E+04   -0.19473E-04   -0.28339E-04  3502   0.869E-03    0.439E-02
RMM:   6    -0.231109633886E+04    0.84188E-05   -0.52882E-05  3144   0.425E-03
   6 F= -.23315530E+04 E0= -.23315530E+04  d E =-.663828E-07  mag=     5.0000
       N       E                     dE             d eps       ncg     rms          rms(c)
DAV:   1    -0.231108825997E+04    0.80873E-02   -0.82333E+00  4320   0.113E+00    0.585E-01
RMM:   2    -0.231108599116E+04    0.22688E-02   -0.23865E-02  4022   0.629E-02    0.393E-01
RMM:   3    -0.231108718884E+04   -0.11977E-02   -0.83640E-03  5273   0.352E-02    0.586E-01
RMM:   4    -0.231108403957E+04    0.31493E-02   -0.38713E-03  4393   0.274E-02    0.674E-02
RMM:   5    -0.231108409818E+04   -0.58614E-04   -0.46417E-04  3718   0.123E-02    0.414E-02
RMM:   6    -0.231108409494E+04    0.32386E-05   -0.73099E-05  3230   0.536E-03
   7 F= -.23315423E+04 E0= -.23315423E+04  d E =-.844871E-06  mag=     5.0000
       N       E                     dE             d eps       ncg     rms          rms(c)
DAV:   1    -0.231109499839E+04   -0.10900E-01   -0.70002E+00  4480   0.127E+00    0.592E-01
RMM:   2    -0.231109965143E+04   -0.46530E-02   -0.51460E-02  4267   0.906E-02    0.333E-01
RMM:   3    -0.231109946319E+04    0.18824E-03   -0.47873E-03  5019   0.377E-02    0.343E-01
RMM:   4    -0.231109853417E+04    0.92902E-03   -0.16426E-03  4432   0.188E-02    0.141E-01
RMM:   5    -0.231109842805E+04    0.10612E-03   -0.87975E-04  3948   0.128E-02    0.595E-02
RMM:   6    -0.231109841226E+04    0.15789E-04   -0.87282E-05  3229   0.770E-03    0.258E-02
RMM:   7    -0.231109841184E+04    0.42771E-06   -0.15822E-05  2954   0.287E-03
   8 F= -.23315572E+04 E0= -.23315572E+04  d E =-.179007E-06  mag=     5.0000
       N       E                     dE             d eps       ncg     rms          rms(c)
DAV:   1    -0.231107836435E+04    0.20048E-01   -0.19869E+01  4480   0.202E+00    0.988E-01
RMM:   2    -0.231109224191E+04   -0.13878E-01   -0.11184E-01  4502   0.127E-01    0.451E-01
RMM:   3    -0.231109212110E+04    0.12081E-03   -0.76419E-03  5110   0.543E-02    0.335E-01
RMM:   4    -0.231109170112E+04    0.41998E-03   -0.20746E-03  4742   0.229E-02    0.223E-01
RMM:   5    -0.231109136462E+04    0.33649E-03   -0.13120E-03  4541   0.176E-02    0.105E-01
RMM:   6    -0.231109131000E+04    0.54626E-04   -0.18349E-04  3712   0.880E-03    0.341E-02
RMM:   7    -0.231109130827E+04    0.17294E-05   -0.28909E-05  3013   0.443E-03
   9 F= -.23315473E+04 E0= -.23315473E+04  d E =-.335855E-06  mag=     5.0000
       N       E                     dE             d eps       ncg     rms          rms(c)
DAV:   1    -0.231109654764E+04   -0.52376E-02   -0.99769E+00  4640   0.141E+00    0.589E-01
RMM:   2    -0.231110320001E+04   -0.66524E-02   -0.55888E-02  4440   0.925E-02    0.247E-01
RMM:   3    -0.231110336244E+04   -0.16244E-03   -0.27604E-03  4713   0.411E-02    0.123E-01
RMM:   4    -0.231110337062E+04   -0.81745E-05   -0.70365E-04  4132   0.135E-02    0.931E-02
RMM:   5    -0.231110335928E+04    0.11337E-04   -0.28944E-04  3760   0.843E-03    0.828E-02
RMM:   6    -0.231110331261E+04    0.46669E-04   -0.56718E-05  3064   0.496E-03    0.191E-02
RMM:   7    -0.231110331353E+04   -0.92144E-06   -0.11025E-05  2854   0.262E-03
  10 F= -.23315606E+04 E0= -.23315606E+04  d E =-.295850E-06  mag=     5.0000
       N       E                     dE             d eps       ncg     rms          rms(c)
DAV:   1    -0.231108965892E+04    0.13654E-01   -0.20118E+01  4480   0.188E+00    0.744E-01
RMM:   2    -0.231110044943E+04   -0.10791E-01   -0.76308E-02  4410   0.112E-01    0.340E-01
RMM:   3    -0.231110170715E+04   -0.12577E-02   -0.53093E-03  4948   0.560E-02    0.290E-01
RMM:   4    -0.231110121246E+04    0.49469E-03   -0.16784E-03  4441   0.207E-02    0.165E-01
RMM:   5    -0.231110099350E+04    0.21896E-03   -0.53764E-04  3945   0.119E-02    0.474E-02
RMM:   6    -0.231110100952E+04   -0.16022E-04   -0.77273E-05  3165   0.665E-03    0.231E-02
RMM:   7    -0.231110100858E+04    0.94200E-06   -0.14459E-05  2904   0.311E-03
  11 F= -.23315585E+04 E0= -.23315585E+04  d E =-.198417E-06  mag=     5.0000
       N       E                     dE             d eps       ncg     rms          rms(c)
DAV:   1    -0.231112112205E+04   -0.20113E-01   -0.10005E+01  4480   0.140E+00    0.634E-01
RMM:   2    -0.231112731257E+04   -0.61905E-02   -0.43046E-02  4402   0.855E-02    0.316E-01
RMM:   3    -0.231112785115E+04   -0.53858E-03   -0.38900E-03  4838   0.392E-02    0.290E-01
RMM:   4    -0.231112726934E+04    0.58181E-03   -0.11633E-03  4173   0.176E-02    0.127E-01
RMM:   5    -0.231112717890E+04    0.90436E-04   -0.54711E-04  3849   0.114E-02    0.595E-02
RMM:   6    -0.231112716351E+04    0.15388E-04   -0.69734E-05  3137   0.671E-03    0.250E-02
RMM:   7    -0.231112716373E+04   -0.21339E-06   -0.19696E-05  2977   0.331E-03
  12 F= -.23315855E+04 E0= -.23315855E+04  d E =-.611312E-07  mag=     5.0000
       N       E                     dE             d eps       ncg     rms          rms(c)
DAV:   1    -0.231104997379E+04    0.77190E-01   -0.19724E+01  4480   0.203E+00    0.966E-01
RMM:   2    -0.231106513281E+04   -0.15159E-01   -0.12258E-01  4490   0.134E-01    0.453E-01
RMM:   3    -0.231106485708E+04    0.27573E-03   -0.94086E-03  5023   0.599E-02    0.411E-01
RMM:   4    -0.231106388018E+04    0.97690E-03   -0.24105E-03  4457   0.231E-02    0.198E-01
RMM:   5    -0.231106369958E+04    0.18060E-03   -0.11248E-03  4291   0.150E-02    0.119E-01
RMM:   6    -0.231106361763E+04    0.81945E-04   -0.18584E-04  3454   0.856E-03    0.413E-02
RMM:   7    -0.231106361877E+04   -0.11394E-05   -0.46838E-05  3110   0.462E-03
  13 F= -.23315200E+04 E0= -.23315200E+04  d E =-.101219E-05  mag=     5.0000
       N       E                     dE             d eps       ncg     rms          rms(c)
DAV:   1    -0.231111602915E+04   -0.52412E-01   -0.52704E+00  4480   0.105E+00    0.525E-01
RMM:   2    -0.231111988935E+04   -0.38602E-02   -0.33436E-02  4252   0.724E-02    0.266E-01
RMM:   3    -0.231111962150E+04    0.26785E-03   -0.24148E-03  4671   0.298E-02    0.201E-01
RMM:   4    -0.231111950767E+04    0.11383E-03   -0.71077E-04  3893   0.135E-02    0.138E-01
RMM:   5    -0.231111941484E+04    0.92833E-04   -0.43824E-04  3972   0.100E-02    0.823E-02
RMM:   6    -0.231111936847E+04    0.46372E-04   -0.60296E-05  3147   0.524E-03    0.199E-02
RMM:   7    -0.231111936902E+04   -0.54935E-06   -0.13020E-05  2825   0.282E-03
  14 F= -.23315767E+04 E0= -.23315767E+04  d E =-.208684E-06  mag=     5.0000
       N       E                     dE             d eps       ncg     rms          rms(c)
DAV:   1    -0.231108174265E+04    0.37626E-01   -0.12161E+00  4560   0.436E-01    0.364E-01
RMM:   2    -0.231108158972E+04    0.15293E-03   -0.69850E-03  3901   0.315E-02    0.238E-01
RMM:   3    -0.231108136666E+04    0.22306E-03   -0.13783E-03  4492   0.153E-02    0.182E-01
RMM:   4    -0.231108154025E+04   -0.17359E-03   -0.10330E-03  4106   0.139E-02    0.196E-01
RMM:   5    -0.231108120625E+04    0.33400E-03   -0.34284E-04  3828   0.970E-03    0.365E-02
RMM:   6    -0.231108120041E+04    0.58386E-05   -0.43276E-05  3000   0.330E-03
  15 F= -.23315387E+04 E0= -.23315387E+04  d E =-.304970E-06  mag=     5.0000
       N       E                     dE             d eps       ncg     rms          rms(c)
DAV:   1    -0.231109035656E+04   -0.91503E-02   -0.61433E-01  4880   0.311E-01    0.322E-01
RMM:   2    -0.231108955837E+04    0.79819E-03   -0.63722E-03  3906   0.287E-02    0.222E-01
RMM:   3    -0.231108919774E+04    0.36063E-03   -0.99125E-04  4264   0.144E-02    0.156E-01
RMM:   4    -0.231108924102E+04   -0.43281E-04   -0.76753E-04  4013   0.122E-02    0.156E-01
RMM:   5    -0.231108905190E+04    0.18912E-03   -0.32647E-04  3708   0.854E-03    0.520E-02
RMM:   6    -0.231108902565E+04    0.26241E-04   -0.48167E-05  2985   0.404E-03    0.128E-02
RMM:   7    -0.231108902517E+04    0.48656E-06   -0.82385E-06  2387   0.211E-03
  16 F= -.23315470E+04 E0= -.23315470E+04  d E =-.281985E-06  mag=     5.0000
       N       E                     dE             d eps       ncg     rms          rms(c)
DAV:   1    -0.231109617775E+04   -0.71521E-02   -0.13255E+00  5200   0.480E-01    0.707E-01
RMM:   2    -0.231109000144E+04    0.61763E-02   -0.34448E-02  4433   0.658E-02    0.521E-01
RMM:   3    -0.231108710011E+04    0.29013E-02   -0.52359E-03  4666   0.363E-02    0.267E-01
RMM:   4    -0.231108698544E+04    0.11467E-03   -0.27855E-03  4597   0.216E-02    0.249E-01
RMM:   5    -0.231108668337E+04    0.30206E-03   -0.12352E-03  4463   0.164E-02    0.152E-01
RMM:   6    -0.231108644138E+04    0.24199E-03   -0.27840E-04  3564   0.851E-03    0.300E-02
RMM:   7    -0.231108643698E+04    0.44044E-05   -0.43181E-05  2911   0.402E-03
  17 F= -.23315433E+04 E0= -.23315433E+04  d E =-.232813E-06  mag=     5.0000
       N       E                     dE             d eps       ncg     rms          rms(c)
DAV:   1    -0.231109978222E+04   -0.13341E-01   -0.64998E-01  5120   0.302E-01    0.444E-01
RMM:   2    -0.231109789815E+04    0.18841E-02   -0.14836E-02  4308   0.408E-02    0.337E-01
RMM:   3    -0.231109651388E+04    0.13843E-02   -0.21118E-03  4476   0.230E-02    0.156E-01
RMM:   4    -0.231109638697E+04    0.12691E-03   -0.87275E-04  3952   0.109E-02    0.825E-02
RMM:   5    -0.231109634513E+04    0.41847E-04   -0.18797E-04  3433   0.831E-03    0.228E-02
RMM:   6    -0.231109634514E+04   -0.10652E-07   -0.41570E-05  2918   0.359E-03
  18 F= -.23315540E+04 E0= -.23315540E+04  d E =-.287788E-06  mag=     5.0000
       N       E                     dE             d eps       ncg     rms          rms(c)
DAV:   1    -0.231110569323E+04   -0.93481E-02   -0.12192E+00  4480   0.425E-01    0.364E-01
RMM:   2    -0.231110563307E+04    0.60165E-04   -0.62811E-03  3904   0.314E-02    0.236E-01
RMM:   3    -0.231110564912E+04   -0.16050E-04   -0.15242E-03  4516   0.157E-02    0.225E-01
RMM:   4    -0.231110557003E+04    0.79090E-04   -0.11729E-03  4203   0.151E-02    0.183E-01
RMM:   5    -0.231110529884E+04    0.27118E-03   -0.28948E-04  3764   0.913E-03    0.349E-02
RMM:   6    -0.231110529258E+04    0.62598E-05   -0.35296E-05  2954   0.325E-03
  19 F= -.23315624E+04 E0= -.23315624E+04  d E =-.217991E-06  mag=     5.0000
       N       E                     dE             d eps       ncg     rms          rms(c)
DAV:   1    -0.231108863797E+04    0.16661E-01   -0.61691E-01  4640   0.333E-01    0.285E-01
RMM:   2    -0.231108838875E+04    0.24923E-03   -0.38960E-03  3777   0.259E-02    0.193E-01
RMM:   3    -0.231108830807E+04    0.80677E-04   -0.85926E-04  4312   0.127E-02    0.173E-01
RMM:   4    -0.231108827198E+04    0.36089E-04   -0.63502E-04  3873   0.113E-02    0.131E-01
RMM:   5    -0.231108813100E+04    0.14098E-03   -0.21069E-04  3408   0.695E-03    0.357E-02
RMM:   6    -0.231108812037E+04    0.10631E-04   -0.26316E-05  2738   0.326E-03    0.129E-02
RMM:   7    -0.231108812069E+04   -0.32636E-06   -0.61426E-06  2324   0.184E-03
  20 F= -.23315452E+04 E0= -.23315452E+04  d E =-.307564E-06  mag=     5.0000
       N       E                     dE             d eps       ncg     rms          rms(c)
DAV:   1    -0.231111129006E+04   -0.23170E-01   -0.12686E+00  4960   0.441E-01    0.510E-01
RMM:   2    -0.231110947346E+04    0.18166E-02   -0.18332E-02  4479   0.461E-02    0.386E-01
RMM:   3    -0.231110785782E+04    0.16156E-02   -0.29365E-03  4691   0.282E-02    0.213E-01
RMM:   4    -0.231110799710E+04   -0.13928E-03   -0.14527E-03  4415   0.156E-02    0.215E-01
RMM:   5    -0.231110775031E+04    0.24679E-03   -0.77176E-04  4088   0.124E-02    0.111E-01
RMM:   6    -0.231110763366E+04    0.11664E-03   -0.12172E-04  3325   0.612E-03    0.191E-02
RMM:   7    -0.231110763232E+04    0.13452E-05   -0.22334E-05  2733   0.293E-03
  21 F= -.23315653E+04 E0= -.23315653E+04  d E =-.208546E-06  mag=     5.0000
       N       E                     dE             d eps       ncg     rms          rms(c)
DAV:   1    -0.231109891840E+04    0.87153E-02   -0.65090E-01  4880   0.296E-01    0.429E-01
RMM:   2    -0.231109716204E+04    0.17564E-02   -0.13418E-02  4404   0.396E-02    0.337E-01
RMM:   3    -0.231109593891E+04    0.12231E-02   -0.21792E-03  4631   0.236E-02    0.179E-01
RMM:   4    -0.231109599122E+04   -0.52303E-04   -0.96513E-04  4179   0.130E-02    0.178E-01
RMM:   5    -0.231109580415E+04    0.18707E-03   -0.52174E-04  3900   0.105E-02    0.897E-02
RMM:   6    -0.231109572594E+04    0.78214E-04   -0.86336E-05  3150   0.521E-03    0.153E-02
RMM:   7    -0.231109572547E+04    0.46869E-06   -0.14689E-05  2563   0.250E-03
  22 F= -.23315529E+04 E0= -.23315529E+04  d E =-.311630E-06  mag=     5.0000
       N       E                     dE             d eps       ncg     rms          rms(c)
DAV:   1    -0.231110343001E+04   -0.77041E-02   -0.12571E+00  4880   0.419E-01    0.478E-01
RMM:   2    -0.231110195999E+04    0.14700E-02   -0.15788E-02  4288   0.427E-02    0.357E-01
RMM:   3    -0.231110068164E+04    0.12783E-02   -0.25411E-03  4738   0.246E-02    0.206E-01
RMM:   4    -0.231110081427E+04   -0.13262E-03   -0.13070E-03  4331   0.149E-02    0.208E-01
RMM:   5    -0.231110056819E+04    0.24608E-03   -0.71348E-04  4117   0.120E-02    0.103E-01
RMM:   6    -0.231110046646E+04    0.10173E-03   -0.11006E-04  3229   0.565E-03    0.161E-02
RMM:   7    -0.231110046498E+04    0.14746E-05   -0.16709E-05  2631   0.268E-03
  23 F= -.23315581E+04 E0= -.23315581E+04  d E =-.206096E-06  mag=     5.0000
       N       E                     dE             d eps       ncg     rms          rms(c)
DAV:   1    -0.231109637900E+04    0.40875E-02   -0.67100E-01  5040   0.317E-01    0.465E-01
RMM:   2    -0.231109405167E+04    0.23273E-02   -0.15718E-02  4120   0.421E-02    0.343E-01
RMM:   3    -0.231109270232E+04    0.13493E-02   -0.22272E-03  4688   0.227E-02    0.177E-01
RMM:   4    -0.231109262903E+04    0.73299E-04   -0.10996E-03  4209   0.134E-02    0.155E-01
RMM:   5    -0.231109253696E+04    0.92066E-04   -0.53360E-04  3972   0.105E-02    0.103E-01
RMM:   6    -0.231109242601E+04    0.11095E-03   -0.12100E-04  3204   0.605E-03    0.206E-02
RMM:   7    -0.231109242475E+04    0.12622E-05   -0.19414E-05  2655   0.280E-03
  24 F= -.23315496E+04 E0= -.23315496E+04  d E =-.227107E-06  mag=     5.0000
       N       E                     dE             d eps       ncg     rms          rms(c)
DAV:   1    -0.231109871878E+04   -0.62928E-02   -0.13021E+00  4960   0.441E-01    0.577E-01
RMM:   2    -0.231109533448E+04    0.33843E-02   -0.21529E-02  3820   0.502E-02    0.389E-01
RMM:   3    -0.231109368534E+04    0.16491E-02   -0.31429E-03  4751   0.253E-02    0.214E-01
RMM:   4    -0.231109331069E+04    0.37465E-03   -0.15599E-03  4230   0.150E-02    0.996E-02
RMM:   5    -0.231109326184E+04    0.48846E-04   -0.40012E-04  3664   0.110E-02    0.706E-02
RMM:   6    -0.231109324234E+04    0.19507E-04   -0.13448E-04  3340   0.565E-03    0.416E-02
RMM:   7    -0.231109322659E+04    0.15744E-04   -0.28319E-05  2828   0.374E-03    0.150E-02
RMM:   8    -0.231109322533E+04    0.12645E-05   -0.71797E-06  2664   0.215E-03
  25 F= -.23315509E+04 E0= -.23315509E+04  d E =-.284638E-06  mag=     5.0000
       N       E                     dE             d eps       ncg     rms          rms(c)
DAV:   1    -0.231106981876E+04    0.23408E-01   -0.62185E-01  4880   0.349E-01    0.352E-01
RMM:   2    -0.231106908199E+04    0.73677E-03   -0.52658E-03  3547   0.322E-02    0.211E-01
RMM:   3    -0.231106896721E+04    0.11479E-03   -0.16923E-03  4385   0.168E-02    0.199E-01
RMM:   4    -0.231106868830E+04    0.27891E-03   -0.69225E-04  3992   0.133E-02    0.944E-02
RMM:   5    -0.231106860224E+04    0.86054E-04   -0.12028E-04  3087   0.538E-03    0.221E-02
RMM:   6    -0.231106859397E+04    0.82703E-05   -0.15744E-05  2440   0.243E-03
  26 F= -.23315263E+04 E0= -.23315263E+04  d E =-.261880E-06  mag=     5.0000
       N       E                     dE             d eps       ncg     rms          rms(c)
DAV:   1    -0.231111969792E+04   -0.51096E-01   -0.12875E+00  4880   0.497E-01    0.616E-01
RMM:   2    -0.231111554235E+04    0.41556E-02   -0.27607E-02  4239   0.610E-02    0.457E-01
RMM:   3    -0.231111331802E+04    0.22243E-02   -0.41573E-03  4740   0.327E-02    0.244E-01
RMM:   4    -0.231111330107E+04    0.16953E-04   -0.23128E-03  4477   0.192E-02    0.231E-01
RMM:   5    -0.231111303282E+04    0.26824E-03   -0.10205E-03  4384   0.148E-02    0.134E-01
RMM:   6    -0.231111284732E+04    0.18550E-03   -0.21448E-04  3506   0.768E-03    0.269E-02
RMM:   7    -0.231111284510E+04    0.22187E-05   -0.32435E-05  2835   0.364E-03
  27 F= -.23315699E+04 E0= -.23315699E+04  d E =-.252158E-06  mag=     5.0000
       N       E                     dE             d eps       ncg     rms          rms(c)
DAV:   1    -0.231111393730E+04   -0.10900E-02   -0.61868E-01  4480   0.323E-01    0.283E-01
RMM:   2    -0.231111359053E+04    0.34676E-03   -0.42179E-03  3714   0.240E-02    0.188E-01
RMM:   3    -0.231111340738E+04    0.18315E-03   -0.77914E-04  4286   0.128E-02    0.140E-01
RMM:   4    -0.231111345283E+04   -0.45453E-04   -0.57980E-04  3894   0.107E-02    0.132E-01
RMM:   5    -0.231111332375E+04    0.12908E-03   -0.22624E-04  3470   0.741E-03    0.413E-02
RMM:   6    -0.231111330669E+04    0.17063E-04   -0.30046E-05  2833   0.338E-03    0.105E-02
RMM:   7    -0.231111330645E+04    0.24201E-06   -0.59523E-06  2426   0.191E-03
  28 F= -.23315704E+04 E0= -.23315704E+04  d E =-.280631E-06  mag=     5.0000
       N       E                     dE             d eps       ncg     rms          rms(c)
DAV:   1    -0.231108528386E+04    0.28023E-01   -0.12065E+00  4800   0.469E-01    0.402E-01
RMM:   2    -0.231108449109E+04    0.79277E-03   -0.96221E-03  3823   0.378E-02    0.271E-01
RMM:   3    -0.231108391644E+04    0.57466E-03   -0.14988E-03  4416   0.172E-02    0.160E-01
RMM:   4    -0.231108391264E+04    0.37981E-05   -0.84667E-04  3926   0.115E-02    0.994E-02
RMM:   5    -0.231108388777E+04    0.24870E-04   -0.29567E-04  3374   0.904E-03    0.858E-02
RMM:   6    -0.231108382860E+04    0.59171E-04   -0.73069E-05  3071   0.469E-03    0.153E-02
RMM:   7    -0.231108382661E+04    0.19904E-05   -0.14599E-05  2564   0.245E-03
  29 F= -.23315416E+04 E0= -.23315416E+04  d E =-.228000E-06  mag=     5.0000
       N       E                     dE             d eps       ncg     rms          rms(c)
DAV:   1    -0.231111628946E+04   -0.32461E-01   -0.60066E-01  4320   0.333E-01    0.230E-01
RMM:   2    -0.231111626311E+04    0.26342E-04   -0.25492E-03  3439   0.203E-02    0.142E-01
RMM:   3    -0.231111626582E+04   -0.27058E-05   -0.55964E-04  4050   0.999E-03    0.105E-01
RMM:   4    -0.231111624221E+04    0.23615E-04   -0.31080E-04  3585   0.839E-03    0.729E-02
RMM:   5    -0.231111620147E+04    0.40731E-04   -0.75738E-05  2834   0.479E-03    0.217E-02
RMM:   6    -0.231111619639E+04    0.50821E-05   -0.11143E-05  2340   0.223E-03
  30 F= -.23315739E+04 E0= -.23315739E+04  d E =-.234859E-06  mag=     5.0000
       N       E                     dE             d eps       ncg     rms          rms(c)
DAV:   1    -0.231108452653E+04    0.31675E-01   -0.12039E+00  4480   0.468E-01    0.346E-01
RMM:   2    -0.231108447957E+04    0.46963E-04   -0.56741E-03  3676   0.297E-02    0.217E-01
RMM:   3    -0.231108453890E+04   -0.59331E-04   -0.13780E-03  4421   0.154E-02    0.202E-01
RMM:   4    -0.231108442641E+04    0.11248E-03   -0.92203E-04  4110   0.132E-02    0.158E-01
RMM:   5    -0.231108422126E+04    0.20516E-03   -0.23265E-04  3609   0.818E-03    0.267E-02
RMM:   6    -0.231108421849E+04    0.27669E-05   -0.24858E-05  2774   0.280E-03
  31 F= -.23315412E+04 E0= -.23315412E+04  d E =-.277169E-06  mag=     5.0000
