       N       E                     dE             d eps       ncg     rms          rms(c)
DAV:   1     0.127696943807E+05    0.12770E+05   -0.82584E+05  4408   0.144E+03
DAV:   2    -0.104302752710E+04   -0.13813E+05   -0.13227E+05  5256   0.331E+02
DAV:   3    -0.245836530816E+04   -0.14153E+04   -0.14023E+04  5312   0.111E+02
DAV:   4    -0.250355069204E+04   -0.45185E+02   -0.44952E+02  6624   0.296E+01
DAV:   5    -0.250439031584E+04   -0.83962E+00   -0.83803E+00  5496   0.327E+00    0.170E+02
RMM:   6    -0.146434379174E+04    0.10400E+04   -0.19279E+03  4379   0.386E+01    0.726E+01
RMM:   7    -0.164969443877E+04   -0.18535E+03   -0.28594E+02  4984   0.141E+01    0.564E+01
RMM:   8    -0.168564350045E+04   -0.35949E+02   -0.84339E+01  5085   0.777E+00    0.431E+01
RMM:   9    -0.176679876031E+04   -0.81155E+02   -0.54010E+01  4874   0.730E+00    0.317E+01
RMM:  10    -0.189958260943E+04   -0.13278E+03   -0.54119E+01  5058   0.707E+00    0.251E+01
RMM:  11    -0.201508536434E+04   -0.11550E+03   -0.49383E+01  4908   0.569E+00    0.153E+01
RMM:  12    -0.210848859019E+04   -0.93403E+02   -0.48215E+01  4486   0.529E+00    0.181E+01
RMM:  13    -0.218334871184E+04   -0.74860E+02   -0.43223E+01  4726   0.508E+00    0.946E+00
RMM:  14    -0.226667310577E+04   -0.83324E+02   -0.73780E+01  4426   0.612E+00    0.687E+00
RMM:  15    -0.228562477787E+04   -0.18952E+02   -0.18282E+01  4456   0.392E+00    0.540E+00
RMM:  16    -0.229009774863E+04   -0.44730E+01   -0.59472E+00  4908   0.153E+00    0.320E+00
RMM:  17    -0.229483643287E+04   -0.47387E+01   -0.29583E+00  4621   0.123E+00    0.330E+00
RMM:  18    -0.229693791334E+04   -0.21015E+01   -0.11052E+00  4787   0.743E-01    0.251E+00
RMM:  19    -0.229774143574E+04   -0.80352E+00   -0.49101E-01  4712   0.451E-01    0.103E+00
RMM:  20    -0.229792304725E+04   -0.18161E+00   -0.16482E-01  4848   0.238E-01    0.738E-01
RMM:  21    -0.229797800576E+04   -0.54959E-01   -0.29735E-02  4791   0.117E-01    0.468E-01
RMM:  22    -0.229805267335E+04   -0.74668E-01   -0.30241E-02  4388   0.121E-01    0.507E-01
RMM:  23    -0.229808344788E+04   -0.30775E-01   -0.17808E-02  4466   0.960E-02    0.183E-01
RMM:  24    -0.229810078341E+04   -0.17336E-01   -0.63419E-03  4674   0.587E-02    0.290E-01
RMM:  25    -0.229811247267E+04   -0.11689E-01   -0.45069E-03  4443   0.441E-02    0.265E-01
RMM:  26    -0.229812121776E+04   -0.87451E-02   -0.32395E-03  4518   0.413E-02    0.217E-01
RMM:  27    -0.229812316799E+04   -0.19502E-02   -0.60424E-04  4257   0.229E-02    0.494E-02
RMM:  28    -0.229812691398E+04   -0.37460E-02   -0.74834E-04  4004   0.198E-02    0.462E-02
RMM:  29    -0.229812914933E+04   -0.22354E-02   -0.51678E-04  3965   0.170E-02    0.659E-02
RMM:  30    -0.229812979317E+04   -0.64383E-03   -0.22201E-04  3899   0.115E-02    0.806E-02
RMM:  31    -0.229812997964E+04   -0.18647E-03   -0.98417E-05  3605   0.787E-03    0.460E-02
RMM:  32    -0.229813007330E+04   -0.93664E-04   -0.59432E-05  3350   0.771E-03    0.258E-02
RMM:  33    -0.229813010572E+04   -0.32421E-04   -0.40809E-05  3185   0.667E-03    0.297E-02
RMM:  34    -0.229813011423E+04   -0.85077E-05   -0.25083E-05  2960   0.520E-03
   1 F= -.23184322E+04 E0= -.23184192E+04  d E =-.231843E+04  mag=     3.3247
       N       E                     dE             d eps       ncg     rms          rms(c)
DAV:   1    -0.229729995196E+04    0.83015E+00   -0.69646E+01  4720   0.474E+00    0.273E+00
RMM:   2    -0.229837540086E+04   -0.10754E+01   -0.11492E+01  6334   0.143E+00    0.184E+00
RMM:   3    -0.229845653752E+04   -0.81137E-01   -0.10722E+00  5717   0.432E-01    0.208E+00
RMM:   4    -0.229844345655E+04    0.13081E-01   -0.10048E-01  5627   0.915E-02    0.138E+00
RMM:   5    -0.229843919046E+04    0.42661E-02   -0.21178E-02  5161   0.605E-02    0.123E+00
RMM:   6    -0.229842018339E+04    0.19007E-01   -0.45773E-02  5029   0.919E-02    0.574E-01
RMM:   7    -0.229841859271E+04    0.15907E-02   -0.10319E-02  4739   0.636E-02    0.233E-01
RMM:   8    -0.229842233344E+04   -0.37407E-02   -0.33965E-03  4363   0.312E-02    0.139E-01
RMM:   9    -0.229842615345E+04   -0.38200E-02   -0.12369E-03  4248   0.221E-02    0.764E-02
RMM:  10    -0.229842919398E+04   -0.30405E-02   -0.65096E-04  4080   0.146E-02    0.528E-02
RMM:  11    -0.229843118125E+04   -0.19873E-02   -0.36787E-04  3805   0.125E-02    0.418E-02
RMM:  12    -0.229843261691E+04   -0.14357E-02   -0.38872E-04  3903   0.117E-02    0.259E-02
RMM:  13    -0.229843316900E+04   -0.55209E-03   -0.17078E-04  3692   0.927E-03    0.203E-02
RMM:  14    -0.229843338400E+04   -0.21500E-03   -0.53331E-05  3334   0.557E-03    0.768E-03
RMM:  15    -0.229843344587E+04   -0.61868E-04   -0.12534E-05  2857   0.440E-03    0.445E-03
RMM:  16    -0.229843346908E+04   -0.23211E-04   -0.63291E-06  2776   0.279E-03    0.241E-03
RMM:  17    -0.229843348041E+04   -0.11334E-04   -0.35858E-06  2570   0.233E-03    0.125E-03
RMM:  18    -0.229843348285E+04   -0.24384E-05   -0.18362E-06  2461   0.174E-03
   2 F= -.23187336E+04 E0= -.23187329E+04  d E =-.301479E+00  mag=     3.9843
       N       E                     dE             d eps       ncg     rms          rms(c)
DAV:   1    -0.229840928172E+04    0.24199E-01   -0.28379E+00  4656   0.971E-01    0.611E-01
RMM:   2    -0.229845386731E+04   -0.44586E-01   -0.44357E-01  6303   0.267E-01    0.112E+00
RMM:   3    -0.229845233997E+04    0.15273E-02   -0.42279E-02  5511   0.917E-02    0.429E-01
RMM:   4    -0.229845162987E+04    0.71010E-03   -0.55247E-03  4941   0.275E-02    0.239E-01
RMM:   5    -0.229845098069E+04    0.64918E-03   -0.19532E-03  4518   0.211E-02    0.101E-01
RMM:   6    -0.229845094461E+04    0.36086E-04   -0.52079E-04  4107   0.153E-02    0.524E-02
RMM:   7    -0.229845095013E+04   -0.55172E-05   -0.10320E-04  3179   0.666E-03    0.216E-02
RMM:   8    -0.229845095816E+04   -0.80307E-05   -0.18914E-05  2857   0.457E-03
   3 F= -.23187515E+04 E0= -.23187494E+04  d E =-.319348E+00  mag=     3.9601
       N       E                     dE             d eps       ncg     rms          rms(c)
DAV:   1    -0.229826454631E+04    0.18640E+00   -0.17196E+01  4568   0.271E+00    0.162E+00
RMM:   2    -0.229865000754E+04   -0.38546E+00   -0.38766E+00  6388   0.682E-01    0.205E+00
RMM:   3    -0.229866354392E+04   -0.13536E-01   -0.44996E-01  5853   0.267E-01    0.147E+00
RMM:   4    -0.229865039742E+04    0.13147E-01   -0.42143E-02  5759   0.641E-02    0.526E-01
RMM:   5    -0.229864819713E+04    0.22003E-02   -0.64513E-03  5109   0.289E-02    0.325E-01
RMM:   6    -0.229864699503E+04    0.12021E-02   -0.50315E-03  5216   0.277E-02    0.140E-01
RMM:   7    -0.229864700044E+04   -0.54114E-05   -0.92681E-04  4077   0.196E-02    0.684E-02
RMM:   8    -0.229864696160E+04    0.38842E-04   -0.14392E-04  3235   0.688E-03    0.283E-02
RMM:   9    -0.229864694466E+04    0.16939E-04   -0.47774E-05  2878   0.434E-03    0.157E-02
RMM:  10    -0.229864694394E+04    0.72262E-06   -0.22889E-05  2867   0.328E-03
   4 F= -.23189477E+04 E0= -.23189477E+04  d E =-.196178E+00  mag=     3.9918
       N       E                     dE             d eps       ncg     rms          rms(c)
DAV:   1    -0.229863458828E+04    0.12356E-01   -0.84547E-01  4784   0.561E-01    0.353E-01
RMM:   2    -0.229865314907E+04   -0.18561E-01   -0.18606E-01  6342   0.146E-01    0.464E-01
RMM:   3    -0.229865374896E+04   -0.59989E-03   -0.20276E-02  5114   0.581E-02    0.298E-01
RMM:   4    -0.229865318457E+04    0.56439E-03   -0.21842E-03  3750   0.143E-02    0.102E-01
RMM:   5    -0.229865303647E+04    0.14810E-03   -0.33032E-04  3307   0.756E-03    0.591E-02
RMM:   6    -0.229865300557E+04    0.30904E-04   -0.20823E-04  3473   0.703E-03    0.355E-02
RMM:   7    -0.229865299688E+04    0.86874E-05   -0.27235E-05  2828   0.504E-03
   5 F= -.23189537E+04 E0= -.23189537E+04  d E =-.202229E+00  mag=     3.9973
       N       E                     dE             d eps       ncg     rms          rms(c)
DAV:   1    -0.229869234821E+04   -0.39343E-01   -0.13320E+01  4432   0.192E+00    0.103E+00
RMM:   2    -0.229877763765E+04   -0.85289E-01   -0.73469E-01  6105   0.373E-01    0.175E+00
RMM:   3    -0.229875440751E+04    0.23230E-01   -0.60701E-02  5827   0.118E-01    0.568E-01
RMM:   4    -0.229875204514E+04    0.23624E-02   -0.79711E-03  4785   0.351E-02    0.235E-01
RMM:   5    -0.229875154179E+04    0.50335E-03   -0.16242E-03  4977   0.219E-02    0.135E-01
RMM:   6    -0.229875149602E+04    0.45764E-04   -0.92641E-04  4455   0.175E-02    0.369E-02
RMM:   7    -0.229875149714E+04   -0.11135E-05   -0.10141E-04  3080   0.861E-03    0.211E-02
RMM:   8    -0.229875149314E+04    0.40006E-05   -0.19048E-05  2869   0.356E-03
   6 F= -.23190542E+04 E0= -.23190542E+04  d E =-.100419E+00  mag=     3.9993
       N       E                     dE             d eps       ncg     rms          rms(c)
DAV:   1    -0.229862230086E+04    0.12920E+00   -0.41548E+01  4392   0.330E+00    0.164E+00
RMM:   2    -0.229884010012E+04   -0.21780E+00   -0.21790E+00  6065   0.637E-01    0.176E+00
RMM:   3    -0.229882466521E+04    0.15435E-01   -0.17452E-01  5866   0.206E-01    0.108E+00
RMM:   4    -0.229881493936E+04    0.97258E-02   -0.19954E-02  5273   0.595E-02    0.391E-01
RMM:   5    -0.229881348337E+04    0.14560E-02   -0.64051E-03  5121   0.366E-02    0.197E-01
RMM:   6    -0.229881348065E+04    0.27142E-05   -0.22480E-03  4621   0.270E-02    0.551E-02
RMM:   7    -0.229881349010E+04   -0.94440E-05   -0.30750E-04  3727   0.131E-02    0.383E-02
RMM:   8    -0.229881347347E+04    0.16626E-04   -0.56004E-05  3043   0.523E-03    0.164E-02
RMM:   9    -0.229881347135E+04    0.21195E-05   -0.28505E-05  2877   0.413E-03
   7 F= -.23191196E+04 E0= -.23191196E+04  d E =-.165889E+00  mag=     3.9999
       N       E                     dE             d eps       ncg     rms          rms(c)
DAV:   1    -0.229876091113E+04    0.52562E-01   -0.12701E+01  4444   0.256E+00    0.125E+00
RMM:   2    -0.229890879016E+04   -0.14788E+00   -0.14550E+00  5973   0.556E-01    0.143E+00
RMM:   3    -0.229889183842E+04    0.16952E-01   -0.13524E-01  5666   0.199E-01    0.565E-01
RMM:   4    -0.229888919377E+04    0.26447E-02   -0.15663E-02  4901   0.482E-02    0.285E-01
RMM:   5    -0.229888780632E+04    0.13874E-02   -0.39664E-03  5537   0.386E-02    0.171E-01
RMM:   6    -0.229888756144E+04    0.24489E-03   -0.16702E-03  5253   0.247E-02    0.572E-02
RMM:   7    -0.229888750748E+04    0.53961E-04   -0.14297E-04  3544   0.102E-02    0.282E-02
RMM:   8    -0.229888748514E+04    0.22332E-04   -0.46582E-05  3040   0.519E-03    0.188E-02
RMM:   9    -0.229888747397E+04    0.11178E-04   -0.38565E-05  2901   0.502E-03    0.784E-03
RMM:  10    -0.229888747261E+04    0.13525E-05   -0.86617E-06  2838   0.397E-03
   8 F= -.23191965E+04 E0= -.23191965E+04  d E =-.768679E-01  mag=     4.0000
       N       E                     dE             d eps       ncg     rms          rms(c)
DAV:   1    -0.229886343569E+04    0.24038E-01   -0.32013E+00  4496   0.130E+00    0.615E-01
RMM:   2    -0.229889958659E+04   -0.36151E-01   -0.36345E-01  5962   0.279E-01    0.652E-01
RMM:   3    -0.229889696260E+04    0.26240E-02   -0.33763E-02  5549   0.103E-01    0.309E-01
RMM:   4    -0.229889612116E+04    0.84144E-03   -0.39285E-03  4766   0.249E-02    0.144E-01
RMM:   5    -0.229889573992E+04    0.38124E-03   -0.10160E-03  5260   0.199E-02    0.742E-02
RMM:   6    -0.229889569059E+04    0.49331E-04   -0.35211E-04  4708   0.125E-02    0.221E-02
RMM:   7    -0.229889568013E+04    0.10459E-04   -0.34674E-05  2957   0.642E-03    0.130E-02
RMM:   8    -0.229889567413E+04    0.60032E-05   -0.13648E-05  2858   0.337E-03
   9 F= -.23192061E+04 E0= -.23192061E+04  d E =-.864653E-01  mag=     4.0000
       N       E                     dE             d eps       ncg     rms          rms(c)
DAV:   1    -0.229880099682E+04    0.94683E-01   -0.10194E+01  4396   0.188E+00    0.113E+00
RMM:   2    -0.229896795300E+04   -0.16696E+00   -0.17797E+00  6368   0.487E-01    0.109E+00
RMM:   3    -0.229896900172E+04   -0.10487E-02   -0.16798E-01  5999   0.167E-01    0.658E-01
RMM:   4    -0.229896564850E+04    0.33532E-02   -0.18747E-02  5190   0.402E-02    0.333E-01
RMM:   5    -0.229896399304E+04    0.16555E-02   -0.33513E-03  4904   0.242E-02    0.181E-01
RMM:   6    -0.229896380649E+04    0.18656E-03   -0.23183E-03  5033   0.211E-02    0.774E-02
RMM:   7    -0.229896381199E+04   -0.55013E-05   -0.30875E-04  3450   0.108E-02    0.391E-02
RMM:   8    -0.229896379473E+04    0.17256E-04   -0.46722E-05  2880   0.460E-03    0.198E-02
RMM:   9    -0.229896379414E+04    0.59261E-06   -0.41905E-05  2918   0.358E-03
  10 F= -.23192767E+04 E0= -.23192767E+04  d E =-.705683E-01  mag=     4.0000
       N       E                     dE             d eps       ncg     rms          rms(c)
DAV:   1    -0.229815930162E+04    0.80449E+00   -0.52181E+01  4392   0.428E+00    0.253E+00
RMM:   2    -0.229905019386E+04   -0.89089E+00   -0.96130E+00  6428   0.118E+00    0.283E+00
RMM:   3    -0.229908836602E+04   -0.38172E-01   -0.98958E-01  6036   0.395E-01    0.240E+00
RMM:   4    -0.229904449182E+04    0.43874E-01   -0.10180E-01  5569   0.108E-01    0.806E-01
RMM:   5    -0.229903606292E+04    0.84289E-02   -0.24235E-02  5361   0.598E-02    0.465E-01
RMM:   6    -0.229903453219E+04    0.15307E-02   -0.10490E-02  5331   0.416E-02    0.284E-01
RMM:   7    -0.229903441198E+04    0.12021E-03   -0.27248E-03  4878   0.278E-02    0.935E-02
RMM:   8    -0.229903449763E+04   -0.85652E-04   -0.27792E-04  3532   0.970E-03    0.564E-02
RMM:   9    -0.229903453866E+04   -0.41027E-04   -0.17782E-04  3399   0.748E-03    0.256E-02
RMM:  10    -0.229903457350E+04   -0.34841E-04   -0.45672E-05  2921   0.504E-03    0.116E-02
RMM:  11    -0.229903459325E+04   -0.19754E-04   -0.11235E-05  2838   0.350E-03    0.677E-03
RMM:  12    -0.229903460862E+04   -0.15365E-04   -0.65159E-06  2809   0.267E-03    0.378E-03
RMM:  13    -0.229903461767E+04   -0.90477E-05   -0.40470E-06  2764   0.244E-03
  11 F= -.23193524E+04 E0= -.23193524E+04  d E =-.146277E+00  mag=     4.0000
       N       E                     dE             d eps       ncg     rms          rms(c)
DAV:   1    -0.229903995483E+04   -0.53462E-02   -0.10665E+01  4392   0.217E+00    0.976E-01
RMM:   2    -0.229910496120E+04   -0.65006E-01   -0.68935E-01  5828   0.437E-01    0.724E-01
RMM:   3    -0.229911036490E+04   -0.54037E-02   -0.68693E-02  5484   0.152E-01    0.917E-01
RMM:   4    -0.229910478385E+04    0.55811E-02   -0.82974E-03  5670   0.449E-02    0.296E-01
RMM:   5    -0.229910389904E+04    0.88481E-03   -0.41111E-03  4977   0.350E-02    0.150E-01
RMM:   6    -0.229910384124E+04    0.57797E-04   -0.73445E-04  4647   0.195E-02    0.530E-02
RMM:   7    -0.229910385118E+04   -0.99387E-05   -0.14773E-04  3545   0.761E-03    0.254E-02
RMM:   8    -0.229910385561E+04   -0.44292E-05   -0.26430E-05  2860   0.567E-03
  12 F= -.23194222E+04 E0= -.23194222E+04  d E =-.698266E-01  mag=     4.0000
       N       E                     dE             d eps       ncg     rms          rms(c)
DAV:   1    -0.229905527811E+04    0.48573E-01   -0.11837E+01  4396   0.223E+00    0.103E+00
RMM:   2    -0.229912890133E+04   -0.73623E-01   -0.77480E-01  5809   0.455E-01    0.824E-01
RMM:   3    -0.229913617019E+04   -0.72689E-02   -0.81596E-02  5553   0.166E-01    0.113E+00
RMM:   4    -0.229912835180E+04    0.78184E-02   -0.90516E-03  5675   0.472E-02    0.304E-01
RMM:   5    -0.229912734684E+04    0.10050E-02   -0.45277E-03  4965   0.371E-02    0.157E-01
RMM:   6    -0.229912729865E+04    0.48183E-04   -0.95835E-04  4640   0.215E-02    0.560E-02
RMM:   7    -0.229912730952E+04   -0.10867E-04   -0.18567E-04  3652   0.817E-03    0.254E-02
RMM:   8    -0.229912731466E+04   -0.51430E-05   -0.29284E-05  2890   0.600E-03
  13 F= -.23194462E+04 E0= -.23194462E+04  d E =-.938392E-01  mag=     4.0000
       N       E                     dE             d eps       ncg     rms          rms(c)
DAV:   1    -0.229914073508E+04   -0.13426E-01   -0.72035E+00  4428   0.152E+00    0.675E-01
RMM:   2    -0.229917834642E+04   -0.37611E-01   -0.40984E-01  5739   0.303E-01    0.360E-01
RMM:   3    -0.229917975655E+04   -0.14101E-02   -0.40120E-02  5229   0.113E-01    0.253E-01
RMM:   4    -0.229917992120E+04   -0.16464E-03   -0.42923E-03  5244   0.294E-02    0.328E-01
RMM:   5    -0.229917946503E+04    0.45617E-03   -0.20680E-03  5053   0.204E-02    0.234E-01
RMM:   6    -0.229917909418E+04    0.37085E-03   -0.60518E-04  4654   0.131E-02    0.348E-02
RMM:   7    -0.229917909656E+04   -0.23771E-05   -0.75388E-05  2950   0.806E-03
  14 F= -.23194983E+04 E0= -.23194983E+04  d E =-.520426E-01  mag=     4.0000
       N       E                     dE             d eps       ncg     rms          rms(c)
DAV:   1    -0.229910081095E+04    0.78283E-01   -0.20916E+01  4392   0.259E+00    0.118E+00
RMM:   2    -0.229921143506E+04   -0.11062E+00   -0.12230E+00  5689   0.533E-01    0.617E-01
RMM:   3    -0.229921555459E+04   -0.41195E-02   -0.11042E-01  5308   0.188E-01    0.398E-01
RMM:   4    -0.229921459857E+04    0.95602E-03   -0.11650E-02  5109   0.503E-02    0.267E-01
RMM:   5    -0.229921583394E+04   -0.12354E-02   -0.50944E-03  5234   0.359E-02    0.562E-01
RMM:   6    -0.229921385074E+04    0.19832E-02   -0.15535E-03  5091   0.207E-02    0.765E-02
RMM:   7    -0.229921384893E+04    0.18060E-05   -0.25423E-04  3663   0.103E-02    0.561E-02
RMM:   8    -0.229921383263E+04    0.16309E-04   -0.66646E-05  3058   0.617E-03    0.276E-02
RMM:   9    -0.229921383550E+04   -0.28771E-05   -0.25153E-05  2949   0.480E-03
  15 F= -.23195334E+04 E0= -.23195334E+04  d E =-.871794E-01  mag=     4.0000
       N       E                     dE             d eps       ncg     rms          rms(c)
DAV:   1    -0.229917266112E+04    0.41172E-01   -0.10218E+01  4416   0.191E+00    0.940E-01
RMM:   2    -0.229930821568E+04   -0.13555E+00   -0.12024E+00  6170   0.475E-01    0.205E+00
RMM:   3    -0.229928755556E+04    0.20660E-01   -0.10404E-01  5795   0.147E-01    0.565E-01
RMM:   4    -0.229928696569E+04    0.58987E-03   -0.13090E-02  4907   0.392E-02    0.274E-01
RMM:   5    -0.229928656417E+04    0.40152E-03   -0.18491E-03  5091   0.239E-02    0.277E-01
RMM:   6    -0.229928611175E+04    0.45242E-03   -0.15989E-03  5278   0.217E-02    0.636E-02
RMM:   7    -0.229928609603E+04    0.15716E-04   -0.11899E-04  3042   0.899E-03    0.243E-02
RMM:   8    -0.229928609448E+04    0.15547E-05   -0.22403E-05  2858   0.403E-03
  16 F= -.23196066E+04 E0= -.23196066E+04  d E =-.732252E-01  mag=     4.0000
       N       E                     dE             d eps       ncg     rms          rms(c)
DAV:   1    -0.229829609643E+04    0.99000E+00   -0.90654E+01  4392   0.577E+00    0.299E+00
RMM:   2    -0.229968137283E+04   -0.13853E+01   -0.11902E+01  6160   0.153E+00    0.692E+00
RMM:   3    -0.229939886132E+04    0.28251E+00   -0.11655E+00  5675   0.505E-01    0.143E+00
RMM:   4    -0.229939821514E+04    0.64618E-03   -0.12609E-01  4982   0.121E-01    0.861E-01
RMM:   5    -0.229939787360E+04    0.34154E-03   -0.17915E-02  5140   0.741E-02    0.110E+00
RMM:   6    -0.229939064698E+04    0.72266E-02   -0.17862E-02  5651   0.702E-02    0.355E-01
RMM:   7    -0.229939023162E+04    0.41536E-03   -0.15462E-03  5218   0.271E-02    0.155E-01
RMM:   8    -0.229939011808E+04    0.11354E-03   -0.22948E-04  3894   0.105E-02    0.592E-02
RMM:   9    -0.229939012526E+04   -0.71847E-05   -0.13653E-04  3468   0.817E-03    0.208E-02
RMM:  10    -0.229939014080E+04   -0.15534E-04   -0.35062E-05  2917   0.559E-03    0.104E-02
RMM:  11    -0.229939015638E+04   -0.15588E-04   -0.13873E-05  2843   0.411E-03    0.587E-03
RMM:  12    -0.229939016896E+04   -0.12578E-04   -0.78911E-06  2811   0.333E-03    0.379E-03
RMM:  13    -0.229939017813E+04   -0.91702E-05   -0.57694E-06  2795   0.292E-03
  17 F= -.23197137E+04 E0= -.23197137E+04  d E =-.180346E+00  mag=     4.0000
       N       E                     dE             d eps       ncg     rms          rms(c)
DAV:   1    -0.229933021513E+04    0.59954E-01   -0.80383E+00  4512   0.194E+00    0.110E+00
RMM:   2    -0.229953179603E+04   -0.20158E+00   -0.15447E+00  6160   0.531E-01    0.322E+00
RMM:   3    -0.229947016088E+04    0.61635E-01   -0.14524E-01  5593   0.170E-01    0.416E-01
RMM:   4    -0.229947118915E+04   -0.10283E-02   -0.19074E-02  5385   0.410E-02    0.302E-01
RMM:   5    -0.229947079308E+04    0.39607E-03   -0.15640E-03  4969   0.205E-02    0.300E-01
RMM:   6    -0.229947011424E+04    0.67884E-03   -0.16085E-03  5372   0.216E-02    0.472E-02
RMM:   7    -0.229947014424E+04   -0.30004E-04   -0.21806E-04  3229   0.111E-02    0.339E-02
RMM:   8    -0.229947013468E+04    0.95637E-05   -0.20651E-05  2859   0.379E-03
  18 F= -.23197948E+04 E0= -.23197948E+04  d E =-.810303E-01  mag=     4.0000
       N       E                     dE             d eps       ncg     rms          rms(c)
DAV:   1    -0.229831640122E+04    0.11537E+01   -0.72174E+01  4392   0.584E+00    0.354E+00
RMM:   2    -0.230037044509E+04   -0.20540E+01   -0.15600E+01  6244   0.181E+00    0.968E+00
RMM:   3    -0.229962389156E+04    0.74655E+00   -0.14439E+00  5417   0.551E-01    0.128E+00
RMM:   4    -0.229962975098E+04   -0.58594E-02   -0.19519E-01  5635   0.129E-01    0.850E-01
RMM:   5    -0.229962850761E+04    0.12434E-02   -0.14977E-02  5433   0.610E-02    0.102E+00
RMM:   6    -0.229962094403E+04    0.75636E-02   -0.14834E-02  5536   0.614E-02    0.186E-01
RMM:   7    -0.229962167438E+04   -0.73034E-03   -0.23250E-03  4883   0.305E-02    0.244E-01
RMM:   8    -0.229962138385E+04    0.29053E-03   -0.28406E-04  3855   0.106E-02    0.954E-02
RMM:   9    -0.229962133125E+04    0.52599E-04   -0.16879E-04  3433   0.790E-03    0.216E-02
RMM:  10    -0.229962133126E+04   -0.14523E-07   -0.41144E-05  2905   0.546E-03
  19 F= -.23199493E+04 E0= -.23199493E+04  d E =-.235560E+00  mag=     4.0000
       N       E                     dE             d eps       ncg     rms          rms(c)
DAV:   1    -0.229360578048E+04    0.60156E+01   -0.28877E+02  4384   0.119E+01    0.772E+00
RMM:   2    -0.230357590235E+04   -0.99701E+01   -0.78507E+01  6343   0.423E+00    0.185E+01
RMM:   3    -0.229950274286E+04    0.40732E+01   -0.74112E+00  5185   0.129E+00    0.348E+00
RMM:   4    -0.229941290976E+04    0.89833E-01   -0.65271E-01  5596   0.285E-01    0.191E+00
RMM:   5    -0.229943967104E+04   -0.26761E-01   -0.62427E-02  4642   0.124E-01    0.232E+00
RMM:   6    -0.229942620433E+04    0.13467E-01   -0.47719E-02  5280   0.100E-01    0.128E+00
RMM:   7    -0.229940977908E+04    0.16425E-01   -0.45095E-02  5226   0.942E-02    0.775E-01
RMM:   8    -0.229941520484E+04   -0.54258E-02   -0.93989E-03  4885   0.603E-02    0.511E-01
RMM:   9    -0.229941652472E+04   -0.13199E-02   -0.22094E-03  4765   0.355E-02    0.268E-01
RMM:  10    -0.229941702585E+04   -0.50113E-03   -0.10887E-03  4645   0.171E-02    0.126E-01
RMM:  11    -0.229941709579E+04   -0.69936E-04   -0.47778E-04  4039   0.118E-02    0.307E-02
RMM:  12    -0.229941710508E+04   -0.92938E-05   -0.14291E-04  3378   0.700E-03    0.175E-02
RMM:  13    -0.229941711111E+04   -0.60220E-05   -0.22515E-05  2851   0.531E-03
  20 F= -.23197517E+04 E0= -.23197517E+04  d E =-.379802E-01  mag=     3.9947
       N       E                     dE             d eps       ncg     rms          rms(c)
DAV:   1    -0.229596854361E+04    0.34486E+01   -0.17369E+02  4376   0.101E+01    0.442E+00
RMM:   2    -0.229942321763E+04   -0.34547E+01   -0.35555E+01  6217   0.245E+00    0.373E+00
RMM:   3    -0.229999154444E+04   -0.56833E+00   -0.43360E+00  5214   0.115E+00    0.701E+00
RMM:   4    -0.229967410555E+04    0.31744E+00   -0.29514E-01  6078   0.205E-01    0.182E+00
RMM:   5    -0.229965323556E+04    0.20870E-01   -0.66641E-02  5599   0.887E-02    0.104E+00
RMM:   6    -0.229964051034E+04    0.12725E-01   -0.33455E-02  4829   0.865E-02    0.421E-01
RMM:   7    -0.229964005197E+04    0.45837E-03   -0.76220E-03  4806   0.620E-02    0.293E-01
RMM:   8    -0.229963968895E+04    0.36302E-03   -0.14452E-03  5087   0.243E-02    0.944E-02
RMM:   9    -0.229963957786E+04    0.11108E-03   -0.28439E-04  4032   0.129E-02    0.443E-02
RMM:  10    -0.229963955771E+04    0.20153E-04   -0.13598E-04  3332   0.713E-03    0.276E-02
RMM:  11    -0.229963955679E+04    0.91689E-06   -0.30313E-05  2879   0.495E-03
  21 F= -.23199690E+04 E0= -.23199690E+04  d E =-.255267E+00  mag=     3.9985
       N       E                     dE             d eps       ncg     rms          rms(c)
DAV:   1    -0.229923521274E+04    0.40434E+00   -0.23906E+01  4392   0.339E+00    0.230E+00
RMM:   2    -0.230007477842E+04   -0.83957E+00   -0.61102E+00  6309   0.117E+00    0.682E+00
RMM:   3    -0.229975233785E+04    0.32244E+00   -0.54216E-01  5356   0.328E-01    0.764E-01
RMM:   4    -0.229975510066E+04   -0.27628E-02   -0.73918E-02  5710   0.855E-02    0.495E-01
RMM:   5    -0.229975367099E+04    0.14297E-02   -0.43385E-03  4878   0.348E-02    0.478E-01
RMM:   6    -0.229975178802E+04    0.18830E-02   -0.52563E-03  5445   0.389E-02    0.121E-01
RMM:   7    -0.229975186413E+04   -0.76113E-04   -0.72548E-04  4594   0.192E-02    0.888E-02
RMM:   8    -0.229975181190E+04    0.52235E-04   -0.88075E-05  3234   0.708E-03    0.387E-02
RMM:   9    -0.229975179090E+04    0.20997E-04   -0.50828E-05  2977   0.543E-03    0.114E-02
RMM:  10    -0.229975178663E+04    0.42685E-05   -0.19418E-05  2863   0.433E-03
  22 F= -.23200831E+04 E0= -.23200831E+04  d E =-.114075E+00  mag=     3.9997
       N       E                     dE             d eps       ncg     rms          rms(c)
DAV:   1    -0.229915808132E+04    0.59371E+00   -0.27770E+01  4416   0.385E+00    0.251E+00
RMM:   2    -0.230015987479E+04   -0.10018E+01   -0.74944E+00  6325   0.134E+00    0.726E+00
RMM:   3    -0.229979190359E+04    0.36797E+00   -0.65865E-01  5206   0.373E-01    0.839E-01
RMM:   4    -0.229979515472E+04   -0.32511E-02   -0.84540E-02  5742   0.951E-02    0.552E-01
RMM:   5    -0.229979324308E+04    0.19116E-02   -0.53818E-03  4926   0.387E-02    0.506E-01
RMM:   6    -0.229979107555E+04    0.21675E-02   -0.63395E-03  5468   0.431E-02    0.138E-01
RMM:   7    -0.229979114823E+04   -0.72679E-04   -0.85085E-04  4708   0.203E-02    0.953E-02
RMM:   8    -0.229979108870E+04    0.59529E-04   -0.10811E-04  3405   0.769E-03    0.403E-02
RMM:   9    -0.229979106643E+04    0.22277E-04   -0.61169E-05  3098   0.594E-03    0.125E-02
RMM:  10    -0.229979106175E+04    0.46779E-05   -0.24069E-05  2882   0.462E-03
  23 F= -.23201241E+04 E0= -.23201241E+04  d E =-.155119E+00  mag=     4.0000
       N       E                     dE             d eps       ncg     rms          rms(c)
DAV:   1    -0.229970142728E+04    0.89639E-01   -0.59451E+00  4496   0.197E+00    0.123E+00
RMM:   2    -0.229991852756E+04   -0.21710E+00   -0.15486E+00  6188   0.615E-01    0.374E+00
RMM:   3    -0.229983280590E+04    0.85722E-01   -0.11686E-01  5387   0.163E-01    0.414E-01
RMM:   4    -0.229983333176E+04   -0.52586E-03   -0.15021E-02  5319   0.461E-02    0.267E-01
RMM:   5    -0.229983274084E+04    0.59092E-03   -0.12338E-03  4884   0.230E-02    0.230E-01
RMM:   6    -0.229983230744E+04    0.43340E-03   -0.13370E-03  5341   0.233E-02    0.569E-02
RMM:   7    -0.229983230637E+04    0.10737E-05   -0.16116E-04  3681   0.108E-02    0.277E-02
RMM:   8    -0.229983229677E+04    0.95991E-05   -0.24688E-05  2853   0.431E-03
  24 F= -.23201657E+04 E0= -.23201657E+04  d E =-.416077E-01  mag=     4.0000
       N       E                     dE             d eps       ncg     rms          rms(c)
DAV:   1    -0.229950263067E+04    0.32968E+00   -0.16001E+01  4392   0.323E+00    0.200E+00
RMM:   2    -0.230007370324E+04   -0.57107E+00   -0.41859E+00  6239   0.102E+00    0.583E+00
RMM:   3    -0.229985914699E+04    0.21456E+00   -0.35005E-01  5364   0.283E-01    0.681E-01
RMM:   4    -0.229986109804E+04   -0.19510E-02   -0.48059E-02  5399   0.775E-02    0.479E-01
RMM:   5    -0.229985939047E+04    0.17076E-02   -0.36260E-03  5155   0.374E-02    0.398E-01
RMM:   6    -0.229985807018E+04    0.13203E-02   -0.36431E-03  5475   0.378E-02    0.105E-01
RMM:   7    -0.229985809502E+04   -0.24836E-04   -0.48829E-04  4576   0.179E-02    0.640E-02
RMM:   8    -0.229985806590E+04    0.29119E-04   -0.74577E-05  3261   0.709E-03    0.248E-02
RMM:   9    -0.229985805985E+04    0.60431E-05   -0.40340E-05  2992   0.537E-03
  25 F= -.23201917E+04 E0= -.23201917E+04  d E =-.675478E-01  mag=     4.0000
       N       E                     dE             d eps       ncg     rms          rms(c)
DAV:   1    -0.229981960333E+04    0.38463E-01   -0.35146E+00  4512   0.141E+00    0.859E-01
RMM:   2    -0.229992654160E+04   -0.10694E+00   -0.81916E-01  6375   0.413E-01    0.240E+00
RMM:   3    -0.229989373691E+04    0.32805E-01   -0.66576E-02  5665   0.111E-01    0.335E-01
RMM:   4    -0.229989403998E+04   -0.30307E-03   -0.83950E-03  4881   0.295E-02    0.191E-01
RMM:   5    -0.229989379184E+04    0.24813E-03   -0.63280E-04  4482   0.135E-02    0.166E-01
RMM:   6    -0.229989361222E+04    0.17962E-03   -0.66593E-04  4392   0.163E-02    0.467E-02
RMM:   7    -0.229989361782E+04   -0.55913E-05   -0.90162E-05  3002   0.697E-03
  26 F= -.23202267E+04 E0= -.23202267E+04  d E =-.350554E-01  mag=     4.0000
       N       E                     dE             d eps       ncg     rms          rms(c)
DAV:   1    -0.229929588554E+04    0.59773E+00   -0.31540E+01  4392   0.423E+00    0.251E+00
RMM:   2    -0.230022839149E+04   -0.93251E+00   -0.74534E+00  6351   0.125E+00    0.653E+00
RMM:   3    -0.229998025650E+04    0.24813E+00   -0.67189E-01  5697   0.369E-01    0.106E+00
RMM:   4    -0.229998411478E+04   -0.38583E-02   -0.80513E-02  5307   0.907E-02    0.626E-01
RMM:   5    -0.229998132192E+04    0.27929E-02   -0.64701E-03  5206   0.402E-02    0.495E-01
RMM:   6    -0.229997964034E+04    0.16816E-02   -0.53544E-03  5152   0.439E-02    0.164E-01
RMM:   7    -0.229997972028E+04   -0.79934E-04   -0.94354E-04  4644   0.187E-02    0.801E-02
RMM:   8    -0.229997969986E+04    0.20419E-04   -0.11163E-04  3274   0.859E-03    0.318E-02
RMM:   9    -0.229997969228E+04    0.75730E-05   -0.51232E-05  2972   0.533E-03
  27 F= -.23203104E+04 E0= -.23203104E+04  d E =-.118740E+00  mag=     4.0000
       N       E                     dE             d eps       ncg     rms          rms(c)
DAV:   1    -0.229710526868E+04    0.28744E+01   -0.12555E+02  4376   0.854E+00    0.490E+00
RMM:   2    -0.230083822764E+04   -0.37330E+01   -0.32225E+01  6347   0.260E+00    0.104E+01
RMM:   3    -0.230001169168E+04    0.82654E+00   -0.30002E+00  5496   0.826E-01    0.250E+00
RMM:   4    -0.230005135879E+04   -0.39667E-01   -0.34550E-01  4937   0.230E-01    0.108E+00
RMM:   5    -0.230005124498E+04    0.11380E-03   -0.31448E-02  4903   0.105E-01    0.980E-01
RMM:   6    -0.230004543733E+04    0.58077E-02   -0.28135E-02  5021   0.102E-01    0.415E-01
RMM:   7    -0.230004551582E+04   -0.78493E-04   -0.41199E-03  5433   0.390E-02    0.210E-01
RMM:   8    -0.230004536584E+04    0.14998E-03   -0.61654E-04  4479   0.176E-02    0.805E-02
RMM:   9    -0.230004532816E+04    0.37679E-04   -0.20894E-04  3826   0.102E-02    0.483E-02
RMM:  10    -0.230004530938E+04    0.18784E-04   -0.14095E-04  3573   0.816E-03    0.144E-02
RMM:  11    -0.230004530986E+04   -0.48263E-06   -0.33823E-05  2892   0.482E-03
  28 F= -.23203672E+04 E0= -.23203672E+04  d E =-.175565E+00  mag=     3.9996
       N       E                     dE             d eps       ncg     rms          rms(c)
DAV:   1    -0.229995536904E+04    0.89940E-01   -0.60108E+00  4528   0.184E+00    0.103E+00
RMM:   2    -0.230011734503E+04   -0.16198E+00   -0.13574E+00  6320   0.537E-01    0.247E+00
RMM:   3    -0.230008265374E+04    0.34691E-01   -0.11674E-01  5939   0.151E-01    0.454E-01
RMM:   4    -0.230008309825E+04   -0.44450E-03   -0.13185E-02  4873   0.364E-02    0.216E-01
RMM:   5    -0.230008271693E+04    0.38132E-03   -0.90456E-04  4721   0.169E-02    0.208E-01
RMM:   6    -0.230008240939E+04    0.30754E-03   -0.11605E-03  4525   0.213E-02    0.592E-02
RMM:   7    -0.230008240726E+04    0.21272E-05   -0.13638E-04  3246   0.806E-03    0.199E-02
RMM:   8    -0.230008240306E+04    0.41997E-05   -0.17252E-05  2842   0.452E-03
  29 F= -.23204015E+04 E0= -.23204015E+04  d E =-.342787E-01  mag=     3.9999
       N       E                     dE             d eps       ncg     rms          rms(c)
DAV:   1    -0.229921602525E+04    0.86638E+00   -0.42218E+01  4392   0.489E+00    0.272E+00
RMM:   2    -0.230038305775E+04   -0.11670E+01   -0.98866E+00  6316   0.146E+00    0.653E+00
RMM:   3    -0.230014096325E+04    0.24209E+00   -0.91273E-01  5923   0.449E-01    0.123E+00
RMM:   4    -0.230014275171E+04   -0.17885E-02   -0.98215E-02  5285   0.104E-01    0.602E-01
RMM:   5    -0.230013996146E+04    0.27903E-02   -0.64691E-03  5285   0.429E-02    0.566E-01
RMM:   6    -0.230013756099E+04    0.24005E-02   -0.80620E-03  5059   0.534E-02    0.179E-01
RMM:   7    -0.230013762576E+04   -0.64776E-04   -0.11861E-03  4908   0.204E-02    0.690E-02
RMM:   8    -0.230013761025E+04    0.15514E-04   -0.12577E-04  3427   0.897E-03    0.328E-02
RMM:   9    -0.230013759996E+04    0.10284E-04   -0.43631E-05  2903   0.552E-03    0.210E-02
RMM:  10    -0.230013759904E+04    0.92803E-06   -0.25362E-05  2848   0.439E-03
  30 F= -.23204483E+04 E0= -.23204483E+04  d E =-.810645E-01  mag=     4.0000
       N       E                     dE             d eps       ncg     rms          rms(c)
DAV:   1    -0.230010587071E+04    0.31729E-01   -0.16612E+00  4576   0.968E-01    0.525E-01
RMM:   2    -0.230014973852E+04   -0.43868E-01   -0.37007E-01  6323   0.277E-01    0.123E+00
RMM:   3    -0.230014080272E+04    0.89358E-02   -0.31525E-02  5816   0.789E-02    0.223E-01
RMM:   4    -0.230014091644E+04   -0.11372E-03   -0.35335E-03  4258   0.187E-02    0.105E-01
RMM:   5    -0.230014083589E+04    0.80549E-04   -0.27363E-04  3911   0.997E-03    0.121E-01
RMM:   6    -0.230014072954E+04    0.10635E-03   -0.39619E-04  3746   0.128E-02    0.283E-02
RMM:   7    -0.230014072901E+04    0.52832E-06   -0.44617E-05  2904   0.521E-03
  31 F= -.23204496E+04 E0= -.23204496E+04  d E =-.823984E-01  mag=     4.0000
       N       E                     dE             d eps       ncg     rms          rms(c)
DAV:   1    -0.230015337134E+04   -0.12642E-01   -0.86311E-01  4496   0.900E-01    0.355E-01
RMM:   2    -0.230016458725E+04   -0.11216E-01   -0.10425E-01  5929   0.205E-01    0.535E-01
RMM:   3    -0.230016317163E+04    0.14156E-02   -0.87650E-03  5538   0.616E-02    0.259E-01
RMM:   4    -0.230016269035E+04    0.48127E-03   -0.10705E-03  4809   0.186E-02    0.753E-02
RMM:   5    -0.230016260616E+04    0.84190E-04   -0.27894E-04  4582   0.140E-02    0.649E-02
RMM:   6    -0.230016257189E+04    0.34273E-04   -0.13168E-04  4147   0.996E-03    0.119E-02
RMM:   7    -0.230016257002E+04    0.18678E-05   -0.15069E-05  2849   0.562E-03
  32 F= -.23204720E+04 E0= -.23204720E+04  d E =-.224052E-01  mag=     4.0000
       N       E                     dE             d eps       ncg     rms          rms(c)
DAV:   1    -0.230012740331E+04    0.35169E-01   -0.52417E+00  4396   0.222E+00    0.880E-01
RMM:   2    -0.230019702613E+04   -0.69623E-01   -0.64806E-01  5940   0.510E-01    0.132E+00
RMM:   3    -0.230018775068E+04    0.92755E-02   -0.52080E-02  5735   0.149E-01    0.646E-01
RMM:   4    -0.230018483037E+04    0.29203E-02   -0.64756E-03  4858   0.453E-02    0.190E-01
RMM:   5    -0.230018433683E+04    0.49354E-03   -0.16936E-03  5086   0.342E-02    0.172E-01
RMM:   6    -0.230018408522E+04    0.25161E-03   -0.84386E-04  4972   0.224E-02    0.317E-02
RMM:   7    -0.230018406888E+04    0.16336E-04   -0.86054E-05  3474   0.107E-02    0.195E-02
RMM:   8    -0.230018406017E+04    0.87097E-05   -0.21522E-05  2865   0.459E-03
  33 F= -.23204949E+04 E0= -.23204949E+04  d E =-.452333E-01  mag=     4.0000
       N       E                     dE             d eps       ncg     rms          rms(c)
DAV:   1    -0.230018590143E+04   -0.18325E-02   -0.99856E-01  4528   0.913E-01    0.328E-01
RMM:   2    -0.230019980168E+04   -0.13900E-01   -0.14159E-01  6085   0.223E-01    0.336E-01
RMM:   3    -0.230020055433E+04   -0.75266E-03   -0.10935E-02  5554   0.610E-02    0.353E-01
RMM:   4    -0.230019976451E+04    0.78983E-03   -0.12780E-03  4946   0.173E-02    0.809E-02
RMM:   5    -0.230019968111E+04    0.83398E-04   -0.27221E-04  4178   0.111E-02    0.468E-02
RMM:   6    -0.230019966137E+04    0.19742E-04   -0.12788E-04  4112   0.951E-03    0.125E-02
RMM:   7    -0.230019966147E+04   -0.10349E-06   -0.13624E-05  2844   0.599E-03
  34 F= -.23205106E+04 E0= -.23205106E+04  d E =-.157379E-01  mag=     4.0000
       N       E                     dE             d eps       ncg     rms          rms(c)
DAV:   1    -0.230009616447E+04    0.10350E+00   -0.89761E+00  4392   0.274E+00    0.973E-01
RMM:   2    -0.230021780389E+04   -0.12164E+00   -0.12603E+00  6090   0.653E-01    0.815E-01
RMM:   3    -0.230022940509E+04   -0.11601E-01   -0.11098E-01  5676   0.188E-01    0.112E+00
RMM:   4    -0.230022141316E+04    0.79919E-02   -0.11942E-02  5828   0.513E-02    0.248E-01
RMM:   5    -0.230022065588E+04    0.75728E-03   -0.25852E-03  5035   0.298E-02    0.150E-01
RMM:   6    -0.230022040384E+04    0.25204E-03   -0.12744E-03  5118   0.247E-02    0.488E-02
RMM:   7    -0.230022037854E+04    0.25306E-04   -0.12886E-04  4237   0.128E-02    0.244E-02
RMM:   8    -0.230022037228E+04    0.62508E-05   -0.32400E-05  3056   0.450E-03
  35 F= -.23205317E+04 E0= -.23205317E+04  d E =-.367918E-01  mag=     4.0000
       N       E                     dE             d eps       ncg     rms          rms(c)
DAV:   1    -0.230021182213E+04    0.85564E-02   -0.12680E+00  4552   0.954E-01    0.358E-01
RMM:   2    -0.230023483462E+04   -0.23012E-01   -0.24050E-01  6278   0.258E-01    0.250E-01
RMM:   3    -0.230023721801E+04   -0.23834E-02   -0.22477E-02  5508   0.725E-02    0.356E-01
RMM:   4    -0.230023653084E+04    0.68717E-03   -0.22238E-03  4341   0.175E-02    0.104E-01
RMM:   5    -0.230023643318E+04    0.97656E-04   -0.22892E-04  3836   0.947E-03    0.596E-02
RMM:   6    -0.230023639346E+04    0.39727E-04   -0.15494E-04  4033   0.954E-03    0.159E-02
RMM:   7    -0.230023639503E+04   -0.15761E-05   -0.23543E-05  2855   0.650E-03
  36 F= -.23205476E+04 E0= -.23205476E+04  d E =-.159120E-01  mag=     4.0000
       N       E                     dE             d eps       ncg     rms          rms(c)
DAV:   1    -0.230004151681E+04    0.19488E+00   -0.11425E+01  4400   0.285E+00    0.107E+00
RMM:   2    -0.230024631994E+04   -0.20480E+00   -0.21552E+00  6234   0.742E-01    0.603E-01
RMM:   3    -0.230026488869E+04   -0.18569E-01   -0.20292E-01  5585   0.227E-01    0.658E-01
RMM:   4    -0.230026420310E+04    0.68559E-03   -0.19128E-02  5951   0.472E-02    0.410E-01
RMM:   5    -0.230026293183E+04    0.12713E-02   -0.20424E-03  4851   0.241E-02    0.193E-01
RMM:   6    -0.230026247697E+04    0.45487E-03   -0.16174E-03  4693   0.238E-02    0.642E-02
RMM:   7    -0.230026245289E+04    0.24071E-04   -0.26495E-04  4275   0.167E-02    0.293E-02
RMM:   8    -0.230026245502E+04   -0.21260E-05   -0.62434E-05  3390   0.565E-03
  37 F= -.23205732E+04 E0= -.23205732E+04  d E =-.415923E-01  mag=     4.0000
       N       E                     dE             d eps       ncg     rms          rms(c)
DAV:   1    -0.230024682401E+04    0.15629E-01   -0.88039E-01  4632   0.786E-01    0.302E-01
RMM:   2    -0.230026264523E+04   -0.15821E-01   -0.16562E-01  6263   0.211E-01    0.220E-01
RMM:   3    -0.230026441361E+04   -0.17684E-02   -0.16474E-02  5352   0.639E-02    0.313E-01
RMM:   4    -0.230026387892E+04    0.53469E-03   -0.16146E-03  3866   0.150E-02    0.865E-02
RMM:   5    -0.230026380660E+04    0.72323E-04   -0.17176E-04  3612   0.846E-03    0.495E-02
RMM:   6    -0.230026377375E+04    0.32850E-04   -0.11750E-04  3820   0.863E-03    0.135E-02
RMM:   7    -0.230026377415E+04   -0.39610E-06   -0.19029E-05  2845   0.606E-03
  38 F= -.23205744E+04 E0= -.23205744E+04  d E =-.427937E-01  mag=     4.0000
       N       E                     dE             d eps       ncg     rms          rms(c)
DAV:   1    -0.230020968821E+04    0.54086E-01   -0.38450E+00  4396   0.174E+00    0.652E-01
RMM:   2    -0.230027688494E+04   -0.67197E-01   -0.71086E-01  6146   0.443E-01    0.339E-01
RMM:   3    -0.230028242444E+04   -0.55395E-02   -0.70437E-02  5564   0.141E-01    0.186E-01
RMM:   4    -0.230028275015E+04   -0.32571E-03   -0.62254E-03  5079   0.286E-02    0.191E-01
RMM:   5    -0.230028262976E+04    0.12039E-03   -0.66582E-04  4185   0.150E-02    0.180E-01
RMM:   6    -0.230028237904E+04    0.25072E-03   -0.48245E-04  4406   0.137E-02    0.687E-02
RMM:   7    -0.230028234401E+04    0.35031E-04   -0.12914E-04  3562   0.105E-02    0.158E-02
RMM:   8    -0.230028234480E+04   -0.79026E-06   -0.21484E-05  2872   0.402E-03
  39 F= -.23205924E+04 E0= -.23205924E+04  d E =-.179106E-01  mag=     4.0000
       N       E                     dE             d eps       ncg     rms          rms(c)
DAV:   1    -0.230020240878E+04    0.79935E-01   -0.45165E+00  4400   0.188E+00    0.709E-01
RMM:   2    -0.230028150658E+04   -0.79098E-01   -0.83664E-01  6145   0.475E-01    0.371E-01
RMM:   3    -0.230028819315E+04   -0.66866E-02   -0.84644E-02  5564   0.154E-01    0.202E-01
RMM:   4    -0.230028845714E+04   -0.26399E-03   -0.73252E-03  5047   0.306E-02    0.166E-01
RMM:   5    -0.230028866591E+04   -0.20877E-03   -0.95435E-04  4685   0.173E-02    0.277E-01
RMM:   6    -0.230028811657E+04    0.54934E-03   -0.61519E-04  4653   0.148E-02    0.684E-02
RMM:   7    -0.230028807901E+04    0.37563E-04   -0.19036E-04  3850   0.106E-02    0.192E-02
RMM:   8    -0.230028807682E+04    0.21906E-05   -0.21193E-05  2878   0.433E-03
  40 F= -.23205974E+04 E0= -.23205974E+04  d E =-.229034E-01  mag=     4.0000
       N       E                     dE             d eps       ncg     rms          rms(c)
DAV:   1    -0.230021824760E+04    0.69831E-01   -0.53267E+00  4392   0.207E+00    0.741E-01
RMM:   2    -0.230030035893E+04   -0.82111E-01   -0.85364E-01  6147   0.495E-01    0.548E-01
RMM:   3    -0.230030683491E+04   -0.64760E-02   -0.74402E-02  5756   0.141E-01    0.644E-01
RMM:   4    -0.230030465640E+04    0.21785E-02   -0.82131E-03  5630   0.381E-02    0.228E-01
RMM:   5    -0.230030420921E+04    0.44719E-03   -0.12840E-03  4800   0.197E-02    0.134E-01
RMM:   6    -0.230030405862E+04    0.15059E-03   -0.75517E-04  5021   0.178E-02    0.852E-02
RMM:   7    -0.230030401730E+04    0.41324E-04   -0.14785E-04  3826   0.115E-02    0.215E-02
RMM:   8    -0.230030401749E+04   -0.19473E-06   -0.22264E-05  2889   0.417E-03
  41 F= -.23206122E+04 E0= -.23206122E+04  d E =-.148009E-01  mag=     4.0000
       N       E                     dE             d eps       ncg     rms          rms(c)
DAV:   1    -0.230028276085E+04    0.21256E-01   -0.14832E+00  4464   0.109E+00    0.391E-01
RMM:   2    -0.230030553116E+04   -0.22770E-01   -0.23786E-01  6162   0.262E-01    0.258E-01
RMM:   3    -0.230030722773E+04   -0.16966E-02   -0.19684E-02  5633   0.733E-02    0.301E-01
RMM:   4    -0.230030682093E+04    0.40680E-03   -0.22607E-03  4443   0.196E-02    0.126E-01
RMM:   5    -0.230030668317E+04    0.13776E-03   -0.32243E-04  4111   0.112E-02    0.741E-02
RMM:   6    -0.230030664259E+04    0.40578E-04   -0.21534E-04  4324   0.104E-02    0.548E-02
RMM:   7    -0.230030662494E+04    0.17653E-04   -0.47410E-05  2943   0.750E-03    0.111E-02
RMM:   8    -0.230030662537E+04   -0.43100E-06   -0.10335E-05  2840   0.346E-03
  42 F= -.23206142E+04 E0= -.23206142E+04  d E =-.168001E-01  mag=     4.0000
       N       E                     dE             d eps       ncg     rms          rms(c)
DAV:   1    -0.230029095268E+04    0.15672E-01   -0.20408E+00  4396   0.135E+00    0.470E-01
RMM:   2    -0.230032047041E+04   -0.29518E-01   -0.30423E-01  6051   0.300E-01    0.422E-01
RMM:   3    -0.230032262093E+04   -0.21505E-02   -0.27178E-02  5773   0.882E-02    0.468E-01
RMM:   4    -0.230032130450E+04    0.13164E-02   -0.29821E-03  5248   0.250E-02    0.125E-01
RMM:   5    -0.230032112796E+04    0.17655E-03   -0.54441E-04  4411   0.143E-02    0.736E-02
RMM:   6    -0.230032109354E+04    0.34420E-04   -0.26764E-04  4699   0.125E-02    0.559E-02
RMM:   7    -0.230032107748E+04    0.16059E-04   -0.51119E-05  2943   0.765E-03    0.147E-02
RMM:   8    -0.230032107657E+04    0.91241E-06   -0.10059E-05  2834   0.375E-03
  43 F= -.23206278E+04 E0= -.23206278E+04  d E =-.136860E-01  mag=     4.0000
       N       E                     dE             d eps       ncg     rms          rms(c)
DAV:   1    -0.230027082149E+04    0.50256E-01   -0.39260E+00  4392   0.187E+00    0.654E-01
RMM:   2    -0.230032815385E+04   -0.57332E-01   -0.58917E-01  6049   0.418E-01    0.610E-01
RMM:   3    -0.230033193151E+04   -0.37777E-02   -0.53098E-02  5793   0.124E-01    0.638E-01
RMM:   4    -0.230032946949E+04    0.24620E-02   -0.57144E-03  5521   0.348E-02    0.172E-01
RMM:   5    -0.230032912602E+04    0.34347E-03   -0.10820E-03  4828   0.196E-02    0.102E-01
RMM:   6    -0.230032905105E+04    0.74970E-04   -0.50983E-04  5104   0.163E-02    0.751E-02
RMM:   7    -0.230032902286E+04    0.28192E-04   -0.96831E-05  3516   0.929E-03    0.199E-02
RMM:   8    -0.230032902237E+04    0.49488E-06   -0.16309E-05  2846   0.409E-03
  44 F= -.23206347E+04 E0= -.23206347E+04  d E =-.205519E-01  mag=     4.0000
       N       E                     dE             d eps       ncg     rms          rms(c)
DAV:   1    -0.230032583807E+04    0.31848E-02   -0.97180E-01  4496   0.909E-01    0.325E-01
RMM:   2    -0.230033952498E+04   -0.13687E-01   -0.13377E-01  6075   0.199E-01    0.440E-01
RMM:   3    -0.230033929461E+04    0.23037E-03   -0.11583E-02  5747   0.594E-02    0.284E-01
RMM:   4    -0.230033883058E+04    0.46403E-03   -0.13160E-03  4795   0.165E-02    0.793E-02
RMM:   5    -0.230033875394E+04    0.76642E-04   -0.19880E-04  3904   0.944E-03    0.476E-02
RMM:   6    -0.230033874102E+04    0.12922E-04   -0.12849E-04  3937   0.926E-03    0.155E-02
RMM:   7    -0.230033874269E+04   -0.16702E-05   -0.15908E-05  2864   0.568E-03
  45 F= -.23206437E+04 E0= -.23206437E+04  d E =-.900661E-02  mag=     4.0000
       N       E                     dE             d eps       ncg     rms          rms(c)
DAV:   1    -0.230023920572E+04    0.99535E-01   -0.87254E+00  4392   0.272E+00    0.973E-01
RMM:   2    -0.230036205920E+04   -0.12285E+00   -0.12073E+00  6056   0.600E-01    0.129E+00
RMM:   3    -0.230036072262E+04    0.13366E-02   -0.11000E-01  5867   0.179E-01    0.845E-01
RMM:   4    -0.230035654751E+04    0.41751E-02   -0.11893E-02  5718   0.490E-02    0.237E-01
RMM:   5    -0.230035583542E+04    0.71209E-03   -0.17365E-03  4766   0.256E-02    0.142E-01
RMM:   6    -0.230035566731E+04    0.16811E-03   -0.11113E-03  4973   0.239E-02    0.511E-02
RMM:   7    -0.230035566467E+04    0.26439E-05   -0.12218E-04  4096   0.117E-02    0.230E-02
RMM:   8    -0.230035566045E+04    0.42226E-05   -0.19252E-05  2893   0.397E-03
  46 F= -.23206585E+04 E0= -.23206585E+04  d E =-.237590E-01  mag=     4.0000
       N       E                     dE             d eps       ncg     rms          rms(c)
DAV:   1    -0.230034673347E+04    0.89312E-02   -0.78146E-01  4608   0.816E-01    0.291E-01
RMM:   2    -0.230035780872E+04   -0.11075E-01   -0.10867E-01  6057   0.181E-01    0.388E-01
RMM:   3    -0.230035762611E+04    0.18261E-03   -0.92536E-03  5703   0.530E-02    0.253E-01
RMM:   4    -0.230035725489E+04    0.37122E-03   -0.10605E-03  4512   0.149E-02    0.715E-02
RMM:   5    -0.230035718978E+04    0.65114E-04   -0.16387E-04  3795   0.874E-03    0.431E-02
RMM:   6    -0.230035717681E+04    0.12971E-04   -0.10612E-04  3806   0.862E-03    0.143E-02
RMM:   7    -0.230035717741E+04   -0.60553E-06   -0.13627E-05  2859   0.537E-03
  47 F= -.23206593E+04 E0= -.23206593E+04  d E =-.246222E-01  mag=     4.0000
       N       E                     dE             d eps       ncg     rms          rms(c)
DAV:   1    -0.230034082423E+04    0.16353E-01   -0.18756E+00  4396   0.122E+00    0.449E-01
RMM:   2    -0.230037301582E+04   -0.32192E-01   -0.31130E-01  6206   0.277E-01    0.706E-01
RMM:   3    -0.230037180780E+04    0.12080E-02   -0.27795E-02  5903   0.815E-02    0.345E-01
RMM:   4    -0.230037124166E+04    0.56614E-03   -0.30988E-03  5270   0.221E-02    0.110E-01
RMM:   5    -0.230037110446E+04    0.13719E-03   -0.27550E-04  3975   0.106E-02    0.784E-02
RMM:   6    -0.230037105404E+04    0.50423E-04   -0.31911E-04  4199   0.126E-02    0.159E-02
RMM:   7    -0.230037105525E+04   -0.12104E-05   -0.33215E-05  2943   0.680E-03
  48 F= -.23206719E+04 E0= -.23206719E+04  d E =-.125922E-01  mag=     4.0000
       N       E                     dE             d eps       ncg     rms          rms(c)
DAV:   1    -0.230012062804E+04    0.25043E+00   -0.16855E+01  4392   0.365E+00    0.133E+00
RMM:   2    -0.230040871085E+04   -0.28808E+00   -0.28223E+00  6231   0.829E-01    0.201E+00
RMM:   3    -0.230040576103E+04    0.29498E-02   -0.27128E-01  6048   0.250E-01    0.114E+00
RMM:   4    -0.230039867540E+04    0.70856E-02   -0.28053E-02  5776   0.670E-02    0.331E-01
RMM:   5    -0.230039744137E+04    0.12340E-02   -0.26727E-03  4818   0.310E-02    0.224E-01
RMM:   6    -0.230039700069E+04    0.44068E-03   -0.24644E-03  4963   0.334E-02    0.584E-02
RMM:   7    -0.230039701757E+04   -0.16881E-04   -0.27241E-04  4723   0.161E-02    0.316E-02
RMM:   8    -0.230039701386E+04    0.37146E-05   -0.35126E-05  2948   0.453E-03
  49 F= -.23206940E+04 E0= -.23206940E+04  d E =-.346571E-01  mag=     4.0000
       N       E                     dE             d eps       ncg     rms          rms(c)
DAV:   1    -0.230035309939E+04    0.43918E-01   -0.29382E+00  4444   0.152E+00    0.561E-01
RMM:   2    -0.230040410125E+04   -0.51002E-01   -0.49096E-01  6233   0.347E-01    0.915E-01
RMM:   3    -0.230040186289E+04    0.22384E-02   -0.43061E-02  5968   0.100E-01    0.426E-01
RMM:   4    -0.230040102572E+04    0.83717E-03   -0.48993E-03  5494   0.276E-02    0.139E-01
RMM:   5    -0.230040080822E+04    0.21750E-03   -0.43028E-04  4265   0.132E-02    0.102E-01
RMM:   6    -0.230040072687E+04    0.81347E-04   -0.51795E-04  4453   0.156E-02    0.209E-02
RMM:   7    -0.230040072930E+04   -0.24314E-05   -0.55052E-05  3024   0.787E-03
  50 F= -.23206961E+04 E0= -.23206961E+04  d E =-.367388E-01  mag=     4.0000
       N       E                     dE             d eps       ncg     rms          rms(c)
DAV:   1    -0.230032635582E+04    0.74371E-01   -0.55213E+00  4392   0.205E+00    0.782E-01
RMM:   2    -0.230042008806E+04   -0.93732E-01   -0.94403E-01  6172   0.480E-01    0.946E-01
RMM:   3    -0.230042367387E+04   -0.35858E-02   -0.86195E-02  5931   0.146E-01    0.764E-01
RMM:   4    -0.230042027828E+04    0.33956E-02   -0.97683E-03  5800   0.411E-02    0.194E-01
RMM:   5    -0.230041988382E+04    0.39446E-03   -0.12348E-03  4679   0.198E-02    0.120E-01
RMM:   6    -0.230041975851E+04    0.12531E-03   -0.75125E-04  4959   0.194E-02    0.466E-02
RMM:   7    -0.230041975897E+04   -0.45376E-06   -0.82040E-05  3369   0.967E-03
  51 F= -.23207130E+04 E0= -.23207130E+04  d E =-.169729E-01  mag=     4.0000
       N       E                     dE             d eps       ncg     rms          rms(c)
DAV:   1    -0.230031799518E+04    0.10176E+00   -0.63659E+00  4392   0.221E+00    0.840E-01
RMM:   2    -0.230042639517E+04   -0.10840E+00   -0.10921E+00  6143   0.514E-01    0.102E+00
RMM:   3    -0.230043074572E+04   -0.43506E-02   -0.10017E-01  5910   0.158E-01    0.833E-01
RMM:   4    -0.230042673358E+04    0.40121E-02   -0.11371E-02  5835   0.443E-02    0.211E-01
RMM:   5    -0.230042627416E+04    0.45941E-03   -0.14443E-03  4738   0.213E-02    0.129E-01
RMM:   6    -0.230042612533E+04    0.14883E-03   -0.87558E-04  5050   0.207E-02    0.530E-02
RMM:   7    -0.230042612425E+04    0.10842E-05   -0.99090E-05  3647   0.103E-02
  52 F= -.23207172E+04 E0= -.23207172E+04  d E =-.211207E-01  mag=     4.0000
       N       E                     dE             d eps       ncg     rms          rms(c)
DAV:   1    -0.230034837585E+04    0.77749E-01   -0.66195E+00  4392   0.215E+00    0.788E-01
RMM:   2    -0.230044134699E+04   -0.92971E-01   -0.95925E-01  6203   0.482E-01    0.780E-01
RMM:   3    -0.230044760601E+04   -0.62590E-02   -0.88364E-02  5840   0.144E-01    0.832E-01
RMM:   4    -0.230044354591E+04    0.40601E-02   -0.99730E-03  5838   0.420E-02    0.218E-01
RMM:   5    -0.230044312641E+04    0.41950E-03   -0.15625E-03  4640   0.199E-02    0.127E-01
RMM:   6    -0.230044299446E+04    0.13195E-03   -0.81777E-04  5027   0.188E-02    0.633E-02
RMM:   7    -0.230044298797E+04    0.64938E-05   -0.10759E-04  3422   0.100E-02    0.199E-02
RMM:   8    -0.230044298882E+04   -0.84596E-06   -0.18798E-05  2871   0.412E-03
  53 F= -.23207326E+04 E0= -.23207326E+04  d E =-.154070E-01  mag=     4.0000
       N       E                     dE             d eps       ncg     rms          rms(c)
DAV:   1    -0.230011723479E+04    0.32575E+00   -0.23026E+01  4392   0.404E+00    0.149E+00
RMM:   2    -0.230044626510E+04   -0.32903E+00   -0.33967E+00  6223   0.912E-01    0.148E+00
RMM:   3    -0.230046922277E+04   -0.22958E-01   -0.33484E-01  5853   0.289E-01    0.156E+00
RMM:   4    -0.230045455704E+04    0.14666E-01   -0.35138E-02  6007   0.796E-02    0.415E-01
RMM:   5    -0.230045299001E+04    0.15670E-02   -0.54883E-03  4958   0.371E-02    0.248E-01
RMM:   6    -0.230045241989E+04    0.57012E-03   -0.30282E-03  5263   0.342E-02    0.126E-01
RMM:   7    -0.230045238405E+04    0.35837E-04   -0.47171E-04  4788   0.192E-02    0.392E-02
RMM:   8    -0.230045238630E+04   -0.22522E-05   -0.75174E-05  3162   0.624E-03
  54 F= -.23207393E+04 E0= -.23207393E+04  d E =-.220715E-01  mag=     4.0000
       N       E                     dE             d eps       ncg     rms          rms(c)
DAV:   1    -0.230035859514E+04    0.93789E-01   -0.81560E+00  4428   0.249E+00    0.838E-01
RMM:   2    -0.230046519697E+04   -0.10660E+00   -0.11227E+00  6123   0.529E-01    0.624E-01
RMM:   3    -0.230047532293E+04   -0.10126E-01   -0.11350E-01  5729   0.167E-01    0.789E-01
RMM:   4    -0.230047198591E+04    0.33370E-02   -0.11671E-02  5923   0.438E-02    0.275E-01
RMM:   5    -0.230047136769E+04    0.61822E-03   -0.18131E-03  4924   0.223E-02    0.156E-01
RMM:   6    -0.230047118768E+04    0.18001E-03   -0.12023E-03  5118   0.207E-02    0.774E-02
RMM:   7    -0.230047116804E+04    0.19639E-04   -0.17076E-04  3819   0.129E-02    0.244E-02
RMM:   8    -0.230047117080E+04   -0.27553E-05   -0.32157E-05  2905   0.417E-03
  55 F= -.23207572E+04 E0= -.23207572E+04  d E =-.179124E-01  mag=     4.0000
       N       E                     dE             d eps       ncg     rms          rms(c)
DAV:   1    -0.230029185595E+04    0.17931E+00   -0.13541E+01  4392   0.321E+00    0.108E+00
RMM:   2    -0.230046997090E+04   -0.17811E+00   -0.18769E+00  6130   0.684E-01    0.810E-01
RMM:   3    -0.230048701872E+04   -0.17048E-01   -0.19492E-01  5739   0.220E-01    0.101E+00
RMM:   4    -0.230048149003E+04    0.55287E-02   -0.19530E-02  6037   0.571E-02    0.360E-01
RMM:   5    -0.230048044005E+04    0.10500E-02   -0.30530E-03  5072   0.285E-02    0.206E-01
RMM:   6    -0.230048011143E+04    0.32862E-03   -0.20295E-03  5083   0.264E-02    0.102E-01
RMM:   7    -0.230048006949E+04    0.41939E-04   -0.31270E-04  4483   0.171E-02    0.310E-02
RMM:   8    -0.230048007444E+04   -0.49454E-05   -0.56432E-05  3007   0.493E-03
  56 F= -.23207649E+04 E0= -.23207649E+04  d E =-.256439E-01  mag=     4.0000
       N       E                     dE             d eps       ncg     rms          rms(c)
DAV:   1    -0.230045219310E+04    0.27876E-01   -0.38633E+00  4464   0.177E+00    0.619E-01
RMM:   2    -0.230049504813E+04   -0.42855E-01   -0.46583E-01  5953   0.360E-01    0.323E-01
RMM:   3    -0.230049780592E+04   -0.27578E-02   -0.41217E-02  5635   0.117E-01    0.281E-01
RMM:   4    -0.230049802443E+04   -0.21851E-03   -0.47159E-03  5530   0.292E-02    0.310E-01
RMM:   5    -0.230049731359E+04    0.71084E-03   -0.11148E-03  5035   0.206E-02    0.109E-01
RMM:   6    -0.230049721045E+04    0.10314E-03   -0.59742E-04  4813   0.161E-02    0.341E-02
RMM:   7    -0.230049719999E+04    0.10461E-04   -0.72995E-05  3184   0.105E-02    0.187E-02
RMM:   8    -0.230049719664E+04    0.33553E-05   -0.17469E-05  2878   0.349E-03
  57 F= -.23207821E+04 E0= -.23207821E+04  d E =-.171624E-01  mag=     4.0000
       N       E                     dE             d eps       ncg     rms          rms(c)
DAV:   1    -0.230048590206E+04    0.11298E-01   -0.11824E+00  4528   0.974E-01    0.342E-01
RMM:   2    -0.230049908915E+04   -0.13187E-01   -0.14334E-01  5953   0.200E-01    0.176E-01
RMM:   3    -0.230049987216E+04   -0.78301E-03   -0.11924E-02  5517   0.633E-02    0.153E-01
RMM:   4    -0.230049994559E+04   -0.73428E-04   -0.14490E-03  4609   0.163E-02    0.172E-01
RMM:   5    -0.230049971777E+04    0.22782E-03   -0.35416E-04  4391   0.122E-02    0.576E-02
RMM:   6    -0.230049968551E+04    0.32260E-04   -0.17553E-04  4164   0.984E-03    0.166E-02
RMM:   7    -0.230049968422E+04    0.12884E-05   -0.23667E-05  2864   0.692E-03
  58 F= -.23207846E+04 E0= -.23207846E+04  d E =-.196574E-01  mag=     4.0000
       N       E                     dE             d eps       ncg     rms          rms(c)
DAV:   1    -0.230045194782E+04    0.47738E-01   -0.48845E+00  4392   0.175E+00    0.638E-01
RMM:   2    -0.230051447340E+04   -0.62526E-01   -0.65941E-01  6165   0.393E-01    0.597E-01
RMM:   3    -0.230051928621E+04   -0.48128E-02   -0.63648E-02  5891   0.121E-01    0.657E-01
RMM:   4    -0.230051689844E+04    0.23878E-02   -0.68347E-03  5509   0.322E-02    0.210E-01
RMM:   5    -0.230051645881E+04    0.43963E-03   -0.10052E-03  4696   0.177E-02    0.118E-01
RMM:   6    -0.230051635260E+04    0.10622E-03   -0.10209E-03  4694   0.175E-02    0.735E-02
RMM:   7    -0.230051631828E+04    0.34313E-04   -0.13815E-04  3147   0.122E-02    0.211E-02
RMM:   8    -0.230051631602E+04    0.22633E-05   -0.21637E-05  2896   0.370E-03
  59 F= -.23208021E+04 E0= -.23208021E+04  d E =-.175185E-01  mag=     4.0000
       N       E                     dE             d eps       ncg     rms          rms(c)
DAV:   1    -0.230031087504E+04    0.20544E+00   -0.16202E+01  4392   0.320E+00    0.117E+00
RMM:   2    -0.230051862888E+04   -0.20775E+00   -0.22099E+00  6188   0.710E-01    0.973E-01
RMM:   3    -0.230053640896E+04   -0.17780E-01   -0.23003E-01  5956   0.224E-01    0.111E+00
RMM:   4    -0.230052976854E+04    0.66404E-02   -0.22481E-02  5943   0.572E-02    0.415E-01
RMM:   5    -0.230052820166E+04    0.15669E-02   -0.35883E-03  5309   0.308E-02    0.231E-01
RMM:   6    -0.230052777437E+04    0.42729E-03   -0.37343E-03  4724   0.303E-02    0.159E-01
RMM:   7    -0.230052760666E+04    0.16772E-03   -0.59199E-04  4356   0.222E-02    0.449E-02
RMM:   8    -0.230052759684E+04    0.98125E-05   -0.96820E-05  3188   0.556E-03
  60 F= -.23208148E+04 E0= -.23208148E+04  d E =-.302879E-01  mag=     4.0000
       N       E                     dE             d eps       ncg     rms          rms(c)
DAV:   1    -0.230050847207E+04    0.19135E-01   -0.16605E+00  4544   0.101E+00    0.410E-01
RMM:   2    -0.230053877385E+04   -0.30302E-01   -0.30271E-01  6260   0.251E-01    0.610E-01
RMM:   3    -0.230053890660E+04   -0.13274E-03   -0.27213E-02  5710   0.753E-02    0.343E-01
RMM:   4    -0.230053844225E+04    0.46435E-03   -0.29860E-03  4807   0.191E-02    0.114E-01
RMM:   5    -0.230053830615E+04    0.13610E-03   -0.27057E-04  3754   0.104E-02    0.758E-02
RMM:   6    -0.230053826778E+04    0.38363E-04   -0.33642E-04  4213   0.112E-02    0.351E-02
RMM:   7    -0.230053826432E+04    0.34668E-05   -0.33550E-05  2894   0.705E-03
  61 F= -.23208262E+04 E0= -.23208262E+04  d E =-.113490E-01  mag=     4.0000
       N       E                     dE             d eps       ncg     rms          rms(c)
DAV:   1    -0.230028988938E+04    0.24838E+00   -0.14885E+01  4392   0.302E+00    0.122E+00
RMM:   2    -0.230055981695E+04   -0.26993E+00   -0.27456E+00  6269   0.745E-01    0.157E+00
RMM:   3    -0.230056993901E+04   -0.10122E-01   -0.27617E-01  5930   0.233E-01    0.113E+00
RMM:   4    -0.230056372321E+04    0.62158E-02   -0.27209E-02  5675   0.581E-02    0.358E-01
RMM:   5    -0.230056246282E+04    0.12604E-02   -0.29973E-03  5052   0.294E-02    0.232E-01
RMM:   6    -0.230056204560E+04    0.41722E-03   -0.30956E-03  4854   0.287E-02    0.151E-01
RMM:   7    -0.230056192905E+04    0.11655E-03   -0.48851E-04  4308   0.199E-02    0.544E-02
RMM:   8    -0.230056191168E+04    0.17367E-04   -0.65230E-05  3001   0.545E-03    0.178E-02
RMM:   9    -0.230056191238E+04   -0.69395E-06   -0.22085E-05  2878   0.377E-03
  62 F= -.23208517E+04 E0= -.23208517E+04  d E =-.369030E-01  mag=     4.0000
       N       E                     dE             d eps       ncg     rms          rms(c)
DAV:   1    -0.229943624232E+04    0.11257E+01   -0.59313E+01  4392   0.604E+00    0.247E+00
RMM:   2    -0.230053110311E+04   -0.10949E+01   -0.11429E+01  6306   0.151E+00    0.240E+00
RMM:   3    -0.230061514573E+04   -0.84043E-01   -0.11283E+00  5914   0.461E-01    0.243E+00
RMM:   4    -0.230058276130E+04    0.32384E-01   -0.10794E-01  5897   0.120E-01    0.803E-01
RMM:   5    -0.230057748500E+04    0.52763E-02   -0.13653E-02  5440   0.559E-02    0.516E-01
RMM:   6    -0.230057515297E+04    0.23320E-02   -0.13659E-02  4706   0.561E-02    0.369E-01
RMM:   7    -0.230057441282E+04    0.74015E-03   -0.32671E-03  4722   0.450E-02    0.121E-01
RMM:   8    -0.230057434813E+04    0.64694E-04   -0.43533E-04  4040   0.122E-02    0.457E-02
RMM:   9    -0.230057433196E+04    0.16162E-04   -0.10873E-04  3147   0.929E-03    0.190E-02
RMM:  10    -0.230057433557E+04   -0.36075E-05   -0.46335E-05  2923   0.480E-03
  63 F= -.23208673E+04 E0= -.23208673E+04  d E =-.524595E-01  mag=     4.0000
       N       E                     dE             d eps       ncg     rms          rms(c)
DAV:   1    -0.230052421099E+04    0.50121E-01   -0.32938E+00  4496   0.136E+00    0.592E-01
RMM:   2    -0.230058927910E+04   -0.65068E-01   -0.64950E-01  6378   0.351E-01    0.857E-01
RMM:   3    -0.230059024522E+04   -0.96612E-03   -0.64317E-02  5811   0.107E-01    0.474E-01
RMM:   4    -0.230058936298E+04    0.88224E-03   -0.65012E-03  5039   0.262E-02    0.164E-01
RMM:   5    -0.230058909359E+04    0.26940E-03   -0.51343E-04  3928   0.130E-02    0.111E-01
RMM:   6    -0.230058898693E+04    0.10665E-03   -0.67358E-04  4510   0.142E-02    0.501E-02
RMM:   7    -0.230058898167E+04    0.52650E-05   -0.77792E-05  2996   0.863E-03
  64 F= -.23208825E+04 E0= -.23208825E+04  d E =-.152208E-01  mag=     4.0000
       N       E                     dE             d eps       ncg     rms          rms(c)
DAV:   1    -0.230001726317E+04    0.57172E+00   -0.29542E+01  4392   0.408E+00    0.179E+00
RMM:   2    -0.230060607782E+04   -0.58881E+00   -0.60202E+00  6373   0.105E+00    0.213E+00
RMM:   3    -0.230063670466E+04   -0.30627E-01   -0.61955E-01  5892   0.331E-01    0.161E+00
RMM:   4    -0.230062371470E+04    0.12990E-01   -0.58253E-02  5724   0.818E-02    0.530E-01
RMM:   5    -0.230062125860E+04    0.24561E-02   -0.57550E-03  5131   0.376E-02    0.351E-01
RMM:   6    -0.230062020124E+04    0.10574E-02   -0.65110E-03  4937   0.377E-02    0.217E-01
RMM:   7    -0.230061998797E+04    0.21327E-03   -0.12993E-03  4563   0.268E-02    0.863E-02
RMM:   8    -0.230061994546E+04    0.42511E-04   -0.15832E-04  3347   0.777E-03    0.300E-02
RMM:   9    -0.230061993901E+04    0.64464E-05   -0.53443E-05  2936   0.560E-03
  65 F= -.23209149E+04 E0= -.23209149E+04  d E =-.475964E-01  mag=     4.0000
       N       E                     dE             d eps       ncg     rms          rms(c)
DAV:   1    -0.229801788826E+04    0.26021E+01   -0.11809E+02  4392   0.818E+00    0.366E+00
RMM:   2    -0.230052756111E+04   -0.25097E+01   -0.26365E+01  6401   0.218E+00    0.297E+00
RMM:   3    -0.230068260161E+04   -0.15504E+00   -0.24555E+00  5901   0.646E-01    0.313E+00
RMM:   4    -0.230062404875E+04    0.58553E-01   -0.20474E-01  6010   0.157E-01    0.129E+00
RMM:   5    -0.230061403099E+04    0.10018E-01   -0.26046E-02  5641   0.676E-02    0.814E-01
RMM:   6    -0.230060717682E+04    0.68542E-02   -0.28142E-02  4862   0.736E-02    0.459E-01
RMM:   7    -0.230060610453E+04    0.10723E-02   -0.90493E-03  4920   0.595E-02    0.219E-01
RMM:   8    -0.230060598234E+04    0.12219E-03   -0.10685E-03  4628   0.191E-02    0.879E-02
RMM:   9    -0.230060590825E+04    0.74091E-04   -0.27888E-04  3710   0.120E-02    0.319E-02
RMM:  10    -0.230060591207E+04   -0.38211E-05   -0.99864E-05  3161   0.608E-03
  66 F= -.23209023E+04 E0= -.23209023E+04  d E =-.350415E-01  mag=     3.9994
       N       E                     dE             d eps       ncg     rms          rms(c)
DAV:   1    -0.229958853975E+04    0.10174E+01   -0.51614E+01  4392   0.538E+00    0.243E+00
RMM:   2    -0.230066452031E+04   -0.10760E+01   -0.10655E+01  6402   0.148E+00    0.370E+00
RMM:   3    -0.230064639132E+04    0.18129E-01   -0.11062E+00  5734   0.462E-01    0.175E+00
RMM:   4    -0.230063472439E+04    0.11667E-01   -0.10707E-01  5360   0.115E-01    0.639E-01
RMM:   5    -0.230063035688E+04    0.43675E-02   -0.10124E-02  4751   0.522E-02    0.430E-01
RMM:   6    -0.230062845476E+04    0.19021E-02   -0.90179E-03  4997   0.509E-02    0.113E-01
RMM:   7    -0.230062857331E+04   -0.11855E-03   -0.96726E-04  4846   0.265E-02    0.635E-02
RMM:   8    -0.230062857933E+04   -0.60193E-05   -0.12628E-04  3409   0.746E-03    0.353E-02
RMM:   9    -0.230062856789E+04    0.11437E-04   -0.73982E-05  2989   0.611E-03    0.136E-02
RMM:  10    -0.230062856993E+04   -0.20412E-05   -0.20923E-05  2880   0.388E-03
  67 F= -.23209242E+04 E0= -.23209242E+04  d E =-.569347E-01  mag=     3.9999
       N       E                     dE             d eps       ncg     rms          rms(c)
DAV:   1    -0.230064150719E+04   -0.12939E-01   -0.54167E-01  4512   0.754E-01    0.281E-01
RMM:   2    -0.230064625320E+04   -0.47460E-02   -0.50458E-02  5769   0.142E-01    0.282E-01
RMM:   3    -0.230064640098E+04   -0.14777E-03   -0.56969E-03  5240   0.549E-02    0.261E-01
RMM:   4    -0.230064587441E+04    0.52657E-03   -0.62137E-04  4805   0.157E-02    0.637E-02
RMM:   5    -0.230064580574E+04    0.68674E-04   -0.25955E-04  4498   0.122E-02    0.271E-02
RMM:   6    -0.230064579853E+04    0.72010E-05   -0.58072E-05  3626   0.774E-03
  68 F= -.23209415E+04 E0= -.23209415E+04  d E =-.172976E-01  mag=     3.9999
       N       E                     dE             d eps       ncg     rms          rms(c)
DAV:   1    -0.230064146134E+04    0.43444E-02   -0.21818E+00  4396   0.151E+00    0.567E-01
RMM:   2    -0.230066068826E+04   -0.19227E-01   -0.20489E-01  5802   0.286E-01    0.566E-01
RMM:   3    -0.230066115680E+04   -0.46854E-03   -0.23000E-02  5398   0.110E-01    0.514E-01
RMM:   4    -0.230065909750E+04    0.20593E-02   -0.24751E-03  5196   0.313E-02    0.129E-01
RMM:   5    -0.230065881892E+04    0.27858E-03   -0.10801E-03  5239   0.237E-02    0.546E-02
RMM:   6    -0.230065878381E+04    0.35104E-04   -0.21468E-04  4636   0.128E-02    0.258E-02
RMM:   7    -0.230065877551E+04    0.83005E-05   -0.35944E-05  3075   0.632E-03
  69 F= -.23209546E+04 E0= -.23209546E+04  d E =-.304005E-01  mag=     4.0000
       N       E                     dE             d eps       ncg     rms          rms(c)
DAV:   1    -0.230066479047E+04   -0.60067E-02   -0.14453E+00  4480   0.121E+00    0.335E-01
RMM:   2    -0.230067284607E+04   -0.80556E-02   -0.90118E-02  5709   0.202E-01    0.175E-01
RMM:   3    -0.230067317140E+04   -0.32533E-03   -0.84502E-03  5216   0.703E-02    0.180E-01
RMM:   4    -0.230067300888E+04    0.16252E-03   -0.81091E-04  5067   0.167E-02    0.118E-01
RMM:   5    -0.230067285697E+04    0.15191E-03   -0.37575E-04  4483   0.142E-02    0.545E-02
RMM:   6    -0.230067283056E+04    0.26412E-04   -0.15234E-04  4240   0.101E-02    0.296E-02
RMM:   7    -0.230067282378E+04    0.67744E-05   -0.20360E-05  2848   0.631E-03
  70 F= -.23209690E+04 E0= -.23209690E+04  d E =-.143240E-01  mag=     4.0000
       N       E                     dE             d eps       ncg     rms          rms(c)
DAV:   1    -0.230063984192E+04    0.32989E-01   -0.73141E+00  4392   0.271E+00    0.757E-01
RMM:   2    -0.230068094547E+04   -0.41104E-01   -0.45974E-01  5746   0.457E-01    0.405E-01
RMM:   3    -0.230068256944E+04   -0.16240E-02   -0.43339E-02  5363   0.148E-01    0.401E-01
RMM:   4    -0.230068174312E+04    0.82632E-03   -0.40616E-03  5591   0.369E-02    0.263E-01
RMM:   5    -0.230068099906E+04    0.74407E-03   -0.18685E-03  5101   0.298E-02    0.129E-01
RMM:   6    -0.230068083483E+04    0.16423E-03   -0.82680E-04  5061   0.206E-02    0.724E-02
RMM:   7    -0.230068078587E+04    0.48964E-04   -0.11015E-04  4080   0.109E-02    0.181E-02
RMM:   8    -0.230068077954E+04    0.63279E-05   -0.24141E-05  2933   0.422E-03
  71 F= -.23209775E+04 E0= -.23209775E+04  d E =-.228691E-01  mag=     4.0000
       N       E                     dE             d eps       ncg     rms          rms(c)
DAV:   1    -0.230067959296E+04    0.11929E-02   -0.41217E-01  4576   0.644E-01    0.178E-01
RMM:   2    -0.230068187647E+04   -0.22835E-02   -0.25475E-02  5755   0.108E-01    0.927E-02
RMM:   3    -0.230068198857E+04   -0.11210E-03   -0.24359E-03  4991   0.381E-02    0.104E-01
RMM:   4    -0.230068192464E+04    0.63929E-04   -0.22797E-04  3334   0.901E-03    0.601E-02
RMM:   5    -0.230068188043E+04    0.44206E-04   -0.10473E-04  3839   0.839E-03    0.218E-02
RMM:   6    -0.230068187900E+04    0.14334E-05   -0.30547E-05  2938   0.618E-03
  72 F= -.23209785E+04 E0= -.23209785E+04  d E =-.238325E-01  mag=     4.0000
       N       E                     dE             d eps       ncg     rms          rms(c)
DAV:   1    -0.230068480844E+04   -0.29280E-02   -0.10120E+00  4400   0.101E+00    0.274E-01
RMM:   2    -0.230069044079E+04   -0.56324E-02   -0.62773E-02  5679   0.170E-01    0.144E-01
RMM:   3    -0.230069073680E+04   -0.29601E-03   -0.62807E-03  5111   0.704E-02    0.169E-01
RMM:   4    -0.230069058799E+04    0.14880E-03   -0.59650E-04  4658   0.151E-02    0.926E-02
RMM:   5    -0.230069046669E+04    0.12130E-03   -0.28415E-04  4470   0.135E-02    0.377E-02
RMM:   6    -0.230069045231E+04    0.14383E-04   -0.80934E-05  3966   0.921E-03    0.100E-02
RMM:   7    -0.230069045094E+04    0.13692E-05   -0.12651E-05  2829   0.470E-03
  73 F= -.23209871E+04 E0= -.23209871E+04  d E =-.865555E-02  mag=     4.0000
       N       E                     dE             d eps       ncg     rms          rms(c)
DAV:   1    -0.230068355196E+04    0.69003E-02   -0.19584E+00  4396   0.140E+00    0.382E-01
RMM:   2    -0.230069452666E+04   -0.10975E-01   -0.12210E-01  5544   0.237E-01    0.204E-01
RMM:   3    -0.230069510120E+04   -0.57454E-03   -0.12219E-02  5056   0.943E-02    0.244E-01
RMM:   4    -0.230069477419E+04    0.32701E-03   -0.11874E-03  5098   0.208E-02    0.127E-01
RMM:   5    -0.230069454616E+04    0.22802E-03   -0.55189E-04  4999   0.181E-02    0.529E-02
RMM:   6    -0.230069451655E+04    0.29615E-04   -0.15965E-04  4437   0.112E-02    0.142E-02
RMM:   7    -0.230069451338E+04    0.31723E-05   -0.21255E-05  2929   0.525E-03
  74 F= -.23209913E+04 E0= -.23209913E+04  d E =-.128274E-01  mag=     4.0000
       N       E                     dE             d eps       ncg     rms          rms(c)
DAV:   1    -0.230069428479E+04    0.23176E-03   -0.12914E+00  4400   0.109E+00    0.277E-01
RMM:   2    -0.230070182094E+04   -0.75361E-02   -0.82128E-02  5601   0.183E-01    0.139E-01
RMM:   3    -0.230070220526E+04   -0.38432E-03   -0.75430E-03  4976   0.698E-02    0.127E-01
RMM:   4    -0.230070215055E+04    0.54709E-04   -0.70877E-04  4485   0.146E-02    0.103E-01
RMM:   5    -0.230070203282E+04    0.11773E-03   -0.23968E-04  4231   0.117E-02    0.424E-02
RMM:   6    -0.230070201702E+04    0.15799E-04   -0.11536E-04  4094   0.914E-03    0.158E-02
RMM:   7    -0.230070201636E+04    0.66342E-06   -0.13735E-05  2837   0.616E-03
  75 F= -.23209988E+04 E0= -.23209988E+04  d E =-.747460E-02  mag=     4.0000
       N       E                     dE             d eps       ncg     rms          rms(c)
DAV:   1    -0.230068201642E+04    0.20001E-01   -0.42508E+00  4392   0.197E+00    0.502E-01
RMM:   2    -0.230070670985E+04   -0.24693E-01   -0.26916E-01  5547   0.331E-01    0.250E-01
RMM:   3    -0.230070796779E+04   -0.12579E-02   -0.25268E-02  4955   0.130E-01    0.217E-01
RMM:   4    -0.230070785824E+04    0.10955E-03   -0.23383E-03  5241   0.264E-02    0.195E-01
RMM:   5    -0.230070747153E+04    0.38671E-03   -0.77262E-04  5029   0.196E-02    0.821E-02
RMM:   6    -0.230070740953E+04    0.62007E-04   -0.41991E-04  4689   0.147E-02    0.303E-02
RMM:   7    -0.230070740200E+04    0.75304E-05   -0.43568E-05  3022   0.962E-03
  76 F= -.23210041E+04 E0= -.23210041E+04  d E =-.127988E-01  mag=     4.0000
       N       E                     dE             d eps       ncg     rms          rms(c)
DAV:   1    -0.230070625804E+04    0.11515E-02   -0.17632E+00  4400   0.119E+00    0.310E-01
RMM:   2    -0.230071525580E+04   -0.89978E-02   -0.94706E-02  5698   0.202E-01    0.258E-01
RMM:   3    -0.230071550598E+04   -0.25018E-03   -0.74202E-03  5133   0.654E-02    0.277E-01
RMM:   4    -0.230071494252E+04    0.56345E-03   -0.89784E-04  5049   0.175E-02    0.930E-02
RMM:   5    -0.230071483452E+04    0.10800E-03   -0.32313E-04  4355   0.132E-02    0.433E-02
RMM:   6    -0.230071482346E+04    0.11065E-04   -0.14349E-04  4058   0.101E-02    0.201E-02
RMM:   7    -0.230071482143E+04    0.20279E-05   -0.16613E-05  2850   0.601E-03
  77 F= -.23210117E+04 E0= -.23210117E+04  d E =-.754991E-02  mag=     4.0000
       N       E                     dE             d eps       ncg     rms          rms(c)
DAV:   1    -0.230070173112E+04    0.13092E-01   -0.34097E+00  4396   0.165E+00    0.434E-01
RMM:   2    -0.230071907145E+04   -0.17340E-01   -0.18411E-01  5721   0.281E-01    0.339E-01
RMM:   3    -0.230071958905E+04   -0.51760E-03   -0.14197E-02  5163   0.893E-02    0.376E-01
RMM:   4    -0.230071856258E+04    0.10265E-02   -0.17289E-03  5369   0.241E-02    0.132E-01
RMM:   5    -0.230071834679E+04    0.21578E-03   -0.62801E-04  4853   0.177E-02    0.623E-02
RMM:   6    -0.230071832113E+04    0.25660E-04   -0.30704E-04  4455   0.130E-02    0.306E-02
RMM:   7    -0.230071831312E+04    0.80161E-05   -0.33982E-05  2897   0.719E-03
  78 F= -.23210153E+04 E0= -.23210153E+04  d E =-.112220E-01  mag=     4.0000
       N       E                     dE             d eps       ncg     rms          rms(c)
DAV:   1    -0.230071245516E+04    0.58660E-02   -0.21936E+00  4400   0.132E+00    0.344E-01
RMM:   2    -0.230072592520E+04   -0.13470E-01   -0.13501E-01  5827   0.230E-01    0.395E-01
RMM:   3    -0.230072567204E+04    0.25316E-03   -0.11526E-02  5334   0.749E-02    0.272E-01
RMM:   4    -0.230072513673E+04    0.53532E-03   -0.11871E-03  4831   0.187E-02    0.940E-02
RMM:   5    -0.230072500409E+04    0.13263E-03   -0.38087E-04  4451   0.140E-02    0.483E-02
RMM:   6    -0.230072499922E+04    0.48777E-05   -0.14198E-04  4098   0.107E-02    0.163E-02
RMM:   7    -0.230072499908E+04    0.13577E-06   -0.16652E-05  2862   0.513E-03
  79 F= -.23210225E+04 E0= -.23210225E+04  d E =-.713288E-02  mag=     4.0000
       N       E                     dE             d eps       ncg     rms          rms(c)
DAV:   1    -0.230070414370E+04    0.20856E-01   -0.41756E+00  4396   0.183E+00    0.473E-01
RMM:   2    -0.230072972410E+04   -0.25580E-01   -0.25777E-01  5812   0.317E-01    0.523E-01
RMM:   3    -0.230072937932E+04    0.34478E-03   -0.21802E-02  5319   0.105E-01    0.375E-01
RMM:   4    -0.230072834954E+04    0.10298E-02   -0.22422E-03  5074   0.258E-02    0.131E-01
RMM:   5    -0.230072808743E+04    0.26211E-03   -0.74530E-04  4870   0.191E-02    0.651E-02
RMM:   6    -0.230072807765E+04    0.97802E-05   -0.27519E-04  4499   0.137E-02    0.252E-02
RMM:   7    -0.230072807427E+04    0.33842E-05   -0.27947E-05  2903   0.600E-03
  80 F= -.23210261E+04 E0= -.23210261E+04  d E =-.108231E-01  mag=     4.0000
       N       E                     dE             d eps       ncg     rms          rms(c)
DAV:   1    -0.230072297983E+04    0.50978E-02   -0.31449E+00  4400   0.155E+00    0.399E-01
RMM:   2    -0.230073648266E+04   -0.13503E-01   -0.14383E-01  5686   0.259E-01    0.262E-01
RMM:   3    -0.230073702898E+04   -0.54632E-03   -0.11641E-02  5324   0.846E-02    0.299E-01
RMM:   4    -0.230073636583E+04    0.66316E-03   -0.14146E-03  5417   0.220E-02    0.135E-01
RMM:   5    -0.230073614554E+04    0.22029E-03   -0.56220E-04  4778   0.172E-02    0.552E-02
RMM:   6    -0.230073613060E+04    0.14936E-04   -0.24716E-04  4302   0.124E-02    0.254E-02
RMM:   7    -0.230073612509E+04    0.55140E-05   -0.26099E-05  2873   0.606E-03
  81 F= -.23210347E+04 E0= -.23210347E+04  d E =-.854942E-02  mag=     4.0000
       N       E                     dE             d eps       ncg     rms          rms(c)
DAV:   1    -0.230069825537E+04    0.37875E-01   -0.89525E+00  4392   0.261E+00    0.682E-01
RMM:   2    -0.230073706969E+04   -0.38814E-01   -0.41527E-01  5690   0.434E-01    0.445E-01
RMM:   3    -0.230073845452E+04   -0.13848E-02   -0.32979E-02  5367   0.143E-01    0.488E-01
RMM:   4    -0.230073672778E+04    0.17267E-02   -0.39759E-03  5754   0.367E-02    0.235E-01
RMM:   5    -0.230073608699E+04    0.64078E-03   -0.15871E-03  4988   0.280E-02    0.985E-02
RMM:   6    -0.230073603185E+04    0.55138E-04   -0.77156E-04  4855   0.202E-02    0.467E-02
RMM:   7    -0.230073600934E+04    0.22515E-04   -0.85969E-05  3396   0.905E-03    0.189E-02
RMM:   8    -0.230073600688E+04    0.24619E-05   -0.21430E-05  2908   0.410E-03
  82 F= -.23210354E+04 E0= -.23210354E+04  d E =-.927124E-02  mag=     4.0000
       N       E                     dE             d eps       ncg     rms          rms(c)
DAV:   1    -0.230073054116E+04    0.54682E-02   -0.18686E+00  4400   0.119E+00    0.307E-01
RMM:   2    -0.230073846877E+04   -0.79276E-02   -0.84327E-02  5697   0.199E-01    0.206E-01
RMM:   3    -0.230073880906E+04   -0.34028E-03   -0.69118E-03  5308   0.624E-02    0.236E-01
RMM:   4    -0.230073836072E+04    0.44834E-03   -0.84941E-04  5024   0.169E-02    0.101E-01
RMM:   5    -0.230073822999E+04    0.13073E-03   -0.33662E-04  4342   0.138E-02    0.363E-02
RMM:   6    -0.230073822825E+04    0.17425E-05   -0.10878E-04  3781   0.101E-02    0.124E-02
RMM:   7    -0.230073822840E+04   -0.14968E-06   -0.13806E-05  2854   0.458E-03
  83 F= -.23210373E+04 E0= -.23210373E+04  d E =-.111093E-01  mag=     4.0000
       N       E                     dE             d eps       ncg     rms          rms(c)
DAV:   1    -0.230072483784E+04    0.13390E-01   -0.43128E+00  4396   0.183E+00    0.469E-01
RMM:   2    -0.230074605291E+04   -0.21215E-01   -0.22733E-01  5696   0.307E-01    0.298E-01
RMM:   3    -0.230074672862E+04   -0.67571E-03   -0.18014E-02  5275   0.103E-01    0.311E-01
RMM:   4    -0.230074605136E+04    0.67726E-03   -0.19849E-03  5465   0.243E-02    0.164E-01
RMM:   5    -0.230074573623E+04    0.31513E-03   -0.66987E-04  4775   0.173E-02    0.721E-02
RMM:   6    -0.230074569486E+04    0.41368E-04   -0.46099E-04  4734   0.145E-02    0.334E-02
[...]
DAV:   1    -0.230080968017E+04    0.10529E-04   -0.20296E-03  4760   0.476E-02    0.149E-02
RMM:   2    -0.230080968346E+04   -0.32895E-05   -0.52578E-05  3343   0.831E-03
 353 F= -.23211227E+04 E0= -.23211227E+04  d E =-.396174E-04  mag=     4.0000
       N       E                     dE             d eps       ncg     rms          rms(c)
DAV:   1    -0.230080967999E+04    0.18853E-06   -0.10697E-02  4392   0.109E-01    0.303E-02
RMM:   2    -0.230080971589E+04   -0.35902E-04   -0.34279E-04  5004   0.196E-02    0.354E-02
RMM:   3    -0.230080970866E+04    0.72297E-05   -0.37700E-05  2925   0.785E-03
 354 F= -.23211228E+04 E0= -.23211228E+04  d E =-.426204E-04  mag=     4.0000
       N       E                     dE             d eps       ncg     rms          rms(c)
DAV:   1    -0.230080970025E+04    0.15641E-04   -0.38758E-04  5304   0.214E-02    0.958E-03
RMM:   2    -0.230080969984E+04    0.40646E-06   -0.11370E-05  2564   0.405E-03
 355 F= -.23211228E+04 E0= -.23211228E+04  d E =-.372228E-04  mag=     4.0000
       N       E                     dE             d eps       ncg     rms          rms(c)
DAV:   1    -0.230080969208E+04    0.81716E-05   -0.92547E-03  4408   0.101E-01    0.266E-02
RMM:   2    -0.230080971603E+04   -0.23950E-04   -0.26900E-04  4807   0.167E-02    0.162E-02
RMM:   3    -0.230080971750E+04   -0.14748E-05   -0.24368E-05  2884   0.744E-03
 356 F= -.23211228E+04 E0= -.23211228E+04  d E =-.401123E-04  mag=     4.0000
       N       E                     dE             d eps       ncg     rms          rms(c)
DAV:   1    -0.230080970582E+04    0.10204E-04   -0.63812E-04  5152   0.272E-02    0.101E-02
RMM:   2    -0.230080970668E+04   -0.86176E-06   -0.18255E-05  2777   0.511E-03
 357 F= -.23211228E+04 E0= -.23211228E+04  d E =-.352491E-04  mag=     4.0000
       N       E                     dE             d eps       ncg     rms          rms(c)
DAV:   1    -0.230080970170E+04    0.41227E-05   -0.66687E-03  4440   0.848E-02    0.206E-02
RMM:   2    -0.230080972124E+04   -0.19538E-04   -0.19603E-04  4551   0.147E-02    0.222E-02
RMM:   3    -0.230080971918E+04    0.20578E-05   -0.19648E-05  2837   0.621E-03
 358 F= -.23211228E+04 E0= -.23211228E+04  d E =-.304324E-04  mag=     4.0000
       N       E                     dE             d eps       ncg     rms          rms(c)
DAV:   1    -0.230080970696E+04    0.14280E-04   -0.19759E-03  4560   0.462E-02    0.122E-02
RMM:   2    -0.230080971059E+04   -0.36359E-05   -0.52382E-05  3290   0.830E-03
 359 F= -.23211228E+04 E0= -.23211228E+04  d E =-.317018E-04  mag=     4.0000
       N       E                     dE             d eps       ncg     rms          rms(c)
DAV:   1    -0.230080972767E+04   -0.20716E-04   -0.46308E-03  4408   0.711E-02    0.213E-02
RMM:   2    -0.230080974579E+04   -0.18120E-04   -0.14332E-04  4319   0.137E-02    0.327E-02
RMM:   3    -0.230080973862E+04    0.71708E-05   -0.21087E-05  2819   0.608E-03
 360 F= -.23211229E+04 E0= -.23211229E+04  d E =-.378586E-04  mag=     4.0000
       N       E                     dE             d eps       ncg     rms          rms(c)
DAV:   1    -0.230080972624E+04    0.19549E-04   -0.56545E-03  4432   0.781E-02    0.216E-02
RMM:   2    -0.230080973696E+04   -0.10718E-04   -0.14530E-04  4372   0.134E-02    0.108E-02
RMM:   3    -0.230080973629E+04    0.67096E-06   -0.11277E-05  2826   0.522E-03
 361 F= -.23211229E+04 E0= -.23211229E+04  d E =-.464137E-04  mag=     4.0000
       N       E                     dE             d eps       ncg     rms          rms(c)
DAV:   1    -0.230080974077E+04   -0.38106E-05   -0.48176E-03  4408   0.714E-02    0.168E-02
RMM:   2    -0.230080975214E+04   -0.11372E-04   -0.12426E-04  4003   0.120E-02    0.145E-02
RMM:   3    -0.230080975218E+04   -0.34110E-07   -0.12297E-05  2795   0.538E-03
 362 F= -.23211229E+04 E0= -.23211229E+04  d E =-.221442E-04  mag=     4.0000
       N       E                     dE             d eps       ncg     rms          rms(c)
DAV:   1    -0.230080974698E+04    0.51643E-05   -0.21049E-03  4600   0.473E-02    0.116E-02
RMM:   2    -0.230080975092E+04   -0.39387E-05   -0.50751E-05  3291   0.811E-03
 363 F= -.23211229E+04 E0= -.23211229E+04  d E =-.250375E-04  mag=     4.0000
       N       E                     dE             d eps       ncg     rms          rms(c)
DAV:   1    -0.230080976445E+04   -0.17468E-04   -0.54653E-03  4424   0.764E-02    0.216E-02
RMM:   2    -0.230080978400E+04   -0.19553E-04   -0.16143E-04  4369   0.143E-02    0.325E-02
RMM:   3    -0.230080977693E+04    0.70715E-05   -0.21719E-05  2822   0.615E-03
 364 F= -.23211229E+04 E0= -.23211229E+04  d E =-.367547E-04  mag=     4.0000
       N       E                     dE             d eps       ncg     rms          rms(c)
DAV:   1    -0.230080976851E+04    0.15491E-04   -0.36824E-03  4432   0.624E-02    0.167E-02
RMM:   2    -0.230080977482E+04   -0.63122E-05   -0.88744E-05  3771   0.109E-02
 365 F= -.23211229E+04 E0= -.23211229E+04  d E =-.435288E-04  mag=     4.0000
       N       E                     dE             d eps       ncg     rms          rms(c)
DAV:   1    -0.230080977519E+04   -0.66849E-05   -0.49620E-03  4392   0.724E-02    0.192E-02
RMM:   2    -0.230080979099E+04   -0.15792E-04   -0.14246E-04  4326   0.132E-02    0.267E-02
RMM:   3    -0.230080978650E+04    0.44891E-05   -0.15992E-05  2832   0.587E-03
 366 F= -.23211230E+04 E0= -.23211230E+04  d E =-.283917E-04  mag=     4.0000
       N       E                     dE             d eps       ncg     rms          rms(c)
DAV:   1    -0.230080976996E+04    0.21028E-04   -0.39577E-03  4480   0.643E-02    0.160E-02
RMM:   2    -0.230080977680E+04   -0.68375E-05   -0.92040E-05  3779   0.106E-02
 367 F= -.23211230E+04 E0= -.23211230E+04  d E =-.336636E-04  mag=     4.0000
       N       E                     dE             d eps       ncg     rms          rms(c)
DAV:   1    -0.230080978161E+04   -0.11651E-04   -0.52413E-03  4392   0.740E-02    0.169E-02
RMM:   2    -0.230080979351E+04   -0.11901E-04   -0.14031E-04  4299   0.137E-02    0.868E-03
RMM:   3    -0.230080979324E+04    0.27410E-06   -0.10690E-05  2773   0.546E-03
 368 F= -.23211230E+04 E0= -.23211230E+04  d E =-.275197E-04  mag=     4.0000
       N       E                     dE             d eps       ncg     rms          rms(c)
DAV:   1    -0.230080975780E+04    0.35714E-04   -0.15360E-02  4456   0.126E-01    0.285E-02
RMM:   2    -0.230080979236E+04   -0.34559E-04   -0.38479E-04  4959   0.193E-02    0.203E-02
RMM:   3    -0.230080979201E+04    0.34375E-06   -0.27843E-05  2913   0.761E-03
 369 F= -.23211230E+04 E0= -.23211230E+04  d E =-.451760E-04  mag=     4.0000
       N       E                     dE             d eps       ncg     rms          rms(c)
DAV:   1    -0.230080980097E+04   -0.86166E-05   -0.36845E-03  4648   0.619E-02    0.145E-02
RMM:   2    -0.230080980721E+04   -0.62354E-05   -0.86701E-05  3673   0.101E-02
 370 F= -.23211230E+04 E0= -.23211230E+04  d E =-.172455E-04  mag=     4.0000
       N       E                     dE             d eps       ncg     rms          rms(c)
DAV:   1    -0.230080980917E+04   -0.81952E-05   -0.79418E-03  4392   0.904E-02    0.214E-02
RMM:   2    -0.230080983218E+04   -0.23016E-04   -0.21904E-04  4525   0.159E-02    0.293E-02
RMM:   3    -0.230080982664E+04    0.55427E-05   -0.23255E-05  2877   0.644E-03
 371 F= -.23211231E+04 E0= -.23211231E+04  d E =-.396965E-04  mag=     4.0000
       N       E                     dE             d eps       ncg     rms          rms(c)
DAV:   1    -0.230080975710E+04    0.75084E-04   -0.31911E-02  4456   0.180E-01    0.365E-02
RMM:   2    -0.230080982429E+04   -0.67187E-04   -0.77416E-04  5257   0.263E-02    0.193E-02
RMM:   3    -0.230080981839E+04    0.59007E-05   -0.44058E-05  3114   0.986E-03
 372 F= -.23211231E+04 E0= -.23211231E+04  d E =-.375539E-04  mag=     4.0000
       N       E                     dE             d eps       ncg     rms          rms(c)
DAV:   1    -0.230080982761E+04   -0.33200E-05   -0.40644E-03  4816   0.645E-02    0.188E-02
RMM:   2    -0.230080984156E+04   -0.13958E-04   -0.10500E-04  3707   0.102E-02    0.343E-02
RMM:   3    -0.230080983297E+04    0.85949E-05   -0.16600E-05  2801   0.546E-03
 373 F= -.23211231E+04 E0= -.23211231E+04  d E =-.181980E-04  mag=     4.0000
       N       E                     dE             d eps       ncg     rms          rms(c)
DAV:   1    -0.230080979318E+04    0.48384E-04   -0.36900E-02  4456   0.192E-01    0.344E-02
RMM:   2    -0.230080987184E+04   -0.78660E-04   -0.86764E-04  5013   0.268E-02    0.190E-02
RMM:   3    -0.230080986684E+04    0.49993E-05   -0.46661E-05  3040   0.109E-02
 374 F= -.23211231E+04 E0= -.23211231E+04  d E =-.630165E-04  mag=     4.0000
       N       E                     dE             d eps       ncg     rms          rms(c)
DAV:   1    -0.230080953775E+04    0.33409E-03   -0.14853E-01  4456   0.387E-01    0.699E-02
RMM:   2    -0.230080985466E+04   -0.31692E-03   -0.35251E-03  4944   0.540E-02    0.391E-02
RMM:   3    -0.230080983344E+04    0.21229E-04   -0.18732E-04  4000   0.200E-02    0.384E-02
RMM:   4    -0.230080982574E+04    0.76940E-05   -0.34553E-05  2956   0.532E-03
 375 F= -.23211231E+04 E0= -.23211231E+04  d E =-.441362E-04  mag=     4.0000
       N       E                     dE             d eps       ncg     rms          rms(c)
DAV:   1    -0.230080982700E+04    0.64361E-05   -0.11922E-02  4752   0.109E-01    0.203E-02
RMM:   2    -0.230080985019E+04   -0.23188E-04   -0.25319E-04  4595   0.158E-02    0.916E-03
RMM:   3    -0.230080984978E+04    0.40935E-06   -0.15556E-05  2847   0.693E-03
 376 F= -.23211231E+04 E0= -.23211231E+04  d E =-.315188E-04  mag=     4.0000
       N       E                     dE             d eps       ncg     rms          rms(c)
DAV:   1    -0.230080978484E+04    0.65347E-04   -0.58519E-02  4456   0.242E-01    0.428E-02
RMM:   2    -0.230080990902E+04   -0.12418E-03   -0.13602E-03  4932   0.338E-02    0.234E-02
RMM:   3    -0.230080990254E+04    0.64867E-05   -0.74208E-05  3389   0.139E-02
 377 F= -.23211232E+04 E0= -.23211232E+04  d E =-.100462E-03  mag=     4.0000
       N       E                     dE             d eps       ncg     rms          rms(c)
DAV:   1    -0.230080945143E+04    0.45759E-03   -0.23366E-01  4456   0.483E-01    0.866E-02
RMM:   2    -0.230080995581E+04   -0.50438E-03   -0.54351E-03  4825   0.662E-02    0.667E-02
RMM:   3    -0.230080994448E+04    0.11334E-04   -0.33616E-04  4196   0.251E-02    0.798E-02
RMM:   4    -0.230080988859E+04    0.55889E-04   -0.58715E-05  3127   0.655E-03    0.272E-02
RMM:   5    -0.230080987577E+04    0.12822E-04   -0.60371E-05  3730   0.719E-03    0.749E-03
RMM:   6    -0.230080987637E+04   -0.59884E-06   -0.60317E-06  2789   0.542E-03
 378 F= -.23211232E+04 E0= -.23211232E+04  d E =-.107185E-03  mag=     4.0000
       N       E                     dE             d eps       ncg     rms          rms(c)
DAV:   1    -0.230080988379E+04   -0.80196E-05   -0.44236E-02  4464   0.211E-01    0.391E-02
RMM:   2    -0.230080998250E+04   -0.98714E-04   -0.10698E-03  4661   0.296E-02    0.183E-02
RMM:   3    -0.230080997578E+04    0.67240E-05   -0.49208E-05  3142   0.119E-02
 379 F= -.23211233E+04 E0= -.23211233E+04  d E =-.107193E-03  mag=     4.0000
       N       E                     dE             d eps       ncg     rms          rms(c)
DAV:   1    -0.230080985370E+04    0.12881E-03   -0.87485E-02  4456   0.296E-01    0.586E-02
RMM:   2    -0.230081004814E+04   -0.19444E-03   -0.20468E-03  4697   0.414E-02    0.545E-02
RMM:   3    -0.230081003793E+04    0.10210E-04   -0.15184E-04  3701   0.179E-02    0.512E-02
RMM:   4    -0.230081001288E+04    0.25045E-04   -0.29823E-05  2892   0.484E-03    0.171E-02
RMM:   5    -0.230081000743E+04    0.54551E-05   -0.23737E-05  3003   0.479E-03
 380 F= -.23211234E+04 E0= -.23211234E+04  d E =-.150026E-03  mag=     4.0000
       N       E                     dE             d eps       ncg     rms          rms(c)
DAV:   1    -0.230081006838E+04   -0.55501E-04   -0.76474E-03  4760   0.916E-02    0.273E-02
RMM:   2    -0.230081008665E+04   -0.18268E-04   -0.22238E-04  4689   0.161E-02    0.107E-02
RMM:   3    -0.230081008587E+04    0.77908E-06   -0.15697E-05  2841   0.691E-03
 381 F= -.23211234E+04 E0= -.23211234E+04  d E =-.806176E-04  mag=     4.0000
       N       E                     dE             d eps       ncg     rms          rms(c)
DAV:   1    -0.230081008640E+04    0.25352E-06   -0.95253E-03  4496   0.102E-01    0.321E-02
RMM:   2    -0.230081010618E+04   -0.19781E-04   -0.26600E-04  4694   0.165E-02    0.180E-02
RMM:   3    -0.230081010711E+04   -0.93438E-06   -0.23428E-05  2872   0.723E-03
 382 F= -.23211235E+04 E0= -.23211235E+04  d E =-.104266E-03  mag=     4.0000
       N       E                     dE             d eps       ncg     rms          rms(c)
DAV:   1    -0.230081014620E+04   -0.40025E-04   -0.60411E-03  4600   0.824E-02    0.212E-02
RMM:   2    -0.230081015883E+04   -0.12626E-04   -0.15974E-04  4503   0.132E-02    0.138E-02
RMM:   3    -0.230081015913E+04   -0.30608E-06   -0.14066E-05  2840   0.609E-03
 383 F= -.23211235E+04 E0= -.23211235E+04  d E =-.401129E-04  mag=     4.0000
       N       E                     dE             d eps       ncg     rms          rms(c)
DAV:   1    -0.230081016898E+04   -0.10155E-04   -0.30695E-03  4648   0.587E-02    0.162E-02
RMM:   2    -0.230081017523E+04   -0.62454E-05   -0.77746E-05  3685   0.956E-03
 384 F= -.23211235E+04 E0= -.23211235E+04  d E =-.476880E-04  mag=     4.0000
       N       E                     dE             d eps       ncg     rms          rms(c)
DAV:   1    -0.230081023018E+04   -0.61192E-04   -0.68602E-03  4448   0.896E-02    0.286E-02
RMM:   2    -0.230081025497E+04   -0.24796E-04   -0.22480E-04  4738   0.166E-02    0.368E-02
RMM:   3    -0.230081024701E+04    0.79628E-05   -0.32823E-05  2880   0.725E-03
 385 F= -.23211236E+04 E0= -.23211236E+04  d E =-.533109E-04  mag=     4.0000
       N       E                     dE             d eps       ncg     rms          rms(c)
DAV:   1    -0.230081025290E+04    0.20720E-05   -0.12638E-03  5192   0.387E-02    0.136E-02
RMM:   2    -0.230081025378E+04   -0.88292E-06   -0.32189E-05  3106   0.701E-03
 386 F= -.23211236E+04 E0= -.23211236E+04  d E =-.519766E-04  mag=     4.0000
       N       E                     dE             d eps       ncg     rms          rms(c)
DAV:   1    -0.230081028338E+04   -0.30485E-04   -0.33853E-03  4424   0.634E-02    0.171E-02
RMM:   2    -0.230081029206E+04   -0.86803E-05   -0.10566E-04  4253   0.125E-02    0.104E-02
RMM:   3    -0.230081029316E+04   -0.10986E-05   -0.11839E-05  2808   0.536E-03
 387 F= -.23211236E+04 E0= -.23211236E+04  d E =-.299684E-04  mag=     4.0000
       N       E                     dE             d eps       ncg     rms          rms(c)
DAV:   1    -0.230081029946E+04   -0.73978E-05   -0.13057E-03  4776   0.396E-02    0.121E-02
RMM:   2    -0.230081030184E+04   -0.23793E-05   -0.36966E-05  3201   0.765E-03
 388 F= -.23211236E+04 E0= -.23211236E+04  d E =-.328218E-04  mag=     4.0000
       N       E                     dE             d eps       ncg     rms          rms(c)
DAV:   1    -0.230081033415E+04   -0.34684E-04   -0.42777E-03  4408   0.711E-02    0.207E-02
RMM:   2    -0.230081035272E+04   -0.18569E-04   -0.14495E-04  4446   0.140E-02    0.338E-02
RMM:   3    -0.230081034480E+04    0.79184E-05   -0.21471E-05  2825   0.565E-03
 389 F= -.23211236E+04 E0= -.23211236E+04  d E =-.260926E-04  mag=     4.0000
       N       E                     dE             d eps       ncg     rms          rms(c)
DAV:   1    -0.230081035132E+04    0.13977E-05   -0.84199E-04  5056   0.315E-02    0.969E-03
RMM:   2    -0.230081035232E+04   -0.10046E-05   -0.21883E-05  2873   0.622E-03
 390 F= -.23211236E+04 E0= -.23211236E+04  d E =-.260374E-04  mag=     4.0000
       N       E                     dE             d eps       ncg     rms          rms(c)
DAV:   1    -0.230081037800E+04   -0.26681E-04   -0.49701E-03  4408   0.765E-02    0.201E-02
RMM:   2    -0.230081039425E+04   -0.16253E-04   -0.15139E-04  4514   0.143E-02    0.256E-02
RMM:   3    -0.230081039081E+04    0.34409E-05   -0.18663E-05  2830   0.590E-03
 391 F= -.23211236E+04 E0= -.23211236E+04  d E =-.232273E-04  mag=     4.0000
       N       E                     dE             d eps       ncg     rms          rms(c)
DAV:   1    -0.230081039296E+04    0.12873E-05   -0.34224E-04  5184   0.204E-02    0.715E-03
RMM:   2    -0.230081039303E+04   -0.67754E-07   -0.95592E-06  2441   0.419E-03
 392 F= -.23211236E+04 E0= -.23211236E+04  d E =-.213792E-04  mag=     4.0000
       N       E                     dE             d eps       ncg     rms          rms(c)
DAV:   1    -0.230081041878E+04   -0.25817E-04   -0.45913E-03  4392   0.733E-02    0.171E-02
RMM:   2    -0.230081043032E+04   -0.11540E-04   -0.13208E-04  4421   0.130E-02    0.955E-03
RMM:   3    -0.230081043100E+04   -0.67751E-06   -0.11857E-05  2744   0.581E-03
 393 F= -.23211237E+04 E0= -.23211237E+04  d E =-.250994E-04  mag=     4.0000
       N       E                     dE             d eps       ncg     rms          rms(c)
DAV:   1    -0.230081043296E+04   -0.26374E-05   -0.26346E-04  5024   0.181E-02    0.684E-03
RMM:   2    -0.230081043352E+04   -0.56112E-06   -0.86548E-06  2405   0.381E-03
 394 F= -.23211237E+04 E0= -.23211237E+04  d E =-.245208E-04  mag=     4.0000
       N       E                     dE             d eps       ncg     rms          rms(c)
DAV:   1    -0.230081045830E+04   -0.25340E-04   -0.33851E-03  4392   0.633E-02    0.164E-02
RMM:   2    -0.230081046711E+04   -0.88068E-05   -0.10164E-04  4060   0.115E-02    0.117E-02
RMM:   3    -0.230081046800E+04   -0.89020E-06   -0.11515E-05  2690   0.577E-03
 395 F= -.23211237E+04 E0= -.23211237E+04  d E =-.199442E-04  mag=     4.0000
       N       E                     dE             d eps       ncg     rms          rms(c)
DAV:   1    -0.230081047116E+04   -0.40525E-05   -0.60661E-04  4712   0.271E-02    0.839E-03
RMM:   2    -0.230081047220E+04   -0.10456E-05   -0.17501E-05  2837   0.526E-03
 396 F= -.23211237E+04 E0= -.23211237E+04  d E =-.179180E-04  mag=     4.0000
       N       E                     dE             d eps       ncg     rms          rms(c)
DAV:   1    -0.230081048587E+04   -0.14710E-04   -0.17241E-03  4376   0.452E-02    0.132E-02
RMM:   2    -0.230081049318E+04   -0.73145E-05   -0.56172E-05  3331   0.920E-03
 397 F= -.23211237E+04 E0= -.23211237E+04  d E =-.135268E-04  mag=     4.0000
       N       E                     dE             d eps       ncg     rms          rms(c)
DAV:   1    -0.230081049417E+04   -0.82970E-05   -0.32735E-04  5104   0.212E-02    0.899E-03
RMM:   2    -0.230081049649E+04   -0.23295E-05   -0.16165E-05  2527   0.488E-03
 398 F= -.23211237E+04 E0= -.23211237E+04  d E =-.136516E-04  mag=     4.0000
       N       E                     dE             d eps       ncg     rms          rms(c)
DAV:   1    -0.230081051241E+04   -0.18241E-04   -0.65698E-04  4368   0.285E-02    0.840E-03
RMM:   2    -0.230081051405E+04   -0.16409E-05   -0.22447E-05  2548   0.627E-03
 399 F= -.23211237E+04 E0= -.23211237E+04  d E =-.107208E-04  mag=     4.0000
       N       E                     dE             d eps       ncg     rms          rms(c)
DAV:   1    -0.230081052424E+04   -0.11835E-04   -0.47067E-04  4336   0.240E-02    0.999E-03
RMM:   2    -0.230081052809E+04   -0.38506E-05   -0.21188E-05  2784   0.575E-03
 400 F= -.23211237E+04 E0= -.23211237E+04  d E =-.189546E-04  mag=     4.0000
       N       E                     dE             d eps       ncg     rms          rms(c)
DAV:   1    -0.230081052845E+04   -0.42131E-05   -0.19014E-03  4400   0.479E-02    0.144E-02
RMM:   2    -0.230081053291E+04   -0.44540E-05   -0.63335E-05  3500   0.102E-02
 401 F= -.23211237E+04 E0= -.23211237E+04  d E =-.121529E-04  mag=     4.0000
