       N       E                     dE             d eps       ncg     rms          rms(c)
DAV:   1     0.126935191355E+05    0.12694E+05   -0.83302E+05  4480   0.144E+03
DAV:   2    -0.108626981754E+04   -0.13780E+05   -0.13210E+05  5296   0.330E+02
DAV:   3    -0.247308001577E+04   -0.13868E+04   -0.13737E+04  5352   0.110E+02
DAV:   4    -0.251789410118E+04   -0.44814E+02   -0.44580E+02  6688   0.295E+01
DAV:   5    -0.251871576950E+04   -0.82167E+00   -0.81991E+00  5576   0.320E+00    0.170E+02
RMM:   6    -0.147786789723E+04    0.10408E+04   -0.19318E+03  4402   0.386E+01    0.724E+01
RMM:   7    -0.164754433244E+04   -0.16968E+03   -0.27982E+02  4961   0.138E+01    0.504E+01
RMM:   8    -0.170341077989E+04   -0.55866E+02   -0.63650E+01  5113   0.798E+00    0.405E+01
RMM:   9    -0.179835439597E+04   -0.94944E+02   -0.67487E+01  4927   0.784E+00    0.329E+01
RMM:  10    -0.192948943749E+04   -0.13114E+03   -0.56519E+01  5236   0.721E+00    0.203E+01
RMM:  11    -0.204447049908E+04   -0.11498E+03   -0.52765E+01  4878   0.572E+00    0.140E+01
RMM:  12    -0.219073279896E+04   -0.14626E+03   -0.11361E+02  4472   0.761E+00    0.109E+01
RMM:  13    -0.228163025112E+04   -0.90897E+02   -0.89411E+01  4489   0.645E+00    0.536E+00
RMM:  14    -0.230046348392E+04   -0.18833E+02   -0.20304E+01  4696   0.399E+00    0.314E+00
RMM:  15    -0.230723657384E+04   -0.67731E+01   -0.79842E+00  4749   0.192E+00    0.609E+00
RMM:  16    -0.230770958122E+04   -0.47301E+00   -0.84978E-01  5149   0.981E-01    0.599E+00
RMM:  17    -0.230816877171E+04   -0.45919E+00   -0.33969E-01  4932   0.315E-01    0.511E+00
RMM:  18    -0.231011151681E+04   -0.19427E+01   -0.18476E+00  4492   0.712E-01    0.144E+00
RMM:  19    -0.231074340382E+04   -0.63189E+00   -0.51628E-01  4690   0.460E-01    0.106E+00
RMM:  20    -0.231092489139E+04   -0.18149E+00   -0.20404E-01  4662   0.250E-01    0.553E-01
RMM:  21    -0.231098060135E+04   -0.55710E-01   -0.41850E-02  4948   0.165E-01    0.314E-01
RMM:  22    -0.231102092068E+04   -0.40319E-01   -0.11950E-02  4591   0.773E-02    0.177E-01
RMM:  23    -0.231105289811E+04   -0.31977E-01   -0.74676E-03  4454   0.646E-02    0.126E-01
RMM:  24    -0.231106635919E+04   -0.13461E-01   -0.31431E-03  4604   0.434E-02    0.942E-02
RMM:  25    -0.231107667202E+04   -0.10313E-01   -0.24597E-03  4466   0.353E-02    0.481E-02
RMM:  26    -0.231108242236E+04   -0.57503E-02   -0.15084E-03  4405   0.298E-02    0.322E-02
RMM:  27    -0.231108435868E+04   -0.19363E-02   -0.63779E-04  4412   0.179E-02    0.149E-02
RMM:  28    -0.231108500077E+04   -0.64209E-03   -0.17213E-04  3942   0.954E-03    0.883E-03
RMM:  29    -0.231108520533E+04   -0.20456E-03   -0.54230E-05  3481   0.634E-03    0.409E-03
RMM:  30    -0.231108526087E+04   -0.55535E-04   -0.14639E-05  2925   0.422E-03    0.380E-03
RMM:  31    -0.231108529416E+04   -0.33292E-04   -0.93271E-06  2844   0.317E-03    0.169E-03
RMM:  32    -0.231108530271E+04   -0.85571E-05   -0.38469E-06  2685   0.260E-03
   1 F= -.23315273E+04 E0= -.23315273E+04  d E =-.233153E+04  mag=     3.0001
       N       E                     dE             d eps       ncg     rms          rms(c)
DAV:   1    -0.230737914851E+04    0.37061E+01   -0.32354E+02  5184   0.102E+01    0.547E+00
RMM:   2    -0.231124203623E+04   -0.38629E+01   -0.42681E+01  6491   0.242E+00    0.317E+00
RMM:   3    -0.231143650097E+04   -0.19446E+00   -0.30070E+00  5883   0.701E-01    0.328E+00
RMM:   4    -0.231137748852E+04    0.59012E-01   -0.34952E-01  6092   0.180E-01    0.209E+00
RMM:   5    -0.231134108863E+04    0.36400E-01   -0.89477E-02  5619   0.111E-01    0.132E+00
RMM:   6    -0.231132711723E+04    0.13971E-01   -0.86047E-02  5412   0.108E-01    0.643E-01
RMM:   7    -0.231132392171E+04    0.31955E-02   -0.13612E-02  4928   0.724E-02    0.221E-01
RMM:   8    -0.231132333545E+04    0.58626E-03   -0.30834E-03  4566   0.243E-02    0.965E-02
RMM:   9    -0.231132318413E+04    0.15132E-03   -0.71245E-04  3689   0.135E-02    0.459E-02
RMM:  10    -0.231132319452E+04   -0.10389E-04   -0.19753E-04  3213   0.775E-03    0.191E-02
RMM:  11    -0.231132320296E+04   -0.84337E-05   -0.23772E-05  2946   0.501E-03
   2 F= -.23317634E+04 E0= -.23317634E+04  d E =-.236113E+00  mag=     3.0003
       N       E                     dE             d eps       ncg     rms          rms(c)
DAV:   1    -0.231106891043E+04    0.25428E+00   -0.94937E+01  4576   0.498E+00    0.241E+00
RMM:   2    -0.231205617994E+04   -0.98727E+00   -0.10135E+01  6521   0.124E+00    0.235E+00
RMM:   3    -0.231204902424E+04    0.71557E-02   -0.69157E-01  5895   0.350E-01    0.159E+00
RMM:   4    -0.231203317415E+04    0.15850E-01   -0.10024E-01  5806   0.989E-02    0.891E-01
RMM:   5    -0.231202427117E+04    0.89030E-02   -0.26456E-02  5107   0.645E-02    0.408E-01
RMM:   6    -0.231202431934E+04   -0.48174E-04   -0.62891E-03  4854   0.441E-02    0.174E-01
RMM:   7    -0.231202427159E+04    0.47754E-04   -0.19132E-03  4648   0.210E-02    0.758E-02
RMM:   8    -0.231202416592E+04    0.10567E-03   -0.26309E-04  3338   0.967E-03    0.378E-02
RMM:   9    -0.231202413904E+04    0.26874E-04   -0.14735E-04  3081   0.631E-03    0.122E-02
RMM:  10    -0.231202414219E+04   -0.31432E-05   -0.20268E-05  2914   0.443E-03
   3 F= -.23324631E+04 E0= -.23324631E+04  d E =-.935839E+00  mag=     3.0000
       N       E                     dE             d eps       ncg     rms          rms(c)
DAV:   1    -0.231106754088E+04    0.95660E+00   -0.75608E+01  4552   0.492E+00    0.267E+00
RMM:   2    -0.231245701108E+04   -0.13895E+01   -0.14487E+01  6554   0.141E+00    0.243E+00
RMM:   3    -0.231253259406E+04   -0.75583E-01   -0.12023E+00  6013   0.424E-01    0.228E+00
RMM:   4    -0.231249308960E+04    0.39504E-01   -0.14670E-01  6040   0.113E-01    0.917E-01
RMM:   5    -0.231247993660E+04    0.13153E-01   -0.28097E-02  5599   0.641E-02    0.555E-01
RMM:   6    -0.231247464380E+04    0.52928E-02   -0.19587E-02  5377   0.556E-02    0.225E-01
RMM:   7    -0.231247427956E+04    0.36424E-03   -0.36624E-03  4857   0.366E-02    0.121E-01
RMM:   8    -0.231247441029E+04   -0.13073E-03   -0.98148E-04  4185   0.153E-02    0.596E-02
RMM:   9    -0.231247468778E+04   -0.27749E-03   -0.28261E-04  3683   0.103E-02    0.267E-02
RMM:  10    -0.231247501064E+04   -0.32285E-03   -0.12464E-04  3551   0.710E-03    0.145E-02
RMM:  11    -0.231247523284E+04   -0.22220E-03   -0.52420E-05  3201   0.574E-03    0.971E-03
RMM:  12    -0.231247543957E+04   -0.20673E-03   -0.47942E-05  3192   0.496E-03    0.525E-03
RMM:  13    -0.231247561973E+04   -0.18016E-03   -0.56125E-05  3264   0.497E-03    0.350E-03
RMM:  14    -0.231247564757E+04   -0.27844E-04   -0.13411E-05  2855   0.401E-03    0.189E-03
RMM:  15    -0.231247565504E+04   -0.74667E-05   -0.61288E-06  2656   0.264E-03
   4 F= -.23329093E+04 E0= -.23329093E+04  d E =-.446160E+00  mag=     3.0000
       N       E                     dE             d eps       ncg     rms          rms(c)
DAV:   1    -0.231246543480E+04    0.10213E-01   -0.77406E-01  4800   0.504E-01    0.267E-01
RMM:   2    -0.231247924239E+04   -0.13808E-01   -0.14061E-01  6382   0.133E-01    0.277E-01
RMM:   3    -0.231247951969E+04   -0.27730E-03   -0.10741E-02  4720   0.476E-02    0.184E-01
RMM:   4    -0.231247931205E+04    0.20765E-03   -0.16154E-03  3341   0.118E-02    0.852E-02
RMM:   5    -0.231247917477E+04    0.13728E-03   -0.25209E-04  3254   0.698E-03    0.458E-02
RMM:   6    -0.231247914542E+04    0.29351E-04   -0.15138E-04  3221   0.661E-03    0.164E-02
RMM:   7    -0.231247914531E+04    0.10119E-06   -0.20106E-05  2840   0.448E-03
   5 F= -.23329123E+04 E0= -.23329123E+04  d E =-.449168E+00  mag=     3.0000
       N       E                     dE             d eps       ncg     rms          rms(c)
DAV:   1    -0.231238192868E+04    0.97217E-01   -0.12637E+01  4480   0.236E+00    0.123E+00
RMM:   2    -0.231264274296E+04   -0.26081E+00   -0.25318E+00  6451   0.657E-01    0.167E+00
RMM:   3    -0.231263295482E+04    0.97881E-02   -0.23345E-01  6067   0.196E-01    0.712E-01
RMM:   4    -0.231263088196E+04    0.20729E-02   -0.30147E-02  5597   0.487E-02    0.350E-01
RMM:   5    -0.231262979189E+04    0.10901E-02   -0.32002E-03  4676   0.254E-02    0.253E-01
RMM:   6    -0.231262925388E+04    0.53801E-03   -0.29641E-03  5091   0.283E-02    0.718E-02
RMM:   7    -0.231262919737E+04    0.56507E-04   -0.27577E-04  3627   0.105E-02    0.308E-02
RMM:   8    -0.231262917668E+04    0.20689E-04   -0.50296E-05  2941   0.508E-03    0.138E-02
RMM:   9    -0.231262917124E+04    0.54367E-05   -0.26029E-05  2893   0.364E-03
   6 F= -.23330613E+04 E0= -.23330613E+04  d E =-.149042E+00  mag=     3.0000
       N       E                     dE             d eps       ncg     rms          rms(c)
DAV:   1    -0.231251875096E+04    0.11043E+00   -0.75032E+00  4480   0.181E+00    0.952E-01
RMM:   2    -0.231267410540E+04   -0.15535E+00   -0.15025E+00  6454   0.498E-01    0.133E+00
RMM:   3    -0.231266712007E+04    0.69853E-02   -0.13243E-01  6054   0.147E-01    0.554E-01
RMM:   4    -0.231266593193E+04    0.11881E-02   -0.18010E-02  5427   0.374E-02    0.274E-01
RMM:   5    -0.231266524671E+04    0.68522E-03   -0.19164E-03  4495   0.200E-02    0.199E-01
RMM:   6    -0.231266490509E+04    0.34162E-03   -0.18336E-03  4876   0.226E-02    0.531E-02
RMM:   7    -0.231266487382E+04    0.31265E-04   -0.17514E-04  3230   0.877E-03    0.232E-02
RMM:   8    -0.231266486048E+04    0.13341E-04   -0.31684E-05  2913   0.446E-03    0.110E-02
RMM:   9    -0.231266485756E+04    0.29160E-05   -0.19048E-05  2885   0.325E-03
   7 F= -.23330969E+04 E0= -.23330969E+04  d E =-.184620E+00  mag=     3.0000
       N       E                     dE             d eps       ncg     rms          rms(c)
DAV:   1    -0.231261934770E+04    0.45513E-01   -0.68289E+00  4544   0.171E+00    0.929E-01
RMM:   2    -0.231275525699E+04   -0.13591E+00   -0.13627E+00  6476   0.463E-01    0.124E+00
RMM:   3    -0.231274889860E+04    0.63584E-02   -0.11531E-01  5991   0.128E-01    0.554E-01
RMM:   4    -0.231274737088E+04    0.15277E-02   -0.15281E-02  5338   0.330E-02    0.240E-01
RMM:   5    -0.231274675355E+04    0.61733E-03   -0.13915E-03  4245   0.161E-02    0.167E-01
RMM:   6    -0.231274646489E+04    0.28865E-03   -0.12741E-03  4660   0.187E-02    0.366E-02
RMM:   7    -0.231274644797E+04    0.16920E-04   -0.14318E-04  3095   0.810E-03    0.192E-02
RMM:   8    -0.231274644165E+04    0.63219E-05   -0.26784E-05  2921   0.388E-03
   8 F= -.23331788E+04 E0= -.23331788E+04  d E =-.818611E-01  mag=     3.0000
       N       E                     dE             d eps       ncg     rms          rms(c)
DAV:   1    -0.231271423887E+04    0.32209E-01   -0.24972E+00  4752   0.103E+00    0.562E-01
RMM:   2    -0.231276332515E+04   -0.49086E-01   -0.49258E-01  6449   0.274E-01    0.747E-01
RMM:   3    -0.231276082588E+04    0.24993E-02   -0.38607E-02  5818   0.732E-02    0.340E-01
RMM:   4    -0.231276021482E+04    0.61106E-03   -0.51197E-03  4553   0.199E-02    0.145E-01
RMM:   5    -0.231275996944E+04    0.24538E-03   -0.51958E-04  3804   0.104E-02    0.959E-02
RMM:   6    -0.231275986939E+04    0.10005E-03   -0.43485E-04  3897   0.118E-02    0.207E-02
RMM:   7    -0.231275986548E+04    0.39141E-05   -0.54968E-05  2941   0.603E-03
   9 F= -.23331924E+04 E0= -.23331924E+04  d E =-.954621E-01  mag=     3.0000
       N       E                     dE             d eps       ncg     rms          rms(c)
DAV:   1    -0.231276425174E+04   -0.43823E-02   -0.16825E+00  4512   0.923E-01    0.388E-01
RMM:   2    -0.231278566576E+04   -0.21414E-01   -0.22738E-01  6206   0.209E-01    0.297E-01
RMM:   3    -0.231278690462E+04   -0.12389E-02   -0.20803E-02  5476   0.715E-02    0.297E-01
RMM:   4    -0.231278630188E+04    0.60274E-03   -0.27857E-03  4490   0.185E-02    0.119E-01
RMM:   5    -0.231278601406E+04    0.28782E-03   -0.70406E-04  4498   0.137E-02    0.573E-02
RMM:   6    -0.231278596395E+04    0.50112E-04   -0.23421E-04  3832   0.107E-02    0.289E-02
RMM:   7    -0.231278595494E+04    0.90054E-05   -0.54325E-05  3113   0.604E-03
  10 F= -.23332181E+04 E0= -.23332181E+04  d E =-.257185E-01  mag=     3.0000
       N       E                     dE             d eps       ncg     rms          rms(c)
DAV:   1    -0.231276566871E+04    0.20295E-01   -0.23480E+00  4464   0.109E+00    0.457E-01
RMM:   2    -0.231279560971E+04   -0.29941E-01   -0.31916E-01  6232   0.254E-01    0.346E-01
RMM:   3    -0.231279735557E+04   -0.17459E-02   -0.29666E-02  5633   0.870E-02    0.345E-01
RMM:   4    -0.231279651801E+04    0.83755E-03   -0.38563E-03  4889   0.223E-02    0.143E-01
RMM:   5    -0.231279608086E+04    0.43716E-03   -0.11022E-03  4688   0.169E-02    0.698E-02
RMM:   6    -0.231279600092E+04    0.79937E-04   -0.34427E-04  4156   0.124E-02    0.334E-02
RMM:   7    -0.231279600469E+04   -0.37740E-05   -0.76247E-05  3321   0.694E-03
  11 F= -.23332277E+04 E0= -.23332277E+04  d E =-.353405E-01  mag=     3.0000
       N       E                     dE             d eps       ncg     rms          rms(c)
DAV:   1    -0.231279548416E+04    0.51676E-03   -0.10650E+00  4512   0.803E-01    0.328E-01
RMM:   2    -0.231280853288E+04   -0.13049E-01   -0.14003E-01  6220   0.173E-01    0.170E-01
RMM:   3    -0.231280953732E+04   -0.10044E-02   -0.14644E-02  5482   0.608E-02    0.130E-01
RMM:   4    -0.231280952474E+04    0.12581E-04   -0.18105E-03  3944   0.155E-02    0.106E-01
RMM:   5    -0.231280945419E+04    0.70549E-04   -0.38746E-04  3761   0.112E-02    0.694E-02
RMM:   6    -0.231280942295E+04    0.31246E-04   -0.14351E-04  4044   0.827E-03    0.276E-02
RMM:   7    -0.231280943295E+04   -0.10007E-04   -0.31265E-05  2936   0.579E-03    0.118E-02
RMM:   8    -0.231280943945E+04   -0.64966E-05   -0.96071E-06  2844   0.313E-03
  12 F= -.23332414E+04 E0= -.23332414E+04  d E =-.137287E-01  mag=     3.0000
       N       E                     dE             d eps       ncg     rms          rms(c)
DAV:   1    -0.231278432306E+04    0.25110E-01   -0.25218E+00  4448   0.123E+00    0.507E-01
RMM:   2    -0.231281521953E+04   -0.30896E-01   -0.33180E-01  6190   0.267E-01    0.263E-01
RMM:   3    -0.231281759077E+04   -0.23712E-02   -0.35336E-02  5575   0.938E-02    0.201E-01
RMM:   4    -0.231281753455E+04    0.56227E-04   -0.42612E-03  5017   0.236E-02    0.159E-01
RMM:   5    -0.231281735326E+04    0.18129E-03   -0.90589E-04  4455   0.162E-02    0.112E-01
RMM:   6    -0.231281722629E+04    0.12697E-03   -0.33105E-04  4733   0.114E-02    0.458E-02
RMM:   7    -0.231281722562E+04    0.67582E-06   -0.79029E-05  3123   0.765E-03
  13 F= -.23332497E+04 E0= -.23332497E+04  d E =-.219701E-01  mag=     3.0000
       N       E                     dE             d eps       ncg     rms          rms(c)
DAV:   1    -0.231281654840E+04    0.67790E-03   -0.63249E-01  4464   0.626E-01    0.280E-01
RMM:   2    -0.231282849250E+04   -0.11944E-01   -0.12300E-01  6322   0.142E-01    0.242E-01
RMM:   3    -0.231282926462E+04   -0.77213E-03   -0.12687E-02  5540   0.470E-02    0.184E-01
RMM:   4    -0.231282899112E+04    0.27350E-03   -0.15095E-03  3537   0.130E-02    0.702E-02
RMM:   5    -0.231282895216E+04    0.38958E-04   -0.12911E-04  3065   0.704E-03    0.426E-02
RMM:   6    -0.231282894589E+04    0.62786E-05   -0.10442E-04  3443   0.716E-03    0.135E-02
RMM:   7    -0.231282894638E+04   -0.49020E-06   -0.15983E-05  2874   0.476E-03
  14 F= -.23332619E+04 E0= -.23332619E+04  d E =-.121862E-01  mag=     3.0000
       N       E                     dE             d eps       ncg     rms          rms(c)
DAV:   1    -0.231273729590E+04    0.91650E-01   -0.56948E+00  4416   0.188E+00    0.835E-01
RMM:   2    -0.231284438554E+04   -0.10709E+00   -0.11081E+00  6383   0.422E-01    0.692E-01
RMM:   3    -0.231285253586E+04   -0.81503E-02   -0.11959E-01  6052   0.144E-01    0.565E-01
RMM:   4    -0.231284999291E+04    0.25430E-02   -0.13404E-02  5659   0.378E-02    0.216E-01
RMM:   5    -0.231284960934E+04    0.38357E-03   -0.12574E-03  4421   0.174E-02    0.133E-01
RMM:   6    -0.231284950224E+04    0.10710E-03   -0.97201E-04  4983   0.180E-02    0.510E-02
RMM:   7    -0.231284949566E+04    0.65872E-05   -0.14369E-04  3189   0.929E-03    0.207E-02
RMM:   8    -0.231284948651E+04    0.91502E-05   -0.28282E-05  2890   0.432E-03
  15 F= -.23332838E+04 E0= -.23332838E+04  d E =-.341170E-01  mag=     3.0000
       N       E                     dE             d eps       ncg     rms          rms(c)
DAV:   1    -0.231282732189E+04    0.22174E-01   -0.12334E+00  4552   0.872E-01    0.390E-01
RMM:   2    -0.231285045677E+04   -0.23135E-01   -0.23808E-01  6337   0.195E-01    0.343E-01
RMM:   3    -0.231285193951E+04   -0.14827E-02   -0.24854E-02  5777   0.651E-02    0.261E-01
RMM:   4    -0.231285138729E+04    0.55222E-03   -0.28989E-03  4252   0.177E-02    0.978E-02
RMM:   5    -0.231285130313E+04    0.84154E-04   -0.25536E-04  3378   0.902E-03    0.603E-02
RMM:   6    -0.231285128002E+04    0.23110E-04   -0.20719E-04  4004   0.951E-03    0.202E-02
RMM:   7    -0.231285127878E+04    0.12470E-05   -0.30946E-05  2893   0.562E-03
  16 F= -.23332862E+04 E0= -.23332862E+04  d E =-.365501E-01  mag=     3.0000
       N       E                     dE             d eps       ncg     rms          rms(c)
DAV:   1    -0.231283726976E+04    0.14010E-01   -0.12152E+00  4448   0.882E-01    0.397E-01
RMM:   2    -0.231286259145E+04   -0.25322E-01   -0.25896E-01  6321   0.201E-01    0.343E-01
RMM:   3    -0.231286441579E+04   -0.18243E-02   -0.27177E-02  5822   0.691E-02    0.260E-01
RMM:   4    -0.231286383137E+04    0.58442E-03   -0.31476E-03  4399   0.182E-02    0.974E-02
RMM:   5    -0.231286373785E+04    0.93519E-04   -0.27661E-04  3519   0.952E-03    0.585E-02
RMM:   6    -0.231286371692E+04    0.20928E-04   -0.23698E-04  4098   0.101E-02    0.195E-02
RMM:   7    -0.231286371719E+04   -0.26624E-06   -0.32968E-05  2914   0.579E-03
  17 F= -.23332988E+04 E0= -.23332988E+04  d E =-.125808E-01  mag=     3.0000
       N       E                     dE             d eps       ncg     rms          rms(c)
DAV:   1    -0.231263902577E+04    0.22469E+00   -0.10926E+01  4416   0.266E+00    0.119E+00
RMM:   2    -0.231286718754E+04   -0.22816E+00   -0.23354E+00  6302   0.606E-01    0.103E+00
RMM:   3    -0.231288656666E+04   -0.19379E-01   -0.27271E-01  6054   0.217E-01    0.805E-01
RMM:   4    -0.231288116610E+04    0.54006E-02   -0.28259E-02  5911   0.537E-02    0.302E-01
RMM:   5    -0.231288025396E+04    0.91213E-03   -0.26489E-03  4805   0.255E-02    0.183E-01
RMM:   6    -0.231288003681E+04    0.21715E-03   -0.21393E-03  5175   0.257E-02    0.802E-02
RMM:   7    -0.231288005399E+04   -0.17177E-04   -0.36351E-04  4268   0.133E-02    0.320E-02
RMM:   8    -0.231288007390E+04   -0.19910E-04   -0.62767E-05  3012   0.539E-03    0.135E-02
RMM:   9    -0.231288009193E+04   -0.18032E-04   -0.21572E-05  2887   0.363E-03    0.995E-03
RMM:  10    -0.231288010177E+04   -0.98439E-05   -0.82471E-06  2829   0.291E-03
  18 F= -.23333155E+04 E0= -.23333155E+04  d E =-.293093E-01  mag=     3.0000
       N       E                     dE             d eps       ncg     rms          rms(c)
DAV:   1    -0.231284541207E+04    0.34680E-01   -0.22437E+00  4416   0.116E+00    0.548E-01
RMM:   2    -0.231289265661E+04   -0.47245E-01   -0.49638E-01  6260   0.272E-01    0.352E-01
RMM:   3    -0.231289698213E+04   -0.43255E-02   -0.51433E-02  5913   0.930E-02    0.330E-01
RMM:   4    -0.231289613563E+04    0.84650E-03   -0.61810E-03  4956   0.237E-02    0.141E-01
RMM:   5    -0.231289591294E+04    0.22269E-03   -0.54261E-04  3964   0.125E-02    0.803E-02
RMM:   6    -0.231289586554E+04    0.47407E-04   -0.37335E-04  4526   0.115E-02    0.396E-02
RMM:   7    -0.231289586752E+04   -0.19812E-05   -0.82840E-05  3082   0.776E-03
  19 F= -.23333311E+04 E0= -.23333311E+04  d E =-.155172E-01  mag=     3.0000
       N       E                     dE             d eps       ncg     rms          rms(c)
DAV:   1    -0.231276355760E+04    0.13231E+00   -0.62594E+00  4416   0.194E+00    0.921E-01
RMM:   2    -0.231289669336E+04   -0.13314E+00   -0.14010E+00  6267   0.462E-01    0.598E-01
RMM:   3    -0.231290903719E+04   -0.12344E-01   -0.14851E-01  5998   0.158E-01    0.571E-01
RMM:   4    -0.231290643999E+04    0.25972E-02   -0.17148E-02  5806   0.402E-02    0.236E-01
RMM:   5    -0.231290582214E+04    0.61785E-03   -0.16142E-03  4669   0.200E-02    0.135E-01
RMM:   6    -0.231290568632E+04    0.13582E-03   -0.96852E-04  5085   0.175E-02    0.644E-02
RMM:   7    -0.231290569978E+04   -0.13466E-04   -0.23627E-04  3981   0.110E-02    0.237E-02
RMM:   8    -0.231290570891E+04   -0.91234E-05   -0.44676E-05  2960   0.516E-03
  20 F= -.23333404E+04 E0= -.23333404E+04  d E =-.248790E-01  mag=     3.0000
       N       E                     dE             d eps       ncg     rms          rms(c)
DAV:   1    -0.231286867670E+04    0.37023E-01   -0.24836E+00  4448   0.124E+00    0.536E-01
RMM:   2    -0.231291266883E+04   -0.43992E-01   -0.45217E-01  6185   0.273E-01    0.448E-01
RMM:   3    -0.231291548691E+04   -0.28181E-02   -0.44657E-02  5906   0.944E-02    0.353E-01
RMM:   4    -0.231291433069E+04    0.11562E-02   -0.53189E-03  5205   0.246E-02    0.129E-01
RMM:   5    -0.231291413099E+04    0.19970E-03   -0.51349E-04  4196   0.130E-02    0.735E-02
RMM:   6    -0.231291409810E+04    0.32897E-04   -0.33548E-04  4259   0.127E-02    0.210E-02
RMM:   7    -0.231291409993E+04   -0.18344E-05   -0.53503E-05  3003   0.705E-03
  21 F= -.23333486E+04 E0= -.23333486E+04  d E =-.815019E-02  mag=     3.0000
       N       E                     dE             d eps       ncg     rms          rms(c)
DAV:   1    -0.231290591351E+04    0.81846E-02   -0.49415E-01  4688   0.553E-01    0.240E-01
RMM:   2    -0.231291470737E+04   -0.87939E-02   -0.90233E-02  6199   0.123E-01    0.206E-01
RMM:   3    -0.231291518208E+04   -0.47471E-03   -0.84387E-03  5383   0.406E-02    0.154E-01
RMM:   4    -0.231291496404E+04    0.21804E-03   -0.10460E-03  3342   0.112E-02    0.572E-02
RMM:   5    -0.231291492329E+04    0.40753E-04   -0.99594E-05  3077   0.666E-03    0.331E-02
RMM:   6    -0.231291491392E+04    0.93701E-05   -0.80287E-05  3334   0.690E-03
  22 F= -.23333493E+04 E0= -.23333493E+04  d E =-.885182E-02  mag=     3.0000
       N       E                     dE             d eps       ncg     rms          rms(c)
DAV:   1    -0.231289984302E+04    0.15080E-01   -0.15455E+00  4432   0.978E-01    0.396E-01
RMM:   2    -0.231292266864E+04   -0.22826E-01   -0.22128E-01  6176   0.199E-01    0.535E-01
RMM:   3    -0.231292141775E+04    0.12509E-02   -0.19817E-02  5710   0.647E-02    0.193E-01
RMM:   4    -0.231292116351E+04    0.25424E-03   -0.22366E-03  4306   0.163E-02    0.882E-02
RMM:   5    -0.231292106182E+04    0.10169E-03   -0.24790E-04  3865   0.106E-02    0.682E-02
RMM:   6    -0.231292102220E+04    0.39623E-04   -0.22331E-04  3665   0.104E-02    0.150E-02
RMM:   7    -0.231292102204E+04    0.15553E-06   -0.31918E-05  2902   0.554E-03
  23 F= -.23333550E+04 E0= -.23333550E+04  d E =-.576229E-02  mag=     3.0000
       N       E                     dE             d eps       ncg     rms          rms(c)
DAV:   1    -0.231291099365E+04    0.10029E-01   -0.80556E-01  4544   0.698E-01    0.285E-01
RMM:   2    -0.231292278387E+04   -0.11790E-01   -0.11459E-01  6203   0.143E-01    0.381E-01
RMM:   3    -0.231292217275E+04    0.61112E-03   -0.10352E-02  5448   0.468E-02    0.139E-01
RMM:   4    -0.231292204363E+04    0.12913E-03   -0.12034E-03  3498   0.118E-02    0.633E-02
RMM:   5    -0.231292198985E+04    0.53776E-04   -0.12828E-04  3365   0.782E-03    0.502E-02
RMM:   6    -0.231292196786E+04    0.21990E-04   -0.12308E-04  3190   0.812E-03    0.112E-02
RMM:   7    -0.231292196778E+04    0.76834E-07   -0.18446E-05  2873   0.477E-03
  24 F= -.23333557E+04 E0= -.23333557E+04  d E =-.645442E-02  mag=     3.0000
       N       E                     dE             d eps       ncg     rms          rms(c)
DAV:   1    -0.231290272261E+04    0.19245E-01   -0.19062E+00  4416   0.118E+00    0.454E-01
RMM:   2    -0.231292996657E+04   -0.27244E-01   -0.25964E-01  6107   0.240E-01    0.632E-01
RMM:   3    -0.231292767427E+04    0.22923E-02   -0.22438E-02  5671   0.776E-02    0.220E-01
RMM:   4    -0.231292726203E+04    0.41224E-03   -0.21128E-03  4661   0.187E-02    0.936E-02
RMM:   5    -0.231292712795E+04    0.13408E-03   -0.29819E-04  4380   0.134E-02    0.701E-02
RMM:   6    -0.231292708580E+04    0.42156E-04   -0.24535E-04  4179   0.116E-02    0.142E-02
RMM:   7    -0.231292708428E+04    0.15219E-05   -0.33741E-05  2927   0.679E-03
  25 F= -.23333606E+04 E0= -.23333606E+04  d E =-.487346E-02  mag=     3.0000
       N       E                     dE             d eps       ncg     rms          rms(c)
DAV:   1    -0.231291775410E+04    0.93317E-02   -0.79030E-01  4448   0.757E-01    0.293E-01
RMM:   2    -0.231292907227E+04   -0.11318E-01   -0.10785E-01  6088   0.155E-01    0.408E-01
RMM:   3    -0.231292809760E+04    0.97466E-03   -0.92840E-03  5481   0.490E-02    0.141E-01
RMM:   4    -0.231292793109E+04    0.16652E-03   -0.88677E-04  4132   0.123E-02    0.609E-02
RMM:   5    -0.231292787097E+04    0.60113E-04   -0.12391E-04  3796   0.899E-03    0.459E-02
RMM:   6    -0.231292785081E+04    0.20163E-04   -0.10599E-04  3586   0.843E-03    0.936E-03
RMM:   7    -0.231292785003E+04    0.78592E-06   -0.15859E-05  2871   0.520E-03
  26 F= -.23333612E+04 E0= -.23333612E+04  d E =-.547896E-02  mag=     3.0000
       N       E                     dE             d eps       ncg     rms          rms(c)
DAV:   1    -0.231290943923E+04    0.18412E-01   -0.21722E+00  4416   0.125E+00    0.451E-01
RMM:   2    -0.231293476479E+04   -0.25326E-01   -0.24508E-01  6158   0.252E-01    0.580E-01
RMM:   3    -0.231293302509E+04    0.17397E-02   -0.20156E-02  5824   0.759E-02    0.238E-01
RMM:   4    -0.231293260139E+04    0.42370E-03   -0.23458E-03  4730   0.192E-02    0.975E-02
RMM:   5    -0.231293247527E+04    0.12612E-03   -0.31222E-04  4310   0.133E-02    0.728E-02
RMM:   6    -0.231293243821E+04    0.37057E-04   -0.26098E-04  4025   0.117E-02    0.152E-02
RMM:   7    -0.231293243863E+04   -0.41697E-06   -0.33894E-05  2912   0.616E-03
  27 F= -.23333659E+04 E0= -.23333659E+04  d E =-.467690E-02  mag=     3.0000
       N       E                     dE             d eps       ncg     rms          rms(c)
DAV:   1    -0.231293216153E+04    0.27668E-03   -0.28091E-02  5072   0.142E-01    0.518E-02
RMM:   2    -0.231293248722E+04   -0.32569E-03   -0.32152E-03  5991   0.298E-02    0.588E-02
RMM:   3    -0.231293247666E+04    0.10558E-04   -0.26537E-04  2947   0.880E-03    0.305E-02
RMM:   4    -0.231293246979E+04    0.68738E-05   -0.28195E-05  2890   0.326E-03
  28 F= -.23333659E+04 E0= -.23333659E+04  d E =-.471819E-02  mag=     3.0000
       N       E                     dE             d eps       ncg     rms          rms(c)
DAV:   1    -0.231292465891E+04    0.78178E-02   -0.10342E+00  4480   0.886E-01    0.303E-01
RMM:   2    -0.231293619464E+04   -0.11536E-01   -0.11639E-01  6018   0.174E-01    0.274E-01
RMM:   3    -0.231293647017E+04   -0.27553E-03   -0.10672E-02  5471   0.608E-02    0.182E-01
RMM:   4    -0.231293618369E+04    0.28648E-03   -0.12774E-03  4440   0.146E-02    0.793E-02
RMM:   5    -0.231293607637E+04    0.10732E-03   -0.23595E-04  3892   0.105E-02    0.404E-02
RMM:   6    -0.231293606235E+04    0.14025E-04   -0.16531E-04  3976   0.924E-03    0.183E-02
RMM:   7    -0.231293606053E+04    0.18138E-05   -0.21251E-05  2900   0.580E-03
  29 F= -.23333697E+04 E0= -.23333697E+04  d E =-.372752E-02  mag=     3.0000
       N       E                     dE             d eps       ncg     rms          rms(c)
DAV:   1    -0.231292499361E+04    0.11069E-01   -0.10625E+00  4464   0.893E-01    0.309E-01
RMM:   2    -0.231293691089E+04   -0.11917E-01   -0.12008E-01  6006   0.176E-01    0.285E-01
RMM:   3    -0.231293714051E+04   -0.22962E-03   -0.10852E-02  5490   0.617E-02    0.186E-01
RMM:   4    -0.231293684188E+04    0.29863E-03   -0.12951E-03  4448   0.148E-02    0.790E-02
RMM:   5    -0.231293673334E+04    0.10854E-03   -0.23533E-04  3918   0.105E-02    0.412E-02
RMM:   6    -0.231293671831E+04    0.15024E-04   -0.16684E-04  4014   0.919E-03    0.191E-02
RMM:   7    -0.231293671611E+04    0.22053E-05   -0.20503E-05  2902   0.589E-03
  30 F= -.23333704E+04 E0= -.23333704E+04  d E =-.451997E-02  mag=     3.0000
       N       E                     dE             d eps       ncg     rms          rms(c)
DAV:   1    -0.231293559822E+04    0.11201E-02   -0.21775E-01  4624   0.395E-01    0.131E-01
RMM:   2    -0.231293835915E+04   -0.27609E-02   -0.28136E-02  6107   0.790E-02    0.109E-01
RMM:   3    -0.231293849063E+04   -0.13149E-03   -0.25382E-03  3959   0.270E-02    0.787E-02
RMM:   4    -0.231293844974E+04    0.40899E-04   -0.30365E-04  2957   0.715E-03    0.384E-02
RMM:   5    -0.231293843103E+04    0.18709E-04   -0.42147E-05  2909   0.444E-03    0.216E-02
RMM:   6    -0.231293842855E+04    0.24726E-05   -0.37123E-05  3043   0.436E-03
  31 F= -.23333723E+04 E0= -.23333723E+04  d E =-.181575E-02  mag=     3.0000
       N       E                     dE             d eps       ncg     rms          rms(c)
DAV:   1    -0.231291704890E+04    0.21382E-01   -0.19567E+00  4416   0.118E+00    0.392E-01
RMM:   2    -0.231294165079E+04   -0.24602E-01   -0.24939E-01  5965   0.233E-01    0.344E-01
RMM:   3    -0.231294279360E+04   -0.11428E-02   -0.24571E-02  5447   0.855E-02    0.224E-01
RMM:   4    -0.231294250181E+04    0.29179E-03   -0.27545E-03  4450   0.181E-02    0.113E-01
RMM:   5    -0.231294233249E+04    0.16932E-03   -0.34105E-04  3733   0.110E-02    0.645E-02
RMM:   6    -0.231294230434E+04    0.28150E-04   -0.33698E-04  4284   0.111E-02    0.354E-02
RMM:   7    -0.231294229515E+04    0.91918E-05   -0.42153E-05  2923   0.720E-03
  32 F= -.23333764E+04 E0= -.23333764E+04  d E =-.599675E-02  mag=     3.0000
       N       E                     dE             d eps       ncg     rms          rms(c)
DAV:   1    -0.231284289470E+04    0.99410E-01   -0.78370E+00  4416   0.237E+00    0.782E-01
RMM:   2    -0.231294172582E+04   -0.98831E-01   -0.99978E-01  6075   0.464E-01    0.702E-01
RMM:   3    -0.231294623523E+04   -0.45094E-02   -0.10242E-01  5718   0.168E-01    0.433E-01
RMM:   4    -0.231294528336E+04    0.95188E-03   -0.10833E-02  5294   0.354E-02    0.226E-01
RMM:   5    -0.231294461193E+04    0.67142E-03   -0.14107E-03  4732   0.205E-02    0.130E-01
RMM:   6    -0.231294449504E+04    0.11689E-03   -0.13251E-03  4907   0.198E-02    0.759E-02
RMM:   7    -0.231294445053E+04    0.44508E-04   -0.18105E-04  3410   0.121E-02    0.291E-02
RMM:   8    -0.231294444100E+04    0.95302E-05   -0.34514E-05  2890   0.442E-03
  33 F= -.23333792E+04 E0= -.23333792E+04  d E =-.878988E-02  mag=     3.0000
       N       E                     dE             d eps       ncg     rms          rms(c)
DAV:   1    -0.231294196093E+04    0.24896E-02   -0.50058E-01  4656   0.633E-01    0.223E-01
RMM:   2    -0.231294715688E+04   -0.51960E-02   -0.54447E-02  5998   0.125E-01    0.157E-01
RMM:   3    -0.231294744667E+04   -0.28979E-03   -0.51929E-03  5234   0.434E-02    0.139E-01
RMM:   4    -0.231294729058E+04    0.15608E-03   -0.64466E-04  3637   0.112E-02    0.586E-02
RMM:   5    -0.231294725252E+04    0.38061E-04   -0.12444E-04  3328   0.835E-03    0.313E-02
RMM:   6    -0.231294724596E+04    0.65597E-05   -0.68942E-05  3554   0.704E-03
  34 F= -.23333822E+04 E0= -.23333822E+04  d E =-.296411E-02  mag=     3.0000
       N       E                     dE             d eps       ncg     rms          rms(c)
DAV:   1    -0.231294459320E+04    0.26593E-02   -0.29683E-01  4528   0.487E-01    0.171E-01
RMM:   2    -0.231294763726E+04   -0.30441E-02   -0.32194E-02  6099   0.976E-02    0.106E-01
RMM:   3    -0.231294782434E+04   -0.18708E-03   -0.29818E-03  4869   0.331E-02    0.992E-02
RMM:   4    -0.231294775022E+04    0.74119E-04   -0.37672E-04  3099   0.887E-03    0.469E-02
RMM:   5    -0.231294772713E+04    0.23091E-04   -0.74817E-05  3007   0.648E-03    0.244E-02
RMM:   6    -0.231294772242E+04    0.47155E-05   -0.39995E-05  3071   0.589E-03
  35 F= -.23333828E+04 E0= -.23333828E+04  d E =-.356416E-02  mag=     3.0000
       N       E                     dE             d eps       ncg     rms          rms(c)
DAV:   1    -0.231294755310E+04    0.17403E-03   -0.33385E-01  4448   0.478E-01    0.152E-01
RMM:   2    -0.231295024229E+04   -0.26892E-02   -0.28144E-02  6175   0.937E-02    0.118E-01
RMM:   3    -0.231295034701E+04   -0.10473E-03   -0.24042E-03  4587   0.279E-02    0.991E-02
RMM:   4    -0.231295026528E+04    0.81730E-04   -0.28518E-04  3037   0.837E-03    0.434E-02
RMM:   5    -0.231295024468E+04    0.20609E-04   -0.79016E-05  3043   0.641E-03    0.206E-02
RMM:   6    -0.231295024422E+04    0.45850E-06   -0.28691E-05  2950   0.545E-03
  36 F= -.23333852E+04 E0= -.23333852E+04  d E =-.237475E-02  mag=     3.0000
       N       E                     dE             d eps       ncg     rms          rms(c)
DAV:   1    -0.231293822047E+04    0.12024E-01   -0.17871E+00  4416   0.111E+00    0.351E-01
RMM:   2    -0.231295267470E+04   -0.14454E-01   -0.15060E-01  5986   0.214E-01    0.288E-01
RMM:   3    -0.231295315065E+04   -0.47596E-03   -0.13086E-02  5651   0.655E-02    0.229E-01
RMM:   4    -0.231295272114E+04    0.42951E-03   -0.15323E-03  4642   0.172E-02    0.998E-02
RMM:   5    -0.231295260697E+04    0.11417E-03   -0.41203E-04  4162   0.128E-02    0.491E-02
RMM:   6    -0.231295259669E+04    0.10284E-04   -0.16263E-04  4002   0.996E-03    0.224E-02
RMM:   7    -0.231295259346E+04    0.32206E-05   -0.21032E-05  2887   0.554E-03
  37 F= -.23333872E+04 E0= -.23333872E+04  d E =-.437927E-02  mag=     3.0000
       N       E                     dE             d eps       ncg     rms          rms(c)
DAV:   1    -0.231295169820E+04    0.89848E-03   -0.39246E-01  4480   0.541E-01    0.174E-01
RMM:   2    -0.231295489427E+04   -0.31961E-02   -0.32796E-02  5967   0.103E-01    0.154E-01
RMM:   3    -0.231295494418E+04   -0.49909E-04   -0.28829E-03  4813   0.340E-02    0.113E-01
RMM:   4    -0.231295483080E+04    0.11337E-03   -0.35221E-04  3210   0.922E-03    0.452E-02
RMM:   5    -0.231295480373E+04    0.27071E-04   -0.94668E-05  3244   0.705E-03    0.216E-02
RMM:   6    -0.231295480216E+04    0.15722E-05   -0.36583E-05  2973   0.624E-03
  38 F= -.23333892E+04 E0= -.23333892E+04  d E =-.204557E-02  mag=     3.0000
       N       E                     dE             d eps       ncg     rms          rms(c)
DAV:   1    -0.231294615471E+04    0.86490E-02   -0.12893E+00  4432   0.980E-01    0.314E-01
RMM:   2    -0.231295659596E+04   -0.10441E-01   -0.10733E-01  5938   0.186E-01    0.273E-01
RMM:   3    -0.231295677857E+04   -0.18261E-03   -0.93594E-03  5569   0.559E-02    0.204E-01
RMM:   4    -0.231295640663E+04    0.37194E-03   -0.11524E-03  4501   0.153E-02    0.823E-02
RMM:   5    -0.231295631404E+04    0.92587E-04   -0.31355E-04  4149   0.114E-02    0.393E-02
RMM:   6    -0.231295630480E+04    0.92427E-05   -0.11780E-04  3805   0.911E-03    0.160E-02
RMM:   7    -0.231295630364E+04    0.11532E-05   -0.16205E-05  2884   0.529E-03
  39 F= -.23333904E+04 E0= -.23333904E+04  d E =-.324589E-02  mag=     3.0000
       N       E                     dE             d eps       ncg     rms          rms(c)
DAV:   1    -0.231295377921E+04    0.25256E-02   -0.38424E-01  4448   0.550E-01    0.180E-01
RMM:   2    -0.231295805527E+04   -0.42761E-02   -0.44107E-02  6014   0.110E-01    0.157E-01
RMM:   3    -0.231295819644E+04   -0.14117E-03   -0.39772E-03  4911   0.366E-02    0.114E-01
RMM:   4    -0.231295810374E+04    0.92700E-04   -0.49063E-04  3140   0.947E-03    0.502E-02
RMM:   5    -0.231295806804E+04    0.35701E-04   -0.83211E-05  3104   0.679E-03    0.268E-02
RMM:   6    -0.231295806389E+04    0.41469E-05   -0.54739E-05  3139   0.651E-03
  40 F= -.23333923E+04 E0= -.23333923E+04  d E =-.184854E-02  mag=     3.0000
       N       E                     dE             d eps       ncg     rms          rms(c)
DAV:   1    -0.231294691561E+04    0.11152E-01   -0.10767E+00  4432   0.921E-01    0.303E-01
RMM:   2    -0.231295883038E+04   -0.11915E-01   -0.12291E-01  5951   0.183E-01    0.262E-01
RMM:   3    -0.231295924088E+04   -0.41051E-03   -0.11581E-02  5585   0.592E-02    0.186E-01
RMM:   4    -0.231295900165E+04    0.23923E-03   -0.14181E-03  4248   0.149E-02    0.834E-02
RMM:   5    -0.231295890266E+04    0.98989E-04   -0.22144E-04  3827   0.103E-02    0.444E-02
RMM:   6    -0.231295888900E+04    0.13664E-04   -0.14833E-04  4078   0.925E-03    0.238E-02
RMM:   7    -0.231295888587E+04    0.31264E-05   -0.19942E-05  2882   0.589E-03
  41 F= -.23333932E+04 E0= -.23333932E+04  d E =-.281619E-02  mag=     3.0000
       N       E                     dE             d eps       ncg     rms          rms(c)
DAV:   1    -0.231295474650E+04    0.41425E-02   -0.41482E-01  4480   0.581E-01    0.203E-01
RMM:   2    -0.231296052658E+04   -0.57801E-02   -0.59370E-02  6090   0.121E-01    0.177E-01
RMM:   3    -0.231296077676E+04   -0.25018E-03   -0.58118E-03  5094   0.411E-02    0.121E-01
RMM:   4    -0.231296067848E+04    0.98280E-04   -0.65653E-04  3175   0.995E-03    0.537E-02
RMM:   5    -0.231296064017E+04    0.38309E-04   -0.82990E-05  3033   0.648E-03    0.302E-02
RMM:   6    -0.231296063658E+04    0.35918E-05   -0.73690E-05  3273   0.669E-03
  42 F= -.23333951E+04 E0= -.23333951E+04  d E =-.187212E-02  mag=     3.0000
       N       E                     dE             d eps       ncg     rms          rms(c)
DAV:   1    -0.231292625237E+04    0.34388E-01   -0.25215E+00  4448   0.143E+00    0.502E-01
RMM:   2    -0.231296142971E+04   -0.35177E-01   -0.35962E-01  6008   0.295E-01    0.462E-01
RMM:   3    -0.231296271170E+04   -0.12820E-02   -0.36469E-02  5758   0.956E-02    0.289E-01
RMM:   4    -0.231296217827E+04    0.53343E-03   -0.39956E-03  4942   0.228E-02    0.131E-01
RMM:   5    -0.231296194296E+04    0.23531E-03   -0.49557E-04  4342   0.137E-02    0.738E-02
RMM:   6    -0.231296190904E+04    0.33919E-04   -0.41476E-04  4591   0.132E-02    0.353E-02
RMM:   7    -0.231296190479E+04    0.42470E-05   -0.46318E-05  2946   0.815E-03
  43 F= -.23333967E+04 E0= -.23333967E+04  d E =-.343185E-02  mag=     3.0000
       N       E                     dE             d eps       ncg     rms          rms(c)
DAV:   1    -0.231295352919E+04    0.83798E-02   -0.66320E-01  4448   0.718E-01    0.256E-01
RMM:   2    -0.231296377119E+04   -0.10242E-01   -0.10369E-01  6099   0.154E-01    0.252E-01
RMM:   3    -0.231296402066E+04   -0.24947E-03   -0.96349E-03  5431   0.505E-02    0.149E-01
RMM:   4    -0.231296388021E+04    0.14046E-03   -0.11325E-03  3418   0.120E-02    0.705E-02
RMM:   5    -0.231296381032E+04    0.69882E-04   -0.14055E-04  3264   0.774E-03    0.407E-02
RMM:   6    -0.231296379890E+04    0.11420E-04   -0.12585E-04  3587   0.825E-03    0.153E-02
RMM:   7    -0.231296379831E+04    0.58874E-06   -0.15424E-05  2881   0.511E-03
  44 F= -.23333987E+04 E0= -.23333987E+04  d E =-.201418E-02  mag=     3.0000
       N       E                     dE             d eps       ncg     rms          rms(c)
DAV:   1    -0.231294491166E+04    0.18887E-01   -0.12759E+00  4432   0.994E-01    0.354E-01
RMM:   2    -0.231296461421E+04   -0.19703E-01   -0.19855E-01  6106   0.212E-01    0.359E-01
RMM:   3    -0.231296501547E+04   -0.40126E-03   -0.18645E-02  5647   0.717E-02    0.203E-01
RMM:   4    -0.231296475651E+04    0.25896E-03   -0.21741E-03  4290   0.164E-02    0.974E-02
RMM:   5    -0.231296461667E+04    0.13984E-03   -0.27070E-04  3855   0.103E-02    0.566E-02
RMM:   6    -0.231296459033E+04    0.26345E-04   -0.24192E-04  4102   0.106E-02    0.194E-02
RMM:   7    -0.231296458843E+04    0.19020E-05   -0.24888E-05  2906   0.604E-03
  45 F= -.23333996E+04 E0= -.23333996E+04  d E =-.296480E-02  mag=     3.0000
       N       E                     dE             d eps       ncg     rms          rms(c)
DAV:   1    -0.231295976711E+04    0.48232E-02   -0.42979E-01  4504   0.596E-01    0.217E-01
RMM:   2    -0.231296610159E+04   -0.63345E-02   -0.64244E-02  6032   0.126E-01    0.204E-01
RMM:   3    -0.231296621599E+04   -0.11440E-03   -0.57312E-03  5172   0.424E-02    0.130E-01
RMM:   4    -0.231296609020E+04    0.12579E-03   -0.72477E-04  3360   0.106E-02    0.548E-02
RMM:   5    -0.231296604295E+04    0.47248E-04   -0.90345E-05  3171   0.713E-03    0.308E-02
RMM:   6    -0.231296603354E+04    0.94157E-05   -0.76436E-05  3404   0.734E-03
  46 F= -.23334012E+04 E0= -.23334012E+04  d E =-.153729E-02  mag=     3.0000
       N       E                     dE             d eps       ncg     rms          rms(c)
DAV:   1    -0.231296003307E+04    0.60099E-02   -0.43327E-01  4480   0.599E-01    0.219E-01
RMM:   2    -0.231296643154E+04   -0.63985E-02   -0.64743E-02  6034   0.127E-01    0.210E-01
RMM:   3    -0.231296652082E+04   -0.89276E-04   -0.57702E-03  5287   0.425E-02    0.131E-01
RMM:   4    -0.231296638855E+04    0.13227E-03   -0.72559E-04  3355   0.107E-02    0.542E-02
RMM:   5    -0.231296634293E+04    0.45616E-04   -0.93260E-05  3195   0.708E-03    0.306E-02
RMM:   6    -0.231296633313E+04    0.98030E-05   -0.73239E-05  3343   0.728E-03
  47 F= -.23334016E+04 E0= -.23334016E+04  d E =-.192697E-02  mag=     3.0000
       N       E                     dE             d eps       ncg     rms          rms(c)
DAV:   1    -0.231296273123E+04    0.36117E-02   -0.46552E-01  4432   0.593E-01    0.196E-01
RMM:   2    -0.231296763913E+04   -0.49079E-02   -0.49640E-02  6240   0.118E-01    0.190E-01
RMM:   3    -0.231296766364E+04   -0.24518E-04   -0.41856E-03  5324   0.377E-02    0.120E-01
RMM:   4    -0.231296754490E+04    0.11875E-03   -0.52582E-04  3200   0.100E-02    0.501E-02
RMM:   5    -0.231296750655E+04    0.38342E-04   -0.86382E-05  3248   0.714E-03    0.265E-02
RMM:   6    -0.231296750241E+04    0.41392E-05   -0.53621E-05  3084   0.682E-03
  48 F= -.23334027E+04 E0= -.23334027E+04  d E =-.117185E-02  mag=     3.0000
       N       E                     dE             d eps       ncg     rms          rms(c)
DAV:   1    -0.231296337239E+04    0.41342E-02   -0.42883E-01  4432   0.568E-01    0.189E-01
RMM:   2    -0.231296789860E+04   -0.45262E-02   -0.45728E-02  6142   0.113E-01    0.183E-01
RMM:   3    -0.231296792339E+04   -0.24793E-04   -0.38541E-03  5109   0.364E-02    0.116E-01
RMM:   4    -0.231296781255E+04    0.11084E-03   -0.48322E-04  3170   0.960E-03    0.480E-02
RMM:   5    -0.231296777683E+04    0.35719E-04   -0.78600E-05  3164   0.687E-03    0.254E-02
RMM:   6    -0.231296777247E+04    0.43629E-05   -0.50208E-05  3057   0.671E-03
  49 F= -.23334030E+04 E0= -.23334030E+04  d E =-.144175E-02  mag=     3.0000
       N       E                     dE             d eps       ncg     rms          rms(c)
DAV:   1    -0.231296498869E+04    0.27881E-02   -0.47111E-01  4432   0.577E-01    0.181E-01
RMM:   2    -0.231296903854E+04   -0.40498E-02   -0.41243E-02  6181   0.111E-01    0.161E-01
RMM:   3    -0.231296913581E+04   -0.97265E-04   -0.36057E-03  5068   0.357E-02    0.115E-01
RMM:   4    -0.231296902650E+04    0.10930E-03   -0.43999E-04  3105   0.948E-03    0.478E-02
RMM:   5    -0.231296899737E+04    0.29130E-04   -0.77418E-05  3035   0.676E-03    0.243E-02
RMM:   6    -0.231296899596E+04    0.14134E-05   -0.48031E-05  3040   0.629E-03
  50 F= -.23334042E+04 E0= -.23334042E+04  d E =-.118523E-02  mag=     3.0000
       N       E                     dE             d eps       ncg     rms          rms(c)
DAV:   1    -0.231296247443E+04    0.65229E-02   -0.82911E-01  4432   0.765E-01    0.239E-01
RMM:   2    -0.231296959191E+04   -0.71175E-02   -0.72467E-02  6077   0.145E-01    0.212E-01
RMM:   3    -0.231296976881E+04   -0.17689E-03   -0.63848E-03  5435   0.470E-02    0.151E-01
RMM:   4    -0.231296958289E+04    0.18592E-03   -0.77628E-04  3473   0.119E-02    0.637E-02
RMM:   5    -0.231296953029E+04    0.52598E-04   -0.13531E-04  3379   0.852E-03    0.325E-02
RMM:   6    -0.231296952682E+04    0.34710E-05   -0.83459E-05  3312   0.765E-03
  51 F= -.23334047E+04 E0= -.23334047E+04  d E =-.166229E-02  mag=     3.0000
       N       E                     dE             d eps       ncg     rms          rms(c)
DAV:   1    -0.231296441716E+04    0.51131E-02   -0.64684E-01  4432   0.711E-01    0.233E-01
RMM:   2    -0.231297060617E+04   -0.61890E-02   -0.63928E-02  6048   0.138E-01    0.177E-01
RMM:   3    -0.231297090915E+04   -0.30299E-03   -0.59102E-03  5423   0.484E-02    0.147E-01
RMM:   4    -0.231297073060E+04    0.17856E-03   -0.74353E-04  3646   0.121E-02    0.589E-02
RMM:   5    -0.231297068920E+04    0.41396E-04   -0.11099E-04  3283   0.840E-03    0.314E-02
RMM:   6    -0.231297068376E+04    0.54362E-05   -0.76652E-05  3557   0.754E-03
  52 F= -.23334058E+04 E0= -.23334058E+04  d E =-.112757E-02  mag=     3.0000
       N       E                     dE             d eps       ncg     rms          rms(c)
DAV:   1    -0.231296969982E+04    0.98938E-03   -0.10974E-01  4576   0.293E-01    0.966E-02
RMM:   2    -0.231297075760E+04   -0.10578E-02   -0.10983E-02  6244   0.589E-02    0.696E-02
RMM:   3    -0.231297081106E+04   -0.53460E-04   -0.93194E-04  3609   0.184E-02    0.634E-02
RMM:   4    -0.231297077969E+04    0.31369E-04   -0.12671E-04  2924   0.607E-03    0.246E-02
RMM:   5    -0.231297077317E+04    0.65296E-05   -0.21119E-05  2875   0.401E-03
  53 F= -.23334059E+04 E0= -.23334059E+04  d E =-.120357E-02  mag=     3.0000
       N       E                     dE             d eps       ncg     rms          rms(c)
DAV:   1    -0.231296764554E+04    0.31342E-02   -0.29102E-01  4432   0.486E-01    0.170E-01
RMM:   2    -0.231297152706E+04   -0.38815E-02   -0.39419E-02  6106   0.975E-02    0.141E-01
RMM:   3    -0.231297169636E+04   -0.16930E-03   -0.35843E-03  4645   0.334E-02    0.104E-01
RMM:   4    -0.231297160677E+04    0.89591E-04   -0.44529E-04  3080   0.896E-03    0.428E-02
RMM:   5    -0.231297158221E+04    0.24556E-04   -0.54166E-05  2916   0.590E-03    0.234E-02
RMM:   6    -0.231297157779E+04    0.44173E-05   -0.50291E-05  3145   0.598E-03
  54 F= -.23334067E+04 E0= -.23334067E+04  d E =-.834835E-03  mag=     3.0000
       N       E                     dE             d eps       ncg     rms          rms(c)
DAV:   1    -0.231296779637E+04    0.37858E-02   -0.29321E-01  4432   0.486E-01    0.172E-01
RMM:   2    -0.231297175368E+04   -0.39573E-02   -0.39973E-02  6162   0.982E-02    0.152E-01
RMM:   3    -0.231297188279E+04   -0.12911E-03   -0.35815E-03  4875   0.320E-02    0.106E-01
RMM:   4    -0.231297178945E+04    0.93337E-04   -0.44775E-04  3067   0.879E-03    0.418E-02
RMM:   5    -0.231297176520E+04    0.24254E-04   -0.53559E-05  2925   0.576E-03    0.232E-02
RMM:   6    -0.231297176068E+04    0.45164E-05   -0.46270E-05  3112   0.589E-03
  55 F= -.23334069E+04 E0= -.23334069E+04  d E =-.104581E-02  mag=     3.0000
       N       E                     dE             d eps       ncg     rms          rms(c)
DAV:   1    -0.231296999051E+04    0.17747E-02   -0.15315E-01  4464   0.349E-01    0.125E-01
RMM:   2    -0.231297240027E+04   -0.24098E-02   -0.24054E-02  6291   0.728E-02    0.124E-01
RMM:   3    -0.231297244645E+04   -0.46175E-04   -0.20922E-03  3975   0.234E-02    0.746E-02
RMM:   4    -0.231297241029E+04    0.36162E-04   -0.27443E-04  2971   0.698E-03    0.309E-02
RMM:   5    -0.231297239794E+04    0.12349E-04   -0.28365E-05  2888   0.412E-03    0.186E-02
RMM:   6    -0.231297239520E+04    0.27372E-05   -0.24548E-05  2966   0.417E-03
  56 F= -.23334076E+04 E0= -.23334076E+04  d E =-.646432E-03  mag=     3.0000
       N       E                     dE             d eps       ncg     rms          rms(c)
DAV:   1    -0.231295148739E+04    0.20911E-01   -0.13810E+00  4416   0.105E+00    0.374E-01
RMM:   2    -0.231297304771E+04   -0.21560E-01   -0.21441E-01  6051   0.212E-01    0.376E-01
RMM:   3    -0.231297355238E+04   -0.50467E-03   -0.20417E-02  5618   0.736E-02    0.214E-01
RMM:   4    -0.231297323483E+04    0.31755E-03   -0.24172E-03  4536   0.173E-02    0.936E-02
RMM:   5    -0.231297311610E+04    0.11874E-03   -0.23623E-04  3617   0.102E-02    0.564E-02
RMM:   6    -0.231297308930E+04    0.26801E-04   -0.24462E-04  4214   0.107E-02    0.215E-02
RMM:   7    -0.231297308756E+04    0.17409E-05   -0.26731E-05  2890   0.648E-03
  57 F= -.23334083E+04 E0= -.23334083E+04  d E =-.136657E-02  mag=     3.0000
       N       E                     dE             d eps       ncg     rms          rms(c)
DAV:   1    -0.231296802742E+04    0.50619E-02   -0.37015E-01  4432   0.545E-01    0.205E-01
RMM:   2    -0.231297384665E+04   -0.58192E-02   -0.58829E-02  6048   0.113E-01    0.186E-01
RMM:   3    -0.231297406630E+04   -0.21964E-03   -0.56705E-03  5042   0.392E-02    0.124E-01
RMM:   4    -0.231297395445E+04    0.11185E-03   -0.68495E-04  3262   0.997E-03    0.492E-02
RMM:   5    -0.231297392355E+04    0.30895E-04   -0.68461E-05  2928   0.622E-03    0.286E-02
RMM:   6    -0.231297391744E+04    0.61156E-05   -0.62562E-05  3264   0.633E-03
  58 F= -.23334091E+04 E0= -.23334091E+04  d E =-.829244E-03  mag=     3.0000
       N       E                     dE             d eps       ncg     rms          rms(c)
DAV:   1    -0.231296866812E+04    0.52554E-02   -0.34253E-01  4448   0.525E-01    0.198E-01
RMM:   2    -0.231297406689E+04   -0.53988E-02   -0.54488E-02  6062   0.110E-01    0.182E-01
RMM:   3    -0.231297424346E+04   -0.17657E-03   -0.51046E-03  5142   0.368E-02    0.119E-01
RMM:   4    -0.231297413634E+04    0.10712E-03   -0.63772E-04  3212   0.965E-03    0.467E-02
RMM:   5    -0.231297410914E+04    0.27196E-04   -0.64005E-05  2936   0.591E-03    0.271E-02
RMM:   6    -0.231297410375E+04    0.53981E-05   -0.53304E-05  3209   0.607E-03
  59 F= -.23334093E+04 E0= -.23334093E+04  d E =-.101141E-02  mag=     3.0000
       N       E                     dE             d eps       ncg     rms          rms(c)
DAV:   1    -0.231296853031E+04    0.55788E-02   -0.40317E-01  4432   0.565E-01    0.211E-01
RMM:   2    -0.231297477614E+04   -0.62458E-02   -0.62946E-02  6269   0.118E-01    0.196E-01
RMM:   3    -0.231297497792E+04   -0.20178E-03   -0.60514E-03  5331   0.397E-02    0.124E-01
RMM:   4    -0.231297487221E+04    0.10571E-03   -0.73806E-04  3215   0.102E-02    0.494E-02
RMM:   5    -0.231297484148E+04    0.30731E-04   -0.68840E-05  2949   0.626E-03    0.292E-02
RMM:   6    -0.231297483621E+04    0.52703E-05   -0.61797E-05  3210   0.640E-03
  60 F= -.23334101E+04 E0= -.23334101E+04  d E =-.772549E-03  mag=     3.0000
       N       E                     dE             d eps       ncg     rms          rms(c)
DAV:   1    -0.231296996865E+04    0.48728E-02   -0.31853E-01  4432   0.501E-01    0.188E-01
RMM:   2    -0.231297490766E+04   -0.49390E-02   -0.49809E-02  6199   0.105E-01    0.174E-01
RMM:   3    -0.231297507215E+04   -0.16449E-03   -0.47917E-03  5035   0.351E-02    0.111E-01
RMM:   4    -0.231297498768E+04    0.84466E-04   -0.58493E-04  3112   0.922E-03    0.440E-02
RMM:   5    -0.231297496356E+04    0.24126E-04   -0.55285E-05  2911   0.564E-03    0.260E-02
RMM:   6    -0.231297495910E+04    0.44589E-05   -0.49210E-05  3103   0.579E-03
  61 F= -.23334102E+04 E0= -.23334102E+04  d E =-.926831E-03  mag=     3.0000
       N       E                     dE             d eps       ncg     rms          rms(c)
DAV:   1    -0.231296818253E+04    0.67810E-02   -0.53036E-01  4432   0.644E-01    0.230E-01
RMM:   2    -0.231297580453E+04   -0.76220E-02   -0.76239E-02  6170   0.132E-01    0.226E-01
RMM:   3    -0.231297594141E+04   -0.13688E-03   -0.69078E-03  5380   0.457E-02    0.133E-01
RMM:   4    -0.231297583193E+04    0.10948E-03   -0.87531E-04  3335   0.113E-02    0.555E-02
RMM:   5    -0.231297578856E+04    0.43371E-04   -0.92260E-05  3084   0.718E-03    0.330E-02
RMM:   6    -0.231297577997E+04    0.85866E-05   -0.86372E-05  3367   0.752E-03
  62 F= -.23334110E+04 E0= -.23334110E+04  d E =-.821579E-03  mag=     3.0000
       N       E                     dE             d eps       ncg     rms          rms(c)
DAV:   1    -0.231297324520E+04    0.25434E-02   -0.18042E-01  4496   0.376E-01    0.135E-01
RMM:   2    -0.231297585031E+04   -0.26051E-02   -0.26130E-02  6298   0.785E-02    0.130E-01
RMM:   3    -0.231297589984E+04   -0.49532E-04   -0.23242E-03  4159   0.253E-02    0.791E-02
RMM:   4    -0.231297586079E+04    0.39045E-04   -0.30005E-04  2982   0.740E-03    0.325E-02
RMM:   5    -0.231297584667E+04    0.14127E-04   -0.32006E-05  2891   0.452E-03    0.193E-02
RMM:   6    -0.231297584379E+04    0.28808E-05   -0.29053E-05  2954   0.466E-03
  63 F= -.23334111E+04 E0= -.23334111E+04  d E =-.882722E-03  mag=     3.0000
       N       E                     dE             d eps       ncg     rms          rms(c)
DAV:   1    -0.231296950431E+04    0.63424E-02   -0.49942E-01  4432   0.625E-01    0.224E-01
RMM:   2    -0.231297662461E+04   -0.71203E-02   -0.71990E-02  6112   0.129E-01    0.211E-01
RMM:   3    -0.231297683051E+04   -0.20590E-03   -0.67088E-03  5332   0.457E-02    0.131E-01
RMM:   4    -0.231297669498E+04    0.13553E-03   -0.80368E-04  3373   0.112E-02    0.551E-02
RMM:   5    -0.231297665124E+04    0.43740E-04   -0.90413E-05  3103   0.728E-03    0.312E-02
RMM:   6    -0.231297664264E+04    0.85929E-05   -0.83871E-05  3497   0.754E-03
  64 F= -.23334118E+04 E0= -.23334118E+04  d E =-.659927E-03  mag=     3.0000
       N       E                     dE             d eps       ncg     rms          rms(c)
DAV:   1    -0.231297611290E+04    0.53834E-03   -0.40069E-02  4720   0.177E-01    0.650E-02
RMM:   2    -0.231297669275E+04   -0.57986E-03   -0.59032E-03  6198   0.391E-02    0.591E-02
RMM:   3    -0.231297670788E+04   -0.15130E-04   -0.50727E-04  3039   0.123E-02    0.400E-02
RMM:   4    -0.231297669679E+04    0.11090E-04   -0.68703E-05  2903   0.445E-03    0.155E-02
RMM:   5    -0.231297669364E+04    0.31531E-05   -0.79872E-06  2850   0.244E-03
  65 F= -.23334118E+04 E0= -.23334118E+04  d E =-.670240E-03  mag=     3.0000
       N       E                     dE             d eps       ncg     rms          rms(c)
DAV:   1    -0.231297257724E+04    0.41196E-02   -0.33868E-01  4432   0.514E-01    0.183E-01
RMM:   2    -0.231297731625E+04   -0.47390E-02   -0.48885E-02  6063   0.108E-01    0.147E-01
RMM:   3    -0.231297757324E+04   -0.25699E-03   -0.46165E-03  4887   0.366E-02    0.110E-01
RMM:   4    -0.231297748371E+04    0.89531E-04   -0.54832E-04  3073   0.939E-03    0.478E-02
RMM:   5    -0.231297745653E+04    0.27180E-04   -0.60332E-05  2904   0.617E-03    0.264E-02
RMM:   6    -0.231297745249E+04    0.40410E-05   -0.55436E-05  3190   0.626E-03
  66 F= -.23334124E+04 E0= -.23334124E+04  d E =-.658786E-03  mag=     3.0000
       N       E                     dE             d eps       ncg     rms          rms(c)
DAV:   1    -0.231297646231E+04    0.99422E-03   -0.74663E-02  4496   0.242E-01    0.875E-02
RMM:   2    -0.231297752416E+04   -0.10618E-02   -0.10953E-02  6287   0.528E-02    0.720E-02
RMM:   3    -0.231297757416E+04   -0.50001E-04   -0.99607E-04  3283   0.160E-02    0.535E-02
RMM:   4    -0.231297755282E+04    0.21335E-04   -0.12454E-04  2923   0.547E-03    0.221E-02
RMM:   5    -0.231297754744E+04    0.53807E-05   -0.14369E-05  2855   0.322E-03
  67 F= -.23334125E+04 E0= -.23334125E+04  d E =-.705315E-03  mag=     3.0000
       N       E                     dE             d eps       ncg     rms          rms(c)
DAV:   1    -0.231297284628E+04    0.47065E-02   -0.37769E-01  4432   0.542E-01    0.189E-01
RMM:   2    -0.231297797185E+04   -0.51256E-02   -0.53042E-02  6117   0.112E-01    0.145E-01
RMM:   3    -0.231297827573E+04   -0.30389E-03   -0.50130E-03  4970   0.380E-02    0.113E-01
RMM:   4    -0.231297818672E+04    0.89013E-04   -0.59316E-04  3079   0.965E-03    0.519E-02
RMM:   5    -0.231297815629E+04    0.30426E-04   -0.73194E-05  2936   0.641E-03    0.287E-02
RMM:   6    -0.231297815187E+04    0.44206E-05   -0.64991E-05  3264   0.650E-03
  68 F= -.23334130E+04 E0= -.23334130E+04  d E =-.560125E-03  mag=     3.0000
       N       E                     dE             d eps       ncg     rms          rms(c)
DAV:   1    -0.231297663120E+04    0.15251E-02   -0.10718E-01  4448   0.288E-01    0.103E-01
RMM:   2    -0.231297810747E+04   -0.14763E-02   -0.15219E-02  6287   0.617E-02    0.842E-02
RMM:   3    -0.231297818062E+04   -0.73157E-04   -0.14250E-03  3501   0.190E-02    0.625E-02
RMM:   4    -0.231297815270E+04    0.27926E-04   -0.17293E-04  2939   0.616E-03    0.270E-02
RMM:   5    -0.231297814473E+04    0.79698E-05   -0.21474E-05  2866   0.372E-03
  69 F= -.23334130E+04 E0= -.23334130E+04  d E =-.527700E-03  mag=     3.0000
       N       E                     dE             d eps       ncg     rms          rms(c)
DAV:   1    -0.231297779384E+04    0.35886E-03   -0.27636E-02  4560   0.146E-01    0.520E-02
RMM:   2    -0.231297818246E+04   -0.38862E-03   -0.38850E-03  6003   0.316E-02    0.553E-02
RMM:   3    -0.231297818508E+04   -0.26167E-05   -0.36348E-04  2986   0.110E-02    0.296E-02
RMM:   4    -0.231297817860E+04    0.64762E-05   -0.42345E-05  2875   0.353E-03
  70 F= -.23334131E+04 E0= -.23334131E+04  d E =-.574393E-03  mag=     3.0000
       N       E                     dE             d eps       ncg     rms          rms(c)
DAV:   1    -0.231297270630E+04    0.54788E-02   -0.40247E-01  4432   0.555E-01    0.204E-01
RMM:   2    -0.231297855937E+04   -0.58531E-02   -0.60261E-02  6011   0.117E-01    0.171E-01
RMM:   3    -0.231297884479E+04   -0.28542E-03   -0.57553E-03  5069   0.423E-02    0.122E-01
RMM:   4    -0.231297874117E+04    0.10362E-03   -0.66826E-04  3160   0.102E-02    0.524E-02
RMM:   5    -0.231297870404E+04    0.37133E-04   -0.73652E-05  2958   0.653E-03    0.301E-02
RMM:   6    -0.231297869566E+04    0.83759E-05   -0.74245E-05  3380   0.681E-03
  71 F= -.23334135E+04 E0= -.23334135E+04  d E =-.477518E-03  mag=     3.0000
       N       E                     dE             d eps       ncg     rms          rms(c)
DAV:   1    -0.231297816581E+04    0.53822E-03   -0.34276E-02  4672   0.162E-01    0.609E-02
RMM:   2    -0.231297866959E+04   -0.50377E-03   -0.52084E-03  6161   0.366E-02    0.503E-02
RMM:   3    -0.231297869549E+04   -0.25904E-04   -0.49917E-04  3007   0.119E-02    0.376E-02
RMM:   4    -0.231297868540E+04    0.10090E-04   -0.60531E-05  2891   0.417E-03    0.158E-02
RMM:   5    -0.231297868253E+04    0.28679E-05   -0.83374E-06  2843   0.231E-03
  72 F= -.23334135E+04 E0= -.23334135E+04  d E =-.451960E-03  mag=     3.0000
       N       E                     dE             d eps       ncg     rms          rms(c)
DAV:   1    -0.231297315302E+04    0.55324E-02   -0.36623E-01  4432   0.517E-01    0.191E-01
RMM:   2    -0.231297884349E+04   -0.56905E-02   -0.58897E-02  6146   0.111E-01    0.150E-01
RMM:   3    -0.231297919265E+04   -0.34916E-03   -0.57268E-03  4727   0.382E-02    0.111E-01
RMM:   4    -0.231297912055E+04    0.72101E-04   -0.65521E-04  3057   0.947E-03    0.534E-02
RMM:   5    -0.231297908667E+04    0.33881E-04   -0.71252E-05  2927   0.583E-03    0.314E-02
RMM:   6    -0.231297907905E+04    0.76123E-05   -0.71766E-05  3237   0.610E-03
  73 F= -.23334139E+04 E0= -.23334139E+04  d E =-.407004E-03  mag=     3.0000
       N       E                     dE             d eps       ncg     rms          rms(c)
DAV:   1    -0.231297805384E+04    0.10328E-02   -0.64041E-02  4512   0.216E-01    0.820E-02
RMM:   2    -0.231297906424E+04   -0.10104E-02   -0.10442E-02  6282   0.482E-02    0.684E-02
RMM:   3    -0.231297911805E+04   -0.53803E-04   -0.10058E-03  3114   0.151E-02    0.502E-02
RMM:   4    -0.231297910180E+04    0.16244E-04   -0.11919E-04  2917   0.505E-03    0.216E-02
RMM:   5    -0.231297909671E+04    0.50897E-05   -0.13819E-05  2856   0.272E-03
  74 F= -.23334139E+04 E0= -.23334139E+04  d E =-.427891E-03  mag=     3.0000
       N       E                     dE             d eps       ncg     rms          rms(c)
DAV:   1    -0.231297595950E+04    0.31423E-02   -0.22790E-01  4432   0.423E-01    0.159E-01
RMM:   2    -0.231297939282E+04   -0.34333E-02   -0.35925E-02  6061   0.915E-02    0.104E-01
RMM:   3    -0.231297963862E+04   -0.24580E-03   -0.35679E-03  4397   0.325E-02    0.876E-02
RMM:   4    -0.231297959606E+04    0.42567E-04   -0.40863E-04  3005   0.834E-03    0.450E-02
RMM:   5    -0.231297957439E+04    0.21665E-04   -0.56967E-05  2894   0.559E-03    0.256E-02
RMM:   6    -0.231297957007E+04    0.43181E-05   -0.43363E-05  3072   0.546E-03
  75 F= -.23334144E+04 E0= -.23334144E+04  d E =-.496519E-03  mag=     3.0000
       N       E                     dE             d eps       ncg     rms          rms(c)
DAV:   1    -0.231297917102E+04    0.40338E-03   -0.25203E-02  4672   0.140E-01    0.543E-02
RMM:   2    -0.231297955734E+04   -0.38632E-03   -0.40350E-03  6079   0.321E-02    0.379E-02
RMM:   3    -0.231297958465E+04   -0.27316E-04   -0.39952E-04  2962   0.110E-02    0.337E-02
RMM:   4    -0.231297957716E+04    0.74959E-05   -0.48528E-05  2893   0.364E-03
  76 F= -.23334144E+04 E0= -.23334144E+04  d E =-.510857E-03  mag=     3.0000
       N       E                     dE             d eps       ncg     rms          rms(c)
DAV:   1    -0.231297637994E+04    0.32047E-02   -0.22277E-01  4432   0.411E-01    0.155E-01
RMM:   2    -0.231297986986E+04   -0.34899E-02   -0.36031E-02  6048   0.884E-02    0.114E-01
RMM:   3    -0.231298008600E+04   -0.21614E-03   -0.34419E-03  4284   0.307E-02    0.922E-02
RMM:   4    -0.231298003469E+04    0.51318E-04   -0.40781E-04  3005   0.821E-03    0.453E-02
RMM:   5    -0.231298001226E+04    0.22428E-04   -0.56960E-05  2917   0.539E-03    0.245E-02
RMM:   6    -0.231298000944E+04    0.28154E-05   -0.38371E-05  3048   0.524E-03
  77 F= -.23334149E+04 E0= -.23334149E+04  d E =-.419409E-03  mag=     3.0000
       N       E                     dE             d eps       ncg     rms          rms(c)
DAV:   1    -0.231297905781E+04    0.95445E-03   -0.60531E-02  4472   0.214E-01    0.826E-02
RMM:   2    -0.231298000971E+04   -0.95190E-03   -0.98972E-03  6269   0.474E-02    0.584E-02
RMM:   3    -0.231298007185E+04   -0.62138E-04   -0.95120E-04  3139   0.153E-02    0.501E-02
RMM:   4    -0.231298005604E+04    0.15811E-04   -0.11418E-04  2923   0.491E-03    0.224E-02
RMM:   5    -0.231298005092E+04    0.51159E-05   -0.14914E-05  2863   0.289E-03
  78 F= -.23334149E+04 E0= -.23334149E+04  d E =-.453393E-03  mag=     3.0000
       N       E                     dE             d eps       ncg     rms          rms(c)
DAV:   1    -0.231297686561E+04    0.31904E-02   -0.24704E-01  4432   0.430E-01    0.161E-01
RMM:   2    -0.231298025740E+04   -0.33918E-02   -0.35562E-02  6010   0.918E-02    0.987E-02
RMM:   3    -0.231298046893E+04   -0.21153E-03   -0.31330E-03  4336   0.321E-02    0.861E-02
RMM:   4    -0.231298042778E+04    0.41146E-04   -0.39008E-04  2978   0.829E-03    0.474E-02
RMM:   5    -0.231298040065E+04    0.27136E-04   -0.67399E-05  2939   0.579E-03    0.252E-02
RMM:   6    -0.231298039529E+04    0.53577E-05   -0.44446E-05  3059   0.558E-03
  79 F= -.23334153E+04 E0= -.23334153E+04  d E =-.354041E-03  mag=     3.0000
       N       E                     dE             d eps       ncg     rms          rms(c)
DAV:   1    -0.231298038837E+04    0.12281E-04   -0.21990E-04  5136   0.137E-02    0.747E-03
RMM:   2    -0.231298039191E+04   -0.35488E-05   -0.37927E-05  2894   0.345E-03
  80 F= -.23334152E+04 E0= -.23334152E+04  d E =-.350924E-03  mag=     3.0000
       N       E                     dE             d eps       ncg     rms          rms(c)
DAV:   1    -0.231297860813E+04    0.17802E-02   -0.16633E-01  4432   0.337E-01    0.123E-01
RMM:   2    -0.231298058084E+04   -0.19727E-02   -0.20553E-02  6031   0.702E-02    0.790E-02
RMM:   3    -0.231298068863E+04   -0.10778E-03   -0.17240E-03  3815   0.240E-02    0.716E-02
RMM:   4    -0.231298065647E+04    0.32160E-04   -0.22752E-04  2943   0.679E-03    0.371E-02
RMM:   5    -0.231298063801E+04    0.18461E-04   -0.47352E-05  2926   0.483E-03    0.188E-02
RMM:   6    -0.231298063551E+04    0.24991E-05   -0.24336E-05  2946   0.453E-03
  81 F= -.23334155E+04 E0= -.23334155E+04  d E =-.297363E-03  mag=     3.0000
       N       E                     dE             d eps       ncg     rms          rms(c)
DAV:   1    -0.231298031969E+04    0.31831E-03   -0.24135E-02  4528   0.128E-01    0.476E-02
RMM:   2    -0.231298060766E+04   -0.28797E-03   -0.30224E-03  5905   0.279E-02    0.288E-02
RMM:   3    -0.231298062482E+04   -0.17162E-04   -0.25267E-04  2939   0.945E-03    0.288E-02
RMM:   4    -0.231298061931E+04    0.55172E-05   -0.34432E-05  2875   0.315E-03
  82 F= -.23334155E+04 E0= -.23334155E+04  d E =-.301564E-03  mag=     3.0000
       N       E                     dE             d eps       ncg     rms          rms(c)
DAV:   1    -0.231297943429E+04    0.11905E-02   -0.12940E-01  4432   0.298E-01    0.103E-01
RMM:   2    -0.231298082162E+04   -0.13873E-02   -0.14528E-02  5990   0.609E-02    0.574E-02
RMM:   3    -0.231298090004E+04   -0.78418E-04   -0.12216E-03  3517   0.208E-02    0.489E-02
RMM:   4    -0.231298089448E+04    0.55559E-05   -0.16021E-04  2940   0.579E-03    0.359E-02
RMM:   5    -0.231298088093E+04    0.13549E-04   -0.38900E-05  2904   0.441E-03    0.162E-02
RMM:   6    -0.231298087988E+04    0.10510E-05   -0.13766E-05  2909   0.375E-03
  83 F= -.23334158E+04 E0= -.23334158E+04  d E =-.285110E-03  mag=     3.0000
       N       E                     dE             d eps       ncg     rms          rms(c)
DAV:   1    -0.231297968339E+04    0.11975E-02   -0.10884E-01  4432   0.273E-01    0.957E-02
RMM:   2    -0.231298085477E+04   -0.11714E-02   -0.12323E-02  5976   0.554E-02    0.499E-02
RMM:   3    -0.231298091780E+04   -0.63028E-04   -0.10251E-03  3554   0.202E-02    0.397E-02
RMM:   4    -0.231298091706E+04    0.73778E-06   -0.13116E-04  2916   0.524E-03    0.317E-02
RMM:   5    -0.231298090726E+04    0.98032E-05   -0.29189E-05  2886   0.384E-03
  84 F= -.23334159E+04 E0= -.23334159E+04  d E =-.334593E-03  mag=     3.0000
       N       E                     dE             d eps       ncg     rms          rms(c)
DAV:   1    -0.231297978132E+04    0.11357E-02   -0.12272E-01  4432   0.285E-01    0.101E-01
RMM:   2    -0.231298114225E+04   -0.13609E-02   -0.14424E-02  6178   0.605E-02    0.514E-02
RMM:   3    -0.231298121854E+04   -0.76288E-04   -0.12079E-03  3449   0.193E-02    0.360E-02
RMM:   4    -0.231298122225E+04   -0.37130E-05   -0.14765E-04  2924   0.521E-03    0.310E-02
RMM:   5    -0.231298121624E+04    0.60055E-05   -0.31827E-05  2876   0.385E-03
  85 F= -.23334162E+04 E0= -.23334162E+04  d E =-.297658E-03  mag=     3.0000
       N       E                     dE             d eps       ncg     rms          rms(c)
DAV:   1    -0.231297970819E+04    0.15141E-02   -0.13556E-01  4432   0.300E-01    0.106E-01
RMM:   2    -0.231298121015E+04   -0.15020E-02   -0.15939E-02  6153   0.632E-02    0.531E-02
RMM:   3    -0.231298129513E+04   -0.84985E-04   -0.13641E-03  3519   0.205E-02    0.343E-02
RMM:   4    -0.231298129526E+04   -0.12963E-06   -0.15509E-04  2930   0.534E-03    0.220E-02
RMM:   5    -0.231298129543E+04   -0.16720E-06   -0.27103E-05  2910   0.395E-03
  86 F= -.23334162E+04 E0= -.23334162E+04  d E =-.364463E-03  mag=     3.0000
       N       E                     dE             d eps       ncg     rms          rms(c)
DAV:   1    -0.231297946824E+04    0.18270E-02   -0.16227E-01  4416   0.330E-01    0.120E-01
RMM:   2    -0.231298146984E+04   -0.20016E-02   -0.20883E-02  6175   0.710E-02    0.760E-02
RMM:   3    -0.231298158736E+04   -0.11753E-03   -0.16910E-03  3764   0.230E-02    0.771E-02
RMM:   4    -0.231298154867E+04    0.38696E-04   -0.22699E-04  2954   0.674E-03    0.353E-02
RMM:   5    -0.231298153262E+04    0.16048E-04   -0.43796E-05  2943   0.452E-03    0.162E-02
RMM:   6    -0.231298153186E+04    0.75679E-06   -0.16843E-05  2897   0.416E-03
  87 F= -.23334166E+04 E0= -.23334166E+04  d E =-.307116E-03  mag=     3.0000
       N       E                     dE             d eps       ncg     rms          rms(c)
DAV:   1    -0.231298013012E+04    0.14025E-02   -0.10814E-01  4432   0.269E-01    0.979E-02
RMM:   2    -0.231298146707E+04   -0.13369E-02   -0.13992E-02  6191   0.574E-02    0.578E-02
RMM:   3    -0.231298153807E+04   -0.71000E-04   -0.11183E-03  3379   0.178E-02    0.547E-02
RMM:   4    -0.231298152284E+04    0.15236E-04   -0.14784E-04  2913   0.542E-03    0.292E-02
RMM:   5    -0.231298151251E+04    0.10327E-04   -0.26251E-05  2896   0.363E-03    0.148E-02
RMM:   6    -0.231298151144E+04    0.10709E-05   -0.14538E-05  2910   0.338E-03
  88 F= -.23334166E+04 E0= -.23334166E+04  d E =-.343746E-03  mag=     3.0000
       N       E                     dE             d eps       ncg     rms          rms(c)
DAV:   1    -0.231297962851E+04    0.18840E-02   -0.14775E-01  4416   0.303E-01    0.113E-01
RMM:   2    -0.231298162896E+04   -0.20004E-02   -0.20826E-02  6201   0.657E-02    0.724E-02
RMM:   3    -0.231298173749E+04   -0.10854E-03   -0.16653E-03  3534   0.217E-02    0.667E-02
RMM:   4    -0.231298171329E+04    0.24201E-04   -0.21582E-04  2941   0.620E-03    0.345E-02
RMM:   5    -0.231298169811E+04    0.15180E-04   -0.37569E-05  2915   0.395E-03    0.179E-02
RMM:   6    -0.231298169601E+04    0.21020E-05   -0.22915E-05  2936   0.383E-03
  89 F= -.23334169E+04 E0= -.23334169E+04  d E =-.287613E-03  mag=     3.0000
       N       E                     dE             d eps       ncg     rms          rms(c)
DAV:   1    -0.231297952933E+04    0.21688E-02   -0.15284E-01  4416   0.308E-01    0.115E-01
RMM:   2    -0.231298160401E+04   -0.20747E-02   -0.21613E-02  6205   0.666E-02    0.743E-02
RMM:   3    -0.231298171198E+04   -0.10796E-03   -0.16977E-03  3530   0.215E-02    0.695E-02
RMM:   4    -0.231298168502E+04    0.26960E-04   -0.22301E-04  2942   0.626E-03    0.349E-02
RMM:   5    -0.231298166909E+04    0.15927E-04   -0.38994E-05  2918   0.397E-03    0.180E-02
RMM:   6    -0.231298166666E+04    0.24287E-05   -0.22961E-05  2936   0.387E-03
  90 F= -.23334170E+04 E0= -.23334170E+04  d E =-.362533E-03  mag=     3.0000
       N       E                     dE             d eps       ncg     rms          rms(c)
DAV:   1    -0.231297998535E+04    0.16837E-02   -0.13786E-01  4416   0.309E-01    0.117E-01
RMM:   2    -0.231298184011E+04   -0.18548E-02   -0.19444E-02  6116   0.665E-02    0.688E-02
RMM:   3    -0.231298194250E+04   -0.10239E-03   -0.15180E-03  3716   0.229E-02    0.668E-02
RMM:   4    -0.231298191745E+04    0.25047E-04   -0.20750E-04  2938   0.642E-03    0.340E-02
RMM:   5    -0.231298190317E+04    0.14285E-04   -0.37337E-05  2903   0.435E-03    0.167E-02
RMM:   6    -0.231298190178E+04    0.13849E-05   -0.18852E-05  2922   0.416E-03
  91 F= -.23334173E+04 E0= -.23334173E+04  d E =-.313002E-03  mag=     3.0000
       N       E                     dE             d eps       ncg     rms          rms(c)
DAV:   1    -0.231298120392E+04    0.69925E-03   -0.49081E-02  4520   0.184E-01    0.701E-02
RMM:   2    -0.231298186917E+04   -0.66525E-03   -0.69727E-03  6133   0.403E-02    0.410E-02
RMM:   3    -0.231298190590E+04   -0.36723E-04   -0.54643E-04  3109   0.135E-02    0.401E-02
RMM:   4    -0.231298189682E+04    0.90774E-05   -0.75259E-05  2899   0.415E-03
  92 F= -.23334173E+04 E0= -.23334173E+04  d E =-.354397E-03  mag=     3.0000
       N       E                     dE             d eps       ncg     rms          rms(c)
DAV:   1    -0.231298050703E+04    0.13989E-02   -0.12577E-01  4416   0.296E-01    0.106E-01
RMM:   2    -0.231298206566E+04   -0.15586E-02   -0.16185E-02  6071   0.617E-02    0.652E-02
RMM:   3    -0.231298214787E+04   -0.82208E-04   -0.12660E-03  3555   0.207E-02    0.612E-02
RMM:   4    -0.231298212882E+04    0.19048E-04   -0.17598E-04  2943   0.600E-03    0.357E-02
RMM:   5    -0.231298211486E+04    0.13962E-04   -0.41679E-05  2926   0.448E-03    0.149E-02
RMM:   6    -0.231298211468E+04    0.17619E-06   -0.13989E-05  2903   0.388E-03
  93 F= -.23334176E+04 E0= -.23334176E+04  d E =-.292711E-03  mag=     3.0000
       N       E                     dE             d eps       ncg     rms          rms(c)
DAV:   1    -0.231298102073E+04    0.10941E-02   -0.83808E-02  4448   0.241E-01    0.881E-02
RMM:   2    -0.231298205968E+04   -0.10389E-02   -0.10877E-02  6028   0.503E-02    0.490E-02
RMM:   3    -0.231298211565E+04   -0.55974E-04   -0.85419E-04  3408   0.177E-02    0.443E-02
RMM:   4    -0.231298210825E+04    0.74078E-05   -0.11524E-04  2911   0.488E-03    0.275E-02
RMM:   5    -0.231298210012E+04    0.81218E-05   -0.21461E-05  2881   0.339E-03
  94 F= -.23334176E+04 E0= -.23334176E+04  d E =-.338911E-03  mag=     3.0000
       N       E                     dE             d eps       ncg     rms          rms(c)
DAV:   1    -0.231298116633E+04    0.94192E-03   -0.97821E-02  4416   0.252E-01    0.898E-02
RMM:   2    -0.231298225399E+04   -0.10877E-02   -0.11388E-02  6117   0.526E-02    0.469E-02
RMM:   3    -0.231298230710E+04   -0.53112E-04   -0.90085E-04  3276   0.170E-02    0.319E-02
RMM:   4    -0.231298230986E+04   -0.27588E-05   -0.11760E-04  2926   0.470E-03    0.285E-02
RMM:   5    -0.231298230522E+04    0.46401E-05   -0.27262E-05  2873   0.352E-03
  95 F= -.23334179E+04 E0= -.23334179E+04  d E =-.259923E-03  mag=     3.0000
       N       E                     dE             d eps       ncg     rms          rms(c)
DAV:   1    -0.231297889650E+04    0.34134E-02   -0.29340E-01  4416   0.436E-01    0.154E-01
RMM:   2    -0.231298215788E+04   -0.32614E-02   -0.34074E-02  6089   0.897E-02    0.837E-02
RMM:   3    -0.231298232360E+04   -0.16572E-03   -0.27620E-03  4107   0.290E-02    0.604E-02
RMM:   4    -0.231298232940E+04   -0.58025E-05   -0.35266E-04  2986   0.756E-03    0.515E-02
RMM:   5    -0.231298231008E+04    0.19327E-04   -0.79096E-05  2927   0.580E-03    0.320E-02
RMM:   6    -0.231298230340E+04    0.66737E-05   -0.38957E-05  2979   0.508E-03
  96 F= -.23334180E+04 E0= -.23334180E+04  d E =-.352340E-03  mag=     3.0000
       N       E                     dE             d eps       ncg     rms          rms(c)
DAV:   1    -0.231298143721E+04    0.87287E-03   -0.10111E-01  4416   0.248E-01    0.866E-02
RMM:   2    -0.231298249004E+04   -0.10528E-02   -0.11031E-02  6216   0.510E-02    0.478E-02
RMM:   3    -0.231298253697E+04   -0.46935E-04   -0.82103E-04  3147   0.150E-02    0.392E-02
RMM:   4    -0.231298253530E+04    0.16699E-05   -0.11660E-04  2921   0.472E-03    0.301E-02
RMM:   5    -0.231298252642E+04    0.88799E-05   -0.21483E-05  2881   0.322E-03
  97 F= -.23334183E+04 E0= -.23334183E+04  d E =-.260380E-03  mag=     3.0000
       N       E                     dE             d eps       ncg     rms          rms(c)
DAV:   1    -0.231297837513E+04    0.41602E-02   -0.39693E-01  4416   0.491E-01    0.170E-01
RMM:   2    -0.231298248013E+04   -0.41050E-02   -0.42846E-02  6069   0.996E-02    0.971E-02
RMM:   3    -0.231298268473E+04   -0.20460E-03   -0.33872E-03  4299   0.317E-02    0.752E-02
RMM:   4    -0.231298268245E+04    0.22750E-05   -0.44974E-04  3001   0.830E-03    0.587E-02
RMM:   5    -0.231298265192E+04    0.30533E-04   -0.90708E-05  2955   0.613E-03    0.325E-02
RMM:   6    -0.231298264586E+04    0.60546E-05   -0.52134E-05  3034   0.556E-03
  98 F= -.23334185E+04 E0= -.23334185E+04  d E =-.453724E-03  mag=     3.0000
       N       E                     dE             d eps       ncg     rms          rms(c)
DAV:   1    -0.231298190952E+04    0.74240E-03   -0.12564E-01  4416   0.289E-01    0.103E-01
RMM:   2    -0.231298302233E+04   -0.11128E-02   -0.11787E-02  6121   0.579E-02    0.529E-02
RMM:   3    -0.231298306095E+04   -0.38622E-04   -0.84203E-04  3482   0.180E-02    0.462E-02
RMM:   4    -0.231298305380E+04    0.71489E-05   -0.12412E-04  2922   0.547E-03    0.338E-02
RMM:   5    -0.231298304176E+04    0.12040E-04   -0.30972E-05  2909   0.420E-03    0.134E-02
RMM:   6    -0.231298304102E+04    0.74628E-06   -0.11486E-05  2912   0.373E-03
  99 F= -.23334189E+04 E0= -.23334189E+04  d E =-.407184E-03  mag=     3.0000
       N       E                     dE             d eps       ncg     rms          rms(c)
DAV:   1    -0.231298194716E+04    0.10946E-02   -0.13295E-01  4416   0.297E-01    0.105E-01
RMM:   2    -0.231298312198E+04   -0.11748E-02   -0.12382E-02  6048   0.585E-02    0.557E-02
RMM:   3    -0.231298316643E+04   -0.44450E-04   -0.92028E-04  3607   0.203E-02    0.486E-02
RMM:   4    -0.231298315764E+04    0.87927E-05   -0.13271E-04  2919   0.568E-03    0.341E-02
RMM:   5    -0.231298314444E+04    0.13202E-04   -0.33392E-05  2907   0.445E-03    0.148E-02
RMM:   6    -0.231298314290E+04    0.15369E-05   -0.13687E-05  2914   0.391E-03
 100 F= -.23334190E+04 E0= -.23334190E+04  d E =-.521442E-03  mag=     3.0000
       N       E                     dE             d eps       ncg     rms          rms(c)
DAV:   1    -0.231298256005E+04    0.58439E-03   -0.10235E-01  4448   0.255E-01    0.861E-02
RMM:   2    -0.231298340130E+04   -0.84125E-03   -0.88100E-03  6094   0.494E-02    0.482E-02
RMM:   3    -0.231298342607E+04   -0.24770E-04   -0.64764E-04  3318   0.161E-02    0.399E-02
RMM:   4    -0.231298342203E+04    0.40430E-05   -0.94348E-05  2913   0.495E-03
 101 F= -.23334193E+04 E0= -.23334193E+04  d E =-.290606E-03  mag=     3.0000
       N       E                     dE             d eps       ncg     rms          rms(c)
DAV:   1    -0.231298271570E+04    0.71037E-03   -0.93344E-02  4432   0.243E-01    0.833E-02
RMM:   2    -0.231298348325E+04   -0.76755E-03   -0.79672E-03  6063   0.467E-02    0.571E-02
RMM:   3    -0.231298351493E+04   -0.31683E-04   -0.63765E-04  3340   0.161E-02    0.585E-02
RMM:   4    -0.231298349060E+04    0.24331E-04   -0.93832E-05  2939   0.520E-03    0.289E-02
RMM:   5    -0.231298348223E+04    0.83684E-05   -0.32700E-05  2930   0.423E-03
 102 F= -.23334193E+04 E0= -.23334193E+04  d E =-.361867E-03  mag=     3.0000
       N       E                     dE             d eps       ncg     rms          rms(c)
DAV:   1    -0.231298276592E+04    0.72469E-03   -0.11774E-01  4416   0.288E-01    0.102E-01
RMM:   2    -0.231298371020E+04   -0.94429E-03   -0.10031E-02  6044   0.568E-02    0.513E-02
RMM:   3    -0.231298373840E+04   -0.28198E-04   -0.74670E-04  3597   0.191E-02    0.430E-02
RMM:   4    -0.231298373439E+04    0.40072E-05   -0.11402E-04  2930   0.550E-03    0.338E-02
RMM:   5    -0.231298372275E+04    0.11647E-04   -0.30221E-05  2881   0.447E-03    0.139E-02
RMM:   6    -0.231298372187E+04    0.87271E-06   -0.11499E-05  2890   0.386E-03
 103 F= -.23334196E+04 E0= -.23334196E+04  d E =-.276718E-03  mag=     3.0000
       N       E                     dE             d eps       ncg     rms          rms(c)
DAV:   1    -0.231298361174E+04    0.11101E-03   -0.12903E-02  4832   0.950E-02    0.340E-02
RMM:   2    -0.231298371672E+04   -0.10498E-03   -0.11163E-03  5266   0.195E-02    0.162E-02
RMM:   3    -0.231298371908E+04   -0.23617E-05   -0.82471E-05  2883   0.727E-03
 104 F= -.23334196E+04 E0= -.23334196E+04  d E =-.286194E-03  mag=     3.0000
       N       E                     dE             d eps       ncg     rms          rms(c)
DAV:   1    -0.231298308867E+04    0.62805E-03   -0.86265E-02  4416   0.251E-01    0.872E-02
RMM:   2    -0.231298385649E+04   -0.76782E-03   -0.81066E-03  5943   0.489E-02    0.461E-02
RMM:   3    -0.231298388480E+04   -0.28319E-04   -0.66219E-04  3314   0.162E-02    0.347E-02
RMM:   4    -0.231298388950E+04   -0.46921E-05   -0.10058E-04  2907   0.511E-03    0.370E-02
[...]
RMM:   5    -0.231303407077E+04    0.19769E-03   -0.33549E-04  3450   0.997E-03    0.681E-02
RMM:   6    -0.231303402266E+04    0.48108E-04   -0.28107E-04  4154   0.986E-03    0.157E-02
RMM:   7    -0.231303402370E+04   -0.10453E-05   -0.25894E-05  2880   0.661E-03
 376 F= -.23334665E+04 E0= -.23334665E+04  d E =-.178190E-02  mag=     3.0000
       N       E                     dE             d eps       ncg     rms          rms(c)
DAV:   1    -0.231296486371E+04    0.69159E-01   -0.55018E+00  4432   0.175E+00    0.611E-01
RMM:   2    -0.231303117206E+04   -0.66308E-01   -0.71024E-01  6258   0.365E-01    0.334E-01
RMM:   3    -0.231303617569E+04   -0.50036E-02   -0.63314E-02  5857   0.126E-01    0.258E-01
RMM:   4    -0.231303633881E+04   -0.16311E-03   -0.72240E-03  5126   0.266E-02    0.224E-01
RMM:   5    -0.231303582535E+04    0.51346E-03   -0.89353E-04  4310   0.141E-02    0.125E-01
RMM:   6    -0.231303563757E+04    0.18778E-03   -0.84733E-04  4792   0.150E-02    0.312E-02
RMM:   7    -0.231303563717E+04    0.39904E-06   -0.10118E-04  2978   0.108E-02    0.229E-02
RMM:   8    -0.231303563368E+04    0.34923E-05   -0.23205E-05  2909   0.348E-03
 377 F= -.23334676E+04 E0= -.23334676E+04  d E =-.281164E-02  mag=     3.0000
       N       E                     dE             d eps       ncg     rms          rms(c)
DAV:   1    -0.231300154719E+04    0.34090E-01   -0.28891E+00  4416   0.126E+00    0.444E-01
RMM:   2    -0.231303617916E+04   -0.34632E-01   -0.37052E-01  6221   0.263E-01    0.241E-01
RMM:   3    -0.231303867259E+04   -0.24934E-02   -0.31472E-02  5762   0.897E-02    0.193E-01
RMM:   4    -0.231303872095E+04   -0.48366E-04   -0.37696E-03  4226   0.193E-02    0.157E-01
RMM:   5    -0.231303844533E+04    0.27563E-03   -0.48647E-04  3807   0.114E-02    0.844E-02
RMM:   6    -0.231303836489E+04    0.80436E-04   -0.42215E-04  4441   0.115E-02    0.202E-02
RMM:   7    -0.231303836627E+04   -0.13841E-05   -0.38325E-05  2897   0.765E-03
 378 F= -.23334698E+04 E0= -.23334698E+04  d E =-.220932E-02  mag=     3.0000
       N       E                     dE             d eps       ncg     rms          rms(c)
DAV:   1    -0.231296110914E+04    0.77256E-01   -0.61704E+00  4416   0.184E+00    0.649E-01
RMM:   2    -0.231303499008E+04   -0.73881E-01   -0.79118E-01  6239   0.383E-01    0.359E-01
RMM:   3    -0.231304062380E+04   -0.56337E-02   -0.70993E-02  5909   0.133E-01    0.290E-01
RMM:   4    -0.231304069880E+04   -0.75006E-04   -0.81224E-03  5346   0.284E-02    0.234E-01
RMM:   5    -0.231304013492E+04    0.56388E-03   -0.10091E-03  4449   0.148E-02    0.132E-01
RMM:   6    -0.231303991877E+04    0.21615E-03   -0.96309E-04  4901   0.158E-02    0.333E-02
RMM:   7    -0.231303991772E+04    0.10495E-05   -0.11069E-04  3022   0.108E-02    0.245E-02
RMM:   8    -0.231303991240E+04    0.53238E-05   -0.26449E-05  2899   0.365E-03
 379 F= -.23334706E+04 E0= -.23334706E+04  d E =-.300344E-02  mag=     3.0000
       N       E                     dE             d eps       ncg     rms          rms(c)
DAV:   1    -0.231300238141E+04    0.37536E-01   -0.31261E+00  4416   0.128E+00    0.455E-01
RMM:   2    -0.231303990843E+04   -0.37527E-01   -0.40080E-01  6286   0.269E-01    0.255E-01
RMM:   3    -0.231304264366E+04   -0.27352E-02   -0.34197E-02  5771   0.914E-02    0.207E-01
RMM:   4    -0.231304267123E+04   -0.27579E-04   -0.40767E-03  4120   0.198E-02    0.162E-01
RMM:   5    -0.231304238484E+04    0.28639E-03   -0.50926E-04  3746   0.114E-02    0.894E-02
RMM:   6    -0.231304229489E+04    0.89952E-04   -0.46919E-04  4434   0.117E-02    0.218E-02
RMM:   7    -0.231304229680E+04   -0.19123E-05   -0.45957E-05  2901   0.784E-03
 380 F= -.23334724E+04 E0= -.23334724E+04  d E =-.187571E-02  mag=     3.0000
       N       E                     dE             d eps       ncg     rms          rms(c)
DAV:   1    -0.231294138022E+04    0.10091E+00   -0.80058E+00  4416   0.206E+00    0.728E-01
RMM:   2    -0.231303737619E+04   -0.95996E-01   -0.10264E+00  6314   0.431E-01    0.416E-01
RMM:   3    -0.231304489606E+04   -0.75199E-02   -0.93852E-02  5961   0.150E-01    0.339E-01
RMM:   4    -0.231304493134E+04   -0.35284E-04   -0.10552E-02  5459   0.320E-02    0.265E-01
RMM:   5    -0.231304423849E+04    0.69285E-03   -0.12837E-03  4461   0.159E-02    0.156E-01
RMM:   6    -0.231304394240E+04    0.29610E-03   -0.12740E-03  4930   0.175E-02    0.405E-02
RMM:   7    -0.231304394400E+04   -0.16019E-05   -0.15494E-04  3113   0.123E-02    0.297E-02
RMM:   8    -0.231304393737E+04    0.66259E-05   -0.36010E-05  2912   0.399E-03
 381 F= -.23334733E+04 E0= -.23334733E+04  d E =-.272340E-02  mag=     3.0000
       N       E                     dE             d eps       ncg     rms          rms(c)
DAV:   1    -0.231300204820E+04    0.41896E-01   -0.36553E+00  4432   0.142E+00    0.503E-01
RMM:   2    -0.231304447126E+04   -0.42423E-01   -0.45380E-01  6162   0.297E-01    0.274E-01
RMM:   3    -0.231304748819E+04   -0.30169E-02   -0.38812E-02  5834   0.103E-01    0.218E-01
RMM:   4    -0.231304754080E+04   -0.52607E-04   -0.46289E-03  4788   0.221E-02    0.179E-01
RMM:   5    -0.231304719308E+04    0.34772E-03   -0.65651E-04  4183   0.130E-02    0.972E-02
RMM:   6    -0.231304708089E+04    0.11219E-03   -0.52890E-04  4717   0.128E-02    0.238E-02
RMM:   7    -0.231304708198E+04   -0.10957E-05   -0.57650E-05  2909   0.867E-03
 382 F= -.23334760E+04 E0= -.23334760E+04  d E =-.273936E-02  mag=     3.0000
       N       E                     dE             d eps       ncg     rms          rms(c)
DAV:   1    -0.231301986659E+04    0.27214E-01   -0.22640E+00  4448   0.112E+00    0.398E-01
RMM:   2    -0.231304617488E+04   -0.26308E-01   -0.28175E-01  6194   0.234E-01    0.214E-01
RMM:   3    -0.231304801785E+04   -0.18430E-02   -0.23580E-02  5732   0.807E-02    0.171E-01
RMM:   4    -0.231304804951E+04   -0.31659E-04   -0.28747E-03  4031   0.176E-02    0.141E-01
RMM:   5    -0.231304782373E+04    0.22578E-03   -0.40437E-04  3796   0.109E-02    0.728E-02
RMM:   6    -0.231304776159E+04    0.62147E-04   -0.31286E-04  4363   0.106E-02    0.177E-02
RMM:   7    -0.231304776191E+04   -0.32733E-06   -0.32884E-05  2894   0.731E-03
 383 F= -.23334764E+04 E0= -.23334764E+04  d E =-.310899E-02  mag=     3.0000
       N       E                     dE             d eps       ncg     rms          rms(c)
DAV:   1    -0.231301947209E+04    0.28289E-01   -0.25299E+00  4432   0.118E+00    0.416E-01
RMM:   2    -0.231304809391E+04   -0.28622E-01   -0.30604E-01  6177   0.246E-01    0.218E-01
RMM:   3    -0.231305004330E+04   -0.19494E-02   -0.25574E-02  5721   0.849E-02    0.153E-01
RMM:   4    -0.231305016428E+04   -0.12098E-03   -0.30935E-03  4310   0.183E-02    0.151E-01
RMM:   5    -0.231304993544E+04    0.22883E-03   -0.47984E-04  3762   0.114E-02    0.830E-02
RMM:   6    -0.231304986297E+04    0.72471E-04   -0.34200E-04  4340   0.106E-02    0.186E-02
RMM:   7    -0.231304986383E+04   -0.85664E-06   -0.36059E-05  2890   0.761E-03
 384 F= -.23334782E+04 E0= -.23334782E+04  d E =-.183379E-02  mag=     3.0000
       N       E                     dE             d eps       ncg     rms          rms(c)
DAV:   1    -0.231303898106E+04    0.10882E-01   -0.93547E-01  4480   0.715E-01    0.254E-01
RMM:   2    -0.231304957824E+04   -0.10597E-01   -0.11340E-01  6147   0.150E-01    0.131E-01
RMM:   3    -0.231305028521E+04   -0.70697E-03   -0.92381E-03  5288   0.519E-02    0.928E-02
RMM:   4    -0.231305033088E+04   -0.45671E-04   -0.11442E-03  3199   0.115E-02    0.929E-02
RMM:   5    -0.231305023898E+04    0.91905E-04   -0.18216E-04  3101   0.776E-03    0.467E-02
RMM:   6    -0.231305021796E+04    0.21016E-04   -0.11886E-04  3460   0.718E-03    0.108E-02
RMM:   7    -0.231305021827E+04   -0.31159E-06   -0.13651E-05  2857   0.529E-03
 385 F= -.23334784E+04 E0= -.23334784E+04  d E =-.202885E-02  mag=     3.0000
       N       E                     dE             d eps       ncg     rms          rms(c)
DAV:   1    -0.231303483539E+04    0.15383E-01   -0.15271E+00  4448   0.939E-01    0.335E-01
RMM:   2    -0.231305110219E+04   -0.16267E-01   -0.17407E-01  6089   0.194E-01    0.167E-01
RMM:   3    -0.231305210890E+04   -0.10067E-02   -0.14282E-02  5541   0.687E-02    0.111E-01
RMM:   4    -0.231305216577E+04   -0.56872E-04   -0.17469E-03  4254   0.154E-02    0.115E-01
RMM:   5    -0.231305204041E+04    0.12536E-03   -0.33416E-04  3675   0.106E-02    0.662E-02
RMM:   6    -0.231305199493E+04    0.45480E-04   -0.17447E-04  4078   0.855E-03    0.140E-02
RMM:   7    -0.231305199343E+04    0.15018E-05   -0.17438E-05  2876   0.591E-03
 386 F= -.23334800E+04 E0= -.23334800E+04  d E =-.157124E-02  mag=     3.0000
       N       E                     dE             d eps       ncg     rms          rms(c)
DAV:   1    -0.231305037290E+04    0.16220E-02   -0.15387E-01  4688   0.298E-01    0.107E-01
RMM:   2    -0.231305202018E+04   -0.16473E-02   -0.17669E-02  6046   0.628E-02    0.526E-02
RMM:   3    -0.231305212114E+04   -0.10096E-03   -0.14377E-03  3446   0.218E-02    0.348E-02
RMM:   4    -0.231305212461E+04   -0.34665E-05   -0.17900E-04  2955   0.574E-03    0.354E-02
RMM:   5    -0.231305211285E+04    0.11755E-04   -0.34769E-05  2868   0.404E-03    0.214E-02
RMM:   6    -0.231305210761E+04    0.52434E-05   -0.16789E-05  2873   0.351E-03
 387 F= -.23334800E+04 E0= -.23334800E+04  d E =-.162126E-02  mag=     3.0000
       N       E                     dE             d eps       ncg     rms          rms(c)
DAV:   1    -0.231304653238E+04    0.55805E-02   -0.64638E-01  4448   0.636E-01    0.222E-01
RMM:   2    -0.231305288639E+04   -0.63540E-02   -0.67921E-02  6009   0.129E-01    0.110E-01
RMM:   3    -0.231305325491E+04   -0.36852E-03   -0.56730E-03  5138   0.445E-02    0.757E-02
RMM:   4    -0.231305327460E+04   -0.19693E-04   -0.70275E-04  3491   0.108E-02    0.791E-02
RMM:   5    -0.231305320828E+04    0.66318E-04   -0.15779E-04  3242   0.836E-03    0.390E-02
RMM:   6    -0.231305319223E+04    0.16053E-04   -0.70441E-05  3326   0.675E-03    0.987E-03
RMM:   7    -0.231305319156E+04    0.67416E-06   -0.10919E-05  2857   0.508E-03
 388 F= -.23334811E+04 E0= -.23334811E+04  d E =-.101105E-02  mag=     3.0000
       N       E                     dE             d eps       ncg     rms          rms(c)
DAV:   1    -0.231305104916E+04    0.21431E-02   -0.21344E-01  4528   0.367E-01    0.128E-01
RMM:   2    -0.231305315625E+04   -0.21071E-02   -0.22516E-02  6039   0.753E-02    0.630E-02
RMM:   3    -0.231305327738E+04   -0.12114E-03   -0.18698E-03  3814   0.264E-02    0.441E-02
RMM:   4    -0.231305328367E+04   -0.62828E-05   -0.23594E-04  2970   0.691E-03    0.463E-02
RMM:   5    -0.231305325992E+04    0.23743E-04   -0.53210E-05  2922   0.523E-03    0.219E-02
RMM:   6    -0.231305325478E+04    0.51482E-05   -0.23784E-05  2920   0.454E-03
 389 F= -.23334811E+04 E0= -.23334811E+04  d E =-.103271E-02  mag=     3.0000
       N       E                     dE             d eps       ncg     rms          rms(c)
DAV:   1    -0.231304786939E+04    0.53905E-02   -0.60327E-01  4448   0.619E-01    0.208E-01
RMM:   2    -0.231305378918E+04   -0.59198E-02   -0.62858E-02  6018   0.123E-01    0.105E-01
RMM:   3    -0.231305415198E+04   -0.36280E-03   -0.53787E-03  4980   0.424E-02    0.743E-02
RMM:   4    -0.231305417170E+04   -0.19718E-04   -0.64434E-04  3193   0.976E-03    0.740E-02
RMM:   5    -0.231305411356E+04    0.58141E-04   -0.13021E-04  3049   0.724E-03    0.365E-02
RMM:   6    -0.231305410163E+04    0.11930E-04   -0.64987E-05  3170   0.638E-03    0.981E-03
RMM:   7    -0.231305410159E+04    0.42521E-07   -0.98406E-06  2848   0.488E-03
 390 F= -.23334819E+04 E0= -.23334819E+04  d E =-.859362E-03  mag=     3.0000
       N       E                     dE             d eps       ncg     rms          rms(c)
DAV:   1    -0.231304862824E+04    0.54734E-02   -0.55031E-01  4448   0.592E-01    0.198E-01
RMM:   2    -0.231305400951E+04   -0.53813E-02   -0.57093E-02  6087   0.118E-01    0.101E-01
RMM:   3    -0.231305434509E+04   -0.33558E-03   -0.48981E-03  4803   0.407E-02    0.734E-02
RMM:   4    -0.231305436007E+04   -0.14978E-04   -0.58948E-04  3108   0.951E-03    0.705E-02
RMM:   5    -0.231305430465E+04    0.55419E-04   -0.11726E-04  3050   0.703E-03    0.341E-02
RMM:   6    -0.231305429358E+04    0.11074E-04   -0.59186E-05  3086   0.623E-03    0.988E-03
RMM:   7    -0.231305429324E+04    0.33242E-06   -0.95986E-06  2850   0.486E-03
 391 F= -.23334821E+04 E0= -.23334821E+04  d E =-.106365E-02  mag=     3.0000
       N       E                     dE             d eps       ncg     rms          rms(c)
DAV:   1    -0.231304812277E+04    0.61708E-02   -0.71841E-01  4448   0.688E-01    0.236E-01
RMM:   2    -0.231305505886E+04   -0.69361E-02   -0.73799E-02  6041   0.138E-01    0.119E-01
RMM:   3    -0.231305549469E+04   -0.43583E-03   -0.64657E-03  5191   0.493E-02    0.915E-02
RMM:   4    -0.231305550170E+04   -0.70173E-05   -0.77624E-04  3428   0.112E-02    0.812E-02
RMM:   5    -0.231305542465E+04    0.77051E-04   -0.16568E-04  3383   0.871E-03    0.379E-02
RMM:   6    -0.231305541079E+04    0.13858E-04   -0.81208E-05  3510   0.729E-03    0.119E-02
RMM:   7    -0.231305540992E+04    0.87000E-06   -0.10983E-05  2855   0.517E-03
 392 F= -.23334833E+04 E0= -.23334833E+04  d E =-.117715E-02  mag=     3.0000
       N       E                     dE             d eps       ncg     rms          rms(c)
DAV:   1    -0.231305142075E+04    0.39900E-02   -0.39375E-01  4448   0.508E-01    0.175E-01
RMM:   2    -0.231305522820E+04   -0.38074E-02   -0.40515E-02  6044   0.103E-01    0.881E-02
RMM:   3    -0.231305546742E+04   -0.23922E-03   -0.35445E-03  4715   0.367E-02    0.685E-02
RMM:   4    -0.231305546988E+04   -0.24668E-05   -0.42683E-04  3042   0.871E-03    0.603E-02
RMM:   5    -0.231305542586E+04    0.44028E-04   -0.91798E-05  3002   0.660E-03    0.276E-02
RMM:   6    -0.231305541786E+04    0.79997E-05   -0.42817E-05  3008   0.589E-03
 393 F= -.23334834E+04 E0= -.23334834E+04  d E =-.123000E-02  mag=     3.0000
       N       E                     dE             d eps       ncg     rms          rms(c)
DAV:   1    -0.231304667177E+04    0.87541E-02   -0.89570E-01  4448   0.725E-01    0.248E-01
RMM:   2    -0.231305577666E+04   -0.91049E-02   -0.96260E-02  6042   0.148E-01    0.137E-01
RMM:   3    -0.231305636436E+04   -0.58770E-03   -0.84722E-03  5384   0.501E-02    0.107E-01
RMM:   4    -0.231305636526E+04   -0.89928E-06   -0.98830E-04  3253   0.114E-02    0.878E-02
RMM:   5    -0.231305627612E+04    0.89132E-04   -0.19184E-04  3304   0.842E-03    0.435E-02
RMM:   6    -0.231305626014E+04    0.15984E-04   -0.10714E-04  3467   0.754E-03    0.142E-02
RMM:   7    -0.231305625893E+04    0.12084E-05   -0.14227E-05  2863   0.536E-03
 394 F= -.23334843E+04 E0= -.23334843E+04  d E =-.923307E-03  mag=     3.0000
       N       E                     dE             d eps       ncg     rms          rms(c)
DAV:   1    -0.231305406467E+04    0.21955E-02   -0.21063E-01  4544   0.352E-01    0.121E-01
RMM:   2    -0.231305621033E+04   -0.21457E-02   -0.22689E-02  6092   0.730E-02    0.674E-02
RMM:   3    -0.231305635533E+04   -0.14500E-03   -0.20080E-03  3710   0.253E-02    0.563E-02
RMM:   4    -0.231305634991E+04    0.54177E-05   -0.23852E-04  2959   0.657E-03    0.414E-02
RMM:   5    -0.231305632832E+04    0.21584E-04   -0.44430E-05  2913   0.450E-03    0.203E-02
RMM:   6    -0.231305632483E+04    0.34917E-05   -0.24335E-05  2910   0.416E-03
 395 F= -.23334844E+04 E0= -.23334844E+04  d E =-.102901E-02  mag=     3.0000
       N       E                     dE             d eps       ncg     rms          rms(c)
DAV:   1    -0.231304817490E+04    0.81534E-02   -0.92906E-01  4448   0.780E-01    0.273E-01
RMM:   2    -0.231305725875E+04   -0.90838E-02   -0.96741E-02  5950   0.156E-01    0.146E-01
RMM:   3    -0.231305781682E+04   -0.55807E-03   -0.84353E-03  5318   0.566E-02    0.126E-01
RMM:   4    -0.231305776558E+04    0.51241E-04   -0.10248E-03  3814   0.130E-02    0.900E-02
RMM:   5    -0.231305765739E+04    0.10819E-03   -0.23777E-04  3957   0.103E-02    0.407E-02
RMM:   6    -0.231305764134E+04    0.16046E-04   -0.10162E-04  3799   0.801E-03    0.145E-02
RMM:   7    -0.231305763930E+04    0.20404E-05   -0.15252E-05  2865   0.564E-03
 396 F= -.23334858E+04 E0= -.23334858E+04  d E =-.140957E-02  mag=     3.0000
       N       E                     dE             d eps       ncg     rms          rms(c)
DAV:   1    -0.231305691878E+04    0.72256E-03   -0.70902E-02  4784   0.216E-01    0.759E-02
RMM:   2    -0.231305761926E+04   -0.70048E-03   -0.74652E-03  5984   0.445E-02    0.409E-02
RMM:   3    -0.231305766362E+04   -0.44360E-04   -0.65830E-04  3222   0.163E-02    0.374E-02
RMM:   4    -0.231305765751E+04    0.61037E-05   -0.81345E-05  2910   0.452E-03
 397 F= -.23334859E+04 E0= -.23334859E+04  d E =-.145388E-02  mag=     3.0000
       N       E                     dE             d eps       ncg     rms          rms(c)
DAV:   1    -0.231305141958E+04    0.62440E-02   -0.69227E-01  4448   0.674E-01    0.224E-01
RMM:   2    -0.231305840652E+04   -0.69869E-02   -0.73921E-02  6022   0.133E-01    0.134E-01
RMM:   3    -0.231305883451E+04   -0.42799E-03   -0.63150E-03  5244   0.473E-02    0.119E-01
RMM:   4    -0.231305877029E+04    0.64224E-04   -0.77672E-04  3317   0.111E-02    0.779E-02
RMM:   5    -0.231305868394E+04    0.86349E-04   -0.19741E-04  3804   0.903E-03    0.337E-02
RMM:   6    -0.231305867382E+04    0.10115E-04   -0.67560E-05  3206   0.740E-03    0.108E-02
RMM:   7    -0.231305867241E+04    0.14107E-05   -0.11735E-05  2852   0.495E-03
 398 F= -.23334869E+04 E0= -.23334869E+04  d E =-.107769E-02  mag=     3.0000
       N       E                     dE             d eps       ncg     rms          rms(c)
DAV:   1    -0.231305724073E+04    0.14331E-02   -0.14218E-01  4528   0.306E-01    0.102E-01
RMM:   2    -0.231305868059E+04   -0.14399E-02   -0.15298E-02  6125   0.622E-02    0.577E-02
RMM:   3    -0.231305877059E+04   -0.90006E-04   -0.13207E-03  3594   0.217E-02    0.498E-02
RMM:   4    -0.231305876190E+04    0.86931E-05   -0.15986E-04  2942   0.589E-03    0.348E-02
RMM:   5    -0.231305874424E+04    0.17664E-04   -0.37488E-05  2906   0.436E-03    0.164E-02
RMM:   6    -0.231305874088E+04    0.33546E-05   -0.16654E-05  2886   0.399E-03
 399 F= -.23334870E+04 E0= -.23334870E+04  d E =-.117453E-02  mag=     3.0000
       N       E                     dE             d eps       ncg     rms          rms(c)
DAV:   1    -0.231305422239E+04    0.45218E-02   -0.50279E-01  4432   0.578E-01    0.195E-01
RMM:   2    -0.231305951528E+04   -0.52929E-02   -0.56325E-02  6038   0.115E-01    0.109E-01
RMM:   3    -0.231305984460E+04   -0.32931E-03   -0.47636E-03  4966   0.403E-02    0.920E-02
RMM:   4    -0.231305981862E+04    0.25978E-04   -0.57430E-04  3138   0.942E-03    0.656E-02
RMM:   5    -0.231305976114E+04    0.57483E-04   -0.12667E-04  3188   0.728E-03    0.308E-02
RMM:   6    -0.231305975359E+04    0.75499E-05   -0.56971E-05  3067   0.647E-03
 400 F= -.23334881E+04 E0= -.23334881E+04  d E =-.110899E-02  mag=     3.0000
       N       E                     dE             d eps       ncg     rms          rms(c)
DAV:   1    -0.231305118583E+04    0.85753E-02   -0.79765E-01  4432   0.726E-01    0.246E-01
RMM:   2    -0.231305960150E+04   -0.84157E-02   -0.89580E-02  5999   0.145E-01    0.138E-01
RMM:   3    -0.231306012533E+04   -0.52384E-03   -0.75716E-03  5408   0.516E-02    0.116E-01
RMM:   4    -0.231306008587E+04    0.39466E-04   -0.91070E-04  3366   0.116E-02    0.829E-02
RMM:   5    -0.231305999569E+04    0.90175E-04   -0.19996E-04  3583   0.885E-03    0.397E-02
RMM:   6    -0.231305998201E+04    0.13683E-04   -0.93945E-05  3475   0.761E-03    0.136E-02
RMM:   7    -0.231305998051E+04    0.15021E-05   -0.14140E-05  2852   0.535E-03
 401 F= -.23334885E+04 E0= -.23334885E+04  d E =-.145686E-02  mag=     3.0000
