       N       E                     dE             d eps       ncg     rms          rms(c)
DAV:   1     0.131050546587E+05    0.13105E+05   -0.84620E+05  4560   0.144E+03
DAV:   2    -0.104335165268E+04   -0.14148E+05   -0.13540E+05  5000   0.329E+02
DAV:   3    -0.248525185086E+04   -0.14419E+04   -0.14255E+04  5480   0.113E+02
DAV:   4    -0.252812042315E+04   -0.42869E+02   -0.42614E+02  6700   0.279E+01
DAV:   5    -0.252903252283E+04   -0.91210E+00   -0.90995E+00  5760   0.319E+00    0.171E+02
RMM:   6    -0.149230617534E+04    0.10367E+04   -0.19594E+03  4512   0.380E+01    0.724E+01
RMM:   7    -0.166301223452E+04   -0.17071E+03   -0.28567E+02  5247   0.144E+01    0.484E+01
RMM:   8    -0.171878782764E+04   -0.55776E+02   -0.50228E+01  5296   0.735E+00    0.389E+01
RMM:   9    -0.181694662387E+04   -0.98159E+02   -0.58203E+01  5120   0.714E+00    0.370E+01
RMM:  10    -0.191492671220E+04   -0.97980E+02   -0.52664E+01  5384   0.683E+00    0.234E+01
RMM:  11    -0.200671006148E+04   -0.91783E+02   -0.34834E+01  5259   0.508E+00    0.225E+01
RMM:  12    -0.205817345707E+04   -0.51463E+02   -0.17385E+01  5218   0.343E+00    0.153E+01
RMM:  13    -0.212940411618E+04   -0.71231E+02   -0.31931E+01  5043   0.434E+00    0.140E+01
RMM:  14    -0.221152472492E+04   -0.82121E+02   -0.53968E+01  5033   0.539E+00    0.127E+01
RMM:  15    -0.228381802964E+04   -0.72293E+02   -0.61904E+01  4617   0.543E+00    0.783E+00
RMM:  16    -0.230781214841E+04   -0.23994E+02   -0.22007E+01  4626   0.367E+00    0.480E+00
RMM:  17    -0.231740031736E+04   -0.95882E+01   -0.97828E+00  4705   0.211E+00    0.275E+00
RMM:  18    -0.231987637374E+04   -0.24761E+01   -0.19359E+00  4906   0.124E+00    0.138E+00
RMM:  19    -0.232074532933E+04   -0.86896E+00   -0.87432E-01  4904   0.549E-01    0.828E-01
RMM:  20    -0.232100587003E+04   -0.26054E+00   -0.20616E-01  4798   0.409E-01    0.430E-01
RMM:  21    -0.232109034125E+04   -0.84471E-01   -0.69669E-02  4889   0.160E-01    0.258E-01
RMM:  22    -0.232112311615E+04   -0.32775E-01   -0.15642E-02  4701   0.106E-01    0.148E-01
RMM:  23    -0.232114690807E+04   -0.23792E-01   -0.89691E-03  4561   0.666E-02    0.103E-01
RMM:  24    -0.232116150509E+04   -0.14597E-01   -0.47224E-03  4564   0.560E-02    0.611E-02
RMM:  25    -0.232116890845E+04   -0.74034E-02   -0.25130E-03  4651   0.392E-02    0.392E-02
RMM:  26    -0.232117339098E+04   -0.44825E-02   -0.14682E-03  4611   0.297E-02    0.209E-02
RMM:  27    -0.232117499138E+04   -0.16004E-02   -0.58790E-04  4234   0.192E-02    0.124E-02
RMM:  28    -0.232117541020E+04   -0.41882E-03   -0.14905E-04  3939   0.106E-02    0.782E-03
RMM:  29    -0.232117565904E+04   -0.24884E-03   -0.59601E-05  3599   0.632E-03    0.399E-03
RMM:  30    -0.232117574223E+04   -0.83184E-04   -0.17249E-05  3060   0.444E-03    0.263E-03
RMM:  31    -0.232117578925E+04   -0.47022E-04   -0.10764E-05  2933   0.313E-03    0.147E-03
RMM:  32    -0.232117580433E+04   -0.15079E-04   -0.55456E-06  2779   0.281E-03    0.100E-03
RMM:  33    -0.232117580689E+04   -0.25589E-05   -0.26149E-06  2464   0.193E-03
   1 F= -.23424887E+04 E0= -.23424886E+04  d E =-.131119E-03  mag=     5.9990
       N       E                     dE             d eps       ncg     rms          rms(c)
DAV:   1    -0.232115352460E+04    0.22280E-01   -0.51105E+00  4600   0.793E-01    0.287E-01
RMM:   2    -0.232115717398E+04   -0.36494E-02   -0.46868E-02  3970   0.804E-02    0.162E-01
RMM:   3    -0.232115734568E+04   -0.17170E-03   -0.45053E-03  4226   0.344E-02    0.196E-01
RMM:   4    -0.232115690284E+04    0.44283E-03   -0.11126E-03  4155   0.141E-02    0.737E-02
RMM:   5    -0.232115684010E+04    0.62742E-04   -0.26723E-04  3562   0.748E-03    0.446E-02
RMM:   6    -0.232115683723E+04    0.28696E-05   -0.81552E-05  2927   0.514E-03
   2 F= -.23424689E+04 E0= -.23424689E+04  d E =-.147261E-03  mag=     5.9989
       N       E                     dE             d eps       ncg     rms          rms(c)
DAV:   1    -0.232117924842E+04   -0.22408E-01   -0.20594E+01  4520   0.160E+00    0.535E-01
RMM:   2    -0.232118739972E+04   -0.81513E-02   -0.12461E-01  4253   0.152E-01    0.318E-01
RMM:   3    -0.232118816355E+04   -0.76382E-03   -0.12994E-02  4994   0.619E-02    0.419E-01
RMM:   4    -0.232118600534E+04    0.21582E-02   -0.44671E-03  5417   0.281E-02    0.121E-01
RMM:   5    -0.232118591633E+04    0.89008E-04   -0.78825E-04  4195   0.125E-02    0.904E-02
RMM:   6    -0.232118590614E+04    0.10190E-04   -0.29515E-04  3117   0.797E-03    0.809E-02
RMM:   7    -0.232118584256E+04    0.63576E-04   -0.61831E-05  3024   0.487E-03    0.176E-02
RMM:   8    -0.232118584528E+04   -0.27138E-05   -0.24550E-05  2940   0.290E-03
   3 F= -.23424995E+04 E0= -.23424995E+04  d E =-.119434E-03  mag=     5.9990
       N       E                     dE             d eps       ncg     rms          rms(c)
DAV:   1    -0.232114281610E+04    0.43026E-01   -0.10213E+01  4540   0.108E+00    0.480E-01
RMM:   2    -0.232115046084E+04   -0.76447E-02   -0.10421E-01  4064   0.115E-01    0.227E-01
RMM:   3    -0.232115026998E+04    0.19086E-03   -0.83618E-03  4028   0.432E-02    0.163E-01
RMM:   4    -0.232115040073E+04   -0.13075E-03   -0.19090E-03  4514   0.180E-02    0.194E-01
RMM:   5    -0.232114991940E+04    0.48133E-03   -0.70526E-04  4155   0.126E-02    0.530E-02
RMM:   6    -0.232114991946E+04   -0.66982E-07   -0.12060E-04  3164   0.661E-03    0.398E-02
RMM:   7    -0.232114990200E+04    0.17464E-04   -0.29041E-05  2829   0.370E-03    0.162E-02
RMM:   8    -0.232114990140E+04    0.59839E-06   -0.20436E-05  2789   0.229E-03
   4 F= -.23424634E+04 E0= -.23424633E+04  d E =-.130398E-03  mag=     5.9990
       N       E                     dE             d eps       ncg     rms          rms(c)
DAV:   1    -0.232118479130E+04   -0.34889E-01   -0.20697E+01  4520   0.171E+00    0.567E-01
RMM:   2    -0.232119510687E+04   -0.10316E-01   -0.14755E-01  4292   0.163E-01    0.335E-01
RMM:   3    -0.232119584615E+04   -0.73928E-03   -0.18308E-02  4694   0.623E-02    0.408E-01
RMM:   4    -0.232119407113E+04    0.17750E-02   -0.43260E-03  5063   0.267E-02    0.177E-01
RMM:   5    -0.232119374955E+04    0.32158E-03   -0.12413E-03  4301   0.144E-02    0.992E-02
RMM:   6    -0.232119378605E+04   -0.36494E-04   -0.45208E-04  3553   0.102E-02    0.104E-01
RMM:   7    -0.232119364719E+04    0.13886E-03   -0.12853E-04  3161   0.703E-03    0.227E-02
RMM:   8    -0.232119364638E+04    0.80776E-06   -0.51850E-05  3025   0.373E-03
   5 F= -.23425060E+04 E0= -.23425059E+04  d E =-.130964E-03  mag=     5.9990
       N       E                     dE             d eps       ncg     rms          rms(c)
DAV:   1    -0.232109982900E+04    0.93818E-01   -0.99637E+00  4520   0.119E+00    0.652E-01
RMM:   2    -0.232110587471E+04   -0.60457E-02   -0.13535E-01  4347   0.141E-01    0.371E-01
RMM:   3    -0.232110610785E+04   -0.23314E-03   -0.14756E-02  4754   0.643E-02    0.469E-01
RMM:   4    -0.232110377902E+04    0.23288E-02   -0.36965E-03  4683   0.244E-02    0.174E-01
RMM:   5    -0.232110375499E+04    0.24029E-04   -0.24921E-03  4351   0.177E-02    0.155E-01
RMM:   6    -0.232110356341E+04    0.19158E-03   -0.69923E-04  3882   0.125E-02    0.933E-02
RMM:   7    -0.232110344630E+04    0.11711E-03   -0.15625E-04  3197   0.629E-03    0.266E-02
RMM:   8    -0.232110344128E+04    0.50231E-05   -0.85897E-05  2981   0.381E-03
   6 F= -.23424160E+04 E0= -.23424159E+04  d E =-.166371E-03  mag=     5.9987
       N       E                     dE             d eps       ncg     rms          rms(c)
DAV:   1    -0.232121206514E+04   -0.10862E+00   -0.20055E+01  4540   0.168E+00    0.868E-01
RMM:   2    -0.232121576829E+04   -0.37032E-02   -0.20003E-01  4330   0.177E-01    0.503E-01
RMM:   3    -0.232121797657E+04   -0.22083E-02   -0.28361E-02  4964   0.893E-02    0.713E-01
RMM:   4    -0.232121246081E+04    0.55158E-02   -0.80679E-03  5335   0.362E-02    0.211E-01
RMM:   5    -0.232121256600E+04   -0.10519E-03   -0.31541E-03  4851   0.228E-02    0.218E-01
RMM:   6    -0.232121207961E+04    0.48639E-03   -0.10997E-03  4525   0.155E-02    0.942E-02
RMM:   7    -0.232121196630E+04    0.11331E-03   -0.19160E-04  3315   0.672E-03    0.299E-02
RMM:   8    -0.232121197107E+04   -0.47750E-05   -0.69244E-05  3092   0.452E-03
   7 F= -.23425252E+04 E0= -.23425252E+04  d E =-.103024E-03  mag=     5.9990
       N       E                     dE             d eps       ncg     rms          rms(c)
DAV:   1    -0.232115406712E+04    0.57899E-01   -0.99427E+00  4460   0.123E+00    0.577E-01
RMM:   2    -0.232116566778E+04   -0.11601E-01   -0.16743E-01  4368   0.154E-01    0.326E-01
RMM:   3    -0.232116537539E+04    0.29238E-03   -0.14366E-02  4743   0.636E-02    0.372E-01
RMM:   4    -0.232116405180E+04    0.13236E-02   -0.27624E-03  4917   0.219E-02    0.171E-01
RMM:   5    -0.232116374901E+04    0.30279E-03   -0.20014E-03  4093   0.162E-02    0.109E-01
RMM:   6    -0.232116370124E+04    0.47774E-04   -0.53717E-04  3543   0.119E-02    0.955E-02
RMM:   7    -0.232116358155E+04    0.11969E-03   -0.12514E-04  3104   0.623E-03    0.236E-02
RMM:   8    -0.232116357719E+04    0.43627E-05   -0.48165E-05  2969   0.337E-03
   8 F= -.23424769E+04 E0= -.23424768E+04  d E =-.168664E-03  mag=     5.9987
       N       E                     dE             d eps       ncg     rms          rms(c)
DAV:   1    -0.232116863833E+04   -0.50568E-02   -0.20097E+01  4480   0.161E+00    0.506E-01
RMM:   2    -0.232118080686E+04   -0.12169E-01   -0.14660E-01  4272   0.187E-01    0.326E-01
RMM:   3    -0.232118181186E+04   -0.10050E-02   -0.16186E-02  4743   0.609E-02    0.381E-01
RMM:   4    -0.232117972191E+04    0.20899E-02   -0.32518E-03  5268   0.242E-02    0.140E-01
RMM:   5    -0.232117952380E+04    0.19811E-03   -0.10750E-03  3825   0.149E-02    0.864E-02
RMM:   6    -0.232117950452E+04    0.19283E-04   -0.29325E-04  3131   0.101E-02    0.797E-02
RMM:   7    -0.232117944090E+04    0.63616E-04   -0.58331E-05  3056   0.509E-03    0.201E-02
RMM:   8    -0.232117944526E+04   -0.43557E-05   -0.23299E-05  2933   0.349E-03
   9 F= -.23424919E+04 E0= -.23424919E+04  d E =-.101544E-03  mag=     5.9991
       N       E                     dE             d eps       ncg     rms          rms(c)
DAV:   1    -0.232118263732E+04   -0.31964E-02   -0.10140E+01  4440   0.117E+00    0.312E-01
RMM:   2    -0.232118888710E+04   -0.62498E-02   -0.71980E-02  4117   0.126E-01    0.178E-01
RMM:   3    -0.232118913944E+04   -0.25234E-03   -0.72621E-03  4316   0.369E-02    0.182E-01
RMM:   4    -0.232118878582E+04    0.35362E-03   -0.12629E-03  4186   0.156E-02    0.121E-01
RMM:   5    -0.232118860219E+04    0.18363E-03   -0.37858E-04  3330   0.992E-03    0.552E-02
RMM:   6    -0.232118861465E+04   -0.12460E-04   -0.15811E-04  3041   0.716E-03    0.606E-02
RMM:   7    -0.232118857894E+04    0.35712E-04   -0.46101E-05  2961   0.455E-03    0.118E-02
RMM:   8    -0.232118858005E+04   -0.11105E-05   -0.81640E-06  2740   0.231E-03
  10 F= -.23425006E+04 E0= -.23425005E+04  d E =-.117902E-03  mag=     5.9991
       N       E                     dE             d eps       ncg     rms          rms(c)
DAV:   1    -0.232113526945E+04    0.53309E-01   -0.20155E+01  4480   0.170E+00    0.610E-01
RMM:   2    -0.232115373251E+04   -0.18463E-01   -0.21399E-01  4298   0.199E-01    0.315E-01
RMM:   3    -0.232115432661E+04   -0.59409E-03   -0.18665E-02  4961   0.673E-02    0.409E-01
RMM:   4    -0.232115256916E+04    0.17574E-02   -0.33991E-03  5296   0.247E-02    0.180E-01
RMM:   5    -0.232115221705E+04    0.35211E-03   -0.13121E-03  4128   0.157E-02    0.850E-02
RMM:   6    -0.232115229468E+04   -0.77630E-04   -0.51862E-04  3606   0.114E-02    0.113E-01
RMM:   7    -0.232115212057E+04    0.17412E-03   -0.11879E-04  3076   0.683E-03    0.191E-02
RMM:   8    -0.232115212242E+04   -0.18563E-05   -0.28305E-05  2985   0.375E-03
  11 F= -.23424660E+04 E0= -.23424659E+04  d E =-.148843E-03  mag=     5.9989
       N       E                     dE             d eps       ncg     rms          rms(c)
DAV:   1    -0.232115816569E+04   -0.60451E-02   -0.10058E+01  4420   0.120E+00    0.427E-01
RMM:   2    -0.232116738937E+04   -0.92237E-02   -0.95871E-02  4926   0.154E-01    0.551E-01
RMM:   3    -0.232116409183E+04    0.32975E-02   -0.10521E-02  4974   0.531E-02    0.294E-01
RMM:   4    -0.232116317531E+04    0.91653E-03   -0.24065E-03  4781   0.202E-02    0.132E-01
RMM:   5    -0.232116304456E+04    0.13075E-03   -0.14422E-03  4384   0.169E-02    0.141E-01
RMM:   6    -0.232116282645E+04    0.21811E-03   -0.45589E-04  3461   0.109E-02    0.632E-02
RMM:   7    -0.232116277359E+04    0.52863E-04   -0.54695E-05  3038   0.520E-03    0.223E-02
RMM:   8    -0.232116277635E+04   -0.27624E-05   -0.25930E-05  2920   0.354E-03
  12 F= -.23424767E+04 E0= -.23424766E+04  d E =-.197685E-03  mag=     5.9985
       N       E                     dE             d eps       ncg     rms          rms(c)
DAV:   1    -0.232116287842E+04   -0.10483E-03   -0.19861E+01  4480   0.185E+00    0.773E-01
RMM:   2    -0.232118458765E+04   -0.21709E-01   -0.25392E-01  5276   0.227E-01    0.936E-01
RMM:   3    -0.232117679891E+04    0.77887E-02   -0.33298E-02  5693   0.905E-02    0.542E-01
RMM:   4    -0.232117370888E+04    0.30900E-02   -0.73190E-03  5252   0.335E-02    0.221E-01
RMM:   5    -0.232117340477E+04    0.30411E-03   -0.31049E-03  4699   0.223E-02    0.192E-01
RMM:   6    -0.232117324945E+04    0.15531E-03   -0.12333E-03  4423   0.165E-02    0.148E-01
RMM:   7    -0.232117299047E+04    0.25899E-03   -0.23845E-04  3315   0.870E-03    0.341E-02
RMM:   8    -0.232117300690E+04   -0.16437E-04   -0.65772E-05  3056   0.471E-03    0.374E-02
RMM:   9    -0.232117300501E+04    0.18962E-05   -0.26825E-05  2944   0.365E-03
  13 F= -.23424850E+04 E0= -.23424850E+04  d E =-.866467E-04  mag=     5.9991
       N       E                     dE             d eps       ncg     rms          rms(c)
DAV:   1    -0.232117019244E+04    0.28145E-02   -0.52333E+00  4480   0.916E-01    0.446E-01
RMM:   2    -0.232117989056E+04   -0.96981E-02   -0.10424E-01  4990   0.135E-01    0.514E-01
RMM:   3    -0.232117665516E+04    0.32354E-02   -0.10147E-02  5041   0.523E-02    0.323E-01
RMM:   4    -0.232117560224E+04    0.10529E-02   -0.18492E-03  4515   0.186E-02    0.143E-01
RMM:   5    -0.232117554900E+04    0.53240E-04   -0.15781E-03  4188   0.150E-02    0.123E-01
RMM:   6    -0.232117547298E+04    0.76021E-04   -0.57984E-04  3553   0.116E-02    0.883E-02
RMM:   7    -0.232117536513E+04    0.10785E-03   -0.88837E-05  3046   0.605E-03    0.199E-02
RMM:   8    -0.232117536700E+04   -0.18686E-05   -0.22673E-05  2796   0.289E-03
  14 F= -.23424879E+04 E0= -.23424878E+04  d E =-.128349E-03  mag=     5.9990
       N       E                     dE             d eps       ncg     rms          rms(c)
DAV:   1    -0.232116987111E+04    0.54940E-02   -0.10731E+00  4580   0.330E-01    0.364E-01
RMM:   2    -0.232117069889E+04   -0.82779E-03   -0.17534E-02  4135   0.442E-02    0.201E-01
RMM:   3    -0.232117100333E+04   -0.30443E-03   -0.18307E-03  3605   0.278E-02    0.224E-01
RMM:   4    -0.232117072693E+04    0.27639E-03   -0.85726E-04  3572   0.124E-02    0.125E-01
RMM:   5    -0.232117074325E+04   -0.16318E-04   -0.25587E-04  3454   0.907E-03    0.618E-02
RMM:   6    -0.232117070885E+04    0.34399E-04   -0.78880E-05  2995   0.597E-03    0.313E-02
RMM:   7    -0.232117069762E+04    0.11229E-04   -0.18412E-05  2835   0.313E-03    0.880E-03
RMM:   8    -0.232117069989E+04   -0.22663E-05   -0.71076E-06  2702   0.213E-03
  15 F= -.23424839E+04 E0= -.23424839E+04  d E =-.134338E-03  mag=     5.9990
       N       E                     dE             d eps       ncg     rms          rms(c)
DAV:   1    -0.232119186379E+04   -0.21166E-01   -0.54340E-01  4500   0.252E-01    0.304E-01
RMM:   2    -0.232119177654E+04    0.87248E-04   -0.10269E-02  3876   0.322E-02    0.159E-01
RMM:   3    -0.232119186466E+04   -0.88118E-04   -0.86768E-04  3329   0.186E-02    0.143E-01
RMM:   4    -0.232119184916E+04    0.15503E-04   -0.47902E-04  3368   0.961E-03    0.115E-01
RMM:   5    -0.232119177784E+04    0.71323E-04   -0.16771E-04  3131   0.738E-03    0.392E-02
RMM:   6    -0.232119176933E+04    0.85004E-05   -0.41599E-05  2835   0.437E-03
  16 F= -.23425046E+04 E0= -.23425046E+04  d E =-.123960E-03  mag=     5.9990
       N       E                     dE             d eps       ncg     rms          rms(c)
DAV:   1    -0.232115390941E+04    0.37868E-01   -0.10744E+00  4480   0.324E-01    0.371E-01
RMM:   2    -0.232115428032E+04   -0.37090E-03   -0.12614E-02  4020   0.392E-02    0.202E-01
RMM:   3    -0.232115460847E+04   -0.32816E-03   -0.12624E-03  3733   0.229E-02    0.179E-01
RMM:   4    -0.232115456790E+04    0.40574E-04   -0.82020E-04  4053   0.139E-02    0.133E-01
RMM:   5    -0.232115446506E+04    0.10284E-03   -0.22648E-04  3283   0.907E-03    0.503E-02
RMM:   6    -0.232115444827E+04    0.16790E-04   -0.57834E-05  2881   0.508E-03    0.316E-02
RMM:   7    -0.232115443933E+04    0.89443E-05   -0.14590E-05  2745   0.266E-03
  17 F= -.23424674E+04 E0= -.23424673E+04  d E =-.137919E-03  mag=     5.9989
       N       E                     dE             d eps       ncg     rms          rms(c)
DAV:   1    -0.232119781542E+04   -0.43367E-01   -0.55919E-01  4960   0.265E-01    0.457E-01
RMM:   2    -0.232119618067E+04    0.16348E-02   -0.27312E-02  4592   0.457E-02    0.230E-01
RMM:   3    -0.232119579192E+04    0.38875E-03   -0.20168E-03  3626   0.254E-02    0.197E-01
RMM:   4    -0.232119572216E+04    0.69758E-04   -0.99647E-04  3941   0.141E-02    0.164E-01
RMM:   5    -0.232119549198E+04    0.23018E-03   -0.38089E-04  3373   0.945E-03    0.357E-02
RMM:   6    -0.232119548220E+04    0.97890E-05   -0.52544E-05  2923   0.460E-03
  18 F= -.23425081E+04 E0= -.23425081E+04  d E =-.133118E-03  mag=     5.9989
       N       E                     dE             d eps       ncg     rms          rms(c)
DAV:   1    -0.232113283334E+04    0.62659E-01   -0.10898E+00  5040   0.346E-01    0.660E-01
RMM:   2    -0.232112925741E+04    0.35759E-02   -0.52971E-02  4789   0.687E-02    0.326E-01
RMM:   3    -0.232112842340E+04    0.83401E-03   -0.42362E-03  4134   0.398E-02    0.274E-01
RMM:   4    -0.232112830770E+04    0.11570E-03   -0.20673E-03  4723   0.200E-02    0.231E-01
RMM:   5    -0.232112782796E+04    0.47974E-03   -0.87511E-04  3836   0.132E-02    0.524E-02
RMM:   6    -0.232112779408E+04    0.33881E-04   -0.10753E-04  3096   0.653E-03    0.300E-02
RMM:   7    -0.232112778659E+04    0.74901E-05   -0.37059E-05  2767   0.330E-03
  19 F= -.23424409E+04 E0= -.23424409E+04  d E =-.130025E-03  mag=     5.9989
       N       E                     dE             d eps       ncg     rms          rms(c)
DAV:   1    -0.232118817686E+04   -0.60383E-01   -0.50512E-01  4940   0.282E-01    0.341E-01
RMM:   2    -0.232118738165E+04    0.79521E-03   -0.18306E-02  4497   0.436E-02    0.179E-01
RMM:   3    -0.232118726311E+04    0.11854E-03   -0.14169E-03  3578   0.219E-02    0.162E-01
RMM:   4    -0.232118715317E+04    0.10994E-03   -0.55299E-04  3587   0.112E-02    0.121E-01
RMM:   5    -0.232118706704E+04    0.86123E-04   -0.31647E-04  3310   0.860E-03    0.542E-02
RMM:   6    -0.232118705392E+04    0.13118E-04   -0.83903E-05  2891   0.540E-03    0.402E-02
RMM:   7    -0.232118703640E+04    0.17526E-04   -0.24415E-05  2639   0.284E-03    0.973E-03
RMM:   8    -0.232118703587E+04    0.52979E-06   -0.71727E-06  2412   0.176E-03
  20 F= -.23424998E+04 E0= -.23424997E+04  d E =-.104153E-03  mag=     5.9991
       N       E                     dE             d eps       ncg     rms          rms(c)
DAV:   1    -0.232116051917E+04    0.26517E-01   -0.93890E-01  4460   0.386E-01    0.252E-01
RMM:   2    -0.232116141198E+04   -0.89281E-03   -0.12251E-02  4404   0.459E-02    0.176E-01
RMM:   3    -0.232116148290E+04   -0.70918E-04   -0.15130E-03  3950   0.224E-02    0.197E-01
RMM:   4    -0.232116118125E+04    0.30165E-03   -0.55085E-04  3619   0.113E-02    0.811E-02
RMM:   5    -0.232116121902E+04   -0.37764E-04   -0.30685E-04  3428   0.843E-03    0.583E-02
RMM:   6    -0.232116119363E+04    0.25387E-04   -0.86919E-05  2906   0.580E-03    0.369E-02
RMM:   7    -0.232116117625E+04    0.17379E-04   -0.26114E-05  2820   0.327E-03    0.107E-02
RMM:   8    -0.232116117946E+04   -0.32116E-05   -0.13467E-05  2783   0.227E-03
  21 F= -.23424743E+04 E0= -.23424742E+04  d E =-.163848E-03  mag=     5.9988
       N       E                     dE             d eps       ncg     rms          rms(c)
DAV:   1    -0.232117082429E+04   -0.96480E-02   -0.46443E-01  4520   0.259E-01    0.130E-01
RMM:   2    -0.232117115966E+04   -0.33536E-03   -0.25881E-03  3580   0.224E-02    0.797E-02
RMM:   3    -0.232117134126E+04   -0.18161E-03   -0.44538E-04  3290   0.118E-02    0.112E-01
RMM:   4    -0.232117122136E+04    0.11990E-03   -0.20225E-04  3128   0.773E-03    0.257E-02
RMM:   5    -0.232117122746E+04   -0.60990E-05   -0.35021E-05  2849   0.353E-03
  22 F= -.23424841E+04 E0= -.23424841E+04  d E =-.132264E-03  mag=     5.9989
       N       E                     dE             d eps       ncg     rms          rms(c)
DAV:   1    -0.232117867292E+04   -0.74516E-02   -0.94182E-01  4460   0.384E-01    0.302E-01
RMM:   2    -0.232117952721E+04   -0.85429E-03   -0.16839E-02  4861   0.531E-02    0.202E-01
RMM:   3    -0.232117952373E+04    0.34817E-05   -0.20096E-03  4650   0.231E-02    0.222E-01
RMM:   4    -0.232117908100E+04    0.44273E-03   -0.87575E-04  3972   0.138E-02    0.881E-02
RMM:   5    -0.232117903079E+04    0.50211E-04   -0.36430E-04  3919   0.915E-03    0.375E-02
RMM:   6    -0.232117902315E+04    0.76325E-05   -0.65814E-05  3014   0.566E-03
  23 F= -.23424920E+04 E0= -.23424919E+04  d E =-.131427E-03  mag=     5.9989
       N       E                     dE             d eps       ncg     rms          rms(c)
DAV:   1    -0.232120326181E+04   -0.24231E-01   -0.47180E-01  4700   0.271E-01    0.138E-01
RMM:   2    -0.232120370504E+04   -0.44323E-03   -0.37071E-03  3911   0.261E-02    0.975E-02
RMM:   3    -0.232120376788E+04   -0.62838E-04   -0.48154E-04  3229   0.126E-02    0.111E-01
RMM:   4    -0.232120369492E+04    0.72956E-04   -0.22573E-04  3158   0.765E-03    0.499E-02
RMM:   5    -0.232120369164E+04    0.32832E-05   -0.50465E-05  2883   0.428E-03
  24 F= -.23425164E+04 E0= -.23425164E+04  d E =-.123348E-03  mag=     5.9990
       N       E                     dE             d eps       ncg     rms          rms(c)
DAV:   1    -0.232114050794E+04    0.63187E-01   -0.94967E-01  4760   0.390E-01    0.323E-01
RMM:   2    -0.232114141231E+04   -0.90437E-03   -0.19199E-02  5386   0.571E-02    0.281E-01
RMM:   3    -0.232114098939E+04    0.42292E-03   -0.28426E-03  4821   0.234E-02    0.241E-01
RMM:   4    -0.232114048065E+04    0.50874E-03   -0.83308E-04  3875   0.130E-02    0.999E-02
RMM:   5    -0.232114048921E+04   -0.85597E-05   -0.46616E-04  3632   0.975E-03    0.725E-02
RMM:   6    -0.232114046830E+04    0.20919E-04   -0.17839E-04  3094   0.751E-03    0.589E-02
RMM:   7    -0.232114041925E+04    0.49048E-04   -0.47510E-05  2951   0.467E-03    0.126E-02
RMM:   8    -0.232114042111E+04   -0.18652E-05   -0.21965E-05  2825   0.265E-03
  25 F= -.23424536E+04 E0= -.23424536E+04  d E =-.140750E-03  mag=     5.9989
