       N       E                     dE             d eps       ncg     rms          rms(c)
DAV:   1     0.126683885898E+05    0.12668E+05   -0.83108E+05  4464   0.144E+03
DAV:   2    -0.107567512431E+04   -0.13744E+05   -0.13169E+05  5296   0.329E+02
DAV:   3    -0.246884096638E+04   -0.13932E+04   -0.13803E+04  5336   0.110E+02
DAV:   4    -0.251362596244E+04   -0.44785E+02   -0.44565E+02  6672   0.294E+01
DAV:   5    -0.251444001638E+04   -0.81405E+00   -0.81248E+00  5528   0.317E+00    0.171E+02
RMM:   6    -0.147119052188E+04    0.10432E+04   -0.19366E+03  4396   0.387E+01    0.741E+01
RMM:   7    -0.164938534987E+04   -0.17819E+03   -0.31874E+02  4962   0.140E+01    0.531E+01
RMM:   8    -0.168519100124E+04   -0.35806E+02   -0.51913E+01  5222   0.705E+00    0.352E+01
RMM:   9    -0.183604355866E+04   -0.15085E+03   -0.70862E+01  4731   0.810E+00    0.334E+01
RMM:  10    -0.192102179944E+04   -0.84978E+02   -0.41613E+01  5040   0.611E+00    0.267E+01
RMM:  11    -0.200850605154E+04   -0.87484E+02   -0.36900E+01  5102   0.509E+00    0.182E+01
RMM:  12    -0.209027134483E+04   -0.81765E+02   -0.32983E+01  4799   0.451E+00    0.127E+01
RMM:  13    -0.222409965336E+04   -0.13383E+03   -0.10804E+02  4417   0.749E+00    0.113E+01
RMM:  14    -0.226988267857E+04   -0.45783E+02   -0.38633E+01  4485   0.480E+00    0.677E+00
RMM:  15    -0.229242189133E+04   -0.22539E+02   -0.20852E+01  4821   0.338E+00    0.479E+00
RMM:  16    -0.229989871729E+04   -0.74768E+01   -0.67912E+00  4687   0.200E+00    0.413E+00
RMM:  17    -0.230297502602E+04   -0.30763E+01   -0.22523E+00  4871   0.995E-01    0.474E+00
RMM:  18    -0.230307239871E+04   -0.97373E-01   -0.23378E-01  5437   0.401E-01    0.442E+00
RMM:  19    -0.230371465989E+04   -0.64226E+00   -0.23275E-01  4453   0.273E-01    0.337E+00
RMM:  20    -0.230528027841E+04   -0.15656E+01   -0.81106E-01  4404   0.454E-01    0.186E+00
RMM:  21    -0.230616837532E+04   -0.88810E+00   -0.60750E-01  4505   0.396E-01    0.103E+00
RMM:  22    -0.230636018773E+04   -0.19181E+00   -0.24433E-01  4663   0.285E-01    0.581E-01
RMM:  23    -0.230644319536E+04   -0.83008E-01   -0.76735E-02  4714   0.137E-01    0.364E-01
RMM:  24    -0.230647294868E+04   -0.29753E-01   -0.17386E-02  4604   0.921E-02    0.223E-01
RMM:  25    -0.230649032928E+04   -0.17381E-01   -0.73450E-03  4602   0.503E-02    0.186E-01
RMM:  26    -0.230650211673E+04   -0.11787E-01   -0.22294E-03  4523   0.377E-02    0.970E-02
RMM:  27    -0.230651461022E+04   -0.12493E-01   -0.27311E-03  4412   0.330E-02    0.791E-02
RMM:  28    -0.230652158185E+04   -0.69716E-02   -0.15473E-03  4376   0.287E-02    0.703E-02
RMM:  29    -0.230652565151E+04   -0.40697E-02   -0.10490E-03  4247   0.237E-02    0.405E-02
RMM:  30    -0.230652724176E+04   -0.15903E-02   -0.47706E-04  4203   0.171E-02    0.223E-02
RMM:  31    -0.230652784894E+04   -0.60719E-03   -0.14870E-04  3821   0.945E-03    0.149E-02
RMM:  32    -0.230652826197E+04   -0.41303E-03   -0.10624E-04  3619   0.912E-03    0.678E-03
RMM:  33    -0.230652839183E+04   -0.12986E-03   -0.47140E-05  3390   0.693E-03    0.425E-03
RMM:  34    -0.230652844545E+04   -0.53617E-04   -0.18945E-05  2984   0.475E-03    0.296E-03
RMM:  35    -0.230652846879E+04   -0.23342E-04   -0.91011E-06  2832   0.342E-03    0.184E-03
RMM:  36    -0.230652847551E+04   -0.67210E-05   -0.40828E-06  2467   0.253E-03
   1 F= -.23269034E+04 E0= -.23269034E+04  d E =-.232690E+04  mag=     4.0001
       N       E                     dE             d eps       ncg     rms          rms(c)
DAV:   1    -0.230633042763E+04    0.19804E+00   -0.43205E+01  4832   0.417E+00    0.195E+00
RMM:   2    -0.230679294470E+04   -0.46252E+00   -0.49222E+00  5885   0.101E+00    0.188E+00
RMM:   3    -0.230683920973E+04   -0.46265E-01   -0.53551E-01  5331   0.475E-01    0.244E+00
RMM:   4    -0.230680666541E+04    0.32544E-01   -0.69897E-02  5841   0.105E-01    0.777E-01
RMM:   5    -0.230680115806E+04    0.55073E-02   -0.12902E-02  5051   0.531E-02    0.400E-01
RMM:   6    -0.230679894660E+04    0.22115E-02   -0.91662E-03  5155   0.505E-02    0.187E-01
RMM:   7    -0.230679855388E+04    0.39273E-03   -0.12019E-03  4973   0.291E-02    0.563E-02
RMM:   8    -0.230679848367E+04    0.70205E-04   -0.32780E-04  4316   0.111E-02    0.309E-02
RMM:   9    -0.230679844304E+04    0.40632E-04   -0.71864E-05  3447   0.838E-03    0.207E-02
RMM:  10    -0.230679841122E+04    0.31816E-04   -0.88344E-05  3846   0.661E-03    0.114E-02
RMM:  11    -0.230679840439E+04    0.68326E-05   -0.13089E-05  2854   0.533E-03
   2 F= -.23271753E+04 E0= -.23271753E+04  d E =-.271887E+00  mag=     4.0000
       N       E                     dE             d eps       ncg     rms          rms(c)
DAV:   1    -0.230679827964E+04    0.13158E-03   -0.55269E-02  5190   0.163E-01    0.749E-02
RMM:   2    -0.230679893770E+04   -0.65806E-03   -0.69508E-03  5866   0.384E-02    0.910E-02
RMM:   3    -0.230679897844E+04   -0.40735E-04   -0.58914E-04  3170   0.143E-02    0.108E-01
RMM:   4    -0.230679891875E+04    0.59686E-04   -0.90959E-05  2968   0.475E-03    0.254E-02
RMM:   5    -0.230679891294E+04    0.58104E-05   -0.19545E-05  2780   0.264E-03
   3 F= -.23271757E+04 E0= -.23271757E+04  d E =-.272322E+00  mag=     4.0000
       N       E                     dE             d eps       ncg     rms          rms(c)
DAV:   1    -0.230668006065E+04    0.11886E+00   -0.19633E+01  4528   0.305E+00    0.130E+00
RMM:   2    -0.230686728687E+04   -0.18723E+00   -0.19823E+00  5843   0.664E-01    0.114E+00
RMM:   3    -0.230688623462E+04   -0.18948E-01   -0.18598E-01  5528   0.241E-01    0.173E+00
RMM:   4    -0.230687015506E+04    0.16080E-01   -0.26324E-02  5753   0.629E-02    0.376E-01
RMM:   5    -0.230686870426E+04    0.14508E-02   -0.48930E-03  4927   0.318E-02    0.237E-01
RMM:   6    -0.230686818893E+04    0.51533E-03   -0.33663E-03  4861   0.321E-02    0.864E-02
RMM:   7    -0.230686811434E+04    0.74590E-04   -0.33439E-04  4464   0.181E-02    0.315E-02
RMM:   8    -0.230686811508E+04   -0.74033E-06   -0.93500E-05  3262   0.554E-03
   4 F= -.23272446E+04 E0= -.23272446E+04  d E =-.689322E-01  mag=     4.0000
       N       E                     dE             d eps       ncg     rms          rms(c)
DAV:   1    -0.230686589501E+04    0.22193E-02   -0.50907E-01  4672   0.509E-01    0.214E-01
RMM:   2    -0.230687082661E+04   -0.49316E-02   -0.53335E-02  5949   0.109E-01    0.148E-01
RMM:   3    -0.230687124993E+04   -0.42332E-03   -0.40096E-03  4714   0.357E-02    0.257E-01
RMM:   4    -0.230687089938E+04    0.35055E-03   -0.64255E-04  3279   0.103E-02    0.615E-02
RMM:   5    -0.230687086490E+04    0.34481E-04   -0.10742E-04  3092   0.592E-03    0.366E-02
RMM:   6    -0.230687085067E+04    0.14228E-04   -0.80430E-05  3427   0.639E-03    0.942E-03
RMM:   7    -0.230687085137E+04   -0.70564E-06   -0.89956E-06  2827   0.454E-03
   5 F= -.23272474E+04 E0= -.23272474E+04  d E =-.717059E-01  mag=     4.0000
       N       E                     dE             d eps       ncg     rms          rms(c)
DAV:   1    -0.230679165722E+04    0.79193E-01   -0.53777E+00  4496   0.190E+00    0.105E+00
RMM:   2    -0.230695479079E+04   -0.16313E+00   -0.12957E+00  5852   0.459E-01    0.296E+00
RMM:   3    -0.230691353240E+04    0.41258E-01   -0.15404E-01  5332   0.201E-01    0.645E-01
RMM:   4    -0.230691190046E+04    0.16319E-02   -0.15953E-02  5246   0.394E-02    0.290E-01
RMM:   5    -0.230691092415E+04    0.97631E-03   -0.18850E-03  4955   0.216E-02    0.268E-01
RMM:   6    -0.230691026178E+04    0.66237E-03   -0.24297E-03  5241   0.228E-02    0.710E-02
RMM:   7    -0.230691025068E+04    0.11105E-04   -0.22169E-04  3669   0.109E-02    0.251E-02
RMM:   8    -0.230691024651E+04    0.41649E-05   -0.33188E-05  2994   0.429E-03
   6 F= -.23272854E+04 E0= -.23272854E+04  d E =-.380042E-01  mag=     4.0000
       N       E                     dE             d eps       ncg     rms          rms(c)
DAV:   1    -0.230687177909E+04    0.38472E-01   -0.20451E+00  4496   0.117E+00    0.630E-01
RMM:   2    -0.230693235541E+04   -0.60576E-01   -0.48656E-01  5914   0.285E-01    0.180E+00
RMM:   3    -0.230691781177E+04    0.14544E-01   -0.56125E-02  5298   0.116E-01    0.395E-01
RMM:   4    -0.230691721442E+04    0.59736E-03   -0.60281E-03  4946   0.240E-02    0.179E-01
RMM:   5    -0.230691683197E+04    0.38245E-03   -0.69269E-04  4378   0.134E-02    0.160E-01
RMM:   6    -0.230691659070E+04    0.24127E-03   -0.99678E-04  4922   0.151E-02    0.463E-02
RMM:   7    -0.230691658250E+04    0.81958E-05   -0.86778E-05  3050   0.759E-03
   7 F= -.23272909E+04 E0= -.23272909E+04  d E =-.434399E-01  mag=     4.0000
       N       E                     dE             d eps       ncg     rms          rms(c)
DAV:   1    -0.230687106265E+04    0.45528E-01   -0.42894E+00  4448   0.195E+00    0.990E-01
RMM:   2    -0.230701184202E+04   -0.14078E+00   -0.80436E-01  5779   0.440E-01    0.367E+00
RMM:   3    -0.230693538625E+04    0.76456E-01   -0.75436E-02  5287   0.159E-01    0.369E-01
RMM:   4    -0.230693457747E+04    0.80878E-03   -0.10369E-02  4978   0.377E-02    0.223E-01
RMM:   5    -0.230693414980E+04    0.42767E-03   -0.15803E-03  5253   0.261E-02    0.264E-01
RMM:   6    -0.230693364677E+04    0.50303E-03   -0.12556E-03  5173   0.199E-02    0.426E-02
RMM:   7    -0.230693364391E+04    0.28576E-05   -0.13556E-04  3510   0.925E-03    0.453E-02
RMM:   8    -0.230693362882E+04    0.15087E-04   -0.23945E-05  2927   0.418E-03    0.208E-02
RMM:   9    -0.230693362314E+04    0.56851E-05   -0.12520E-05  2852   0.355E-03
   8 F= -.23273073E+04 E0= -.23273073E+04  d E =-.164659E-01  mag=     4.0000
       N       E                     dE             d eps       ncg     rms          rms(c)
DAV:   1    -0.230693345199E+04    0.17683E-03   -0.18340E-02  5384   0.128E-01    0.641E-02
RMM:   2    -0.230693405353E+04   -0.60154E-03   -0.34619E-03  5741   0.303E-02    0.244E-01
RMM:   3    -0.230693372732E+04    0.32621E-03   -0.30635E-04  3036   0.107E-02    0.244E-02
RMM:   4    -0.230693372321E+04    0.41117E-05   -0.45692E-05  2911   0.347E-03
   9 F= -.23273074E+04 E0= -.23273074E+04  d E =-.165266E-01  mag=     4.0000
       N       E                     dE             d eps       ncg     rms          rms(c)
DAV:   1    -0.230691485344E+04    0.18874E-01   -0.23516E+00  4456   0.141E+00    0.650E-01
RMM:   2    -0.230698392066E+04   -0.69067E-01   -0.39231E-01  5888   0.318E-01    0.257E+00
RMM:   3    -0.230694658961E+04    0.37331E-01   -0.33259E-02  5400   0.101E-01    0.228E-01
RMM:   4    -0.230694662582E+04   -0.36204E-04   -0.54590E-03  4932   0.258E-02    0.154E-01
RMM:   5    -0.230694648042E+04    0.14540E-03   -0.46756E-04  4380   0.143E-02    0.160E-01
RMM:   6    -0.230694631127E+04    0.16915E-03   -0.51848E-04  4723   0.140E-02    0.359E-02
RMM:   7    -0.230694631199E+04   -0.72790E-06   -0.80583E-05  3107   0.856E-03
  10 F= -.23273208E+04 E0= -.23273208E+04  d E =-.133783E-01  mag=     4.0000
       N       E                     dE             d eps       ncg     rms          rms(c)
DAV:   1    -0.230677908347E+04    0.16723E+00   -0.13215E+01  4408   0.336E+00    0.164E+00
RMM:   2    -0.230721949708E+04   -0.44041E+00   -0.24339E+00  5923   0.779E-01    0.643E+00
RMM:   3    -0.230695870086E+04    0.26080E+00   -0.21185E-01  5527   0.249E-01    0.557E-01
RMM:   4    -0.230695859123E+04    0.10962E-03   -0.35678E-02  5250   0.636E-02    0.357E-01
RMM:   5    -0.230695781564E+04    0.77559E-03   -0.24623E-03  4988   0.324E-02    0.386E-01
RMM:   6    -0.230695685033E+04    0.96531E-03   -0.26925E-03  5077   0.302E-02    0.142E-01
RMM:   7    -0.230695679525E+04    0.55084E-04   -0.55722E-04  4442   0.193E-02    0.114E-01
RMM:   8    -0.230695676312E+04    0.32128E-04   -0.87296E-05  3292   0.641E-03    0.410E-02
RMM:   9    -0.230695675848E+04    0.46403E-05   -0.22231E-05  2863   0.454E-03
  11 F= -.23273329E+04 E0= -.23273329E+04  d E =-.255031E-01  mag=     4.0000
       N       E                     dE             d eps       ncg     rms          rms(c)
DAV:   1    -0.230695516418E+04    0.15989E-02   -0.68931E-01  4560   0.747E-01    0.298E-01
RMM:   2    -0.230696915067E+04   -0.13986E-01   -0.91295E-02  5913   0.160E-01    0.106E+00
RMM:   3    -0.230696311746E+04    0.60332E-02   -0.76824E-03  5271   0.500E-02    0.116E-01
RMM:   4    -0.230696314528E+04   -0.27814E-04   -0.12795E-03  3922   0.125E-02    0.766E-02
RMM:   5    -0.230696311878E+04    0.26493E-04   -0.11393E-04  3346   0.764E-03    0.862E-02
RMM:   6    -0.230696307482E+04    0.43964E-04   -0.15216E-04  3708   0.854E-03    0.115E-02
RMM:   7    -0.230696307609E+04   -0.12680E-05   -0.17467E-05  2869   0.513E-03
  12 F= -.23273395E+04 E0= -.23273395E+04  d E =-.660015E-02  mag=     4.0000
       N       E                     dE             d eps       ncg     rms          rms(c)
DAV:   1    -0.230690512500E+04    0.57950E-01   -0.61932E+00  4408   0.224E+00    0.915E-01
RMM:   2    -0.230703899729E+04   -0.13387E+00   -0.85614E-01  5906   0.488E-01    0.336E+00
RMM:   3    -0.230697672890E+04    0.62268E-01   -0.68881E-02  5567   0.150E-01    0.348E-01
RMM:   4    -0.230697693693E+04   -0.20803E-03   -0.11911E-02  5008   0.376E-02    0.230E-01
RMM:   5    -0.230697665306E+04    0.28387E-03   -0.10166E-03  4886   0.208E-02    0.260E-01
RMM:   6    -0.230697621737E+04    0.43569E-03   -0.12858E-03  4952   0.213E-02    0.510E-02
RMM:   7    -0.230697622304E+04   -0.56678E-05   -0.19022E-04  3597   0.121E-02    0.533E-02
RMM:   8    -0.230697621068E+04    0.12365E-04   -0.22600E-05  2868   0.397E-03    0.174E-02
RMM:   9    -0.230697621040E+04    0.27164E-06   -0.70801E-06  2841   0.256E-03
  13 F= -.23273534E+04 E0= -.23273534E+04  d E =-.205086E-01  mag=     4.0000
       N       E                     dE             d eps       ncg     rms          rms(c)
DAV:   1    -0.230669018168E+04    0.28603E+00   -0.24742E+01  4408   0.447E+00    0.189E+00
RMM:   2    -0.230727008917E+04   -0.57991E+00   -0.36963E+00  5934   0.996E-01    0.686E+00
RMM:   3    -0.230697912178E+04    0.29097E+00   -0.28913E-01  5626   0.299E-01    0.698E-01
RMM:   4    -0.230697942782E+04   -0.30604E-03   -0.47432E-02  5187   0.767E-02    0.441E-01
RMM:   5    -0.230697832554E+04    0.11023E-02   -0.39027E-03  5151   0.404E-02    0.495E-01
RMM:   6    -0.230697675841E+04    0.15671E-02   -0.48918E-03  5093   0.401E-02    0.181E-01
RMM:   7    -0.230697668115E+04    0.77259E-04   -0.10865E-03  4600   0.255E-02    0.147E-01
RMM:   8    -0.230697661519E+04    0.65956E-04   -0.13990E-04  3577   0.792E-03    0.500E-02
RMM:   9    -0.230697660870E+04    0.64903E-05   -0.30770E-05  2876   0.512E-03
  14 F= -.23273550E+04 E0= -.23273550E+04  d E =-.221184E-01  mag=     4.0000
       N       E                     dE             d eps       ncg     rms          rms(c)
DAV:   1    -0.230692344494E+04    0.53170E-01   -0.50588E+00  4408   0.202E+00    0.769E-01
RMM:   2    -0.230701444894E+04   -0.91004E-01   -0.63068E-01  5889   0.422E-01    0.252E+00
RMM:   3    -0.230698128816E+04    0.33161E-01   -0.54897E-02  5541   0.133E-01    0.348E-01
RMM:   4    -0.230698127340E+04    0.14761E-04   -0.84830E-03  4802   0.319E-02    0.199E-01
RMM:   5    -0.230698105443E+04    0.21897E-03   -0.84288E-04  4844   0.194E-02    0.229E-01
RMM:   6    -0.230698072639E+04    0.32804E-03   -0.98004E-04  4868   0.188E-02    0.411E-02
RMM:   7    -0.230698072679E+04   -0.40031E-06   -0.11023E-04  3279   0.100E-02    0.296E-02
RMM:   8    -0.230698072365E+04    0.31436E-05   -0.13477E-05  2874   0.327E-03
  15 F= -.23273586E+04 E0= -.23273586E+04  d E =-.257421E-01  mag=     4.0000
       N       E                     dE             d eps       ncg     rms          rms(c)
DAV:   1    -0.230696720582E+04    0.13521E-01   -0.27896E+00  4420   0.140E+00    0.420E-01
RMM:   2    -0.230699570593E+04   -0.28500E-01   -0.27853E-01  5886   0.276E-01    0.761E-01
RMM:   3    -0.230699448058E+04    0.12254E-02   -0.22364E-02  5545   0.860E-02    0.465E-01
RMM:   4    -0.230699343821E+04    0.10424E-02   -0.30144E-03  4989   0.221E-02    0.121E-01
RMM:   5    -0.230699328005E+04    0.15816E-03   -0.40375E-04  4231   0.132E-02    0.804E-02
RMM:   6    -0.230699324231E+04    0.37734E-04   -0.32170E-04  4282   0.130E-02    0.193E-02
RMM:   7    -0.230699324237E+04   -0.53289E-07   -0.28386E-05  2961   0.705E-03
  16 F= -.23273713E+04 E0= -.23273713E+04  d E =-.126952E-01  mag=     4.0000
       N       E                     dE             d eps       ncg     rms          rms(c)
DAV:   1    -0.230677181624E+04    0.22143E+00   -0.25101E+01  4408   0.420E+00    0.132E+00
RMM:   2    -0.230705387907E+04   -0.28206E+00   -0.25908E+00  5907   0.834E-01    0.305E+00
RMM:   3    -0.230701611983E+04    0.37759E-01   -0.22789E-01  5686   0.266E-01    0.110E+00
RMM:   4    -0.230701162384E+04    0.44960E-02   -0.29167E-02  5273   0.641E-02    0.368E-01
RMM:   5    -0.230701028673E+04    0.13371E-02   -0.36819E-03  5035   0.378E-02    0.303E-01
RMM:   6    -0.230700965867E+04    0.62806E-03   -0.30584E-03  4976   0.352E-02    0.651E-02
RMM:   7    -0.230700967841E+04   -0.19739E-04   -0.42823E-04  4398   0.189E-02    0.468E-02
RMM:   8    -0.230700966330E+04    0.15112E-04   -0.56814E-05  2978   0.583E-03    0.211E-02
RMM:   9    -0.230700966228E+04    0.10156E-05   -0.20794E-05  2911   0.392E-03
  17 F= -.23273881E+04 E0= -.23273881E+04  d E =-.294305E-01  mag=     4.0000
       N       E                     dE             d eps       ncg     rms          rms(c)
DAV:   1    -0.230698281358E+04    0.26850E-01   -0.42592E+00  4464   0.169E+00    0.501E-01
RMM:   2    -0.230702349843E+04   -0.40685E-01   -0.43416E-01  5880   0.329E-01    0.367E-01
RMM:   3    -0.230702669645E+04   -0.31980E-02   -0.34938E-02  5520   0.104E-01    0.613E-01
RMM:   4    -0.230702508042E+04    0.16160E-02   -0.51904E-03  5364   0.262E-02    0.231E-01
RMM:   5    -0.230702471985E+04    0.36057E-03   -0.63361E-04  4129   0.142E-02    0.105E-01
RMM:   6    -0.230702463673E+04    0.83123E-04   -0.64646E-04  4638   0.154E-02    0.606E-02
RMM:   7    -0.230702462726E+04    0.94738E-05   -0.69432E-05  3123   0.980E-03
  18 F= -.23274033E+04 E0= -.23274033E+04  d E =-.152371E-01  mag=     4.0000
       N       E                     dE             d eps       ncg     rms          rms(c)
DAV:   1    -0.230666419635E+04    0.36044E+00   -0.38292E+01  4408   0.509E+00    0.153E+00
RMM:   2    -0.230705572416E+04   -0.39153E+00   -0.40259E+00  5899   0.102E+00    0.205E+00
RMM:   3    -0.230706835680E+04   -0.12633E-01   -0.36280E-01  5645   0.326E-01    0.188E+00
RMM:   4    -0.230705279947E+04    0.15557E-01   -0.49430E-02  5688   0.828E-02    0.646E-01
RMM:   5    -0.230704968997E+04    0.31095E-02   -0.62701E-03  5044   0.440E-02    0.313E-01
RMM:   6    -0.230704894885E+04    0.74111E-03   -0.51166E-03  4826   0.410E-02    0.198E-01
RMM:   7    -0.230704883230E+04    0.11656E-03   -0.89487E-04  4737   0.278E-02    0.664E-02
RMM:   8    -0.230704881795E+04    0.14348E-04   -0.12754E-04  3473   0.750E-03    0.314E-02
RMM:   9    -0.230704881739E+04    0.56178E-06   -0.41952E-05  2929   0.582E-03
  19 F= -.23274280E+04 E0= -.23274280E+04  d E =-.399084E-01  mag=     4.0000
       N       E                     dE             d eps       ncg     rms          rms(c)
DAV:   1    -0.230697661598E+04    0.72202E-01   -0.79232E+00  4440   0.228E+00    0.733E-01
RMM:   2    -0.230706716704E+04   -0.90551E-01   -0.97334E-01  5901   0.467E-01    0.433E-01
RMM:   3    -0.230707263749E+04   -0.54704E-02   -0.85405E-02  5491   0.148E-01    0.406E-01
RMM:   4    -0.230707305176E+04   -0.41426E-03   -0.11425E-02  5407   0.327E-02    0.419E-01
RMM:   5    -0.230707204454E+04    0.10072E-02   -0.11970E-03  4415   0.175E-02    0.175E-01
RMM:   6    -0.230707177753E+04    0.26701E-03   -0.12983E-03  4580   0.192E-02    0.130E-01
RMM:   7    -0.230707173423E+04    0.43301E-04   -0.33013E-04  3876   0.152E-02    0.370E-02
RMM:   8    -0.230707173129E+04    0.29397E-05   -0.57794E-05  3024   0.494E-03
  20 F= -.23274510E+04 E0= -.23274510E+04  d E =-.230136E-01  mag=     4.0000
       N       E                     dE             d eps       ncg     rms          rms(c)
DAV:   1    -0.230655944573E+04    0.51229E+00   -0.43004E+01  4408   0.532E+00    0.173E+00
RMM:   2    -0.230707866318E+04   -0.51922E+00   -0.54830E+00  5950   0.113E+00    0.162E+00
RMM:   3    -0.230711286229E+04   -0.34199E-01   -0.51575E-01  5714   0.355E-01    0.188E+00
RMM:   4    -0.230709808651E+04    0.14776E-01   -0.68408E-02  5878   0.893E-02    0.841E-01
RMM:   5    -0.230709357999E+04    0.45065E-02   -0.77922E-03  5096   0.413E-02    0.390E-01
RMM:   6    -0.230709213234E+04    0.14476E-02   -0.63322E-03  4763   0.430E-02    0.269E-01
RMM:   7    -0.230709191430E+04    0.21804E-03   -0.17969E-03  4694   0.342E-02    0.117E-01
RMM:   8    -0.230709188205E+04    0.32251E-04   -0.24176E-04  3866   0.994E-03    0.469E-02
RMM:   9    -0.230709187848E+04    0.35644E-05   -0.57581E-05  2987   0.735E-03
  21 F= -.23274710E+04 E0= -.23274710E+04  d E =-.429950E-01  mag=     4.0000
       N       E                     dE             d eps       ncg     rms          rms(c)
DAV:   1    -0.230689706512E+04    0.19482E+00   -0.14551E+01  4424   0.308E+00    0.106E+00
RMM:   2    -0.230710565753E+04   -0.20859E+00   -0.21465E+00  6007   0.658E-01    0.141E+00
RMM:   3    -0.230711464691E+04   -0.89894E-02   -0.21753E-01  5743   0.217E-01    0.121E+00
RMM:   4    -0.230710825114E+04    0.63958E-02   -0.27671E-02  5626   0.539E-02    0.385E-01
RMM:   5    -0.230710706737E+04    0.11838E-02   -0.25825E-03  4764   0.243E-02    0.220E-01
RMM:   6    -0.230710664548E+04    0.42189E-03   -0.23167E-03  4819   0.258E-02    0.149E-01
RMM:   7    -0.230710659007E+04    0.55408E-04   -0.52780E-04  4312   0.188E-02    0.547E-02
RMM:   8    -0.230710658169E+04    0.83810E-05   -0.64684E-05  2996   0.534E-03
  22 F= -.23274849E+04 E0= -.23274849E+04  d E =-.139722E-01  mag=     4.0000
       N       E                     dE             d eps       ncg     rms          rms(c)
DAV:   1    -0.230644690771E+04    0.65968E+00   -0.45369E+01  4408   0.547E+00    0.196E+00
RMM:   2    -0.230716088698E+04   -0.71398E+00   -0.71009E+00  6067   0.120E+00    0.324E+00
RMM:   3    -0.230713344424E+04    0.27443E-01   -0.66047E-01  5804   0.377E-01    0.168E+00
RMM:   4    -0.230712372219E+04    0.97221E-02   -0.79100E-02  5634   0.911E-02    0.675E-01
RMM:   5    -0.230712011747E+04    0.36047E-02   -0.72769E-03  5022   0.423E-02    0.406E-01
RMM:   6    -0.230711859646E+04    0.15210E-02   -0.65488E-03  4931   0.436E-02    0.179E-01
RMM:   7    -0.230711864568E+04   -0.49217E-04   -0.13476E-03  4820   0.289E-02    0.120E-01
RMM:   8    -0.230711861027E+04    0.35411E-04   -0.18562E-04  3528   0.891E-03    0.423E-02
RMM:   9    -0.230711862074E+04   -0.10470E-04   -0.55278E-05  2949   0.599E-03    0.342E-02
RMM:  10    -0.230711862260E+04   -0.18597E-05   -0.35262E-05  2894   0.420E-03
  23 F= -.23274952E+04 E0= -.23274952E+04  d E =-.242280E-01  mag=     4.0000
       N       E                     dE             d eps       ncg     rms          rms(c)
DAV:   1    -0.230687678113E+04    0.24184E+00   -0.14594E+01  4464   0.316E+00    0.141E+00
RMM:   2    -0.230722645867E+04   -0.34968E+00   -0.29216E+00  6013   0.752E-01    0.385E+00
RMM:   3    -0.230714823268E+04    0.78226E-01   -0.27866E-01  5711   0.247E-01    0.739E-01
RMM:   4    -0.230714860974E+04   -0.37706E-03   -0.38094E-02  5207   0.567E-02    0.343E-01
RMM:   5    -0.230714770689E+04    0.90285E-03   -0.27301E-03  4914   0.288E-02    0.393E-01
RMM:   6    -0.230714666835E+04    0.10385E-02   -0.36708E-03  5177   0.315E-02    0.157E-01
RMM:   7    -0.230714656788E+04    0.10047E-03   -0.36802E-04  4343   0.158E-02    0.460E-02
RMM:   8    -0.230714657729E+04   -0.94126E-05   -0.52222E-05  3101   0.536E-03
  24 F= -.23275216E+04 E0= -.23275216E+04  d E =-.264153E-01  mag=     4.0000
       N       E                     dE             d eps       ncg     rms          rms(c)
DAV:   1    -0.230708435419E+04    0.62214E-01   -0.36201E+00  4512   0.156E+00    0.681E-01
RMM:   2    -0.230716468854E+04   -0.80334E-01   -0.69517E-01  5993   0.367E-01    0.177E+00
RMM:   3    -0.230715119075E+04    0.13498E-01   -0.64552E-02  5670   0.119E-01    0.439E-01
RMM:   4    -0.230715092078E+04    0.26997E-03   -0.86904E-03  5046   0.281E-02    0.172E-01
RMM:   5    -0.230715063895E+04    0.28183E-03   -0.66178E-04  4371   0.146E-02    0.164E-01
RMM:   6    -0.230715044264E+04    0.19632E-03   -0.90057E-04  4707   0.165E-02    0.572E-02
RMM:   7    -0.230715042675E+04    0.15885E-04   -0.86791E-05  3063   0.912E-03    0.148E-02
RMM:   8    -0.230715042630E+04    0.44936E-06   -0.12558E-05  2868   0.333E-03
  25 F= -.23275246E+04 E0= -.23275246E+04  d E =-.294247E-01  mag=     4.0000
       N       E                     dE             d eps       ncg     rms          rms(c)
DAV:   1    -0.230689859749E+04    0.25183E+00   -0.12276E+01  4420   0.291E+00    0.156E+00
RMM:   2    -0.230733951459E+04   -0.44092E+00   -0.31643E+00  6129   0.748E-01    0.521E+00
RMM:   3    -0.230717870643E+04    0.16081E+00   -0.30902E-01  5585   0.247E-01    0.612E-01
RMM:   4    -0.230718053792E+04   -0.18315E-02   -0.45756E-02  5293   0.594E-02    0.352E-01
RMM:   5    -0.230718004414E+04    0.49378E-03   -0.25101E-03  4874   0.257E-02    0.421E-01
RMM:   6    -0.230717876158E+04    0.12826E-02   -0.28455E-03  5217   0.263E-02    0.109E-01
RMM:   7    -0.230717878028E+04   -0.18698E-04   -0.66187E-04  4311   0.152E-02    0.117E-01
RMM:   8    -0.230717873629E+04    0.43989E-04   -0.93187E-05  3174   0.676E-03    0.361E-02
RMM:   9    -0.230717873847E+04   -0.21828E-05   -0.19011E-05  2870   0.452E-03
  26 F= -.23275519E+04 E0= -.23275519E+04  d E =-.272391E-01  mag=     4.0000
       N       E                     dE             d eps       ncg     rms          rms(c)
DAV:   1    -0.230610825807E+04    0.10705E+01   -0.47560E+01  4416   0.573E+00    0.353E+00
RMM:   2    -0.230835474023E+04   -0.22465E+01   -0.14705E+01  6235   0.158E+00    0.119E+01
RMM:   3    -0.230719967881E+04    0.11551E+01   -0.12549E+00  5676   0.506E-01    0.135E+00
RMM:   4    -0.230720746853E+04   -0.77897E-02   -0.19701E-01  5481   0.129E-01    0.701E-01
RMM:   5    -0.230720764870E+04   -0.18017E-03   -0.10047E-02  5047   0.522E-02    0.941E-01
RMM:   6    -0.230720215537E+04    0.54933E-02   -0.10425E-02  5369   0.482E-02    0.293E-01
RMM:   7    -0.230720239024E+04   -0.23487E-03   -0.28209E-03  4965   0.297E-02    0.384E-01
RMM:   8    -0.230720180673E+04    0.58350E-03   -0.77531E-04  4490   0.156E-02    0.911E-02
RMM:   9    -0.230720180549E+04    0.12426E-05   -0.17750E-04  3673   0.100E-02    0.312E-02
RMM:  10    -0.230720180861E+04   -0.31163E-05   -0.32820E-05  2906   0.532E-03
  27 F= -.23275724E+04 E0= -.23275724E+04  d E =-.478292E-01  mag=     4.0000
       N       E                     dE             d eps       ncg     rms          rms(c)
DAV:   1    -0.230696147815E+04    0.24033E+00   -0.11081E+01  4448   0.284E+00    0.143E+00
RMM:   2    -0.230733072115E+04   -0.36924E+00   -0.29084E+00  6084   0.737E-01    0.442E+00
RMM:   3    -0.230722676521E+04    0.10396E+00   -0.27336E-01  5522   0.249E-01    0.687E-01
RMM:   4    -0.230722774296E+04   -0.97775E-03   -0.40213E-02  5426   0.593E-02    0.331E-01
RMM:   5    -0.230722702025E+04    0.72271E-03   -0.21690E-03  4862   0.245E-02    0.337E-01
RMM:   6    -0.230722608529E+04    0.93496E-03   -0.24868E-03  5216   0.262E-02    0.958E-02
RMM:   7    -0.230722609864E+04   -0.13346E-04   -0.46188E-04  4368   0.150E-02    0.950E-02
RMM:   8    -0.230722607712E+04    0.21520E-04   -0.75012E-05  3085   0.658E-03    0.232E-02
RMM:   9    -0.230722608352E+04   -0.64068E-05   -0.15872E-05  2857   0.413E-03
  28 F= -.23275959E+04 E0= -.23275959E+04  d E =-.234105E-01  mag=     4.0000
       N       E                     dE             d eps       ncg     rms          rms(c)
DAV:   1    -0.230688674576E+04    0.33933E+00   -0.14566E+01  4408   0.328E+00    0.166E+00
RMM:   2    -0.230737765606E+04   -0.49091E+00   -0.38702E+00  6105   0.862E-01    0.506E+00
RMM:   3    -0.230723545513E+04    0.14220E+00   -0.35804E-01  5514   0.283E-01    0.748E-01
RMM:   4    -0.230723684559E+04   -0.13905E-02   -0.53282E-02  5477   0.684E-02    0.372E-01
RMM:   5    -0.230723594323E+04    0.90236E-03   -0.28074E-03  4906   0.281E-02    0.382E-01
RMM:   6    -0.230723470761E+04    0.12356E-02   -0.32356E-03  5268   0.300E-02    0.110E-01
RMM:   7    -0.230723472756E+04   -0.19955E-04   -0.59284E-04  4505   0.172E-02    0.113E-01
RMM:   8    -0.230723469194E+04    0.35623E-04   -0.10374E-04  3280   0.746E-03    0.259E-02
RMM:   9    -0.230723469880E+04   -0.68575E-05   -0.21671E-05  2866   0.473E-03
  29 F= -.23276034E+04 E0= -.23276034E+04  d E =-.309429E-01  mag=     4.0000
       N       E                     dE             d eps       ncg     rms          rms(c)
DAV:   1    -0.230705993101E+04    0.17476E+00   -0.89994E+00  4432   0.249E+00    0.977E-01
RMM:   2    -0.230724758108E+04   -0.18765E+00   -0.19366E+00  6127   0.603E-01    0.123E+00
RMM:   3    -0.230726037445E+04   -0.12793E-01   -0.18341E-01  5721   0.197E-01    0.124E+00
RMM:   4    -0.230725374211E+04    0.66323E-02   -0.23625E-02  5673   0.506E-02    0.337E-01
RMM:   5    -0.230725293590E+04    0.80622E-03   -0.19647E-03  4600   0.197E-02    0.195E-01
RMM:   6    -0.230725257753E+04    0.35837E-03   -0.12907E-03  4862   0.192E-02    0.161E-01
RMM:   7    -0.230725245953E+04    0.11799E-03   -0.49998E-04  4329   0.156E-02    0.538E-02
RMM:   8    -0.230725245292E+04    0.66147E-05   -0.60301E-05  2994   0.538E-03
  30 F= -.23276200E+04 E0= -.23276200E+04  d E =-.166580E-01  mag=     4.0000
       N       E                     dE             d eps       ncg     rms          rms(c)
DAV:   1    -0.230545671033E+04    0.17957E+01   -0.81459E+01  4408   0.752E+00    0.347E+00
RMM:   2    -0.230777109521E+04   -0.23144E+01   -0.20464E+01  6268   0.197E+00    0.857E+00
RMM:   3    -0.230726494837E+04    0.50615E+00   -0.19251E+00  5622   0.650E-01    0.161E+00
RMM:   4    -0.230727799730E+04   -0.13049E-01   -0.26680E-01  5626   0.153E-01    0.871E-01
RMM:   5    -0.230727681650E+04    0.11808E-02   -0.13084E-02  4991   0.572E-02    0.988E-01
RMM:   6    -0.230727007748E+04    0.67390E-02   -0.16033E-02  5395   0.620E-02    0.378E-01
RMM:   7    -0.230726952450E+04    0.55298E-03   -0.33609E-03  4993   0.354E-02    0.205E-01
RMM:   8    -0.230726948914E+04    0.35361E-04   -0.73449E-04  4640   0.188E-02    0.807E-02
RMM:   9    -0.230726951959E+04   -0.30447E-04   -0.19079E-04  3916   0.116E-02    0.641E-02
RMM:  10    -0.230726951120E+04    0.83870E-05   -0.50477E-05  3038   0.598E-03
  31 F= -.23276336E+04 E0= -.23276336E+04  d E =-.302068E-01  mag=     4.0000
       N       E                     dE             d eps       ncg     rms          rms(c)
DAV:   1    -0.230716498281E+04    0.10454E+00   -0.50653E+00  4480   0.188E+00    0.713E-01
RMM:   2    -0.230726524143E+04   -0.10026E+00   -0.10494E+00  6044   0.433E-01    0.719E-01
RMM:   3    -0.230727592486E+04   -0.10683E-01   -0.96781E-02  5764   0.145E-01    0.101E+00
RMM:   4    -0.230727109446E+04    0.48304E-02   -0.11823E-02  5448   0.386E-02    0.231E-01
RMM:   5    -0.230727071284E+04    0.38162E-03   -0.11967E-03  4262   0.151E-02    0.143E-01
RMM:   6    -0.230727043656E+04    0.27628E-03   -0.79710E-04  4841   0.157E-02    0.544E-02
RMM:   7    -0.230727042889E+04    0.76649E-05   -0.18401E-04  3500   0.114E-02    0.222E-02
RMM:   8    -0.230727043122E+04   -0.23263E-05   -0.32559E-05  2911   0.453E-03
  32 F= -.23276354E+04 E0= -.23276354E+04  d E =-.320307E-01  mag=     4.0000
       N       E                     dE             d eps       ncg     rms          rms(c)
DAV:   1    -0.230722375916E+04    0.46670E-01   -0.29575E+00  4480   0.139E+00    0.521E-01
RMM:   2    -0.230727826295E+04   -0.54504E-01   -0.58029E-01  6177   0.328E-01    0.321E-01
RMM:   3    -0.230728449282E+04   -0.62299E-02   -0.54889E-02  5669   0.103E-01    0.655E-01
RMM:   4    -0.230728261178E+04    0.18810E-02   -0.68932E-03  4369   0.256E-02    0.153E-01
RMM:   5    -0.230728238214E+04    0.22963E-03   -0.45084E-04  3643   0.101E-02    0.110E-01
RMM:   6    -0.230728220281E+04    0.17934E-03   -0.61821E-04  4562   0.136E-02    0.286E-02
RMM:   7    -0.230728220555E+04   -0.27396E-05   -0.61511E-05  3074   0.833E-03
  33 F= -.23276465E+04 E0= -.23276465E+04  d E =-.111047E-01  mag=     4.0000
       N       E                     dE             d eps       ncg     rms          rms(c)
DAV:   1    -0.230676804882E+04    0.51415E+00   -0.26677E+01  4408   0.420E+00    0.159E+00
RMM:   2    -0.230728409675E+04   -0.51605E+00   -0.54458E+00  6232   0.102E+00    0.139E+00
RMM:   3    -0.230732723278E+04   -0.43136E-01   -0.52704E-01  5738   0.323E-01    0.189E+00
RMM:   4    -0.230731330099E+04    0.13932E-01   -0.63500E-02  5968   0.824E-02    0.714E-01
RMM:   5    -0.230731041491E+04    0.28861E-02   -0.53190E-03  5058   0.295E-02    0.366E-01
RMM:   6    -0.230730907855E+04    0.13364E-02   -0.36811E-03  5000   0.290E-02    0.286E-01
RMM:   7    -0.230730858076E+04    0.49778E-03   -0.22051E-03  5042   0.268E-02    0.880E-02
RMM:   8    -0.230730859597E+04   -0.15210E-04   -0.24590E-04  3888   0.993E-03    0.660E-02
RMM:   9    -0.230730857240E+04    0.23574E-04   -0.52463E-05  2932   0.595E-03    0.267E-02
RMM:  10    -0.230730857039E+04    0.20057E-05   -0.25889E-05  2864   0.368E-03
  34 F= -.23276708E+04 E0= -.23276708E+04  d E =-.354043E-01  mag=     4.0000
       N       E                     dE             d eps       ncg     rms          rms(c)
DAV:   1    -0.230503954504E+04    0.22690E+01   -0.10764E+02  4408   0.845E+00    0.362E+00
RMM:   2    -0.230770142517E+04   -0.26619E+01   -0.24750E+01  6319   0.211E+00    0.802E+00
RMM:   3    -0.230730818422E+04    0.39324E+00   -0.23837E+00  5761   0.691E-01    0.201E+00
RMM:   4    -0.230732127818E+04   -0.13094E-01   -0.29147E-01  5559   0.159E-01    0.104E+00
RMM:   5    -0.230731781229E+04    0.34659E-02   -0.15701E-02  4915   0.579E-02    0.977E-01
RMM:   6    -0.230731093569E+04    0.68766E-02   -0.18861E-02  5201   0.650E-02    0.500E-01
RMM:   7    -0.230730947229E+04    0.14634E-02   -0.46497E-03  5193   0.402E-02    0.215E-01
RMM:   8    -0.230730948968E+04   -0.17397E-04   -0.16681E-03  4922   0.227E-02    0.132E-01
RMM:   9    -0.230730944622E+04    0.43467E-04   -0.28392E-04  3813   0.146E-02    0.795E-02
RMM:  10    -0.230730943346E+04    0.12758E-04   -0.85287E-05  3070   0.639E-03    0.286E-02
RMM:  11    -0.230730943680E+04   -0.33389E-05   -0.24109E-05  2929   0.391E-03
  35 F= -.23276674E+04 E0= -.23276674E+04  d E =-.319536E-01  mag=     4.0000
       N       E                     dE             d eps       ncg     rms          rms(c)
DAV:   1    -0.230662262315E+04    0.68681E+00   -0.34207E+01  4408   0.474E+00    0.215E+00
RMM:   2    -0.230748353913E+04   -0.86092E+00   -0.74107E+00  6153   0.113E+00    0.576E+00
RMM:   3    -0.230731913785E+04    0.16440E+00   -0.80367E-01  5848   0.426E-01    0.115E+00
RMM:   4    -0.230732282271E+04   -0.36849E-02   -0.89671E-02  5266   0.849E-02    0.545E-01
RMM:   5    -0.230732121837E+04    0.16043E-02   -0.57384E-03  5074   0.375E-02    0.600E-01
RMM:   6    -0.230731882761E+04    0.23908E-02   -0.67610E-03  5103   0.394E-02    0.309E-01
RMM:   7    -0.230731837779E+04    0.44981E-03   -0.14558E-03  4916   0.234E-02    0.864E-02
RMM:   8    -0.230731840205E+04   -0.24255E-04   -0.18257E-04  3893   0.904E-03    0.573E-02
RMM:   9    -0.230731839053E+04    0.11520E-04   -0.40811E-05  2949   0.586E-03    0.432E-02
RMM:  10    -0.230731837989E+04    0.10637E-04   -0.34516E-05  2872   0.355E-03    0.107E-02
RMM:  11    -0.230731838128E+04   -0.13877E-05   -0.80065E-06  2845   0.239E-03
  36 F= -.23276788E+04 E0= -.23276788E+04  d E =-.433620E-01  mag=     4.0000
       N       E                     dE             d eps       ncg     rms          rms(c)
DAV:   1    -0.230729692678E+04    0.21453E-01   -0.17185E+00  4464   0.112E+00    0.464E-01
RMM:   2    -0.230733104154E+04   -0.34115E-01   -0.33327E-01  5917   0.266E-01    0.786E-01
RMM:   3    -0.230733228346E+04   -0.12419E-02   -0.30961E-02  5718   0.889E-02    0.630E-01
RMM:   4    -0.230733035141E+04    0.19321E-02   -0.38984E-03  5107   0.247E-02    0.115E-01
RMM:   5    -0.230733020888E+04    0.14253E-03   -0.47521E-04  4137   0.120E-02    0.767E-02
RMM:   6    -0.230733012371E+04    0.85166E-04   -0.34760E-04  4600   0.126E-02    0.304E-02
RMM:   7    -0.230733011884E+04    0.48727E-05   -0.32816E-05  2921   0.792E-03
  37 F= -.23276903E+04 E0= -.23276903E+04  d E =-.115132E-01  mag=     4.0000
       N       E                     dE             d eps       ncg     rms          rms(c)
DAV:   1    -0.230705248434E+04    0.27764E+00   -0.14719E+01  4408   0.328E+00    0.133E+00
RMM:   2    -0.230733467969E+04   -0.28220E+00   -0.29069E+00  5966   0.790E-01    0.156E+00
RMM:   3    -0.230737504389E+04   -0.40364E-01   -0.31198E-01  5809   0.268E-01    0.233E+00
RMM:   4    -0.230734660950E+04    0.28434E-01   -0.36135E-02  5956   0.760E-02    0.371E-01
RMM:   5    -0.230734550722E+04    0.11023E-02   -0.56176E-03  5144   0.327E-02    0.253E-01
RMM:   6    -0.230734456670E+04    0.94051E-03   -0.27833E-03  5009   0.308E-02    0.922E-02
RMM:   7    -0.230734452121E+04    0.45493E-04   -0.55180E-04  4689   0.195E-02    0.467E-02
RMM:   8    -0.230734451679E+04    0.44241E-05   -0.83849E-05  3524   0.712E-03
  38 F= -.23277040E+04 E0= -.23277040E+04  d E =-.252244E-01  mag=     4.0000
       N       E                     dE             d eps       ncg     rms          rms(c)
DAV:   1    -0.230727261758E+04    0.71904E-01   -0.40925E+00  4432   0.172E+00    0.732E-01
RMM:   2    -0.230736002333E+04   -0.87406E-01   -0.86089E-01  6063   0.415E-01    0.119E+00
RMM:   3    -0.230736467595E+04   -0.46526E-02   -0.83829E-02  5829   0.137E-01    0.101E+00
RMM:   4    -0.230735974057E+04    0.49354E-02   -0.10398E-02  5540   0.379E-02    0.180E-01
RMM:   5    -0.230735945165E+04    0.28892E-03   -0.11770E-03  4404   0.155E-02    0.124E-01
RMM:   6    -0.230735924630E+04    0.20535E-03   -0.73144E-04  4888   0.168E-02    0.542E-02
RMM:   7    -0.230735923507E+04    0.11232E-04   -0.90890E-05  3287   0.980E-03    0.174E-02
RMM:   8    -0.230735923589E+04   -0.82418E-06   -0.15966E-05  2860   0.391E-03
  39 F= -.23277186E+04 E0= -.23277186E+04  d E =-.146375E-01  mag=     4.0000
       N       E                     dE             d eps       ncg     rms          rms(c)
DAV:   1    -0.230690102387E+04    0.45821E+00   -0.21601E+01  4408   0.396E+00    0.164E+00
RMM:   2    -0.230735532135E+04   -0.45430E+00   -0.46530E+00  6057   0.971E-01    0.197E+00
RMM:   3    -0.230741401325E+04   -0.58692E-01   -0.48977E-01  5848   0.319E-01    0.275E+00
RMM:   4    -0.230737362485E+04    0.40388E-01   -0.56248E-02  6035   0.902E-02    0.454E-01
RMM:   5    -0.230737215144E+04    0.14734E-02   -0.76637E-03  5225   0.347E-02    0.313E-01
RMM:   6    -0.230737080225E+04    0.13492E-02   -0.30561E-03  5002   0.316E-02    0.129E-01
RMM:   7    -0.230737067964E+04    0.12261E-03   -0.99893E-04  4953   0.228E-02    0.615E-02
RMM:   8    -0.230737066865E+04    0.10989E-04   -0.12049E-04  3831   0.863E-03    0.359E-02
RMM:   9    -0.230737065528E+04    0.13368E-04   -0.30176E-05  2946   0.598E-03    0.175E-02
RMM:  10    -0.230737065084E+04    0.44461E-05   -0.17404E-05  2866   0.375E-03
  40 F= -.23277298E+04 E0= -.23277298E+04  d E =-.257632E-01  mag=     4.0000
       N       E                     dE             d eps       ncg     rms          rms(c)
DAV:   1    -0.230729853286E+04    0.72122E-01   -0.41221E+00  4448   0.170E+00    0.682E-01
RMM:   2    -0.230737955106E+04   -0.81018E-01   -0.83527E-01  6091   0.397E-01    0.719E-01
RMM:   3    -0.230739069388E+04   -0.11143E-01   -0.85688E-02  5812   0.130E-01    0.110E+00
RMM:   4    -0.230738444398E+04    0.62499E-02   -0.10598E-02  5454   0.370E-02    0.174E-01
RMM:   5    -0.230738420198E+04    0.24200E-03   -0.11748E-03  4020   0.138E-02    0.123E-01
RMM:   6    -0.230738398127E+04    0.22071E-03   -0.63425E-04  4593   0.152E-02    0.493E-02
RMM:   7    -0.230738398022E+04    0.10511E-05   -0.12772E-04  3366   0.100E-02    0.212E-02
RMM:   8    -0.230738397917E+04    0.10463E-05   -0.18603E-05  2878   0.423E-03
  41 F= -.23277431E+04 E0= -.23277431E+04  d E =-.133731E-01  mag=     4.0000
       N       E                     dE             d eps       ncg     rms          rms(c)
DAV:   1    -0.230661067234E+04    0.77331E+00   -0.37049E+01  4408   0.511E+00    0.203E+00
RMM:   2    -0.230734469023E+04   -0.73402E+00   -0.77675E+00  6129   0.121E+00    0.980E-01
RMM:   3    -0.230741738700E+04   -0.72697E-01   -0.82364E-01  5712   0.381E-01    0.135E+00
RMM:   4    -0.230741407509E+04    0.33119E-02   -0.86271E-02  6150   0.790E-02    0.708E-01
RMM:   5    -0.230741107485E+04    0.30002E-02   -0.54349E-03  5035   0.324E-02    0.439E-01
RMM:   6    -0.230740871739E+04    0.23575E-02   -0.59680E-03  4899   0.371E-02    0.206E-01
RMM:   7    -0.230740839244E+04    0.32495E-03   -0.25211E-03  5088   0.305E-02    0.939E-02
RMM:   8    -0.230740836821E+04    0.24238E-04   -0.29464E-04  4315   0.128E-02    0.520E-02
RMM:   9    -0.230740835603E+04    0.12174E-04   -0.54839E-05  3054   0.689E-03    0.264E-02
RMM:  10    -0.230740835335E+04    0.26834E-05   -0.23797E-05  2860   0.402E-03
  42 F= -.23277675E+04 E0= -.23277675E+04  d E =-.377573E-01  mag=     4.0000
       N       E                     dE             d eps       ncg     rms          rms(c)
DAV:   1    -0.230724197970E+04    0.16638E+00   -0.81272E+00  4424   0.237E+00    0.952E-01
RMM:   2    -0.230740096154E+04   -0.15898E+00   -0.16541E+00  6085   0.548E-01    0.887E-01
RMM:   3    -0.230742534825E+04   -0.24387E-01   -0.17957E-01  5825   0.185E-01    0.160E+00
RMM:   4    -0.230741207288E+04    0.13275E-01   -0.21283E-02  5779   0.514E-02    0.251E-01
RMM:   5    -0.230741158113E+04    0.49176E-03   -0.23926E-03  4470   0.190E-02    0.178E-01
RMM:   6    -0.230741111596E+04    0.46516E-03   -0.12650E-03  4844   0.199E-02    0.681E-02
RMM:   7    -0.230741110418E+04    0.11781E-04   -0.30960E-04  4281   0.130E-02    0.363E-02
RMM:   8    -0.230741110038E+04    0.37981E-05   -0.38106E-05  2938   0.535E-03
  43 F= -.23277702E+04 E0= -.23277702E+04  d E =-.404454E-01  mag=     4.0000
       N       E                     dE             d eps       ncg     rms          rms(c)
DAV:   1    -0.230712785780E+04    0.28325E+00   -0.13259E+01  4408   0.307E+00    0.131E+00
RMM:   2    -0.230741397864E+04   -0.28612E+00   -0.29905E+00  6018   0.739E-01    0.106E+00
RMM:   3    -0.230745112456E+04   -0.37146E-01   -0.33450E-01  5699   0.267E-01    0.188E+00
RMM:   4    -0.230743588910E+04    0.15235E-01   -0.37682E-02  5994   0.661E-02    0.408E-01
RMM:   5    -0.230743459020E+04    0.12989E-02   -0.38566E-03  5071   0.261E-02    0.263E-01
RMM:   6    -0.230743380381E+04    0.78639E-03   -0.21934E-03  5047   0.245E-02    0.118E-01
RMM:   7    -0.230743371906E+04    0.84751E-04   -0.66343E-04  4673   0.177E-02    0.436E-02
RMM:   8    -0.230743370678E+04    0.12282E-04   -0.91098E-05  3310   0.728E-03    0.243E-02
RMM:   9    -0.230743370400E+04    0.27743E-05   -0.19266E-05  2916   0.489E-03
  44 F= -.23277932E+04 E0= -.23277932E+04  d E =-.230337E-01  mag=     4.0000
       N       E                     dE             d eps       ncg     rms          rms(c)
DAV:   1    -0.230734209147E+04    0.91615E-01   -0.41636E+00  4512   0.171E+00    0.725E-01
RMM:   2    -0.230742908458E+04   -0.86993E-01   -0.91985E-01  5971   0.405E-01    0.407E-01
RMM:   3    -0.230743919464E+04   -0.10110E-01   -0.96825E-02  5663   0.141E-01    0.757E-01
RMM:   4    -0.230743725893E+04    0.19357E-02   -0.11001E-02  5368   0.319E-02    0.231E-01
RMM:   5    -0.230743678670E+04    0.47223E-03   -0.83643E-04  4275   0.140E-02    0.142E-01
RMM:   6    -0.230743653555E+04    0.25115E-03   -0.79830E-04  4800   0.157E-02    0.452E-02
RMM:   7    -0.230743652554E+04    0.10012E-04   -0.13580E-04  3838   0.989E-03    0.219E-02
RMM:   8    -0.230743652255E+04    0.29821E-05   -0.22618E-05  2888   0.453E-03
  45 F= -.23277963E+04 E0= -.23277963E+04  d E =-.260477E-01  mag=     4.0000
       N       E                     dE             d eps       ncg     rms          rms(c)
DAV:   1    -0.230723829891E+04    0.19823E+00   -0.81517E+00  4408   0.235E+00    0.115E+00
RMM:   2    -0.230746770095E+04   -0.22940E+00   -0.21727E+00  6077   0.612E-01    0.220E+00
RMM:   3    -0.230746376901E+04    0.39319E-02   -0.24958E-01  5576   0.241E-01    0.120E+00
RMM:   4    -0.230745862940E+04    0.51396E-02   -0.26282E-02  5488   0.521E-02    0.277E-01
RMM:   5    -0.230745780509E+04    0.82431E-03   -0.19367E-03  4883   0.210E-02    0.182E-01
RMM:   6    -0.230745743612E+04    0.36897E-03   -0.13330E-03  4986   0.204E-02    0.747E-02
RMM:   7    -0.230745742508E+04    0.11044E-04   -0.16568E-04  3734   0.120E-02    0.507E-02
RMM:   8    -0.230745741955E+04    0.55244E-05   -0.41449E-05  2883   0.482E-03
  46 F= -.23278178E+04 E0= -.23278178E+04  d E =-.215439E-01  mag=     4.0000
       N       E                     dE             d eps       ncg     rms          rms(c)
DAV:   1    -0.230632154781E+04    0.11359E+01   -0.42001E+01  4408   0.535E+00    0.286E+00
RMM:   2    -0.230775688305E+04   -0.14353E+01   -0.12345E+01  6089   0.146E+00    0.704E+00
RMM:   3    -0.230747903342E+04    0.27785E+00   -0.12657E+00  5373   0.625E-01    0.159E+00
RMM:   4    -0.230747953187E+04   -0.49845E-03   -0.14845E-01  5544   0.123E-01    0.699E-01
RMM:   5    -0.230747606002E+04    0.34718E-02   -0.82908E-03  5078   0.478E-02    0.563E-01
RMM:   6    -0.230747293546E+04    0.31246E-02   -0.90467E-03  5311   0.470E-02    0.239E-01
RMM:   7    -0.230747278959E+04    0.14587E-03   -0.13280E-03  4822   0.275E-02    0.149E-01
RMM:   8    -0.230747274806E+04    0.41526E-04   -0.31999E-04  4256   0.122E-02    0.558E-02
RMM:   9    -0.230747274183E+04    0.62368E-05   -0.73698E-05  3186   0.828E-03
  47 F= -.23278341E+04 E0= -.23278341E+04  d E =-.378180E-01  mag=     4.0000
       N       E                     dE             d eps       ncg     rms          rms(c)
DAV:   1    -0.230728866303E+04    0.18409E+00   -0.75559E+00  4420   0.226E+00    0.109E+00
RMM:   2    -0.230750521549E+04   -0.21655E+00   -0.20543E+00  6064   0.598E-01    0.215E+00
RMM:   3    -0.230749602191E+04    0.91936E-02   -0.20562E-01  5592   0.216E-01    0.107E+00
RMM:   4    -0.230749180854E+04    0.42134E-02   -0.22916E-02  5398   0.477E-02    0.257E-01
RMM:   5    -0.230749103847E+04    0.77007E-03   -0.15597E-03  4660   0.191E-02    0.170E-01
RMM:   6    -0.230749067225E+04    0.36621E-03   -0.13873E-03  5033   0.208E-02    0.564E-02
RMM:   7    -0.230749066813E+04    0.41219E-05   -0.13260E-04  3564   0.114E-02    0.403E-02
RMM:   8    -0.230749066270E+04    0.54259E-05   -0.28254E-05  2876   0.404E-03
  48 F= -.23278523E+04 E0= -.23278523E+04  d E =-.182183E-01  mag=     4.0000
       N       E                     dE             d eps       ncg     rms          rms(c)
DAV:   1    -0.230561155658E+04    0.18791E+01   -0.68230E+01  4400   0.686E+00    0.362E+00
RMM:   2    -0.230807567667E+04   -0.24641E+01   -0.21179E+01  6174   0.190E+00    0.907E+00
RMM:   3    -0.230751162191E+04    0.56405E+00   -0.21520E+00  5387   0.806E-01    0.168E+00
RMM:   4    -0.230752145664E+04   -0.98347E-02   -0.26143E-01  5599   0.156E-01    0.916E-01
RMM:   5    -0.230751553070E+04    0.59259E-02   -0.13075E-02  5335   0.610E-02    0.716E-01
RMM:   6    -0.230750987645E+04    0.56543E-02   -0.12953E-02  5280   0.548E-02    0.301E-01
RMM:   7    -0.230750966624E+04    0.21021E-03   -0.31943E-03  4725   0.369E-02    0.236E-01
RMM:   8    -0.230750947799E+04    0.18825E-03   -0.71220E-04  4536   0.195E-02    0.659E-02
RMM:   9    -0.230750945917E+04    0.18821E-04   -0.14063E-04  3601   0.964E-03    0.415E-02
RMM:  10    -0.230750944462E+04    0.14545E-04   -0.52979E-05  3091   0.600E-03    0.152E-02
RMM:  11    -0.230750944372E+04    0.90117E-06   -0.18119E-05  2908   0.412E-03
  49 F= -.23278712E+04 E0= -.23278712E+04  d E =-.371618E-01  mag=     4.0000
       N       E                     dE             d eps       ncg     rms          rms(c)
DAV:   1    -0.230713870278E+04    0.37074E+00   -0.16705E+01  4408   0.335E+00    0.145E+00
RMM:   2    -0.230751820773E+04   -0.37950E+00   -0.39472E+00  6067   0.858E-01    0.145E+00
RMM:   3    -0.230755389932E+04   -0.35692E-01   -0.41605E-01  5736   0.280E-01    0.191E+00
RMM:   4    -0.230753557366E+04    0.18326E-01   -0.46305E-02  5645   0.716E-02    0.429E-01
RMM:   5    -0.230753401010E+04    0.15636E-02   -0.45646E-03  5130   0.295E-02    0.283E-01
RMM:   6    -0.230753299512E+04    0.10150E-02   -0.28527E-03  5045   0.272E-02    0.141E-01
RMM:   7    -0.230753287423E+04    0.12089E-03   -0.77205E-04  4676   0.193E-02    0.483E-02
RMM:   8    -0.230753286466E+04    0.95682E-05   -0.89020E-05  3332   0.719E-03
  50 F= -.23278945E+04 E0= -.23278945E+04  d E =-.232242E-01  mag=     4.0000
       N       E                     dE             d eps       ncg     rms          rms(c)
DAV:   1    -0.230699960774E+04    0.53327E+00   -0.22846E+01  4408   0.393E+00    0.170E+00
RMM:   2    -0.230752531132E+04   -0.52570E+00   -0.54741E+00  6084   0.100E+00    0.173E+00
RMM:   3    -0.230756885277E+04   -0.43541E-01   -0.56658E-01  5743   0.321E-01    0.217E+00
RMM:   4    -0.230754582480E+04    0.23028E-01   -0.62904E-02  5635   0.826E-02    0.525E-01
RMM:   5    -0.230754368287E+04    0.21419E-02   -0.62284E-03  5270   0.336E-02    0.350E-01
RMM:   6    -0.230754225790E+04    0.14250E-02   -0.37580E-03  5074   0.305E-02    0.200E-01
RMM:   7    -0.230754198790E+04    0.27000E-03   -0.14077E-03  4868   0.238E-02    0.616E-02
RMM:   8    -0.230754197431E+04    0.13588E-04   -0.16022E-04  3622   0.890E-03    0.464E-02
RMM:   9    -0.230754195751E+04    0.16797E-04   -0.38800E-05  2926   0.622E-03    0.212E-02
RMM:  10    -0.230754195368E+04    0.38323E-05   -0.20979E-05  2871   0.381E-03
  51 F= -.23279031E+04 E0= -.23279031E+04  d E =-.318141E-01  mag=     4.0000
       N       E                     dE             d eps       ncg     rms          rms(c)
DAV:   1    -0.230734411236E+04    0.19785E+00   -0.11384E+01  4408   0.269E+00    0.113E+00
RMM:   2    -0.230755969603E+04   -0.21558E+00   -0.22593E+00  6033   0.673E-01    0.907E-01
RMM:   3    -0.230758860035E+04   -0.28904E-01   -0.21854E-01  5701   0.197E-01    0.182E+00
RMM:   4    -0.230757088229E+04    0.17718E-01   -0.27284E-02  5713   0.576E-02    0.307E-01
RMM:   5    -0.230757011307E+04    0.76923E-03   -0.36121E-03  4813   0.227E-02    0.213E-01
RMM:   6    -0.230756948733E+04    0.62574E-03   -0.20786E-03  5051   0.249E-02    0.744E-02
RMM:   7    -0.230756947412E+04    0.13208E-04   -0.43141E-04  4503   0.146E-02    0.389E-02
RMM:   8    -0.230756946877E+04    0.53472E-05   -0.61181E-05  2964   0.596E-03
  52 F= -.23279305E+04 E0= -.23279305E+04  d E =-.274032E-01  mag=     4.0000
       N       E                     dE             d eps       ncg     rms          rms(c)
DAV:   1    -0.230639530993E+04    0.11742E+01   -0.58298E+01  4408   0.608E+00    0.255E+00
RMM:   2    -0.230751583914E+04   -0.11205E+01   -0.11907E+01  6060   0.157E+00    0.121E+00
RMM:   3    -0.230759266575E+04   -0.76827E-01   -0.11402E+00  5724   0.456E-01    0.857E-01
RMM:   4    -0.230759632883E+04   -0.36631E-02   -0.10895E-01  5628   0.903E-02    0.658E-01
RMM:   5    -0.230759910217E+04   -0.27733E-02   -0.96152E-03  5424   0.432E-02    0.109E+00
RMM:   6    -0.230759205049E+04    0.70517E-02   -0.56784E-03  5390   0.348E-02    0.344E-01
RMM:   7    -0.230759092067E+04    0.11298E-02   -0.55598E-03  5385   0.355E-02    0.133E-01
RMM:   8    -0.230759089335E+04    0.27321E-04   -0.66622E-04  4819   0.188E-02    0.806E-02
RMM:   9    -0.230759089254E+04    0.81178E-06   -0.10933E-04  3553   0.860E-03    0.374E-02
RMM:  10    -0.230759088432E+04    0.82233E-05   -0.40891E-05  2892   0.593E-03
  53 F= -.23279512E+04 E0= -.23279512E+04  d E =-.481074E-01  mag=     4.0000
       N       E                     dE             d eps       ncg     rms          rms(c)
DAV:   1    -0.230744558922E+04    0.14530E+00   -0.81515E+00  4448   0.223E+00    0.970E-01
RMM:   2    -0.230760793179E+04   -0.16234E+00   -0.16717E+00  6050   0.572E-01    0.108E+00
RMM:   3    -0.230762698592E+04   -0.19054E-01   -0.16179E-01  5726   0.168E-01    0.165E+00
RMM:   4    -0.230761315968E+04    0.13826E-01   -0.20175E-02  5618   0.504E-02    0.254E-01
RMM:   5    -0.230761262761E+04    0.53207E-03   -0.28635E-03  4642   0.191E-02    0.177E-01
RMM:   6    -0.230761220256E+04    0.42505E-03   -0.14529E-03  5062   0.206E-02    0.579E-02
RMM:   7    -0.230761220245E+04    0.11062E-06   -0.23212E-04  3920   0.114E-02    0.285E-02
RMM:   8    -0.230761220467E+04   -0.22204E-05   -0.37059E-05  2891   0.487E-03
  54 F= -.23279722E+04 E0= -.23279722E+04  d E =-.210726E-01  mag=     4.0000
       N       E                     dE             d eps       ncg     rms          rms(c)
DAV:   1    -0.230691662078E+04    0.69558E+00   -0.34331E+01  4408   0.457E+00    0.197E+00
RMM:   2    -0.230758936936E+04   -0.67275E+00   -0.71017E+00  6062   0.118E+00    0.133E+00
RMM:   3    -0.230768609654E+04   -0.96727E-01   -0.70896E-01  5703   0.346E-01    0.317E+00
RMM:   4    -0.230763674734E+04    0.49349E-01   -0.80722E-02  6029   0.941E-02    0.573E-01
RMM:   5    -0.230763465431E+04    0.20930E-02   -0.92195E-03  5313   0.355E-02    0.422E-01
RMM:   6    -0.230763268433E+04    0.19700E-02   -0.53661E-03  5142   0.355E-02    0.207E-01
RMM:   7    -0.230763244583E+04    0.23851E-03   -0.22194E-03  5171   0.264E-02    0.853E-02
RMM:   8    -0.230763244843E+04   -0.26004E-05   -0.27602E-04  4093   0.119E-02    0.478E-02
RMM:   9    -0.230763245170E+04   -0.32722E-05   -0.50954E-05  2992   0.624E-03
  55 F= -.23279918E+04 E0= -.23279918E+04  d E =-.406783E-01  mag=     4.0000
       N       E                     dE             d eps       ncg     rms          rms(c)
DAV:   1    -0.230762206954E+04    0.10379E-01   -0.15111E+00  4560   0.106E+00    0.443E-01
RMM:   2    -0.230764911744E+04   -0.27048E-01   -0.26588E-01  5852   0.251E-01    0.729E-01
RMM:   3    -0.230765009195E+04   -0.97451E-03   -0.27609E-02  5626   0.811E-02    0.599E-01
RMM:   4    -0.230764828693E+04    0.18050E-02   -0.31066E-03  5122   0.237E-02    0.110E-01
RMM:   5    -0.230764815332E+04    0.13361E-03   -0.47719E-04  4415   0.132E-02    0.690E-02
RMM:   6    -0.230764810236E+04    0.50962E-04   -0.29176E-04  4545   0.123E-02    0.213E-02
RMM:   7    -0.230764810164E+04    0.71524E-06   -0.26603E-05  2906   0.807E-03
  56 F= -.23280074E+04 E0= -.23280074E+04  d E =-.155879E-01  mag=     4.0000
       N       E                     dE             d eps       ncg     rms          rms(c)
DAV:   1    -0.230741892719E+04    0.22918E+00   -0.13585E+01  4408   0.319E+00    0.128E+00
RMM:   2    -0.230764991513E+04   -0.23099E+00   -0.24120E+00  5860   0.763E-01    0.139E+00
RMM:   3    -0.230768720400E+04   -0.37289E-01   -0.27404E-01  5657   0.238E-01    0.228E+00
RMM:   4    -0.230765953174E+04    0.27672E-01   -0.28850E-02  5668   0.722E-02    0.351E-01
RMM:   5    -0.230765834067E+04    0.11911E-02   -0.51987E-03  5201   0.370E-02    0.228E-01
RMM:   6    -0.230765773319E+04    0.60748E-03   -0.28711E-03  4919   0.345E-02    0.112E-01
RMM:   7    -0.230765768893E+04    0.44253E-04   -0.37193E-04  4759   0.195E-02    0.514E-02
RMM:   8    -0.230765767779E+04    0.11140E-04   -0.83264E-05  3263   0.640E-03    0.210E-02
RMM:   9    -0.230765768030E+04   -0.25064E-05   -0.22622E-05  2901   0.447E-03
  57 F= -.23280168E+04 E0= -.23280168E+04  d E =-.249807E-01  mag=     4.0000
       N       E                     dE             d eps       ncg     rms          rms(c)
DAV:   1    -0.230763552351E+04    0.22154E-01   -0.14800E+00  4464   0.105E+00    0.458E-01
RMM:   2    -0.230766541780E+04   -0.29894E-01   -0.26343E-01  5810   0.243E-01    0.107E+00
RMM:   3    -0.230766151467E+04    0.39031E-02   -0.26820E-02  5573   0.834E-02    0.383E-01
RMM:   4    -0.230766092522E+04    0.58945E-03   -0.29575E-03  4922   0.216E-02    0.111E-01
RMM:   5    -0.230766078879E+04    0.13643E-03   -0.31390E-04  4438   0.128E-02    0.871E-02
RMM:   6    -0.230766071938E+04    0.69406E-04   -0.29837E-04  4574   0.119E-02    0.224E-02
RMM:   7    -0.230766071835E+04    0.10373E-05   -0.29980E-05  2921   0.784E-03
  58 F= -.23280199E+04 E0= -.23280199E+04  d E =-.280797E-01  mag=     4.0000
       N       E                     dE             d eps       ncg     rms          rms(c)
DAV:   1    -0.230763931077E+04    0.21409E-01   -0.21979E+00  4432   0.130E+00    0.497E-01
RMM:   2    -0.230767541460E+04   -0.36104E-01   -0.34873E-01  5824   0.284E-01    0.893E-01
RMM:   3    -0.230767600734E+04   -0.59274E-03   -0.37750E-02  5606   0.962E-02    0.642E-01
RMM:   4    -0.230767394458E+04    0.20628E-02   -0.39430E-03  5067   0.251E-02    0.125E-01
RMM:   5    -0.230767373379E+04    0.21079E-03   -0.56274E-04  4444   0.131E-02    0.788E-02
RMM:   6    -0.230767364994E+04    0.83846E-04   -0.41659E-04  4735   0.136E-02    0.212E-02
RMM:   7    -0.230767364595E+04    0.39891E-05   -0.29887E-05  2898   0.858E-03
  59 F= -.23280329E+04 E0= -.23280329E+04  d E =-.130310E-01  mag=     4.0000
       N       E                     dE             d eps       ncg     rms          rms(c)
DAV:   1    -0.230757183552E+04    0.10181E+00   -0.67953E+00  4408   0.227E+00    0.863E-01
RMM:   2    -0.230768025400E+04   -0.10842E+00   -0.10824E+00  5857   0.499E-01    0.136E+00
RMM:   3    -0.230768905840E+04   -0.88044E-02   -0.12437E-01  5648   0.164E-01    0.132E+00
RMM:   4    -0.230768003844E+04    0.90200E-02   -0.12226E-02  5481   0.456E-02    0.226E-01
RMM:   5    -0.230767941165E+04    0.62679E-03   -0.20067E-03  5208   0.231E-02    0.144E-01
RMM:   6    -0.230767913100E+04    0.28065E-03   -0.12784E-03  4887   0.223E-02    0.455E-02
RMM:   7    -0.230767912208E+04    0.89153E-05   -0.98097E-05  3873   0.124E-02
  60 F= -.23280386E+04 E0= -.23280386E+04  d E =-.187004E-01  mag=     4.0000
       N       E                     dE             d eps       ncg     rms          rms(c)
DAV:   1    -0.230764027614E+04    0.38855E-01   -0.34973E+00  4448   0.162E+00    0.571E-01
RMM:   2    -0.230768943984E+04   -0.49164E-01   -0.48467E-01  5853   0.347E-01    0.946E-01
RMM:   3    -0.230769188280E+04   -0.24430E-02   -0.51681E-02  5668   0.107E-01    0.822E-01
RMM:   4    -0.230768853967E+04    0.33431E-02   -0.53292E-03  5235   0.303E-02    0.151E-01
RMM:   5    -0.230768825953E+04    0.28014E-03   -0.77393E-04  4791   0.160E-02    0.933E-02
RMM:   6    -0.230768816564E+04    0.93894E-04   -0.50523E-04  4713   0.155E-02    0.239E-02
RMM:   7    -0.230768816691E+04   -0.12720E-05   -0.36061E-05  2925   0.909E-03
  61 F= -.23280481E+04 E0= -.23280481E+04  d E =-.945225E-02  mag=     4.0000
       N       E                     dE             d eps       ncg     rms          rms(c)
DAV:   1    -0.230766163539E+04    0.26530E-01   -0.20726E+00  4448   0.125E+00    0.442E-01
RMM:   2    -0.230769130633E+04   -0.29671E-01   -0.28742E-01  5853   0.267E-01    0.792E-01
RMM:   3    -0.230769184763E+04   -0.54130E-03   -0.29920E-02  5649   0.815E-02    0.592E-01
RMM:   4    -0.230769013865E+04    0.17090E-02   -0.31371E-03  4895   0.231E-02    0.116E-01
RMM:   5    -0.230768996302E+04    0.17563E-03   -0.42274E-04  4407   0.124E-02    0.707E-02
RMM:   6    -0.230768991097E+04    0.52050E-04   -0.30021E-04  4460   0.125E-02    0.188E-02
RMM:   7    -0.230768991171E+04   -0.73689E-06   -0.22016E-05  2877   0.764E-03
  62 F= -.23280501E+04 E0= -.23280501E+04  d E =-.115196E-01  mag=     4.0000
       N       E                     dE             d eps       ncg     rms          rms(c)
DAV:   1    -0.230768940303E+04    0.50794E-03   -0.10565E+00  4464   0.100E+00    0.336E-01
RMM:   2    -0.230769914802E+04   -0.97450E-02   -0.10481E-01  5824   0.206E-01    0.152E-01
RMM:   3    -0.230769970700E+04   -0.55898E-03   -0.84747E-03  5233   0.587E-02    0.262E-01
RMM:   4    -0.230769945822E+04    0.24877E-03   -0.10694E-03  4175   0.156E-02    0.123E-01
RMM:   5    -0.230769931957E+04    0.13865E-03   -0.23528E-04  4329   0.121E-02    0.488E-02
RMM:   6    -0.230769929249E+04    0.27082E-04   -0.12651E-04  4289   0.102E-02    0.193E-02
RMM:   7    -0.230769928928E+04    0.32091E-05   -0.14518E-05  2849   0.578E-03
  63 F= -.23280599E+04 E0= -.23280599E+04  d E =-.972682E-02  mag=     4.0000
       N       E                     dE             d eps       ncg     rms          rms(c)
DAV:   1    -0.230767796291E+04    0.21330E-01   -0.27105E+00  4408   0.160E+00    0.539E-01
RMM:   2    -0.230770350526E+04   -0.25542E-01   -0.27340E-01  5790   0.329E-01    0.278E-01
RMM:   3    -0.230770536483E+04   -0.18596E-02   -0.21988E-02  5341   0.936E-02    0.606E-01
RMM:   4    -0.230770363452E+04    0.17303E-02   -0.29807E-03  5371   0.265E-02    0.164E-01
RMM:   5    -0.230770332869E+04    0.30583E-03   -0.64731E-04  4905   0.185E-02    0.767E-02
RMM:   6    -0.230770325163E+04    0.77060E-04   -0.31399E-04  4908   0.145E-02    0.349E-02
RMM:   7    -0.230770323592E+04    0.15710E-04   -0.35602E-05  3380   0.603E-03    0.130E-02
RMM:   8    -0.230770323146E+04    0.44656E-05   -0.11296E-05  2850   0.390E-03
  64 F= -.23280644E+04 E0= -.23280644E+04  d E =-.142333E-01  mag=     4.0000
       N       E                     dE             d eps       ncg     rms          rms(c)
DAV:   1    -0.230770025336E+04    0.29826E-02   -0.87249E-01  4496   0.897E-01    0.290E-01
RMM:   2    -0.230770932856E+04   -0.90752E-02   -0.91520E-02  5842   0.184E-01    0.325E-01
RMM:   3    -0.230771029290E+04   -0.96434E-03   -0.81210E-03  5336   0.568E-02    0.456E-01
RMM:   4    -0.230770922920E+04    0.10637E-02   -0.10452E-03  4731   0.166E-02    0.683E-02
RMM:   5    -0.230770917333E+04    0.55877E-04   -0.22339E-04  4038   0.101E-02    0.411E-02
RMM:   6    -0.230770915842E+04    0.14904E-04   -0.10888E-04  4144   0.886E-03    0.194E-02
RMM:   7    -0.230770915724E+04    0.11805E-05   -0.11947E-05  2863   0.586E-03
  65 F= -.23280706E+04 E0= -.23280706E+04  d E =-.622465E-02  mag=     4.0000
       N       E                     dE             d eps       ncg     rms          rms(c)
DAV:   1    -0.230767491533E+04    0.34243E-01   -0.37486E+00  4408   0.186E+00    0.607E-01
RMM:   2    -0.230771561083E+04   -0.40695E-01   -0.40208E-01  5828   0.384E-01    0.786E-01
RMM:   3    -0.230771768055E+04   -0.20697E-02   -0.35515E-02  5511   0.111E-01    0.881E-01
RMM:   4    -0.230771371138E+04    0.39692E-02   -0.43579E-03  5245   0.336E-02    0.139E-01
RMM:   5    -0.230771345664E+04    0.25474E-03   -0.96249E-04  5123   0.198E-02    0.806E-02
RMM:   6    -0.230771339734E+04    0.59293E-04   -0.41675E-04  4860   0.150E-02    0.528E-02
RMM:   7    -0.230771338099E+04    0.16355E-04   -0.42439E-05  3147   0.836E-03    0.123E-02
RMM:   8    -0.230771338082E+04    0.17103E-06   -0.10459E-05  2853   0.332E-03
  66 F= -.23280754E+04 E0= -.23280754E+04  d E =-.110755E-01  mag=     4.0000
       N       E                     dE             d eps       ncg     rms          rms(c)
DAV:   1    -0.230771448482E+04   -0.11038E-02   -0.38908E-01  4496   0.641E-01    0.215E-01
RMM:   2    -0.230771812687E+04   -0.36421E-02   -0.36258E-02  5673   0.127E-01    0.263E-01
RMM:   3    -0.230771841999E+04   -0.29312E-03   -0.32083E-03  5003   0.429E-02    0.324E-01
RMM:   4    -0.230771786123E+04    0.55876E-03   -0.45481E-04  4524   0.132E-02    0.493E-02
RMM:   5    -0.230771782204E+04    0.39185E-04   -0.14301E-04  4135   0.100E-02    0.241E-02
RMM:   6    -0.230771781896E+04    0.30837E-05   -0.38290E-05  3129   0.698E-03
  67 F= -.23280799E+04 E0= -.23280799E+04  d E =-.448121E-02  mag=     4.0000
       N       E                     dE             d eps       ncg     rms          rms(c)
DAV:   1    -0.230770687904E+04    0.10943E-01   -0.13071E+00  4420   0.117E+00    0.396E-01
RMM:   2    -0.230771929152E+04   -0.12412E-01   -0.12242E-01  5680   0.233E-01    0.505E-01
RMM:   3    -0.230772005270E+04   -0.76118E-03   -0.10908E-02  5354   0.754E-02    0.580E-01
RMM:   4    -0.230771826057E+04    0.17921E-02   -0.14916E-03  5054   0.237E-02    0.912E-02
RMM:   5    -0.230771812879E+04    0.13177E-03   -0.49948E-04  5193   0.176E-02    0.430E-02
RMM:   6    -0.230771811812E+04    0.10675E-04   -0.11196E-04  4413   0.973E-03    0.233E-02
RMM:   7    -0.230771811469E+04    0.34287E-05   -0.14634E-05  2869   0.471E-03
  68 F= -.23280803E+04 E0= -.23280803E+04  d E =-.485883E-02  mag=     4.0000
       N       E                     dE             d eps       ncg     rms          rms(c)
DAV:   1    -0.230771701994E+04    0.10982E-02   -0.25955E-01  4432   0.522E-01    0.174E-01
RMM:   2    -0.230771934750E+04   -0.23276E-02   -0.23914E-02  5698   0.102E-01    0.175E-01
RMM:   3    -0.230771970958E+04   -0.36208E-03   -0.21853E-03  4727   0.370E-02    0.291E-01
RMM:   4    -0.230771926371E+04    0.44587E-03   -0.30915E-04  4059   0.110E-02    0.402E-02
RMM:   5    -0.230771923906E+04    0.24647E-04   -0.10757E-04  3865   0.837E-03    0.194E-02
RMM:   6    -0.230771923694E+04    0.21269E-05   -0.26830E-05  2944   0.627E-03
  69 F= -.23280814E+04 E0= -.23280814E+04  d E =-.594415E-02  mag=     4.0000
       N       E                     dE             d eps       ncg     rms          rms(c)
DAV:   1    -0.230771780674E+04    0.14323E-02   -0.56661E-01  4432   0.772E-01    0.233E-01
RMM:   2    -0.230772327516E+04   -0.54684E-02   -0.57149E-02  5682   0.146E-01    0.228E-01
RMM:   3    -0.230772406852E+04   -0.79336E-03   -0.54635E-03  5108   0.552E-02    0.391E-01
RMM:   4    -0.230772328352E+04    0.78500E-03   -0.63669E-04  4558   0.142E-02    0.574E-02
RMM:   5    -0.230772323584E+04    0.47685E-04   -0.19231E-04  4073   0.983E-03    0.312E-02
RMM:   6    -0.230772322701E+04    0.88284E-05   -0.62229E-05  3589   0.783E-03
  70 F= -.23280854E+04 E0= -.23280854E+04  d E =-.404105E-02  mag=     4.0000
       N       E                     dE             d eps       ncg     rms          rms(c)
DAV:   1    -0.230771117390E+04    0.12062E-01   -0.14596E+00  4408   0.124E+00    0.378E-01
RMM:   2    -0.230772548166E+04   -0.14308E-01   -0.14856E-01  5683   0.235E-01    0.395E-01
RMM:   3    -0.230772735673E+04   -0.18751E-02   -0.14394E-02  5288   0.845E-02    0.620E-01
RMM:   4    -0.230772538653E+04    0.19702E-02   -0.16660E-03  5121   0.226E-02    0.936E-02
RMM:   5    -0.230772526675E+04    0.11977E-03   -0.48670E-04  4836   0.153E-02    0.529E-02
RMM:   6    -0.230772524329E+04    0.23463E-04   -0.16765E-04  4250   0.108E-02    0.227E-02
RMM:   7    -0.230772523942E+04    0.38735E-05   -0.18183E-05  2880   0.620E-03
  71 F= -.23280875E+04 E0= -.23280875E+04  d E =-.613865E-02  mag=     4.0000
       N       E                     dE             d eps       ncg     rms          rms(c)
DAV:   1    -0.230772185041E+04    0.33929E-02   -0.74055E-01  4432   0.869E-01    0.238E-01
RMM:   2    -0.230772837119E+04   -0.65208E-02   -0.70307E-02  5666   0.162E-01    0.117E-01
RMM:   3    -0.230772876436E+04   -0.39317E-03   -0.58856E-03  5227   0.509E-02    0.183E-01
RMM:   4    -0.230772865462E+04    0.10974E-03   -0.62964E-04  3487   0.114E-02    0.843E-02
RMM:   5    -0.230772858128E+04    0.73340E-04   -0.12250E-04  3919   0.891E-03    0.405E-02
RMM:   6    -0.230772856741E+04    0.13878E-04   -0.96346E-05  3934   0.864E-03    0.158E-02
RMM:   7    -0.230772856613E+04    0.12713E-05   -0.98403E-06  2832   0.554E-03
  72 F= -.23280910E+04 E0= -.23280910E+04  d E =-.349687E-02  mag=     4.0000
       N       E                     dE             d eps       ncg     rms          rms(c)
DAV:   1    -0.230771635536E+04    0.12212E-01   -0.15051E+00  4408   0.124E+00    0.339E-01
RMM:   2    -0.230772960663E+04   -0.13251E-01   -0.14285E-01  5658   0.230E-01    0.167E-01
RMM:   3    -0.230773040195E+04   -0.79533E-03   -0.12098E-02  5269   0.723E-02    0.261E-01
RMM:   4    -0.230773018060E+04    0.22135E-03   -0.12857E-03  4468   0.161E-02    0.122E-01
RMM:   5    -0.230773002771E+04    0.15289E-03   -0.25478E-04  4281   0.121E-02    0.603E-02
RMM:   6    -0.230772999408E+04    0.33635E-04   -0.19720E-04  4392   0.115E-02    0.253E-02
RMM:   7    -0.230772998960E+04    0.44813E-05   -0.18661E-05  2856   0.712E-03
  73 F= -.23280927E+04 E0= -.23280927E+04  d E =-.516795E-02  mag=     4.0000
       N       E                     dE             d eps       ncg     rms          rms(c)
DAV:   1    -0.230772701615E+04    0.29779E-02   -0.94750E-01  4408   0.973E-01    0.252E-01
RMM:   2    -0.230773405865E+04   -0.70425E-02   -0.73070E-02  5640   0.174E-01    0.245E-01
RMM:   3    -0.230773495113E+04   -0.89248E-03   -0.64757E-03  5400   0.524E-02    0.410E-01
RMM:   4    -0.230773406258E+04    0.88855E-03   -0.80593E-04  4392   0.156E-02    0.701E-02
RMM:   5    -0.230773400773E+04    0.54849E-04   -0.20316E-04  4012   0.101E-02    0.374E-02
RMM:   6    -0.230773399724E+04    0.10484E-04   -0.93778E-05  4019   0.914E-03    0.104E-02
RMM:   7    -0.230773399798E+04   -0.73266E-06   -0.10293E-05  2838   0.546E-03
  74 F= -.23280968E+04 E0= -.23280968E+04  d E =-.414906E-02  mag=     4.0000
       N       E                     dE             d eps       ncg     rms          rms(c)
DAV:   1    -0.230769554804E+04    0.38449E-01   -0.57117E+00  4408   0.239E+00    0.616E-01
RMM:   2    -0.230773758958E+04   -0.42042E-01   -0.43925E-01  5660   0.429E-01    0.555E-01
RMM:   3    -0.230774379789E+04   -0.62083E-02   -0.41129E-02  5475   0.129E-01    0.103E+00
RMM:   4    -0.230773810909E+04    0.56888E-02   -0.48751E-03  5530   0.379E-02    0.169E-01
RMM:   5    -0.230773777151E+04    0.33758E-03   -0.12444E-03  4914   0.230E-02    0.898E-02
RMM:   6    -0.230773770907E+04    0.62444E-04   -0.53412E-04  4755   0.193E-02    0.328E-02
RMM:   7    -0.230773770755E+04    0.15214E-05   -0.51401E-05  3312   0.877E-03
  75 F= -.23281009E+04 E0= -.23281009E+04  d E =-.821669E-02  mag=     4.0000
       N       E                     dE             d eps       ncg     rms          rms(c)
DAV:   1    -0.230773423764E+04    0.34714E-02   -0.13933E+00  4432   0.115E+00    0.280E-01
RMM:   2    -0.230774322400E+04   -0.89864E-02   -0.87537E-02  5647   0.199E-01    0.422E-01
RMM:   3    -0.230774337113E+04   -0.14713E-03   -0.73027E-03  5412   0.558E-02    0.385E-01
RMM:   4    -0.230774258047E+04    0.79066E-03   -0.86846E-04  4658   0.170E-02    0.748E-02
RMM:   5    -0.230774250908E+04    0.71384E-04   -0.23045E-04  4228   0.116E-02    0.403E-02
RMM:   6    -0.230774250318E+04    0.58978E-05   -0.11981E-04  4157   0.101E-02    0.153E-02
RMM:   7    -0.230774250321E+04   -0.23167E-07   -0.12067E-05  2853   0.564E-03
  76 F= -.23281058E+04 E0= -.23281058E+04  d E =-.484860E-02  mag=     4.0000
       N       E                     dE             d eps       ncg     rms          rms(c)
DAV:   1    -0.230767514419E+04    0.67359E-01   -0.12242E+01  4408   0.341E+00    0.823E-01
RMM:   2    -0.230775226200E+04   -0.77118E-01   -0.76596E-01  5648   0.589E-01    0.114E+00
RMM:   3    -0.230775700817E+04   -0.47462E-02   -0.67382E-02  5467   0.170E-01    0.124E+00
RMM:   4    -0.230774869169E+04    0.83165E-02   -0.76238E-03  5335   0.509E-02    0.225E-01
RMM:   5    -0.230774800075E+04    0.69094E-03   -0.23217E-03  5016   0.337E-02    0.117E-01
RMM:   6    -0.230774791482E+04    0.85932E-04   -0.93899E-04  4786   0.258E-02    0.359E-02
RMM:   7    -0.230774790906E+04    0.57585E-05   -0.98195E-05  3767   0.105E-02
  77 F= -.23281114E+04 E0= -.23281114E+04  d E =-.104358E-01  mag=     4.0000
       N       E                     dE             d eps       ncg     rms          rms(c)
DAV:   1    -0.230774384682E+04    0.40680E-02   -0.13008E+00  4496   0.112E+00    0.277E-01
RMM:   2    -0.230775225961E+04   -0.84128E-02   -0.84273E-02  5649   0.194E-01    0.349E-01
RMM:   3    -0.230775285267E+04   -0.59307E-03   -0.69462E-03  5374   0.563E-02    0.425E-01
RMM:   4    -0.230775190219E+04    0.95048E-03   -0.88138E-04  4639   0.169E-02    0.729E-02
RMM:   5    -0.230775184212E+04    0.60069E-04   -0.23394E-04  4112   0.110E-02    0.406E-02
RMM:   6    -0.230775183570E+04    0.64236E-05   -0.11968E-04  4174   0.996E-03    0.141E-02
RMM:   7    -0.230775183708E+04   -0.13865E-05   -0.12229E-05  2863   0.587E-03
  78 F= -.23281154E+04 E0= -.23281154E+04  d E =-.400527E-02  mag=     4.0000
       N       E                     dE             d eps       ncg     rms          rms(c)
DAV:   1    -0.230768983109E+04    0.62005E-01   -0.10834E+01  4408   0.323E+00    0.790E-01
RMM:   2    -0.230775819135E+04   -0.68360E-01   -0.69923E-01  5667   0.561E-01    0.857E-01
RMM:   3    -0.230776618254E+04   -0.79912E-02   -0.60387E-02  5472   0.163E-01    0.131E+00
RMM:   4    -0.230775706520E+04    0.91173E-02   -0.75607E-03  5528   0.487E-02    0.214E-01
RMM:   5    -0.230775648924E+04    0.57596E-03   -0.20741E-03  4952   0.300E-02    0.114E-01
RMM:   6    -0.230775639774E+04    0.91500E-04   -0.90694E-04  4793   0.248E-02    0.366E-02
RMM:   7    -0.230775639748E+04    0.25834E-06   -0.97720E-05  3869   0.109E-02
  79 F= -.23281202E+04 E0= -.23281202E+04  d E =-.880999E-02  mag=     4.0000
       N       E                     dE             d eps       ncg     rms          rms(c)
DAV:   1    -0.230774926134E+04    0.71364E-02   -0.16664E+00  4448   0.127E+00    0.313E-01
RMM:   2    -0.230776129876E+04   -0.12037E-01   -0.12777E-01  5698   0.225E-01    0.177E-01
RMM:   3    -0.230776217646E+04   -0.87770E-03   -0.10085E-02  5339   0.636E-02    0.318E-01
RMM:   4    -0.230776172983E+04    0.44663E-03   -0.11758E-03  4121   0.160E-02    0.116E-01
RMM:   5    -0.230776162188E+04    0.10796E-03   -0.24279E-04  4098   0.114E-02    0.515E-02
RMM:   6    -0.230776160766E+04    0.14217E-04   -0.17268E-04  4274   0.112E-02    0.152E-02
RMM:   7    -0.230776161019E+04   -0.25289E-05   -0.17858E-05  2903   0.636E-03
  80 F= -.23281254E+04 E0= -.23281254E+04  d E =-.525980E-02  mag=     4.0000
       N       E                     dE             d eps       ncg     rms          rms(c)
DAV:   1    -0.230769641369E+04    0.65194E-01   -0.94299E+00  4408   0.303E+00    0.743E-01
RMM:   2    -0.230776447584E+04   -0.68062E-01   -0.72462E-01  5706   0.541E-01    0.363E-01
RMM:   3    -0.230776723973E+04   -0.27639E-02   -0.58279E-02  5356   0.155E-01    0.325E-01
RMM:   4    -0.230776774512E+04   -0.50540E-03   -0.63368E-03  5499   0.359E-02    0.439E-01
RMM:   5    -0.230776657995E+04    0.11652E-02   -0.13463E-03  4924   0.240E-02    0.134E-01
RMM:   6    -0.230776646509E+04    0.11486E-03   -0.99701E-04  4762   0.223E-02    0.488E-02
RMM:   7    -0.230776645944E+04    0.56568E-05   -0.14535E-04  4170   0.136E-02    0.302E-02
RMM:   8    -0.230776646263E+04   -0.31973E-05   -0.31676E-05  2907   0.439E-03
  81 F= -.23281304E+04 E0= -.23281304E+04  d E =-.102472E-01  mag=     4.0000
       N       E                     dE             d eps       ncg     rms          rms(c)
DAV:   1    -0.230775388374E+04    0.12576E-01   -0.23919E+00  4408   0.150E+00    0.379E-01
RMM:   2    -0.230777149929E+04   -0.17616E-01   -0.18878E-01  5689   0.266E-01    0.188E-01
RMM:   3    -0.230777245236E+04   -0.95308E-03   -0.15342E-02  5298   0.806E-02    0.248E-01
RMM:   4    -0.230777235744E+04    0.94924E-04   -0.16845E-03  4629   0.180E-02    0.159E-01
RMM:   5    -0.230777214754E+04    0.20990E-03   -0.33608E-04  4385   0.131E-02    0.747E-02
RMM:   6    -0.230777211775E+04    0.29789E-04   -0.25951E-04  4489   0.125E-02    0.244E-02
RMM:   7    -0.230777211795E+04   -0.20396E-06   -0.24990E-05  2970   0.695E-03
  82 F= -.23281362E+04 E0= -.23281362E+04  d E =-.576968E-02  mag=     4.0000
       N       E                     dE             d eps       ncg     rms          rms(c)
DAV:   1    -0.230770204790E+04    0.70070E-01   -0.96376E+00  4408   0.302E+00    0.766E-01
RMM:   2    -0.230777393041E+04   -0.71883E-01   -0.76598E-01  5685   0.540E-01    0.483E-01
RMM:   3    -0.230778114281E+04   -0.72124E-02   -0.68575E-02  5387   0.164E-01    0.988E-01
RMM:   4    -0.230777666854E+04    0.44743E-02   -0.74275E-03  5774   0.411E-02    0.242E-01
RMM:   5    -0.230777607119E+04    0.59735E-03   -0.16235E-03  4965   0.256E-02    0.154E-01
RMM:   6    -0.230777590532E+04    0.16587E-03   -0.11766E-03  4947   0.241E-02    0.606E-02
RMM:   7    -0.230777588802E+04    0.17298E-04   -0.12600E-04  4284   0.118E-02    0.235E-02
RMM:   8    -0.230777588943E+04   -0.14139E-05   -0.32059E-05  2920   0.441E-03
  83 F= -.23281402E+04 E0= -.23281402E+04  d E =-.978774E-02  mag=     4.0000
       N       E                     dE             d eps       ncg     rms          rms(c)
DAV:   1    -0.230776041092E+04    0.15477E-01   -0.26174E+00  4448   0.156E+00    0.385E-01
RMM:   2    -0.230778032973E+04   -0.19919E-01   -0.21373E-01  5672   0.276E-01    0.191E-01
RMM:   3    -0.230778138709E+04   -0.10574E-02   -0.18121E-02  5319   0.868E-02    0.174E-01
RMM:   4    -0.230778156027E+04   -0.17318E-03   -0.19395E-03  4762   0.189E-02    0.214E-01
RMM:   5    -0.230778125341E+04    0.30686E-03   -0.38211E-04  4448   0.130E-02    0.845E-02
RMM:   6    -0.230778121301E+04    0.40394E-04   -0.28288E-04  4430   0.121E-02    0.222E-02
RMM:   7    -0.230778121521E+04   -0.21930E-05   -0.34579E-05  3030   0.788E-03
  84 F= -.23281457E+04 E0= -.23281457E+04  d E =-.549570E-02  mag=     4.0000
       N       E                     dE             d eps       ncg     rms          rms(c)
DAV:   1    -0.230761353200E+04    0.16768E+00   -0.21339E+01  4408   0.448E+00    0.111E+00
RMM:   2    -0.230777926857E+04   -0.16574E+00   -0.17679E+00  5698   0.804E-01    0.733E-01
RMM:   3    -0.230779622178E+04   -0.16953E-01   -0.16781E-01  5399   0.246E-01    0.142E+00
RMM:   4    -0.230778724615E+04    0.89756E-02   -0.17635E-02  5917   0.609E-02    0.381E-01
RMM:   5    -0.230778588455E+04    0.13616E-02   -0.34047E-03  4943   0.350E-02    0.260E-01
RMM:   6    -0.230778535528E+04    0.52926E-03   -0.29482E-03  4964   0.361E-02    0.109E-01
RMM:   7    -0.230778534513E+04    0.10154E-04   -0.37682E-04  4857   0.201E-02    0.461E-02
RMM:   8    -0.230778537019E+04   -0.25060E-04   -0.90855E-05  3284   0.678E-03    0.286E-02
RMM:   9    -0.230778538700E+04   -0.16813E-04   -0.21871E-05  2944   0.456E-03    0.112E-02
RMM:  10    -0.230778540081E+04   -0.13806E-04   -0.93702E-06  2858   0.315E-03    0.595E-03
RMM:  11    -0.230778541082E+04   -0.10015E-04   -0.55289E-06  2819   0.283E-03    0.370E-03
RMM:  12    -0.230778541710E+04   -0.62777E-05   -0.39910E-06  2775   0.235E-03
  85 F= -.23281504E+04 E0= -.23281504E+04  d E =-.102182E-01  mag=     4.0000
       N       E                     dE             d eps       ncg     rms          rms(c)
DAV:   1    -0.230775415052E+04    0.31260E-01   -0.48975E+00  4408   0.216E+00    0.536E-01
RMM:   2    -0.230779169754E+04   -0.37547E-01   -0.39633E-01  5694   0.383E-01    0.412E-01
RMM:   3    -0.230779663179E+04   -0.49342E-02   -0.35814E-02  5425   0.114E-01    0.818E-01
RMM:   4    -0.230779313014E+04    0.35017E-02   -0.41189E-03  5424   0.317E-02    0.171E-01
[...]
DAV:   1    -0.230743791027E+04    0.53547E+00   -0.20965E+01  4408   0.357E+00    0.162E+00
RMM:   2    -0.230799701855E+04   -0.55911E+00   -0.56023E+00  6512   0.990E-01    0.283E+00
RMM:   3    -0.230799125227E+04    0.57663E-02   -0.54318E-01  5903   0.323E-01    0.142E+00
RMM:   4    -0.230798431647E+04    0.69358E-02   -0.63810E-02  5972   0.787E-02    0.631E-01
RMM:   5    -0.230798073656E+04    0.35799E-02   -0.54867E-03  5502   0.300E-02    0.355E-01
RMM:   6    -0.230797915643E+04    0.15801E-02   -0.52593E-03  5005   0.319E-02    0.199E-01
RMM:   7    -0.230797916585E+04   -0.94175E-05   -0.17379E-03  4865   0.247E-02    0.159E-01
RMM:   8    -0.230797906922E+04    0.96635E-04   -0.23548E-04  3561   0.905E-03    0.459E-02
RMM:   9    -0.230797909170E+04   -0.22487E-04   -0.57578E-05  3000   0.571E-03    0.263E-02
RMM:  10    -0.230797910482E+04   -0.13116E-04   -0.24324E-05  2908   0.383E-03    0.216E-02
RMM:  11    -0.230797911695E+04   -0.12130E-04   -0.16242E-05  2858   0.344E-03    0.513E-03
RMM:  12    -0.230797912339E+04   -0.64398E-05   -0.43088E-06  2790   0.240E-03
 179 F= -.23283745E+04 E0= -.23283745E+04  d E =-.172049E-01  mag=     4.0000
       N       E                     dE             d eps       ncg     rms          rms(c)
DAV:   1    -0.230790764945E+04    0.71467E-01   -0.28203E+00  4448   0.131E+00    0.550E-01
RMM:   2    -0.230797427142E+04   -0.66622E-01   -0.71476E-01  6462   0.353E-01    0.356E-01
RMM:   3    -0.230798013770E+04   -0.58663E-02   -0.66468E-02  5689   0.107E-01    0.362E-01
RMM:   4    -0.230798017065E+04   -0.32949E-04   -0.79470E-03  4512   0.249E-02    0.294E-01
RMM:   5    -0.230797954297E+04    0.62768E-03   -0.65082E-04  4034   0.116E-02    0.138E-01
RMM:   6    -0.230797925483E+04    0.28814E-03   -0.99868E-04  4743   0.134E-02    0.652E-02
RMM:   7    -0.230797924634E+04    0.84903E-05   -0.25115E-04  3674   0.101E-02    0.278E-02
RMM:   8    -0.230797924278E+04    0.35598E-05   -0.42421E-05  2882   0.493E-03
 180 F= -.23283751E+04 E0= -.23283751E+04  d E =-.177957E-01  mag=     4.0000
       N       E                     dE             d eps       ncg     rms          rms(c)
DAV:   1    -0.230774090729E+04    0.23834E+00   -0.95562E+00  4408   0.242E+00    0.112E+00
RMM:   2    -0.230799910902E+04   -0.25820E+00   -0.25581E+00  6444   0.674E-01    0.207E+00
RMM:   3    -0.230799596177E+04    0.31473E-02   -0.25467E-01  5860   0.222E-01    0.103E+00
RMM:   4    -0.230799220496E+04    0.37568E-02   -0.30063E-02  5822   0.541E-02    0.367E-01
RMM:   5    -0.230799062262E+04    0.15823E-02   -0.25990E-03  5184   0.215E-02    0.224E-01
RMM:   6    -0.230798999556E+04    0.62706E-03   -0.25915E-03  4963   0.235E-02    0.116E-01
RMM:   7    -0.230798998951E+04    0.60478E-05   -0.46491E-04  4345   0.153E-02    0.813E-02
RMM:   8    -0.230798996658E+04    0.22936E-04   -0.80881E-05  3011   0.600E-03    0.247E-02
RMM:   9    -0.230798997501E+04   -0.84345E-05   -0.23941E-05  2914   0.419E-03
 181 F= -.23283869E+04 E0= -.23283869E+04  d E =-.118439E-01  mag=     4.0000
       N       E                     dE             d eps       ncg     rms          rms(c)
DAV:   1    -0.230754431929E+04    0.44565E+00   -0.17192E+01  4408   0.325E+00    0.154E+00
RMM:   2    -0.230803667588E+04   -0.49236E+00   -0.47318E+00  6467   0.912E-01    0.325E+00
RMM:   3    -0.230800210650E+04    0.34569E-01   -0.46154E-01  5879   0.306E-01    0.111E+00
RMM:   4    -0.230799890124E+04    0.32053E-02   -0.54278E-02  5868   0.721E-02    0.481E-01
RMM:   5    -0.230799630126E+04    0.26000E-02   -0.44537E-03  5078   0.281E-02    0.337E-01
RMM:   6    -0.230799498627E+04    0.13150E-02   -0.53015E-03  5270   0.347E-02    0.983E-02
RMM:   7    -0.230799501346E+04   -0.27192E-04   -0.55303E-04  4566   0.175E-02    0.563E-02
RMM:   8    -0.230799503986E+04   -0.26400E-04   -0.13300E-04  3437   0.684E-03    0.306E-02
RMM:   9    -0.230799505327E+04   -0.13415E-04   -0.28159E-05  2898   0.486E-03    0.191E-02
RMM:  10    -0.230799506355E+04   -0.10281E-04   -0.16982E-05  2879   0.357E-03    0.136E-02
RMM:  11    -0.230799507103E+04   -0.74786E-05   -0.86253E-06  2835   0.320E-03
 182 F= -.23283937E+04 E0= -.23283937E+04  d E =-.186319E-01  mag=     4.0000
       N       E                     dE             d eps       ncg     rms          rms(c)
DAV:   1    -0.230784325267E+04    0.15181E+00   -0.65663E+00  4408   0.207E+00    0.949E-01
RMM:   2    -0.230802325117E+04   -0.18000E+00   -0.16830E+00  6353   0.568E-01    0.218E+00
RMM:   3    -0.230800747467E+04    0.15777E-01   -0.16404E-01  5860   0.190E-01    0.730E-01
RMM:   4    -0.230800613879E+04    0.13359E-02   -0.19965E-02  5632   0.441E-02    0.262E-01
RMM:   5    -0.230800520104E+04    0.93775E-03   -0.15350E-03  4655   0.184E-02    0.201E-01
RMM:   6    -0.230800480040E+04    0.40064E-03   -0.20228E-03  5245   0.238E-02    0.640E-02
RMM:   7    -0.230800478494E+04    0.15462E-04   -0.14920E-04  3578   0.107E-02    0.291E-02
RMM:   8    -0.230800478928E+04   -0.43412E-05   -0.31073E-05  2877   0.453E-03
 183 F= -.23284046E+04 E0= -.23284046E+04  d E =-.108718E-01  mag=     4.0000
       N       E                     dE             d eps       ncg     rms          rms(c)
DAV:   1    -0.230781171934E+04    0.19307E+00   -0.79449E+00  4408   0.230E+00    0.104E+00
RMM:   2    -0.230803010479E+04   -0.21839E+00   -0.20487E+00  6365   0.629E-01    0.238E+00
RMM:   3    -0.230801104154E+04    0.19063E-01   -0.20083E-01  5875   0.212E-01    0.768E-01
RMM:   4    -0.230800971773E+04    0.13238E-02   -0.24348E-02  5687   0.488E-02    0.287E-01
RMM:   5    -0.230800860287E+04    0.11149E-02   -0.18958E-03  4707   0.200E-02    0.225E-01
RMM:   6    -0.230800811225E+04    0.49062E-03   -0.24491E-03  5317   0.262E-02    0.724E-02
RMM:   7    -0.230800808991E+04    0.22347E-04   -0.18367E-04  3835   0.115E-02    0.309E-02
RMM:   8    -0.230800809349E+04   -0.35829E-05   -0.37111E-05  2900   0.481E-03
 184 F= -.23284093E+04 E0= -.23284093E+04  d E =-.155442E-01  mag=     4.0000
       N       E                     dE             d eps       ncg     rms          rms(c)
DAV:   1    -0.230786678866E+04    0.14130E+00   -0.65083E+00  4408   0.214E+00    0.905E-01
RMM:   2    -0.230803145357E+04   -0.16466E+00   -0.15497E+00  6359   0.563E-01    0.206E+00
RMM:   3    -0.230801810573E+04    0.13348E-01   -0.14837E-01  5935   0.184E-01    0.697E-01
RMM:   4    -0.230801688559E+04    0.12201E-02   -0.18013E-02  5582   0.428E-02    0.253E-01
RMM:   5    -0.230801602838E+04    0.85721E-03   -0.15303E-03  4710   0.189E-02    0.195E-01
RMM:   6    -0.230801567349E+04    0.35489E-03   -0.19013E-03  5170   0.235E-02    0.582E-02
RMM:   7    -0.230801565841E+04    0.15089E-04   -0.15553E-04  3621   0.108E-02    0.256E-02
RMM:   8    -0.230801566195E+04   -0.35495E-05   -0.35032E-05  2881   0.434E-03
 185 F= -.23284178E+04 E0= -.23284178E+04  d E =-.857652E-02  mag=     4.0000
       N       E                     dE             d eps       ncg     rms          rms(c)
DAV:   1    -0.230786908348E+04    0.14657E+00   -0.64551E+00  4408   0.213E+00    0.894E-01
RMM:   2    -0.230803112496E+04   -0.16204E+00   -0.15381E+00  6367   0.559E-01    0.199E+00
RMM:   3    -0.230801964328E+04    0.11482E-01   -0.14682E-01  5961   0.181E-01    0.713E-01
RMM:   4    -0.230801826630E+04    0.13770E-02   -0.17781E-02  5570   0.426E-02    0.253E-01
RMM:   5    -0.230801738830E+04    0.87800E-03   -0.15073E-03  4748   0.189E-02    0.187E-01
RMM:   6    -0.230801704076E+04    0.34753E-03   -0.18672E-03  5106   0.231E-02    0.506E-02
RMM:   7    -0.230801702866E+04    0.12099E-04   -0.15511E-04  3690   0.110E-02    0.253E-02
RMM:   8    -0.230801703053E+04   -0.18658E-05   -0.35095E-05  2886   0.429E-03
 186 F= -.23284203E+04 E0= -.23284203E+04  d E =-.110154E-01  mag=     4.0000
       N       E                     dE             d eps       ncg     rms          rms(c)
DAV:   1    -0.230781869227E+04    0.19834E+00   -0.96701E+00  4408   0.270E+00    0.988E-01
RMM:   2    -0.230802202378E+04   -0.20333E+00   -0.20727E+00  6340   0.663E-01    0.154E+00
RMM:   3    -0.230802887940E+04   -0.68556E-02   -0.20762E-01  6071   0.217E-01    0.107E+00
RMM:   4    -0.230802441887E+04    0.44605E-02   -0.24933E-02  5954   0.537E-02    0.356E-01
RMM:   5    -0.230802301886E+04    0.14000E-02   -0.23524E-03  5195   0.228E-02    0.208E-01
RMM:   6    -0.230802253220E+04    0.48666E-03   -0.21531E-03  4842   0.234E-02    0.145E-01
RMM:   7    -0.230802245063E+04    0.81570E-04   -0.52527E-04  4554   0.173E-02    0.586E-02
RMM:   8    -0.230802243103E+04    0.19599E-04   -0.81771E-05  3014   0.598E-03    0.236E-02
RMM:   9    -0.230802243360E+04   -0.25729E-05   -0.22828E-05  2895   0.410E-03
 187 F= -.23284272E+04 E0= -.23284272E+04  d E =-.696684E-02  mag=     4.0000
       N       E                     dE             d eps       ncg     rms          rms(c)
DAV:   1    -0.230799953347E+04    0.22898E-01   -0.10968E+00  4512   0.906E-01    0.320E-01
RMM:   2    -0.230802124511E+04   -0.21712E-01   -0.23153E-01  6317   0.218E-01    0.274E-01
RMM:   3    -0.230802348222E+04   -0.22371E-02   -0.20144E-02  5734   0.671E-02    0.430E-01
RMM:   4    -0.230802269018E+04    0.79204E-03   -0.27366E-03  4351   0.183E-02    0.124E-01
RMM:   5    -0.230802253558E+04    0.15459E-03   -0.27333E-04  3400   0.869E-03    0.735E-02
RMM:   6    -0.230802246594E+04    0.69638E-04   -0.29549E-04  4179   0.957E-03    0.350E-02
RMM:   7    -0.230802246265E+04    0.32988E-05   -0.45034E-05  2990   0.681E-03
 188 F= -.23284278E+04 E0= -.23284278E+04  d E =-.753659E-02  mag=     4.0000
       N       E                     dE             d eps       ncg     rms          rms(c)
DAV:   1    -0.230797119902E+04    0.51267E-01   -0.31554E+00  4408   0.170E+00    0.579E-01
RMM:   2    -0.230802843970E+04   -0.57241E-01   -0.56827E-01  6175   0.384E-01    0.101E+00
RMM:   3    -0.230803051779E+04   -0.20781E-02   -0.51332E-02  6028   0.124E-01    0.794E-01
RMM:   4    -0.230802747008E+04    0.30477E-02   -0.66100E-03  5793   0.336E-02    0.186E-01
RMM:   5    -0.230802700766E+04    0.46242E-03   -0.94490E-04  4856   0.170E-02    0.109E-01
RMM:   6    -0.230802688243E+04    0.12523E-03   -0.78940E-04  4900   0.176E-02    0.437E-02
RMM:   7    -0.230802686746E+04    0.14968E-04   -0.66321E-05  3158   0.100E-02    0.216E-02
RMM:   8    -0.230802686573E+04    0.17389E-05   -0.21497E-05  2858   0.372E-03
 189 F= -.23284331E+04 E0= -.23284331E+04  d E =-.527305E-02  mag=     4.0000
       N       E                     dE             d eps       ncg     rms          rms(c)
DAV:   1    -0.230802165194E+04    0.52155E-02   -0.29640E-01  4576   0.520E-01    0.186E-01
RMM:   2    -0.230802736983E+04   -0.57179E-02   -0.53310E-02  6159   0.118E-01    0.406E-01
RMM:   3    -0.230802706627E+04    0.30356E-03   -0.50324E-03  5544   0.398E-02    0.192E-01
RMM:   4    -0.230802690917E+04    0.15710E-03   -0.64322E-04  3434   0.101E-02    0.577E-02
RMM:   5    -0.230802686607E+04    0.43107E-04   -0.80004E-05  3194   0.620E-03    0.349E-02
RMM:   6    -0.230802685430E+04    0.11769E-04   -0.85631E-05  3555   0.710E-03    0.106E-02
RMM:   7    -0.230802685382E+04    0.48327E-06   -0.89362E-06  2845   0.456E-03
 190 F= -.23284333E+04 E0= -.23284333E+04  d E =-.553016E-02  mag=     4.0000
       N       E                     dE             d eps       ncg     rms          rms(c)
DAV:   1    -0.230798587825E+04    0.40976E-01   -0.30316E+00  4408   0.172E+00    0.603E-01
RMM:   2    -0.230804416478E+04   -0.58287E-01   -0.46660E-01  6212   0.370E-01    0.175E+00
RMM:   3    -0.230803153500E+04    0.12630E-01   -0.43115E-02  6026   0.117E-01    0.439E-01
RMM:   4    -0.230803094688E+04    0.58812E-03   -0.57450E-03  5233   0.284E-02    0.217E-01
RMM:   5    -0.230803053953E+04    0.40735E-03   -0.78915E-04  5033   0.172E-02    0.153E-01
RMM:   6    -0.230803036321E+04    0.17632E-03   -0.82642E-04  5077   0.177E-02    0.467E-02
RMM:   7    -0.230803035060E+04    0.12602E-04   -0.61819E-05  3231   0.926E-03    0.267E-02
RMM:   8    -0.230803034420E+04    0.64016E-05   -0.19609E-05  2849   0.355E-03
 191 F= -.23284372E+04 E0= -.23284372E+04  d E =-.382931E-02  mag=     4.0000
       N       E                     dE             d eps       ncg     rms          rms(c)
DAV:   1    -0.230802831834E+04    0.20323E-02   -0.14210E-01  4656   0.371E-01    0.139E-01
RMM:   2    -0.230803135649E+04   -0.30382E-02   -0.22348E-02  6207   0.809E-02    0.446E-01
RMM:   3    -0.230803043521E+04    0.92128E-03   -0.22165E-03  4917   0.269E-02    0.827E-02
RMM:   4    -0.230803042510E+04    0.10108E-04   -0.30651E-04  3083   0.677E-03    0.473E-02
RMM:   5    -0.230803040647E+04    0.18630E-04   -0.38064E-05  2947   0.451E-03    0.362E-02
RMM:   6    -0.230803039678E+04    0.96916E-05   -0.39028E-05  2998   0.507E-03
 192 F= -.23284373E+04 E0= -.23284373E+04  d E =-.395613E-02  mag=     4.0000
       N       E                     dE             d eps       ncg     rms          rms(c)
DAV:   1    -0.230801904231E+04    0.11364E-01   -0.14662E+00  4408   0.127E+00    0.358E-01
RMM:   2    -0.230803605626E+04   -0.17014E-01   -0.15182E-01  5951   0.240E-01    0.799E-01
RMM:   3    -0.230803415715E+04    0.18991E-02   -0.13613E-02  5705   0.827E-02    0.355E-01
RMM:   4    -0.230803353637E+04    0.62077E-03   -0.17439E-03  5066   0.201E-02    0.114E-01
RMM:   5    -0.230803335598E+04    0.18040E-03   -0.40589E-04  4803   0.147E-02    0.742E-02
RMM:   6    -0.230803331506E+04    0.40912E-04   -0.22687E-04  4544   0.121E-02    0.159E-02
RMM:   7    -0.230803331107E+04    0.39945E-05   -0.19751E-05  2891   0.646E-03
 193 F= -.23284399E+04 E0= -.23284399E+04  d E =-.261416E-02  mag=     4.0000
       N       E                     dE             d eps       ncg     rms          rms(c)
DAV:   1    -0.230803156968E+04    0.17454E-02   -0.19313E-01  4512   0.462E-01    0.132E-01
RMM:   2    -0.230803389633E+04   -0.23267E-02   -0.20277E-02  5940   0.878E-02    0.309E-01
RMM:   3    -0.230803356382E+04    0.33251E-03   -0.18341E-03  4964   0.311E-02    0.121E-01
RMM:   4    -0.230803349547E+04    0.68345E-04   -0.24147E-04  3165   0.762E-03    0.427E-02
RMM:   5    -0.230803347093E+04    0.24549E-04   -0.52098E-05  3167   0.602E-03    0.317E-02
RMM:   6    -0.230803346330E+04    0.76261E-05   -0.32684E-05  2934   0.594E-03
 194 F= -.23284400E+04 E0= -.23284400E+04  d E =-.265822E-02  mag=     4.0000
       N       E                     dE             d eps       ncg     rms          rms(c)
DAV:   1    -0.230802778040E+04    0.56905E-02   -0.96022E-01  4408   0.106E+00    0.236E-01
RMM:   2    -0.230803552060E+04   -0.77402E-02   -0.82605E-02  5814   0.185E-01    0.182E-01
RMM:   3    -0.230803649812E+04   -0.97752E-03   -0.76949E-03  5456   0.671E-02    0.343E-01
RMM:   4    -0.230803590050E+04    0.59762E-03   -0.96389E-04  4794   0.158E-02    0.753E-02
RMM:   5    -0.230803581684E+04    0.83665E-04   -0.20072E-04  4112   0.100E-02    0.429E-02
RMM:   6    -0.230803579839E+04    0.18446E-04   -0.13266E-04  4224   0.990E-03    0.208E-02
RMM:   7    -0.230803579697E+04    0.14215E-05   -0.12974E-05  2847   0.617E-03
 195 F= -.23284420E+04 E0= -.23284420E+04  d E =-.209220E-02  mag=     4.0000
       N       E                     dE             d eps       ncg     rms          rms(c)
DAV:   1    -0.230802065057E+04    0.15148E-01   -0.19752E+00  4408   0.151E+00    0.337E-01
RMM:   2    -0.230803655216E+04   -0.15902E-01   -0.16960E-01  5840   0.266E-01    0.259E-01
RMM:   3    -0.230803864441E+04   -0.20922E-02   -0.16190E-02  5529   0.100E-01    0.499E-01
RMM:   4    -0.230803737113E+04    0.12733E-02   -0.19922E-03  5696   0.228E-02    0.108E-01
RMM:   5    -0.230803719702E+04    0.17411E-03   -0.41691E-04  4423   0.134E-02    0.608E-02
RMM:   6    -0.230803715656E+04    0.40458E-04   -0.28306E-04  4708   0.135E-02    0.248E-02
RMM:   7    -0.230803715295E+04    0.36094E-05   -0.24516E-05  2928   0.740E-03
 196 F= -.23284431E+04 E0= -.23284431E+04  d E =-.310572E-02  mag=     4.0000
       N       E                     dE             d eps       ncg     rms          rms(c)
DAV:   1    -0.230803075665E+04    0.63999E-02   -0.11615E+00  4408   0.116E+00    0.262E-01
RMM:   2    -0.230804009172E+04   -0.93351E-02   -0.97148E-02  5845   0.209E-01    0.279E-01
RMM:   3    -0.230804095509E+04   -0.86337E-03   -0.85226E-03  5268   0.753E-02    0.395E-01
RMM:   4    -0.230804017743E+04    0.77766E-03   -0.11243E-03  5146   0.182E-02    0.827E-02
RMM:   5    -0.230804008348E+04    0.93950E-04   -0.27133E-04  4346   0.116E-02    0.520E-02
RMM:   6    -0.230804006476E+04    0.18713E-04   -0.13730E-04  4303   0.103E-02    0.230E-02
RMM:   7    -0.230804006289E+04    0.18752E-05   -0.14115E-05  2852   0.593E-03
 197 F= -.23284459E+04 E0= -.23284459E+04  d E =-.281430E-02  mag=     4.0000
       N       E                     dE             d eps       ncg     rms          rms(c)
DAV:   1    -0.230802667486E+04    0.13390E-01   -0.18237E+00  4408   0.145E+00    0.330E-01
RMM:   2    -0.230804150233E+04   -0.14827E-01   -0.15268E-01  5847   0.264E-01    0.390E-01
RMM:   3    -0.230804261112E+04   -0.11088E-02   -0.13516E-02  5301   0.956E-02    0.479E-01
RMM:   4    -0.230804145848E+04    0.11526E-02   -0.17613E-03  5453   0.229E-02    0.103E-01
RMM:   5    -0.230804130613E+04    0.15236E-03   -0.42195E-04  4643   0.142E-02    0.638E-02
RMM:   6    -0.230804127809E+04    0.28033E-04   -0.21078E-04  4557   0.123E-02    0.307E-02
RMM:   7    -0.230804127368E+04    0.44130E-05   -0.20527E-05  2923   0.662E-03
 198 F= -.23284470E+04 E0= -.23284470E+04  d E =-.390808E-02  mag=     4.0000
       N       E                     dE             d eps       ncg     rms          rms(c)
DAV:   1    -0.230803503601E+04    0.62421E-02   -0.13514E+00  4408   0.126E+00    0.288E-01
RMM:   2    -0.230804425397E+04   -0.92180E-02   -0.92475E-02  5731   0.218E-01    0.379E-01
RMM:   3    -0.230804457497E+04   -0.32100E-03   -0.75076E-03  5270   0.792E-02    0.402E-01
RMM:   4    -0.230804372706E+04    0.84792E-03   -0.10172E-03  5175   0.197E-02    0.842E-02
RMM:   5    -0.230804361293E+04    0.11413E-03   -0.36627E-04  4673   0.143E-02    0.458E-02
RMM:   6    -0.230804360145E+04    0.11477E-04   -0.11953E-04  4272   0.106E-02    0.216E-02
RMM:   7    -0.230804359812E+04    0.33297E-05   -0.14303E-05  2858   0.507E-03
 199 F= -.23284491E+04 E0= -.23284491E+04  d E =-.210880E-02  mag=     4.0000
       N       E                     dE             d eps       ncg     rms          rms(c)
DAV:   1    -0.230804205404E+04    0.15474E-02   -0.28824E-01  4496   0.580E-01    0.133E-01
RMM:   2    -0.230804402915E+04   -0.19751E-02   -0.19809E-02  5762   0.101E-01    0.176E-01
RMM:   3    -0.230804410127E+04   -0.72130E-04   -0.15883E-03  4843   0.346E-02    0.189E-01
RMM:   4    -0.230804391434E+04    0.18694E-03   -0.21371E-04  3467   0.930E-03    0.393E-02
RMM:   5    -0.230804388892E+04    0.25415E-04   -0.80251E-05  3702   0.745E-03    0.211E-02
RMM:   6    -0.230804388629E+04    0.26344E-05   -0.25027E-05  2913   0.629E-03
 200 F= -.23284493E+04 E0= -.23284493E+04  d E =-.229819E-02  mag=     4.0000
       N       E                     dE             d eps       ncg     rms          rms(c)
DAV:   1    -0.230804206446E+04    0.18245E-02   -0.90593E-01  4408   0.101E+00    0.205E-01
RMM:   2    -0.230804615766E+04   -0.40932E-02   -0.44229E-02  5749   0.167E-01    0.107E-01
RMM:   3    -0.230804618082E+04   -0.23158E-04   -0.28397E-03  5113   0.541E-02    0.909E-02
RMM:   4    -0.230804621745E+04   -0.36637E-04   -0.40630E-04  4610   0.133E-02    0.143E-01
RMM:   5    -0.230804608886E+04    0.12859E-03   -0.23248E-04  4308   0.120E-02    0.433E-02
RMM:   6    -0.230804608156E+04    0.73066E-05   -0.60740E-05  3550   0.795E-03
 201 F= -.23284511E+04 E0= -.23284511E+04  d E =-.184976E-02  mag=     4.0000
