       N       E                     dE             d eps       ncg     rms          rms(c)
DAV:   1     0.121206052038E+05    0.12121E+05   -0.83266E+05  4640   0.140E+03
DAV:   2    -0.129746009222E+04   -0.13418E+05   -0.12913E+05  5040   0.318E+02
DAV:   3    -0.249355001496E+04   -0.11961E+04   -0.11865E+04  5440   0.102E+02
DAV:   4    -0.251864973744E+04   -0.25100E+02   -0.24977E+02  5760   0.176E+01
DAV:   5    -0.251927096243E+04   -0.62122E+00   -0.62016E+00  5760   0.244E+00    0.171E+02
RMM:   6    -0.147905213232E+04    0.10402E+04   -0.19084E+03  4499   0.376E+01    0.725E+01
RMM:   7    -0.164071206853E+04   -0.16166E+03   -0.26706E+02  5037   0.134E+01    0.494E+01
RMM:   8    -0.170311291957E+04   -0.62401E+02   -0.51259E+01  5157   0.742E+00    0.407E+01
RMM:   9    -0.179417813104E+04   -0.91065E+02   -0.64677E+01  5079   0.725E+00    0.356E+01
RMM:  10    -0.192828945731E+04   -0.13411E+03   -0.63196E+01  5283   0.756E+00    0.192E+01
RMM:  11    -0.203387168460E+04   -0.10558E+03   -0.46404E+01  5097   0.543E+00    0.151E+01
RMM:  12    -0.212342650205E+04   -0.89555E+02   -0.42551E+01  4636   0.491E+00    0.118E+01
RMM:  13    -0.225498722301E+04   -0.13156E+03   -0.11672E+02  4497   0.740E+00    0.825E+00
RMM:  14    -0.229019712165E+04   -0.35210E+02   -0.30951E+01  4508   0.433E+00    0.729E+00
RMM:  15    -0.230006014099E+04   -0.98630E+01   -0.98601E+00  4815   0.229E+00    0.461E+00
RMM:  16    -0.230719453002E+04   -0.71344E+01   -0.52590E+00  4701   0.165E+00    0.380E+00
RMM:  17    -0.230917753373E+04   -0.19830E+01   -0.12504E+00  4965   0.935E-01    0.555E+00
RMM:  18    -0.230966499405E+04   -0.48746E+00   -0.26891E-01  5561   0.319E-01    0.510E+00
RMM:  19    -0.231001532340E+04   -0.35033E+00   -0.13091E-01  4829   0.193E-01    0.414E+00
RMM:  20    -0.231102478137E+04   -0.10095E+01   -0.40433E-01  4607   0.316E-01    0.243E+00
RMM:  21    -0.231157766804E+04   -0.55289E+00   -0.43809E-01  4601   0.351E-01    0.136E+00
RMM:  22    -0.231176623747E+04   -0.18857E+00   -0.17230E-01  4596   0.248E-01    0.904E-01
RMM:  23    -0.231184644719E+04   -0.80210E-01   -0.68425E-02  4703   0.143E-01    0.558E-01
RMM:  24    -0.231192040364E+04   -0.73956E-01   -0.35638E-02  4603   0.114E-01    0.314E-01
RMM:  25    -0.231196676814E+04   -0.46365E-01   -0.14997E-02  4716   0.725E-02    0.209E-01
RMM:  26    -0.231200256156E+04   -0.35793E-01   -0.73553E-03  4560   0.601E-02    0.132E-01
RMM:  27    -0.231202087532E+04   -0.18314E-01   -0.35514E-03  4599   0.433E-02    0.100E-01
RMM:  28    -0.231203214212E+04   -0.11267E-01   -0.25578E-03  4598   0.360E-02    0.647E-02
RMM:  29    -0.231203666726E+04   -0.45251E-02   -0.97488E-04  4478   0.254E-02    0.507E-02
RMM:  30    -0.231203965142E+04   -0.29842E-02   -0.63709E-04  4161   0.161E-02    0.223E-02
RMM:  31    -0.231204082156E+04   -0.11701E-02   -0.27997E-04  4032   0.140E-02    0.113E-02
RMM:  32    -0.231204105064E+04   -0.22908E-03   -0.72989E-05  3734   0.699E-03    0.843E-03
RMM:  33    -0.231204120306E+04   -0.15242E-03   -0.31127E-05  3326   0.550E-03    0.575E-03
RMM:  34    -0.231204125858E+04   -0.55519E-04   -0.14619E-05  3035   0.393E-03    0.232E-03
RMM:  35    -0.231204127732E+04   -0.18737E-04   -0.60382E-06  2887   0.290E-03    0.170E-03
RMM:  36    -0.231204128526E+04   -0.79391E-05   -0.31009E-06  2545   0.209E-03
   1 F= -.23325257E+04 E0= -.23325257E+04  d E =-.405935E-14  mag=     3.0000
       N       E                     dE             d eps       ncg     rms          rms(c)
DAV:   1    -0.231207181584E+04   -0.30539E-01   -0.21233E+00  4480   0.580E-01    0.311E-01
RMM:   2    -0.231207294719E+04   -0.11313E-02   -0.12303E-02  4085   0.441E-02    0.450E-01
RMM:   3    -0.231207161592E+04    0.13313E-02   -0.24536E-03  4955   0.182E-02    0.230E-01
RMM:   4    -0.231207123693E+04    0.37899E-03   -0.11286E-03  4169   0.130E-02    0.954E-02
RMM:   5    -0.231207115680E+04    0.80128E-04   -0.28725E-04  3586   0.876E-03    0.348E-02
RMM:   6    -0.231207115320E+04    0.36018E-05   -0.32285E-05  2826   0.331E-03
   2 F= -.23325553E+04 E0= -.23325553E+04  d E =-.265869E-12  mag=     3.0000
       N       E                     dE             d eps       ncg     rms          rms(c)
DAV:   1    -0.231198128017E+04    0.89877E-01   -0.84601E+00  4480   0.118E+00    0.627E-01
RMM:   2    -0.231198511363E+04   -0.38335E-02   -0.42983E-02  4387   0.838E-02    0.891E-01
RMM:   3    -0.231197994520E+04    0.51684E-02   -0.93398E-03  5518   0.362E-02    0.445E-01
RMM:   4    -0.231197839451E+04    0.15507E-02   -0.46954E-03  4887   0.262E-02    0.162E-01
RMM:   5    -0.231197820745E+04    0.18706E-03   -0.84004E-04  4245   0.149E-02    0.580E-02
RMM:   6    -0.231197819899E+04    0.84562E-05   -0.10397E-04  3184   0.500E-03    0.210E-02
RMM:   7    -0.231197820470E+04   -0.57082E-05   -0.22310E-05  2945   0.318E-03
   3 F= -.23324629E+04 E0= -.23324629E+04  d E =-.167944E-10  mag=     3.0000
       N       E                     dE             d eps       ncg     rms          rms(c)
DAV:   1    -0.231198731379E+04   -0.91148E-02   -0.40722E+00  4480   0.787E-01    0.446E-01
RMM:   2    -0.231198778648E+04   -0.47269E-03   -0.17607E-02  4310   0.518E-02    0.550E-01
RMM:   3    -0.231198607897E+04    0.17075E-02   -0.43310E-03  5205   0.239E-02    0.362E-01
RMM:   4    -0.231198509584E+04    0.98313E-03   -0.21818E-03  4538   0.176E-02    0.108E-01
RMM:   5    -0.231198498874E+04    0.10709E-03   -0.44944E-04  3720   0.115E-02    0.355E-02
RMM:   6    -0.231198498597E+04    0.27774E-05   -0.53533E-05  3038   0.390E-03
   4 F= -.23324695E+04 E0= -.23324695E+04  d E =-.454620E-13  mag=     3.0000
       N       E                     dE             d eps       ncg     rms          rms(c)
DAV:   1    -0.231207781815E+04   -0.92829E-01   -0.82052E+00  4480   0.120E+00    0.652E-01
RMM:   2    -0.231207412330E+04    0.36949E-02   -0.26296E-02  4137   0.650E-02    0.353E-01
RMM:   3    -0.231207383963E+04    0.28367E-03   -0.84680E-03  5028   0.362E-02    0.425E-01
RMM:   4    -0.231207271779E+04    0.11218E-02   -0.26222E-03  4811   0.231E-02    0.189E-01
RMM:   5    -0.231207257215E+04    0.14563E-03   -0.35986E-04  3545   0.876E-03    0.410E-02
RMM:   6    -0.231207256019E+04    0.11963E-04   -0.69901E-05  3052   0.518E-03    0.197E-02
RMM:   7    -0.231207256180E+04   -0.16088E-05   -0.17318E-05  2875   0.314E-03
   5 F= -.23325569E+04 E0= -.23325569E+04  d E =-.194314E-13  mag=     3.0000
       N       E                     dE             d eps       ncg     rms          rms(c)
DAV:   1    -0.231203640514E+04    0.36155E-01   -0.39389E+00  4640   0.728E-01    0.439E-01
RMM:   2    -0.231203510271E+04    0.13024E-02   -0.12315E-02  4292   0.430E-02    0.259E-01
RMM:   3    -0.231203511576E+04   -0.13052E-04   -0.24397E-03  4832   0.203E-02    0.318E-01
RMM:   4    -0.231203473043E+04    0.38533E-03   -0.19282E-03  4744   0.160E-02    0.226E-01
RMM:   5    -0.231203436626E+04    0.36417E-03   -0.36829E-04  3747   0.861E-03    0.450E-02
RMM:   6    -0.231203436078E+04    0.54752E-05   -0.55888E-05  2942   0.506E-03
   6 F= -.23325185E+04 E0= -.23325185E+04  d E =-.239285E-14  mag=     3.0000
       N       E                     dE             d eps       ncg     rms          rms(c)
DAV:   1    -0.231202832198E+04    0.60443E-02   -0.81342E+00  4480   0.114E+00    0.699E-01
RMM:   2    -0.231202574038E+04    0.25816E-02   -0.39973E-02  4536   0.800E-02    0.488E-01
RMM:   3    -0.231202461482E+04    0.11256E-02   -0.68764E-03  5268   0.352E-02    0.519E-01
RMM:   4    -0.231202365711E+04    0.95771E-03   -0.44361E-03  5109   0.240E-02    0.371E-01
RMM:   5    -0.231202259190E+04    0.10652E-02   -0.14835E-03  4584   0.155E-02    0.676E-02
RMM:   6    -0.231202258826E+04    0.36384E-05   -0.15602E-04  3262   0.845E-03    0.270E-02
RMM:   7    -0.231202259917E+04   -0.10912E-04   -0.37230E-05  3012   0.360E-03    0.121E-02
RMM:   8    -0.231202260505E+04   -0.58772E-05   -0.62344E-06  2808   0.242E-03
   7 F= -.23325073E+04 E0= -.23325073E+04  d E =-.420598E-12  mag=     3.0000
       N       E                     dE             d eps       ncg     rms          rms(c)
DAV:   1    -0.231202328760E+04   -0.68843E-03   -0.70740E+00  4480   0.127E+00    0.508E-01
RMM:   2    -0.231202336786E+04   -0.80262E-04   -0.44524E-02  4390   0.869E-02    0.292E-01
RMM:   3    -0.231202289151E+04    0.47635E-03   -0.42537E-03  4553   0.351E-02    0.332E-01
RMM:   4    -0.231202248600E+04    0.40551E-03   -0.21389E-03  4926   0.195E-02    0.237E-01
RMM:   5    -0.231202209137E+04    0.39463E-03   -0.10442E-03  4479   0.139E-02    0.704E-02
RMM:   6    -0.231202206112E+04    0.30251E-04   -0.93488E-05  3179   0.718E-03    0.329E-02
RMM:   7    -0.231202205695E+04    0.41645E-05   -0.39193E-05  3085   0.375E-03
   8 F= -.23325064E+04 E0= -.23325064E+04  d E =-.227161E-10  mag=     3.0000
       N       E                     dE             d eps       ncg     rms          rms(c)
DAV:   1    -0.231203694237E+04   -0.14881E-01   -0.20053E+01  4480   0.194E+00    0.760E-01
RMM:   2    -0.231203906030E+04   -0.21179E-02   -0.11985E-01  4488   0.125E-01    0.604E-01
RMM:   3    -0.231203917184E+04   -0.11154E-03   -0.14012E-02  5704   0.517E-02    0.768E-01
RMM:   4    -0.231203468310E+04    0.44887E-02   -0.57701E-03  5487   0.328E-02    0.221E-01
RMM:   5    -0.231203433032E+04    0.35279E-03   -0.24573E-03  4511   0.204E-02    0.768E-02
RMM:   6    -0.231203428008E+04    0.50239E-04   -0.21544E-04  3432   0.130E-02    0.488E-02
RMM:   7    -0.231203427593E+04    0.41433E-05   -0.10891E-04  3393   0.533E-03    0.201E-02
RMM:   8    -0.231203427171E+04    0.42212E-05   -0.18931E-05  2997   0.441E-03
   9 F= -.23325187E+04 E0= -.23325187E+04  d E =-.968804E-14  mag=     3.0000
       N       E                     dE             d eps       ncg     rms          rms(c)
DAV:   1    -0.231204507652E+04   -0.10801E-01   -0.10098E+01  4640   0.144E+00    0.788E-01
RMM:   2    -0.231204022153E+04    0.48550E-02   -0.74717E-02  4575   0.986E-02    0.411E-01
RMM:   3    -0.231203925829E+04    0.96323E-03   -0.81746E-03  5025   0.493E-02    0.485E-01
RMM:   4    -0.231203805843E+04    0.11999E-02   -0.34945E-03  5059   0.236E-02    0.280E-01
RMM:   5    -0.231203760902E+04    0.44941E-03   -0.15501E-03  4356   0.160E-02    0.822E-02
RMM:   6    -0.231203756577E+04    0.43252E-04   -0.19434E-04  3336   0.984E-03    0.382E-02
RMM:   7    -0.231203756227E+04    0.35010E-05   -0.64273E-05  3160   0.440E-03
  10 F= -.23325218E+04 E0= -.23325218E+04  d E =-.582627E-15  mag=     3.0000
       N       E                     dE             d eps       ncg     rms          rms(c)
DAV:   1    -0.231202475643E+04    0.12809E-01   -0.19957E+01  4480   0.192E+00    0.109E+00
RMM:   2    -0.231202110258E+04    0.36539E-02   -0.14587E-01  4863   0.142E-01    0.517E-01
RMM:   3    -0.231201683808E+04    0.42645E-02   -0.12101E-02  5090   0.647E-02    0.460E-01
RMM:   4    -0.231201731484E+04   -0.47675E-03   -0.61597E-03  5260   0.294E-02    0.510E-01
RMM:   5    -0.231201556346E+04    0.17514E-02   -0.28979E-03  4865   0.253E-02    0.116E-01
RMM:   6    -0.231201545711E+04    0.10635E-03   -0.42493E-04  3747   0.121E-02    0.453E-02
RMM:   7    -0.231201545539E+04    0.17253E-05   -0.13201E-04  3505   0.657E-03    0.219E-02
RMM:   8    -0.231201545111E+04    0.42800E-05   -0.19717E-05  3039   0.429E-03
  11 F= -.23325001E+04 E0= -.23325001E+04  d E =-.104596E-13  mag=     3.0000
       N       E                     dE             d eps       ncg     rms          rms(c)
DAV:   1    -0.231204404789E+04   -0.28592E-01   -0.10287E+01  4480   0.137E+00    0.522E-01
RMM:   2    -0.231204497949E+04   -0.93160E-03   -0.45527E-02  4433   0.767E-02    0.267E-01
RMM:   3    -0.231204458653E+04    0.39296E-03   -0.31518E-03  5207   0.286E-02    0.366E-01
RMM:   4    -0.231204387434E+04    0.71219E-03   -0.18385E-03  4369   0.164E-02    0.200E-01
RMM:   5    -0.231204365209E+04    0.22225E-03   -0.64199E-04  3899   0.132E-02    0.443E-02
RMM:   6    -0.231204364241E+04    0.96733E-05   -0.85644E-05  3144   0.732E-03
  12 F= -.23325284E+04 E0= -.23325284E+04  d E =-.548986E-15  mag=     3.0000
       N       E                     dE             d eps       ncg     rms          rms(c)
DAV:   1    -0.231203484139E+04    0.88107E-02   -0.20760E+01  4480   0.187E+00    0.521E-01
RMM:   2    -0.231203685500E+04   -0.20136E-02   -0.57148E-02  4389   0.850E-02    0.298E-01
RMM:   3    -0.231203649810E+04    0.35690E-03   -0.37763E-03  5039   0.320E-02    0.342E-01
RMM:   4    -0.231203629884E+04    0.19927E-03   -0.28753E-03  4652   0.223E-02    0.290E-01
RMM:   5    -0.231203576369E+04    0.53515E-03   -0.72846E-04  4311   0.129E-02    0.542E-02
RMM:   6    -0.231203574686E+04    0.16830E-04   -0.89390E-05  3130   0.709E-03    0.239E-02
RMM:   7    -0.231203574457E+04    0.22863E-05   -0.19987E-05  2971   0.338E-03
  13 F= -.23325197E+04 E0= -.23325197E+04  d E =-.102981E-13  mag=     3.0000
       N       E                     dE             d eps       ncg     rms          rms(c)
DAV:   1    -0.231204059935E+04   -0.48525E-02   -0.54948E+00  4480   0.980E-01    0.315E-01
RMM:   2    -0.231204183995E+04   -0.12406E-02   -0.21452E-02  4119   0.534E-02    0.199E-01
RMM:   3    -0.231204200023E+04   -0.16027E-03   -0.16029E-03  4835   0.184E-02    0.286E-01
RMM:   4    -0.231204154363E+04    0.45660E-03   -0.12306E-03  4183   0.143E-02    0.144E-01
RMM:   5    -0.231204143845E+04    0.10518E-03   -0.26311E-04  3751   0.834E-03    0.364E-02
RMM:   6    -0.231204142655E+04    0.11902E-04   -0.25647E-05  2939   0.436E-03    0.133E-02
RMM:   7    -0.231204142577E+04    0.78093E-06   -0.69515E-06  2727   0.193E-03
  14 F= -.23325256E+04 E0= -.23325256E+04  d E =-.199191E-13  mag=     3.0000
       N       E                     dE             d eps       ncg     rms          rms(c)
DAV:   1    -0.231203830114E+04    0.31254E-02   -0.12224E+00  4480   0.445E-01    0.353E-01
RMM:   2    -0.231203830704E+04   -0.59070E-05   -0.48518E-03  3693   0.274E-02    0.223E-01
RMM:   3    -0.231203931030E+04   -0.10033E-02   -0.23627E-03  4986   0.182E-02    0.395E-01
RMM:   4    -0.231203814357E+04    0.11667E-02   -0.11598E-03  4294   0.140E-02    0.745E-02
RMM:   5    -0.231203811818E+04    0.25385E-04   -0.77874E-05  2971   0.468E-03    0.207E-02
RMM:   6    -0.231203811362E+04    0.45622E-05   -0.13312E-05  2748   0.262E-03
  15 F= -.23325228E+04 E0= -.23325228E+04  d E =-.414830E-15  mag=     3.0000
       N       E                     dE             d eps       ncg     rms          rms(c)
DAV:   1    -0.231203642529E+04    0.16929E-02   -0.62321E-01  4720   0.315E-01    0.346E-01
RMM:   2    -0.231203562553E+04    0.79976E-03   -0.70421E-03  4060   0.310E-02    0.239E-01
RMM:   3    -0.231203541837E+04    0.20715E-03   -0.18003E-03  4228   0.172E-02    0.249E-01
RMM:   4    -0.231203531293E+04    0.10544E-03   -0.10507E-03  4200   0.123E-02    0.227E-01
RMM:   5    -0.231203490827E+04    0.40466E-03   -0.38651E-04  3785   0.903E-03    0.325E-02
RMM:   6    -0.231203490379E+04    0.44855E-05   -0.64562E-05  2901   0.441E-03
  16 F= -.23325196E+04 E0= -.23325196E+04  d E =-.106949E-13  mag=     3.0000
       N       E                     dE             d eps       ncg     rms          rms(c)
DAV:   1    -0.231203889134E+04   -0.39831E-02   -0.12547E+00  4880   0.461E-01    0.554E-01
RMM:   2    -0.231203616624E+04    0.27251E-02   -0.20880E-02  4507   0.491E-02    0.400E-01
RMM:   3    -0.231203463910E+04    0.15271E-02   -0.42437E-03  4645   0.283E-02    0.325E-01
RMM:   4    -0.231203499436E+04   -0.35525E-03   -0.25819E-03  4829   0.181E-02    0.391E-01
RMM:   5    -0.231203379254E+04    0.12018E-02   -0.96652E-04  4365   0.138E-02    0.496E-02
RMM:   6    -0.231203378081E+04    0.11732E-04   -0.15565E-04  3166   0.591E-03    0.168E-02
RMM:   7    -0.231203377793E+04    0.28822E-05   -0.21913E-05  2801   0.330E-03
  17 F= -.23325179E+04 E0= -.23325179E+04  d E =-.528667E-15  mag=     3.0000
       N       E                     dE             d eps       ncg     rms          rms(c)
DAV:   1    -0.231202339130E+04    0.10390E-01   -0.61609E-01  4480   0.305E-01    0.286E-01
RMM:   2    -0.231202335172E+04    0.39584E-04   -0.22653E-03  3572   0.191E-02    0.206E-01
RMM:   3    -0.231202406803E+04   -0.71631E-03   -0.15558E-03  4680   0.137E-02    0.354E-01
RMM:   4    -0.231202312031E+04    0.94771E-03   -0.73498E-04  3752   0.117E-02    0.451E-02
RMM:   5    -0.231202311792E+04    0.23975E-05   -0.73929E-05  2917   0.453E-03
  18 F= -.23325076E+04 E0= -.23325076E+04  d E =-.376458E-14  mag=     3.0000
       N       E                     dE             d eps       ncg     rms          rms(c)
DAV:   1    -0.231205046869E+04   -0.27348E-01   -0.12734E+00  4960   0.444E-01    0.578E-01
RMM:   2    -0.231204713614E+04    0.33326E-02   -0.22493E-02  4504   0.527E-02    0.387E-01
RMM:   3    -0.231204546182E+04    0.16743E-02   -0.34573E-03  4698   0.280E-02    0.257E-01
RMM:   4    -0.231204635003E+04   -0.88822E-03   -0.28197E-03  4749   0.198E-02    0.414E-01
RMM:   5    -0.231204494629E+04    0.14037E-02   -0.12041E-03  4549   0.146E-02    0.656E-02
RMM:   6    -0.231204492265E+04    0.23634E-04   -0.13785E-04  3272   0.561E-03    0.267E-02
RMM:   7    -0.231204491679E+04    0.58625E-05   -0.17038E-05  2727   0.320E-03
  19 F= -.23325293E+04 E0= -.23325293E+04  d E =-.100672E-14  mag=     3.0000
       N       E                     dE             d eps       ncg     rms          rms(c)
DAV:   1    -0.231201028424E+04    0.34638E-01   -0.60728E-01  4880   0.332E-01    0.305E-01
RMM:   2    -0.231200973407E+04    0.55017E-03   -0.38206E-03  3586   0.257E-02    0.179E-01
RMM:   3    -0.231200955634E+04    0.17773E-03   -0.10452E-03  4389   0.121E-02    0.112E-01
RMM:   4    -0.231200955372E+04    0.26162E-05   -0.37155E-04  3434   0.962E-03    0.121E-01
RMM:   5    -0.231200943634E+04    0.11738E-03   -0.11157E-04  2855   0.528E-03    0.182E-02
RMM:   6    -0.231200943079E+04    0.55461E-05   -0.13944E-05  2547   0.219E-03
  20 F= -.23324941E+04 E0= -.23324941E+04  d E =-.120275E-14  mag=     3.0000
       N       E                     dE             d eps       ncg     rms          rms(c)
DAV:   1    -0.231206450552E+04   -0.55069E-01   -0.12111E+00  4720   0.473E-01    0.455E-01
RMM:   2    -0.231206278957E+04    0.17160E-02   -0.13362E-02  4248   0.438E-02    0.305E-01
RMM:   3    -0.231206201387E+04    0.77570E-03   -0.22195E-03  4539   0.220E-02    0.238E-01
RMM:   4    -0.231206256063E+04   -0.54676E-03   -0.20143E-03  4522   0.171E-02    0.340E-01
RMM:   5    -0.231206161548E+04    0.94515E-03   -0.84377E-04  4306   0.126E-02    0.443E-02
RMM:   6    -0.231206160910E+04    0.63755E-05   -0.93887E-05  3117   0.479E-03
  21 F= -.23325458E+04 E0= -.23325458E+04  d E =-.252459E-14  mag=     3.0000
       N       E                     dE             d eps       ncg     rms          rms(c)
DAV:   1    -0.231207208999E+04   -0.10475E-01   -0.59208E-01  4480   0.318E-01    0.235E-01
RMM:   2    -0.231207204929E+04    0.40709E-04   -0.17668E-03  3496   0.183E-02    0.156E-01
RMM:   3    -0.231207254825E+04   -0.49896E-03   -0.10536E-03  4384   0.117E-02    0.282E-01
RMM:   4    -0.231207199035E+04    0.55790E-03   -0.59567E-04  3737   0.103E-02    0.647E-02
RMM:   5    -0.231207195021E+04    0.40134E-04   -0.85588E-05  2925   0.484E-03    0.181E-02
RMM:   6    -0.231207194719E+04    0.30218E-05   -0.82531E-06  2541   0.213E-03
  22 F= -.23325559E+04 E0= -.23325559E+04  d E =-.957133E-15  mag=     3.0000
       N       E                     dE             d eps       ncg     rms          rms(c)
DAV:   1    -0.231200353186E+04    0.68418E-01   -0.11860E+00  4960   0.460E-01    0.480E-01
RMM:   2    -0.231200160734E+04    0.19245E-02   -0.16933E-02  4475   0.477E-02    0.330E-01
RMM:   3    -0.231200020781E+04    0.13995E-02   -0.26153E-03  4257   0.247E-02    0.201E-01
RMM:   4    -0.231200099583E+04   -0.78802E-03   -0.18792E-03  4423   0.160E-02    0.372E-01
RMM:   5    -0.231199992512E+04    0.10707E-02   -0.77025E-04  4046   0.123E-02    0.441E-02
RMM:   6    -0.231199991643E+04    0.86877E-05   -0.13164E-04  3164   0.497E-03    0.158E-02
RMM:   7    -0.231199991372E+04    0.27124E-05   -0.14213E-05  2701   0.293E-03
  23 F= -.23324848E+04 E0= -.23324848E+04  d E =-.317306E-14  mag=     3.0000
       N       E                     dE             d eps       ncg     rms          rms(c)
DAV:   1    -0.231203062297E+04   -0.30707E-01   -0.58347E-01  4480   0.322E-01    0.259E-01
RMM:   2    -0.231203035201E+04    0.27096E-03   -0.30970E-03  3854   0.215E-02    0.167E-01
RMM:   3    -0.231203036021E+04   -0.81951E-05   -0.87429E-04  3930   0.121E-02    0.191E-01
RMM:   4    -0.231203032600E+04    0.34212E-04   -0.66462E-04  3624   0.100E-02    0.172E-01
RMM:   5    -0.231203008754E+04    0.23846E-03   -0.19236E-04  3399   0.671E-03    0.260E-02
RMM:   6    -0.231203008339E+04    0.41546E-05   -0.28789E-05  2661   0.297E-03
  24 F= -.23325146E+04 E0= -.23325146E+04  d E =-.949787E-15  mag=     3.0000
       N       E                     dE             d eps       ncg     rms          rms(c)
DAV:   1    -0.231204907704E+04   -0.18990E-01   -0.11696E+00  4480   0.446E-01    0.321E-01
RMM:   2    -0.231204903703E+04    0.40014E-04   -0.44848E-03  4000   0.271E-02    0.223E-01
RMM:   3    -0.231204934054E+04   -0.30351E-03   -0.14021E-03  4799   0.153E-02    0.301E-01
RMM:   4    -0.231204901262E+04    0.32792E-03   -0.12938E-03  3953   0.142E-02    0.174E-01
RMM:   5    -0.231204874808E+04    0.26454E-03   -0.23071E-04  3426   0.755E-03    0.246E-02
RMM:   6    -0.231204874625E+04    0.18304E-05   -0.31276E-05  2755   0.339E-03
  25 F= -.23325330E+04 E0= -.23325330E+04  d E =-.318405E-14  mag=     3.0000
       N       E                     dE             d eps       ncg     rms          rms(c)
DAV:   1    -0.231202991052E+04    0.18838E-01   -0.57010E-01  4640   0.373E-01    0.296E-01
RMM:   2    -0.231202972490E+04    0.18562E-03   -0.74612E-03  4558   0.349E-02    0.201E-01
RMM:   3    -0.231202975720E+04   -0.32292E-04   -0.12060E-03  4211   0.180E-02    0.245E-01
RMM:   4    -0.231202943854E+04    0.31866E-03   -0.69213E-04  3969   0.106E-02    0.124E-01
RMM:   5    -0.231202937633E+04    0.62211E-04   -0.18546E-04  3417   0.704E-03    0.287E-02
RMM:   6    -0.231202936891E+04    0.74175E-05   -0.26388E-05  2940   0.415E-03
  26 F= -.23325135E+04 E0= -.23325135E+04  d E =-.850924E-15  mag=     3.0000
       N       E                     dE             d eps       ncg     rms          rms(c)
DAV:   1    -0.231204116271E+04   -0.11786E-01   -0.11310E+00  4640   0.467E-01    0.505E-01
RMM:   2    -0.231204042283E+04    0.73988E-03   -0.21755E-02  4927   0.531E-02    0.393E-01
RMM:   3    -0.231204091688E+04   -0.49405E-03   -0.48442E-03  4588   0.358E-02    0.510E-01
RMM:   4    -0.231203913411E+04    0.17828E-02   -0.17766E-03  4729   0.184E-02    0.149E-01
RMM:   5    -0.231203916879E+04   -0.34675E-04   -0.43818E-04  3908   0.104E-02    0.456E-02
RMM:   6    -0.231203914881E+04    0.19976E-04   -0.65987E-05  3107   0.578E-03    0.157E-02
RMM:   7    -0.231203914742E+04    0.13899E-05   -0.21967E-05  3039   0.301E-03
  27 F= -.23325238E+04 E0= -.23325238E+04  d E =-.357024E-14  mag=     3.0000
       N       E                     dE             d eps       ncg     rms          rms(c)
DAV:   1    -0.231202513283E+04    0.14016E-01   -0.58145E-01  4960   0.340E-01    0.587E-01
RMM:   2    -0.231202293046E+04    0.22024E-02   -0.42724E-02  4946   0.682E-02    0.396E-01
RMM:   3    -0.231202189612E+04    0.10343E-02   -0.55913E-03  4458   0.457E-02    0.460E-01
RMM:   4    -0.231202046050E+04    0.14356E-02   -0.20614E-03  4807   0.189E-02    0.172E-01
RMM:   5    -0.231202032038E+04    0.14013E-03   -0.65088E-04  3769   0.106E-02    0.587E-02
RMM:   6    -0.231202026938E+04    0.50996E-04   -0.98207E-05  3156   0.666E-03    0.228E-02
RMM:   7    -0.231202026395E+04    0.54337E-05   -0.37556E-05  3034   0.313E-03
  28 F= -.23325048E+04 E0= -.23325048E+04  d E =-.139904E-14  mag=     3.0000
       N       E                     dE             d eps       ncg     rms          rms(c)
DAV:   1    -0.231204231122E+04   -0.22042E-01   -0.11467E+00  4800   0.488E-01    0.726E-01
RMM:   2    -0.231203813763E+04    0.41736E-02   -0.61615E-02  4929   0.764E-02    0.424E-01
RMM:   3    -0.231203595229E+04    0.21853E-02   -0.59181E-03  4624   0.461E-02    0.386E-01
RMM:   4    -0.231203560985E+04    0.34245E-03   -0.25750E-03  4875   0.198E-02    0.303E-01
RMM:   5    -0.231203510273E+04    0.50711E-03   -0.88886E-04  4055   0.135E-02    0.785E-02
RMM:   6    -0.231203503540E+04    0.67333E-04   -0.14561E-04  3255   0.795E-03    0.262E-02
RMM:   7    -0.231203503082E+04    0.45755E-05   -0.48283E-05  3187   0.374E-03
  29 F= -.23325193E+04 E0= -.23325193E+04  d E =-.248972E-14  mag=     3.0000
       N       E                     dE             d eps       ncg     rms          rms(c)
DAV:   1    -0.231203590211E+04   -0.86671E-03   -0.56408E-01  4480   0.304E-01    0.375E-01
RMM:   2    -0.231203549339E+04    0.40872E-03   -0.15081E-02  4582   0.409E-02    0.215E-01
RMM:   3    -0.231203491211E+04    0.58127E-03   -0.11596E-03  4222   0.203E-02    0.118E-01
RMM:   4    -0.231203503940E+04   -0.12729E-03   -0.54404E-04  4049   0.105E-02    0.884E-02
RMM:   5    -0.231203503861E+04    0.78806E-06   -0.19150E-04  3180   0.723E-03    0.900E-02
RMM:   6    -0.231203497171E+04    0.66900E-04   -0.40201E-05  2912   0.381E-03    0.184E-02
RMM:   7    -0.231203496933E+04    0.23826E-05   -0.19542E-05  2741   0.249E-03
  30 F= -.23325192E+04 E0= -.23325192E+04  d E =-.280870E-14  mag=     3.0000
       N       E                     dE             d eps       ncg     rms          rms(c)
DAV:   1    -0.231204521514E+04   -0.10243E-01   -0.10912E+00  4480   0.433E-01    0.347E-01
RMM:   2    -0.231204611543E+04   -0.90029E-03   -0.61210E-03  4394   0.316E-02    0.255E-01
RMM:   3    -0.231204688202E+04   -0.76659E-03   -0.17963E-03  4740   0.168E-02    0.363E-01
RMM:   4    -0.231204621385E+04    0.66817E-03   -0.10445E-03  4371   0.141E-02    0.126E-01
RMM:   5    -0.231204622194E+04   -0.80888E-05   -0.19490E-04  3558   0.789E-03    0.443E-02
RMM:   6    -0.231204620689E+04    0.15053E-04   -0.29427E-05  2987   0.440E-03    0.159E-02
RMM:   7    -0.231204620669E+04    0.19961E-06   -0.89125E-06  2846   0.245E-03
  31 F= -.23325308E+04 E0= -.23325308E+04  d E =-.941794E-15  mag=     3.0000
