       N       E                     dE             d eps       ncg     rms          rms(c)
DAV:   1     0.124417083620E+05    0.12442E+05   -0.84061E+05  4640   0.142E+03
DAV:   2    -0.125428661405E+04   -0.13696E+05   -0.13161E+05  5040   0.322E+02
DAV:   3    -0.249518914170E+04   -0.12409E+04   -0.12301E+04  5440   0.104E+02
DAV:   4    -0.252325630196E+04   -0.28067E+02   -0.27882E+02  5600   0.195E+01
DAV:   5    -0.252417949021E+04   -0.92319E+00   -0.92147E+00  5920   0.294E+00    0.171E+02
RMM:   6    -0.149397845041E+04    0.10302E+04   -0.19125E+03  4504   0.376E+01    0.721E+01
RMM:   7    -0.166612194685E+04   -0.17214E+03   -0.28237E+02  5156   0.137E+01    0.490E+01
RMM:   8    -0.171879970742E+04   -0.52678E+02   -0.47065E+01  5380   0.699E+00    0.426E+01
RMM:   9    -0.180352384363E+04   -0.84724E+02   -0.70305E+01  5053   0.730E+00    0.351E+01
RMM:  10    -0.192050032832E+04   -0.11698E+03   -0.58482E+01  5350   0.713E+00    0.225E+01
RMM:  11    -0.200920962716E+04   -0.88709E+02   -0.30315E+01  5216   0.447E+00    0.196E+01
RMM:  12    -0.206139386631E+04   -0.52184E+02   -0.17297E+01  5116   0.326E+00    0.163E+01
RMM:  13    -0.219230839522E+04   -0.13091E+03   -0.88564E+01  4488   0.686E+00    0.104E+01
RMM:  14    -0.226443178980E+04   -0.72123E+02   -0.56112E+01  4653   0.539E+00    0.702E+00
RMM:  15    -0.230892210029E+04   -0.44490E+02   -0.43794E+01  4685   0.469E+00    0.531E+00
RMM:  16    -0.231766850634E+04   -0.87464E+01   -0.11704E+01  4843   0.278E+00    0.260E+00
RMM:  17    -0.232069374821E+04   -0.30252E+01   -0.30878E+00  5039   0.107E+00    0.167E+00
RMM:  18    -0.232179466155E+04   -0.11009E+01   -0.66991E-01  4839   0.711E-01    0.985E-01
RMM:  19    -0.232204572812E+04   -0.25107E+00   -0.15649E-01  5052   0.304E-01    0.525E-01
RMM:  20    -0.232214111997E+04   -0.95392E-01   -0.48235E-02  4706   0.176E-01    0.229E-01
RMM:  21    -0.232217850139E+04   -0.37381E-01   -0.15214E-02  4740   0.108E-01    0.201E-01
RMM:  22    -0.232219798554E+04   -0.19484E-01   -0.81372E-03  4541   0.732E-02    0.105E-01
RMM:  23    -0.232221016922E+04   -0.12184E-01   -0.53527E-03  4620   0.588E-02    0.796E-02
RMM:  24    -0.232221705513E+04   -0.68859E-02   -0.23706E-03  4650   0.437E-02    0.424E-02
RMM:  25    -0.232222159349E+04   -0.45384E-02   -0.17237E-03  4543   0.305E-02    0.264E-02
RMM:  26    -0.232222290063E+04   -0.13071E-02   -0.52761E-04  4216   0.220E-02    0.126E-02
RMM:  27    -0.232222345634E+04   -0.55571E-03   -0.21938E-04  3951   0.108E-02    0.911E-03
RMM:  28    -0.232222370490E+04   -0.24856E-03   -0.70396E-05  3678   0.916E-03    0.451E-03
RMM:  29    -0.232222381469E+04   -0.10979E-03   -0.32143E-05  3370   0.453E-03    0.366E-03
RMM:  30    -0.232222387405E+04   -0.59363E-04   -0.13862E-05  3003   0.406E-03    0.224E-03
RMM:  31    -0.232222389499E+04   -0.20937E-04   -0.83361E-06  2911   0.291E-03    0.108E-03
RMM:  32    -0.232222389851E+04   -0.35251E-05   -0.34898E-06  2513   0.232E-03
   1 F= -.23431767E+04 E0= -.23431765E+04  d E =-.379350E-03  mag=     7.9967
       N       E                     dE             d eps       ncg     rms          rms(c)
DAV:   1    -0.232216830871E+04    0.55586E-01   -0.19658E+00  4480   0.659E-01    0.342E-01
RMM:   2    -0.232216814643E+04    0.16228E-03   -0.74920E-03  3910   0.382E-02    0.202E-01
RMM:   3    -0.232216800878E+04    0.13765E-03   -0.19096E-03  4241   0.159E-02    0.432E-02
RMM:   4    -0.232216799762E+04    0.11156E-04   -0.21758E-04  3212   0.109E-02    0.517E-02
RMM:   5    -0.232216797249E+04    0.25126E-04   -0.39565E-05  2761   0.332E-03    0.168E-02
RMM:   6    -0.232216796813E+04    0.43631E-05   -0.22724E-05  2797   0.246E-03
   2 F= -.23431209E+04 E0= -.23431207E+04  d E =-.353258E-03  mag=     7.9968
       N       E                     dE             d eps       ncg     rms          rms(c)
DAV:   1    -0.232224912409E+04   -0.81152E-01   -0.78145E+00  4480   0.129E+00    0.673E-01
RMM:   2    -0.232224826526E+04    0.85883E-03   -0.25607E-02  4082   0.761E-02    0.401E-01
RMM:   3    -0.232224771855E+04    0.54671E-03   -0.84702E-03  4910   0.375E-02    0.160E-01
RMM:   4    -0.232224752928E+04    0.18927E-03   -0.99351E-04  4364   0.165E-02    0.127E-01
RMM:   5    -0.232224736089E+04    0.16839E-03   -0.15779E-04  3340   0.647E-03    0.304E-02
RMM:   6    -0.232224735315E+04    0.77438E-05   -0.10619E-04  3256   0.482E-03    0.237E-02
RMM:   7    -0.232224735234E+04    0.80533E-06   -0.22159E-05  2858   0.366E-03
   3 F= -.23432000E+04 E0= -.23431998E+04  d E =-.405511E-03  mag=     7.9966
       N       E                     dE             d eps       ncg     rms          rms(c)
DAV:   1    -0.232224974567E+04   -0.23925E-02   -0.43236E+00  4640   0.983E-01    0.465E-01
RMM:   2    -0.232224873267E+04    0.10130E-02   -0.13341E-02  3923   0.532E-02    0.277E-01
RMM:   3    -0.232224827095E+04    0.46172E-03   -0.61423E-03  4624   0.259E-02    0.449E-02
RMM:   4    -0.232224810242E+04    0.16853E-03   -0.27237E-04  3391   0.126E-02    0.517E-02
RMM:   5    -0.232224806710E+04    0.35314E-04   -0.45316E-05  2891   0.367E-03    0.180E-02
RMM:   6    -0.232224805954E+04    0.75651E-05   -0.30408E-05  2740   0.273E-03
   4 F= -.23432008E+04 E0= -.23432006E+04  d E =-.388923E-03  mag=     7.9966
       N       E                     dE             d eps       ncg     rms          rms(c)
DAV:   1    -0.232215614052E+04    0.91927E-01   -0.83428E+00  4480   0.125E+00    0.673E-01
RMM:   2    -0.232215416908E+04    0.19714E-02   -0.26992E-02  4060   0.781E-02    0.394E-01
RMM:   3    -0.232215330206E+04    0.86703E-03   -0.87570E-03  4815   0.402E-02    0.128E-01
RMM:   4    -0.232215326341E+04    0.38644E-04   -0.10464E-03  4372   0.170E-02    0.135E-01
RMM:   5    -0.232215309364E+04    0.16978E-03   -0.14881E-04  3215   0.626E-03    0.277E-02
RMM:   6    -0.232215307701E+04    0.16625E-04   -0.85634E-05  3087   0.431E-03    0.261E-02
RMM:   7    -0.232215307355E+04    0.34584E-05   -0.28286E-05  2849   0.385E-03
   5 F= -.23431059E+04 E0= -.23431058E+04  d E =-.368534E-03  mag=     7.9967
       N       E                     dE             d eps       ncg     rms          rms(c)
DAV:   1    -0.232220721733E+04   -0.54140E-01   -0.40643E+00  4800   0.847E-01    0.467E-01
RMM:   2    -0.232220662235E+04    0.59499E-03   -0.12833E-02  3989   0.525E-02    0.278E-01
RMM:   3    -0.232220631962E+04    0.30273E-03   -0.35143E-03  4669   0.239E-02    0.122E-01
RMM:   4    -0.232220633114E+04   -0.11520E-04   -0.75809E-04  3980   0.137E-02    0.137E-01
RMM:   5    -0.232220617303E+04    0.15811E-03   -0.13351E-04  3115   0.606E-03    0.197E-02
RMM:   6    -0.232220616648E+04    0.65495E-05   -0.39834E-05  2911   0.332E-03
   6 F= -.23431590E+04 E0= -.23431588E+04  d E =-.363300E-03  mag=     7.9968
       N       E                     dE             d eps       ncg     rms          rms(c)
DAV:   1    -0.232220113023E+04    0.50428E-02   -0.83684E+00  4480   0.131E+00    0.642E-01
RMM:   2    -0.232220009812E+04    0.10321E-02   -0.24303E-02  4018   0.733E-02    0.379E-01
RMM:   3    -0.232219940763E+04    0.69048E-03   -0.71303E-03  4787   0.315E-02    0.988E-02
RMM:   4    -0.232219940842E+04   -0.79071E-06   -0.94703E-04  3962   0.176E-02    0.143E-01
RMM:   5    -0.232219922780E+04    0.18062E-03   -0.15117E-04  3153   0.639E-03    0.248E-02
RMM:   6    -0.232219921132E+04    0.16477E-04   -0.86821E-05  3075   0.398E-03    0.208E-02
RMM:   7    -0.232219920980E+04    0.15232E-05   -0.18278E-05  2718   0.338E-03
   7 F= -.23431519E+04 E0= -.23431517E+04  d E =-.396792E-03  mag=     7.9966
       N       E                     dE             d eps       ncg     rms          rms(c)
DAV:   1    -0.232228098220E+04   -0.81771E-01   -0.72353E+00  4480   0.136E+00    0.544E-01
RMM:   2    -0.232228122609E+04   -0.24389E-03   -0.37012E-02  4245   0.886E-02    0.281E-01
RMM:   3    -0.232228063475E+04    0.59134E-03   -0.31651E-03  4256   0.399E-02    0.228E-01
RMM:   4    -0.232228047142E+04    0.16333E-03   -0.19650E-03  4317   0.180E-02    0.142E-01
RMM:   5    -0.232228031619E+04    0.15523E-03   -0.18666E-04  3393   0.991E-03    0.234E-02
RMM:   6    -0.232228031548E+04    0.71373E-06   -0.46291E-05  3008   0.449E-03
   8 F= -.23432321E+04 E0= -.23432319E+04  d E =-.390688E-03  mag=     7.9966
       N       E                     dE             d eps       ncg     rms          rms(c)
DAV:   1    -0.232215575293E+04    0.12456E+00   -0.19453E+01  4480   0.219E+00    0.947E-01
RMM:   2    -0.232215516665E+04    0.58628E-03   -0.11867E-01  4695   0.157E-01    0.411E-01
RMM:   3    -0.232215373857E+04    0.14281E-02   -0.92214E-03  4544   0.787E-02    0.373E-01
RMM:   4    -0.232215341487E+04    0.32370E-03   -0.46438E-03  4973   0.284E-02    0.258E-01
RMM:   5    -0.232215310569E+04    0.30919E-03   -0.71819E-04  4110   0.164E-02    0.453E-02
RMM:   6    -0.232215308772E+04    0.17962E-04   -0.12867E-04  3285   0.823E-03    0.269E-02
RMM:   7    -0.232215308689E+04    0.83051E-06   -0.38315E-05  3069   0.420E-03
   9 F= -.23431068E+04 E0= -.23431066E+04  d E =-.375616E-03  mag=     7.9966
       N       E                     dE             d eps       ncg     rms          rms(c)
DAV:   1    -0.232218523614E+04   -0.32148E-01   -0.10078E+01  4480   0.165E+00    0.709E-01
RMM:   2    -0.232218123685E+04    0.39993E-02   -0.50562E-02  4725   0.100E-01    0.323E-01
RMM:   3    -0.232218096053E+04    0.27631E-03   -0.54905E-03  4369   0.519E-02    0.395E-01
RMM:   4    -0.232217979107E+04    0.11695E-02   -0.23576E-03  4502   0.197E-02    0.147E-01
RMM:   5    -0.232217982863E+04   -0.37565E-04   -0.64532E-04  3934   0.131E-02    0.463E-02
RMM:   6    -0.232217981190E+04    0.16733E-04   -0.80584E-05  3058   0.719E-03    0.370E-02
RMM:   7    -0.232217980224E+04    0.96620E-05   -0.22453E-05  2956   0.296E-03
  10 F= -.23431331E+04 E0= -.23431329E+04  d E =-.329030E-03  mag=     7.9970
       N       E                     dE             d eps       ncg     rms          rms(c)
DAV:   1    -0.232223427008E+04   -0.54458E-01   -0.19673E+01  4480   0.219E+00    0.919E-01
RMM:   2    -0.232223047272E+04    0.37974E-02   -0.92175E-02  4464   0.136E-01    0.475E-01
RMM:   3    -0.232222972498E+04    0.74774E-03   -0.11756E-02  5242   0.670E-02    0.502E-01
RMM:   4    -0.232222801720E+04    0.17078E-02   -0.57060E-03  5249   0.309E-02    0.213E-01
RMM:   5    -0.232222785649E+04    0.16070E-03   -0.68217E-04  4042   0.156E-02    0.504E-02
RMM:   6    -0.232222788101E+04   -0.24513E-04   -0.14653E-04  3195   0.829E-03    0.656E-02
RMM:   7    -0.232222785641E+04    0.24595E-04   -0.57860E-05  3030   0.462E-03    0.257E-02
RMM:   8    -0.232222785244E+04    0.39670E-05   -0.15749E-05  2931   0.312E-03
  11 F= -.23431802E+04 E0= -.23431799E+04  d E =-.434370E-03  mag=     7.9963
       N       E                     dE             d eps       ncg     rms          rms(c)
DAV:   1    -0.232220427653E+04    0.23580E-01   -0.99278E+00  4480   0.152E+00    0.643E-01
RMM:   2    -0.232220229932E+04    0.19772E-02   -0.41454E-02  4276   0.890E-02    0.322E-01
RMM:   3    -0.232220133438E+04    0.96494E-03   -0.30978E-03  4824   0.329E-02    0.147E-01
RMM:   4    -0.232220171625E+04   -0.38187E-03   -0.14819E-03  4441   0.180E-02    0.211E-01
RMM:   5    -0.232220137139E+04    0.34487E-03   -0.36748E-04  3486   0.114E-02    0.250E-02
RMM:   6    -0.232220136345E+04    0.79334E-05   -0.55465E-05  3091   0.443E-03
  12 F= -.23431547E+04 E0= -.23431545E+04  d E =-.442988E-03  mag=     7.9961
       N       E                     dE             d eps       ncg     rms          rms(c)
DAV:   1    -0.232223120750E+04   -0.29836E-01   -0.20653E+01  4480   0.218E+00    0.705E-01
RMM:   2    -0.232223529908E+04   -0.40916E-02   -0.79252E-02  4367   0.129E-01    0.419E-01
RMM:   3    -0.232223635312E+04   -0.10540E-02   -0.10520E-02  5016   0.590E-02    0.577E-01
RMM:   4    -0.232223356649E+04    0.27866E-02   -0.45354E-03  4837   0.285E-02    0.996E-02
RMM:   5    -0.232223351129E+04    0.55194E-04   -0.53614E-04  3663   0.140E-02    0.376E-02
RMM:   6    -0.232223349941E+04    0.11879E-04   -0.81344E-05  3121   0.635E-03    0.413E-02
RMM:   7    -0.232223348676E+04    0.12652E-04   -0.29674E-05  2979   0.422E-03    0.248E-02
RMM:   8    -0.232223347548E+04    0.11278E-04   -0.17717E-05  2961   0.297E-03    0.729E-03
RMM:   9    -0.232223347420E+04    0.12809E-05   -0.39978E-06  2796   0.246E-03
  13 F= -.23431857E+04 E0= -.23431855E+04  d E =-.325496E-03  mag=     7.9970
       N       E                     dE             d eps       ncg     rms          rms(c)
DAV:   1    -0.232222199999E+04    0.11475E-01   -0.55078E+00  4480   0.112E+00    0.396E-01
RMM:   2    -0.232222267835E+04   -0.67836E-03   -0.21840E-02  4178   0.668E-02    0.227E-01
RMM:   3    -0.232222288050E+04   -0.20215E-03   -0.32509E-03  4995   0.273E-02    0.290E-01
RMM:   4    -0.232222217256E+04    0.70794E-03   -0.12064E-03  4107   0.142E-02    0.507E-02
RMM:   5    -0.232222216035E+04    0.12206E-04   -0.12701E-04  3228   0.631E-03    0.210E-02
RMM:   6    -0.232222215962E+04    0.73110E-06   -0.24001E-05  2941   0.401E-03
  14 F= -.23431751E+04 E0= -.23431750E+04  d E =-.378872E-03  mag=     7.9968
       N       E                     dE             d eps       ncg     rms          rms(c)
DAV:   1    -0.232221886909E+04    0.32913E-02   -0.12367E+00  4720   0.482E-01    0.418E-01
RMM:   2    -0.232221768301E+04    0.11861E-02   -0.78552E-03  3782   0.338E-02    0.237E-01
RMM:   3    -0.232221754886E+04    0.13415E-03   -0.26624E-03  4516   0.187E-02    0.156E-01
RMM:   4    -0.232221733318E+04    0.21568E-03   -0.48700E-04  3379   0.117E-02    0.528E-02
RMM:   5    -0.232221729137E+04    0.41808E-04   -0.16295E-04  3120   0.488E-03    0.189E-02
RMM:   6    -0.232221729076E+04    0.61170E-06   -0.19334E-05  2551   0.362E-03
  15 F= -.23431699E+04 E0= -.23431697E+04  d E =-.369861E-03  mag=     7.9967
       N       E                     dE             d eps       ncg     rms          rms(c)
DAV:   1    -0.232221086013E+04    0.64312E-02   -0.63350E-01  5040   0.337E-01    0.375E-01
RMM:   2    -0.232220903549E+04    0.18246E-02   -0.75301E-03  3715   0.327E-02    0.196E-01
RMM:   3    -0.232220874933E+04    0.28615E-03   -0.22003E-03  4217   0.172E-02    0.839E-02
RMM:   4    -0.232220875238E+04   -0.30473E-05   -0.38721E-04  3617   0.887E-03    0.106E-01
RMM:   5    -0.232220864208E+04    0.11031E-03   -0.11793E-04  2862   0.528E-03    0.138E-02
RMM:   6    -0.232220864277E+04   -0.69071E-06   -0.16837E-05  2501   0.285E-03
  16 F= -.23431616E+04 E0= -.23431614E+04  d E =-.371697E-03  mag=     7.9967
       N       E                     dE             d eps       ncg     rms          rms(c)
DAV:   1    -0.232222796820E+04   -0.19326E-01   -0.12459E+00  4720   0.490E-01    0.497E-01
RMM:   2    -0.232222507988E+04    0.28883E-02   -0.10239E-02  3791   0.402E-02    0.267E-01
RMM:   3    -0.232222457741E+04    0.50248E-03   -0.30612E-03  4543   0.215E-02    0.919E-02
RMM:   4    -0.232222462169E+04   -0.44285E-04   -0.43711E-04  3677   0.925E-03    0.127E-01
RMM:   5    -0.232222448614E+04    0.13555E-03   -0.14868E-04  2970   0.597E-03    0.239E-02
RMM:   6    -0.232222448386E+04    0.22805E-05   -0.42733E-05  2754   0.310E-03
  17 F= -.23431771E+04 E0= -.23431769E+04  d E =-.385002E-03  mag=     7.9967
       N       E                     dE             d eps       ncg     rms          rms(c)
DAV:   1    -0.232221017874E+04    0.14307E-01   -0.61631E-01  4480   0.333E-01    0.267E-01
RMM:   2    -0.232221000326E+04    0.17548E-03   -0.22764E-03  3570   0.197E-02    0.157E-01
RMM:   3    -0.232221000371E+04   -0.44100E-06   -0.75921E-04  3792   0.107E-02    0.104E-01
RMM:   4    -0.232220990973E+04    0.93979E-04   -0.19068E-04  2862   0.833E-03    0.233E-02
RMM:   5    -0.232220990421E+04    0.55144E-05   -0.12637E-05  2525   0.211E-03
  18 F= -.23431626E+04 E0= -.23431624E+04  d E =-.386206E-03  mag=     7.9966
       N       E                     dE             d eps       ncg     rms          rms(c)
DAV:   1    -0.232222712035E+04   -0.17211E-01   -0.12517E+00  4960   0.476E-01    0.480E-01
RMM:   2    -0.232222466906E+04    0.24513E-02   -0.10310E-02  3810   0.419E-02    0.259E-01
RMM:   3    -0.232222435295E+04    0.31611E-03   -0.34038E-03  4633   0.232E-02    0.153E-01
RMM:   4    -0.232222421088E+04    0.14207E-03   -0.63067E-04  3918   0.108E-02    0.103E-01
RMM:   5    -0.232222411138E+04    0.99501E-04   -0.16934E-04  3186   0.600E-03    0.175E-02
RMM:   6    -0.232222411555E+04   -0.41727E-05   -0.28787E-05  2699   0.401E-03
  19 F= -.23431770E+04 E0= -.23431768E+04  d E =-.370956E-03  mag=     7.9967
       N       E                     dE             d eps       ncg     rms          rms(c)
DAV:   1    -0.232219828483E+04    0.25827E-01   -0.60403E-01  5040   0.335E-01    0.313E-01
RMM:   2    -0.232219771765E+04    0.56718E-03   -0.37419E-03  3661   0.271E-02    0.182E-01
RMM:   3    -0.232219756178E+04    0.15588E-03   -0.13003E-03  3776   0.144E-02    0.124E-01
RMM:   4    -0.232219743412E+04    0.12766E-03   -0.23111E-04  3017   0.108E-02    0.193E-02
RMM:   5    -0.232219742734E+04    0.67750E-05   -0.22959E-05  2620   0.234E-03
  20 F= -.23431504E+04 E0= -.23431502E+04  d E =-.390747E-03  mag=     7.9966
       N       E                     dE             d eps       ncg     rms          rms(c)
DAV:   1    -0.232224021401E+04   -0.42780E-01   -0.12195E+00  5040   0.412E-01    0.485E-01
RMM:   2    -0.232223731592E+04    0.28981E-02   -0.95054E-03  3830   0.355E-02    0.259E-01
RMM:   3    -0.232223695869E+04    0.35723E-03   -0.37786E-03  4533   0.225E-02    0.129E-01
RMM:   4    -0.232223685079E+04    0.10790E-03   -0.60040E-04  3762   0.109E-02    0.103E-01
RMM:   5    -0.232223674590E+04    0.10489E-03   -0.19444E-04  3271   0.609E-03    0.199E-02
RMM:   6    -0.232223674842E+04   -0.25198E-05   -0.26098E-05  2600   0.375E-03
  21 F= -.23431893E+04 E0= -.23431891E+04  d E =-.365957E-03  mag=     7.9967
       N       E                     dE             d eps       ncg     rms          rms(c)
DAV:   1    -0.232223475100E+04    0.19949E-02   -0.61127E-01  4800   0.271E-01    0.257E-01
RMM:   2    -0.232223450692E+04    0.24408E-03   -0.22438E-03  3594   0.166E-02    0.149E-01
RMM:   3    -0.232223451736E+04   -0.10444E-04   -0.77605E-04  3797   0.101E-02    0.692E-02
RMM:   4    -0.232223448889E+04    0.28467E-04   -0.14754E-04  2845   0.743E-03    0.418E-02
RMM:   5    -0.232223447065E+04    0.18241E-04   -0.27576E-05  2640   0.285E-03    0.771E-03
RMM:   6    -0.232223447171E+04   -0.10619E-05   -0.54422E-06  2368   0.198E-03
  22 F= -.23431871E+04 E0= -.23431869E+04  d E =-.374200E-03  mag=     7.9967
       N       E                     dE             d eps       ncg     rms          rms(c)
DAV:   1    -0.232220829743E+04    0.26173E-01   -0.11941E+00  4720   0.387E-01    0.366E-01
RMM:   2    -0.232220770223E+04    0.59520E-03   -0.51726E-03  3770   0.262E-02    0.208E-01
RMM:   3    -0.232220762306E+04    0.79167E-04   -0.14839E-03  4162   0.157E-02    0.532E-02
RMM:   4    -0.232220765100E+04   -0.27937E-04   -0.21599E-04  3335   0.742E-03    0.788E-02
RMM:   5    -0.232220759354E+04    0.57458E-04   -0.62378E-05  2804   0.418E-03    0.112E-02
RMM:   6    -0.232220759342E+04    0.12272E-06   -0.10739E-05  2603   0.232E-03
  23 F= -.23431605E+04 E0= -.23431604E+04  d E =-.381967E-03  mag=     7.9967
       N       E                     dE             d eps       ncg     rms          rms(c)
DAV:   1    -0.232223060952E+04   -0.23016E-01   -0.58494E-01  4640   0.272E-01    0.256E-01
RMM:   2    -0.232223029396E+04    0.31557E-03   -0.23968E-03  3658   0.174E-02    0.146E-01
RMM:   3    -0.232223025184E+04    0.42118E-04   -0.60672E-04  3757   0.102E-02    0.875E-02
RMM:   4    -0.232223022187E+04    0.29970E-04   -0.21624E-04  2982   0.750E-03    0.578E-02
RMM:   5    -0.232223019579E+04    0.26079E-04   -0.24648E-05  2665   0.316E-03    0.878E-03
RMM:   6    -0.232223019547E+04    0.31941E-06   -0.85017E-06  2437   0.188E-03
  24 F= -.23431835E+04 E0= -.23431833E+04  d E =-.386165E-03  mag=     7.9966
       N       E                     dE             d eps       ncg     rms          rms(c)
DAV:   1    -0.232220523964E+04    0.24956E-01   -0.12202E+00  4720   0.402E-01    0.483E-01
RMM:   2    -0.232220255825E+04    0.26814E-02   -0.89110E-03  3854   0.330E-02    0.258E-01
RMM:   3    -0.232220204179E+04    0.51646E-03   -0.26757E-03  4690   0.190E-02    0.802E-02
RMM:   4    -0.232220203875E+04    0.30364E-05   -0.24936E-04  3338   0.778E-03    0.840E-02
RMM:   5    -0.232220197743E+04    0.61328E-04   -0.94122E-05  2777   0.469E-03    0.281E-02
RMM:   6    -0.232220197231E+04    0.51186E-05   -0.39173E-05  2768   0.303E-03
  25 F= -.23431542E+04 E0= -.23431540E+04  d E =-.371751E-03  mag=     7.9967
       N       E                     dE             d eps       ncg     rms          rms(c)
DAV:   1    -0.232221810879E+04   -0.16131E-01   -0.60985E-01  4720   0.321E-01    0.317E-01
RMM:   2    -0.232221779293E+04    0.31586E-03   -0.30547E-03  3624   0.241E-02    0.189E-01
RMM:   3    -0.232221764191E+04    0.15102E-03   -0.79766E-04  3722   0.113E-02    0.931E-02
RMM:   4    -0.232221757554E+04    0.66370E-04   -0.16609E-04  2855   0.724E-03    0.310E-02
RMM:   5    -0.232221756509E+04    0.10449E-04   -0.12908E-05  2550   0.242E-03    0.696E-03
RMM:   6    -0.232221756551E+04   -0.41841E-06   -0.56674E-06  2236   0.160E-03
  26 F= -.23431701E+04 E0= -.23431699E+04  d E =-.388461E-03  mag=     7.9966
       N       E                     dE             d eps       ncg     rms          rms(c)
DAV:   1    -0.232222286164E+04   -0.52966E-02   -0.12394E+00  4720   0.427E-01    0.442E-01
RMM:   2    -0.232222134621E+04    0.15154E-02   -0.67150E-03  3768   0.321E-02    0.245E-01
RMM:   3    -0.232222110978E+04    0.23644E-03   -0.19620E-03  4339   0.197E-02    0.922E-02
RMM:   4    -0.232222117427E+04   -0.64492E-04   -0.50701E-04  3544   0.954E-03    0.120E-01
RMM:   5    -0.232222104659E+04    0.12768E-03   -0.11172E-04  2989   0.557E-03    0.159E-02
RMM:   6    -0.232222104661E+04   -0.22352E-07   -0.44957E-05  2819   0.296E-03
  27 F= -.23431741E+04 E0= -.23431739E+04  d E =-.374329E-03  mag=     7.9967
       N       E                     dE             d eps       ncg     rms          rms(c)
DAV:   1    -0.232220155779E+04    0.19489E-01   -0.66070E-01  5120   0.338E-01    0.422E-01
RMM:   2    -0.232219909267E+04    0.24651E-02   -0.79374E-03  3765   0.326E-02    0.221E-01
RMM:   3    -0.232219871937E+04    0.37329E-03   -0.26219E-03  4456   0.188E-02    0.821E-02
RMM:   4    -0.232219876076E+04   -0.41387E-04   -0.42608E-04  3402   0.866E-03    0.120E-01
RMM:   5    -0.232219862038E+04    0.14038E-03   -0.12594E-04  2905   0.551E-03    0.163E-02
RMM:   6    -0.232219862170E+04   -0.13225E-05   -0.30776E-05  2626   0.270E-03
  28 F= -.23431511E+04 E0= -.23431509E+04  d E =-.371711E-03  mag=     7.9967
       N       E                     dE             d eps       ncg     rms          rms(c)
DAV:   1    -0.232223270800E+04   -0.34088E-01   -0.12980E+00  5120   0.455E-01    0.577E-01
RMM:   2    -0.232222805394E+04    0.46541E-02   -0.15799E-02  3850   0.474E-02    0.298E-01
RMM:   3    -0.232222738286E+04    0.67108E-03   -0.52261E-03  4637   0.248E-02    0.996E-02
RMM:   4    -0.232222735612E+04    0.26747E-04   -0.57145E-04  3923   0.116E-02    0.135E-01
RMM:   5    -0.232222719285E+04    0.16327E-03   -0.21665E-04  3009   0.671E-03    0.290E-02
RMM:   6    -0.232222718901E+04    0.38424E-05   -0.30047E-05  2712   0.321E-03
  29 F= -.23431803E+04 E0= -.23431801E+04  d E =-.380826E-03  mag=     7.9967
       N       E                     dE             d eps       ncg     rms          rms(c)
DAV:   1    -0.232220660090E+04    0.20592E-01   -0.65058E-01  5120   0.342E-01    0.424E-01
RMM:   2    -0.232220397932E+04    0.26216E-02   -0.83524E-03  3802   0.339E-02    0.221E-01
RMM:   3    -0.232220367449E+04    0.30482E-03   -0.28430E-03  4481   0.208E-02    0.133E-01
RMM:   4    -0.232220357508E+04    0.99412E-04   -0.48607E-04  3649   0.995E-03    0.976E-02
RMM:   5    -0.232220348933E+04    0.85753E-04   -0.12651E-04  3089   0.542E-03    0.157E-02
RMM:   6    -0.232220349250E+04   -0.31750E-05   -0.22484E-05  2567   0.321E-03
  30 F= -.23431563E+04 E0= -.23431561E+04  d E =-.382606E-03  mag=     7.9967
       N       E                     dE             d eps       ncg     rms          rms(c)
DAV:   1    -0.232223702602E+04   -0.33537E-01   -0.12517E+00  4720   0.438E-01    0.438E-01
RMM:   2    -0.232223548472E+04    0.15413E-02   -0.64599E-03  3754   0.315E-02    0.243E-01
RMM:   3    -0.232223522881E+04    0.25591E-03   -0.22420E-03  4313   0.176E-02    0.676E-02
RMM:   4    -0.232223526205E+04   -0.33241E-04   -0.34807E-04  3409   0.108E-02    0.929E-02
RMM:   5    -0.232223517962E+04    0.82432E-04   -0.10671E-04  2851   0.492E-03    0.186E-02
RMM:   6    -0.232223517839E+04    0.12293E-05   -0.15159E-05  2555   0.276E-03
  31 F= -.23431879E+04 E0= -.23431877E+04  d E =-.374842E-03  mag=     7.9967
       N       E                     dE             d eps       ncg     rms          rms(c)
DAV:   1    -0.232222654152E+04    0.86381E-02   -0.57645E-01  4480   0.345E-01    0.281E-01
RMM:   2    -0.232222619830E+04    0.34322E-03   -0.46646E-03  4042   0.295E-02    0.155E-01
RMM:   3    -0.232222627402E+04   -0.75728E-04   -0.73214E-04  3949   0.148E-02    0.142E-01
RMM:   4    -0.232222620086E+04    0.73168E-04   -0.47090E-04  3619   0.925E-03    0.866E-02
RMM:   5    -0.232222616568E+04    0.35176E-04   -0.60437E-05  3090   0.550E-03    0.126E-02
RMM:   6    -0.232222616688E+04   -0.11988E-05   -0.15955E-05  2825   0.320E-03
  32 F= -.23431787E+04 E0= -.23431786E+04  d E =-.365867E-03  mag=     7.9967
       N       E                     dE             d eps       ncg     rms          rms(c)
DAV:   1    -0.232221481509E+04    0.11351E-01   -0.10548E+00  4480   0.434E-01    0.351E-01
RMM:   2    -0.232221497402E+04   -0.15893E-03   -0.70404E-03  4365   0.363E-02    0.194E-01
RMM:   3    -0.232221529725E+04   -0.32324E-03   -0.76158E-04  3784   0.185E-02    0.171E-01
RMM:   4    -0.232221529600E+04    0.12530E-05   -0.68430E-04  3719   0.111E-02    0.121E-01
RMM:   5    -0.232221526560E+04    0.30402E-04   -0.12511E-04  3309   0.804E-03    0.187E-02
RMM:   6    -0.232221526361E+04    0.19909E-05   -0.14221E-05  2884   0.404E-03
  33 F= -.23431682E+04 E0= -.23431680E+04  d E =-.392195E-03  mag=     7.9967
       N       E                     dE             d eps       ncg     rms          rms(c)
DAV:   1    -0.232220293488E+04    0.12331E-01   -0.51837E-01  4960   0.332E-01    0.430E-01
RMM:   2    -0.232220120348E+04    0.17314E-02   -0.15321E-02  4803   0.486E-02    0.201E-01
RMM:   3    -0.232220106689E+04    0.13658E-03   -0.13904E-03  3674   0.309E-02    0.184E-01
RMM:   4    -0.232220094922E+04    0.11767E-03   -0.71395E-04  3737   0.113E-02    0.131E-01
RMM:   5    -0.232220086769E+04    0.81539E-04   -0.20458E-04  3345   0.848E-03    0.263E-02
RMM:   6    -0.232220086131E+04    0.63767E-05   -0.23486E-05  2897   0.481E-03
  34 F= -.23431539E+04 E0= -.23431538E+04  d E =-.384389E-03  mag=     7.9966
       N       E                     dE             d eps       ncg     rms          rms(c)
DAV:   1    -0.232221851468E+04   -0.17647E-01   -0.10667E+00  4960   0.500E-01    0.631E-01
RMM:   2    -0.232221420369E+04    0.43110E-02   -0.28443E-02  4725   0.704E-02    0.303E-01
RMM:   3    -0.232221400928E+04    0.19441E-03   -0.26260E-03  4013   0.393E-02    0.275E-01
RMM:   4    -0.232221377221E+04    0.23707E-03   -0.18722E-03  4451   0.173E-02    0.198E-01
RMM:   5    -0.232221353749E+04    0.23472E-03   -0.41333E-04  3629   0.120E-02    0.352E-02
RMM:   6    -0.232221352873E+04    0.87598E-05   -0.50769E-05  2990   0.646E-03
  35 F= -.23431660E+04 E0= -.23431658E+04  d E =-.377631E-03  mag=     7.9967
       N       E                     dE             d eps       ncg     rms          rms(c)
DAV:   1    -0.232222192816E+04   -0.83907E-02   -0.53527E-01  4960   0.349E-01    0.457E-01
RMM:   2    -0.232221984215E+04    0.20860E-02   -0.17142E-02  4695   0.547E-02    0.213E-01
RMM:   3    -0.232221964720E+04    0.19495E-03   -0.13232E-03  3754   0.333E-02    0.169E-01
RMM:   4    -0.232221968429E+04   -0.37095E-04   -0.98811E-04  3922   0.130E-02    0.163E-01
RMM:   5    -0.232221948637E+04    0.19792E-03   -0.27657E-04  3435   0.977E-03    0.226E-02
RMM:   6    -0.232221948085E+04    0.55278E-05   -0.29932E-05  2948   0.506E-03
  36 F= -.23431724E+04 E0= -.23431723E+04  d E =-.385675E-03  mag=     7.9966
       N       E                     dE             d eps       ncg     rms          rms(c)
DAV:   1    -0.232222257037E+04   -0.30840E-02   -0.10635E+00  4480   0.459E-01    0.363E-01
RMM:   2    -0.232222274795E+04   -0.17758E-03   -0.65666E-03  4278   0.365E-02    0.199E-01
RMM:   3    -0.232222300311E+04   -0.25517E-03   -0.61858E-04  3775   0.179E-02    0.128E-01
RMM:   4    -0.232222315336E+04   -0.15025E-03   -0.67809E-04  3724   0.112E-02    0.144E-01
RMM:   5    -0.232222302369E+04    0.12967E-03   -0.13818E-04  3112   0.786E-03    0.160E-02
RMM:   6    -0.232222302295E+04    0.73273E-06   -0.21776E-05  2906   0.354E-03
  37 F= -.23431756E+04 E0= -.23431754E+04  d E =-.369243E-03  mag=     7.9967
