       N       E                     dE             d eps       ncg     rms          rms(c)
DAV:   1     0.127315776058E+05    0.12732E+05   -0.82589E+05  4416   0.144E+03
DAV:   2    -0.104965359452E+04   -0.13781E+05   -0.13205E+05  5264   0.330E+02
DAV:   3    -0.245870947265E+04   -0.14091E+04   -0.13959E+04  5328   0.111E+02
DAV:   4    -0.250455502634E+04   -0.45846E+02   -0.45622E+02  6616   0.299E+01
DAV:   5    -0.250543132004E+04   -0.87629E+00   -0.87467E+00  5544   0.332E+00    0.170E+02
RMM:   6    -0.145974526206E+04    0.10457E+04   -0.19334E+03  4370   0.387E+01    0.733E+01
RMM:   7    -0.164985587998E+04   -0.19011E+03   -0.29046E+02  4908   0.138E+01    0.495E+01
RMM:   8    -0.170152675856E+04   -0.51671E+02   -0.37991E+01  5334   0.643E+00    0.447E+01
RMM:   9    -0.176167066850E+04   -0.60144E+02   -0.56792E+01  4871   0.645E+00    0.354E+01
RMM:  10    -0.191281263032E+04   -0.15114E+03   -0.74671E+01  4978   0.840E+00    0.228E+01
RMM:  11    -0.201790788003E+04   -0.10510E+03   -0.44351E+01  4915   0.559E+00    0.212E+01
RMM:  12    -0.204412071620E+04   -0.26213E+02   -0.80339E+00  4908   0.243E+00    0.140E+01
RMM:  13    -0.217525623045E+04   -0.13114E+03   -0.91657E+01  4383   0.716E+00    0.108E+01
RMM:  14    -0.223713178375E+04   -0.61876E+02   -0.45828E+01  4432   0.483E+00    0.927E+00
RMM:  15    -0.227696104217E+04   -0.39829E+02   -0.32629E+01  4457   0.437E+00    0.107E+01
RMM:  16    -0.229289700253E+04   -0.15936E+02   -0.15669E+01  4698   0.304E+00    0.941E+00
RMM:  17    -0.229761809440E+04   -0.47211E+01   -0.47659E+00  5018   0.143E+00    0.527E+00
RMM:  18    -0.229908381368E+04   -0.14657E+01   -0.15214E+00  4883   0.794E-01    0.156E+00
RMM:  19    -0.229950636320E+04   -0.42255E+00   -0.43674E-01  4866   0.418E-01    0.119E+00
RMM:  20    -0.229955847648E+04   -0.52113E-01   -0.82252E-02  5063   0.177E-01    0.111E+00
RMM:  21    -0.229957425471E+04   -0.15778E-01   -0.20391E-02  5106   0.838E-02    0.104E+00
RMM:  22    -0.229961179030E+04   -0.37536E-01   -0.11874E-01  4395   0.148E-01    0.557E-01
RMM:  23    -0.229963644368E+04   -0.24653E-01   -0.62891E-02  4519   0.124E-01    0.538E-01
RMM:  24    -0.229964331086E+04   -0.68672E-02   -0.87119E-03  4632   0.709E-02    0.353E-01
RMM:  25    -0.229964412409E+04   -0.81323E-03   -0.10066E-02  4636   0.430E-02    0.218E-01
RMM:  26    -0.229965223855E+04   -0.81145E-02   -0.22742E-03  4392   0.332E-02    0.961E-02
RMM:  27    -0.229965928885E+04   -0.70503E-02   -0.24482E-03  4394   0.331E-02    0.115E-01
RMM:  28    -0.229966285714E+04   -0.35683E-02   -0.11772E-03  4260   0.270E-02    0.988E-02
RMM:  29    -0.229966412580E+04   -0.12687E-02   -0.45995E-04  4231   0.152E-02    0.669E-02
RMM:  30    -0.229966555451E+04   -0.14287E-02   -0.36802E-04  3934   0.126E-02    0.309E-02
RMM:  31    -0.229966607632E+04   -0.52181E-03   -0.14985E-04  3759   0.104E-02    0.124E-02
RMM:  32    -0.229966620806E+04   -0.13174E-03   -0.36964E-05  3287   0.620E-03    0.710E-03
RMM:  33    -0.229966631722E+04   -0.10916E-03   -0.25907E-05  3121   0.516E-03    0.464E-03
RMM:  34    -0.229966638639E+04   -0.69169E-04   -0.23829E-05  3107   0.499E-03    0.254E-03
RMM:  35    -0.229966640234E+04   -0.15947E-04   -0.10140E-05  2832   0.383E-03    0.201E-03
RMM:  36    -0.229966640437E+04   -0.20342E-05   -0.35065E-06  2436   0.244E-03
   1 F= -.23199228E+04 E0= -.23199226E+04  d E =-.231992E+04  mag=     6.0001
       N       E                     dE             d eps       ncg     rms          rms(c)
DAV:   1    -0.229967324900E+04   -0.68467E-02   -0.11175E+00  5174   0.110E+00    0.418E-01
RMM:   2    -0.229967768749E+04   -0.44385E-02   -0.63891E-02  4595   0.191E-01    0.229E-01
RMM:   3    -0.229967762519E+04    0.62296E-04   -0.62973E-03  4481   0.973E-02    0.336E-01
RMM:   4    -0.229967703097E+04    0.59422E-03   -0.13156E-03  4533   0.252E-02    0.155E-01
RMM:   5    -0.229967668306E+04    0.34791E-03   -0.83476E-04  5234   0.242E-02    0.669E-02
RMM:   6    -0.229967659472E+04    0.88344E-04   -0.18925E-04  4858   0.101E-02    0.284E-02
RMM:   7    -0.229967656402E+04    0.30699E-04   -0.39717E-05  3082   0.642E-03    0.141E-02
RMM:   8    -0.229967655231E+04    0.11716E-04   -0.17399E-05  2871   0.428E-03    0.125E-02
RMM:   9    -0.229967654697E+04    0.53365E-05   -0.17745E-05  2821   0.427E-03
   2 F= -.23199333E+04 E0= -.23199332E+04  d E =-.105236E-01  mag=     6.0000
       N       E                     dE             d eps       ncg     rms          rms(c)
DAV:   1    -0.229967675172E+04   -0.19941E-03   -0.17255E-02  5008   0.137E-01    0.526E-02
RMM:   2    -0.229967682560E+04   -0.73877E-04   -0.99078E-04  5123   0.259E-02    0.255E-02
RMM:   3    -0.229967682148E+04    0.41190E-05   -0.90154E-05  3178   0.119E-02
   3 F= -.23199336E+04 E0= -.23199334E+04  d E =-.107505E-01  mag=     6.0000
       N       E                     dE             d eps       ncg     rms          rms(c)
DAV:   1    -0.229967709715E+04   -0.27155E-03   -0.70189E-01  4592   0.872E-01    0.280E-01
RMM:   2    -0.229968322188E+04   -0.61247E-02   -0.62285E-02  5009   0.139E-01    0.279E-01
RMM:   3    -0.229968374980E+04   -0.52792E-03   -0.67595E-03  4644   0.734E-02    0.297E-01
RMM:   4    -0.229968328090E+04    0.46890E-03   -0.82011E-04  4428   0.154E-02    0.617E-02
RMM:   5    -0.229968322368E+04    0.57224E-04   -0.21443E-04  4034   0.108E-02    0.324E-02
RMM:   6    -0.229968320478E+04    0.18900E-04   -0.94175E-05  3937   0.806E-03    0.151E-02
RMM:   7    -0.229968320334E+04    0.14343E-05   -0.19296E-05  2831   0.682E-03
   4 F= -.23199401E+04 E0= -.23199400E+04  d E =-.652891E-02  mag=     6.0000
       N       E                     dE             d eps       ncg     rms          rms(c)
DAV:   1    -0.229963388285E+04    0.49322E-01   -0.55776E+00  4512   0.246E+00    0.768E-01
RMM:   2    -0.229968054208E+04   -0.46659E-01   -0.49051E-01  4947   0.391E-01    0.484E-01
RMM:   3    -0.229968634823E+04   -0.58061E-02   -0.55115E-02  4640   0.208E-01    0.774E-01
RMM:   4    -0.229968339662E+04    0.29516E-02   -0.65722E-03  5118   0.405E-02    0.205E-01
RMM:   5    -0.229968290832E+04    0.48830E-03   -0.17771E-03  5091   0.268E-02    0.104E-01
RMM:   6    -0.229968275252E+04    0.15580E-03   -0.66862E-04  4610   0.176E-02    0.576E-02
RMM:   7    -0.229968270752E+04    0.44999E-04   -0.28097E-04  4090   0.133E-02    0.364E-02
RMM:   8    -0.229968270446E+04    0.30612E-05   -0.55288E-05  3176   0.610E-03
   5 F= -.23199400E+04 E0= -.23199399E+04  d E =-.639746E-02  mag=     6.0000
       N       E                     dE             d eps       ncg     rms          rms(c)
DAV:   1    -0.229967451689E+04    0.81906E-02   -0.13481E+00  4528   0.121E+00    0.382E-01
RMM:   2    -0.229968625155E+04   -0.11735E-01   -0.11954E-01  5010   0.194E-01    0.364E-01
RMM:   3    -0.229968717111E+04   -0.91956E-03   -0.13120E-02  4670   0.103E-01    0.375E-01
RMM:   4    -0.229968649480E+04    0.67630E-03   -0.16012E-03  4577   0.210E-02    0.913E-02
RMM:   5    -0.229968638642E+04    0.10839E-03   -0.36145E-04  4445   0.145E-02    0.548E-02
RMM:   6    -0.229968635968E+04    0.26739E-04   -0.21368E-04  4214   0.107E-02    0.575E-02
RMM:   7    -0.229968634212E+04    0.17563E-04   -0.42613E-05  2898   0.898E-03    0.130E-02
RMM:   8    -0.229968634102E+04    0.10936E-05   -0.74232E-06  2813   0.269E-03
   6 F= -.23199434E+04 E0= -.23199433E+04  d E =-.986234E-02  mag=     6.0000
       N       E                     dE             d eps       ncg     rms          rms(c)
DAV:   1    -0.229968448790E+04    0.18542E-02   -0.46856E-01  4496   0.646E-01    0.208E-01
RMM:   2    -0.229969096610E+04   -0.64782E-02   -0.65043E-02  5290   0.111E-01    0.229E-01
RMM:   3    -0.229969147620E+04   -0.51010E-03   -0.60026E-03  4586   0.565E-02    0.210E-01
RMM:   4    -0.229969129319E+04    0.18300E-03   -0.75300E-04  3539   0.114E-02    0.568E-02
RMM:   5    -0.229969125189E+04    0.41299E-04   -0.92438E-05  2979   0.708E-03    0.341E-02
RMM:   6    -0.229969123739E+04    0.14500E-04   -0.66035E-05  3243   0.689E-03    0.266E-02
RMM:   7    -0.229969123283E+04    0.45639E-05   -0.24636E-05  2833   0.566E-03
   7 F= -.23199482E+04 E0= -.23199482E+04  d E =-.480475E-02  mag=     6.0000
       N       E                     dE             d eps       ncg     rms          rms(c)
DAV:   1    -0.229963631948E+04    0.54918E-01   -0.42129E+00  4464   0.194E+00    0.616E-01
RMM:   2    -0.229969345244E+04   -0.57133E-01   -0.58149E-01  5324   0.335E-01    0.543E-01
RMM:   3    -0.229969993207E+04   -0.64796E-02   -0.58515E-02  4863   0.174E-01    0.680E-01
RMM:   4    -0.229969787487E+04    0.20572E-02   -0.71058E-03  5299   0.333E-02    0.177E-01
RMM:   5    -0.229969751348E+04    0.36139E-03   -0.99540E-04  4764   0.183E-02    0.109E-01
RMM:   6    -0.229969740399E+04    0.10949E-03   -0.41932E-04  4317   0.129E-02    0.726E-02
RMM:   7    -0.229969734448E+04    0.59507E-04   -0.34642E-04  3872   0.120E-02    0.454E-02
RMM:   8    -0.229969733454E+04    0.99459E-05   -0.72743E-05  3177   0.741E-03
   8 F= -.23199540E+04 E0= -.23199540E+04  d E =-.105996E-01  mag=     6.0000
       N       E                     dE             d eps       ncg     rms          rms(c)
DAV:   1    -0.229968628316E+04    0.11061E-01   -0.97197E-01  4464   0.859E-01    0.327E-01
RMM:   2    -0.229970199561E+04   -0.15712E-01   -0.15850E-01  5740   0.158E-01    0.356E-01
RMM:   3    -0.229970336445E+04   -0.13688E-02   -0.14510E-02  5247   0.683E-02    0.341E-01
RMM:   4    -0.229970287785E+04    0.48660E-03   -0.18566E-03  4026   0.160E-02    0.833E-02
RMM:   5    -0.229970279632E+04    0.81528E-04   -0.23064E-04  3252   0.885E-03    0.508E-02
RMM:   6    -0.229970276758E+04    0.28742E-04   -0.14143E-04  3605   0.854E-03    0.380E-02
RMM:   7    -0.229970276053E+04    0.70521E-05   -0.43089E-05  2883   0.647E-03
   9 F= -.23199593E+04 E0= -.23199593E+04  d E =-.527415E-02  mag=     6.0000
       N       E                     dE             d eps       ncg     rms          rms(c)
DAV:   1    -0.229960779767E+04    0.94970E-01   -0.57950E+00  4432   0.210E+00    0.785E-01
RMM:   2    -0.229970069985E+04   -0.92902E-01   -0.94133E-01  5476   0.384E-01    0.649E-01
RMM:   3    -0.229971180704E+04   -0.11107E-01   -0.94764E-02  5034   0.182E-01    0.866E-01
RMM:   4    -0.229970838917E+04    0.34179E-02   -0.11034E-02  5407   0.378E-02    0.218E-01
RMM:   5    -0.229970791221E+04    0.47695E-03   -0.15083E-03  4655   0.189E-02    0.138E-01
RMM:   6    -0.229970777913E+04    0.13308E-03   -0.60454E-04  4288   0.134E-02    0.926E-02
RMM:   7    -0.229970769078E+04    0.88343E-04   -0.56735E-04  3943   0.134E-02    0.552E-02
RMM:   8    -0.229970767420E+04    0.16589E-04   -0.11692E-04  3243   0.847E-03    0.273E-02
RMM:   9    -0.229970767677E+04   -0.25769E-05   -0.62323E-05  2853   0.650E-03
  10 F= -.23199638E+04 E0= -.23199638E+04  d E =-.978763E-02  mag=     6.0000
       N       E                     dE             d eps       ncg     rms          rms(c)
DAV:   1    -0.229969253807E+04    0.15136E-01   -0.10530E+00  4472   0.817E-01    0.337E-01
RMM:   2    -0.229971178227E+04   -0.19244E-01   -0.19269E-01  5687   0.152E-01    0.386E-01
RMM:   3    -0.229971350222E+04   -0.17200E-02   -0.18302E-02  5066   0.673E-02    0.346E-01
RMM:   4    -0.229971303581E+04    0.46641E-03   -0.22434E-03  3538   0.152E-02    0.873E-02
RMM:   5    -0.229971294955E+04    0.86261E-04   -0.25860E-04  2987   0.774E-03    0.561E-02
RMM:   6    -0.229971291913E+04    0.30420E-04   -0.11375E-04  3006   0.688E-03    0.420E-02
RMM:   7    -0.229971290500E+04    0.14129E-04   -0.80856E-05  2882   0.645E-03    0.220E-02
RMM:   8    -0.229971290437E+04    0.63432E-06   -0.18477E-05  2840   0.465E-03
  11 F= -.23199689E+04 E0= -.23199689E+04  d E =-.511160E-02  mag=     6.0000
       N       E                     dE             d eps       ncg     rms          rms(c)
DAV:   1    -0.229952795271E+04    0.18495E+00   -0.94636E+00  4412   0.245E+00    0.989E-01
RMM:   2    -0.229970631481E+04   -0.17836E+00   -0.17450E+00  5654   0.460E-01    0.778E-01
RMM:   3    -0.229972964890E+04   -0.23334E-01   -0.18605E-01  5117   0.207E-01    0.111E+00
RMM:   4    -0.229972408532E+04    0.55636E-02   -0.19874E-02  5468   0.444E-02    0.278E-01
RMM:   5    -0.229972347470E+04    0.61062E-03   -0.22075E-03  4384   0.191E-02    0.185E-01
RMM:   6    -0.229972328083E+04    0.19388E-03   -0.87647E-04  4212   0.144E-02    0.124E-01
RMM:   7    -0.229972312295E+04    0.15787E-03   -0.96553E-04  4083   0.153E-02    0.757E-02
RMM:   8    -0.229972307740E+04    0.45550E-04   -0.19425E-04  3403   0.101E-02    0.344E-02
RMM:   9    -0.229972308312E+04   -0.57151E-05   -0.10157E-04  2925   0.706E-03    0.148E-02
RMM:  10    -0.229972308820E+04   -0.50843E-05   -0.16171E-05  2852   0.426E-03
  12 F= -.23199787E+04 E0= -.23199787E+04  d E =-.148668E-01  mag=     6.0000
       N       E                     dE             d eps       ncg     rms          rms(c)
DAV:   1    -0.229884011639E+04    0.88297E+00   -0.38133E+01  4392   0.492E+00    0.198E+00
RMM:   2    -0.229965018937E+04   -0.81007E+00   -0.73082E+00  5784   0.955E-01    0.134E+00
RMM:   3    -0.229971408494E+04   -0.63896E-01   -0.69536E-01  5157   0.401E-01    0.110E+00
RMM:   4    -0.229971955811E+04   -0.54732E-02   -0.72753E-02  5336   0.884E-02    0.801E-01
RMM:   5    -0.229971681968E+04    0.27384E-02   -0.98155E-03  4962   0.380E-02    0.471E-01
RMM:   6    -0.229971596774E+04    0.85194E-03   -0.33804E-03  4737   0.246E-02    0.305E-01
RMM:   7    -0.229971530350E+04    0.66424E-03   -0.37860E-03  4608   0.280E-02    0.156E-01
RMM:   8    -0.229971513041E+04    0.17310E-03   -0.88921E-04  4678   0.179E-02    0.828E-02
RMM:   9    -0.229971513181E+04   -0.14057E-05   -0.43662E-04  3896   0.122E-02    0.385E-02
RMM:  10    -0.229971514365E+04   -0.11841E-04   -0.69061E-05  2918   0.675E-03    0.259E-02
RMM:  11    -0.229971515338E+04   -0.97223E-05   -0.21968E-05  2846   0.411E-03
  13 F= -.23199694E+04 E0= -.23199694E+04  d E =-.563332E-02  mag=     5.9999
       N       E                     dE             d eps       ncg     rms          rms(c)
DAV:   1    -0.229931885905E+04    0.39628E+00   -0.20870E+01  4392   0.362E+00    0.168E+00
RMM:   2    -0.229976231251E+04   -0.44345E+00   -0.40570E+00  5870   0.702E-01    0.345E+00
RMM:   3    -0.229972501145E+04    0.37301E-01   -0.40327E-01  5589   0.289E-01    0.752E-01
RMM:   4    -0.229972749914E+04   -0.24877E-02   -0.44821E-02  4796   0.613E-02    0.361E-01
RMM:   5    -0.229972669508E+04    0.80406E-03   -0.40716E-03  4954   0.330E-02    0.489E-01
RMM:   6    -0.229972524738E+04    0.14477E-02   -0.45117E-03  4875   0.293E-02    0.242E-01
RMM:   7    -0.229972485210E+04    0.39528E-03   -0.98018E-04  4477   0.189E-02    0.591E-02
RMM:   8    -0.229972484797E+04    0.41242E-05   -0.13305E-04  3397   0.873E-03    0.392E-02
RMM:   9    -0.229972484678E+04    0.11876E-05   -0.47846E-05  2847   0.601E-03
  14 F= -.23199802E+04 E0= -.23199801E+04  d E =-.163478E-01  mag=     6.0000
       N       E                     dE             d eps       ncg     rms          rms(c)
DAV:   1    -0.229967530271E+04    0.49545E-01   -0.28159E+00  4432   0.126E+00    0.585E-01
RMM:   2    -0.229972908747E+04   -0.53785E-01   -0.54297E-01  5720   0.249E-01    0.538E-01
RMM:   3    -0.229973576946E+04   -0.66820E-02   -0.59177E-02  5309   0.112E-01    0.668E-01
RMM:   4    -0.229973373402E+04    0.20354E-02   -0.65463E-03  4874   0.261E-02    0.163E-01
RMM:   5    -0.229973346299E+04    0.27103E-03   -0.86368E-04  4054   0.137E-02    0.990E-02
RMM:   6    -0.229973339407E+04    0.68913E-04   -0.32254E-04  3926   0.994E-03    0.665E-02
RMM:   7    -0.229973334457E+04    0.49506E-04   -0.27035E-04  3312   0.103E-02    0.394E-02
RMM:   8    -0.229973333264E+04    0.11925E-04   -0.66093E-05  2947   0.658E-03    0.187E-02
RMM:   9    -0.229973333162E+04    0.10236E-05   -0.33919E-05  2833   0.551E-03
  15 F= -.23199883E+04 E0= -.23199883E+04  d E =-.815274E-02  mag=     6.0000
       N       E                     dE             d eps       ncg     rms          rms(c)
DAV:   1    -0.229972591323E+04    0.74194E-02   -0.39640E-01  4520   0.471E-01    0.224E-01
RMM:   2    -0.229973366214E+04   -0.77489E-02   -0.77058E-02  5767   0.935E-02    0.263E-01
RMM:   3    -0.229973427400E+04   -0.61186E-03   -0.72509E-03  4463   0.390E-02    0.226E-01
RMM:   4    -0.229973406176E+04    0.21223E-03   -0.89377E-04  2951   0.103E-02    0.556E-02
RMM:   5    -0.229973402429E+04    0.37479E-04   -0.10275E-04  2880   0.593E-03    0.345E-02
RMM:   6    -0.229973401046E+04    0.13823E-04   -0.51906E-05  2866   0.559E-03    0.260E-02
RMM:   7    -0.229973400532E+04    0.51457E-05   -0.28861E-05  2838   0.500E-03
  16 F= -.23199888E+04 E0= -.23199888E+04  d E =-.868845E-02  mag=     6.0000
       N       E                     dE             d eps       ncg     rms          rms(c)
DAV:   1    -0.229971968705E+04    0.14323E-01   -0.10986E+00  4432   0.789E-01    0.353E-01
RMM:   2    -0.229973711760E+04   -0.17431E-01   -0.17614E-01  5727   0.151E-01    0.337E-01
RMM:   3    -0.229973889546E+04   -0.17779E-02   -0.17019E-02  5166   0.683E-02    0.380E-01
RMM:   4    -0.229973824180E+04    0.65367E-03   -0.20680E-03  4014   0.161E-02    0.947E-02
RMM:   5    -0.229973814957E+04    0.92233E-04   -0.30594E-04  3371   0.961E-03    0.565E-02
RMM:   6    -0.229973811941E+04    0.30159E-04   -0.13442E-04  3304   0.829E-03    0.360E-02
RMM:   7    -0.229973811098E+04    0.84230E-05   -0.71804E-05  2864   0.698E-03
  17 F= -.23199927E+04 E0= -.23199927E+04  d E =-.389360E-02  mag=     6.0000
       N       E                     dE             d eps       ncg     rms          rms(c)
DAV:   1    -0.229971974293E+04    0.18376E-01   -0.11134E+00  4448   0.795E-01    0.356E-01
RMM:   2    -0.229973739277E+04   -0.17650E-01   -0.17839E-01  5699   0.151E-01    0.338E-01
RMM:   3    -0.229973919539E+04   -0.18026E-02   -0.17181E-02  5157   0.705E-02    0.384E-01
RMM:   4    -0.229973852513E+04    0.67027E-03   -0.20968E-03  3993   0.165E-02    0.957E-02
RMM:   5    -0.229973843175E+04    0.93374E-04   -0.31739E-04  3451   0.974E-03    0.567E-02
RMM:   6    -0.229973839860E+04    0.33152E-04   -0.13998E-04  3317   0.840E-03    0.355E-02
RMM:   7    -0.229973839013E+04    0.84698E-05   -0.72561E-05  2880   0.695E-03
  18 F= -.23199928E+04 E0= -.23199928E+04  d E =-.394883E-02  mag=     6.0000
       N       E                     dE             d eps       ncg     rms          rms(c)
DAV:   1    -0.229973513866E+04    0.32599E-02   -0.21658E-01  4480   0.348E-01    0.161E-01
RMM:   2    -0.229973870064E+04   -0.35620E-02   -0.34580E-02  5916   0.686E-02    0.226E-01
RMM:   3    -0.229973883547E+04   -0.13483E-03   -0.33611E-03  3775   0.302E-02    0.134E-01
RMM:   4    -0.229973877069E+04    0.64780E-04   -0.39080E-04  2904   0.789E-03    0.381E-02
RMM:   5    -0.229973875215E+04    0.18539E-04   -0.49437E-05  2872   0.489E-03    0.228E-02
RMM:   6    -0.229973874763E+04    0.45168E-05   -0.33448E-05  2867   0.481E-03
  19 F= -.23199932E+04 E0= -.23199932E+04  d E =-.440593E-02  mag=     6.0000
       N       E                     dE             d eps       ncg     rms          rms(c)
DAV:   1    -0.229973148960E+04    0.72625E-02   -0.84213E-01  4432   0.828E-01    0.267E-01
RMM:   2    -0.229974119131E+04   -0.97017E-02   -0.99424E-02  5493   0.139E-01    0.239E-01
RMM:   3    -0.229974210049E+04   -0.90919E-03   -0.92130E-03  4810   0.655E-02    0.272E-01
RMM:   4    -0.229974176475E+04    0.33575E-03   -0.11090E-03  3897   0.136E-02    0.757E-02
RMM:   5    -0.229974169672E+04    0.68030E-04   -0.17368E-04  3272   0.872E-03    0.472E-02
RMM:   6    -0.229974167236E+04    0.24355E-04   -0.11063E-04  3584   0.786E-03    0.369E-02
RMM:   7    -0.229974166416E+04    0.82062E-05   -0.41588E-05  2847   0.654E-03
  20 F= -.23199960E+04 E0= -.23199960E+04  d E =-.279373E-02  mag=     6.0000
       N       E                     dE             d eps       ncg     rms          rms(c)
DAV:   1    -0.229971673599E+04    0.24936E-01   -0.20220E+00  4392   0.128E+00    0.413E-01
RMM:   2    -0.229974002641E+04   -0.23290E-01   -0.23943E-01  5287   0.214E-01    0.351E-01
RMM:   3    -0.229974236672E+04   -0.23403E-02   -0.22722E-02  4766   0.108E-01    0.433E-01
RMM:   4    -0.229974148961E+04    0.87711E-03   -0.26869E-03  4877   0.211E-02    0.118E-01
RMM:   5    -0.229974132860E+04    0.16101E-03   -0.47849E-04  4098   0.127E-02    0.715E-02
RMM:   6    -0.229974126893E+04    0.59670E-04   -0.22507E-04  4020   0.101E-02    0.441E-02
RMM:   7    -0.229974125262E+04    0.16307E-04   -0.10453E-04  3178   0.890E-03    0.220E-02
RMM:   8    -0.229974125059E+04    0.20289E-05   -0.25746E-05  2850   0.517E-03
  21 F= -.23199954E+04 E0= -.23199954E+04  d E =-.218038E-02  mag=     5.9999
       N       E                     dE             d eps       ncg     rms          rms(c)
DAV:   1    -0.229973452335E+04    0.67293E-02   -0.63754E-01  4432   0.717E-01    0.235E-01
RMM:   2    -0.229974201586E+04   -0.74925E-02   -0.75194E-02  5402   0.121E-01    0.273E-01
RMM:   3    -0.229974248342E+04   -0.46756E-03   -0.72278E-03  4709   0.560E-02    0.212E-01
RMM:   4    -0.229974230111E+04    0.18231E-03   -0.82800E-04  3673   0.119E-02    0.635E-02
RMM:   5    -0.229974225054E+04    0.50574E-04   -0.11927E-04  2988   0.785E-03    0.399E-02
RMM:   6    -0.229974223902E+04    0.11520E-04   -0.11758E-04  3697   0.787E-03    0.489E-02
RMM:   7    -0.229974222569E+04    0.13326E-04   -0.29581E-05  2842   0.639E-03    0.111E-02
RMM:   8    -0.229974222487E+04    0.82058E-06   -0.55173E-06  2812   0.264E-03
  22 F= -.23199965E+04 E0= -.23199965E+04  d E =-.326803E-02  mag=     5.9999
       N       E                     dE             d eps       ncg     rms          rms(c)
DAV:   1    -0.229973696526E+04    0.52604E-02   -0.91749E-01  4412   0.938E-01    0.242E-01
RMM:   2    -0.229974468168E+04   -0.77164E-02   -0.79722E-02  5084   0.147E-01    0.198E-01
RMM:   3    -0.229974533746E+04   -0.65578E-03   -0.71680E-03  4587   0.735E-02    0.243E-01
RMM:   4    -0.229974506221E+04    0.27525E-03   -0.87617E-04  4340   0.139E-02    0.726E-02
RMM:   5    -0.229974499166E+04    0.70549E-04   -0.14758E-04  3579   0.921E-03    0.432E-02
RMM:   6    -0.229974496997E+04    0.21686E-04   -0.10373E-04  3705   0.817E-03    0.325E-02
RMM:   7    -0.229974496465E+04    0.53264E-05   -0.27443E-05  2851   0.654E-03
  23 F= -.23199991E+04 E0= -.23199991E+04  d E =-.262407E-02  mag=     5.9999
       N       E                     dE             d eps       ncg     rms          rms(c)
DAV:   1    -0.229973540384E+04    0.95661E-02   -0.11930E+00  4392   0.107E+00    0.276E-01
RMM:   2    -0.229974544406E+04   -0.10040E-01   -0.10408E-01  5122   0.167E-01    0.211E-01
RMM:   3    -0.229974629458E+04   -0.85052E-03   -0.92316E-03  4672   0.804E-02    0.265E-01
RMM:   4    -0.229974597812E+04    0.31646E-03   -0.11291E-03  4538   0.154E-02    0.847E-02
RMM:   5    -0.229974588828E+04    0.89839E-04   -0.18881E-04  3808   0.101E-02    0.511E-02
RMM:   6    -0.229974586006E+04    0.28228E-04   -0.13819E-04  3920   0.897E-03    0.406E-02
RMM:   7    -0.229974585115E+04    0.89104E-05   -0.34420E-05  2863   0.723E-03
  24 F= -.23199999E+04 E0= -.23199999E+04  d E =-.337217E-02  mag=     5.9999
       N       E                     dE             d eps       ncg     rms          rms(c)
DAV:   1    -0.229974055215E+04    0.53079E-02   -0.12778E+00  4392   0.109E+00    0.254E-01
RMM:   2    -0.229974800559E+04   -0.74534E-02   -0.78467E-02  4848   0.165E-01    0.151E-01
RMM:   3    -0.229974834886E+04   -0.34327E-03   -0.58166E-03  4574   0.773E-02    0.175E-01
RMM:   4    -0.229974823655E+04    0.11231E-03   -0.79235E-04  4712   0.145E-02    0.959E-02
RMM:   5    -0.229974814461E+04    0.91940E-04   -0.18245E-04  3942   0.108E-02    0.512E-02
RMM:   6    -0.229974812094E+04    0.23672E-04   -0.12235E-04  3912   0.896E-03    0.330E-02
RMM:   7    -0.229974811652E+04    0.44176E-05   -0.23601E-05  2867   0.667E-03
  25 F= -.23200020E+04 E0= -.23200020E+04  d E =-.213547E-02  mag=     5.9998
       N       E                     dE             d eps       ncg     rms          rms(c)
DAV:   1    -0.229974626763E+04    0.18533E-02   -0.36525E-01  4496   0.586E-01    0.136E-01
RMM:   2    -0.229974840109E+04   -0.21335E-02   -0.22428E-02  4967   0.888E-02    0.839E-02
RMM:   3    -0.229974851112E+04   -0.11003E-03   -0.16641E-03  4344   0.385E-02    0.101E-01
RMM:   4    -0.229974847101E+04    0.40108E-04   -0.22631E-04  3150   0.791E-03    0.501E-02
RMM:   5    -0.229974844365E+04    0.27359E-04   -0.51968E-05  2932   0.601E-03    0.278E-02
RMM:   6    -0.229974843723E+04    0.64175E-05   -0.40017E-05  3009   0.598E-03
  26 F= -.23200023E+04 E0= -.23200023E+04  d E =-.238464E-02  mag=     5.9998
       N       E                     dE             d eps       ncg     rms          rms(c)
DAV:   1    -0.229974788378E+04    0.55987E-03   -0.69607E-01  4396   0.741E-01    0.193E-01
RMM:   2    -0.229975031315E+04   -0.24294E-02   -0.26602E-02  4841   0.113E-01    0.101E-01
RMM:   3    -0.229975032682E+04   -0.13676E-04   -0.19148E-03  4509   0.524E-02    0.109E-01
RMM:   4    -0.229975029736E+04    0.29468E-04   -0.30749E-04  4233   0.109E-02    0.859E-02
RMM:   5    -0.229975024346E+04    0.53899E-04   -0.15565E-04  3875   0.103E-02    0.431E-02
RMM:   6    -0.229975023166E+04    0.11799E-04   -0.42872E-05  3021   0.679E-03    0.163E-02
RMM:   7    -0.229975023091E+04    0.74631E-06   -0.11165E-05  2829   0.480E-03
  27 F= -.23200040E+04 E0= -.23200040E+04  d E =-.172318E-02  mag=     5.9998
       N       E                     dE             d eps       ncg     rms          rms(c)
DAV:   1    -0.229974999158E+04    0.24008E-03   -0.93807E-02  4624   0.272E-01    0.713E-02
RMM:   2    -0.229975032618E+04   -0.33460E-03   -0.36330E-03  4999   0.423E-02    0.386E-02
RMM:   3    -0.229975033303E+04   -0.68459E-05   -0.26129E-04  3885   0.200E-02    0.508E-02
RMM:   4    -0.229975032147E+04    0.11559E-04   -0.39613E-05  2839   0.443E-03    0.285E-02
RMM:   5    -0.229975031246E+04    0.90112E-05   -0.19649E-05  2846   0.401E-03
  28 F= -.23200041E+04 E0= -.23200040E+04  d E =-.177869E-02  mag=     5.9998
       N       E                     dE             d eps       ncg     rms          rms(c)
DAV:   1    -0.229975040463E+04   -0.83167E-04   -0.64481E-01  4392   0.614E-01    0.165E-01
RMM:   2    -0.229975213305E+04   -0.17284E-02   -0.18529E-02  5061   0.919E-02    0.131E-01
RMM:   3    -0.229975222883E+04   -0.95773E-04   -0.14775E-03  4500   0.443E-02    0.181E-01
RMM:   4    -0.229975205387E+04    0.17496E-03   -0.23411E-04  3521   0.970E-03    0.525E-02
RMM:   5    -0.229975202165E+04    0.32212E-04   -0.11940E-04  3698   0.879E-03    0.210E-02
RMM:   6    -0.229975202024E+04    0.14111E-05   -0.31070E-05  2873   0.635E-03
  29 F= -.23200056E+04 E0= -.23200056E+04  d E =-.158337E-02  mag=     5.9999
       N       E                     dE             d eps       ncg     rms          rms(c)
DAV:   1    -0.229974751379E+04    0.45079E-02   -0.21293E+00  4392   0.112E+00    0.299E-01
RMM:   2    -0.229975332757E+04   -0.58138E-02   -0.62160E-02  4698   0.166E-01    0.237E-01
RMM:   3    -0.229975357296E+04   -0.24539E-03   -0.47723E-03  4526   0.728E-02    0.328E-01
RMM:   4    -0.229975300096E+04    0.57200E-03   -0.75321E-04  4829   0.167E-02    0.942E-02
RMM:   5    -0.229975289200E+04    0.10896E-03   -0.39631E-04  4511   0.147E-02    0.375E-02
RMM:   6    -0.229975288952E+04    0.24773E-05   -0.97646E-05  3596   0.909E-03
  30 F= -.23200063E+04 E0= -.23200063E+04  d E =-.222751E-02  mag=     5.9999
       N       E                     dE             d eps       ncg     rms          rms(c)
DAV:   1    -0.229975333109E+04   -0.43910E-03   -0.38957E-01  4512   0.428E-01    0.119E-01
RMM:   2    -0.229975435132E+04   -0.10202E-02   -0.10608E-02  5320   0.644E-02    0.118E-01
RMM:   3    -0.229975433454E+04    0.16783E-04   -0.80446E-04  4146   0.253E-02    0.129E-01
RMM:   4    -0.229975424150E+04    0.93039E-04   -0.12432E-04  2921   0.680E-03    0.376E-02
RMM:   5    -0.229975422178E+04    0.19720E-04   -0.66752E-05  2979   0.606E-03    0.151E-02
RMM:   6    -0.229975422153E+04    0.24706E-06   -0.18288E-05  2858   0.492E-03
  31 F= -.23200075E+04 E0= -.23200075E+04  d E =-.122154E-02  mag=     5.9999
       N       E                     dE             d eps       ncg     rms          rms(c)
DAV:   1    -0.229974879353E+04    0.54282E-02   -0.35214E+00  4392   0.128E+00    0.349E-01
RMM:   2    -0.229975769794E+04   -0.89044E-02   -0.94130E-02  4677   0.187E-01    0.334E-01
RMM:   3    -0.229975758339E+04    0.11455E-03   -0.70839E-03  4596   0.826E-02    0.378E-01
RMM:   4    -0.229975681221E+04    0.77118E-03   -0.11316E-03  4759   0.191E-02    0.113E-01
RMM:   5    -0.229975665700E+04    0.15521E-03   -0.60184E-04  4596   0.161E-02    0.431E-02
RMM:   6    -0.229975665616E+04    0.84296E-06   -0.14155E-04  3855   0.102E-02    0.155E-02
RMM:   7    -0.229975665454E+04    0.16220E-05   -0.18595E-05  2862   0.460E-03
  32 F= -.23200096E+04 E0= -.23200096E+04  d E =-.332739E-02  mag=     6.0000
       N       E                     dE             d eps       ncg     rms          rms(c)
DAV:   1    -0.229975531254E+04    0.13436E-02   -0.82273E-01  4432   0.617E-01    0.168E-01
RMM:   2    -0.229975736235E+04   -0.20498E-02   -0.21428E-02  4780   0.901E-02    0.174E-01
RMM:   3    -0.229975729578E+04    0.66570E-04   -0.16118E-03  4417   0.402E-02    0.175E-01
RMM:   4    -0.229975712805E+04    0.16773E-03   -0.25804E-04  3461   0.947E-03    0.536E-02
RMM:   5    -0.229975708700E+04    0.41054E-04   -0.13719E-04  3531   0.825E-03    0.214E-02
RMM:   6    -0.229975708565E+04    0.13455E-05   -0.34218E-05  2877   0.634E-03
  33 F= -.23200099E+04 E0= -.23200099E+04  d E =-.360301E-02  mag=     6.0000
       N       E                     dE             d eps       ncg     rms          rms(c)
DAV:   1    -0.229975806036E+04   -0.97336E-03   -0.86961E-01  4396   0.557E-01    0.179E-01
RMM:   2    -0.229976022275E+04   -0.21624E-02   -0.22780E-02  4983   0.826E-02    0.170E-01
RMM:   3    -0.229976019955E+04    0.23202E-04   -0.16791E-03  4400   0.364E-02    0.193E-01
RMM:   4    -0.229976000497E+04    0.19457E-03   -0.28241E-04  3174   0.900E-03    0.557E-02
RMM:   5    -0.229975996254E+04    0.42431E-04   -0.13750E-04  3340   0.779E-03    0.214E-02
RMM:   6    -0.229975996446E+04   -0.19133E-05   -0.34855E-05  2876   0.607E-03
  34 F= -.23200126E+04 E0= -.23200126E+04  d E =-.269673E-02  mag=     6.0000
       N       E                     dE             d eps       ncg     rms          rms(c)
DAV:   1    -0.229974816913E+04    0.11793E-01   -0.78404E+00  4392   0.168E+00    0.540E-01
RMM:   2    -0.229976705166E+04   -0.18883E-01   -0.20210E-01  4770   0.249E-01    0.501E-01
RMM:   3    -0.229976695179E+04    0.99871E-04   -0.15558E-02  4607   0.109E-01    0.583E-01
RMM:   4    -0.229976519069E+04    0.17611E-02   -0.25785E-03  4908   0.267E-02    0.167E-01
RMM:   5    -0.229976493020E+04    0.26049E-03   -0.12739E-03  5031   0.212E-02    0.686E-02
RMM:   6    -0.229976492698E+04    0.32193E-05   -0.32133E-04  4361   0.126E-02    0.285E-02
RMM:   7    -0.229976492345E+04    0.35322E-05   -0.47637E-05  2885   0.551E-03
  35 F= -.23200170E+04 E0= -.23200170E+04  d E =-.712301E-02  mag=     6.0000
       N       E                     dE             d eps       ncg     rms          rms(c)
DAV:   1    -0.229976639032E+04   -0.14633E-02   -0.14051E+00  4460   0.614E-01    0.210E-01
RMM:   2    -0.229976946792E+04   -0.30776E-02   -0.32447E-02  5060   0.919E-02    0.214E-01
RMM:   3    -0.229976935419E+04    0.11374E-03   -0.24384E-03  4463   0.392E-02    0.214E-01
RMM:   4    -0.229976911312E+04    0.24106E-03   -0.45153E-04  3419   0.104E-02    0.682E-02
RMM:   5    -0.229976905954E+04    0.53588E-04   -0.20341E-04  3448   0.903E-03    0.282E-02
RMM:   6    -0.229976905950E+04    0.33324E-07   -0.52223E-05  2887   0.669E-03
  36 F= -.23200209E+04 E0= -.23200209E+04  d E =-.388580E-02  mag=     6.0000
       N       E                     dE             d eps       ncg     rms          rms(c)
DAV:   1    -0.229975090080E+04    0.18159E-01   -0.12602E+01  4392   0.184E+00    0.642E-01
RMM:   2    -0.229977842456E+04   -0.27524E-01   -0.29815E-01  4835   0.273E-01    0.599E-01
RMM:   3    -0.229977753645E+04    0.88812E-03   -0.25601E-02  4648   0.116E-01    0.687E-01
RMM:   4    -0.229977505428E+04    0.24822E-02   -0.39650E-03  4952   0.297E-02    0.207E-01
RMM:   5    -0.229977471155E+04    0.34273E-03   -0.20355E-03  5070   0.246E-02    0.845E-02
RMM:   6    -0.229977472040E+04   -0.88495E-05   -0.45654E-04  4417   0.144E-02    0.389E-02
RMM:   7    -0.229977471069E+04    0.97089E-05   -0.10879E-04  2955   0.643E-03    0.201E-02
RMM:   8    -0.229977471233E+04   -0.16408E-05   -0.21855E-05  2856   0.433E-03
  37 F= -.23200258E+04 E0= -.23200257E+04  d E =-.881680E-02  mag=     6.0000
       N       E                     dE             d eps       ncg     rms          rms(c)
DAV:   1    -0.229977457831E+04    0.13238E-03   -0.22595E+00  4456   0.735E-01    0.262E-01
RMM:   2    -0.229977935662E+04   -0.47783E-02   -0.51710E-02  5096   0.106E-01    0.229E-01
RMM:   3    -0.229977938900E+04   -0.32375E-04   -0.44769E-03  4588   0.480E-02    0.275E-01
RMM:   4    -0.229977903109E+04    0.35791E-03   -0.74257E-04  3777   0.120E-02    0.900E-02
RMM:   5    -0.229977894885E+04    0.82236E-04   -0.25571E-04  3443   0.957E-03    0.391E-02
RMM:   6    -0.229977894979E+04   -0.93845E-06   -0.99551E-05  2954   0.763E-03
  38 F= -.23200297E+04 E0= -.23200296E+04  d E =-.390584E-02  mag=     6.0000
       N       E                     dE             d eps       ncg     rms          rms(c)
DAV:   1    -0.229974266226E+04    0.36287E-01   -0.18335E+01  4392   0.208E+00    0.797E-01
RMM:   2    -0.229978264217E+04   -0.39980E-01   -0.43993E-01  4929   0.304E-01    0.657E-01
RMM:   3    -0.229978520962E+04   -0.25674E-02   -0.45968E-02  4691   0.145E-01    0.864E-01
RMM:   4    -0.229978139485E+04    0.38148E-02   -0.60888E-03  5189   0.339E-02    0.260E-01
RMM:   5    -0.229978085300E+04    0.54185E-03   -0.27525E-03  4943   0.259E-02    0.113E-01
RMM:   6    -0.229978090923E+04   -0.56224E-04   -0.85290E-04  4437   0.176E-02    0.531E-02
RMM:   7    -0.229978088738E+04    0.21842E-04   -0.23123E-04  3071   0.831E-03    0.276E-02
RMM:   8    -0.229978089771E+04   -0.10329E-04   -0.46793E-05  2886   0.487E-03    0.244E-02
RMM:   9    -0.229978090054E+04   -0.28226E-05   -0.35829E-05  2847   0.376E-03
  39 F= -.23200308E+04 E0= -.23200306E+04  d E =-.495439E-02  mag=     6.0000
       N       E                     dE             d eps       ncg     rms          rms(c)
DAV:   1    -0.229977586187E+04    0.50358E-02   -0.33324E+00  4392   0.889E-01    0.313E-01
RMM:   2    -0.229978254757E+04   -0.66857E-02   -0.71257E-02  5050   0.128E-01    0.284E-01
RMM:   3    -0.229978264249E+04   -0.94924E-04   -0.66660E-03  4627   0.585E-02    0.325E-01
RMM:   4    -0.229978213626E+04    0.50623E-03   -0.10805E-03  4281   0.146E-02    0.104E-01
RMM:   5    -0.229978205817E+04    0.78085E-04   -0.35107E-04  3837   0.116E-02    0.465E-02
RMM:   6    -0.229978206707E+04   -0.88965E-05   -0.12894E-04  3033   0.802E-03    0.236E-02
RMM:   7    -0.229978206460E+04    0.24654E-05   -0.21127E-05  2859   0.515E-03
  40 F= -.23200323E+04 E0= -.23200322E+04  d E =-.649379E-02  mag=     6.0000
       N       E                     dE             d eps       ncg     rms          rms(c)
DAV:   1    -0.229978450150E+04   -0.24344E-02   -0.35689E-01  4496   0.445E-01    0.145E-01
RMM:   2    -0.229978539654E+04   -0.89504E-03   -0.10548E-02  4705   0.687E-02    0.667E-02
RMM:   3    -0.229978535670E+04    0.39842E-04   -0.87259E-04  4386   0.327E-02    0.413E-02
RMM:   4    -0.229978533479E+04    0.21910E-04   -0.17640E-04  4015   0.969E-03    0.286E-02
RMM:   5    -0.229978534409E+04   -0.93045E-05   -0.44123E-05  2842   0.685E-03
  41 F= -.23200354E+04 E0= -.23200353E+04  d E =-.309020E-02  mag=     6.0000
       N       E                     dE             d eps       ncg     rms          rms(c)
DAV:   1    -0.229978470340E+04    0.63139E-03   -0.12039E+00  4392   0.817E-01    0.267E-01
RMM:   2    -0.229978776362E+04   -0.30602E-02   -0.35826E-02  4616   0.126E-01    0.130E-01
RMM:   3    -0.229978769158E+04    0.72042E-04   -0.29707E-03  4528   0.541E-02    0.128E-01
RMM:   4    -0.229978767698E+04    0.14602E-04   -0.48629E-04  4416   0.134E-02    0.125E-01
RMM:   5    -0.229978756487E+04    0.11211E-03   -0.28887E-04  4158   0.131E-02    0.569E-02
RMM:   6    -0.229978754359E+04    0.21277E-04   -0.76994E-05  3565   0.750E-03    0.209E-02
RMM:   7    -0.229978753957E+04    0.40216E-05   -0.20486E-05  2836   0.597E-03
  42 F= -.23200373E+04 E0= -.23200371E+04  d E =-.493813E-02  mag=     6.0000
       N       E                     dE             d eps       ncg     rms          rms(c)
DAV:   1    -0.229978910515E+04   -0.15616E-02   -0.28578E-01  4544   0.436E-01    0.113E-01
RMM:   2    -0.229978991233E+04   -0.80718E-03   -0.88254E-03  4722   0.639E-02    0.645E-02
RMM:   3    -0.229978993244E+04   -0.20111E-04   -0.67036E-04  4295   0.294E-02    0.887E-02
RMM:   4    -0.229978989823E+04    0.34208E-04   -0.10205E-04  2913   0.629E-03    0.403E-02
RMM:   5    -0.229978988240E+04    0.15834E-04   -0.42240E-05  2878   0.557E-03    0.228E-02
RMM:   6    -0.229978987951E+04    0.28873E-05   -0.19432E-05  2857   0.486E-03
  43 F= -.23200395E+04 E0= -.23200393E+04  d E =-.223766E-02  mag=     6.0000
       N       E                     dE             d eps       ncg     rms          rms(c)
DAV:   1    -0.229978694619E+04    0.29362E-02   -0.25733E+00  4392   0.130E+00    0.342E-01
RMM:   2    -0.229979406191E+04   -0.71157E-02   -0.78961E-02  4555   0.190E-01    0.189E-01
RMM:   3    -0.229979427489E+04   -0.21298E-03   -0.61703E-03  4481   0.750E-02    0.270E-01
RMM:   4    -0.229979394800E+04    0.32690E-03   -0.94212E-04  4671   0.176E-02    0.121E-01
RMM:   5    -0.229979380309E+04    0.14491E-03   -0.40857E-04  4632   0.154E-02    0.551E-02
RMM:   6    -0.229979378617E+04    0.16922E-04   -0.15978E-04  4201   0.100E-02    0.276E-02
RMM:   7    -0.229979377782E+04    0.83521E-05   -0.41297E-05  2861   0.589E-03
  44 F= -.23200431E+04 E0= -.23200429E+04  d E =-.582942E-02  mag=     6.0000
       N       E                     dE             d eps       ncg     rms          rms(c)
DAV:   1    -0.229979351989E+04    0.26628E-03   -0.17674E-01  4664   0.343E-01    0.901E-02
RMM:   2    -0.229979401176E+04   -0.49187E-03   -0.54193E-03  4875   0.506E-02    0.526E-02
RMM:   3    -0.229979403022E+04   -0.18460E-04   -0.42744E-04  3986   0.230E-02    0.762E-02
RMM:   4    -0.229979400363E+04    0.26588E-04   -0.65437E-05  2873   0.520E-03    0.306E-02
RMM:   5    -0.229979399275E+04    0.10885E-04   -0.27378E-05  2846   0.449E-03    0.174E-02
RMM:   6    -0.229979399122E+04    0.15218E-05   -0.13163E-05  2853   0.399E-03
  45 F= -.23200432E+04 E0= -.23200430E+04  d E =-.596263E-02  mag=     6.0000
       N       E                     dE             d eps       ncg     rms          rms(c)
DAV:   1    -0.229979487613E+04   -0.88339E-03   -0.49789E-01  4392   0.614E-01    0.166E-01
RMM:   2    -0.229979691354E+04   -0.20374E-02   -0.21576E-02  4980   0.960E-02    0.141E-01
RMM:   3    -0.229979703193E+04   -0.11839E-03   -0.19178E-03  4400   0.475E-02    0.173E-01
RMM:   4    -0.229979687488E+04    0.15705E-03   -0.26996E-04  3958   0.102E-02    0.508E-02
RMM:   5    -0.229979684229E+04    0.32592E-04   -0.10688E-04  3707   0.907E-03    0.265E-02
RMM:   6    -0.229979683969E+04    0.25956E-05   -0.38005E-05  2967   0.652E-03
  46 F= -.23200460E+04 E0= -.23200458E+04  d E =-.281605E-02  mag=     6.0000
       N       E                     dE             d eps       ncg     rms          rms(c)
DAV:   1    -0.229979474236E+04    0.20999E-02   -0.85932E-01  4392   0.808E-01    0.220E-01
RMM:   2    -0.229979826553E+04   -0.35232E-02   -0.37147E-02  5140   0.126E-01    0.199E-01
RMM:   3    -0.229979845963E+04   -0.19410E-03   -0.32964E-03  4648   0.575E-02    0.231E-01
RMM:   4    -0.229979817421E+04    0.28542E-03   -0.45735E-04  4407   0.134E-02    0.651E-02
RMM:   5    -0.229979811868E+04    0.55533E-04   -0.19671E-04  4168   0.118E-02    0.321E-02
RMM:   6    -0.229979811219E+04    0.64941E-05   -0.60912E-05  3387   0.772E-03
  47 F= -.23200473E+04 E0= -.23200470E+04  d E =-.404273E-02  mag=     6.0000
       N       E                     dE             d eps       ncg     rms          rms(c)
DAV:   1    -0.229979738231E+04    0.73637E-03   -0.43025E-01  4464   0.614E-01    0.186E-01
RMM:   2    -0.229979997043E+04   -0.25881E-02   -0.26287E-02  5618   0.998E-02    0.208E-01
RMM:   3    -0.229980004755E+04   -0.77122E-04   -0.24797E-03  4810   0.426E-02    0.185E-01
RMM:   4    -0.229979986801E+04    0.17954E-03   -0.31812E-04  3693   0.105E-02    0.451E-02
RMM:   5    -0.229979983668E+04    0.31324E-04   -0.10271E-04  3577   0.849E-03    0.237E-02
RMM:   6    -0.229979983167E+04    0.50099E-05   -0.38211E-05  2969   0.659E-03
  48 F= -.23200489E+04 E0= -.23200487E+04  d E =-.166644E-02  mag=     6.0000
       N       E                     dE             d eps       ncg     rms          rms(c)
DAV:   1    -0.229979919632E+04    0.64036E-03   -0.15158E-01  4560   0.365E-01    0.111E-01
RMM:   2    -0.229980011760E+04   -0.92127E-03   -0.93026E-03  5847   0.608E-02    0.129E-01
RMM:   3    -0.229980013851E+04   -0.20909E-04   -0.89124E-04  3860   0.231E-02    0.108E-01
RMM:   4    -0.229980007630E+04    0.62207E-04   -0.11165E-04  2881   0.670E-03    0.276E-02
RMM:   5    -0.229980006397E+04    0.12328E-04   -0.41596E-05  2901   0.547E-03    0.144E-02
RMM:   6    -0.229980006207E+04    0.19043E-05   -0.14395E-05  2846   0.490E-03
  49 F= -.23200491E+04 E0= -.23200489E+04  d E =-.186377E-02  mag=     6.0000
       N       E                     dE             d eps       ncg     rms          rms(c)
DAV:   1    -0.229979827101E+04    0.17930E-02   -0.38199E-01  4392   0.584E-01    0.177E-01
RMM:   2    -0.229980166049E+04   -0.33895E-02   -0.33033E-02  5377   0.963E-02    0.247E-01
RMM:   3    -0.229980167039E+04   -0.99037E-05   -0.30355E-03  4528   0.456E-02    0.152E-01
RMM:   4    -0.229980156276E+04    0.10763E-03   -0.36038E-04  3422   0.988E-03    0.446E-02
RMM:   5    -0.229980153293E+04    0.29828E-04   -0.73590E-05  3047   0.719E-03    0.257E-02
RMM:   6    -0.229980152598E+04    0.69503E-05   -0.41766E-05  3002   0.656E-03
  50 F= -.23200505E+04 E0= -.23200503E+04  d E =-.138974E-02  mag=     6.0000
       N       E                     dE             d eps       ncg     rms          rms(c)
DAV:   1    -0.229979786342E+04    0.36695E-02   -0.48159E-01  4392   0.654E-01    0.200E-01
RMM:   2    -0.229980213694E+04   -0.42735E-02   -0.41715E-02  5496   0.109E-01    0.278E-01
RMM:   3    -0.229980215474E+04   -0.17802E-04   -0.37581E-03  4870   0.460E-02    0.173E-01
RMM:   4    -0.229980201432E+04    0.14042E-03   -0.45809E-04  3632   0.108E-02    0.507E-02
RMM:   5    -0.229980197662E+04    0.37696E-04   -0.98421E-05  3336   0.804E-03    0.294E-02
RMM:   6    -0.229980196760E+04    0.90201E-05   -0.50830E-05  3034   0.694E-03
  51 F= -.23200509E+04 E0= -.23200506E+04  d E =-.174434E-02  mag=     6.0000
       N       E                     dE             d eps       ncg     rms          rms(c)
DAV:   1    -0.229979862069E+04    0.33559E-02   -0.41119E-01  4424   0.583E-01    0.205E-01
RMM:   2    -0.229980340639E+04   -0.47857E-02   -0.46033E-02  5765   0.102E-01    0.314E-01
RMM:   3    -0.229980333727E+04    0.69118E-04   -0.39346E-03  4827   0.414E-02    0.172E-01
RMM:   4    -0.229980321073E+04    0.12654E-03   -0.50085E-04  3197   0.101E-02    0.475E-02
RMM:   5    -0.229980317867E+04    0.32060E-04   -0.84378E-05  3030   0.688E-03    0.314E-02
RMM:   6    -0.229980317198E+04    0.66981E-05   -0.47407E-05  2881   0.644E-03
  52 F= -.23200520E+04 E0= -.23200517E+04  d E =-.108577E-02  mag=     6.0000
       N       E                     dE             d eps       ncg     rms          rms(c)
DAV:   1    -0.229980116496E+04    0.20137E-02   -0.19946E-01  4520   0.404E-01    0.142E-01
RMM:   2    -0.229980347260E+04   -0.23076E-02   -0.22270E-02  5852   0.716E-02    0.214E-01
RMM:   3    -0.229980345988E+04    0.12721E-04   -0.19891E-03  4009   0.289E-02    0.121E-01
RMM:   4    -0.229980339602E+04    0.63859E-04   -0.24163E-04  2919   0.754E-03    0.344E-02
RMM:   5    -0.229980338031E+04    0.15711E-04   -0.46185E-05  2868   0.515E-03    0.219E-02
RMM:   6    -0.229980337781E+04    0.24987E-05   -0.22928E-05  2837   0.492E-03
  53 F= -.23200521E+04 E0= -.23200518E+04  d E =-.120675E-02  mag=     6.0000
       N       E                     dE             d eps       ncg     rms          rms(c)
DAV:   1    -0.229979914954E+04    0.42308E-02   -0.36454E-01  4392   0.544E-01    0.211E-01
RMM:   2    -0.229980486107E+04   -0.57115E-02   -0.53809E-02  5631   0.986E-02    0.354E-01
RMM:   3    -0.229980474060E+04    0.12047E-03   -0.48285E-03  4738   0.456E-02    0.165E-01
RMM:   4    -0.229980464780E+04    0.92801E-04   -0.61111E-04  3190   0.101E-02    0.493E-02
RMM:   5    -0.229980461701E+04    0.30792E-04   -0.64876E-05  2943   0.667E-03    0.361E-02
RMM:   6    -0.229980460949E+04    0.75235E-05   -0.45745E-05  2854   0.643E-03
  54 F= -.23200532E+04 E0= -.23200529E+04  d E =-.109299E-02  mag=     6.0000
       N       E                     dE             d eps       ncg     rms          rms(c)
DAV:   1    -0.229980272169E+04    0.18953E-02   -0.13958E-01  4496   0.335E-01    0.128E-01
RMM:   2    -0.229980484920E+04   -0.21275E-02   -0.20453E-02  5923   0.627E-02    0.188E-01
RMM:   3    -0.229980488749E+04   -0.38290E-04   -0.19805E-03  3741   0.252E-02    0.106E-01
RMM:   4    -0.229980484555E+04    0.41934E-04   -0.23800E-04  2905   0.685E-03    0.330E-02
RMM:   5    -0.229980483194E+04    0.13612E-04   -0.31717E-05  2863   0.456E-03    0.205E-02
RMM:   6    -0.229980482963E+04    0.23140E-05   -0.17503E-05  2830   0.434E-03
  55 F= -.23200533E+04 E0= -.23200531E+04  d E =-.122451E-02  mag=     6.0000
       N       E                     dE             d eps       ncg     rms          rms(c)
DAV:   1    -0.229980138014E+04    0.34518E-02   -0.27573E-01  4392   0.489E-01    0.206E-01
RMM:   2    -0.229980599002E+04   -0.46099E-02   -0.42815E-02  5588   0.905E-02    0.339E-01
RMM:   3    -0.229980583740E+04    0.15262E-03   -0.41600E-03  4632   0.433E-02    0.150E-01
RMM:   4    -0.229980575331E+04    0.84089E-04   -0.50536E-04  3260   0.963E-03    0.434E-02
RMM:   5    -0.229980572632E+04    0.26992E-04   -0.64972E-05  2949   0.658E-03    0.350E-02
RMM:   6    -0.229980571848E+04    0.78353E-05   -0.44678E-05  2842   0.634E-03
  56 F= -.23200541E+04 E0= -.23200539E+04  d E =-.822016E-03  mag=     6.0000
       N       E                     dE             d eps       ncg     rms          rms(c)
DAV:   1    -0.229980511852E+04    0.60779E-03   -0.40516E-02  4728   0.187E-01    0.751E-02
RMM:   2    -0.229980575416E+04   -0.63564E-03   -0.62918E-03  6010   0.373E-02    0.815E-02
RMM:   3    -0.229980579635E+04   -0.42188E-04   -0.62043E-04  3055   0.144E-02    0.688E-02
RMM:   4    -0.229980577525E+04    0.21101E-04   -0.74617E-05  2855   0.444E-03    0.206E-02
RMM:   5    -0.229980577045E+04    0.47938E-05   -0.15112E-05  2836   0.303E-03
  57 F= -.23200541E+04 E0= -.23200539E+04  d E =-.847325E-03  mag=     6.0000
       N       E                     dE             d eps       ncg     rms          rms(c)
DAV:   1    -0.229980204145E+04    0.37338E-02   -0.25712E-01  4392   0.460E-01    0.194E-01
RMM:   2    -0.229980664372E+04   -0.46023E-02   -0.43089E-02  5705   0.871E-02    0.319E-01
RMM:   3    -0.229980655123E+04    0.92489E-04   -0.41780E-03  4431   0.379E-02    0.140E-01
RMM:   4    -0.229980649030E+04    0.60932E-04   -0.48853E-04  3050   0.909E-03    0.436E-02
RMM:   5    -0.229980646400E+04    0.26297E-04   -0.52341E-05  2905   0.606E-03    0.356E-02
RMM:   6    -0.229980645550E+04    0.84982E-05   -0.47129E-05  2847   0.610E-03
  58 F= -.23200548E+04 E0= -.23200545E+04  d E =-.626622E-03  mag=     6.0000
       N       E                     dE             d eps       ncg     rms          rms(c)
DAV:   1    -0.229980610914E+04    0.35486E-03   -0.20416E-02  4944   0.130E-01    0.523E-02
RMM:   2    -0.229980644896E+04   -0.33982E-03   -0.34163E-03  5743   0.269E-02    0.436E-02
RMM:   3    -0.229980647968E+04   -0.30723E-04   -0.34169E-04  2857   0.108E-02    0.423E-02
RMM:   4    -0.229980647319E+04    0.64936E-05   -0.39316E-05  2858   0.328E-03
  59 F= -.23200548E+04 E0= -.23200545E+04  d E =-.627269E-03  mag=     6.0000
       N       E                     dE             d eps       ncg     rms          rms(c)
DAV:   1    -0.229980364939E+04    0.28303E-02   -0.21840E-01  4392   0.441E-01    0.179E-01
RMM:   2    -0.229980751108E+04   -0.38617E-02   -0.33961E-02  5512   0.804E-02    0.364E-01
RMM:   3    -0.229980709596E+04    0.41512E-03   -0.33244E-03  4447   0.368E-02    0.998E-02
RMM:   4    -0.229980707162E+04    0.24343E-04   -0.35492E-04  2987   0.807E-03    0.384E-02
RMM:   5    -0.229980705515E+04    0.16466E-04   -0.38091E-05  2871   0.536E-03    0.420E-02
RMM:   6    -0.229980704627E+04    0.88839E-05   -0.52717E-05  2839   0.604E-03
  60 F= -.23200553E+04 E0= -.23200551E+04  d E =-.538191E-03  mag=     6.0000
       N       E                     dE             d eps       ncg     rms          rms(c)
DAV:   1    -0.229980646416E+04    0.59099E-03   -0.37285E-02  4544   0.182E-01    0.702E-02
RMM:   2    -0.229980706753E+04   -0.60337E-03   -0.57363E-03  6014   0.357E-02    0.103E-01
RMM:   3    -0.229980707311E+04   -0.55758E-05   -0.56806E-04  2966   0.137E-02    0.542E-02
RMM:   4    -0.229980706444E+04    0.86625E-05   -0.63793E-05  2877   0.412E-03
  61 F= -.23200553E+04 E0= -.23200551E+04  d E =-.541348E-03  mag=     6.0000
       N       E                     dE             d eps       ncg     rms          rms(c)
DAV:   1    -0.229980563543E+04    0.14377E-02   -0.12720E-01  4392   0.343E-01    0.130E-01
RMM:   2    -0.229980770205E+04   -0.20666E-02   -0.18548E-02  5586   0.611E-02    0.248E-01
RMM:   3    -0.229980755245E+04    0.14960E-03   -0.18550E-03  3857   0.282E-02    0.779E-02
RMM:   4    -0.229980753934E+04    0.13103E-04   -0.21767E-04  2901   0.654E-03    0.296E-02
RMM:   5    -0.229980753023E+04    0.91109E-05   -0.23379E-05  2864   0.439E-03
  62 F= -.23200558E+04 E0= -.23200555E+04  d E =-.471430E-03  mag=     6.0000
       N       E                     dE             d eps       ncg     rms          rms(c)
DAV:   1    -0.229980584538E+04    0.16940E-02   -0.12059E-01  4424   0.334E-01    0.140E-01
RMM:   2    -0.229980803640E+04   -0.21910E-02   -0.18022E-02  5982   0.620E-02    0.323E-01
RMM:   3    -0.229980764331E+04    0.39309E-03   -0.18252E-03  3809   0.237E-02    0.637E-02
RMM:   4    -0.229980763868E+04    0.46324E-05   -0.22048E-04  2897   0.664E-03    0.284E-02
RMM:   5    -0.229980763390E+04    0.47738E-05   -0.26030E-05  2863   0.449E-03
  63 F= -.23200559E+04 E0= -.23200557E+04  d E =-.579818E-03  mag=     6.0000
       N       E                     dE             d eps       ncg     rms          rms(c)
DAV:   1    -0.229980737555E+04    0.26313E-03   -0.43385E-02  4560   0.215E-01    0.872E-02
RMM:   2    -0.229980800772E+04   -0.63217E-03   -0.51631E-03  5839   0.405E-02    0.186E-01
RMM:   3    -0.229980786678E+04    0.14094E-03   -0.52997E-04  3407   0.159E-02    0.435E-02
RMM:   4    -0.229980785613E+04    0.10650E-04   -0.61759E-05  2870   0.499E-03    0.178E-02
RMM:   5    -0.229980785290E+04    0.32241E-05   -0.15632E-05  2859   0.409E-03
  64 F= -.23200561E+04 E0= -.23200559E+04  d E =-.246417E-03  mag=     6.0000
       N       E                     dE             d eps       ncg     rms          rms(c)
DAV:   1    -0.229980778861E+04    0.67515E-04   -0.55423E-03  5024   0.769E-02    0.329E-02
RMM:   2    -0.229980787176E+04   -0.83146E-04   -0.67049E-04  4785   0.162E-02    0.705E-02
RMM:   3    -0.229980785244E+04    0.19313E-04   -0.76248E-05  2838   0.707E-03    0.165E-02
RMM:   4    -0.229980785097E+04    0.14711E-05   -0.90306E-06  2832   0.260E-03
  65 F= -.23200561E+04 E0= -.23200559E+04  d E =-.254380E-03  mag=     6.0000
       N       E                     dE             d eps       ncg     rms          rms(c)
DAV:   1    -0.229980776297E+04    0.89475E-04   -0.24243E-02  4432   0.165E-01    0.568E-02
RMM:   2    -0.229980801450E+04   -0.25153E-03   -0.24054E-03  5430   0.280E-02    0.753E-02
RMM:   3    -0.229980801198E+04    0.25207E-05   -0.23305E-04  3033   0.127E-02    0.491E-02
RMM:   4    -0.229980799927E+04    0.12716E-04   -0.29431E-05  2839   0.358E-03    0.128E-02
RMM:   5    -0.229980799657E+04    0.26984E-05   -0.69633E-06  2819   0.275E-03
  66 F= -.23200563E+04 E0= -.23200561E+04  d E =-.154411E-03  mag=     6.0000
       N       E                     dE             d eps       ncg     rms          rms(c)
DAV:   1    -0.229980787305E+04    0.12622E-03   -0.14207E-02  4464   0.126E-01    0.453E-02
RMM:   2    -0.229980803050E+04   -0.15746E-03   -0.14431E-03  5434   0.228E-02    0.706E-02
RMM:   3    -0.229980801968E+04    0.10827E-04   -0.14722E-04  2866   0.943E-03    0.340E-02
RMM:   4    -0.229980801318E+04    0.64979E-05   -0.15753E-05  2847   0.304E-03
  67 F= -.23200563E+04 E0= -.23200561E+04  d E =-.177786E-03  mag=     6.0000
       N       E                     dE             d eps       ncg     rms          rms(c)
DAV:   1    -0.229980791056E+04    0.10912E-03   -0.24958E-02  4416   0.165E-01    0.522E-02
RMM:   2    -0.229980816952E+04   -0.25896E-03   -0.23482E-03  5483   0.274E-02    0.916E-02
RMM:   3    -0.229980814548E+04    0.24037E-04   -0.22170E-04  2969   0.116E-02    0.346E-02
RMM:   4    -0.229980813951E+04    0.59646E-05   -0.23682E-05  2849   0.321E-03
  68 F= -.23200565E+04 E0= -.23200562E+04  d E =-.145102E-03  mag=     6.0000
       N       E                     dE             d eps       ncg     rms          rms(c)
DAV:   1    -0.229980771533E+04    0.43015E-03   -0.49829E-02  4400   0.234E-01    0.736E-02
RMM:   2    -0.229980822050E+04   -0.50516E-03   -0.46560E-03  5259   0.380E-02    0.123E-01
RMM:   3    -0.229980818094E+04    0.39560E-04   -0.44237E-04  3494   0.185E-02    0.510E-02
RMM:   4    -0.229980816782E+04    0.13113E-04   -0.51061E-05  2856   0.431E-03    0.171E-02
RMM:   5    -0.229980816326E+04    0.45632E-05   -0.10256E-05  2832   0.336E-03
  69 F= -.23200565E+04 E0= -.23200563E+04  d E =-.195216E-03  mag=     6.0000
       N       E                     dE             d eps       ncg     rms          rms(c)
DAV:   1    -0.229980805943E+04    0.10839E-03   -0.20459E-02  4512   0.149E-01    0.494E-02
RMM:   2    -0.229980829645E+04   -0.23701E-03   -0.20232E-03  5614   0.262E-02    0.101E-01
RMM:   3    -0.229980825819E+04    0.38265E-04   -0.19324E-04  2930   0.101E-02    0.262E-02
RMM:   4    -0.229980825578E+04    0.24082E-05   -0.19801E-05  2839   0.327E-03
  70 F= -.23200566E+04 E0= -.23200564E+04  d E =-.126389E-03  mag=     6.0000
       N       E                     dE             d eps       ncg     rms          rms(c)
DAV:   1    -0.229980750864E+04    0.74955E-03   -0.79346E-02  4392   0.294E-01    0.911E-02
RMM:   2    -0.229980834936E+04   -0.84073E-03   -0.77068E-03  5330   0.479E-02    0.160E-01
RMM:   3    -0.229980827771E+04    0.71648E-04   -0.67898E-04  3677   0.210E-02    0.606E-02
RMM:   4    -0.229980826225E+04    0.15461E-04   -0.77079E-05  2855   0.521E-03    0.211E-02
RMM:   5    -0.229980825508E+04    0.71740E-05   -0.14842E-05  2840   0.398E-03
  71 F= -.23200567E+04 E0= -.23200565E+04  d E =-.191936E-03  mag=     6.0000
       N       E                     dE             d eps       ncg     rms          rms(c)
DAV:   1    -0.229980799536E+04    0.26689E-03   -0.32225E-02  4448   0.187E-01    0.639E-02
RMM:   2    -0.229980836409E+04   -0.36873E-03   -0.32754E-03  5818   0.335E-02    0.115E-01
RMM:   3    -0.229980832212E+04    0.41976E-04   -0.31140E-04  3095   0.120E-02    0.397E-02
RMM:   4    -0.229980831479E+04    0.73244E-05   -0.32200E-05  2851   0.394E-03
  72 F= -.23200569E+04 E0= -.23200566E+04  d E =-.139341E-03  mag=     6.0000
       N       E                     dE             d eps       ncg     rms          rms(c)
DAV:   1    -0.229980804594E+04    0.27618E-03   -0.23245E-02  4520   0.158E-01    0.513E-02
RMM:   2    -0.229980829085E+04   -0.24491E-03   -0.23275E-03  5504   0.268E-02    0.774E-02
RMM:   3    -0.229980827914E+04    0.11710E-04   -0.20484E-04  2958   0.114E-02    0.379E-02
RMM:   4    -0.229980827195E+04    0.71875E-05   -0.27581E-05  2851   0.334E-03
  73 F= -.23200569E+04 E0= -.23200566E+04  d E =-.164128E-03  mag=     6.0000
       N       E                     dE             d eps       ncg     rms          rms(c)
DAV:   1    -0.229980800397E+04    0.27517E-03   -0.27519E-02  4416   0.162E-01    0.581E-02
RMM:   2    -0.229980834535E+04   -0.34138E-03   -0.31662E-03  5530   0.284E-02    0.971E-02
RMM:   3    -0.229980832525E+04    0.20104E-04   -0.30191E-04  2958   0.125E-02    0.401E-02
RMM:   4    -0.229980831772E+04    0.75326E-05   -0.35633E-05  2857   0.358E-03
  74 F= -.23200570E+04 E0= -.23200568E+04  d E =-.131893E-03  mag=     6.0000
       N       E                     dE             d eps       ncg     rms          rms(c)
DAV:   1    -0.229980807464E+04    0.25060E-03   -0.17106E-02  4536   0.127E-01    0.451E-02
RMM:   2    -0.229980827440E+04   -0.19975E-03   -0.19468E-03  5481   0.224E-02    0.607E-02
RMM:   3    -0.229980827476E+04   -0.35873E-06   -0.18348E-04  2875   0.100E-02    0.370E-02
RMM:   4    -0.229980826801E+04    0.67503E-05   -0.23576E-05  2852   0.296E-03
  75 F= -.23200570E+04 E0= -.23200568E+04  d E =-.150355E-03  mag=     6.0000
       N       E                     dE             d eps       ncg     rms          rms(c)
DAV:   1    -0.229980796279E+04    0.31197E-03   -0.29083E-02  4396   0.157E-01    0.613E-02
RMM:   2    -0.229980835909E+04   -0.39631E-03   -0.35881E-03  5602   0.282E-02    0.111E-01
RMM:   3    -0.229980832479E+04    0.34299E-04   -0.33248E-04  2931   0.121E-02    0.375E-02
RMM:   4    -0.229980832059E+04    0.42057E-05   -0.41673E-05  2861   0.347E-03
  76 F= -.23200571E+04 E0= -.23200569E+04  d E =-.120127E-03  mag=     6.0000
       N       E                     dE             d eps       ncg     rms          rms(c)
DAV:   1    -0.229980806324E+04    0.26156E-03   -0.18180E-02  4448   0.124E-01    0.462E-02
RMM:   2    -0.229980828642E+04   -0.22318E-03   -0.22027E-03  5497   0.222E-02    0.564E-02
RMM:   3    -0.229980829374E+04   -0.73268E-05   -0.20684E-04  2866   0.102E-02    0.407E-02
RMM:   4    -0.229980828615E+04    0.75906E-05   -0.26872E-05  2849   0.297E-03
  77 F= -.23200572E+04 E0= -.23200569E+04  d E =-.139339E-03  mag=     6.0000
       N       E                     dE             d eps       ncg     rms          rms(c)
DAV:   1    -0.229980796537E+04    0.32837E-03   -0.29126E-02  4396   0.159E-01    0.656E-02
RMM:   2    -0.229980839951E+04   -0.43413E-03   -0.38360E-03  5651   0.290E-02    0.125E-01
RMM:   3    -0.229980834892E+04    0.50590E-04   -0.35605E-04  2945   0.121E-02    0.372E-02
RMM:   4    -0.229980834424E+04    0.46760E-05   -0.40581E-05  2858   0.353E-03
  78 F= -.23200573E+04 E0= -.23200571E+04  d E =-.131361E-03  mag=     6.0000
       N       E                     dE             d eps       ncg     rms          rms(c)
DAV:   1    -0.229980805101E+04    0.29791E-03   -0.19389E-02  4520   0.129E-01    0.506E-02
RMM:   2    -0.229980830601E+04   -0.25500E-03   -0.25043E-03  5584   0.236E-02    0.630E-02
RMM:   3    -0.229980831270E+04   -0.66946E-05   -0.23154E-04  2883   0.106E-02    0.438E-02
RMM:   4    -0.229980830372E+04    0.89824E-05   -0.31566E-05  2857   0.312E-03
  79 F= -.23200573E+04 E0= -.23200571E+04  d E =-.150836E-03  mag=     6.0000
       N       E                     dE             d eps       ncg     rms          rms(c)
DAV:   1    -0.229980795592E+04    0.35678E-03   -0.27384E-02  4396   0.150E-01    0.626E-02
RMM:   2    -0.229980839592E+04   -0.43999E-03   -0.38682E-03  5697   0.278E-02    0.125E-01
RMM:   3    -0.229980834455E+04    0.51366E-04   -0.35092E-04  2909   0.115E-02    0.338E-02
RMM:   4    -0.229980834251E+04    0.20409E-05   -0.40190E-05  2853   0.334E-03
  80 F= -.23200574E+04 E0= -.23200572E+04  d E =-.118249E-03  mag=     6.0000
       N       E                     dE             d eps       ncg     rms          rms(c)
DAV:   1    -0.229980776618E+04    0.57837E-03   -0.36662E-02  4392   0.174E-01    0.691E-02
RMM:   2    -0.229980830270E+04   -0.53652E-03   -0.50915E-03  5642   0.315E-02    0.104E-01
RMM:   3    -0.229980829626E+04    0.64421E-05   -0.46696E-04  2994   0.141E-02    0.517E-02
RMM:   4    -0.229980828662E+04    0.96430E-05   -0.60542E-05  2865   0.391E-03
  81 F= -.23200575E+04 E0= -.23200572E+04  d E =-.154299E-03  mag=     6.0000
       N       E                     dE             d eps       ncg     rms          rms(c)
DAV:   1    -0.229980783684E+04    0.45942E-03   -0.35131E-02  4392   0.169E-01    0.704E-02
RMM:   2    -0.229980836767E+04   -0.53083E-03   -0.48315E-03  5665   0.312E-02    0.124E-01
RMM:   3    -0.229980832815E+04    0.39520E-04   -0.43107E-04  3011   0.137E-02    0.443E-02
RMM:   4    -0.229980832296E+04    0.51916E-05   -0.56413E-05  2867   0.382E-03
  82 F= -.23200576E+04 E0= -.23200574E+04  d E =-.133341E-03  mag=     6.0000
       N       E                     dE             d eps       ncg     rms          rms(c)
DAV:   1    -0.229980764638E+04    0.68178E-03   -0.42883E-02  4424   0.187E-01    0.767E-02
RMM:   2    -0.229980826745E+04   -0.62107E-03   -0.58752E-03  5693   0.341E-02    0.117E-01
RMM:   3    -0.229980825177E+04    0.15682E-04   -0.51914E-04  3104   0.151E-02    0.572E-02
RMM:   4    -0.229980824058E+04    0.11189E-04   -0.70210E-05  2867   0.422E-03    0.183E-02
RMM:   5    -0.229980823576E+04    0.48201E-05   -0.10300E-05  2837   0.305E-03
  83 F= -.23200576E+04 E0= -.23200574E+04  d E =-.153317E-03  mag=     6.0000
       N       E                     dE             d eps       ncg     rms          rms(c)
DAV:   1    -0.229980783940E+04    0.40118E-03   -0.26263E-02  4464   0.140E-01    0.643E-02
RMM:   2    -0.229980831434E+04   -0.47494E-03   -0.41007E-03  5777   0.274E-02    0.136E-01
RMM:   3    -0.229980825224E+04    0.62095E-04   -0.38031E-04  2876   0.104E-02    0.330E-02
RMM:   4    -0.229980825217E+04    0.70489E-07   -0.40570E-05  2858   0.329E-03
  84 F= -.23200577E+04 E0= -.23200575E+04  d E =-.115447E-03  mag=     6.0000
       N       E                     dE             d eps       ncg     rms          rms(c)
DAV:   1    -0.229980717393E+04    0.10783E-02   -0.63439E-02  4392   0.217E-01    0.930E-02
RMM:   2    -0.229980823691E+04   -0.10630E-02   -0.97073E-03  5767   0.399E-02    0.169E-01
RMM:   3    -0.229980817185E+04    0.65058E-04   -0.85954E-04  3116   0.166E-02    0.574E-02
RMM:   4    -0.229980816801E+04    0.38420E-05   -0.10984E-04  2870   0.465E-03    0.213E-02
RMM:   5    -0.229980816293E+04    0.50804E-05   -0.12598E-05  2845   0.306E-03
  85 F= -.23200578E+04 E0= -.23200576E+04  d E =-.179310E-03  mag=     6.0000
       N       E                     dE             d eps       ncg     rms          rms(c)
DAV:   1    -0.229980777034E+04    0.39766E-03   -0.31195E-02  4464   0.163E-01    0.799E-02
RMM:   2    -0.229980839471E+04   -0.62436E-03   -0.49594E-03  5796   0.325E-02    0.190E-01
RMM:   3    -0.229980824719E+04    0.14752E-03   -0.46115E-04  3003   0.127E-02    0.336E-02
RMM:   4    -0.229980824635E+04    0.84066E-06   -0.52689E-05  2854   0.401E-03
  86 F= -.23200580E+04 E0= -.23200578E+04  d E =-.197952E-03  mag=     6.0000
       N       E                     dE             d eps       ncg     rms          rms(c)
DAV:   1    -0.229980767346E+04    0.57372E-03   -0.32455E-02  4396   0.166E-01    0.705E-02
RMM:   2    -0.229980818648E+04   -0.51302E-03   -0.49497E-03  5722   0.315E-02    0.973E-02
RMM:   3    -0.229980818951E+04   -0.30250E-05   -0.46023E-04  3037   0.138E-02    0.565E-02
RMM:   4    -0.229980817573E+04    0.13778E-04   -0.60774E-05  2863   0.402E-03    0.177E-02
RMM:   5    -0.229980817067E+04    0.50642E-05   -0.98703E-06  2830   0.300E-03
  87 F= -.23200580E+04 E0= -.23200578E+04  d E =-.239021E-03  mag=     6.0000
       N       E                     dE             d eps       ncg     rms          rms(c)
DAV:   1    -0.229980770051E+04    0.47522E-03   -0.29347E-02  4496   0.153E-01    0.694E-02
RMM:   2    -0.229980825048E+04   -0.54997E-03   -0.49503E-03  5814   0.303E-02    0.129E-01
RMM:   3    -0.229980820860E+04    0.41885E-04   -0.45481E-04  2898   0.117E-02    0.421E-02
RMM:   4    -0.229980820577E+04    0.28229E-05   -0.57116E-05  2857   0.365E-03
  88 F= -.23200582E+04 E0= -.23200580E+04  d E =-.137995E-03  mag=     6.0000
       N       E                     dE             d eps       ncg     rms          rms(c)
DAV:   1    -0.229980765323E+04    0.55537E-03   -0.28553E-02  4444   0.150E-01    0.649E-02
RMM:   2    -0.229980816267E+04   -0.50944E-03   -0.47435E-03  5693   0.283E-02    0.108E-01
RMM:   3    -0.229980814718E+04    0.15487E-04   -0.43811E-04  2919   0.124E-02    0.437E-02
RMM:   4    -0.229980814125E+04    0.59312E-05   -0.55773E-05  2860   0.346E-03
  89 F= -.23200582E+04 E0= -.23200580E+04  d E =-.174819E-03  mag=     6.0000
       N       E                     dE             d eps       ncg     rms          rms(c)
DAV:   1    -0.229980766151E+04    0.48567E-03   -0.36251E-02  4392   0.170E-01    0.738E-02
RMM:   2    -0.229980825101E+04   -0.58949E-03   -0.54142E-03  5576   0.319E-02    0.125E-01
RMM:   3    -0.229980821816E+04    0.32846E-04   -0.48715E-04  3051   0.146E-02    0.487E-02
RMM:   4    -0.229980821102E+04    0.71384E-05   -0.63834E-05  2865   0.390E-03
  90 F= -.23200584E+04 E0= -.23200582E+04  d E =-.153761E-03  mag=     6.0000
       N       E                     dE             d eps       ncg     rms          rms(c)
DAV:   1    -0.229980793763E+04    0.28053E-03   -0.15524E-02  4656   0.111E-01    0.473E-02
RMM:   2    -0.229980817587E+04   -0.23825E-03   -0.23110E-03  5474   0.212E-02    0.641E-02
RMM:   3    -0.229980817872E+04   -0.28475E-05   -0.20989E-04  2863   0.973E-03    0.390E-02
RMM:   4    -0.229980817172E+04    0.70002E-05   -0.28128E-05  2857   0.283E-03
  91 F= -.23200584E+04 E0= -.23200582E+04  d E =-.169710E-03  mag=     6.0000
       N       E                     dE             d eps       ncg     rms          rms(c)
DAV:   1    -0.229980781120E+04    0.36752E-03   -0.28969E-02  4396   0.151E-01    0.673E-02
RMM:   2    -0.229980826003E+04   -0.44883E-03   -0.40392E-03  5680   0.286E-02    0.121E-01
RMM:   3    -0.229980821811E+04    0.41922E-04   -0.36641E-04  2929   0.121E-02    0.415E-02
RMM:   4    -0.229980821284E+04    0.52676E-05   -0.46903E-05  2860   0.354E-03
  92 F= -.23200585E+04 E0= -.23200583E+04  d E =-.124248E-03  mag=     6.0000
       N       E                     dE             d eps       ncg     rms          rms(c)
DAV:   1    -0.229980805506E+04    0.16305E-03   -0.84721E-03  4696   0.817E-02    0.346E-02
RMM:   2    -0.229980817021E+04   -0.11515E-03   -0.11669E-03  5045   0.158E-02    0.347E-02
RMM:   3    -0.229980817812E+04   -0.79019E-05   -0.10543E-04  2838   0.759E-03    0.335E-02
RMM:   4    -0.229980817265E+04    0.54616E-05   -0.15407E-05  2838   0.231E-03
  93 F= -.23200585E+04 E0= -.23200583E+04  d E =-.129370E-03  mag=     6.0000
       N       E                     dE             d eps       ncg     rms          rms(c)
DAV:   1    -0.229980769781E+04    0.48031E-03   -0.34606E-02  4392   0.168E-01    0.757E-02
RMM:   2    -0.229980824489E+04   -0.54708E-03   -0.47770E-03  5672   0.315E-02    0.146E-01
RMM:   3    -0.229980817366E+04    0.71228E-04   -0.43778E-04  2972   0.126E-02    0.422E-02
RMM:   4    -0.229980816797E+04    0.56905E-05   -0.51568E-05  2860   0.392E-03
  94 F= -.23200586E+04 E0= -.23200585E+04  d E =-.115866E-03  mag=     6.0000
       N       E                     dE             d eps       ncg     rms          rms(c)
DAV:   1    -0.229980808147E+04    0.92193E-04   -0.33625E-03  5056   0.523E-02    0.225E-02
RMM:   2    -0.229980812357E+04   -0.42106E-04   -0.44878E-04  3487   0.105E-02    0.127E-02
RMM:   3    -0.229980812649E+04   -0.29192E-05   -0.42795E-05  2821   0.609E-03
  95 F= -.23200586E+04 E0= -.23200585E+04  d E =-.112660E-03  mag=     6.0000
       N       E                     dE             d eps       ncg     rms          rms(c)
DAV:   1    -0.229980774132E+04    0.38226E-03   -0.32457E-02  4396   0.168E-01    0.799E-02
RMM:   2    -0.229980827539E+04   -0.53407E-03   -0.42241E-03  5540   0.311E-02    0.180E-01
RMM:   3    -0.229980814079E+04    0.13460E-03   -0.40364E-04  3095   0.134E-02    0.369E-02
RMM:   4    -0.229980813472E+04    0.60744E-05   -0.44542E-05  2857   0.386E-03
  96 F= -.23200587E+04 E0= -.23200586E+04  d E =-.111355E-03  mag=     6.0000
       N       E                     dE             d eps       ncg     rms          rms(c)
DAV:   1    -0.229980807997E+04    0.60817E-04   -0.19974E-03  5208   0.417E-02    0.187E-02
RMM:   2    -0.229980810281E+04   -0.22837E-04   -0.24298E-04  3097   0.846E-03    0.154E-02
RMM:   3    -0.229980810602E+04   -0.32143E-05   -0.27392E-05  2775   0.505E-03
  97 F= -.23200587E+04 E0= -.23200586E+04  d E =-.108991E-03  mag=     6.0000
       N       E                     dE             d eps       ncg     rms          rms(c)
DAV:   1    -0.229980780689E+04    0.29592E-03   -0.28057E-02  4392   0.148E-01    0.651E-02
RMM:   2    -0.229980817715E+04   -0.37026E-03   -0.33141E-03  5528   0.274E-02    0.114E-01
RMM:   3    -0.229980814062E+04    0.36531E-04   -0.30949E-04  2957   0.121E-02    0.420E-02
RMM:   4    -0.229980813225E+04    0.83719E-05   -0.36018E-05  2862   0.347E-03
  98 F= -.23200588E+04 E0= -.23200587E+04  d E =-.887378E-04  mag=     6.0000
       N       E                     dE             d eps       ncg     rms          rms(c)
DAV:   1    -0.229980810933E+04    0.31288E-04   -0.72841E-04  4912   0.239E-02    0.118E-02
RMM:   2    -0.229980811686E+04   -0.75298E-05   -0.86198E-05  2846   0.522E-03
  99 F= -.23200588E+04 E0= -.23200587E+04  d E =-.839064E-04  mag=     6.0000
       N       E                     dE             d eps       ncg     rms          rms(c)
DAV:   1    -0.229980782211E+04    0.28723E-03   -0.28549E-02  4392   0.145E-01    0.609E-02
RMM:   2    -0.229980814211E+04   -0.32001E-03   -0.32061E-03  5660   0.284E-02    0.625E-02
RMM:   3    -0.229980816600E+04   -0.23887E-04   -0.33374E-04  2935   0.129E-02    0.610E-02
RMM:   4    -0.229980814724E+04    0.18757E-04   -0.38685E-05  2850   0.373E-03    0.164E-02
RMM:   5    -0.229980814428E+04    0.29589E-05   -0.99972E-06  2839   0.265E-03
 100 F= -.23200589E+04 E0= -.23200588E+04  d E =-.924971E-04  mag=     6.0000
       N       E                     dE             d eps       ncg     rms          rms(c)
DAV:   1    -0.229980806674E+04    0.80507E-04   -0.45297E-03  4696   0.579E-02    0.254E-02
RMM:   2    -0.229980811873E+04   -0.51990E-04   -0.51278E-04  3638   0.122E-02    0.307E-02
RMM:   3    -0.229980812104E+04   -0.23118E-05   -0.55483E-05  2829   0.683E-03
 101 F= -.23200589E+04 E0= -.23200588E+04  d E =-.955546E-04  mag=     6.0000
       N       E                     dE             d eps       ncg     rms          rms(c)
DAV:   1    -0.229980778044E+04    0.33829E-03   -0.27316E-02  4392   0.137E-01    0.621E-02
RMM:   2    -0.229980815126E+04   -0.37082E-03   -0.33612E-03  5591   0.266E-02    0.107E-01
RMM:   3    -0.229980812103E+04    0.30234E-04   -0.31751E-04  2862   0.107E-02    0.394E-02
RMM:   4    -0.229980811648E+04    0.45472E-05   -0.39323E-05  2865   0.332E-03
 102 F= -.23200590E+04 E0= -.23200589E+04  d E =-.893313E-04  mag=     6.0000
       N       E                     dE             d eps       ncg     rms          rms(c)
DAV:   1    -0.229980801891E+04    0.10212E-03   -0.47992E-03  4688   0.574E-02    0.252E-02
RMM:   2    -0.229980807237E+04   -0.53460E-04   -0.56628E-04  3572   0.114E-02    0.141E-02
RMM:   3    -0.229980807609E+04   -0.37189E-05   -0.55370E-05  2831   0.659E-03
 103 F= -.23200590E+04 E0= -.23200589E+04  d E =-.889803E-04  mag=     6.0000
       N       E                     dE             d eps       ncg     rms          rms(c)
DAV:   1    -0.229980775433E+04    0.31804E-03   -0.27377E-02  4392   0.140E-01    0.607E-02
RMM:   2    -0.229980810471E+04   -0.35038E-03   -0.33137E-03  5582   0.266E-02    0.899E-02
RMM:   3    -0.229980809481E+04    0.99039E-05   -0.29189E-04  2886   0.111E-02    0.455E-02
RMM:   4    -0.229980808661E+04    0.82016E-05   -0.41341E-05  2861   0.343E-03
 104 F= -.23200591E+04 E0= -.23200590E+04  d E =-.997611E-04  mag=     6.0000
       N       E                     dE             d eps       ncg     rms          rms(c)
DAV:   1    -0.229980799942E+04    0.95387E-04   -0.43863E-03  4824   0.560E-02    0.248E-02
RMM:   2    -0.229980805048E+04   -0.51057E-04   -0.51923E-04  3549   0.112E-02    0.266E-02
RMM:   3    -0.229980805339E+04   -0.29125E-05   -0.50490E-05  2834   0.627E-03
 105 F= -.23200591E+04 E0= -.23200590E+04  d E =-.102869E-03  mag=     6.0000
       N       E                     dE             d eps       ncg     rms          rms(c)
DAV:   1    -0.229980774183E+04    0.30865E-03   -0.28565E-02  4392   0.143E-01    0.640E-02
RMM:   2    -0.229980810954E+04   -0.36771E-03   -0.34153E-03  5527   0.270E-02    0.981E-02
RMM:   3    -0.229980809219E+04    0.17345E-04   -0.31920E-04  2892   0.118E-02    0.460E-02
RMM:   4    -0.229980808527E+04    0.69207E-05   -0.43593E-05  2867   0.354E-03
 106 F= -.23200592E+04 E0= -.23200591E+04  d E =-.944479E-04  mag=     6.0000
       N       E                     dE             d eps       ncg     rms          rms(c)
DAV:   1    -0.229980801682E+04    0.75374E-04   -0.38086E-03  4760   0.519E-02    0.233E-02
RMM:   2    -0.229980805932E+04   -0.42497E-04   -0.44520E-04  3372   0.104E-02    0.164E-02
RMM:   3    -0.229980806369E+04   -0.43731E-05   -0.41590E-05  2827   0.593E-03
 107 F= -.23200592E+04 E0= -.23200591E+04  d E =-.961814E-04  mag=     6.0000
       N       E                     dE             d eps       ncg     rms          rms(c)
DAV:   1    -0.229980772140E+04    0.33792E-03   -0.31621E-02  4392   0.149E-01    0.663E-02
RMM:   2    -0.229980810895E+04   -0.38755E-03   -0.37182E-03  5571   0.282E-02    0.896E-02
RMM:   3    -0.229980810766E+04    0.12896E-05   -0.34589E-04  2905   0.122E-02    0.534E-02
RMM:   4    -0.229980809683E+04    0.10828E-04   -0.47823E-05  2866   0.368E-03    0.162E-02
RMM:   5    -0.229980809303E+04    0.38035E-05   -0.10030E-05  2840   0.267E-03
 108 F= -.23200593E+04 E0= -.23200592E+04  d E =-.994222E-04  mag=     6.0000
       N       E                     dE             d eps       ncg     rms          rms(c)
DAV:   1    -0.229980804364E+04    0.53192E-04   -0.24910E-03  4848   0.417E-02    0.186E-02
RMM:   2    -0.229980807186E+04   -0.28221E-04   -0.29480E-04  3149   0.914E-03    0.125E-02
RMM:   3    -0.229980807514E+04   -0.32798E-05   -0.29054E-05  2792   0.538E-03
 109 F= -.23200593E+04 E0= -.23200592E+04  d E =-.101609E-03  mag=     6.0000
       N       E                     dE             d eps       ncg     rms          rms(c)
DAV:   1    -0.229980771543E+04    0.35643E-03   -0.31292E-02  4392   0.149E-01    0.668E-02
RMM:   2    -0.229980810120E+04   -0.38578E-03   -0.36822E-03  5600   0.281E-02    0.919E-02
RMM:   3    -0.229980809764E+04    0.35682E-05   -0.34138E-04  2913   0.122E-02    0.535E-02
RMM:   4    -0.229980808592E+04    0.11718E-04   -0.44504E-05  2864   0.360E-03    0.155E-02
RMM:   5    -0.229980808261E+04    0.33029E-05   -0.94150E-06  2838   0.256E-03
 110 F= -.23200594E+04 E0= -.23200593E+04  d E =-.102412E-03  mag=     6.0000
       N       E                     dE             d eps       ncg     rms          rms(c)
DAV:   1    -0.229980798899E+04    0.96932E-04   -0.48701E-03  4680   0.587E-02    0.261E-02
RMM:   2    -0.229980804506E+04   -0.56074E-04   -0.57310E-04  3693   0.124E-02    0.226E-02
RMM:   3    -0.229980805109E+04   -0.60277E-05   -0.55742E-05  2827   0.682E-03
 111 F= -.23200594E+04 E0= -.23200593E+04  d E =-.108987E-03  mag=     6.0000
       N       E                     dE             d eps       ncg     rms          rms(c)
DAV:   1    -0.229980774091E+04    0.30415E-03   -0.25885E-02  4392   0.134E-01    0.604E-02
RMM:   2    -0.229980807578E+04   -0.33487E-03   -0.31563E-03  5506   0.259E-02    0.871E-02
RMM:   3    -0.229980807082E+04    0.49637E-05   -0.31372E-04  2870   0.110E-02    0.461E-02
RMM:   4    -0.229980806292E+04    0.78955E-05   -0.40401E-05  2870   0.336E-03
 112 F= -.23200595E+04 E0= -.23200594E+04  d E =-.978082E-04  mag=     6.0000
       N       E                     dE             d eps       ncg     rms          rms(c)
DAV:   1    -0.229980791696E+04    0.15385E-03   -0.85118E-03  4544   0.766E-02    0.345E-02
RMM:   2    -0.229980802081E+04   -0.10385E-03   -0.10248E-03  4551   0.148E-02    0.413E-02
RMM:   3    -0.229980802424E+04   -0.34260E-05   -0.95747E-05  2835   0.765E-03
 113 F= -.23200595E+04 E0= -.23200594E+04  d E =-.109147E-03  mag=     6.0000
       N       E                     dE             d eps       ncg     rms          rms(c)
DAV:   1    -0.229980769474E+04    0.32608E-03   -0.30312E-02  4392   0.148E-01    0.665E-02
RMM:   2    -0.229980807411E+04   -0.37937E-03   -0.35782E-03  5522   0.281E-02    0.941E-02
RMM:   3    -0.229980806691E+04    0.72024E-05   -0.35023E-04  2868   0.108E-02    0.512E-02
RMM:   4    -0.229980805656E+04    0.10352E-04   -0.47007E-05  2874   0.375E-03    0.166E-02
RMM:   5    -0.229980805290E+04    0.36639E-05   -0.10239E-05  2840   0.282E-03
 114 F= -.23200596E+04 E0= -.23200595E+04  d E =-.976178E-04  mag=     6.0000
       N       E                     dE             d eps       ncg     rms          rms(c)
DAV:   1    -0.229980801064E+04    0.45919E-04   -0.20348E-03  4896   0.385E-02    0.175E-02
RMM:   2    -0.229980803527E+04   -0.24626E-04   -0.24454E-04  3038   0.847E-03    0.198E-02
RMM:   3    -0.229980803695E+04   -0.16803E-05   -0.25823E-05  2792   0.508E-03
 115 F= -.23200596E+04 E0= -.23200595E+04  d E =-.999605E-04  mag=     6.0000
       N       E                     dE             d eps       ncg     rms          rms(c)
DAV:   1    -0.229980773630E+04    0.29896E-03   -0.28593E-02  4392   0.141E-01    0.633E-02
RMM:   2    -0.229980808416E+04   -0.34785E-03   -0.33178E-03  5530   0.266E-02    0.892E-02
RMM:   3    -0.229980807831E+04    0.58504E-05   -0.31184E-04  2888   0.117E-02    0.497E-02
RMM:   4    -0.229980806820E+04    0.10109E-04   -0.41008E-05  2866   0.348E-03    0.149E-02
RMM:   5    -0.229980806495E+04    0.32515E-05   -0.84787E-06  2835   0.253E-03
 116 F= -.23200597E+04 E0= -.23200596E+04  d E =-.100572E-03  mag=     6.0000
       N       E                     dE             d eps       ncg     rms          rms(c)
DAV:   1    -0.229980797931E+04    0.88889E-04   -0.48493E-03  4680   0.580E-02    0.258E-02
[...]
RMM:   2    -0.229979673668E+04   -0.14296E-03   -0.14585E-03  4655   0.162E-02    0.297E-02
RMM:   3    -0.229979675094E+04   -0.14252E-04   -0.13898E-04  2829   0.874E-03    0.340E-02
RMM:   4    -0.229979674657E+04    0.43682E-05   -0.19895E-05  2823   0.249E-03
 361 F= -.23200841E+04 E0= -.23200841E+04  d E =-.414531E-04  mag=     5.9998
       N       E                     dE             d eps       ncg     rms          rms(c)
DAV:   1    -0.229979674154E+04    0.93998E-05   -0.11760E-05  3960   0.355E-03    0.881E-03
RMM:   2    -0.229979674565E+04   -0.41110E-05   -0.80833E-06  2402   0.183E-03
 362 F= -.23200841E+04 E0= -.23200841E+04  d E =-.439325E-04  mag=     5.9998
       N       E                     dE             d eps       ncg     rms          rms(c)
DAV:   1    -0.229979658733E+04    0.15421E-03   -0.78718E-03  4392   0.754E-02    0.339E-02
RMM:   2    -0.229979670936E+04   -0.12203E-03   -0.12717E-03  4437   0.152E-02    0.193E-02
RMM:   3    -0.229979672216E+04   -0.12806E-04   -0.13207E-04  2817   0.853E-03    0.232E-02
RMM:   4    -0.229979672028E+04    0.18801E-05   -0.15883E-05  2765   0.216E-03
 363 F= -.23200842E+04 E0= -.23200842E+04  d E =-.518208E-04  mag=     5.9998
       N       E                     dE             d eps       ncg     rms          rms(c)
DAV:   1    -0.229979668406E+04    0.38102E-04   -0.78003E-04  4848   0.237E-02    0.118E-02
RMM:   2    -0.229979669636E+04   -0.12298E-04   -0.12730E-04  2824   0.532E-03    0.124E-02
RMM:   3    -0.229979669730E+04   -0.94195E-06   -0.13228E-05  2466   0.322E-03
 364 F= -.23200842E+04 E0= -.23200842E+04  d E =-.536670E-04  mag=     5.9998
       N       E                     dE             d eps       ncg     rms          rms(c)
DAV:   1    -0.229979655920E+04    0.13716E-03   -0.71095E-03  4392   0.716E-02    0.324E-02
RMM:   2    -0.229979667213E+04   -0.11293E-03   -0.11592E-03  4371   0.142E-02    0.243E-02
RMM:   3    -0.229979668500E+04   -0.12865E-04   -0.11311E-04  2826   0.810E-03    0.336E-02
RMM:   4    -0.229979667927E+04    0.57254E-05   -0.15722E-05  2805   0.216E-03
 365 F= -.23200842E+04 E0= -.23200842E+04  d E =-.539407E-04  mag=     5.9998
       N       E                     dE             d eps       ncg     rms          rms(c)
DAV:   1    -0.229979661823E+04    0.66765E-04   -0.17547E-03  4760   0.355E-02    0.163E-02
RMM:   2    -0.229979664530E+04   -0.27069E-04   -0.28552E-04  2977   0.762E-03    0.945E-03
RMM:   3    -0.229979664715E+04   -0.18485E-05   -0.26607E-05  2767   0.439E-03
 366 F= -.23200842E+04 E0= -.23200842E+04  d E =-.581086E-04  mag=     5.9998
       N       E                     dE             d eps       ncg     rms          rms(c)
DAV:   1    -0.229979647194E+04    0.17337E-03   -0.73616E-03  4392   0.685E-02    0.317E-02
RMM:   2    -0.229979659780E+04   -0.12586E-03   -0.12932E-03  4249   0.143E-02    0.218E-02
RMM:   3    -0.229979661334E+04   -0.15543E-04   -0.13018E-04  2826   0.850E-03    0.345E-02
RMM:   4    -0.229979660810E+04    0.52444E-05   -0.17449E-05  2777   0.223E-03
 367 F= -.23200843E+04 E0= -.23200843E+04  d E =-.471968E-04  mag=     5.9998
       N       E                     dE             d eps       ncg     rms          rms(c)
DAV:   1    -0.229979655876E+04    0.54580E-04   -0.10412E-03  4736   0.257E-02    0.129E-02
RMM:   2    -0.229979657766E+04   -0.18899E-04   -0.18189E-04  2855   0.581E-03    0.203E-02
RMM:   3    -0.229979657746E+04    0.20367E-06   -0.18334E-05  2519   0.350E-03
 368 F= -.23200843E+04 E0= -.23200843E+04  d E =-.495570E-04  mag=     5.9998
       N       E                     dE             d eps       ncg     rms          rms(c)
DAV:   1    -0.229979642844E+04    0.14922E-03   -0.65400E-03  4376   0.629E-02    0.301E-02
RMM:   2    -0.229979654453E+04   -0.11608E-03   -0.11647E-03  4036   0.131E-02    0.297E-02
RMM:   3    -0.229979655448E+04   -0.99519E-05   -0.10325E-04  2818   0.728E-03    0.298E-02
RMM:   4    -0.229979655086E+04    0.36156E-05   -0.15339E-05  2751   0.210E-03
 369 F= -.23200843E+04 E0= -.23200843E+04  d E =-.531987E-04  mag=     5.9998
       N       E                     dE             d eps       ncg     rms          rms(c)
DAV:   1    -0.229979636914E+04    0.18534E-03   -0.63609E-03  4424   0.620E-02    0.303E-02
RMM:   2    -0.229979648399E+04   -0.11485E-03   -0.11360E-03  3997   0.130E-02    0.383E-02
RMM:   3    -0.229979649034E+04   -0.63547E-05   -0.10684E-04  2828   0.710E-03    0.297E-02
RMM:   4    -0.229979648585E+04    0.44961E-05   -0.14478E-05  2814   0.219E-03
 370 F= -.23200844E+04 E0= -.23200843E+04  d E =-.673179E-04  mag=     5.9998
       N       E                     dE             d eps       ncg     rms          rms(c)
DAV:   1    -0.229979632335E+04    0.16699E-03   -0.63985E-03  4396   0.561E-02    0.275E-02
RMM:   2    -0.229979644419E+04   -0.12084E-03   -0.12227E-03  3682   0.124E-02    0.231E-02
RMM:   3    -0.229979645574E+04   -0.11547E-04   -0.10681E-04  2817   0.668E-03    0.269E-02
RMM:   4    -0.229979645254E+04    0.31912E-05   -0.14972E-05  2691   0.206E-03
 371 F= -.23200844E+04 E0= -.23200844E+04  d E =-.523742E-04  mag=     5.9998
       N       E                     dE             d eps       ncg     rms          rms(c)
DAV:   1    -0.229979602376E+04    0.43198E-03   -0.16306E-02  4392   0.893E-02    0.449E-02
RMM:   2    -0.229979633279E+04   -0.30903E-03   -0.31029E-03  4889   0.188E-02    0.450E-02
RMM:   3    -0.229979635977E+04   -0.26975E-04   -0.27093E-04  2839   0.934E-03    0.467E-02
RMM:   4    -0.229979635013E+04    0.96336E-05   -0.37014E-05  2835   0.269E-03
 372 F= -.23200844E+04 E0= -.23200844E+04  d E =-.862731E-04  mag=     5.9998
       N       E                     dE             d eps       ncg     rms          rms(c)
DAV:   1    -0.229979618642E+04    0.17334E-03   -0.74683E-03  4416   0.615E-02    0.296E-02
RMM:   2    -0.229979632633E+04   -0.13990E-03   -0.13947E-03  3928   0.133E-02    0.294E-02
RMM:   3    -0.229979633878E+04   -0.12450E-04   -0.12878E-04  2816   0.727E-03    0.304E-02
RMM:   4    -0.229979633460E+04    0.41825E-05   -0.17493E-05  2734   0.209E-03
 373 F= -.23200845E+04 E0= -.23200845E+04  d E =-.695553E-04  mag=     5.9998
       N       E                     dE             d eps       ncg     rms          rms(c)
DAV:   1    -0.229979577465E+04    0.56413E-03   -0.23285E-02  4392   0.108E-01    0.541E-02
RMM:   2    -0.229979621060E+04   -0.43595E-03   -0.44035E-03  5311   0.225E-02    0.502E-02
RMM:   3    -0.229979624984E+04   -0.39240E-04   -0.37382E-04  2841   0.104E-02    0.558E-02
RMM:   4    -0.229979623609E+04    0.13758E-04   -0.52515E-05  2848   0.313E-03    0.174E-02
RMM:   5    -0.229979623259E+04    0.34992E-05   -0.80040E-06  2800   0.197E-03
 374 F= -.23200846E+04 E0= -.23200846E+04  d E =-.117280E-03  mag=     5.9998
       N       E                     dE             d eps       ncg     rms          rms(c)
DAV:   1    -0.229979597264E+04    0.26345E-03   -0.11561E-02  4392   0.754E-02    0.386E-02
RMM:   2    -0.229979618724E+04   -0.21460E-03   -0.22022E-03  4471   0.166E-02    0.281E-02
RMM:   3    -0.229979620857E+04   -0.21328E-04   -0.18634E-04  2831   0.851E-03    0.344E-02
RMM:   4    -0.229979620396E+04    0.46088E-05   -0.25343E-05  2796   0.236E-03
 375 F= -.23200846E+04 E0= -.23200846E+04  d E =-.744697E-04  mag=     5.9998
       N       E                     dE             d eps       ncg     rms          rms(c)
DAV:   1    -0.229979593033E+04    0.27824E-03   -0.10162E-02  4416   0.705E-02    0.362E-02
RMM:   2    -0.229979612532E+04   -0.19498E-03   -0.19347E-03  4287   0.152E-02    0.425E-02
RMM:   3    -0.229979613887E+04   -0.13559E-04   -0.17418E-04  2836   0.779E-03    0.364E-02
RMM:   4    -0.229979613258E+04    0.62990E-05   -0.23299E-05  2823   0.236E-03
 376 F= -.23200847E+04 E0= -.23200847E+04  d E =-.995622E-04  mag=     5.9998
       N       E                     dE             d eps       ncg     rms          rms(c)
DAV:   1    -0.229979588461E+04    0.25427E-03   -0.11633E-02  4408   0.822E-02    0.388E-02
RMM:   2    -0.229979608952E+04   -0.20491E-03   -0.20744E-03  4637   0.173E-02    0.337E-02
RMM:   3    -0.229979610883E+04   -0.19308E-04   -0.18160E-04  2834   0.870E-03    0.399E-02
RMM:   4    -0.229979610123E+04    0.75949E-05   -0.25595E-05  2826   0.256E-03
 377 F= -.23200847E+04 E0= -.23200847E+04  d E =-.788787E-04  mag=     5.9998
       N       E                     dE             d eps       ncg     rms          rms(c)
DAV:   1    -0.229979592418E+04    0.18464E-03   -0.59619E-03  4552   0.585E-02    0.288E-02
RMM:   2    -0.229979603001E+04   -0.10582E-03   -0.10671E-03  3842   0.126E-02    0.297E-02
RMM:   3    -0.229979603900E+04   -0.89938E-05   -0.10070E-04  2821   0.701E-03    0.302E-02
RMM:   4    -0.229979603438E+04    0.46194E-05   -0.14100E-05  2807   0.216E-03
 378 F= -.23200848E+04 E0= -.23200847E+04  d E =-.913277E-04  mag=     5.9998
       N       E                     dE             d eps       ncg     rms          rms(c)
DAV:   1    -0.229979573838E+04    0.30062E-03   -0.12666E-02  4392   0.810E-02    0.399E-02
RMM:   2    -0.229979596630E+04   -0.22792E-03   -0.22997E-03  4634   0.172E-02    0.394E-02
RMM:   3    -0.229979598569E+04   -0.19384E-04   -0.19648E-04  2833   0.865E-03    0.415E-02
RMM:   4    -0.229979597798E+04    0.77080E-05   -0.27945E-05  2830   0.255E-03
 379 F= -.23200848E+04 E0= -.23200848E+04  d E =-.562181E-04  mag=     5.9998
       N       E                     dE             d eps       ncg     rms          rms(c)
DAV:   1    -0.229979589783E+04    0.87858E-04   -0.20246E-03  4704   0.323E-02    0.165E-02
RMM:   2    -0.229979593448E+04   -0.36649E-04   -0.36817E-04  2943   0.728E-03    0.188E-02
RMM:   3    -0.229979593714E+04   -0.26596E-05   -0.37143E-05  2751   0.435E-03
 380 F= -.23200848E+04 E0= -.23200848E+04  d E =-.609454E-04  mag=     5.9998
       N       E                     dE             d eps       ncg     rms          rms(c)
DAV:   1    -0.229979562414E+04    0.31034E-03   -0.14806E-02  4392   0.925E-02    0.453E-02
RMM:   2    -0.229979588007E+04   -0.25593E-03   -0.25513E-03  5028   0.191E-02    0.465E-02
RMM:   3    -0.229979590118E+04   -0.21111E-04   -0.23760E-04  2840   0.982E-03    0.438E-02
RMM:   4    -0.229979589397E+04    0.72108E-05   -0.33431E-05  2837   0.272E-03
 381 F= -.23200849E+04 E0= -.23200849E+04  d E =-.767290E-04  mag=     5.9998
       N       E                     dE             d eps       ncg     rms          rms(c)
DAV:   1    -0.229979582390E+04    0.77284E-04   -0.17839E-03  4848   0.321E-02    0.188E-02
RMM:   2    -0.229979586019E+04   -0.36294E-04   -0.31244E-04  2939   0.712E-03    0.398E-02
RMM:   3    -0.229979585538E+04    0.48100E-05   -0.33892E-05  2747   0.415E-03
 382 F= -.23200849E+04 E0= -.23200849E+04  d E =-.805073E-04  mag=     5.9998
       N       E                     dE             d eps       ncg     rms          rms(c)
DAV:   1    -0.229979564578E+04    0.21442E-03   -0.10713E-02  4392   0.831E-02    0.396E-02
RMM:   2    -0.229979582349E+04   -0.17772E-03   -0.17571E-03  4793   0.170E-02    0.451E-02
RMM:   3    -0.229979583474E+04   -0.11253E-04   -0.15966E-04  2832   0.891E-03    0.382E-02
RMM:   4    -0.229979582822E+04    0.65221E-05   -0.23099E-05  2832   0.253E-03
 383 F= -.23200850E+04 E0= -.23200850E+04  d E =-.669472E-04  mag=     5.9998
       N       E                     dE             d eps       ncg     rms          rms(c)
DAV:   1    -0.229979577610E+04    0.58645E-04   -0.12480E-03  4896   0.283E-02    0.150E-02
RMM:   2    -0.229979579776E+04   -0.21659E-04   -0.20780E-04  2897   0.638E-03    0.240E-02
RMM:   3    -0.229979579719E+04    0.56354E-06   -0.22399E-05  2665   0.376E-03
 384 F= -.23200850E+04 E0= -.23200850E+04  d E =-.686995E-04  mag=     5.9998
       N       E                     dE             d eps       ncg     rms          rms(c)
DAV:   1    -0.229979558925E+04    0.20851E-03   -0.10252E-02  4392   0.797E-02    0.383E-02
RMM:   2    -0.229979576096E+04   -0.17171E-03   -0.16913E-03  4633   0.163E-02    0.446E-02
RMM:   3    -0.229979577153E+04   -0.10574E-04   -0.15274E-04  2829   0.868E-03    0.362E-02
RMM:   4    -0.229979576615E+04    0.53847E-05   -0.21963E-05  2829   0.241E-03
 385 F= -.23200850E+04 E0= -.23200850E+04  d E =-.559058E-04  mag=     5.9998
       N       E                     dE             d eps       ncg     rms          rms(c)
DAV:   1    -0.229979571289E+04    0.58637E-04   -0.13803E-03  4776   0.292E-02    0.155E-02
RMM:   2    -0.229979573791E+04   -0.25012E-04   -0.22977E-04  2914   0.651E-03    0.278E-02
RMM:   3    -0.229979573636E+04    0.15405E-05   -0.23471E-05  2653   0.381E-03
 386 F= -.23200850E+04 E0= -.23200850E+04  d E =-.585907E-04  mag=     5.9998
       N       E                     dE             d eps       ncg     rms          rms(c)
DAV:   1    -0.229979554010E+04    0.19780E-03   -0.10626E-02  4392   0.832E-02    0.397E-02
RMM:   2    -0.229979571441E+04   -0.17430E-03   -0.17059E-03  4741   0.168E-02    0.488E-02
RMM:   3    -0.229979572309E+04   -0.86877E-05   -0.15646E-04  2832   0.889E-03    0.369E-02
RMM:   4    -0.229979571719E+04    0.59034E-05   -0.22091E-05  2832   0.248E-03
 387 F= -.23200851E+04 E0= -.23200851E+04  d E =-.620464E-04  mag=     5.9998
       N       E                     dE             d eps       ncg     rms          rms(c)
DAV:   1    -0.229979564036E+04    0.82734E-04   -0.25136E-03  4720   0.403E-02    0.202E-02
RMM:   2    -0.229979568255E+04   -0.42193E-04   -0.40531E-04  3091   0.874E-03    0.307E-02
RMM:   3    -0.229979568230E+04    0.24767E-06   -0.40537E-05  2789   0.496E-03
 388 F= -.23200851E+04 E0= -.23200851E+04  d E =-.672364E-04  mag=     5.9998
       N       E                     dE             d eps       ncg     rms          rms(c)
DAV:   1    -0.229979547145E+04    0.21110E-03   -0.99030E-03  4392   0.744E-02    0.370E-02
RMM:   2    -0.229979564689E+04   -0.17544E-03   -0.16961E-03  4474   0.159E-02    0.494E-02
RMM:   3    -0.229979565446E+04   -0.75728E-05   -0.16141E-04  2832   0.858E-03    0.318E-02
RMM:   4    -0.229979565114E+04    0.33262E-05   -0.21894E-05  2820   0.238E-03
 389 F= -.23200851E+04 E0= -.23200851E+04  d E =-.533608E-04  mag=     5.9998
       N       E                     dE             d eps       ncg     rms          rms(c)
DAV:   1    -0.229979558973E+04    0.64728E-04   -0.16842E-03  4712   0.306E-02    0.161E-02
RMM:   2    -0.229979562056E+04   -0.30823E-04   -0.28936E-04  2934   0.690E-03    0.269E-02
RMM:   3    -0.229979561982E+04    0.73420E-06   -0.28138E-05  2699   0.399E-03
 390 F= -.23200851E+04 E0= -.23200851E+04  d E =-.574148E-04  mag=     5.9998
       N       E                     dE             d eps       ncg     rms          rms(c)
DAV:   1    -0.229979543054E+04    0.19002E-03   -0.96892E-03  4392   0.773E-02    0.377E-02
RMM:   2    -0.229979559337E+04   -0.16284E-03   -0.15790E-03  4564   0.159E-02    0.483E-02
RMM:   3    -0.229979560040E+04   -0.70217E-05   -0.14672E-04  2831   0.857E-03    0.336E-02
RMM:   4    -0.229979559600E+04    0.43972E-05   -0.20583E-05  2822   0.237E-03
 391 F= -.23200852E+04 E0= -.23200852E+04  d E =-.639977E-04  mag=     5.9998
       N       E                     dE             d eps       ncg     rms          rms(c)
DAV:   1    -0.229979549888E+04    0.10152E-03   -0.33320E-03  4544   0.453E-02    0.228E-02
RMM:   2    -0.229979555615E+04   -0.57267E-04   -0.54535E-04  3270   0.982E-03    0.348E-02
RMM:   3    -0.229979555585E+04    0.30018E-06   -0.51788E-05  2814   0.542E-03
 392 F= -.23200852E+04 E0= -.23200852E+04  d E =-.759159E-04  mag=     5.9998
       N       E                     dE             d eps       ncg     rms          rms(c)
DAV:   1    -0.229979543918E+04    0.11696E-03   -0.61818E-03  4376   0.623E-02    0.301E-02
RMM:   2    -0.229979554234E+04   -0.10316E-03   -0.99294E-04  4115   0.135E-02    0.394E-02
RMM:   3    -0.229979554673E+04   -0.43847E-05   -0.10156E-04  2826   0.749E-03    0.254E-02
RMM:   4    -0.229979554449E+04    0.22340E-05   -0.13756E-05  2786   0.215E-03
 393 F= -.23200853E+04 E0= -.23200853E+04  d E =-.571418E-04  mag=     5.9998
       N       E                     dE             d eps       ncg     rms          rms(c)
DAV:   1    -0.229979537973E+04    0.16700E-03   -0.64759E-03  4432   0.635E-02    0.313E-02
RMM:   2    -0.229979548811E+04   -0.10838E-03   -0.10431E-03  4124   0.136E-02    0.454E-02
RMM:   3    -0.229979548899E+04   -0.88575E-06   -0.95461E-05  2831   0.740E-03
 394 F= -.23200853E+04 E0= -.23200853E+04  d E =-.721454E-04  mag=     5.9998
       N       E                     dE             d eps       ncg     rms          rms(c)
DAV:   1    -0.229979537406E+04    0.11405E-03   -0.46217E-03  4448   0.481E-02    0.257E-02
RMM:   2    -0.229979545803E+04   -0.83973E-04   -0.79895E-04  3339   0.108E-02    0.358E-02
RMM:   3    -0.229979546152E+04   -0.34876E-05   -0.88063E-05  2814   0.572E-03
 395 F= -.23200853E+04 E0= -.23200853E+04  d E =-.369209E-04  mag=     5.9998
       N       E                     dE             d eps       ncg     rms          rms(c)
DAV:   1    -0.229979514782E+04    0.31021E-03   -0.12516E-02  4392   0.791E-02    0.420E-02
RMM:   2    -0.229979537832E+04   -0.23051E-03   -0.21758E-03  4542   0.173E-02    0.649E-02
RMM:   3    -0.229979538123E+04   -0.29099E-05   -0.21004E-04  2836   0.867E-03    0.322E-02
RMM:   4    -0.229979537851E+04    0.27231E-05   -0.29177E-05  2844   0.259E-03
 396 F= -.23200854E+04 E0= -.23200853E+04  d E =-.599195E-04  mag=     5.9998
       N       E                     dE             d eps       ncg     rms          rms(c)
DAV:   1    -0.229979526951E+04    0.11173E-03   -0.65295E-03  4384   0.617E-02    0.287E-02
RMM:   2    -0.229979537545E+04   -0.10595E-03   -0.10532E-03  3974   0.132E-02    0.296E-02
RMM:   3    -0.229979538403E+04   -0.85778E-05   -0.96758E-05  2822   0.711E-03
 397 F= -.23200854E+04 E0= -.23200854E+04  d E =-.727301E-04  mag=     5.9998
       N       E                     dE             d eps       ncg     rms          rms(c)
DAV:   1    -0.229979514775E+04    0.22770E-03   -0.10498E-02  4392   0.777E-02    0.388E-02
RMM:   2    -0.229979532128E+04   -0.17353E-03   -0.17096E-03  4557   0.167E-02    0.439E-02
RMM:   3    -0.229979533413E+04   -0.12849E-04   -0.18239E-04  2833   0.796E-03    0.355E-02
RMM:   4    -0.229979532962E+04    0.45072E-05   -0.23817E-05  2837   0.257E-03
 398 F= -.23200855E+04 E0= -.23200855E+04  d E =-.103047E-03  mag=     5.9998
       N       E                     dE             d eps       ncg     rms          rms(c)
DAV:   1    -0.229979523790E+04    0.96227E-04   -0.50735E-03  4464   0.588E-02    0.284E-02
RMM:   2    -0.229979532319E+04   -0.85294E-04   -0.77524E-04  3916   0.125E-02    0.506E-02
RMM:   3    -0.229979531774E+04    0.54564E-05   -0.71581E-05  2824   0.680E-03
 399 F= -.23200855E+04 E0= -.23200855E+04  d E =-.524633E-04  mag=     5.9998
       N       E                     dE             d eps       ncg     rms          rms(c)
DAV:   1    -0.229979524981E+04    0.73380E-04   -0.22511E-03  4608   0.388E-02    0.202E-02
RMM:   2    -0.229979528412E+04   -0.34304E-04   -0.34115E-04  3069   0.856E-03    0.221E-02
RMM:   3    -0.229979528662E+04   -0.24984E-05   -0.39157E-05  2796   0.468E-03
 400 F= -.23200855E+04 E0= -.23200855E+04  d E =-.640989E-04  mag=     5.9998
       N       E                     dE             d eps       ncg     rms          rms(c)
DAV:   1    -0.229979520655E+04    0.77567E-04   -0.45076E-03  4392   0.577E-02    0.268E-02
RMM:   2    -0.229979527136E+04   -0.64811E-04   -0.64707E-04  3828   0.125E-02    0.270E-02
RMM:   3    -0.229979527728E+04   -0.59156E-05   -0.70714E-05  2822   0.726E-03
 401 F= -.23200856E+04 E0= -.23200856E+04  d E =-.445009E-04  mag=     5.9998
