       N       E                     dE             d eps       ncg     rms          rms(c)
DAV:   1     0.126633249009E+05    0.12663E+05   -0.82974E+05  4456   0.144E+03
DAV:   2    -0.107375465207E+04   -0.13737E+05   -0.13160E+05  5240   0.329E+02
DAV:   3    -0.246631463092E+04   -0.13926E+04   -0.13797E+04  5328   0.110E+02
DAV:   4    -0.251018307414E+04   -0.43868E+02   -0.43640E+02  6640   0.290E+01
DAV:   5    -0.251098871120E+04   -0.80564E+00   -0.80418E+00  5520   0.317E+00    0.170E+02
RMM:   6    -0.147711855032E+04    0.10339E+04   -0.19322E+03  4389   0.386E+01    0.731E+01
RMM:   7    -0.166006463369E+04   -0.18295E+03   -0.27793E+02  4983   0.137E+01    0.587E+01
RMM:   8    -0.168927294779E+04   -0.29208E+02   -0.84412E+01  5061   0.826E+00    0.439E+01
RMM:   9    -0.176302413017E+04   -0.73751E+02   -0.61695E+01  4759   0.763E+00    0.342E+01
RMM:  10    -0.189402906872E+04   -0.13100E+03   -0.58751E+01  5012   0.717E+00    0.209E+01
RMM:  11    -0.201535447298E+04   -0.12133E+03   -0.55572E+01  4835   0.620E+00    0.181E+01
RMM:  12    -0.208216367033E+04   -0.66809E+02   -0.27991E+01  4687   0.403E+00    0.139E+01
RMM:  13    -0.220569318275E+04   -0.12353E+03   -0.91337E+01  4401   0.696E+00    0.111E+01
RMM:  14    -0.226777684047E+04   -0.62084E+02   -0.53562E+01  4686   0.542E+00    0.572E+00
RMM:  15    -0.229518324863E+04   -0.27406E+02   -0.27513E+01  4718   0.400E+00    0.339E+00
RMM:  16    -0.230009826740E+04   -0.49150E+01   -0.56538E+00  4928   0.187E+00    0.545E+00
RMM:  17    -0.230051060908E+04   -0.41234E+00   -0.81368E-01  5597   0.553E-01    0.522E+00
RMM:  18    -0.230143961740E+04   -0.92901E+00   -0.41087E-01  4462   0.363E-01    0.464E+00
RMM:  19    -0.230152719815E+04   -0.87581E-01   -0.54743E-02  4861   0.170E-01    0.452E+00
RMM:  20    -0.230226288540E+04   -0.73569E+00   -0.21205E-01  4377   0.226E-01    0.420E+00
RMM:  21    -0.230407825641E+04   -0.18154E+01   -0.11541E+00  4374   0.558E-01    0.305E+00
RMM:  22    -0.230467784857E+04   -0.59959E+00   -0.35109E-01  4629   0.349E-01    0.228E+00
RMM:  23    -0.230473628032E+04   -0.58432E-01   -0.74940E-02  5030   0.153E-01    0.171E+00
RMM:  24    -0.230483101410E+04   -0.94734E-01   -0.55727E-02  4490   0.125E-01    0.826E-01
RMM:  25    -0.230489463926E+04   -0.63625E-01   -0.39442E-02  4408   0.121E-01    0.533E-01
RMM:  26    -0.230491616010E+04   -0.21521E-01   -0.11340E-02  4734   0.723E-02    0.515E-01
RMM:  27    -0.230491999556E+04   -0.38355E-02   -0.22082E-03  4804   0.269E-02    0.530E-01
RMM:  28    -0.230490567682E+04    0.14319E-01   -0.51851E-03  4376   0.419E-02    0.435E-01
RMM:  29    -0.230489988633E+04    0.57905E-02   -0.94408E-03  4383   0.529E-02    0.381E-01
RMM:  30    -0.230491138121E+04   -0.11495E-01   -0.96847E-03  4378   0.551E-02    0.355E-01
RMM:  31    -0.230492249056E+04   -0.11109E-01   -0.95237E-03  4397   0.546E-02    0.433E-01
RMM:  32    -0.230492775148E+04   -0.52609E-02   -0.32135E-03  4240   0.326E-02    0.452E-01
RMM:  33    -0.230493295015E+04   -0.51987E-02   -0.37761E-03  3974   0.252E-02    0.513E-01
RMM:  34    -0.230493506824E+04   -0.21181E-02   -0.13775E-02  4378   0.501E-02    0.423E-01
RMM:  35    -0.230494117385E+04   -0.61056E-02   -0.32262E-02  4342   0.715E-02    0.760E-01
RMM:  36    -0.230494283988E+04   -0.16660E-02   -0.64395E-03  3968   0.381E-02    0.556E-01
RMM:  37    -0.230494279947E+04    0.40413E-04   -0.34966E-03  4077   0.299E-02    0.851E-01
RMM:  38    -0.230493497274E+04    0.78267E-02   -0.47827E-02  4287   0.849E-02    0.119E+00
RMM:  39    -0.230495666725E+04   -0.21695E-01   -0.12982E-02  4253   0.507E-02    0.577E-01
RMM:  40    -0.230496790368E+04   -0.11236E-01   -0.72057E-03  4233   0.422E-02    0.403E-01
RMM:  41    -0.230497746935E+04   -0.95657E-02   -0.82411E-03  4218   0.401E-02    0.279E-01
RMM:  42    -0.230498140762E+04   -0.39383E-02   -0.24873E-02  4337   0.643E-02    0.767E-01
RMM:  43    -0.230498801025E+04   -0.66026E-02   -0.62250E-03  4202   0.345E-02    0.358E-01
RMM:  44    -0.230499260656E+04   -0.45963E-02   -0.65205E-03  4090   0.324E-02    0.554E-01
RMM:  45    -0.230499729549E+04   -0.46889E-02   -0.24244E-03  3783   0.201E-02    0.472E-01
RMM:  46    -0.230499971184E+04   -0.24164E-02   -0.14930E-03  3656   0.149E-02    0.501E-01
RMM:  47    -0.230499997461E+04   -0.26276E-03   -0.19597E-04  2900   0.698E-03    0.498E-01
RMM:  48    -0.230499957323E+04    0.40138E-03   -0.17768E-04  2885   0.535E-03    0.538E-01
RMM:  49    -0.230499739838E+04    0.21748E-02   -0.29478E-04  2999   0.704E-03    0.556E-01
RMM:  50    -0.230499314239E+04    0.42560E-02   -0.32208E-03  3773   0.215E-02    0.477E-01
RMM:  51    -0.230498946181E+04    0.36806E-02   -0.20458E-03  3566   0.187E-02    0.469E-01
RMM:  52    -0.230498929155E+04    0.17026E-03   -0.30458E-04  2897   0.762E-03    0.469E-01
RMM:  53    -0.230498928385E+04    0.76984E-05   -0.55945E-05  2648   0.295E-03
   1 F= -.23253936E+04 E0= -.23253936E+04  d E =-.232539E+04  mag=     3.9937
       N       E                     dE             d eps       ncg     rms          rms(c)
DAV:   1    -0.230520264339E+04   -0.21335E+00   -0.18431E+02  4632   0.605E+00    0.416E+00
RMM:   2    -0.230631692322E+04   -0.11143E+01   -0.13308E+01  6277   0.122E+00    0.390E+00
RMM:   3    -0.230634634477E+04   -0.29422E-01   -0.10978E+00  5554   0.429E-01    0.412E+00
RMM:   4    -0.230628051795E+04    0.65827E-01   -0.20315E-01  5559   0.170E-01    0.228E+00
RMM:   5    -0.230628441526E+04   -0.38973E-02   -0.13362E-01  4916   0.130E-01    0.147E+00
RMM:   6    -0.230629730255E+04   -0.12887E-01   -0.45730E-02  4936   0.981E-02    0.942E-01
RMM:   7    -0.230630442188E+04   -0.71193E-02   -0.18915E-02  4632   0.600E-02    0.506E-01
RMM:   8    -0.230630749684E+04   -0.30750E-02   -0.63088E-03  4380   0.379E-02    0.273E-01
RMM:   9    -0.230630867181E+04   -0.11750E-02   -0.29238E-03  4306   0.243E-02    0.124E-01
RMM:  10    -0.230630898317E+04   -0.31136E-03   -0.59574E-04  3903   0.134E-02    0.794E-02
RMM:  11    -0.230630917725E+04   -0.19408E-03   -0.25334E-04  3471   0.763E-03    0.419E-02
RMM:  12    -0.230630927595E+04   -0.98697E-04   -0.89796E-05  3000   0.645E-03    0.186E-02
RMM:  13    -0.230630932144E+04   -0.45491E-04   -0.53901E-05  2937   0.469E-03    0.694E-03
RMM:  14    -0.230630933367E+04   -0.12232E-04   -0.11752E-05  2830   0.336E-03    0.412E-03
RMM:  15    -0.230630934035E+04   -0.66721E-05   -0.37433E-06  2538   0.179E-03
   2 F= -.23267107E+04 E0= -.23267107E+04  d E =-.131709E+01  mag=     3.9998
       N       E                     dE             d eps       ncg     rms          rms(c)
DAV:   1    -0.230637535885E+04   -0.66025E-01   -0.10985E+01  4592   0.147E+00    0.105E+00
RMM:   2    -0.230644481801E+04   -0.69459E-01   -0.63432E-01  6345   0.291E-01    0.201E+00
RMM:   3    -0.230641964682E+04    0.25171E-01   -0.67463E-02  5588   0.106E-01    0.820E-01
RMM:   4    -0.230641385217E+04    0.57947E-02   -0.10890E-02  4838   0.405E-02    0.338E-01
RMM:   5    -0.230641251046E+04    0.13417E-02   -0.75028E-03  4897   0.343E-02    0.165E-01
RMM:   6    -0.230641222373E+04    0.28673E-03   -0.18726E-03  4271   0.210E-02    0.561E-02
RMM:   7    -0.230641216386E+04    0.59868E-04   -0.29214E-04  3555   0.906E-03    0.347E-02
RMM:   8    -0.230641215972E+04    0.41461E-05   -0.56020E-05  2947   0.511E-03
   3 F= -.23268124E+04 E0= -.23268124E+04  d E =-.141884E+01  mag=     4.0000
       N       E                     dE             d eps       ncg     rms          rms(c)
DAV:   1    -0.230637235676E+04    0.39807E-01   -0.28303E+01  4640   0.275E+00    0.225E+00
RMM:   2    -0.230730460488E+04   -0.93225E+00   -0.73183E+00  6497   0.871E-01    0.539E+00
RMM:   3    -0.230699076076E+04    0.31384E+00   -0.63464E-01  5752   0.298E-01    0.117E+00
RMM:   4    -0.230698393379E+04    0.68270E-02   -0.10807E-01  5368   0.908E-02    0.650E-01
RMM:   5    -0.230698202272E+04    0.19111E-02   -0.91340E-03  4613   0.411E-02    0.578E-01
RMM:   6    -0.230697893763E+04    0.30851E-02   -0.13610E-02  5218   0.414E-02    0.141E-01
RMM:   7    -0.230697907718E+04   -0.13955E-03   -0.11709E-03  3831   0.182E-02    0.103E-01
RMM:   8    -0.230697906453E+04    0.12650E-04   -0.20436E-04  3249   0.747E-03    0.281E-02
RMM:   9    -0.230697911242E+04   -0.47891E-04   -0.10039E-04  2988   0.529E-03    0.168E-02
RMM:  10    -0.230697913752E+04   -0.25101E-04   -0.13605E-05  2846   0.337E-03    0.590E-03
RMM:  11    -0.230697915276E+04   -0.15238E-04   -0.48223E-06  2708   0.228E-03    0.456E-03
RMM:  12    -0.230697916723E+04   -0.14470E-04   -0.32774E-06  2589   0.199E-03    0.260E-03
RMM:  13    -0.230697917680E+04   -0.95734E-05   -0.27069E-06  2599   0.179E-03
   4 F= -.23273783E+04 E0= -.23273783E+04  d E =-.565845E+00  mag=     4.0000
       N       E                     dE             d eps       ncg     rms          rms(c)
DAV:   1    -0.230665214325E+04    0.32702E+00   -0.18418E+01  4776   0.224E+00    0.170E+00
RMM:   2    -0.230720545453E+04   -0.55331E+00   -0.46631E+00  6500   0.712E-01    0.364E+00
RMM:   3    -0.230706438083E+04    0.14107E+00   -0.42313E-01  5760   0.247E-01    0.840E-01
RMM:   4    -0.230706169982E+04    0.26810E-02   -0.66022E-02  5291   0.674E-02    0.486E-01
RMM:   5    -0.230706027125E+04    0.14286E-02   -0.52785E-03  4526   0.284E-02    0.430E-01
RMM:   6    -0.230705835073E+04    0.19205E-02   -0.81586E-03  5216   0.324E-02    0.119E-01
RMM:   7    -0.230705840135E+04   -0.50614E-04   -0.76722E-04  3550   0.143E-02    0.582E-02
RMM:   8    -0.230705842005E+04   -0.18709E-04   -0.12432E-04  3020   0.610E-03    0.202E-02
RMM:   9    -0.230705844781E+04   -0.27755E-04   -0.50054E-05  2909   0.405E-03    0.816E-03
RMM:  10    -0.230705846651E+04   -0.18701E-04   -0.84494E-06  2781   0.273E-03    0.434E-03
RMM:  11    -0.230705847564E+04   -0.91276E-05   -0.29212E-06  2571   0.190E-03
   5 F= -.23274568E+04 E0= -.23274568E+04  d E =-.644422E+00  mag=     4.0000
       N       E                     dE             d eps       ncg     rms          rms(c)
DAV:   1    -0.230692876952E+04    0.12970E+00   -0.32664E+01  4440   0.314E+00    0.212E+00
RMM:   2    -0.230768789041E+04   -0.75912E+00   -0.66576E+00  6514   0.886E-01    0.396E+00
RMM:   3    -0.230750467744E+04    0.18321E+00   -0.54442E-01  5542   0.279E-01    0.896E-01
RMM:   4    -0.230750353464E+04    0.11428E-02   -0.87378E-02  5336   0.763E-02    0.494E-01
RMM:   5    -0.230750245909E+04    0.10756E-02   -0.57476E-03  4297   0.276E-02    0.385E-01
RMM:   6    -0.230750147800E+04    0.98109E-03   -0.74012E-03  4834   0.325E-02    0.122E-01
RMM:   7    -0.230750148866E+04   -0.10654E-04   -0.65526E-04  3422   0.146E-02    0.387E-02
RMM:   8    -0.230750153781E+04   -0.49154E-04   -0.85713E-05  3029   0.555E-03    0.210E-02
RMM:   9    -0.230750157788E+04   -0.40068E-04   -0.43091E-05  2962   0.426E-03    0.869E-03
RMM:  10    -0.230750159530E+04   -0.17418E-04   -0.95690E-06  2803   0.309E-03    0.554E-03
RMM:  11    -0.230750161182E+04   -0.16524E-04   -0.47681E-06  2621   0.208E-03    0.322E-03
RMM:  12    -0.230750162210E+04   -0.10277E-04   -0.29629E-06  2587   0.199E-03    0.219E-03
RMM:  13    -0.230750162671E+04   -0.46103E-05   -0.20184E-06  2491   0.158E-03
   6 F= -.23278965E+04 E0= -.23278965E+04  d E =-.439670E+00  mag=     4.0000
       N       E                     dE             d eps       ncg     rms          rms(c)
DAV:   1    -0.230598808975E+04    0.15135E+01   -0.10249E+02  4384   0.568E+00    0.377E+00
RMM:   2    -0.230842614375E+04   -0.24381E+01   -0.22012E+01  6529   0.172E+00    0.647E+00
RMM:   3    -0.230784167823E+04    0.58447E+00   -0.18197E+00  5302   0.540E-01    0.153E+00
RMM:   4    -0.230783579522E+04    0.58830E-02   -0.24216E-01  5597   0.132E-01    0.871E-01
RMM:   5    -0.230783351388E+04    0.22813E-02   -0.20140E-02  4549   0.515E-02    0.662E-01
RMM:   6    -0.230783088781E+04    0.26261E-02   -0.22639E-02  5188   0.564E-02    0.202E-01
RMM:   7    -0.230783110287E+04   -0.21506E-03   -0.16354E-03  3949   0.270E-02    0.755E-02
RMM:   8    -0.230783125023E+04   -0.14736E-03   -0.28067E-04  3568   0.895E-03    0.325E-02
RMM:   9    -0.230783136370E+04   -0.11347E-03   -0.13496E-04  3270   0.644E-03    0.129E-02
RMM:  10    -0.230783141108E+04   -0.47379E-04   -0.23237E-05  2894   0.443E-03    0.855E-03
RMM:  11    -0.230783145424E+04   -0.43158E-04   -0.13017E-05  2845   0.322E-03    0.527E-03
RMM:  12    -0.230783148196E+04   -0.27726E-04   -0.84425E-06  2781   0.303E-03    0.346E-03
RMM:  13    -0.230783149355E+04   -0.11587E-04   -0.51419E-06  2616   0.254E-03    0.196E-03
RMM:  14    -0.230783149830E+04   -0.47440E-05   -0.28400E-06  2555   0.209E-03
   7 F= -.23282201E+04 E0= -.23282201E+04  d E =-.763293E+00  mag=     4.0000
       N       E                     dE             d eps       ncg     rms          rms(c)
DAV:   1    -0.230787868804E+04   -0.47194E-01   -0.10798E+01  4536   0.176E+00    0.937E-01
RMM:   2    -0.230803836941E+04   -0.15968E+00   -0.16853E+00  6447   0.442E-01    0.930E-01
RMM:   3    -0.230804628969E+04   -0.79203E-02   -0.16531E-01  5586   0.157E-01    0.736E-01
RMM:   4    -0.230804281391E+04    0.34758E-02   -0.18207E-02  5026   0.424E-02    0.433E-01
RMM:   5    -0.230804035716E+04    0.24568E-02   -0.72844E-03  5252   0.313E-02    0.221E-01
RMM:   6    -0.230803997960E+04    0.37755E-03   -0.21931E-03  4394   0.202E-02    0.627E-02
RMM:   7    -0.230803995212E+04    0.27485E-04   -0.21347E-04  3253   0.972E-03    0.308E-02
RMM:   8    -0.230803993575E+04    0.16362E-04   -0.69356E-05  2909   0.566E-03    0.290E-02
RMM:   9    -0.230803992674E+04    0.90194E-05   -0.44656E-05  2866   0.380E-03
   8 F= -.23284282E+04 E0= -.23284282E+04  d E =-.208036E+00  mag=     4.0000
       N       E                     dE             d eps       ncg     rms          rms(c)
DAV:   1    -0.230803873302E+04    0.12027E-02   -0.80864E-01  4936   0.468E-01    0.263E-01
RMM:   2    -0.230805005842E+04   -0.11325E-01   -0.11990E-01  6403   0.114E-01    0.258E-01
RMM:   3    -0.230805066646E+04   -0.60805E-03   -0.12245E-02  4373   0.446E-02    0.207E-01
RMM:   4    -0.230805039892E+04    0.26755E-03   -0.13869E-03  3369   0.122E-02    0.115E-01
RMM:   5    -0.230805021304E+04    0.18588E-03   -0.57400E-04  3735   0.982E-03    0.545E-02
RMM:   6    -0.230805019585E+04    0.17192E-04   -0.11808E-04  2958   0.632E-03    0.186E-02
RMM:   7    -0.230805019276E+04    0.30940E-05   -0.16399E-05  2794   0.354E-03
   9 F= -.23284384E+04 E0= -.23284384E+04  d E =-.218285E+00  mag=     4.0000
       N       E                     dE             d eps       ncg     rms          rms(c)
DAV:   1    -0.230809203064E+04   -0.41835E-01   -0.22485E+00  4448   0.844E-01    0.467E-01
RMM:   2    -0.230810929878E+04   -0.17268E-01   -0.19196E-01  6404   0.178E-01    0.521E-01
RMM:   3    -0.230810841329E+04    0.88549E-03   -0.16942E-02  5498   0.562E-02    0.379E-01
RMM:   4    -0.230810737052E+04    0.10428E-02   -0.22368E-03  4110   0.178E-02    0.123E-01
RMM:   5    -0.230810727653E+04    0.93996E-04   -0.92908E-04  3956   0.125E-02    0.608E-02
RMM:   6    -0.230810726955E+04    0.69772E-05   -0.12828E-04  3061   0.787E-03    0.234E-02
RMM:   7    -0.230810726582E+04    0.37295E-05   -0.30176E-05  2888   0.390E-03
  10 F= -.23284952E+04 E0= -.23284952E+04  d E =-.568203E-01  mag=     4.0000
       N       E                     dE             d eps       ncg     rms          rms(c)
DAV:   1    -0.230810070231E+04    0.65672E-02   -0.71561E+00  4408   0.151E+00    0.832E-01
RMM:   2    -0.230815621319E+04   -0.55511E-01   -0.61476E-01  6389   0.307E-01    0.933E-01
RMM:   3    -0.230815320864E+04    0.30045E-02   -0.54587E-02  5879   0.983E-02    0.675E-01
RMM:   4    -0.230814995529E+04    0.32534E-02   -0.70825E-03  4912   0.311E-02    0.223E-01
RMM:   5    -0.230814966431E+04    0.29098E-03   -0.30989E-03  4726   0.218E-02    0.115E-01
RMM:   6    -0.230814963679E+04    0.27525E-04   -0.42177E-04  3520   0.126E-02    0.410E-02
RMM:   7    -0.230814962414E+04    0.12647E-04   -0.97470E-05  3056   0.573E-03    0.157E-02
RMM:   8    -0.230814962369E+04    0.45096E-06   -0.15301E-05  2848   0.372E-03
  11 F= -.23285373E+04 E0= -.23285373E+04  d E =-.988491E-01  mag=     4.0000
       N       E                     dE             d eps       ncg     rms          rms(c)
DAV:   1    -0.230816785266E+04   -0.18229E-01   -0.19193E+00  4536   0.785E-01    0.468E-01
RMM:   2    -0.230819551402E+04   -0.27661E-01   -0.23688E-01  6152   0.174E-01    0.935E-01
RMM:   3    -0.230818719910E+04    0.83149E-02   -0.17665E-02  5012   0.652E-02    0.214E-01
RMM:   4    -0.230818701719E+04    0.18192E-03   -0.35400E-03  3932   0.182E-02    0.122E-01
RMM:   5    -0.230818687482E+04    0.14237E-03   -0.50482E-04  3538   0.106E-02    0.799E-02
RMM:   6    -0.230818684502E+04    0.29794E-04   -0.24529E-04  3241   0.843E-03    0.174E-02
RMM:   7    -0.230818686326E+04   -0.18239E-04   -0.35747E-05  2902   0.481E-03    0.896E-03
RMM:   8    -0.230818687506E+04   -0.11797E-04   -0.65168E-06  2719   0.263E-03    0.538E-03
RMM:   9    -0.230818688865E+04   -0.13591E-04   -0.51247E-06  2654   0.209E-03    0.263E-03
RMM:  10    -0.230818689254E+04   -0.38915E-05   -0.15651E-06  2495   0.160E-03
  12 F= -.23285740E+04 E0= -.23285740E+04  d E =-.367227E-01  mag=     4.0000
       N       E                     dE             d eps       ncg     rms          rms(c)
DAV:   1    -0.230817449990E+04    0.12389E-01   -0.28482E+00  4448   0.974E-01    0.565E-01
RMM:   2    -0.230821503368E+04   -0.40534E-01   -0.35730E-01  6161   0.223E-01    0.107E+00
RMM:   3    -0.230820396162E+04    0.11072E-01   -0.26221E-02  5166   0.768E-02    0.265E-01
RMM:   4    -0.230820369420E+04    0.26742E-03   -0.52604E-03  4225   0.221E-02    0.149E-01
RMM:   5    -0.230820347994E+04    0.21427E-03   -0.75312E-04  3787   0.127E-02    0.103E-01
RMM:   6    -0.230820342238E+04    0.57557E-04   -0.38970E-04  3481   0.101E-02    0.230E-02
RMM:   7    -0.230820346350E+04   -0.41123E-04   -0.56959E-05  2960   0.549E-03    0.115E-02
RMM:   8    -0.230820349259E+04   -0.29092E-04   -0.10879E-05  2783   0.305E-03    0.661E-03
RMM:   9    -0.230820352075E+04   -0.28160E-04   -0.85782E-06  2751   0.245E-03    0.317E-03
RMM:  10    -0.230820352939E+04   -0.86396E-05   -0.27288E-06  2566   0.194E-03
  13 F= -.23285899E+04 E0= -.23285899E+04  d E =-.526736E-01  mag=     4.0000
       N       E                     dE             d eps       ncg     rms          rms(c)
DAV:   1    -0.230820579821E+04   -0.22775E-02   -0.11328E-01  4704   0.241E-01    0.112E-01
RMM:   2    -0.230820730534E+04   -0.15071E-02   -0.16472E-02  6214   0.536E-02    0.781E-02
RMM:   3    -0.230820747048E+04   -0.16515E-03   -0.18529E-03  3350   0.210E-02    0.872E-02
RMM:   4    -0.230820742683E+04    0.43658E-04   -0.19893E-04  2926   0.605E-03    0.354E-02
RMM:   5    -0.230820741183E+04    0.15001E-04   -0.55741E-05  2997   0.442E-03    0.180E-02
RMM:   6    -0.230820741103E+04    0.79360E-06   -0.15528E-05  2832   0.371E-03
  14 F= -.23285939E+04 E0= -.23285939E+04  d E =-.395450E-02  mag=     4.0000
       N       E                     dE             d eps       ncg     rms          rms(c)
DAV:   1    -0.230820017917E+04    0.72327E-02   -0.78489E-01  4432   0.635E-01    0.296E-01
RMM:   2    -0.230821067258E+04   -0.10493E-01   -0.11561E-01  6168   0.138E-01    0.198E-01
RMM:   3    -0.230821174690E+04   -0.10743E-02   -0.12288E-02  4834   0.577E-02    0.222E-01
RMM:   4    -0.230821146493E+04    0.28197E-03   -0.13609E-03  3523   0.135E-02    0.951E-02
RMM:   5    -0.230821135113E+04    0.11380E-03   -0.39385E-04  4073   0.106E-02    0.467E-02
RMM:   6    -0.230821133804E+04    0.13088E-04   -0.10262E-04  3105   0.826E-03    0.146E-02
RMM:   7    -0.230821133578E+04    0.22584E-05   -0.17937E-05  2870   0.441E-03
  15 F= -.23285980E+04 E0= -.23285980E+04  d E =-.810176E-02  mag=     4.0000
       N       E                     dE             d eps       ncg     rms          rms(c)
DAV:   1    -0.230821154296E+04   -0.20492E-03   -0.25255E-01  4480   0.426E-01    0.177E-01
RMM:   2    -0.230821430778E+04   -0.27648E-02   -0.30521E-02  6109   0.851E-02    0.787E-02
RMM:   3    -0.230821454849E+04   -0.24072E-03   -0.34118E-03  4401   0.339E-02    0.580E-02
RMM:   4    -0.230821457466E+04   -0.26169E-04   -0.37487E-04  3044   0.829E-03    0.616E-02
RMM:   5    -0.230821454407E+04    0.30590E-04   -0.86556E-05  2994   0.612E-03    0.341E-02
RMM:   6    -0.230821453340E+04    0.10670E-04   -0.33933E-05  2903   0.524E-03    0.764E-03
RMM:   7    -0.230821453359E+04   -0.19246E-06   -0.85821E-06  2841   0.393E-03
  16 F= -.23286012E+04 E0= -.23286012E+04  d E =-.318625E-02  mag=     4.0000
       N       E                     dE             d eps       ncg     rms          rms(c)
DAV:   1    -0.230821263648E+04    0.18969E-02   -0.24264E-01  4464   0.419E-01    0.172E-01
RMM:   2    -0.230821530090E+04   -0.26644E-02   -0.29286E-02  6073   0.836E-02    0.775E-02
RMM:   3    -0.230821552849E+04   -0.22760E-03   -0.32608E-03  4359   0.330E-02    0.582E-02
RMM:   4    -0.230821555253E+04   -0.24033E-04   -0.36133E-04  3025   0.810E-03    0.618E-02
RMM:   5    -0.230821551917E+04    0.33354E-04   -0.85728E-05  3007   0.610E-03    0.323E-02
RMM:   6    -0.230821550781E+04    0.11358E-04   -0.33397E-05  2896   0.525E-03    0.760E-03
RMM:   7    -0.230821550760E+04    0.21362E-06   -0.88618E-06  2841   0.402E-03
  17 F= -.23286022E+04 E0= -.23286022E+04  d E =-.415363E-02  mag=     4.0000
       N       E                     dE             d eps       ncg     rms          rms(c)
DAV:   1    -0.230821169993E+04    0.38079E-02   -0.54891E-01  4432   0.562E-01    0.217E-01
RMM:   2    -0.230821812662E+04   -0.64267E-02   -0.69017E-02  6039   0.114E-01    0.113E-01
RMM:   3    -0.230821851922E+04   -0.39259E-03   -0.59734E-03  4635   0.410E-02    0.755E-02
RMM:   4    -0.230821852103E+04   -0.18135E-05   -0.80523E-04  3276   0.109E-02    0.472E-02
RMM:   5    -0.230821849882E+04    0.22210E-04   -0.11823E-04  3195   0.722E-03    0.179E-02
RMM:   6    -0.230821850137E+04   -0.25561E-05   -0.30279E-05  2878   0.549E-03
  18 F= -.23286049E+04 E0= -.23286049E+04  d E =-.268055E-02  mag=     4.0000
       N       E                     dE             d eps       ncg     rms          rms(c)
DAV:   1    -0.230821591415E+04    0.25847E-02   -0.24190E-01  4592   0.375E-01    0.144E-01
RMM:   2    -0.230821876430E+04   -0.28501E-02   -0.30638E-02  5958   0.768E-02    0.761E-02
RMM:   3    -0.230821895407E+04   -0.18977E-03   -0.26393E-03  3690   0.270E-02    0.727E-02
RMM:   4    -0.230821895655E+04   -0.24805E-05   -0.35825E-04  2939   0.731E-03    0.518E-02
RMM:   5    -0.230821893208E+04    0.24471E-04   -0.74897E-05  2957   0.511E-03    0.264E-02
RMM:   6    -0.230821892897E+04    0.31105E-05   -0.31121E-05  2926   0.458E-03
  19 F= -.23286051E+04 E0= -.23286051E+04  d E =-.290365E-02  mag=     4.0000
       N       E                     dE             d eps       ncg     rms          rms(c)
DAV:   1    -0.230820648561E+04    0.12446E-01   -0.66649E-01  4432   0.657E-01    0.275E-01
RMM:   2    -0.230822054529E+04   -0.14060E-01   -0.14933E-01  6119   0.142E-01    0.160E-01
RMM:   3    -0.230822176785E+04   -0.12226E-02   -0.14053E-02  5196   0.516E-02    0.130E-01
RMM:   4    -0.230822170576E+04    0.62092E-04   -0.16217E-03  3098   0.121E-02    0.886E-02
RMM:   5    -0.230822162713E+04    0.78634E-04   -0.16090E-04  2961   0.682E-03    0.480E-02
RMM:   6    -0.230822160165E+04    0.25476E-04   -0.14360E-04  3265   0.669E-03    0.146E-02
RMM:   7    -0.230822160223E+04   -0.58042E-06   -0.17495E-05  2862   0.499E-03
  20 F= -.23286074E+04 E0= -.23286074E+04  d E =-.226392E-02  mag=     4.0000
       N       E                     dE             d eps       ncg     rms          rms(c)
DAV:   1    -0.230820857126E+04    0.13030E-01   -0.62049E-01  4416   0.633E-01    0.266E-01
RMM:   2    -0.230822166450E+04   -0.13093E-01   -0.13890E-01  6090   0.137E-01    0.163E-01
RMM:   3    -0.230822281214E+04   -0.11476E-02   -0.13051E-02  5191   0.504E-02    0.140E-01
RMM:   4    -0.230822271041E+04    0.10173E-03   -0.15177E-03  3089   0.119E-02    0.837E-02
RMM:   5    -0.230822263812E+04    0.72294E-04   -0.15692E-04  2961   0.675E-03    0.458E-02
RMM:   6    -0.230822261535E+04    0.22767E-04   -0.13584E-04  3233   0.663E-03    0.138E-02
RMM:   7    -0.230822261546E+04   -0.10998E-06   -0.14873E-05  2868   0.481E-03
  21 F= -.23286080E+04 E0= -.23286080E+04  d E =-.289569E-02  mag=     4.0000
       N       E                     dE             d eps       ncg     rms          rms(c)
DAV:   1    -0.230820848063E+04    0.14135E-01   -0.85297E-01  4448   0.816E-01    0.338E-01
RMM:   2    -0.230822419375E+04   -0.15713E-01   -0.16476E-01  5930   0.171E-01    0.181E-01
RMM:   3    -0.230822554168E+04   -0.13479E-02   -0.15988E-02  5449   0.682E-02    0.148E-01
RMM:   4    -0.230822546787E+04    0.73816E-04   -0.19342E-03  3915   0.151E-02    0.103E-01
RMM:   5    -0.230822534802E+04    0.11985E-03   -0.25253E-04  3507   0.993E-03    0.487E-02
RMM:   6    -0.230822531064E+04    0.37383E-04   -0.15959E-04  4032   0.855E-03    0.189E-02
RMM:   7    -0.230822530775E+04    0.28892E-05   -0.22555E-05  2869   0.646E-03
  22 F= -.23286102E+04 E0= -.23286102E+04  d E =-.221895E-02  mag=     4.0000
       N       E                     dE             d eps       ncg     rms          rms(c)
DAV:   1    -0.230822469363E+04    0.61701E-03   -0.37135E-02  4960   0.170E-01    0.721E-02
RMM:   2    -0.230822538634E+04   -0.69271E-03   -0.72490E-03  5873   0.367E-02    0.464E-02
RMM:   3    -0.230822544782E+04   -0.61489E-04   -0.70235E-04  3045   0.148E-02    0.426E-02
RMM:   4    -0.230822543486E+04    0.12962E-04   -0.86854E-05  2875   0.446E-03    0.199E-02
RMM:   5    -0.230822542959E+04    0.52759E-05   -0.11634E-05  2826   0.255E-03
  23 F= -.23286102E+04 E0= -.23286102E+04  d E =-.224376E-02  mag=     4.0000
       N       E                     dE             d eps       ncg     rms          rms(c)
DAV:   1    -0.230821584324E+04    0.95916E-02   -0.53276E-01  4432   0.588E-01    0.260E-01
RMM:   2    -0.230822728105E+04   -0.11438E-01   -0.11712E-01  6145   0.125E-01    0.187E-01
RMM:   3    -0.230822830684E+04   -0.10258E-02   -0.12351E-02  5092   0.491E-02    0.138E-01
RMM:   4    -0.230822820648E+04    0.10036E-03   -0.14225E-03  3179   0.113E-02    0.730E-02
RMM:   5    -0.230822814208E+04    0.64402E-04   -0.10786E-04  2903   0.612E-03    0.437E-02
RMM:   6    -0.230822811573E+04    0.26356E-04   -0.13405E-04  3457   0.642E-03    0.286E-02
RMM:   7    -0.230822811044E+04    0.52852E-05   -0.23541E-05  2845   0.511E-03
  24 F= -.23286126E+04 E0= -.23286126E+04  d E =-.234428E-02  mag=     4.0000
       N       E                     dE             d eps       ncg     rms          rms(c)
DAV:   1    -0.230812072823E+04    0.10739E+00   -0.48017E+00  4400   0.177E+00    0.794E-01
RMM:   2    -0.230822413861E+04   -0.10341E+00   -0.10578E+00  6165   0.381E-01    0.616E-01
RMM:   3    -0.230823406274E+04   -0.99241E-02   -0.12604E-01  5862   0.151E-01    0.421E-01
RMM:   4    -0.230823313866E+04    0.92408E-03   -0.12936E-02  5268   0.330E-02    0.220E-01
RMM:   5    -0.230823258183E+04    0.55684E-03   -0.10567E-03  3963   0.150E-02    0.137E-01
RMM:   6    -0.230823232812E+04    0.25371E-03   -0.91386E-04  4835   0.150E-02    0.101E-01
RMM:   7    -0.230823225317E+04    0.74956E-04   -0.33226E-04  3481   0.120E-02    0.225E-02
RMM:   8    -0.230823225624E+04   -0.30755E-05   -0.65796E-05  2887   0.484E-03
  25 F= -.23286158E+04 E0= -.23286158E+04  d E =-.554704E-02  mag=     4.0000
       N       E                     dE             d eps       ncg     rms          rms(c)
DAV:   1    -0.230822923536E+04    0.30178E-02   -0.20621E-01  4632   0.357E-01    0.166E-01
RMM:   2    -0.230823393804E+04   -0.47027E-02   -0.47415E-02  6225   0.775E-02    0.156E-01
RMM:   3    -0.230823426686E+04   -0.32882E-03   -0.51060E-03  4052   0.301E-02    0.969E-02
RMM:   4    -0.230823421559E+04    0.51269E-04   -0.60582E-04  2939   0.785E-03    0.446E-02
RMM:   5    -0.230823418674E+04    0.28855E-04   -0.41996E-05  2848   0.403E-03    0.279E-02
RMM:   6    -0.230823417687E+04    0.98702E-05   -0.63091E-05  2954   0.435E-03
  26 F= -.23286176E+04 E0= -.23286176E+04  d E =-.181206E-02  mag=     4.0000
       N       E                     dE             d eps       ncg     rms          rms(c)
DAV:   1    -0.230819473249E+04    0.39454E-01   -0.18505E+00  4416   0.107E+00    0.505E-01
RMM:   2    -0.230823731699E+04   -0.42585E-01   -0.42623E-01  6110   0.229E-01    0.513E-01
RMM:   3    -0.230823986889E+04   -0.25519E-02   -0.47223E-02  5631   0.939E-02    0.291E-01
RMM:   4    -0.230823938014E+04    0.48876E-03   -0.54770E-03  4306   0.206E-02    0.133E-01
RMM:   5    -0.230823911371E+04    0.26643E-03   -0.38977E-04  3450   0.999E-03    0.829E-02
RMM:   6    -0.230823901565E+04    0.98053E-04   -0.50761E-04  4152   0.116E-02    0.360E-02
RMM:   7    -0.230823901008E+04    0.55718E-05   -0.50401E-05  2880   0.706E-03
  27 F= -.23286221E+04 E0= -.23286221E+04  d E =-.635420E-02  mag=     4.0000
       N       E                     dE             d eps       ncg     rms          rms(c)
DAV:   1    -0.230806485784E+04    0.17416E+00   -0.73973E+00  4408   0.214E+00    0.102E+00
RMM:   2    -0.230823703528E+04   -0.17218E+00   -0.17217E+00  6171   0.462E-01    0.106E+00
RMM:   3    -0.230824739440E+04   -0.10359E-01   -0.20161E-01  5911   0.184E-01    0.568E-01
RMM:   4    -0.230824570530E+04    0.16891E-02   -0.21510E-02  5296   0.406E-02    0.269E-01
RMM:   5    -0.230824465890E+04    0.10464E-02   -0.16316E-03  4399   0.185E-02    0.168E-01
RMM:   6    -0.230824426994E+04    0.38897E-03   -0.18159E-03  4767   0.205E-02    0.856E-02
RMM:   7    -0.230824423384E+04    0.36099E-04   -0.28389E-04  3474   0.123E-02    0.332E-02
RMM:   8    -0.230824422600E+04    0.78388E-05   -0.38724E-05  2841   0.443E-03
  28 F= -.23286269E+04 E0= -.23286269E+04  d E =-.111418E-01  mag=     4.0000
       N       E                     dE             d eps       ncg     rms          rms(c)
DAV:   1    -0.230821144952E+04    0.32784E-01   -0.16439E+00  4456   0.983E-01    0.463E-01
RMM:   2    -0.230824700832E+04   -0.35559E-01   -0.35828E-01  6055   0.209E-01    0.434E-01
RMM:   3    -0.230824940086E+04   -0.23925E-02   -0.38652E-02  5637   0.866E-02    0.264E-01
RMM:   4    -0.230824900292E+04    0.39794E-03   -0.45692E-03  4237   0.189E-02    0.129E-01
RMM:   5    -0.230824875152E+04    0.25141E-03   -0.38955E-04  3449   0.101E-02    0.779E-02
RMM:   6    -0.230824867500E+04    0.76516E-04   -0.46802E-04  4189   0.111E-02    0.442E-02
RMM:   7    -0.230824866433E+04    0.10668E-04   -0.68598E-05  2885   0.769E-03    0.141E-02
RMM:   8    -0.230824866409E+04    0.24526E-06   -0.11663E-05  2830   0.285E-03
  29 F= -.23286313E+04 E0= -.23286313E+04  d E =-.434775E-02  mag=     4.0000
       N       E                     dE             d eps       ncg     rms          rms(c)
DAV:   1    -0.230807475507E+04    0.17391E+00   -0.77661E+00  4400   0.214E+00    0.102E+00
RMM:   2    -0.230824466628E+04   -0.16991E+00   -0.17095E+00  6079   0.458E-01    0.994E-01
RMM:   3    -0.230825599901E+04   -0.11333E-01   -0.19532E-01  5841   0.187E-01    0.577E-01
RMM:   4    -0.230825418536E+04    0.18136E-02   -0.21476E-02  5412   0.412E-02    0.284E-01
RMM:   5    -0.230825301782E+04    0.11675E-02   -0.19115E-03  4607   0.201E-02    0.173E-01
RMM:   6    -0.230825261822E+04    0.39960E-03   -0.19990E-03  4856   0.207E-02    0.110E-01
RMM:   7    -0.230825254367E+04    0.74542E-04   -0.41035E-04  3948   0.140E-02    0.318E-02
RMM:   8    -0.230825254075E+04    0.29258E-05   -0.57826E-05  2884   0.465E-03
  30 F= -.23286351E+04 E0= -.23286351E+04  d E =-.817533E-02  mag=     4.0000
       N       E                     dE             d eps       ncg     rms          rms(c)
DAV:   1    -0.230822628807E+04    0.26256E-01   -0.12017E+00  4576   0.791E-01    0.389E-01
RMM:   2    -0.230825392076E+04   -0.27633E-01   -0.28019E-01  6202   0.169E-01    0.321E-01
RMM:   3    -0.230825594642E+04   -0.20257E-02   -0.26807E-02  5419   0.665E-02    0.213E-01
RMM:   4    -0.230825570225E+04    0.24417E-03   -0.31888E-03  3516   0.153E-02    0.115E-01
RMM:   5    -0.230825553303E+04    0.16922E-03   -0.25515E-04  3040   0.787E-03    0.718E-02
RMM:   6    -0.230825547024E+04    0.62789E-04   -0.37057E-04  3786   0.876E-03    0.412E-02
RMM:   7    -0.230825546165E+04    0.85869E-05   -0.58758E-05  2862   0.642E-03
  31 F= -.23286381E+04 E0= -.23286381E+04  d E =-.296892E-02  mag=     4.0000
       N       E                     dE             d eps       ncg     rms          rms(c)
DAV:   1    -0.230799626499E+04    0.25921E+00   -0.10771E+01  4400   0.237E+00    0.119E+00
RMM:   2    -0.230824925973E+04   -0.25299E+00   -0.25559E+00  6200   0.513E-01    0.110E+00
RMM:   3    -0.230826681097E+04   -0.17551E-01   -0.26933E-01  5957   0.202E-01    0.669E-01
RMM:   4    -0.230826466766E+04    0.21433E-02   -0.29617E-02  5410   0.458E-02    0.345E-01
RMM:   5    -0.230826317626E+04    0.14914E-02   -0.24379E-03  4414   0.201E-02    0.220E-01
RMM:   6    -0.230826258747E+04    0.58879E-03   -0.27301E-03  4845   0.215E-02    0.134E-01
RMM:   7    -0.230826248884E+04    0.98624E-04   -0.67683E-04  3768   0.150E-02    0.361E-02
RMM:   8    -0.230826249418E+04   -0.53343E-05   -0.90510E-05  2913   0.509E-03
  32 F= -.23286454E+04 E0= -.23286454E+04  d E =-.103088E-01  mag=     4.0000
       N       E                     dE             d eps       ncg     rms          rms(c)
DAV:   1    -0.230716563154E+04    0.10969E+01   -0.43157E+01  4392   0.474E+00    0.243E+00
RMM:   2    -0.230822278505E+04   -0.10572E+01   -0.10702E+01  6239   0.108E+00    0.231E+00
RMM:   3    -0.230828391288E+04   -0.61128E-01   -0.10586E+00  6025   0.400E-01    0.132E+00
RMM:   4    -0.230827685567E+04    0.70572E-02   -0.11632E-01  5731   0.922E-02    0.703E-01
RMM:   5    -0.230827107370E+04    0.57820E-02   -0.10684E-02  4882   0.391E-02    0.451E-01
RMM:   6    -0.230826883041E+04    0.22433E-02   -0.89005E-03  4997   0.390E-02    0.299E-01
RMM:   7    -0.230826830719E+04    0.52322E-03   -0.35828E-03  4802   0.298E-02    0.825E-02
RMM:   8    -0.230826836049E+04   -0.53300E-04   -0.43976E-04  3454   0.910E-03    0.688E-02
RMM:   9    -0.230826834562E+04    0.14876E-04   -0.20726E-04  2963   0.747E-03    0.273E-02
RMM:  10    -0.230826836349E+04   -0.17874E-04   -0.53319E-05  2904   0.399E-03    0.107E-02
RMM:  11    -0.230826837563E+04   -0.12137E-04   -0.80685E-06  2825   0.323E-03    0.758E-03
RMM:  12    -0.230826838434E+04   -0.87120E-05   -0.44992E-06  2667   0.189E-03
  33 F= -.23286523E+04 E0= -.23286523E+04  d E =-.171747E-01  mag=     4.0000
       N       E                     dE             d eps       ncg     rms          rms(c)
DAV:   1    -0.230824069309E+04    0.27683E-01   -0.12854E+00  4576   0.796E-01    0.404E-01
RMM:   2    -0.230827028353E+04   -0.29590E-01   -0.30042E-01  6132   0.167E-01    0.300E-01
RMM:   3    -0.230827265973E+04   -0.23762E-02   -0.28377E-02  5274   0.693E-02    0.203E-01
RMM:   4    -0.230827249652E+04    0.16321E-03   -0.33979E-03  3501   0.156E-02    0.121E-01
RMM:   5    -0.230827232855E+04    0.16796E-03   -0.28902E-04  2996   0.793E-03    0.766E-02
RMM:   6    -0.230827226226E+04    0.66296E-04   -0.34210E-04  3753   0.826E-03    0.488E-02
RMM:   7    -0.230827225137E+04    0.10886E-04   -0.89489E-05  2867   0.681E-03    0.131E-02
RMM:   8    -0.230827225357E+04   -0.21955E-05   -0.16514E-05  2813   0.249E-03
  34 F= -.23286563E+04 E0= -.23286563E+04  d E =-.400312E-02  mag=     4.0000
       N       E                     dE             d eps       ncg     rms          rms(c)
DAV:   1    -0.230799385628E+04    0.27840E+00   -0.11565E+01  4408   0.239E+00    0.123E+00
RMM:   2    -0.230826379084E+04   -0.26993E+00   -0.27416E+00  6199   0.512E-01    0.963E-01
RMM:   3    -0.230828648201E+04   -0.22691E-01   -0.28302E-01  5902   0.204E-01    0.633E-01
RMM:   4    -0.230828513226E+04    0.13498E-02   -0.30406E-02  5429   0.456E-02    0.365E-01
RMM:   5    -0.230828367752E+04    0.14547E-02   -0.28018E-03  4302   0.203E-02    0.242E-01
RMM:   6    -0.230828303104E+04    0.64648E-03   -0.25527E-03  4931   0.203E-02    0.166E-01
RMM:   7    -0.230828288776E+04    0.14329E-03   -0.10616E-03  3870   0.167E-02    0.421E-02
RMM:   8    -0.230828289788E+04   -0.10122E-04   -0.17796E-04  2955   0.608E-03    0.437E-02
RMM:   9    -0.230828288071E+04    0.17168E-04   -0.67992E-05  2853   0.474E-03    0.101E-02
RMM:  10    -0.230828288659E+04   -0.58804E-05   -0.21748E-05  2840   0.264E-03
  35 F= -.23286673E+04 E0= -.23286673E+04  d E =-.150222E-01  mag=     4.0000
       N       E                     dE             d eps       ncg     rms          rms(c)
DAV:   1    -0.230710511339E+04    0.11778E+01   -0.46389E+01  4400   0.479E+00    0.250E+00
RMM:   2    -0.230822389782E+04   -0.11188E+01   -0.11416E+01  6266   0.108E+00    0.210E+00
RMM:   3    -0.230831233581E+04   -0.88438E-01   -0.11813E+00  5991   0.404E-01    0.129E+00
RMM:   4    -0.230830710899E+04    0.52268E-02   -0.11416E-01  5712   0.854E-02    0.739E-01
RMM:   5    -0.230830159436E+04    0.55146E-02   -0.11625E-02  4936   0.396E-02    0.500E-01
RMM:   6    -0.230829955047E+04    0.20439E-02   -0.87382E-03  5187   0.366E-02    0.391E-01
RMM:   7    -0.230829844095E+04    0.11095E-02   -0.49614E-03  4704   0.311E-02    0.878E-02
RMM:   8    -0.230829854639E+04   -0.10544E-03   -0.62488E-04  3673   0.116E-02    0.909E-02
RMM:   9    -0.230829848383E+04    0.62567E-04   -0.24509E-04  2992   0.793E-03    0.252E-02
RMM:  10    -0.230829849986E+04   -0.16031E-04   -0.70758E-05  2892   0.437E-03    0.117E-02
RMM:  11    -0.230829851313E+04   -0.13273E-04   -0.13758E-05  2837   0.354E-03    0.725E-03
RMM:  12    -0.230829852174E+04   -0.86139E-05   -0.51848E-06  2758   0.211E-03
  36 F= -.23286836E+04 E0= -.23286836E+04  d E =-.313701E-01  mag=     4.0000
       N       E                     dE             d eps       ncg     rms          rms(c)
DAV:   1    -0.230235539742E+04    0.59431E+01   -0.19475E+02  4396   0.971E+00    0.717E+00
RMM:   2    -0.231106775995E+04   -0.87124E+01   -0.58009E+01  6344   0.250E+00    0.200E+01
RMM:   3    -0.230808281198E+04    0.29849E+01   -0.61508E+00  5849   0.919E-01    0.450E+00
RMM:   4    -0.230824177910E+04   -0.15897E+00   -0.67511E-01  5012   0.234E-01    0.261E+00
RMM:   5    -0.230829361979E+04   -0.51841E-01   -0.83041E-02  4608   0.107E-01    0.200E+00
RMM:   6    -0.230829633183E+04   -0.27120E-02   -0.52820E-02  4570   0.900E-02    0.118E+00
RMM:   7    -0.230829180453E+04    0.45273E-02   -0.44264E-02  4780   0.818E-02    0.530E-01
RMM:   8    -0.230829252769E+04   -0.72316E-03   -0.77513E-03  4866   0.449E-02    0.302E-01
RMM:   9    -0.230829248328E+04    0.44406E-04   -0.35195E-03  4758   0.266E-02    0.199E-01
RMM:  10    -0.230829295838E+04   -0.47509E-03   -0.60618E-04  3881   0.134E-02    0.981E-02
RMM:  11    -0.230829318571E+04   -0.22733E-03   -0.22199E-04  3386   0.785E-03    0.530E-02
RMM:  12    -0.230829331233E+04   -0.12663E-03   -0.10959E-04  3004   0.598E-03    0.259E-02
RMM:  13    -0.230829335173E+04   -0.39394E-04   -0.25997E-05  2849   0.413E-03    0.204E-02
RMM:  14    -0.230829340264E+04   -0.50909E-04   -0.19057E-05  2856   0.340E-03    0.126E-02
RMM:  15    -0.230829342720E+04   -0.24567E-04   -0.89920E-06  2799   0.317E-03    0.111E-02
RMM:  16    -0.230829345304E+04   -0.25839E-04   -0.13291E-05  2740   0.266E-03    0.104E-02
RMM:  17    -0.230829346692E+04   -0.13877E-04   -0.12224E-05  2698   0.287E-03    0.102E-02
RMM:  18    -0.230829347256E+04   -0.56438E-05   -0.78631E-06  2566   0.212E-03
  37 F= -.23286805E+04 E0= -.23286805E+04  d E =-.282840E-01  mag=     3.9999
       N       E                     dE             d eps       ncg     rms          rms(c)
DAV:   1    -0.230638895025E+04    0.19045E+01   -0.66791E+01  4412   0.566E+00    0.277E+00
RMM:   2    -0.230815079504E+04   -0.17618E+01   -0.15474E+01  6298   0.124E+00    0.152E+00
RMM:   3    -0.230830422053E+04   -0.15343E+00   -0.12144E+00  5481   0.418E-01    0.100E+00
RMM:   4    -0.230830943355E+04   -0.52130E-02   -0.13018E-01  5132   0.877E-02    0.784E-01
RMM:   5    -0.230830865851E+04    0.77503E-03   -0.17670E-02  5153   0.488E-02    0.763E-01
RMM:   6    -0.230830309856E+04    0.55600E-02   -0.11174E-02  5047   0.421E-02    0.283E-01
RMM:   7    -0.230830288655E+04    0.21201E-03   -0.28270E-03  4622   0.284E-02    0.110E-01
RMM:   8    -0.230830307997E+04   -0.19342E-03   -0.37658E-04  3881   0.119E-02    0.694E-02
RMM:   9    -0.230830311354E+04   -0.33565E-04   -0.10291E-04  2945   0.725E-03    0.461E-02
RMM:  10    -0.230830314107E+04   -0.27530E-04   -0.57424E-05  2861   0.419E-03    0.346E-02
RMM:  11    -0.230830316238E+04   -0.21312E-04   -0.28292E-05  2841   0.354E-03    0.283E-02
RMM:  12    -0.230830319796E+04   -0.35580E-04   -0.38118E-05  2849   0.348E-03    0.213E-02
RMM:  13    -0.230830322983E+04   -0.31877E-04   -0.38998E-05  2833   0.376E-03    0.201E-02
RMM:  14    -0.230830324483E+04   -0.15000E-04   -0.25444E-05  2737   0.320E-03    0.195E-02
RMM:  15    -0.230830326726E+04   -0.22429E-04   -0.75919E-05  2815   0.391E-03    0.175E-02
RMM:  16    -0.230830328974E+04   -0.22473E-04   -0.20841E-04  2921   0.571E-03    0.148E-02
RMM:  17    -0.230830330066E+04   -0.10921E-04   -0.11857E-04  2770   0.483E-03    0.116E-02
RMM:  18    -0.230830332160E+04   -0.20940E-04   -0.13735E-04  2826   0.474E-03    0.794E-03
RMM:  19    -0.230830333896E+04   -0.17367E-04   -0.16193E-04  2838   0.517E-03    0.612E-03
RMM:  20    -0.230830334936E+04   -0.10392E-04   -0.93735E-05  2696   0.412E-03    0.428E-03
RMM:  21    -0.230830335690E+04   -0.75433E-05   -0.69345E-05  2761   0.363E-03
  38 F= -.23286891E+04 E0= -.23286891E+04  d E =-.368530E-01  mag=     4.0000
       N       E                     dE             d eps       ncg     rms          rms(c)
DAV:   1    -0.230808476715E+04    0.21858E+00   -0.10099E+01  4456   0.216E+00    0.110E+00
RMM:   2    -0.230829876872E+04   -0.21400E+00   -0.21683E+00  6243   0.451E-01    0.719E-01
RMM:   3    -0.230831985825E+04   -0.21090E-01   -0.23780E-01  5821   0.183E-01    0.478E-01
RMM:   4    -0.230832026144E+04   -0.40320E-03   -0.25482E-02  5183   0.387E-02    0.314E-01
RMM:   5    -0.230831942208E+04    0.83936E-03   -0.21683E-03  4157   0.186E-02    0.238E-01
RMM:   6    -0.230831917869E+04    0.24339E-03   -0.18272E-03  5027   0.172E-02    0.222E-01
RMM:   7    -0.230831884922E+04    0.32947E-03   -0.13150E-03  3862   0.159E-02    0.495E-02
RMM:   8    -0.230831885444E+04   -0.52114E-05   -0.18511E-04  2931   0.667E-03    0.481E-02
RMM:   9    -0.230831883406E+04    0.20378E-04   -0.69774E-05  2844   0.469E-03    0.172E-02
RMM:  10    -0.230831883972E+04   -0.56663E-05   -0.27597E-05  2838   0.283E-03
  39 F= -.23287050E+04 E0= -.23287050E+04  d E =-.158485E-01  mag=     4.0000
       N       E                     dE             d eps       ncg     rms          rms(c)
DAV:   1    -0.230623993337E+04    0.20789E+01   -0.76579E+01  4408   0.592E+00    0.312E+00
RMM:   2    -0.230827188935E+04   -0.20320E+01   -0.17942E+01  6298   0.136E+00    0.290E+00
RMM:   3    -0.230836145981E+04   -0.89570E-01   -0.15187E+00  6010   0.453E-01    0.173E+00
RMM:   4    -0.230835552051E+04    0.59393E-02   -0.15366E-01  5608   0.106E-01    0.924E-01
RMM:   5    -0.230835066377E+04    0.48567E-02   -0.15848E-02  4712   0.475E-02    0.641E-01
RMM:   6    -0.230834842574E+04    0.22380E-02   -0.13013E-02  5115   0.469E-02    0.485E-01
RMM:   7    -0.230834708155E+04    0.13442E-02   -0.79104E-03  4781   0.406E-02    0.126E-01
RMM:   8    -0.230834727653E+04   -0.19498E-03   -0.92726E-04  3843   0.130E-02    0.116E-01
RMM:   9    -0.230834722636E+04    0.50164E-04   -0.22128E-04  2969   0.812E-03    0.684E-02
RMM:  10    -0.230834728074E+04   -0.54375E-04   -0.11739E-04  2907   0.472E-03    0.655E-02
RMM:  11    -0.230834733449E+04   -0.53752E-04   -0.49391E-05  2845   0.422E-03    0.586E-02
RMM:  12    -0.230834742249E+04   -0.87997E-04   -0.10031E-04  2858   0.445E-03    0.522E-02
RMM:  13    -0.230834756561E+04   -0.14312E-03   -0.20962E-04  2941   0.587E-03    0.571E-02
RMM:  14    -0.230834732333E+04    0.24228E-03   -0.53775E-04  3077   0.866E-03    0.420E-02
RMM:  15    -0.230834701701E+04    0.30633E-03   -0.16217E-03  3572   0.134E-02    0.396E-02
RMM:  16    -0.230834697366E+04    0.43351E-04   -0.22191E-04  2822   0.701E-03    0.420E-02
RMM:  17    -0.230834710244E+04   -0.12878E-03   -0.17696E-04  2748   0.510E-03    0.431E-02
RMM:  18    -0.230834715874E+04   -0.56305E-04   -0.14189E-04  2752   0.435E-03    0.467E-02
RMM:  19    -0.230834702330E+04    0.13545E-03   -0.43674E-04  2901   0.714E-03    0.415E-02
RMM:  20    -0.230834694176E+04    0.81531E-04   -0.53972E-04  3034   0.749E-03    0.404E-02
RMM:  21    -0.230834689354E+04    0.48223E-04   -0.54849E-04  3014   0.800E-03    0.442E-02
RMM:  22    -0.230834689009E+04    0.34509E-05   -0.12579E-04  2737   0.527E-03    0.572E-02
RMM:  23    -0.230834704174E+04   -0.15165E-03   -0.22613E-04  3282   0.641E-03    0.544E-02
RMM:  24    -0.230834705376E+04   -0.12017E-04   -0.10402E-03  3286   0.110E-02    0.229E-02
RMM:  25    -0.230834706456E+04   -0.10794E-04   -0.44413E-04  3029   0.830E-03    0.402E-02
RMM:  26    -0.230834705382E+04    0.10737E-04   -0.39506E-05  2528   0.338E-03    0.292E-02
RMM:  27    -0.230834706895E+04   -0.15127E-04   -0.76042E-05  2519   0.306E-03    0.259E-02
RMM:  28    -0.230834707022E+04   -0.12760E-05   -0.10189E-05  2222   0.175E-03
  40 F= -.23287347E+04 E0= -.23287347E+04  d E =-.455550E-01  mag=     4.0000
       N       E                     dE             d eps       ncg     rms          rms(c)
DAV:   1    -0.229896131600E+04    0.93858E+01   -0.33560E+02  4420   0.120E+01    0.858E+00
RMM:   2    -0.231581247999E+04   -0.16851E+02   -0.92581E+01  6344   0.306E+00    0.217E+01
RMM:   3    -0.230803475176E+04    0.77777E+01   -0.94544E+00  5631   0.106E+00    0.524E+00
RMM:   4    -0.230823856784E+04   -0.20382E+00   -0.83456E-01  5038   0.277E-01    0.409E+00
RMM:   5    -0.230832008818E+04   -0.81520E-01   -0.10375E-01  4778   0.110E-01    0.340E+00
RMM:   6    -0.230834962324E+04   -0.29535E-01   -0.14506E-01  4424   0.126E-01    0.207E+00
RMM:   7    -0.230834978479E+04   -0.16156E-03   -0.12647E-01  4647   0.130E-01    0.853E-01
RMM:   8    -0.230834914738E+04    0.63741E-03   -0.28738E-02  4993   0.767E-02    0.660E-01
RMM:   9    -0.230835447916E+04   -0.53318E-02   -0.10903E-02  4373   0.384E-02    0.224E-01
RMM:  10    -0.230835628124E+04   -0.18021E-02   -0.19194E-03  4171   0.218E-02    0.130E-01
RMM:  11    -0.230835696740E+04   -0.68616E-03   -0.62666E-04  3925   0.110E-02    0.935E-02
RMM:  12    -0.230835747673E+04   -0.50933E-03   -0.30055E-04  3534   0.942E-03    0.808E-02
RMM:  13    -0.230835774963E+04   -0.27290E-03   -0.15563E-04  3033   0.678E-03    0.742E-02
RMM:  14    -0.230835808491E+04   -0.33528E-03   -0.26393E-04  3356   0.741E-03    0.689E-02
RMM:  15    -0.230835838623E+04   -0.30132E-03   -0.10645E-03  3705   0.124E-02    0.499E-02
RMM:  16    -0.230835845000E+04   -0.63771E-04   -0.14255E-03  3640   0.141E-02    0.341E-02
RMM:  17    -0.230835854378E+04   -0.93778E-04   -0.15379E-04  2887   0.677E-03    0.184E-02
RMM:  18    -0.230835857125E+04   -0.27470E-04   -0.78338E-05  2804   0.379E-03    0.127E-02
RMM:  19    -0.230835859138E+04   -0.20124E-04   -0.38615E-05  2742   0.333E-03    0.103E-02
RMM:  20    -0.230835860755E+04   -0.16172E-04   -0.14968E-04  2831   0.438E-03    0.887E-03
RMM:  21    -0.230835861457E+04   -0.70240E-05   -0.80373E-05  2754   0.383E-03
  41 F= -.23287511E+04 E0= -.23287511E+04  d E =-.620022E-01  mag=     4.0022
       N       E                     dE             d eps       ncg     rms          rms(c)
DAV:   1    -0.230485098707E+04    0.35076E+01   -0.14741E+02  4404   0.813E+00    0.472E+00
RMM:   2    -0.230885342342E+04   -0.40024E+01   -0.32282E+01  6315   0.178E+00    0.648E+00
RMM:   3    -0.230825992854E+04    0.59349E+00   -0.25079E+00  5608   0.559E-01    0.246E+00
RMM:   4    -0.230832563333E+04   -0.65705E-01   -0.24129E-01  5419   0.135E-01    0.238E+00
RMM:   5    -0.230837444554E+04   -0.48812E-01   -0.50932E-02  5317   0.744E-02    0.184E+00
RMM:   6    -0.230837705923E+04   -0.26137E-02   -0.36151E-02  4969   0.637E-02    0.124E+00
RMM:   7    -0.230837749859E+04   -0.43936E-03   -0.22318E-02  4885   0.549E-02    0.627E-01
RMM:   8    -0.230837911064E+04   -0.16120E-02   -0.12871E-02  4610   0.504E-02    0.219E-01
RMM:   9    -0.230837959945E+04   -0.48881E-03   -0.26375E-03  4626   0.266E-02    0.169E-01
RMM:  10    -0.230837950203E+04    0.97415E-04   -0.44006E-04  3671   0.101E-02    0.371E-02
RMM:  11    -0.230837956201E+04   -0.59981E-04   -0.98385E-05  2906   0.571E-03    0.292E-02
RMM:  12    -0.230837961434E+04   -0.52326E-04   -0.23037E-05  2861   0.356E-03    0.238E-02
RMM:  13    -0.230837967873E+04   -0.64386E-04   -0.22681E-05  2851   0.349E-03    0.166E-02
RMM:  14    -0.230837971881E+04   -0.40081E-04   -0.14505E-05  2820   0.322E-03    0.121E-02
RMM:  15    -0.230837974628E+04   -0.27478E-04   -0.17032E-05  2799   0.304E-03    0.887E-03
RMM:  16    -0.230837975757E+04   -0.11290E-04   -0.22788E-05  2794   0.326E-03    0.739E-03
RMM:  17    -0.230837975815E+04   -0.57492E-06   -0.77780E-06  2535   0.260E-03
  42 F= -.23287687E+04 E0= -.23287687E+04  d E =-.795395E-01  mag=     3.9999
       N       E                     dE             d eps       ncg     rms          rms(c)
DAV:   1    -0.230758288963E+04    0.79687E+00   -0.36044E+01  4400   0.405E+00    0.225E+00
RMM:   2    -0.230831958157E+04   -0.73669E+00   -0.73956E+00  6197   0.859E-01    0.144E+00
RMM:   3    -0.230838120517E+04   -0.61624E-01   -0.68097E-01  5772   0.309E-01    0.970E-01
RMM:   4    -0.230838207406E+04   -0.86889E-03   -0.76842E-02  5419   0.737E-02    0.579E-01
RMM:   5    -0.230838039456E+04    0.16795E-02   -0.96464E-03  4846   0.367E-02    0.480E-01
RMM:   6    -0.230837877893E+04    0.16156E-02   -0.56288E-03  5126   0.301E-02    0.272E-01
RMM:   7    -0.230837860915E+04    0.16978E-03   -0.17964E-03  4277   0.216E-02    0.909E-02
RMM:   8    -0.230837864770E+04   -0.38549E-04   -0.39882E-04  3275   0.931E-03    0.637E-02
RMM:   9    -0.230837863904E+04    0.86518E-05   -0.11532E-04  2898   0.609E-03    0.187E-02
RMM:  10    -0.230837867534E+04   -0.36298E-04   -0.53203E-05  2881   0.403E-03    0.895E-03
RMM:  11    -0.230837869215E+04   -0.16806E-04   -0.66971E-06  2834   0.302E-03    0.698E-03
RMM:  12    -0.230837871145E+04   -0.19297E-04   -0.49985E-06  2706   0.195E-03    0.509E-03
RMM:  13    -0.230837872092E+04   -0.94763E-05   -0.23594E-06  2565   0.195E-03
  43 F= -.23287693E+04 E0= -.23287693E+04  d E =-.802123E-01  mag=     4.0000
       N       E                     dE             d eps       ncg     rms          rms(c)
DAV:   1    -0.230822047262E+04    0.15824E+00   -0.77177E+00  4404   0.186E+00    0.101E+00
RMM:   2    -0.230836736567E+04   -0.14689E+00   -0.14672E+00  6155   0.368E-01    0.550E-01
RMM:   3    -0.230838161987E+04   -0.14254E-01   -0.14105E-01  5473   0.144E-01    0.333E-01
RMM:   4    -0.230838226563E+04   -0.64576E-03   -0.16081E-02  4806   0.316E-02    0.294E-01
RMM:   5    -0.230838180948E+04    0.45615E-03   -0.18062E-03  3979   0.164E-02    0.195E-01
RMM:   6    -0.230838153489E+04    0.27459E-03   -0.10465E-03  4207   0.145E-02    0.545E-02
RMM:   7    -0.230838154348E+04   -0.85926E-05   -0.13680E-04  3015   0.100E-02    0.302E-02
RMM:   8    -0.230838154960E+04   -0.61134E-05   -0.41758E-05  2882   0.413E-03
  44 F= -.23287713E+04 E0= -.23287713E+04  d E =-.822186E-01  mag=     4.0000
       N       E                     dE             d eps       ncg     rms          rms(c)
DAV:   1    -0.230812150428E+04    0.26004E+00   -0.13472E+01  4432   0.237E+00    0.138E+00
RMM:   2    -0.230838637757E+04   -0.26487E+00   -0.26500E+00  6173   0.511E-01    0.758E-01
RMM:   3    -0.230841194025E+04   -0.25563E-01   -0.27242E-01  5575   0.202E-01    0.463E-01
RMM:   4    -0.230841297952E+04   -0.10393E-02   -0.27761E-02  4965   0.422E-02    0.317E-01
RMM:   5    -0.230841295371E+04    0.25818E-04   -0.30436E-03  4758   0.216E-02    0.339E-01
RMM:   6    -0.230841210993E+04    0.84378E-03   -0.26813E-03  4715   0.216E-02    0.136E-01
RMM:   7    -0.230841203558E+04    0.74350E-04   -0.75254E-04  4245   0.134E-02    0.580E-02
RMM:   8    -0.230841202542E+04    0.10159E-04   -0.94563E-05  2931   0.709E-03    0.302E-02
RMM:   9    -0.230841202599E+04   -0.56831E-06   -0.39417E-05  2846   0.421E-03
  45 F= -.23288031E+04 E0= -.23288031E+04  d E =-.317654E-01  mag=     4.0000
       N       E                     dE             d eps       ncg     rms          rms(c)
DAV:   1    -0.230748449647E+04    0.92753E+00   -0.43097E+01  4432   0.423E+00    0.248E+00
RMM:   2    -0.230836899473E+04   -0.88450E+00   -0.89036E+00  6215   0.944E-01    0.139E+00
RMM:   3    -0.230844024897E+04   -0.71254E-01   -0.80993E-01  5627   0.333E-01    0.826E-01
RMM:   4    -0.230844158074E+04   -0.13318E-02   -0.70751E-02  5173   0.700E-02    0.530E-01
RMM:   5    -0.230843909176E+04    0.24890E-02   -0.75995E-03  4723   0.401E-02    0.283E-01
RMM:   6    -0.230844026704E+04   -0.11753E-02   -0.48689E-03  4982   0.341E-02    0.392E-01
RMM:   7    -0.230843889889E+04    0.13681E-02   -0.20116E-03  4642   0.199E-02    0.748E-02
RMM:   8    -0.230843897524E+04   -0.76354E-04   -0.35217E-04  3211   0.724E-03    0.624E-02
RMM:   9    -0.230843897262E+04    0.26245E-05   -0.13280E-04  2895   0.603E-03    0.194E-02
RMM:  10    -0.230843901313E+04   -0.40509E-04   -0.60603E-05  2903   0.450E-03    0.934E-03
RMM:  11    -0.230843902957E+04   -0.16439E-04   -0.72941E-06  2834   0.349E-03    0.667E-03
RMM:  12    -0.230843904914E+04   -0.19573E-04   -0.70297E-06  2783   0.238E-03    0.473E-03
RMM:  13    -0.230843905688E+04   -0.77419E-05   -0.28964E-06  2694   0.239E-03
  46 F= -.23288323E+04 E0= -.23288323E+04  d E =-.610054E-01  mag=     4.0000
       N       E                     dE             d eps       ncg     rms          rms(c)
DAV:   1    -0.230832995277E+04    0.10910E+00   -0.53312E+00  4440   0.148E+00    0.860E-01
RMM:   2    -0.230843059142E+04   -0.10064E+00   -0.10036E+00  6056   0.306E-01    0.458E-01
RMM:   3    -0.230844062019E+04   -0.10029E-01   -0.10377E-01  5330   0.126E-01    0.279E-01
RMM:   4    -0.230844109909E+04   -0.47890E-03   -0.10996E-02  4487   0.263E-02    0.219E-01
RMM:   5    -0.230844097307E+04    0.12602E-03   -0.12166E-03  3889   0.139E-02    0.193E-01
RMM:   6    -0.230844067604E+04    0.29703E-03   -0.90454E-04  4213   0.141E-02    0.668E-02
RMM:   7    -0.230844067521E+04    0.82442E-06   -0.23082E-04  3313   0.957E-03    0.322E-02
RMM:   8    -0.230844067610E+04   -0.88915E-06   -0.36497E-05  2896   0.479E-03
  47 F= -.23288347E+04 E0= -.23288347E+04  d E =-.633332E-01  mag=     4.0000
       N       E                     dE             d eps       ncg     rms          rms(c)
DAV:   1    -0.230832922235E+04    0.11145E+00   -0.65523E+00  4400   0.177E+00    0.981E-01
RMM:   2    -0.230845368676E+04   -0.12446E+00   -0.12697E+00  5862   0.375E-01    0.534E-01
RMM:   3    -0.230846641886E+04   -0.12732E-01   -0.14462E-01  5279   0.166E-01    0.335E-01
RMM:   4    -0.230846683727E+04   -0.41841E-03   -0.13681E-02  4921   0.345E-02    0.268E-01
RMM:   5    -0.230846657312E+04    0.26414E-03   -0.19671E-03  4615   0.200E-02    0.224E-01
RMM:   6    -0.230846607863E+04    0.49450E-03   -0.12251E-03  4561   0.176E-02    0.752E-02
RMM:   7    -0.230846607811E+04    0.51328E-06   -0.37183E-04  4104   0.132E-02    0.381E-02
RMM:   8    -0.230846607520E+04    0.29140E-05   -0.56384E-05  3022   0.555E-03
  48 F= -.23288611E+04 E0= -.23288611E+04  d E =-.264771E-01  mag=     4.0000
       N       E                     dE             d eps       ncg     rms          rms(c)
DAV:   1    -0.230841207033E+04    0.54008E-01   -0.28567E+00  4464   0.117E+00    0.643E-01
RMM:   2    -0.230846471752E+04   -0.52647E-01   -0.53685E-01  5859   0.245E-01    0.352E-01
RMM:   3    -0.230847017894E+04   -0.54614E-02   -0.61091E-02  5213   0.111E-01    0.215E-01
RMM:   4    -0.230847041425E+04   -0.23531E-03   -0.60114E-03  4550   0.231E-02    0.178E-01
RMM:   5    -0.230847027490E+04    0.13935E-03   -0.85060E-04  3892   0.138E-02    0.140E-01
RMM:   6    -0.230847008430E+04    0.19060E-03   -0.49922E-04  4229   0.123E-02    0.464E-02
RMM:   7    -0.230847008579E+04   -0.14899E-05   -0.14061E-04  3442   0.932E-03    0.230E-02
RMM:   8    -0.230847008789E+04   -0.20997E-05   -0.26049E-05  2883   0.459E-03
  49 F= -.23288658E+04 E0= -.23288658E+04  d E =-.311308E-01  mag=     4.0000
       N       E                     dE             d eps       ncg     rms          rms(c)
DAV:   1    -0.230845170931E+04    0.18376E-01   -0.16938E+00  4432   0.105E+00    0.439E-01
RMM:   2    -0.230847564338E+04   -0.23934E-01   -0.24598E-01  5652   0.195E-01    0.239E-01
RMM:   3    -0.230847767649E+04   -0.20331E-02   -0.25993E-02  4975   0.936E-02    0.147E-01
RMM:   4    -0.230847778796E+04   -0.11146E-03   -0.26027E-03  4374   0.187E-02    0.138E-01
RMM:   5    -0.230847766304E+04    0.12492E-03   -0.46422E-04  3641   0.128E-02    0.878E-02
RMM:   6    -0.230847760025E+04    0.62787E-04   -0.22991E-04  4080   0.949E-03    0.235E-02
RMM:   7    -0.230847760502E+04   -0.47640E-05   -0.39639E-05  2883   0.734E-03
  50 F= -.23288741E+04 E0= -.23288741E+04  d E =-.825932E-02  mag=     4.0000
       N       E                     dE             d eps       ncg     rms          rms(c)
DAV:   1    -0.230846742578E+04    0.10174E-01   -0.70589E-01  4496   0.678E-01    0.284E-01
RMM:   2    -0.230847748461E+04   -0.10059E-01   -0.10357E-01  5649   0.127E-01    0.152E-01
RMM:   3    -0.230847831066E+04   -0.82605E-03   -0.10599E-02  4814   0.586E-02    0.896E-02
RMM:   4    -0.230847833403E+04   -0.23366E-04   -0.10358E-03  3903   0.120E-02    0.658E-02
RMM:   5    -0.230847833424E+04   -0.21039E-06   -0.18413E-04  3102   0.881E-03    0.697E-02
RMM:   6    -0.230847829181E+04    0.42433E-04   -0.99377E-05  3091   0.682E-03    0.172E-02
RMM:   7    -0.230847829239E+04   -0.58243E-06   -0.18856E-05  2865   0.501E-03
  51 F= -.23288752E+04 E0= -.23288752E+04  d E =-.941939E-02  mag=     4.0000
       N       E                     dE             d eps       ncg     rms          rms(c)
DAV:   1    -0.230847622183E+04    0.20700E-02   -0.78237E-01  4432   0.911E-01    0.253E-01
RMM:   2    -0.230848219285E+04   -0.59710E-02   -0.62041E-02  4895   0.142E-01    0.125E-01
RMM:   3    -0.230848249540E+04   -0.30254E-03   -0.58347E-03  4558   0.652E-02    0.738E-02
RMM:   4    -0.230848247437E+04    0.21025E-04   -0.64804E-04  4286   0.135E-02    0.470E-02
RMM:   5    -0.230848245682E+04    0.17551E-04   -0.12200E-04  3798   0.108E-02    0.300E-02
RMM:   6    -0.230848245605E+04    0.77288E-06   -0.37805E-05  2887   0.558E-03
  52 F= -.23288799E+04 E0= -.23288799E+04  d E =-.467302E-02  mag=     4.0000
       N       E                     dE             d eps       ncg     rms          rms(c)
DAV:   1    -0.230847086952E+04    0.11587E-01   -0.16660E+00  4400   0.133E+00    0.370E-01
RMM:   2    -0.230848357447E+04   -0.12705E-01   -0.13199E-01  4810   0.207E-01    0.185E-01
RMM:   3    -0.230848421321E+04   -0.63874E-03   -0.12571E-02  4586   0.921E-02    0.113E-01
RMM:   4    -0.230848418512E+04    0.28086E-04   -0.14013E-03  4498   0.193E-02    0.888E-02
RMM:   5    -0.230848415983E+04    0.25290E-04   -0.34591E-04  4116   0.145E-02    0.756E-02
RMM:   6    -0.230848410684E+04    0.52994E-04   -0.13817E-04  4042   0.882E-03    0.206E-02
RMM:   7    -0.230848410663E+04    0.21415E-06   -0.16716E-05  2845   0.655E-03
  53 F= -.23288823E+04 E0= -.23288823E+04  d E =-.706914E-02  mag=     4.0000
       N       E                     dE             d eps       ncg     rms          rms(c)
DAV:   1    -0.230848360788E+04    0.49896E-03   -0.62396E-01  4480   0.818E-01    0.196E-01
RMM:   2    -0.230848775483E+04   -0.41470E-02   -0.42399E-02  4693   0.125E-01    0.124E-01
RMM:   3    -0.230848790165E+04   -0.14682E-03   -0.38680E-03  4503   0.549E-02    0.101E-01
RMM:   4    -0.230848782792E+04    0.73730E-04   -0.41388E-04  4014   0.109E-02    0.536E-02
RMM:   5    -0.230848779173E+04    0.36186E-04   -0.11453E-04  3625   0.856E-03    0.242E-02
RMM:   6    -0.230848779213E+04   -0.40422E-06   -0.43938E-05  3212   0.669E-03
  54 F= -.23288862E+04 E0= -.23288862E+04  d E =-.391768E-02  mag=     4.0000
       N       E                     dE             d eps       ncg     rms          rms(c)
DAV:   1    -0.230845469548E+04    0.33096E-01   -0.56116E+00  4400   0.245E+00    0.585E-01
RMM:   2    -0.230849158658E+04   -0.36891E-01   -0.37800E-01  4721   0.373E-01    0.363E-01
RMM:   3    -0.230849326994E+04   -0.16834E-02   -0.36305E-02  4505   0.163E-01    0.318E-01
RMM:   4    -0.230849247825E+04    0.79168E-03   -0.37652E-03  5189   0.324E-02    0.164E-01
RMM:   5    -0.230849215821E+04    0.32004E-03   -0.10827E-03  4895   0.230E-02    0.758E-02
RMM:   6    -0.230849214199E+04    0.16217E-04   -0.43555E-04  4694   0.162E-02    0.280E-02
RMM:   7    -0.230849214001E+04    0.19799E-05   -0.41427E-05  3051   0.752E-03
  55 F= -.23288913E+04 E0= -.23288913E+04  d E =-.896289E-02  mag=     4.0000
       N       E                     dE             d eps       ncg     rms          rms(c)
DAV:   1    -0.230849164803E+04    0.49396E-03   -0.82257E-01  4464   0.983E-01    0.219E-01
RMM:   2    -0.230849580480E+04   -0.41568E-02   -0.43456E-02  4859   0.150E-01    0.137E-01
RMM:   3    -0.230849585690E+04   -0.52100E-04   -0.34170E-03  4492   0.618E-02    0.131E-01
RMM:   4    -0.230849570387E+04    0.15303E-03   -0.43132E-04  4601   0.131E-02    0.561E-02
RMM:   5    -0.230849565650E+04    0.47370E-04   -0.15474E-04  4138   0.108E-02    0.245E-02
RMM:   6    -0.230849565553E+04    0.96759E-06   -0.52982E-05  3550   0.743E-03
  56 F= -.23288949E+04 E0= -.23288949E+04  d E =-.368552E-02  mag=     4.0000
       N       E                     dE             d eps       ncg     rms          rms(c)
DAV:   1    -0.230848559869E+04    0.10058E-01   -0.24446E+00  4400   0.169E+00    0.378E-01
RMM:   2    -0.230849793187E+04   -0.12333E-01   -0.12840E-01  4789   0.258E-01    0.248E-01
RMM:   3    -0.230849804989E+04   -0.11802E-03   -0.10460E-02  4498   0.114E-01    0.233E-01
RMM:   4    -0.230849753743E+04    0.51246E-03   -0.12935E-03  5050   0.230E-02    0.955E-02
RMM:   5    -0.230849739399E+04    0.14343E-03   -0.47965E-04  4869   0.177E-02    0.422E-02
RMM:   6    -0.230849738266E+04    0.11333E-04   -0.14430E-04  4340   0.109E-02    0.151E-02
RMM:   7    -0.230849738125E+04    0.14054E-05   -0.15947E-05  2903   0.509E-03
  57 F= -.23288970E+04 E0= -.23288970E+04  d E =-.570388E-02  mag=     4.0000
       N       E                     dE             d eps       ncg     rms          rms(c)
DAV:   1    -0.230849695407E+04    0.42859E-03   -0.76916E-01  4464   0.951E-01    0.187E-01
RMM:   2    -0.230850008669E+04   -0.31326E-02   -0.32973E-02  4605   0.140E-01    0.110E-01
RMM:   3    -0.230850006046E+04    0.26225E-04   -0.26496E-03  4484   0.633E-02    0.932E-02
RMM:   4    -0.230849998957E+04    0.70895E-04   -0.29959E-04  4628   0.120E-02    0.537E-02
RMM:   5    -0.230849994849E+04    0.41072E-04   -0.13044E-04  4065   0.104E-02    0.216E-02
RMM:   6    -0.230849994985E+04   -0.13524E-05   -0.35833E-05  3121   0.689E-03
  58 F= -.23288997E+04 E0= -.23288997E+04  d E =-.278935E-02  mag=     4.0000
       N       E                     dE             d eps       ncg     rms          rms(c)
DAV:   1    -0.230847724337E+04    0.22705E-01   -0.62793E+00  4400   0.272E+00    0.535E-01
RMM:   2    -0.230850299821E+04   -0.25755E-01   -0.27090E-01  4554   0.399E-01    0.321E-01
RMM:   3    -0.230850259006E+04    0.40815E-03   -0.20956E-02  4537   0.161E-01    0.280E-01
RMM:   4    -0.230850189271E+04    0.69735E-03   -0.24007E-03  5218   0.340E-02    0.152E-01
RMM:   5    -0.230850154595E+04    0.34676E-03   -0.11268E-03  4904   0.275E-02    0.589E-02
RMM:   6    -0.230850154769E+04   -0.17409E-05   -0.27178E-04  4610   0.161E-02    0.236E-02
RMM:   7    -0.230850154671E+04    0.98260E-06   -0.27657E-05  3096   0.563E-03
  59 F= -.23289020E+04 E0= -.23289020E+04  d E =-.501903E-02  mag=     4.0000
       N       E                     dE             d eps       ncg     rms          rms(c)
DAV:   1    -0.230850084031E+04    0.70738E-03   -0.28658E-01  4560   0.581E-01    0.113E-01
RMM:   2    -0.230850198229E+04   -0.11420E-02   -0.12021E-02  4885   0.857E-02    0.703E-02
RMM:   3    -0.230850198284E+04   -0.54043E-06   -0.98741E-04  4475   0.403E-02    0.619E-02
RMM:   4    -0.230850194593E+04    0.36906E-04   -0.10336E-04  3205   0.757E-03    0.316E-02
RMM:   5    -0.230850192900E+04    0.16927E-04   -0.48350E-05  3293   0.669E-03    0.117E-02
RMM:   6    -0.230850192920E+04   -0.19305E-06   -0.13310E-05  2849   0.536E-03
  60 F= -.23289022E+04 E0= -.23289022E+04  d E =-.526596E-02  mag=     4.0000
       N       E                     dE             d eps       ncg     rms          rms(c)
DAV:   1    -0.230850173767E+04    0.19134E-03   -0.58954E-01  4400   0.825E-01    0.171E-01
RMM:   2    -0.230850443690E+04   -0.26992E-02   -0.28696E-02  5091   0.129E-01    0.978E-02
RMM:   3    -0.230850449672E+04   -0.59819E-04   -0.24929E-03  4545   0.600E-02    0.106E-01
RMM:   4    -0.230850441452E+04    0.82197E-04   -0.26227E-04  4175   0.111E-02    0.494E-02
RMM:   5    -0.230850437517E+04    0.39354E-04   -0.12880E-04  4074   0.102E-02    0.181E-02
RMM:   6    -0.230850437529E+04   -0.12599E-06   -0.20099E-05  2857   0.671E-03
  61 F= -.23289050E+04 E0= -.23289050E+04  d E =-.278576E-02  mag=     4.0000
       N       E                     dE             d eps       ncg     rms          rms(c)
DAV:   1    -0.230849380295E+04    0.10572E-01   -0.24448E+00  4400   0.168E+00    0.352E-01
RMM:   2    -0.230850520418E+04   -0.11401E-01   -0.12101E-01  5003   0.262E-01    0.202E-01
RMM:   3    -0.230850536435E+04   -0.16018E-03   -0.99569E-03  4629   0.106E-01    0.221E-01
RMM:   4    -0.230850500296E+04    0.36139E-03   -0.11092E-03  5204   0.217E-02    0.100E-01
RMM:   5    -0.230850484672E+04    0.15624E-03   -0.51952E-04  4810   0.188E-02    0.370E-02
RMM:   6    -0.230850484564E+04    0.10827E-05   -0.71529E-05  3728   0.999E-03
  62 F= -.23289062E+04 E0= -.23289062E+04  d E =-.395072E-02  mag=     4.0000
       N       E                     dE             d eps       ncg     rms          rms(c)
DAV:   1    -0.230850466396E+04    0.18276E-03   -0.13789E-01  4544   0.399E-01    0.814E-02
RMM:   2    -0.230850528606E+04   -0.62210E-03   -0.66350E-03  5257   0.625E-02    0.456E-02
RMM:   3    -0.230850529335E+04   -0.72886E-05   -0.53355E-04  3976   0.260E-02    0.463E-02
RMM:   4    -0.230850527806E+04    0.15297E-04   -0.57128E-05  2910   0.581E-03    0.245E-02
RMM:   5    -0.230850526789E+04    0.10162E-04   -0.31752E-05  2967   0.538E-03    0.894E-03
RMM:   6    -0.230850526807E+04   -0.17512E-06   -0.67438E-06  2817   0.423E-03
  63 F= -.23289064E+04 E0= -.23289064E+04  d E =-.420873E-02  mag=     4.0000
       N       E                     dE             d eps       ncg     rms          rms(c)
DAV:   1    -0.230850365816E+04    0.16097E-02   -0.73433E-01  4400   0.922E-01    0.196E-01
RMM:   2    -0.230850744508E+04   -0.37869E-02   -0.39952E-02  5139   0.144E-01    0.136E-01
RMM:   3    -0.230850745784E+04   -0.12766E-04   -0.30899E-03  4574   0.610E-02    0.134E-01
RMM:   4    -0.230850730673E+04    0.15112E-03   -0.38432E-04  4402   0.123E-02    0.509E-02
RMM:   5    -0.230850726172E+04    0.45006E-04   -0.13115E-04  4059   0.103E-02    0.222E-02
RMM:   6    -0.230850725847E+04    0.32504E-05   -0.30530E-05  3043   0.698E-03
  64 F= -.23289088E+04 E0= -.23289088E+04  d E =-.241456E-02  mag=     4.0000
       N       E                     dE             d eps       ncg     rms          rms(c)
DAV:   1    -0.230849687121E+04    0.10391E-01   -0.20934E+00  4400   0.156E+00    0.332E-01
RMM:   2    -0.230850774819E+04   -0.10877E-01   -0.11474E-01  5114   0.243E-01    0.226E-01
RMM:   3    -0.230850776915E+04   -0.20951E-04   -0.85553E-03  4678   0.911E-02    0.230E-01
RMM:   4    -0.230850732444E+04    0.44470E-03   -0.10939E-03  4998   0.202E-02    0.860E-02
RMM:   5    -0.230850720394E+04    0.12050E-03   -0.38507E-04  4689   0.160E-02    0.378E-02
RMM:   6    -0.230850719455E+04    0.93947E-05   -0.81459E-05  4031   0.985E-03
  65 F= -.23289095E+04 E0= -.23289095E+04  d E =-.306505E-02  mag=     4.0000
       N       E                     dE             d eps       ncg     rms          rms(c)
DAV:   1    -0.230850701371E+04    0.19023E-03   -0.11623E-01  4576   0.366E-01    0.771E-02
RMM:   2    -0.230850761119E+04   -0.59748E-03   -0.62404E-03  5399   0.586E-02    0.615E-02
RMM:   3    -0.230850760319E+04    0.79936E-05   -0.49117E-04  3918   0.232E-02    0.524E-02
RMM:   4    -0.230850757862E+04    0.24570E-04   -0.55837E-05  2891   0.560E-03    0.202E-02
RMM:   5    -0.230850757130E+04    0.73221E-05   -0.22685E-05  2902   0.460E-03
  66 F= -.23289097E+04 E0= -.23289097E+04  d E =-.327472E-02  mag=     4.0000
       N       E                     dE             d eps       ncg     rms          rms(c)
DAV:   1    -0.230850734341E+04    0.23522E-03   -0.50943E-01  4400   0.766E-01    0.159E-01
RMM:   2    -0.230850926821E+04   -0.19248E-02   -0.20982E-02  4829   0.115E-01    0.880E-02
RMM:   3    -0.230850921464E+04    0.53576E-04   -0.15175E-03  4461   0.525E-02    0.811E-02
RMM:   4    -0.230850915747E+04    0.57171E-04   -0.18475E-04  4136   0.101E-02    0.450E-02
RMM:   5    -0.230850912180E+04    0.35670E-04   -0.11185E-04  4009   0.998E-03    0.160E-02
RMM:   6    -0.230850912111E+04    0.68542E-06   -0.20536E-05  2885   0.607E-03
  67 F= -.23289114E+04 E0= -.23289114E+04  d E =-.167276E-02  mag=     4.0000
       N       E                     dE             d eps       ncg     rms          rms(c)
DAV:   1    -0.230850660797E+04    0.25138E-02   -0.78952E-01  4400   0.953E-01    0.200E-01
RMM:   2    -0.230850960430E+04   -0.29963E-02   -0.32670E-02  4884   0.143E-01    0.111E-01
RMM:   3    -0.230850953307E+04    0.71233E-04   -0.23493E-03  4516   0.623E-02    0.104E-01
RMM:   4    -0.230850943871E+04    0.94361E-04   -0.29234E-04  4510   0.126E-02    0.561E-02
RMM:   5    -0.230850938489E+04    0.53817E-04   -0.18047E-04  4267   0.122E-02    0.183E-02
RMM:   6    -0.230850938413E+04    0.75833E-06   -0.28439E-05  2951   0.698E-03
  68 F= -.23289118E+04 E0= -.23289118E+04  d E =-.208629E-02  mag=     4.0000
       N       E                     dE             d eps       ncg     rms          rms(c)
DAV:   1    -0.230850956431E+04   -0.17942E-03   -0.39046E-01  4408   0.666E-01    0.127E-01
RMM:   2    -0.230851087762E+04   -0.13133E-02   -0.13976E-02  4712   0.976E-02    0.808E-02
RMM:   3    -0.230851083549E+04    0.42137E-04   -0.10322E-03  4480   0.454E-02    0.695E-02
RMM:   4    -0.230851078832E+04    0.47166E-04   -0.11422E-04  3740   0.857E-03    0.370E-02
RMM:   5    -0.230851076729E+04    0.21034E-04   -0.81244E-05  3794   0.848E-03    0.124E-02
RMM:   6    -0.230851076759E+04   -0.30067E-06   -0.13529E-05  2856   0.564E-03
  69 F= -.23289131E+04 E0= -.23289131E+04  d E =-.134834E-02  mag=     4.0000
       N       E                     dE             d eps       ncg     rms          rms(c)
DAV:   1    -0.230850164176E+04    0.91255E-02   -0.35046E+00  4400   0.200E+00    0.377E-01
RMM:   2    -0.230851347570E+04   -0.11834E-01   -0.12598E-01  4573   0.290E-01    0.240E-01
RMM:   3    -0.230851300139E+04    0.47431E-03   -0.86246E-03  4571   0.116E-01    0.206E-01
RMM:   4    -0.230851257880E+04    0.42260E-03   -0.10226E-03  5117   0.248E-02    0.112E-01
RMM:   5    -0.230851238917E+04    0.18962E-03   -0.77799E-04  4798   0.232E-02    0.364E-02
RMM:   6    -0.230851238904E+04    0.13126E-06   -0.10063E-04  4114   0.123E-02    0.171E-02
RMM:   7    -0.230851238671E+04    0.23332E-05   -0.16485E-05  2889   0.381E-03
  70 F= -.23289146E+04 E0= -.23289146E+04  d E =-.285635E-02  mag=     4.0000
       N       E                     dE             d eps       ncg     rms          rms(c)
DAV:   1    -0.230851237444E+04    0.14597E-04   -0.53770E-01  4432   0.785E-01    0.178E-01
RMM:   2    -0.230851443029E+04   -0.20558E-02   -0.21521E-02  4504   0.119E-01    0.120E-01
RMM:   3    -0.230851436407E+04    0.66212E-04   -0.16013E-03  4459   0.537E-02    0.103E-01
RMM:   4    -0.230851426283E+04    0.10125E-03   -0.22520E-04  4417   0.117E-02    0.470E-02
RMM:   5    -0.230851423083E+04    0.31995E-04   -0.11298E-04  4014   0.105E-02    0.172E-02
RMM:   6    -0.230851423116E+04   -0.32657E-06   -0.25264E-05  2930   0.615E-03
  71 F= -.23289164E+04 E0= -.23289164E+04  d E =-.176872E-02  mag=     4.0000
       N       E                     dE             d eps       ncg     rms          rms(c)
DAV:   1    -0.230851323775E+04    0.99309E-03   -0.39149E-01  4432   0.670E-01    0.153E-01
RMM:   2    -0.230851472295E+04   -0.14852E-02   -0.15646E-02  4588   0.102E-01    0.979E-02
RMM:   3    -0.230851469144E+04    0.31512E-04   -0.12173E-03  4440   0.506E-02    0.866E-02
RMM:   4    -0.230851462118E+04    0.70252E-04   -0.16799E-04  4136   0.100E-02    0.409E-02
RMM:   5    -0.230851459622E+04    0.24961E-04   -0.83159E-05  3825   0.916E-03    0.148E-02
RMM:   6    -0.230851459586E+04    0.36217E-06   -0.19811E-05  2886   0.565E-03
  72 F= -.23289167E+04 E0= -.23289167E+04  d E =-.206899E-02  mag=     4.0000
       N       E                     dE             d eps       ncg     rms          rms(c)
DAV:   1    -0.230851254332E+04    0.20529E-02   -0.67574E-01  4400   0.886E-01    0.201E-01
RMM:   2    -0.230851619972E+04   -0.36564E-02   -0.37950E-02  4803   0.136E-01    0.131E-01
RMM:   3    -0.230851623976E+04   -0.40040E-04   -0.35666E-03  4445   0.681E-02    0.100E-01
RMM:   4    -0.230851615919E+04    0.80567E-04   -0.36343E-04  4505   0.123E-02    0.537E-02
RMM:   5    -0.230851611760E+04    0.41590E-04   -0.12194E-04  3793   0.100E-02    0.254E-02
RMM:   6    -0.230851611754E+04    0.60740E-07   -0.53143E-05  3473   0.708E-03
  73 F= -.23289182E+04 E0= -.23289182E+04  d E =-.147004E-02  mag=     4.0000
       N       E                     dE             d eps       ncg     rms          rms(c)
DAV:   1    -0.230851493286E+04    0.11847E-02   -0.26131E-01  4464   0.551E-01    0.126E-01
RMM:   2    -0.230851634754E+04   -0.14147E-02   -0.14696E-02  5455   0.865E-02    0.827E-02
RMM:   3    -0.230851637104E+04   -0.23504E-04   -0.13449E-03  4553   0.371E-02    0.641E-02
RMM:   4    -0.230851633751E+04    0.33536E-04   -0.13246E-04  3146   0.790E-03    0.336E-02
RMM:   5    -0.230851632236E+04    0.15146E-04   -0.49234E-05  3057   0.648E-03    0.154E-02
RMM:   6    -0.230851632248E+04   -0.11621E-06   -0.19746E-05  2869   0.546E-03
  74 F= -.23289184E+04 E0= -.23289184E+04  d E =-.164289E-02  mag=     4.0000
       N       E                     dE             d eps       ncg     rms          rms(c)
DAV:   1    -0.230851575821E+04    0.56415E-03   -0.43271E-01  4400   0.719E-01    0.167E-01
RMM:   2    -0.230851789230E+04   -0.21341E-02   -0.21714E-02  4890   0.112E-01    0.132E-01
RMM:   3    -0.230851783687E+04    0.55432E-04   -0.17183E-03  4460   0.524E-02    0.100E-01
RMM:   4    -0.230851773905E+04    0.97815E-04   -0.21745E-04  4181   0.107E-02    0.406E-02
RMM:   5    -0.230851771076E+04    0.28291E-04   -0.84617E-05  3872   0.929E-03    0.165E-02
RMM:   6    -0.230851771048E+04    0.28778E-06   -0.24491E-05  2925   0.612E-03
  75 F= -.23289197E+04 E0= -.23289197E+04  d E =-.131139E-02  mag=     4.0000
       N       E                     dE             d eps       ncg     rms          rms(c)
DAV:   1    -0.230851717562E+04    0.53514E-03   -0.16088E-01  4512   0.439E-01    0.102E-01
RMM:   2    -0.230851797687E+04   -0.80125E-03   -0.81670E-03  5222   0.698E-02    0.789E-02
RMM:   3    -0.230851796048E+04    0.16387E-04   -0.64272E-04  4266   0.307E-02    0.618E-02
RMM:   4    -0.230851792366E+04    0.36821E-04   -0.77596E-05  3013   0.692E-03    0.252E-02
RMM:   5    -0.230851791295E+04    0.10707E-04   -0.33755E-05  3043   0.600E-03    0.102E-02
RMM:   6    -0.230851791289E+04    0.60303E-07   -0.10513E-05  2831   0.496E-03
  76 F= -.23289198E+04 E0= -.23289198E+04  d E =-.146690E-02  mag=     4.0000
       N       E                     dE             d eps       ncg     rms          rms(c)
DAV:   1    -0.230851697418E+04    0.93878E-03   -0.42188E-01  4400   0.704E-01    0.160E-01
RMM:   2    -0.230851927520E+04   -0.23010E-02   -0.23690E-02  4964   0.110E-01    0.122E-01
RMM:   3    -0.230851925492E+04    0.20283E-04   -0.18907E-03  4452   0.497E-02    0.937E-02
RMM:   4    -0.230851916848E+04    0.86434E-04   -0.22436E-04  4064   0.992E-03    0.407E-02
RMM:   5    -0.230851914062E+04    0.27867E-04   -0.81540E-05  3723   0.861E-03    0.162E-02
RMM:   6    -0.230851914079E+04   -0.17934E-06   -0.24324E-05  2900   0.606E-03
  77 F= -.23289209E+04 E0= -.23289209E+04  d E =-.109383E-02  mag=     4.0000
       N       E                     dE             d eps       ncg     rms          rms(c)
DAV:   1    -0.230851767285E+04    0.14678E-02   -0.35030E-01  4408   0.642E-01    0.147E-01
RMM:   2    -0.230851959354E+04   -0.19207E-02   -0.19768E-02  5088   0.101E-01    0.111E-01
RMM:   3    -0.230851957656E+04    0.16976E-04   -0.15673E-03  4502   0.430E-02    0.862E-02
RMM:   4    -0.230851950397E+04    0.72593E-04   -0.18471E-04  3697   0.905E-03    0.373E-02
RMM:   5    -0.230851948034E+04    0.23626E-04   -0.68973E-05  3576   0.785E-03    0.150E-02
RMM:   6    -0.230851948017E+04    0.17695E-06   -0.20267E-05  2870   0.588E-03
  78 F= -.23289211E+04 E0= -.23289211E+04  d E =-.130973E-02  mag=     4.0000
       N       E                     dE             d eps       ncg     rms          rms(c)
DAV:   1    -0.230851738535E+04    0.20950E-02   -0.58506E-01  4400   0.832E-01    0.184E-01
RMM:   2    -0.230852085770E+04   -0.34723E-02   -0.35865E-02  4939   0.130E-01    0.137E-01
RMM:   3    -0.230852087119E+04   -0.13490E-04   -0.31309E-03  4518   0.614E-02    0.101E-01
RMM:   4    -0.230852077763E+04    0.93558E-04   -0.33791E-04  4398   0.117E-02    0.496E-02
RMM:   5    -0.230852073750E+04    0.40128E-04   -0.11255E-04  3935   0.986E-03    0.197E-02
RMM:   6    -0.230852073723E+04    0.26790E-06   -0.35396E-05  3098   0.668E-03
  79 F= -.23289222E+04 E0= -.23289222E+04  d E =-.104880E-02  mag=     4.0000
       N       E                     dE             d eps       ncg     rms          rms(c)
DAV:   1    -0.230851992108E+04    0.81642E-03   -0.17453E-01  4480   0.455E-01    0.102E-01
RMM:   2    -0.230852096466E+04   -0.10436E-02   -0.10764E-02  5467   0.730E-02    0.770E-02
RMM:   3    -0.230852097290E+04   -0.82415E-05   -0.93216E-04  4258   0.308E-02    0.564E-02
RMM:   4    -0.230852094358E+04    0.29320E-04   -0.97173E-05  2979   0.689E-03    0.273E-02
RMM:   5    -0.230852093165E+04    0.11937E-04   -0.36044E-05  2999   0.581E-03    0.109E-02
RMM:   6    -0.230852093159E+04    0.58528E-07   -0.11845E-05  2838   0.490E-03
[...]
       N       E                     dE             d eps       ncg     rms          rms(c)
DAV:   1    -0.230860845425E+04    0.82285E-02   -0.10734E+00  4408   0.738E-01    0.319E-01
RMM:   2    -0.230861751777E+04   -0.90635E-02   -0.92661E-02  5822   0.131E-01    0.206E-01
RMM:   3    -0.230861836941E+04   -0.85164E-03   -0.10233E-02  5077   0.580E-02    0.175E-01
RMM:   4    -0.230861823564E+04    0.13377E-03   -0.11708E-03  3790   0.132E-02    0.101E-01
RMM:   5    -0.230861818296E+04    0.52682E-04   -0.38563E-04  3877   0.113E-02    0.460E-02
RMM:   6    -0.230861817630E+04    0.66581E-05   -0.81512E-05  2964   0.693E-03
 273 F= -.23289867E+04 E0= -.23289867E+04  d E =-.156841E-02  mag=     4.0000
       N       E                     dE             d eps       ncg     rms          rms(c)
DAV:   1    -0.230860892686E+04    0.92561E-02   -0.10507E+00  4408   0.732E-01    0.317E-01
RMM:   2    -0.230861781952E+04   -0.88927E-02   -0.90905E-02  5785   0.130E-01    0.208E-01
RMM:   3    -0.230861865378E+04   -0.83425E-03   -0.99304E-03  5050   0.557E-02    0.180E-01
RMM:   4    -0.230861848867E+04    0.16511E-03   -0.11428E-03  3747   0.131E-02    0.998E-02
RMM:   5    -0.230861843543E+04    0.53241E-04   -0.36876E-04  3929   0.110E-02    0.414E-02
RMM:   6    -0.230861843114E+04    0.42875E-05   -0.72264E-05  2929   0.682E-03
 274 F= -.23289870E+04 E0= -.23289870E+04  d E =-.190193E-02  mag=     4.0000
       N       E                     dE             d eps       ncg     rms          rms(c)
DAV:   1    -0.230860883894E+04    0.95965E-02   -0.11817E+00  4408   0.745E-01    0.320E-01
RMM:   2    -0.230861901947E+04   -0.10181E-01   -0.10480E-01  5925   0.132E-01    0.212E-01
RMM:   3    -0.230861991645E+04   -0.89698E-03   -0.10812E-02  5119   0.573E-02    0.172E-01
RMM:   4    -0.230861980652E+04    0.10993E-03   -0.12806E-03  3442   0.130E-02    0.108E-01
RMM:   5    -0.230861974899E+04    0.57533E-04   -0.41322E-04  3756   0.109E-02    0.450E-02
RMM:   6    -0.230861974390E+04    0.50855E-05   -0.76886E-05  2934   0.685E-03
 275 F= -.23289885E+04 E0= -.23289885E+04  d E =-.149263E-02  mag=     4.0000
       N       E                     dE             d eps       ncg     rms          rms(c)
DAV:   1    -0.230860561755E+04    0.14131E-01   -0.15588E+00  4400   0.855E-01    0.367E-01
RMM:   2    -0.230861907415E+04   -0.13457E-01   -0.13865E-01  5796   0.151E-01    0.244E-01
RMM:   3    -0.230862024992E+04   -0.11758E-02   -0.14050E-02  5076   0.650E-02    0.201E-01
RMM:   4    -0.230862009268E+04    0.15724E-03   -0.16853E-03  3863   0.147E-02    0.124E-01
RMM:   5    -0.230862000824E+04    0.84447E-04   -0.53902E-04  3985   0.122E-02    0.514E-02
RMM:   6    -0.230862000339E+04    0.48470E-05   -0.92868E-05  2968   0.730E-03
 276 F= -.23289890E+04 E0= -.23289890E+04  d E =-.197158E-02  mag=     4.0000
       N       E                     dE             d eps       ncg     rms          rms(c)
DAV:   1    -0.230861153574E+04    0.84725E-02   -0.10392E+00  4400   0.774E-01    0.324E-01
RMM:   2    -0.230862090629E+04   -0.93706E-02   -0.97646E-02  5766   0.139E-01    0.199E-01
RMM:   3    -0.230862168787E+04   -0.78158E-03   -0.97195E-03  5078   0.601E-02    0.169E-01
RMM:   4    -0.230862155880E+04    0.12907E-03   -0.11970E-03  3936   0.138E-02    0.102E-01
RMM:   5    -0.230862149049E+04    0.68307E-04   -0.36335E-04  4039   0.116E-02    0.416E-02
RMM:   6    -0.230862148632E+04    0.41746E-05   -0.79105E-05  2984   0.722E-03
 277 F= -.23289906E+04 E0= -.23289906E+04  d E =-.162032E-02  mag=     4.0000
       N       E                     dE             d eps       ncg     rms          rms(c)
DAV:   1    -0.230861896947E+04    0.25210E-02   -0.26802E-01  4512   0.393E-01    0.165E-01
RMM:   2    -0.230862140198E+04   -0.24325E-02   -0.25330E-02  6013   0.724E-02    0.102E-01
RMM:   3    -0.230862159914E+04   -0.19716E-03   -0.24717E-03  4047   0.301E-02    0.855E-02
RMM:   4    -0.230862156794E+04    0.31195E-04   -0.30768E-04  2924   0.785E-03    0.520E-02
RMM:   5    -0.230862155040E+04    0.17544E-04   -0.92856E-05  2972   0.632E-03    0.215E-02
RMM:   6    -0.230862154944E+04    0.96526E-06   -0.20850E-05  2869   0.494E-03
 278 F= -.23289908E+04 E0= -.23289908E+04  d E =-.175615E-02  mag=     4.0000
       N       E                     dE             d eps       ncg     rms          rms(c)
DAV:   1    -0.230861501715E+04    0.65333E-02   -0.84338E-01  4400   0.689E-01    0.281E-01
RMM:   2    -0.230862265628E+04   -0.76391E-02   -0.78726E-02  5832   0.125E-01    0.191E-01
RMM:   3    -0.230862313683E+04   -0.48055E-03   -0.66703E-03  4952   0.507E-02    0.170E-01
RMM:   4    -0.230862295745E+04    0.17937E-03   -0.85243E-04  3702   0.125E-02    0.879E-02
RMM:   5    -0.230862290040E+04    0.57055E-04   -0.29690E-04  4003   0.108E-02    0.313E-02
RMM:   6    -0.230862289797E+04    0.24250E-05   -0.49408E-05  2908   0.683E-03
 279 F= -.23289921E+04 E0= -.23289921E+04  d E =-.129798E-02  mag=     4.0000
       N       E                     dE             d eps       ncg     rms          rms(c)
DAV:   1    -0.230862107852E+04    0.18219E-02   -0.20324E-01  4448   0.338E-01    0.139E-01
RMM:   2    -0.230862293360E+04   -0.18551E-02   -0.19154E-02  5985   0.625E-02    0.940E-02
RMM:   3    -0.230862305070E+04   -0.11710E-03   -0.16360E-03  3648   0.243E-02    0.820E-02
RMM:   4    -0.230862301187E+04    0.38834E-04   -0.20845E-04  2899   0.718E-03    0.438E-02
RMM:   5    -0.230862299756E+04    0.14312E-04   -0.72468E-05  2958   0.590E-03    0.159E-02
RMM:   6    -0.230862299699E+04    0.56584E-06   -0.13996E-05  2866   0.461E-03
 280 F= -.23289921E+04 E0= -.23289921E+04  d E =-.137426E-02  mag=     4.0000
       N       E                     dE             d eps       ncg     rms          rms(c)
DAV:   1    -0.230861681212E+04    0.61854E-02   -0.83641E-01  4400   0.715E-01    0.283E-01
RMM:   2    -0.230862403101E+04   -0.72189E-02   -0.74312E-02  5783   0.128E-01    0.186E-01
RMM:   3    -0.230862450521E+04   -0.47420E-03   -0.65612E-03  4991   0.520E-02    0.177E-01
RMM:   4    -0.230862429581E+04    0.20940E-03   -0.83511E-04  3839   0.125E-02    0.846E-02
RMM:   5    -0.230862423967E+04    0.56136E-04   -0.28787E-04  4004   0.107E-02    0.302E-02
RMM:   6    -0.230862423992E+04   -0.24619E-06   -0.46838E-05  2903   0.689E-03
 281 F= -.23289933E+04 E0= -.23289933E+04  d E =-.115069E-02  mag=     4.0000
       N       E                     dE             d eps       ncg     rms          rms(c)
DAV:   1    -0.230862332173E+04    0.91795E-03   -0.10951E-01  4512   0.259E-01    0.104E-01
RMM:   2    -0.230862427976E+04   -0.95803E-03   -0.98579E-03  6072   0.481E-02    0.676E-02
RMM:   3    -0.230862434262E+04   -0.62857E-04   -0.85265E-04  3328   0.184E-02    0.631E-02
RMM:   4    -0.230862431768E+04    0.24939E-04   -0.11041E-04  2874   0.565E-03    0.311E-02
RMM:   5    -0.230862430996E+04    0.77187E-05   -0.37544E-05  2875   0.431E-03
 282 F= -.23289933E+04 E0= -.23289933E+04  d E =-.118839E-02  mag=     4.0000
       N       E                     dE             d eps       ncg     rms          rms(c)
DAV:   1    -0.230861837910E+04    0.59386E-02   -0.80758E-01  4400   0.701E-01    0.269E-01
RMM:   2    -0.230862508149E+04   -0.67024E-02   -0.69215E-02  5852   0.125E-01    0.168E-01
RMM:   3    -0.230862555957E+04   -0.47807E-03   -0.62045E-03  4970   0.489E-02    0.150E-01
RMM:   4    -0.230862544423E+04    0.11534E-03   -0.77272E-04  3769   0.121E-02    0.906E-02
RMM:   5    -0.230862538022E+04    0.64008E-04   -0.31058E-04  4011   0.111E-02    0.336E-02
RMM:   6    -0.230862537578E+04    0.44417E-05   -0.53566E-05  2919   0.679E-03
 283 F= -.23289944E+04 E0= -.23289944E+04  d E =-.112740E-02  mag=     4.0000
       N       E                     dE             d eps       ncg     rms          rms(c)
DAV:   1    -0.230862460011E+04    0.78012E-03   -0.89949E-02  4464   0.234E-01    0.909E-02
RMM:   2    -0.230862535799E+04   -0.75789E-03   -0.78272E-03  6072   0.433E-02    0.589E-02
RMM:   3    -0.230862541041E+04   -0.52411E-04   -0.67187E-04  3147   0.160E-02    0.540E-02
RMM:   4    -0.230862539354E+04    0.16867E-04   -0.87189E-05  2870   0.515E-03    0.298E-02
RMM:   5    -0.230862538573E+04    0.78088E-05   -0.33949E-05  2879   0.419E-03
 284 F= -.23289945E+04 E0= -.23289945E+04  d E =-.115890E-02  mag=     4.0000
       N       E                     dE             d eps       ncg     rms          rms(c)
DAV:   1    -0.230861923683E+04    0.61567E-02   -0.96367E-01  4400   0.776E-01    0.293E-01
RMM:   2    -0.230862595020E+04   -0.67134E-02   -0.69877E-02  5764   0.132E-01    0.164E-01
RMM:   3    -0.230862638281E+04   -0.43262E-03   -0.58797E-03  4985   0.540E-02    0.130E-01
RMM:   4    -0.230862636699E+04    0.15823E-04   -0.83552E-04  4100   0.132E-02    0.108E-01
RMM:   5    -0.230862628077E+04    0.86222E-04   -0.32730E-04  4060   0.118E-02    0.406E-02
RMM:   6    -0.230862627214E+04    0.86258E-05   -0.59056E-05  2923   0.659E-03
 285 F= -.23289955E+04 E0= -.23289955E+04  d E =-.105160E-02  mag=     4.0000
       N       E                     dE             d eps       ncg     rms          rms(c)
DAV:   1    -0.230862514021E+04    0.11406E-02   -0.13307E-01  4448   0.288E-01    0.110E-01
RMM:   2    -0.230862607106E+04   -0.93086E-03   -0.96564E-03  6029   0.508E-02    0.621E-02
RMM:   3    -0.230862613887E+04   -0.67807E-04   -0.88586E-04  3447   0.199E-02    0.496E-02
RMM:   4    -0.230862613702E+04    0.18463E-05   -0.12562E-04  2884   0.580E-03    0.399E-02
RMM:   5    -0.230862612465E+04    0.12374E-04   -0.45590E-05  2870   0.483E-03    0.156E-02
RMM:   6    -0.230862612376E+04    0.88292E-06   -0.95191E-06  2851   0.375E-03
 286 F= -.23289954E+04 E0= -.23289954E+04  d E =-.965946E-03  mag=     4.0000
       N       E                     dE             d eps       ncg     rms          rms(c)
DAV:   1    -0.230862587043E+04    0.25422E-03   -0.52602E-02  4464   0.181E-01    0.676E-02
RMM:   2    -0.230862623397E+04   -0.36354E-03   -0.37588E-03  5834   0.313E-02    0.391E-02
RMM:   3    -0.230862625504E+04   -0.21070E-04   -0.30483E-04  2969   0.129E-02    0.313E-02
RMM:   4    -0.230862625272E+04    0.23253E-05   -0.43925E-05  2859   0.390E-03
 287 F= -.23289955E+04 E0= -.23289955E+04  d E =-.105549E-02  mag=     4.0000
       N       E                     dE             d eps       ncg     rms          rms(c)
DAV:   1    -0.230861958056E+04    0.66745E-02   -0.10238E+00  4400   0.761E-01    0.285E-01
RMM:   2    -0.230862676037E+04   -0.71798E-02   -0.74969E-02  5663   0.130E-01    0.161E-01
RMM:   3    -0.230862723935E+04   -0.47898E-03   -0.67707E-03  4948   0.538E-02    0.106E-01
RMM:   4    -0.230862725771E+04   -0.18354E-04   -0.90889E-04  4121   0.138E-02    0.885E-02
RMM:   5    -0.230862723669E+04    0.21019E-04   -0.30384E-04  3306   0.113E-02    0.678E-02
RMM:   6    -0.230862719660E+04    0.40085E-04   -0.70642E-05  2901   0.619E-03    0.147E-02
RMM:   7    -0.230862719519E+04    0.14110E-05   -0.10319E-05  2854   0.403E-03
 288 F= -.23289966E+04 E0= -.23289966E+04  d E =-.111245E-02  mag=     4.0000
       N       E                     dE             d eps       ncg     rms          rms(c)
DAV:   1    -0.230862697294E+04    0.22366E-03   -0.28013E-02  4736   0.126E-01    0.479E-02
RMM:   2    -0.230862717330E+04   -0.20036E-03   -0.20830E-03  5637   0.222E-02    0.274E-02
RMM:   3    -0.230862718680E+04   -0.13496E-04   -0.18625E-04  2877   0.969E-03    0.181E-02
RMM:   4    -0.230862718830E+04   -0.15013E-05   -0.28011E-05  2870   0.294E-03
 289 F= -.23289967E+04 E0= -.23289967E+04  d E =-.113429E-02  mag=     4.0000
       N       E                     dE             d eps       ncg     rms          rms(c)
DAV:   1    -0.230862231557E+04    0.48712E-02   -0.74191E-01  4400   0.690E-01    0.266E-01
RMM:   2    -0.230862761271E+04   -0.52971E-02   -0.55913E-02  5680   0.118E-01    0.146E-01
RMM:   3    -0.230862801420E+04   -0.40149E-03   -0.53531E-03  4834   0.496E-02    0.127E-01
RMM:   4    -0.230862797251E+04    0.41691E-04   -0.76233E-04  3850   0.122E-02    0.950E-02
RMM:   5    -0.230862789136E+04    0.81150E-04   -0.23379E-04  4019   0.107E-02    0.290E-02
RMM:   6    -0.230862788994E+04    0.14219E-05   -0.45941E-05  2914   0.644E-03
 290 F= -.23289976E+04 E0= -.23289976E+04  d E =-.895009E-03  mag=     4.0000
       N       E                     dE             d eps       ncg     rms          rms(c)
DAV:   1    -0.230862785672E+04    0.34637E-04   -0.18840E-03  5120   0.352E-02    0.153E-02
RMM:   2    -0.230862787163E+04   -0.14905E-04   -0.16217E-04  3093   0.762E-03    0.972E-03
RMM:   3    -0.230862787328E+04   -0.16518E-05   -0.17057E-05  2780   0.477E-03
 291 F= -.23289976E+04 E0= -.23289976E+04  d E =-.888295E-03  mag=     4.0000
       N       E                     dE             d eps       ncg     rms          rms(c)
DAV:   1    -0.230862286067E+04    0.50110E-02   -0.65815E-01  4400   0.637E-01    0.245E-01
RMM:   2    -0.230862831595E+04   -0.54553E-02   -0.56996E-02  5726   0.112E-01    0.140E-01
RMM:   3    -0.230862867683E+04   -0.36089E-03   -0.46849E-03  4827   0.452E-02    0.114E-01
RMM:   4    -0.230862866406E+04    0.12777E-04   -0.66818E-04  3571   0.111E-02    0.911E-02
RMM:   5    -0.230862859598E+04    0.68076E-04   -0.22455E-04  3577   0.977E-03    0.329E-02
RMM:   6    -0.230862859170E+04    0.42800E-05   -0.47392E-05  2896   0.629E-03
 292 F= -.23289984E+04 E0= -.23289984E+04  d E =-.839169E-03  mag=     4.0000
       N       E                     dE             d eps       ncg     rms          rms(c)
DAV:   1    -0.230862342200E+04    0.51740E-02   -0.55566E-01  4400   0.585E-01    0.225E-01
RMM:   2    -0.230862796511E+04   -0.45431E-02   -0.47549E-02  5750   0.103E-01    0.129E-01
RMM:   3    -0.230862832043E+04   -0.35532E-03   -0.44705E-03  4909   0.429E-02    0.106E-01
RMM:   4    -0.230862830638E+04    0.14050E-04   -0.61304E-04  3306   0.101E-02    0.820E-02
RMM:   5    -0.230862825224E+04    0.54142E-04   -0.18009E-04  3413   0.871E-03    0.300E-02
RMM:   6    -0.230862824801E+04    0.42299E-05   -0.40868E-05  2881   0.609E-03
 293 F= -.23289982E+04 E0= -.23289982E+04  d E =-.609731E-03  mag=     4.0000
       N       E                     dE             d eps       ncg     rms          rms(c)
DAV:   1    -0.230862675163E+04    0.15006E-02   -0.21059E-01  4400   0.362E-01    0.137E-01
RMM:   2    -0.230862849931E+04   -0.17477E-02   -0.18182E-02  5991   0.642E-02    0.795E-02
RMM:   3    -0.230862860107E+04   -0.10176E-03   -0.14217E-03  3881   0.252E-02    0.625E-02
RMM:   4    -0.230862859519E+04    0.58731E-05   -0.20093E-04  2905   0.697E-03    0.493E-02
RMM:   5    -0.230862857409E+04    0.21107E-04   -0.70876E-05  2898   0.589E-03    0.191E-02
RMM:   6    -0.230862857298E+04    0.11058E-05   -0.15176E-05  2870   0.456E-03
 294 F= -.23289984E+04 E0= -.23289984E+04  d E =-.864086E-03  mag=     4.0000
       N       E                     dE             d eps       ncg     rms          rms(c)
DAV:   1    -0.230862586983E+04    0.27043E-02   -0.40167E-01  4400   0.490E-01    0.189E-01
RMM:   2    -0.230862926771E+04   -0.33979E-02   -0.35321E-02  5933   0.867E-02    0.110E-01
RMM:   3    -0.230862949802E+04   -0.23031E-03   -0.29134E-03  4364   0.337E-02    0.956E-02
RMM:   4    -0.230862946862E+04    0.29394E-04   -0.39268E-04  3015   0.869E-03    0.664E-02
RMM:   5    -0.230862942817E+04    0.40452E-04   -0.12920E-04  3249   0.737E-03    0.231E-02
RMM:   6    -0.230862942623E+04    0.19412E-05   -0.27094E-05  2868   0.553E-03
 295 F= -.23289993E+04 E0= -.23289993E+04  d E =-.835998E-03  mag=     4.0000
       N       E                     dE             d eps       ncg     rms          rms(c)
DAV:   1    -0.230862133405E+04    0.80941E-02   -0.93373E-01  4400   0.746E-01    0.291E-01
RMM:   2    -0.230862923064E+04   -0.78966E-02   -0.82362E-02  5713   0.131E-01    0.167E-01
RMM:   3    -0.230862980154E+04   -0.57089E-03   -0.70697E-03  4944   0.539E-02    0.147E-01
RMM:   4    -0.230862973656E+04    0.64976E-04   -0.93650E-04  3708   0.124E-02    0.103E-01
RMM:   5    -0.230862965454E+04    0.82021E-04   -0.29139E-04  3918   0.106E-02    0.365E-02
RMM:   6    -0.230862964730E+04    0.72387E-05   -0.65430E-05  2926   0.683E-03
 296 F= -.23289995E+04 E0= -.23289995E+04  d E =-.103481E-02  mag=     4.0000
       N       E                     dE             d eps       ncg     rms          rms(c)
DAV:   1    -0.230862773241E+04    0.19221E-02   -0.28772E-01  4400   0.395E-01    0.152E-01
RMM:   2    -0.230863012519E+04   -0.23928E-02   -0.24745E-02  6064   0.693E-02    0.905E-02
RMM:   3    -0.230863030303E+04   -0.17784E-03   -0.20914E-03  3795   0.271E-02    0.746E-02
RMM:   4    -0.230863030086E+04    0.21677E-05   -0.27913E-04  2937   0.739E-03    0.598E-02
RMM:   5    -0.230863026949E+04    0.31368E-04   -0.85547E-05  2928   0.572E-03    0.197E-02
RMM:   6    -0.230863026917E+04    0.32413E-06   -0.19246E-05  2855   0.435E-03
 297 F= -.23290001E+04 E0= -.23290001E+04  d E =-.640052E-03  mag=     4.0000
       N       E                     dE             d eps       ncg     rms          rms(c)
DAV:   1    -0.230860824686E+04    0.22023E-01   -0.25938E+00  4400   0.118E+00    0.453E-01
RMM:   2    -0.230862947320E+04   -0.21226E-01   -0.22015E-01  5814   0.204E-01    0.267E-01
RMM:   3    -0.230863113018E+04   -0.16570E-02   -0.20100E-02  5148   0.835E-02    0.212E-01
RMM:   4    -0.230863114735E+04   -0.17164E-04   -0.25760E-03  4658   0.189E-02    0.184E-01
RMM:   5    -0.230863090160E+04    0.24575E-03   -0.80403E-04  4315   0.149E-02    0.677E-02
RMM:   6    -0.230863088220E+04    0.19400E-04   -0.19476E-04  3304   0.915E-03    0.227E-02
RMM:   7    -0.230863087799E+04    0.42088E-05   -0.31224E-05  2895   0.549E-03
 298 F= -.23290008E+04 E0= -.23290008E+04  d E =-.131393E-02  mag=     4.0000
       N       E                     dE             d eps       ncg     rms          rms(c)
DAV:   1    -0.230862804131E+04    0.28409E-02   -0.47300E-01  4400   0.540E-01    0.214E-01
RMM:   2    -0.230863159076E+04   -0.35494E-02   -0.37186E-02  5708   0.929E-02    0.114E-01
RMM:   3    -0.230863185184E+04   -0.26108E-03   -0.36339E-03  4738   0.408E-02    0.735E-02
RMM:   4    -0.230863186278E+04   -0.10938E-04   -0.49558E-04  3818   0.104E-02    0.625E-02
RMM:   5    -0.230863184790E+04    0.14876E-04   -0.15623E-04  2991   0.849E-03    0.483E-02
RMM:   6    -0.230863182581E+04    0.22090E-04   -0.37605E-05  2852   0.544E-03    0.117E-02
RMM:   7    -0.230863182572E+04    0.88243E-07   -0.76787E-06  2844   0.353E-03
 299 F= -.23290019E+04 E0= -.23290019E+04  d E =-.116758E-02  mag=     4.0000
       N       E                     dE             d eps       ncg     rms          rms(c)
DAV:   1    -0.230863016707E+04    0.16587E-02   -0.21479E-01  4400   0.364E-01    0.144E-01
RMM:   2    -0.230863179185E+04   -0.16248E-02   -0.16994E-02  5662   0.628E-02    0.758E-02
RMM:   3    -0.230863190505E+04   -0.11319E-03   -0.16173E-03  3897   0.269E-02    0.474E-02
RMM:   4    -0.230863190469E+04    0.36147E-06   -0.21938E-04  3193   0.751E-03    0.340E-02
RMM:   5    -0.230863190368E+04    0.10074E-05   -0.60823E-05  2862   0.600E-03
 300 F= -.23290022E+04 E0= -.23290022E+04  d E =-.139516E-02  mag=     4.0000
       N       E                     dE             d eps       ncg     rms          rms(c)
DAV:   1    -0.230863112580E+04    0.77888E-03   -0.14229E-01  4440   0.300E-01    0.119E-01
RMM:   2    -0.230863228848E+04   -0.11627E-02   -0.12098E-02  5980   0.557E-02    0.695E-02
RMM:   3    -0.230863237779E+04   -0.89300E-04   -0.12391E-03  3678   0.233E-02    0.519E-02
RMM:   4    -0.230863237284E+04    0.49453E-05   -0.14991E-04  2909   0.621E-03    0.364E-02
RMM:   5    -0.230863236444E+04    0.83962E-05   -0.52088E-05  2854   0.539E-03
 301 F= -.23290028E+04 E0= -.23290028E+04  d E =-.660327E-03  mag=     4.0000
