       N       E                     dE             d eps       ncg     rms          rms(c)
DAV:   1     0.127637405790E+05    0.12764E+05   -0.82951E+05  4432   0.144E+03
DAV:   2    -0.106229121146E+04   -0.13826E+05   -0.13246E+05  5328   0.330E+02
DAV:   3    -0.247071361500E+04   -0.14084E+04   -0.13954E+04  5376   0.111E+02
DAV:   4    -0.251712477759E+04   -0.46411E+02   -0.46199E+02  6656   0.301E+01
DAV:   5    -0.251799650776E+04   -0.87173E+00   -0.87022E+00  5552   0.330E+00    0.171E+02
RMM:   6    -0.147072897374E+04    0.10473E+04   -0.19702E+03  4395   0.389E+01    0.727E+01
RMM:   7    -0.164313940926E+04   -0.17241E+03   -0.28151E+02  5044   0.140E+01    0.486E+01
RMM:   8    -0.170220542683E+04   -0.59066E+02   -0.41646E+01  5131   0.707E+00    0.369E+01
RMM:   9    -0.182610074453E+04   -0.12390E+03   -0.61297E+01  4793   0.760E+00    0.332E+01
RMM:  10    -0.192673272376E+04   -0.10063E+03   -0.42707E+01  5084   0.625E+00    0.226E+01
RMM:  11    -0.202950630872E+04   -0.10277E+03   -0.44257E+01  5064   0.544E+00    0.166E+01
RMM:  12    -0.211797798726E+04   -0.88472E+02   -0.42605E+01  4686   0.508E+00    0.122E+01
RMM:  13    -0.225013805974E+04   -0.13216E+03   -0.12083E+02  4420   0.779E+00    0.716E+00
RMM:  14    -0.229437852394E+04   -0.44240E+02   -0.45767E+01  4443   0.511E+00    0.491E+00
RMM:  15    -0.230327772427E+04   -0.88992E+01   -0.12292E+01  4995   0.268E+00    0.757E+00
RMM:  16    -0.230367981978E+04   -0.40210E+00   -0.18395E+00  5643   0.862E-01    0.692E+00
RMM:  17    -0.230406800364E+04   -0.38818E+00   -0.25263E-01  5128   0.294E-01    0.724E+00
RMM:  18    -0.230320073669E+04    0.86727E+00   -0.96753E-01  4662   0.423E-01    0.673E+00
RMM:  19    -0.230305320112E+04    0.14754E+00   -0.36058E-01  4625   0.245E-01    0.558E+00
RMM:  20    -0.230399083041E+04   -0.93763E+00   -0.21928E+00  4399   0.843E-01    0.379E+00
RMM:  21    -0.230203520870E+04    0.19556E+01   -0.28171E+00  4424   0.862E-01    0.539E+00
RMM:  22    -0.229719746910E+04    0.48377E+01   -0.26822E+00  4876   0.713E-01    0.729E+00
RMM:  23    -0.230651547628E+04   -0.93180E+01   -0.73459E+00  4710   0.102E+00    0.314E+00
RMM:  24    -0.230961148399E+04   -0.30960E+01   -0.50805E+00  4704   0.830E-01    0.516E+00
RMM:  25    -0.230972659468E+04   -0.11511E+00   -0.95007E-01  4960   0.408E-01    0.383E+00
RMM:  26    -0.230989308179E+04   -0.16649E+00   -0.35044E-01  4803   0.157E-01    0.394E+00
RMM:  27    -0.230999400628E+04   -0.10092E+00   -0.85096E-02  4588   0.148E-01    0.345E+00
RMM:  28    -0.231011970024E+04   -0.12569E+00   -0.30972E-01  4873   0.255E-01    0.253E+00
RMM:  29    -0.231013381267E+04   -0.14112E-01   -0.37983E-02  4868   0.117E-01    0.267E+00
RMM:  30    -0.231013705916E+04   -0.32465E-02   -0.51991E-03  4826   0.290E-02    0.275E+00
RMM:  31    -0.231014178032E+04   -0.47212E-02   -0.37047E-03  5114   0.373E-02    0.251E+00
RMM:  32    -0.231014957545E+04   -0.77951E-02   -0.20074E-03  4455   0.237E-02    0.270E+00
RMM:  33    -0.231017556104E+04   -0.25986E-01   -0.33362E-02  4835   0.727E-02    0.354E+00
RMM:  34    -0.231020901941E+04   -0.33458E-01   -0.88313E-02  4924   0.121E-01    0.491E+00
RMM:  35    -0.231020666690E+04    0.23525E-02   -0.91152E-03  4934   0.509E-02    0.482E+00
RMM:  36    -0.231020824712E+04   -0.15802E-02   -0.55581E-02  4780   0.938E-02    0.528E+00
RMM:  37    -0.231027285938E+04   -0.64612E-01   -0.13290E-01  5191   0.162E-01    0.484E+00
RMM:  38    -0.231028871996E+04   -0.15861E-01   -0.16885E-02  4749   0.739E-02    0.477E+00
RMM:  39    -0.231032954955E+04   -0.40830E-01   -0.19840E-02  4710   0.742E-02    0.492E+00
RMM:  40    -0.231034749551E+04   -0.17946E-01   -0.42770E-03  4668   0.459E-02    0.488E+00
RMM:  41    -0.231035215032E+04   -0.46548E-02   -0.87332E-04  4599   0.157E-02    0.480E+00
RMM:  42    -0.231036766027E+04   -0.15510E-01   -0.13035E-02  4843   0.502E-02    0.428E+00
RMM:  43    -0.231037724827E+04   -0.95880E-02   -0.11198E-02  4943   0.490E-02    0.442E+00
RMM:  44    -0.231041331242E+04   -0.36064E-01   -0.22690E-02  4855   0.651E-02    0.369E+00
RMM:  45    -0.231044021970E+04   -0.26907E-01   -0.20714E-02  4856   0.629E-02    0.280E+00
RMM:  46    -0.231046624656E+04   -0.26027E-01   -0.16359E-02  4848   0.542E-02    0.198E+00
RMM:  47    -0.231048859196E+04   -0.22345E-01   -0.22452E-02  4934   0.699E-02    0.102E+00
RMM:  48    -0.231049560373E+04   -0.70118E-02   -0.84108E-03  4701   0.480E-02    0.700E-01
RMM:  49    -0.231050080009E+04   -0.51964E-02   -0.53239E-03  4803   0.306E-02    0.362E-01
RMM:  50    -0.231050351984E+04   -0.27197E-02   -0.24356E-03  4399   0.262E-02    0.187E-01
RMM:  51    -0.231050512476E+04   -0.16049E-02   -0.22715E-03  4471   0.211E-02    0.150E-01
RMM:  52    -0.231050550241E+04   -0.37765E-03   -0.34286E-04  3844   0.124E-02    0.158E-01
RMM:  53    -0.231050587103E+04   -0.36862E-03   -0.56744E-04  4090   0.112E-02    0.182E-01
RMM:  54    -0.231050607507E+04   -0.20403E-03   -0.17558E-04  3273   0.795E-03    0.914E-02
RMM:  55    -0.231050616225E+04   -0.87176E-04   -0.12771E-04  3225   0.671E-03    0.446E-02
RMM:  56    -0.231050622591E+04   -0.63660E-04   -0.69312E-05  2986   0.536E-03    0.289E-02
RMM:  57    -0.231050625623E+04   -0.30326E-04   -0.41411E-05  2919   0.444E-03    0.205E-02
RMM:  58    -0.231050627034E+04   -0.14107E-04   -0.21693E-05  2845   0.358E-03    0.158E-02
RMM:  59    -0.231050627752E+04   -0.71804E-05   -0.16818E-05  2669   0.280E-03
   1 F= -.23310260E+04 E0= -.23310260E+04  d E =-.233103E+04  mag=     0.9992
       N       E                     dE             d eps       ncg     rms          rms(c)
DAV:   1    -0.231058991271E+04   -0.83642E-01   -0.15321E+02  4528   0.894E+00    0.302E+00
RMM:   2    -0.231153882562E+04   -0.94891E+00   -0.10565E+01  6107   0.200E+00    0.153E+00
RMM:   3    -0.231151488532E+04    0.23940E-01   -0.90136E-01  5567   0.810E-01    0.992E-01
RMM:   4    -0.231151057587E+04    0.43095E-02   -0.93888E-02  5563   0.166E-01    0.807E-01
RMM:   5    -0.231151202547E+04   -0.14496E-02   -0.30629E-02  5490   0.112E-01    0.808E-01
RMM:   6    -0.231150365359E+04    0.83719E-02   -0.80196E-03  5661   0.548E-02    0.200E-01
RMM:   7    -0.231150332943E+04    0.32416E-03   -0.11272E-03  4923   0.239E-02    0.694E-02
RMM:   8    -0.231150327925E+04    0.50181E-04   -0.16169E-04  3864   0.913E-03    0.337E-02
RMM:   9    -0.231150326922E+04    0.10029E-04   -0.81989E-05  3532   0.731E-03    0.146E-02
RMM:  10    -0.231150327482E+04   -0.55946E-05   -0.17141E-05  2868   0.494E-03
   2 F= -.23320235E+04 E0= -.23320235E+04  d E =-.997448E+00  mag=     0.9999
       N       E                     dE             d eps       ncg     rms          rms(c)
DAV:   1    -0.231132543988E+04    0.17783E+00   -0.54694E+01  4608   0.574E+00    0.173E+00
RMM:   2    -0.231164905558E+04   -0.32362E+00   -0.35890E+00  6150   0.121E+00    0.847E-01
RMM:   3    -0.231164278057E+04    0.62750E-02   -0.34216E-01  5630   0.494E-01    0.546E-01
RMM:   4    -0.231164304219E+04   -0.26162E-03   -0.37583E-02  5277   0.106E-01    0.534E-01
RMM:   5    -0.231163980652E+04    0.32357E-02   -0.75920E-03  5387   0.617E-02    0.293E-01
RMM:   6    -0.231163904566E+04    0.76086E-03   -0.14494E-03  4862   0.247E-02    0.716E-02
RMM:   7    -0.231163901625E+04    0.29412E-04   -0.24924E-04  3920   0.134E-02    0.371E-02
RMM:   8    -0.231163901152E+04    0.47281E-05   -0.51851E-05  3165   0.574E-03
   3 F= -.23321600E+04 E0= -.23321600E+04  d E =-.113396E+01  mag=     1.0000
       N       E                     dE             d eps       ncg     rms          rms(c)
DAV:   1    -0.231118835379E+04    0.45066E+00   -0.55164E+01  4480   0.677E+00    0.233E+00
RMM:   2    -0.231196425964E+04   -0.77591E+00   -0.83531E+00  6128   0.176E+00    0.145E+00
RMM:   3    -0.231198842574E+04   -0.24166E-01   -0.64239E-01  6002   0.493E-01    0.148E+00
RMM:   4    -0.231196180101E+04    0.26625E-01   -0.64823E-02  6111   0.133E-01    0.775E-01
RMM:   5    -0.231195405786E+04    0.77431E-02   -0.18287E-02  5360   0.914E-02    0.269E-01
RMM:   6    -0.231195351570E+04    0.54216E-03   -0.73628E-03  5246   0.553E-02    0.112E-01
RMM:   7    -0.231195328294E+04    0.23276E-03   -0.62304E-04  5009   0.242E-02    0.625E-02
RMM:   8    -0.231195317148E+04    0.11147E-03   -0.32603E-04  4662   0.133E-02    0.269E-02
RMM:   9    -0.231195314822E+04    0.23256E-04   -0.76027E-05  3544   0.773E-03    0.121E-02
RMM:  10    -0.231195314327E+04    0.49520E-05   -0.19424E-05  2942   0.459E-03
   4 F= -.23324733E+04 E0= -.23324733E+04  d E =-.313347E+00  mag=     1.0000
       N       E                     dE             d eps       ncg     rms          rms(c)
DAV:   1    -0.231191318473E+04    0.39963E-01   -0.39363E+00  4744   0.185E+00    0.616E-01
RMM:   2    -0.231196682237E+04   -0.53638E-01   -0.57876E-01  6142   0.456E-01    0.362E-01
RMM:   3    -0.231196872236E+04   -0.19000E-02   -0.42527E-02  5969   0.125E-01    0.363E-01
RMM:   4    -0.231196725206E+04    0.14703E-02   -0.52386E-03  5790   0.363E-02    0.210E-01
RMM:   5    -0.231196665624E+04    0.59582E-03   -0.14390E-03  5233   0.265E-02    0.628E-02
RMM:   6    -0.231196663051E+04    0.25728E-04   -0.40496E-04  4490   0.141E-02    0.308E-02
RMM:   7    -0.231196661397E+04    0.16544E-04   -0.42205E-05  3143   0.618E-03    0.146E-02
RMM:   8    -0.231196660783E+04    0.61378E-05   -0.19632E-05  2933   0.431E-03
   5 F= -.23324867E+04 E0= -.23324867E+04  d E =-.326712E+00  mag=     1.0000
       N       E                     dE             d eps       ncg     rms          rms(c)
DAV:   1    -0.231148779749E+04    0.47882E+00   -0.50201E+01  4472   0.679E+00    0.245E+00
RMM:   2    -0.231218753787E+04   -0.69974E+00   -0.70192E+00  5978   0.145E+00    0.245E+00
RMM:   3    -0.231220861951E+04   -0.21082E-01   -0.58438E-01  5611   0.508E-01    0.220E+00
RMM:   4    -0.231214269251E+04    0.65927E-01   -0.61223E-02  5867   0.139E-01    0.581E-01
RMM:   5    -0.231213804692E+04    0.46456E-02   -0.18756E-02  5779   0.837E-02    0.312E-01
RMM:   6    -0.231213695518E+04    0.10917E-02   -0.59648E-03  5309   0.476E-02    0.112E-01
RMM:   7    -0.231213674552E+04    0.20966E-03   -0.59600E-04  4627   0.238E-02    0.568E-02
RMM:   8    -0.231213667144E+04    0.74084E-04   -0.24082E-04  4640   0.111E-02    0.201E-02
RMM:   9    -0.231213666633E+04    0.51075E-05   -0.46747E-05  3156   0.634E-03
   6 F= -.23326572E+04 E0= -.23326572E+04  d E =-.170475E+00  mag=     1.0000
       N       E                     dE             d eps       ncg     rms          rms(c)
DAV:   1    -0.231212728617E+04    0.93853E-02   -0.95337E-01  5120   0.918E-01    0.351E-01
RMM:   2    -0.231214208230E+04   -0.14796E-01   -0.13720E-01  6062   0.214E-01    0.502E-01
RMM:   3    -0.231213993742E+04    0.21449E-02   -0.86923E-03  5621   0.567E-02    0.231E-01
RMM:   4    -0.231213917422E+04    0.76319E-03   -0.11964E-03  5031   0.180E-02    0.782E-02
RMM:   5    -0.231213908001E+04    0.94208E-04   -0.31312E-04  4780   0.115E-02    0.404E-02
RMM:   6    -0.231213906213E+04    0.17880E-04   -0.99245E-05  3874   0.805E-03    0.136E-02
RMM:   7    -0.231213906261E+04   -0.47451E-06   -0.16737E-05  2888   0.491E-03
   7 F= -.23326596E+04 E0= -.23326596E+04  d E =-.172938E+00  mag=     1.0000
       N       E                     dE             d eps       ncg     rms          rms(c)
DAV:   1    -0.231193502472E+04    0.20404E+00   -0.38661E+01  4472   0.579E+00    0.172E+00
RMM:   2    -0.231232244576E+04   -0.38742E+00   -0.37547E+00  6044   0.125E+00    0.222E+00
RMM:   3    -0.231229073094E+04    0.31715E-01   -0.27222E-01  5721   0.326E-01    0.129E+00
RMM:   4    -0.231226815516E+04    0.22576E-01   -0.30885E-02  5462   0.925E-02    0.460E-01
RMM:   5    -0.231226492051E+04    0.32346E-02   -0.90298E-03  5006   0.638E-02    0.210E-01
RMM:   6    -0.231226453109E+04    0.38942E-03   -0.31713E-03  5030   0.492E-02    0.699E-02
RMM:   7    -0.231226446796E+04    0.63129E-04   -0.43976E-04  4404   0.153E-02    0.409E-02
RMM:   8    -0.231226443946E+04    0.28503E-04   -0.76179E-05  3719   0.807E-03    0.154E-02
RMM:   9    -0.231226443708E+04    0.23826E-05   -0.28778E-05  2946   0.497E-03
   8 F= -.23327861E+04 E0= -.23327861E+04  d E =-.126430E+00  mag=     1.0000
       N       E                     dE             d eps       ncg     rms          rms(c)
DAV:   1    -0.231218419375E+04    0.80246E-01   -0.11639E+01  4544   0.320E+00    0.940E-01
RMM:   2    -0.231230249613E+04   -0.11830E+00   -0.11243E+00  6059   0.698E-01    0.131E+00
RMM:   3    -0.231228949590E+04    0.13000E-01   -0.77893E-02  5791   0.171E-01    0.655E-01
RMM:   4    -0.231228361920E+04    0.58767E-02   -0.89930E-03  5346   0.491E-02    0.250E-01
RMM:   5    -0.231228261933E+04    0.99987E-03   -0.26398E-03  4944   0.362E-02    0.108E-01
RMM:   6    -0.231228252462E+04    0.94706E-04   -0.85786E-04  4922   0.261E-02    0.383E-02
RMM:   7    -0.231228250492E+04    0.19700E-04   -0.10337E-04  3546   0.803E-03    0.216E-02
RMM:   8    -0.231228249703E+04    0.78936E-05   -0.27399E-05  2965   0.583E-03
   9 F= -.23328047E+04 E0= -.23328047E+04  d E =-.145067E+00  mag=     1.0000
       N       E                     dE             d eps       ncg     rms          rms(c)
DAV:   1    -0.231207250480E+04    0.21000E+00   -0.48261E+01  4472   0.680E+00    0.196E+00
RMM:   2    -0.231245554934E+04   -0.38304E+00   -0.37822E+00  5940   0.141E+00    0.220E+00
RMM:   3    -0.231242034234E+04    0.35207E-01   -0.24705E-01  5643   0.365E-01    0.159E+00
RMM:   4    -0.231238695093E+04    0.33391E-01   -0.30954E-02  5536   0.111E-01    0.471E-01
RMM:   5    -0.231238343435E+04    0.35166E-02   -0.11253E-02  5062   0.737E-02    0.208E-01
RMM:   6    -0.231238297443E+04    0.45992E-03   -0.30882E-03  5096   0.519E-02    0.767E-02
RMM:   7    -0.231238291156E+04    0.62871E-04   -0.46519E-04  4636   0.173E-02    0.374E-02
RMM:   8    -0.231238288329E+04    0.28268E-04   -0.64005E-05  3839   0.769E-03    0.160E-02
RMM:   9    -0.231238287670E+04    0.65919E-05   -0.20627E-05  2918   0.499E-03
  10 F= -.23329065E+04 E0= -.23329065E+04  d E =-.101823E+00  mag=     1.0000
       N       E                     dE             d eps       ncg     rms          rms(c)
DAV:   1    -0.231235068481E+04    0.32198E-01   -0.63544E+00  4576   0.243E+00    0.699E-01
RMM:   2    -0.231239889432E+04   -0.48210E-01   -0.47697E-01  5937   0.493E-01    0.758E-01
RMM:   3    -0.231239547531E+04    0.34190E-02   -0.31740E-02  5603   0.131E-01    0.563E-01
RMM:   4    -0.231239119196E+04    0.42833E-02   -0.40649E-03  5363   0.397E-02    0.166E-01
RMM:   5    -0.231239074571E+04    0.44625E-03   -0.15499E-03  4933   0.270E-02    0.711E-02
RMM:   6    -0.231239069319E+04    0.52521E-04   -0.38137E-04  4726   0.184E-02    0.275E-02
RMM:   7    -0.231239068326E+04    0.99350E-05   -0.54349E-05  3238   0.652E-03
  11 F= -.23329148E+04 E0= -.23329148E+04  d E =-.110130E+00  mag=     1.0000
       N       E                     dE             d eps       ncg     rms          rms(c)
DAV:   1    -0.231226143508E+04    0.12926E+00   -0.49904E+01  4408   0.670E+00    0.166E+00
RMM:   2    -0.231250775045E+04   -0.24632E+00   -0.24645E+00  5833   0.122E+00    0.175E+00
RMM:   3    -0.231248709240E+04    0.20658E-01   -0.14967E-01  5537   0.315E-01    0.140E+00
RMM:   4    -0.231246038688E+04    0.26706E-01   -0.21509E-02  5353   0.107E-01    0.432E-01
RMM:   5    -0.231245649438E+04    0.38925E-02   -0.16193E-02  4813   0.929E-02    0.141E-01
RMM:   6    -0.231245617811E+04    0.31627E-03   -0.16344E-03  5030   0.549E-02    0.663E-02
RMM:   7    -0.231245610218E+04    0.75923E-04   -0.51016E-04  4646   0.153E-02    0.374E-02
RMM:   8    -0.231245608278E+04    0.19400E-04   -0.79900E-05  4057   0.120E-02    0.173E-02
RMM:   9    -0.231245610053E+04   -0.17747E-04   -0.69870E-05  3867   0.667E-03    0.897E-03
RMM:  10    -0.231245611728E+04   -0.16745E-04   -0.96927E-06  2831   0.480E-03    0.614E-03
RMM:  11    -0.231245615373E+04   -0.36453E-04   -0.23698E-05  3070   0.377E-03    0.492E-03
RMM:  12    -0.231245616725E+04   -0.13518E-04   -0.61760E-06  2804   0.366E-03    0.258E-03
RMM:  13    -0.231245617629E+04   -0.90423E-05   -0.58614E-06  2763   0.240E-03
  12 F= -.23329816E+04 E0= -.23329816E+04  d E =-.667818E-01  mag=     1.0000
       N       E                     dE             d eps       ncg     rms          rms(c)
DAV:   1    -0.231245581384E+04    0.35340E-03   -0.20681E-01  4880   0.443E-01    0.107E-01
RMM:   2    -0.231245679161E+04   -0.97776E-03   -0.97623E-03  5897   0.785E-02    0.109E-01
RMM:   3    -0.231245672587E+04    0.65741E-04   -0.60658E-04  4505   0.206E-02    0.905E-02
RMM:   4    -0.231245661402E+04    0.11184E-03   -0.89435E-05  3432   0.744E-03    0.269E-02
RMM:   5    -0.231245659812E+04    0.15907E-04   -0.65906E-05  3598   0.684E-03    0.808E-03
RMM:   6    -0.231245659756E+04    0.55625E-06   -0.78684E-06  2811   0.489E-03
  13 F= -.23329820E+04 E0= -.23329820E+04  d E =-.671196E-01  mag=     1.0000
       N       E                     dE             d eps       ncg     rms          rms(c)
DAV:   1    -0.231245262391E+04    0.39742E-02   -0.23011E+01  4440   0.467E+00    0.945E-01
RMM:   2    -0.231252056317E+04   -0.67939E-01   -0.72974E-01  5595   0.703E-01    0.635E-01
RMM:   3    -0.231252123295E+04   -0.66978E-03   -0.39232E-02  5233   0.207E-01    0.835E-01
RMM:   4    -0.231251264515E+04    0.85878E-02   -0.77039E-03  5757   0.655E-02    0.281E-01
RMM:   5    -0.231251127261E+04    0.13725E-02   -0.57974E-03  4616   0.580E-02    0.690E-02
RMM:   6    -0.231251125599E+04    0.16619E-04   -0.49803E-04  4479   0.336E-02    0.360E-02
RMM:   7    -0.231251124862E+04    0.73628E-05   -0.90934E-05  4193   0.751E-03
  14 F= -.23330370E+04 E0= -.23330370E+04  d E =-.550770E-01  mag=     1.0000
       N       E                     dE             d eps       ncg     rms          rms(c)
DAV:   1    -0.231247713447E+04    0.34122E-01   -0.20484E+01  4472   0.440E+00    0.900E-01
RMM:   2    -0.231253725166E+04   -0.60117E-01   -0.64472E-01  5581   0.659E-01    0.601E-01
RMM:   3    -0.231253829947E+04   -0.10478E-02   -0.36263E-02  5225   0.201E-01    0.797E-01
RMM:   4    -0.231253049192E+04    0.78075E-02   -0.70431E-03  5736   0.619E-02    0.265E-01
RMM:   5    -0.231252928630E+04    0.12056E-02   -0.50825E-03  4638   0.543E-02    0.615E-02
RMM:   6    -0.231252927299E+04    0.13312E-04   -0.44082E-04  4485   0.306E-02    0.334E-02
RMM:   7    -0.231252926868E+04    0.43107E-05   -0.77148E-05  4016   0.697E-03
  15 F= -.23330555E+04 E0= -.23330555E+04  d E =-.735361E-01  mag=     1.0000
       N       E                     dE             d eps       ncg     rms          rms(c)
DAV:   1    -0.231253743543E+04   -0.81624E-02   -0.14409E+01  4472   0.370E+00    0.799E-01
RMM:   2    -0.231257877566E+04   -0.41340E-01   -0.43773E-01  5548   0.553E-01    0.610E-01
RMM:   3    -0.231257842085E+04    0.35480E-03   -0.25808E-02  5190   0.173E-01    0.745E-01
RMM:   4    -0.231257158823E+04    0.68326E-02   -0.54865E-03  5788   0.546E-02    0.219E-01
RMM:   5    -0.231257066712E+04    0.92112E-03   -0.26842E-03  4803   0.392E-02    0.850E-02
RMM:   6    -0.231257056949E+04    0.97623E-04   -0.67214E-04  4889   0.257E-02    0.291E-02
RMM:   7    -0.231257055926E+04    0.10234E-04   -0.76421E-05  3776   0.789E-03    0.172E-02
RMM:   8    -0.231257055588E+04    0.33788E-05   -0.16277E-05  2877   0.565E-03
  16 F= -.23330971E+04 E0= -.23330971E+04  d E =-.416342E-01  mag=     1.0000
       N       E                     dE             d eps       ncg     rms          rms(c)
DAV:   1    -0.231255350096E+04    0.17058E-01   -0.14112E+01  4472   0.367E+00    0.789E-01
RMM:   2    -0.231259375437E+04   -0.40253E-01   -0.42832E-01  5572   0.549E-01    0.590E-01
RMM:   3    -0.231259331681E+04    0.43756E-03   -0.24765E-02  5226   0.166E-01    0.725E-01
RMM:   4    -0.231258681778E+04    0.64990E-02   -0.52824E-03  5763   0.535E-02    0.218E-01
RMM:   5    -0.231258588360E+04    0.93418E-03   -0.26361E-03  4804   0.389E-02    0.840E-02
RMM:   6    -0.231258577983E+04    0.10377E-03   -0.67060E-04  4960   0.256E-02    0.290E-02
RMM:   7    -0.231258576812E+04    0.11716E-04   -0.75894E-05  3773   0.776E-03    0.174E-02
RMM:   8    -0.231258576455E+04    0.35700E-05   -0.17282E-05  2888   0.583E-03
  17 F= -.23331127E+04 E0= -.23331127E+04  d E =-.572074E-01  mag=     1.0000
       N       E                     dE             d eps       ncg     rms          rms(c)
DAV:   1    -0.231259724399E+04   -0.11476E-01   -0.60086E+00  4496   0.243E+00    0.492E-01
RMM:   2    -0.231261460147E+04   -0.17357E-01   -0.18545E-01  5620   0.369E-01    0.320E-01
RMM:   3    -0.231261475257E+04   -0.15109E-03   -0.94858E-03  5171   0.111E-01    0.454E-01
RMM:   4    -0.231261226739E+04    0.24852E-02   -0.19738E-03  5648   0.341E-02    0.136E-01
RMM:   5    -0.231261190973E+04    0.35766E-03   -0.14507E-03  4493   0.303E-02    0.338E-02
RMM:   6    -0.231261190336E+04    0.63700E-05   -0.93047E-05  3791   0.171E-02
  18 F= -.23331391E+04 E0= -.23331391E+04  d E =-.264355E-01  mag=     1.0000
       N       E                     dE             d eps       ncg     rms          rms(c)
DAV:   1    -0.231252990123E+04    0.82008E-01   -0.40062E+01  4440   0.630E+00    0.127E+00
RMM:   2    -0.231264723661E+04   -0.11734E+00   -0.12466E+00  5585   0.974E-01    0.865E-01
RMM:   3    -0.231264824979E+04   -0.10132E-02   -0.73133E-02  5126   0.301E-01    0.114E+00
RMM:   4    -0.231263230556E+04    0.15944E-01   -0.13534E-02  5736   0.902E-02    0.355E-01
RMM:   5    -0.231262977190E+04    0.25337E-02   -0.94736E-03  4520   0.786E-02    0.845E-02
RMM:   6    -0.231262974007E+04    0.31827E-04   -0.70672E-04  4535   0.457E-02    0.476E-02
RMM:   7    -0.231262972226E+04    0.17813E-04   -0.15886E-04  4286   0.969E-03    0.262E-02
RMM:   8    -0.231262972176E+04    0.49664E-06   -0.33036E-05  3174   0.816E-03
  19 F= -.23331577E+04 E0= -.23331577E+04  d E =-.450360E-01  mag=     1.0000
       N       E                     dE             d eps       ncg     rms          rms(c)
DAV:   1    -0.231262629500E+04    0.34273E-02   -0.22923E+00  4560   0.151E+00    0.302E-01
RMM:   2    -0.231263282928E+04   -0.65343E-02   -0.69867E-02  5594   0.228E-01    0.188E-01
RMM:   3    -0.231263288048E+04   -0.51200E-04   -0.36244E-03  5134   0.714E-02    0.266E-01
RMM:   4    -0.231263202902E+04    0.85146E-03   -0.72945E-04  5405   0.209E-02    0.840E-02
RMM:   5    -0.231263190513E+04    0.12389E-03   -0.53502E-04  4405   0.188E-02    0.210E-02
RMM:   6    -0.231263190510E+04    0.30355E-07   -0.36240E-05  3182   0.110E-02
  20 F= -.23331597E+04 E0= -.23331597E+04  d E =-.470301E-01  mag=     1.0000
       N       E                     dE             d eps       ncg     rms          rms(c)
DAV:   1    -0.231264248419E+04   -0.10579E-01   -0.39786E+00  4432   0.199E+00    0.370E-01
RMM:   2    -0.231265376912E+04   -0.11285E-01   -0.11357E-01  5569   0.296E-01    0.357E-01
RMM:   3    -0.231265300730E+04    0.76182E-03   -0.61114E-03  5062   0.871E-02    0.339E-01
RMM:   4    -0.231265155877E+04    0.14485E-02   -0.10614E-03  5378   0.260E-02    0.106E-01
RMM:   5    -0.231265132835E+04    0.23042E-03   -0.95293E-04  4433   0.249E-02    0.282E-02
RMM:   6    -0.231265132480E+04    0.35525E-05   -0.83520E-05  3694   0.160E-02
  21 F= -.23331792E+04 E0= -.23331792E+04  d E =-.195074E-01  mag=     1.0000
       N       E                     dE             d eps       ncg     rms          rms(c)
DAV:   1    -0.231260207800E+04    0.49250E-01   -0.35827E+01  4408   0.595E+00    0.111E+00
RMM:   2    -0.231270617176E+04   -0.10409E+00   -0.10410E+00  5573   0.890E-01    0.109E+00
RMM:   3    -0.231269833858E+04    0.78332E-02   -0.55576E-02  5067   0.253E-01    0.100E+00
RMM:   4    -0.231268562064E+04    0.12718E-01   -0.92632E-03  5558   0.772E-02    0.320E-01
RMM:   5    -0.231268356930E+04    0.20513E-02   -0.84137E-03  4466   0.729E-02    0.887E-02
RMM:   6    -0.231268353683E+04    0.32472E-04   -0.77621E-04  4361   0.459E-02    0.442E-02
RMM:   7    -0.231268352142E+04    0.15410E-04   -0.13642E-04  4241   0.892E-03    0.235E-02
RMM:   8    -0.231268351576E+04    0.56637E-05   -0.25154E-05  2974   0.744E-03
  22 F= -.23332117E+04 E0= -.23332117E+04  d E =-.519645E-01  mag=     1.0000
       N       E                     dE             d eps       ncg     rms          rms(c)
DAV:   1    -0.231267802258E+04    0.54988E-02   -0.34534E+00  4512   0.183E+00    0.340E-01
RMM:   2    -0.231268786727E+04   -0.98447E-02   -0.99085E-02  5567   0.270E-01    0.332E-01
RMM:   3    -0.231268712133E+04    0.74593E-03   -0.51539E-03  5048   0.756E-02    0.307E-01
RMM:   4    -0.231268592309E+04    0.11982E-02   -0.88024E-04  5309   0.234E-02    0.988E-02
RMM:   5    -0.231268572503E+04    0.19806E-03   -0.85016E-04  4387   0.232E-02    0.267E-02
RMM:   6    -0.231268572068E+04    0.43453E-05   -0.76705E-05  3599   0.151E-02
  23 F= -.23332140E+04 E0= -.23332140E+04  d E =-.542525E-01  mag=     1.0000
       N       E                     dE             d eps       ncg     rms          rms(c)
DAV:   1    -0.231268872452E+04   -0.29995E-02   -0.65718E+00  4408   0.252E+00    0.528E-01
RMM:   2    -0.231271602563E+04   -0.27301E-01   -0.24866E-01  5714   0.403E-01    0.753E-01
RMM:   3    -0.231270992927E+04    0.60964E-02   -0.14137E-02  5099   0.109E-01    0.378E-01
RMM:   4    -0.231270802866E+04    0.19006E-02   -0.18337E-03  5042   0.332E-02    0.152E-01
RMM:   5    -0.231270763534E+04    0.39332E-03   -0.16027E-03  5105   0.314E-02    0.553E-02
RMM:   6    -0.231270760077E+04    0.34571E-04   -0.27891E-04  4627   0.181E-02    0.202E-02
RMM:   7    -0.231270759965E+04    0.11239E-05   -0.33018E-05  3171   0.526E-03
  24 F= -.23332358E+04 E0= -.23332358E+04  d E =-.218389E-01  mag=     1.0000
       N       E                     dE             d eps       ncg     rms          rms(c)
DAV:   1    -0.231268657127E+04    0.21030E-01   -0.10259E+01  4408   0.316E+00    0.657E-01
RMM:   2    -0.231272925862E+04   -0.42687E-01   -0.38796E-01  5721   0.508E-01    0.948E-01
RMM:   3    -0.231271968104E+04    0.95776E-02   -0.22165E-02  5177   0.139E-01    0.474E-01
RMM:   4    -0.231271669614E+04    0.29849E-02   -0.29157E-03  5115   0.421E-02    0.191E-01
RMM:   5    -0.231271605261E+04    0.64353E-03   -0.25463E-03  5158   0.397E-02    0.689E-02
RMM:   6    -0.231271599575E+04    0.56863E-04   -0.43632E-04  4874   0.225E-02    0.254E-02
RMM:   7    -0.231271599299E+04    0.27625E-05   -0.54321E-05  3441   0.634E-03
  25 F= -.23332442E+04 E0= -.23332442E+04  d E =-.301809E-01  mag=     1.0000
       N       E                     dE             d eps       ncg     rms          rms(c)
DAV:   1    -0.231271526828E+04    0.72747E-03   -0.45924E+00  4512   0.216E+00    0.470E-01
RMM:   2    -0.231273193539E+04   -0.16667E-01   -0.16224E-01  5738   0.344E-01    0.515E-01
RMM:   3    -0.231273012385E+04    0.18115E-02   -0.94671E-03  5094   0.941E-02    0.399E-01
RMM:   4    -0.231272800982E+04    0.21140E-02   -0.14273E-03  5207   0.305E-02    0.121E-01
RMM:   5    -0.231272770909E+04    0.30073E-03   -0.13107E-03  4755   0.284E-02    0.304E-02
RMM:   6    -0.231272770096E+04    0.81302E-05   -0.11461E-04  4037   0.168E-02    0.166E-02
RMM:   7    -0.231272769651E+04    0.44587E-05   -0.21699E-05  3137   0.385E-03
  26 F= -.23332562E+04 E0= -.23332562E+04  d E =-.120299E-01  mag=     1.0000
       N       E                     dE             d eps       ncg     rms          rms(c)
DAV:   1    -0.231272380774E+04    0.38932E-02   -0.24161E+00  4544   0.156E+00    0.340E-01
RMM:   2    -0.231273263161E+04   -0.88239E-02   -0.85670E-02  5709   0.249E-01    0.380E-01
RMM:   3    -0.231273157990E+04    0.10517E-02   -0.49240E-03  5034   0.673E-02    0.287E-01
RMM:   4    -0.231273047918E+04    0.11007E-02   -0.75093E-04  5107   0.220E-02    0.878E-02
RMM:   5    -0.231273031054E+04    0.16863E-03   -0.70775E-04  4723   0.209E-02    0.220E-02
RMM:   6    -0.231273030464E+04    0.59072E-05   -0.60457E-05  3557   0.124E-02
  27 F= -.23332590E+04 E0= -.23332590E+04  d E =-.148746E-01  mag=     1.0000
       N       E                     dE             d eps       ncg     rms          rms(c)
DAV:   1    -0.231273287875E+04   -0.25682E-02   -0.49096E+00  4440   0.220E+00    0.444E-01
RMM:   2    -0.231274777926E+04   -0.14901E-01   -0.15781E-01  5710   0.349E-01    0.361E-01
RMM:   3    -0.231274783879E+04   -0.59527E-04   -0.81643E-03  5424   0.867E-02    0.427E-01
RMM:   4    -0.231274560894E+04    0.22298E-02   -0.15790E-03  5572   0.304E-02    0.131E-01
RMM:   5    -0.231274531345E+04    0.29549E-03   -0.13120E-03  4484   0.289E-02    0.338E-02
RMM:   6    -0.231274531303E+04    0.41745E-06   -0.10869E-04  3881   0.186E-02    0.170E-02
RMM:   7    -0.231274531113E+04    0.18998E-05   -0.18517E-05  2904   0.364E-03
  28 F= -.23332747E+04 E0= -.23332747E+04  d E =-.156378E-01  mag=     1.0000
       N       E                     dE             d eps       ncg     rms          rms(c)
DAV:   1    -0.231272827712E+04    0.17036E-01   -0.91530E+00  4440   0.300E+00    0.606E-01
RMM:   2    -0.231275603878E+04   -0.27762E-01   -0.29467E-01  5721   0.479E-01    0.492E-01
RMM:   3    -0.231275611441E+04   -0.75635E-04   -0.15146E-02  5441   0.117E-01    0.581E-01
RMM:   4    -0.231275197592E+04    0.41385E-02   -0.29224E-03  5665   0.416E-02    0.179E-01
RMM:   5    -0.231275140927E+04    0.56665E-03   -0.24745E-03  4493   0.396E-02    0.472E-02
RMM:   6    -0.231275140510E+04    0.41663E-05   -0.20810E-04  4104   0.257E-02    0.234E-02
RMM:   7    -0.231275140101E+04    0.40868E-05   -0.38878E-05  3307   0.494E-03
  29 F= -.23332816E+04 E0= -.23332816E+04  d E =-.225876E-01  mag=     1.0000
       N       E                     dE             d eps       ncg     rms          rms(c)
DAV:   1    -0.231274610845E+04    0.52966E-02   -0.43302E+00  4484   0.210E+00    0.417E-01
RMM:   2    -0.231276471508E+04   -0.18607E-01   -0.19428E-01  5830   0.360E-01    0.395E-01
RMM:   3    -0.231276400928E+04    0.70579E-03   -0.95756E-03  5529   0.847E-02    0.380E-01
RMM:   4    -0.231276224594E+04    0.17633E-02   -0.14489E-03  5481   0.280E-02    0.130E-01
RMM:   5    -0.231276199627E+04    0.24968E-03   -0.12299E-03  4641   0.264E-02    0.387E-02
RMM:   6    -0.231276199486E+04    0.14117E-05   -0.12151E-04  3980   0.171E-02    0.181E-02
RMM:   7    -0.231276199052E+04    0.43336E-05   -0.19327E-05  2925   0.381E-03
  30 F= -.23332929E+04 E0= -.23332929E+04  d E =-.112826E-01  mag=     1.0000
       N       E                     dE             d eps       ncg     rms          rms(c)
DAV:   1    -0.231270627872E+04    0.55716E-01   -0.17259E+01  4440   0.421E+00    0.834E-01
RMM:   2    -0.231278118666E+04   -0.74908E-01   -0.78319E-01  5825   0.730E-01    0.789E-01
RMM:   3    -0.231277792076E+04    0.32659E-02   -0.38973E-02  5534   0.174E-01    0.748E-01
RMM:   4    -0.231277105810E+04    0.68627E-02   -0.58858E-03  5577   0.564E-02    0.261E-01
RMM:   5    -0.231277002874E+04    0.10294E-02   -0.49612E-03  4666   0.534E-02    0.764E-02
RMM:   6    -0.231277001746E+04    0.11289E-04   -0.49941E-04  4519   0.339E-02    0.364E-02
RMM:   7    -0.231277000000E+04    0.17459E-04   -0.89823E-05  4118   0.747E-03    0.192E-02
RMM:   8    -0.231276999878E+04    0.12158E-05   -0.15837E-05  2879   0.521E-03
  31 F= -.23333023E+04 E0= -.23333023E+04  d E =-.206410E-01  mag=     1.0000
       N       E                     dE             d eps       ncg     rms          rms(c)
DAV:   1    -0.231274808957E+04    0.21910E-01   -0.64967E+00  4472   0.265E+00    0.621E-01
RMM:   2    -0.231279374591E+04   -0.45656E-01   -0.42538E-01  5872   0.493E-01    0.893E-01
RMM:   3    -0.231278520485E+04    0.85411E-02   -0.24666E-02  5476   0.125E-01    0.412E-01
RMM:   4    -0.231278302066E+04    0.21842E-02   -0.32225E-03  4964   0.365E-02    0.172E-01
RMM:   5    -0.231278249149E+04    0.52917E-03   -0.19737E-03  4969   0.359E-02    0.449E-02
RMM:   6    -0.231278248403E+04    0.74525E-05   -0.18493E-04  4551   0.196E-02    0.216E-02
RMM:   7    -0.231278247986E+04    0.41764E-05   -0.33259E-05  3276   0.474E-03
  32 F= -.23333155E+04 E0= -.23333155E+04  d E =-.132724E-01  mag=     1.0000
       N       E                     dE             d eps       ncg     rms          rms(c)
DAV:   1    -0.231277609410E+04    0.63899E-02   -0.14110E+00  4560   0.123E+00    0.290E-01
RMM:   2    -0.231278603962E+04   -0.99455E-02   -0.92347E-02  5872   0.230E-01    0.421E-01
RMM:   3    -0.231278416973E+04    0.18699E-02   -0.53002E-03  5383   0.593E-02    0.191E-01
RMM:   4    -0.231278369803E+04    0.47170E-03   -0.70502E-04  4726   0.172E-02    0.806E-02
RMM:   5    -0.231278357713E+04    0.12089E-03   -0.44668E-04  4840   0.172E-02    0.210E-02
RMM:   6    -0.231278357461E+04    0.25239E-05   -0.40053E-05  3237   0.951E-03
  33 F= -.23333170E+04 E0= -.23333170E+04  d E =-.147323E-01  mag=     1.0000
       N       E                     dE             d eps       ncg     rms          rms(c)
DAV:   1    -0.231276635283E+04    0.17224E-01   -0.42687E+00  4472   0.215E+00    0.535E-01
RMM:   2    -0.231280417829E+04   -0.37825E-01   -0.33088E-01  5897   0.414E-01    0.907E-01
RMM:   3    -0.231279463112E+04    0.95472E-02   -0.20206E-02  5512   0.104E-01    0.310E-01
RMM:   4    -0.231279337604E+04    0.12551E-02   -0.25913E-03  4785   0.288E-02    0.144E-01
RMM:   5    -0.231279301551E+04    0.36053E-03   -0.13320E-03  5213   0.288E-02    0.414E-02
RMM:   6    -0.231279301394E+04    0.15665E-05   -0.13982E-04  4459   0.141E-02    0.182E-02
RMM:   7    -0.231279301216E+04    0.17864E-05   -0.19617E-05  2947   0.420E-03
  34 F= -.23333269E+04 E0= -.23333269E+04  d E =-.993582E-02  mag=     1.0000
       N       E                     dE             d eps       ncg     rms          rms(c)
DAV:   1    -0.231275727928E+04    0.35735E-01   -0.60533E+00  4440   0.256E+00    0.635E-01
RMM:   2    -0.231281105191E+04   -0.53773E-01   -0.46846E-01  5901   0.497E-01    0.109E+00
RMM:   3    -0.231279736143E+04    0.13690E-01   -0.29159E-02  5509   0.128E-01    0.368E-01
RMM:   4    -0.231279556928E+04    0.17922E-02   -0.37378E-03  4820   0.347E-02    0.173E-01
RMM:   5    -0.231279503159E+04    0.53768E-03   -0.19383E-03  5252   0.348E-02    0.493E-02
RMM:   6    -0.231279502616E+04    0.54362E-05   -0.20378E-04  4723   0.169E-02    0.218E-02
RMM:   7    -0.231279502244E+04    0.37119E-05   -0.28649E-05  3059   0.491E-03
  35 F= -.23333295E+04 E0= -.23333295E+04  d E =-.125247E-01  mag=     1.0000
       N       E                     dE             d eps       ncg     rms          rms(c)
DAV:   1    -0.231279096447E+04    0.40617E-02   -0.17676E+00  4448   0.140E+00    0.302E-01
RMM:   2    -0.231280312817E+04   -0.12164E-01   -0.11598E-01  5898   0.265E-01    0.416E-01
RMM:   3    -0.231280160227E+04    0.15259E-02   -0.78238E-03  5545   0.670E-02    0.211E-01
RMM:   4    -0.231280105476E+04    0.54750E-03   -0.92893E-04  4968   0.184E-02    0.947E-02
RMM:   5    -0.231280092212E+04    0.13264E-03   -0.48821E-04  4643   0.177E-02    0.291E-02
RMM:   6    -0.231280092353E+04   -0.14025E-05   -0.69559E-05  3593   0.118E-02
  36 F= -.23333358E+04 E0= -.23333358E+04  d E =-.623885E-02  mag=     1.0000
       N       E                     dE             d eps       ncg     rms          rms(c)
DAV:   1    -0.231271947818E+04    0.81444E-01   -0.15863E+01  4408   0.418E+00    0.915E-01
RMM:   2    -0.231283080837E+04   -0.11133E+00   -0.10602E+00  5917   0.810E-01    0.127E+00
RMM:   3    -0.231281576084E+04    0.15048E-01   -0.72463E-02  5616   0.195E-01    0.632E-01
RMM:   4    -0.231281092632E+04    0.48345E-02   -0.84668E-03  5260   0.544E-02    0.285E-01
RMM:   5    -0.231280972849E+04    0.11978E-02   -0.42973E-03  4721   0.511E-02    0.920E-02
RMM:   6    -0.231280971901E+04    0.94811E-05   -0.67333E-04  4663   0.350E-02    0.380E-02
RMM:   7    -0.231280970197E+04    0.17040E-04   -0.95906E-05  3828   0.797E-03    0.219E-02
RMM:   8    -0.231280969473E+04    0.72341E-05   -0.24914E-05  2920   0.671E-03
  37 F= -.23333455E+04 E0= -.23333455E+04  d E =-.159611E-01  mag=     1.0000
       N       E                     dE             d eps       ncg     rms          rms(c)
DAV:   1    -0.231281328007E+04   -0.35781E-02   -0.72847E-01  4592   0.898E-01    0.262E-01
RMM:   2    -0.231281846759E+04   -0.51875E-02   -0.57855E-02  5878   0.182E-01    0.137E-01
RMM:   3    -0.231281856978E+04   -0.10220E-03   -0.40040E-03  5662   0.522E-02    0.184E-01
RMM:   4    -0.231281825630E+04    0.31348E-03   -0.56331E-04  4674   0.155E-02    0.794E-02
RMM:   5    -0.231281815614E+04    0.10016E-03   -0.33668E-04  4656   0.129E-02    0.311E-02
RMM:   6    -0.231281814288E+04    0.13254E-04   -0.52782E-05  3282   0.880E-03    0.947E-03
RMM:   7    -0.231281814039E+04    0.24905E-05   -0.14810E-05  2877   0.423E-03
  38 F= -.23333539E+04 E0= -.23333539E+04  d E =-.841503E-02  mag=     1.0000
       N       E                     dE             d eps       ncg     rms          rms(c)
DAV:   1    -0.231281496495E+04    0.31779E-02   -0.10423E+00  4432   0.107E+00    0.314E-01
RMM:   2    -0.231282245843E+04   -0.74935E-02   -0.83581E-02  5892   0.219E-01    0.163E-01
RMM:   3    -0.231282254775E+04   -0.89322E-04   -0.56331E-03  5698   0.629E-02    0.210E-01
RMM:   4    -0.231282214943E+04    0.39832E-03   -0.80653E-04  5017   0.183E-02    0.970E-02
RMM:   5    -0.231282199831E+04    0.15112E-03   -0.49103E-04  4841   0.151E-02    0.376E-02
RMM:   6    -0.231282197719E+04    0.21120E-04   -0.79007E-05  3658   0.975E-03    0.117E-02
RMM:   7    -0.231282197274E+04    0.44485E-05   -0.19946E-05  2937   0.433E-03
  39 F= -.23333577E+04 E0= -.23333577E+04  d E =-.122070E-01  mag=     1.0000
       N       E                     dE             d eps       ncg     rms          rms(c)
DAV:   1    -0.231282464220E+04   -0.26650E-02   -0.93675E-01  4432   0.980E-01    0.257E-01
RMM:   2    -0.231282944195E+04   -0.47998E-02   -0.53676E-02  5692   0.162E-01    0.120E-01
RMM:   3    -0.231282946061E+04   -0.18660E-04   -0.42369E-03  5147   0.535E-02    0.750E-02
RMM:   4    -0.231282942448E+04    0.36133E-04   -0.74162E-04  4636   0.181E-02    0.553E-02
RMM:   5    -0.231282942783E+04   -0.33576E-05   -0.13996E-04  3647   0.124E-02    0.563E-02
RMM:   6    -0.231282939036E+04    0.37475E-04   -0.31410E-05  2911   0.465E-03    0.107E-02
RMM:   7    -0.231282938870E+04    0.16549E-05   -0.10386E-05  2866   0.329E-03
  40 F= -.23333648E+04 E0= -.23333648E+04  d E =-.706766E-02  mag=     1.0000
       N       E                     dE             d eps       ncg     rms          rms(c)
DAV:   1    -0.231281770914E+04    0.11681E-01   -0.34946E+00  4408   0.189E+00    0.498E-01
RMM:   2    -0.231283565830E+04   -0.17949E-01   -0.20108E-01  5669   0.313E-01    0.232E-01
RMM:   3    -0.231283570497E+04   -0.46669E-04   -0.15923E-02  5198   0.949E-02    0.148E-01
RMM:   4    -0.231283565143E+04    0.53538E-04   -0.26867E-03  5083   0.348E-02    0.138E-01
RMM:   5    -0.231283556486E+04    0.86574E-04   -0.65753E-04  5071   0.216E-02    0.112E-01
RMM:   6    -0.231283541188E+04    0.15298E-03   -0.13543E-04  3621   0.810E-03    0.223E-02
RMM:   7    -0.231283540300E+04    0.88747E-05   -0.48271E-05  3019   0.585E-03
  41 F= -.23333701E+04 E0= -.23333701E+04  d E =-.124082E-01  mag=     1.0000
       N       E                     dE             d eps       ncg     rms          rms(c)
DAV:   1    -0.231283609068E+04   -0.67880E-03   -0.85872E-01  4496   0.953E-01    0.238E-01
RMM:   2    -0.231284188961E+04   -0.57989E-02   -0.62121E-02  5742   0.170E-01    0.186E-01
RMM:   3    -0.231284228453E+04   -0.39492E-03   -0.56577E-03  5272   0.581E-02    0.209E-01
RMM:   4    -0.231284180175E+04    0.48278E-03   -0.63863E-04  4987   0.158E-02    0.777E-02
RMM:   5    -0.231284172511E+04    0.76639E-04   -0.35697E-04  4593   0.129E-02    0.248E-02
RMM:   6    -0.231284172275E+04    0.23664E-05   -0.34533E-05  2993   0.787E-03
  42 F= -.23333760E+04 E0= -.23333760E+04  d E =-.590695E-02  mag=     1.0000
       N       E                     dE             d eps       ncg     rms          rms(c)
DAV:   1    -0.231281962048E+04    0.22105E-01   -0.42103E+00  4408   0.211E+00    0.528E-01
RMM:   2    -0.231284782426E+04   -0.28204E-01   -0.30379E-01  5703   0.373E-01    0.404E-01
RMM:   3    -0.231285008830E+04   -0.22640E-02   -0.28388E-02  5278   0.123E-01    0.484E-01
RMM:   4    -0.231284752618E+04    0.25621E-02   -0.31933E-03  5609   0.347E-02    0.171E-01
RMM:   5    -0.231284714256E+04    0.38362E-03   -0.18195E-03  5083   0.283E-02    0.550E-02
RMM:   6    -0.231284712034E+04    0.22224E-04   -0.19021E-04  4213   0.156E-02    0.207E-02
RMM:   7    -0.231284711551E+04    0.48303E-05   -0.35454E-05  3112   0.453E-03
  43 F= -.23333805E+04 E0= -.23333805E+04  d E =-.103854E-01  mag=     1.0000
       N       E                     dE             d eps       ncg     rms          rms(c)
DAV:   1    -0.231284439762E+04    0.27227E-02   -0.16263E+00  4408   0.132E+00    0.342E-01
RMM:   2    -0.231285594414E+04   -0.11547E-01   -0.11445E-01  5851   0.242E-01    0.376E-01
RMM:   3    -0.231285532557E+04    0.61857E-03   -0.81729E-03  5447   0.691E-02    0.286E-01
RMM:   4    -0.231285432337E+04    0.10022E-02   -0.10668E-03  5188   0.210E-02    0.978E-02
RMM:   5    -0.231285419060E+04    0.13277E-03   -0.68612E-04  4857   0.193E-02    0.254E-02
RMM:   6    -0.231285418872E+04    0.18774E-05   -0.56140E-05  3353   0.108E-02
  44 F= -.23333870E+04 E0= -.23333870E+04  d E =-.650076E-02  mag=     1.0000
       N       E                     dE             d eps       ncg     rms          rms(c)
DAV:   1    -0.231283643442E+04    0.17756E-01   -0.35860E+00  4408   0.196E+00    0.510E-01
RMM:   2    -0.231286197816E+04   -0.25544E-01   -0.25341E-01  5862   0.359E-01    0.559E-01
RMM:   3    -0.231286062977E+04    0.13484E-02   -0.18377E-02  5497   0.956E-02    0.428E-01
RMM:   4    -0.231285838082E+04    0.22489E-02   -0.23667E-03  5371   0.308E-02    0.145E-01
RMM:   5    -0.231285807740E+04    0.30342E-03   -0.14881E-03  4945   0.283E-02    0.386E-02
RMM:   6    -0.231285807035E+04    0.70472E-05   -0.12611E-04  4064   0.157E-02    0.186E-02
RMM:   7    -0.231285806883E+04    0.15218E-05   -0.27927E-05  2957   0.396E-03
  45 F= -.23333900E+04 E0= -.23333900E+04  d E =-.951705E-02  mag=     1.0000
       N       E                     dE             d eps       ncg     rms          rms(c)
DAV:   1    -0.231285245843E+04    0.56119E-02   -0.16864E+00  4408   0.133E+00    0.357E-01
RMM:   2    -0.231286835088E+04   -0.15892E-01   -0.15431E-01  5941   0.280E-01    0.461E-01
RMM:   3    -0.231286659301E+04    0.17579E-02   -0.10696E-02  5623   0.719E-02    0.264E-01
RMM:   4    -0.231286576601E+04    0.82700E-03   -0.12799E-03  5165   0.203E-02    0.106E-01
RMM:   5    -0.231286561916E+04    0.14685E-03   -0.66289E-04  4869   0.184E-02    0.327E-02
RMM:   6    -0.231286561599E+04    0.31676E-05   -0.74202E-05  3643   0.109E-02
  46 F= -.23333970E+04 E0= -.23333970E+04  d E =-.697666E-02  mag=     1.0000
       N       E                     dE             d eps       ncg     rms          rms(c)
DAV:   1    -0.231282732872E+04    0.38290E-01   -0.55696E+00  4408   0.243E+00    0.654E-01
RMM:   2    -0.231287999853E+04   -0.52670E-01   -0.51191E-01  5937   0.516E-01    0.831E-01
RMM:   3    -0.231287424152E+04    0.57570E-02   -0.37240E-02  5703   0.126E-01    0.472E-01
RMM:   4    -0.231287158327E+04    0.26583E-02   -0.43949E-03  5375   0.367E-02    0.194E-01
RMM:   5    -0.231287107158E+04    0.51169E-03   -0.21619E-03  4936   0.327E-02    0.590E-02
RMM:   6    -0.231287105270E+04    0.18877E-04   -0.26809E-04  4676   0.198E-02    0.255E-02
RMM:   7    -0.231287104059E+04    0.12112E-04   -0.41744E-05  3221   0.529E-03    0.138E-02
RMM:   8    -0.231287103505E+04    0.55342E-05   -0.13023E-05  2868   0.428E-03
  47 F= -.23334013E+04 E0= -.23334013E+04  d E =-.113188E-01  mag=     1.0000
       N       E                     dE             d eps       ncg     rms          rms(c)
DAV:   1    -0.231285611883E+04    0.14922E-01   -0.29852E+00  4408   0.174E+00    0.486E-01
RMM:   2    -0.231288609514E+04   -0.29976E-01   -0.27720E-01  5962   0.380E-01    0.715E-01
RMM:   3    -0.231288098421E+04    0.51109E-02   -0.18569E-02  5714   0.922E-02    0.310E-01
RMM:   4    -0.231287985620E+04    0.11280E-02   -0.23139E-03  5146   0.260E-02    0.139E-01
RMM:   5    -0.231287959618E+04    0.26001E-03   -0.10193E-03  4979   0.244E-02    0.408E-02
RMM:   6    -0.231287959688E+04   -0.69443E-06   -0.12197E-04  4116   0.138E-02    0.175E-02
RMM:   7    -0.231287959308E+04    0.37933E-05   -0.16832E-05  2880   0.372E-03
  48 F= -.23334094E+04 E0= -.23334094E+04  d E =-.804895E-02  mag=     1.0000
       N       E                     dE             d eps       ncg     rms          rms(c)
DAV:   1    -0.231286619976E+04    0.13397E-01   -0.20768E+00  4440   0.145E+00    0.407E-01
RMM:   2    -0.231288710291E+04   -0.20903E-01   -0.19271E-01  5952   0.316E-01    0.601E-01
RMM:   3    -0.231288347675E+04    0.36262E-02   -0.12907E-02  5719   0.786E-02    0.258E-01
RMM:   4    -0.231288269519E+04    0.78155E-03   -0.16123E-03  5065   0.218E-02    0.116E-01
RMM:   5    -0.231288251169E+04    0.18350E-03   -0.71094E-04  4967   0.205E-02    0.339E-02
RMM:   6    -0.231288251088E+04    0.81222E-06   -0.82367E-05  3687   0.114E-02
  49 F= -.23334118E+04 E0= -.23334118E+04  d E =-.105214E-01  mag=     1.0000
       N       E                     dE             d eps       ncg     rms          rms(c)
DAV:   1    -0.231287358092E+04    0.89308E-02   -0.26063E+00  4408   0.156E+00    0.454E-01
RMM:   2    -0.231289757840E+04   -0.23997E-01   -0.21466E-01  5939   0.328E-01    0.714E-01
RMM:   3    -0.231289197645E+04    0.56019E-02   -0.13262E-02  5701   0.772E-02    0.279E-01
RMM:   4    -0.231289103009E+04    0.94636E-03   -0.18154E-03  4998   0.232E-02    0.125E-01
RMM:   5    -0.231289082938E+04    0.20071E-03   -0.86875E-04  5325   0.223E-02    0.381E-02
RMM:   6    -0.231289082244E+04    0.69439E-05   -0.12646E-04  4059   0.105E-02    0.153E-02
RMM:   7    -0.231289081928E+04    0.31592E-05   -0.12239E-05  2884   0.364E-03
  50 F= -.23334200E+04 E0= -.23334200E+04  d E =-.814985E-02  mag=     1.0000
       N       E                     dE             d eps       ncg     rms          rms(c)
DAV:   1    -0.231285982193E+04    0.31001E-01   -0.51260E+00  4408   0.218E+00    0.635E-01
RMM:   2    -0.231290678250E+04   -0.46961E-01   -0.41930E-01  5938   0.461E-01    0.100E+00
RMM:   3    -0.231289594492E+04    0.10838E-01   -0.27471E-02  5704   0.116E-01    0.390E-01
RMM:   4    -0.231289406684E+04    0.18781E-02   -0.36466E-03  5082   0.330E-02    0.176E-01
RMM:   5    -0.231289364874E+04    0.41810E-03   -0.17351E-03  5464   0.316E-02    0.547E-02
RMM:   6    -0.231289363209E+04    0.16653E-04   -0.25846E-04  4936   0.143E-02    0.221E-02
RMM:   7    -0.231289362592E+04    0.61716E-05   -0.23985E-05  2946   0.442E-03
  51 F= -.23334226E+04 E0= -.23334226E+04  d E =-.107085E-01  mag=     1.0000
       N       E                     dE             d eps       ncg     rms          rms(c)
DAV:   1    -0.231289169481E+04    0.19373E-02   -0.33749E-01  4528   0.561E-01    0.160E-01
RMM:   2    -0.231289473491E+04   -0.30401E-02   -0.27338E-02  5949   0.116E-01    0.251E-01
RMM:   3    -0.231289404676E+04    0.68816E-03   -0.15709E-03  5221   0.302E-02    0.997E-02
RMM:   4    -0.231289392605E+04    0.12070E-03   -0.22121E-04  3914   0.853E-03    0.440E-02
RMM:   5    -0.231289390338E+04    0.22674E-04   -0.10661E-04  4087   0.824E-03    0.139E-02
RMM:   6    -0.231289390327E+04    0.10910E-06   -0.16651E-05  2870   0.516E-03
  52 F= -.23334229E+04 E0= -.23334229E+04  d E =-.110525E-01  mag=     1.0000
       N       E                     dE             d eps       ncg     rms          rms(c)
DAV:   1    -0.231288686965E+04    0.70337E-02   -0.24088E+00  4408   0.146E+00    0.393E-01
RMM:   2    -0.231290458981E+04   -0.17720E-01   -0.17052E-01  5959   0.296E-01    0.532E-01
RMM:   3    -0.231290192922E+04    0.26606E-02   -0.10115E-02  5681   0.718E-02    0.280E-01
RMM:   4    -0.231290098984E+04    0.93938E-03   -0.13908E-03  5117   0.210E-02    0.115E-01
RMM:   5    -0.231290081412E+04    0.17571E-03   -0.80119E-04  4830   0.206E-02    0.272E-02
RMM:   6    -0.231290081632E+04   -0.21979E-05   -0.67155E-05  3553   0.110E-02
  53 F= -.23334295E+04 E0= -.23334295E+04  d E =-.658522E-02  mag=     1.0000
       N       E                     dE             d eps       ncg     rms          rms(c)
DAV:   1    -0.231285488219E+04    0.45932E-01   -0.86731E+00  4408   0.276E+00    0.754E-01
RMM:   2    -0.231291953739E+04   -0.64655E-01   -0.61992E-01  5949   0.571E-01    0.102E+00
RMM:   3    -0.231290972007E+04    0.98173E-02   -0.39295E-02  5785   0.134E-01    0.534E-01
RMM:   4    -0.231290634904E+04    0.33710E-02   -0.52053E-03  5306   0.400E-02    0.220E-01
RMM:   5    -0.231290573125E+04    0.61779E-03   -0.28211E-03  4882   0.381E-02    0.533E-02
RMM:   6    -0.231290573682E+04   -0.55696E-05   -0.25759E-04  4545   0.211E-02    0.267E-02
RMM:   7    -0.231290572902E+04    0.78002E-05   -0.36157E-05  3160   0.460E-03
  54 F= -.23334337E+04 E0= -.23334337E+04  d E =-.108371E-01  mag=     1.0000
       N       E                     dE             d eps       ncg     rms          rms(c)
DAV:   1    -0.231289962395E+04    0.61129E-02   -0.20882E+00  4408   0.131E+00    0.358E-01
RMM:   2    -0.231291491857E+04   -0.15295E-01   -0.14886E-01  5960   0.270E-01    0.479E-01
RMM:   3    -0.231291282083E+04    0.20977E-02   -0.93412E-03  5712   0.643E-02    0.261E-01
RMM:   4    -0.231291203719E+04    0.78364E-03   -0.12243E-03  5207   0.191E-02    0.108E-01
RMM:   5    -0.231291189599E+04    0.14121E-03   -0.66899E-04  4706   0.182E-02    0.258E-02
RMM:   6    -0.231291189692E+04   -0.92971E-06   -0.58574E-05  3319   0.102E-02
  55 F= -.23334394E+04 E0= -.23334394E+04  d E =-.568498E-02  mag=     1.0000
       N       E                     dE             d eps       ncg     rms          rms(c)
DAV:   1    -0.231282230714E+04    0.89589E-01   -0.16063E+01  4408   0.365E+00    0.100E+00
RMM:   2    -0.231294310282E+04   -0.12080E+00   -0.11776E+00  5967   0.764E-01    0.134E+00
RMM:   3    -0.231292584756E+04    0.17255E-01   -0.74946E-02  5808   0.180E-01    0.726E-01
RMM:   4    -0.231291982707E+04    0.60205E-02   -0.96557E-03  5516   0.531E-02    0.305E-01
RMM:   5    -0.231291866820E+04    0.11589E-02   -0.53323E-03  4812   0.498E-02    0.757E-02
RMM:   6    -0.231291866020E+04    0.79998E-05   -0.50909E-04  4696   0.285E-02    0.375E-02
RMM:   7    -0.231291864195E+04    0.18251E-04   -0.86376E-05  3666   0.643E-03    0.206E-02
RMM:   8    -0.231291863279E+04    0.91611E-05   -0.23289E-05  2923   0.540E-03
  56 F= -.23334448E+04 E0= -.23334448E+04  d E =-.110200E-01  mag=     1.0000
       N       E                     dE             d eps       ncg     rms          rms(c)
DAV:   1    -0.231289270695E+04    0.25935E-01   -0.47545E+00  4440   0.195E+00    0.564E-01
RMM:   2    -0.231293520727E+04   -0.42500E-01   -0.40974E-01  6029   0.417E-01    0.800E-01
RMM:   3    -0.231292905125E+04    0.61560E-02   -0.28248E-02  5780   0.104E-01    0.388E-01
RMM:   4    -0.231292738549E+04    0.16658E-02   -0.33681E-03  5391   0.286E-02    0.175E-01
RMM:   5    -0.231292702383E+04    0.36166E-03   -0.15768E-03  5055   0.269E-02    0.438E-02
RMM:   6    -0.231292703261E+04   -0.87840E-05   -0.14377E-04  3940   0.136E-02    0.211E-02
RMM:   7    -0.231292702929E+04    0.33187E-05   -0.20427E-05  2912   0.379E-03
  57 F= -.23334523E+04 E0= -.23334523E+04  d E =-.757069E-02  mag=     1.0000
       N       E                     dE             d eps       ncg     rms          rms(c)
DAV:   1    -0.231289582230E+04    0.31210E-01   -0.49434E+00  4440   0.198E+00    0.576E-01
RMM:   2    -0.231294005240E+04   -0.44230E-01   -0.42644E-01  6021   0.426E-01    0.816E-01
RMM:   3    -0.231293364988E+04    0.64025E-02   -0.29454E-02  5778   0.107E-01    0.397E-01
RMM:   4    -0.231293190878E+04    0.17411E-02   -0.35231E-03  5417   0.293E-02    0.179E-01
RMM:   5    -0.231293152886E+04    0.37992E-03   -0.16326E-03  5062   0.273E-02    0.453E-02
RMM:   6    -0.231293153641E+04   -0.75573E-05   -0.15185E-04  3993   0.139E-02    0.218E-02
RMM:   7    -0.231293153205E+04    0.43627E-05   -0.22215E-05  2921   0.388E-03
  58 F= -.23334560E+04 E0= -.23334560E+04  d E =-.112029E-01  mag=     1.0000
       N       E                     dE             d eps       ncg     rms          rms(c)
DAV:   1    -0.231292134605E+04    0.10190E-01   -0.20766E+00  4464   0.135E+00    0.428E-01
RMM:   2    -0.231294475976E+04   -0.23414E-01   -0.22543E-01  5982   0.299E-01    0.580E-01
RMM:   3    -0.231294179235E+04    0.29674E-02   -0.15654E-02  5674   0.801E-02    0.300E-01
RMM:   4    -0.231294071430E+04    0.10781E-02   -0.19010E-03  5162   0.227E-02    0.127E-01
RMM:   5    -0.231294048628E+04    0.22802E-03   -0.88002E-04  5254   0.210E-02    0.333E-02
RMM:   6    -0.231294048578E+04    0.49955E-06   -0.80076E-05  3616   0.102E-02
  59 F= -.23334644E+04 E0= -.23334644E+04  d E =-.842446E-02  mag=     1.0000
       N       E                     dE             d eps       ncg     rms          rms(c)
DAV:   1    -0.231290411952E+04    0.36367E-01   -0.42572E+00  4440   0.194E+00    0.616E-01
RMM:   2    -0.231295230396E+04   -0.48184E-01   -0.46482E-01  5983   0.433E-01    0.825E-01
RMM:   3    -0.231294641965E+04    0.58843E-02   -0.34009E-02  5727   0.111E-01    0.433E-01
RMM:   4    -0.231294416483E+04    0.22548E-02   -0.40080E-03  5350   0.326E-02    0.182E-01
RMM:   5    -0.231294368299E+04    0.48183E-03   -0.17931E-03  5266   0.297E-02    0.493E-02
RMM:   6    -0.231294367833E+04    0.46625E-05   -0.18591E-04  4481   0.148E-02    0.229E-02
RMM:   7    -0.231294367323E+04    0.51008E-05   -0.30955E-05  3040   0.457E-03
  60 F= -.23334668E+04 E0= -.23334668E+04  d E =-.108245E-01  mag=     1.0000
       N       E                     dE             d eps       ncg     rms          rms(c)
DAV:   1    -0.231294074374E+04    0.29346E-02   -0.34904E-01  4592   0.555E-01    0.171E-01
RMM:   2    -0.231294455136E+04   -0.38076E-02   -0.37236E-02  6011   0.120E-01    0.220E-01
RMM:   3    -0.231294416801E+04    0.38335E-03   -0.23930E-03  5276   0.324E-02    0.126E-01
RMM:   4    -0.231294397391E+04    0.19409E-03   -0.29763E-04  3896   0.946E-03    0.510E-02
RMM:   5    -0.231294393569E+04    0.38220E-04   -0.14274E-04  4211   0.894E-03    0.124E-02
RMM:   6    -0.231294393672E+04   -0.10314E-05   -0.13301E-05  2867   0.562E-03
  61 F= -.23334673E+04 E0= -.23334673E+04  d E =-.113171E-01  mag=     1.0000
       N       E                     dE             d eps       ncg     rms          rms(c)
DAV:   1    -0.231293523529E+04    0.87004E-02   -0.19491E+00  4408   0.128E+00    0.388E-01
RMM:   2    -0.231295491942E+04   -0.19684E-01   -0.18466E-01  5993   0.272E-01    0.567E-01
RMM:   3    -0.231295167263E+04    0.32468E-02   -0.12043E-02  5665   0.708E-02    0.263E-01
RMM:   4    -0.231295083899E+04    0.83365E-03   -0.14736E-03  5131   0.197E-02    0.115E-01
RMM:   5    -0.231295065616E+04    0.18282E-03   -0.72683E-04  5191   0.185E-02    0.344E-02
RMM:   6    -0.231295065196E+04    0.41993E-05   -0.10023E-04  3559   0.943E-03    0.142E-02
RMM:   7    -0.231295064959E+04    0.23761E-05   -0.12381E-05  2875   0.378E-03
  62 F= -.23334734E+04 E0= -.23334734E+04  d E =-.616662E-02  mag=     1.0000
       N       E                     dE             d eps       ncg     rms          rms(c)
DAV:   1    -0.231288823145E+04    0.62421E-01   -0.85606E+00  4408   0.268E+00    0.825E-01
RMM:   2    -0.231297627049E+04   -0.88039E-01   -0.82488E-01  6007   0.581E-01    0.121E+00
RMM:   3    -0.231296145246E+04    0.14818E-01   -0.54915E-02  5739   0.153E-01    0.567E-01
RMM:   4    -0.231295763239E+04    0.38201E-02   -0.66957E-03  5467   0.419E-02    0.245E-01
RMM:   5    -0.231295683051E+04    0.80188E-03   -0.32824E-03  5417   0.384E-02    0.745E-02
RMM:   6    -0.231295681009E+04    0.20420E-04   -0.46446E-04  5050   0.187E-02    0.317E-02
RMM:   7    -0.231295679658E+04    0.13508E-04   -0.50554E-05  3171   0.556E-03    0.172E-02
RMM:   8    -0.231295679106E+04    0.55223E-05   -0.21253E-05  2895   0.446E-03
  63 F= -.23334784E+04 E0= -.23334784E+04  d E =-.111243E-01  mag=     1.0000
       N       E                     dE             d eps       ncg     rms          rms(c)
DAV:   1    -0.231294891274E+04    0.78838E-02   -0.24945E+00  4420   0.142E+00    0.399E-01
RMM:   2    -0.231296875538E+04   -0.19843E-01   -0.19042E-01  6003   0.291E-01    0.531E-01
RMM:   3    -0.231296633764E+04    0.24177E-02   -0.11878E-02  5739   0.705E-02    0.295E-01
RMM:   4    -0.231296533754E+04    0.10001E-02   -0.15242E-03  5322   0.211E-02    0.124E-01
RMM:   5    -0.231296515525E+04    0.18229E-03   -0.80642E-04  5016   0.194E-02    0.349E-02
RMM:   6    -0.231296515260E+04    0.26486E-05   -0.97085E-05  3488   0.103E-02
  64 F= -.23334861E+04 E0= -.23334861E+04  d E =-.765269E-02  mag=     1.0000
       N       E                     dE             d eps       ncg     rms          rms(c)
DAV:   1    -0.231282612548E+04    0.13903E+00   -0.22317E+01  4408   0.423E+00    0.122E+00
RMM:   2    -0.231300760993E+04   -0.18148E+00   -0.17516E+00  6001   0.887E-01    0.160E+00
RMM:   3    -0.231298648098E+04    0.21129E-01   -0.11416E-01  5810   0.213E-01    0.938E-01
RMM:   4    -0.231297643281E+04    0.10048E-01   -0.14557E-02  5722   0.649E-02    0.382E-01
RMM:   5    -0.231297472385E+04    0.17090E-02   -0.75182E-03  5137   0.576E-02    0.115E-01
RMM:   6    -0.231297468565E+04    0.38200E-04   -0.10507E-03  5218   0.304E-02    0.492E-02
RMM:   7    -0.231297465332E+04    0.32335E-04   -0.13259E-04  3803   0.769E-03    0.259E-02
RMM:   8    -0.231297464139E+04    0.11929E-04   -0.42794E-05  3014   0.650E-03    0.107E-02
RMM:   9    -0.231297464230E+04   -0.91498E-06   -0.18177E-05  2887   0.413E-03
  65 F= -.23334934E+04 E0= -.23334934E+04  d E =-.149532E-01  mag=     1.0000
       N       E                     dE             d eps       ncg     rms          rms(c)
DAV:   1    -0.231295638365E+04    0.18258E-01   -0.41368E+00  4408   0.183E+00    0.518E-01
RMM:   2    -0.231298598542E+04   -0.29602E-01   -0.29769E-01  5957   0.369E-01    0.535E-01
RMM:   3    -0.231298536363E+04    0.62179E-03   -0.23633E-02  5765   0.978E-02    0.427E-01
RMM:   4    -0.231298324016E+04    0.21235E-02   -0.29256E-03  5623   0.295E-02    0.164E-01
RMM:   5    -0.231298292093E+04    0.31922E-03   -0.14942E-03  5146   0.254E-02    0.472E-02
RMM:   6    -0.231298291874E+04    0.21867E-05   -0.18510E-04  4067   0.131E-02    0.215E-02
RMM:   7    -0.231298291401E+04    0.47377E-05   -0.22744E-05  2924   0.396E-03
  66 F= -.23335010E+04 E0= -.23335010E+04  d E =-.760942E-02  mag=     1.0000
       N       E                     dE             d eps       ncg     rms          rms(c)
DAV:   1    -0.231296644599E+04    0.16473E-01   -0.30628E+00  4408   0.157E+00    0.448E-01
RMM:   2    -0.231298853059E+04   -0.22085E-01   -0.22136E-01  5934   0.319E-01    0.468E-01
RMM:   3    -0.231298796171E+04    0.56889E-03   -0.17517E-02  5746   0.877E-02    0.365E-01
RMM:   4    -0.231298640911E+04    0.15526E-02   -0.21775E-03  5589   0.256E-02    0.141E-01
RMM:   5    -0.231298617298E+04    0.23613E-03   -0.10903E-03  5086   0.218E-02    0.399E-02
RMM:   6    -0.231298617175E+04    0.12325E-05   -0.13735E-04  3760   0.114E-02    0.183E-02
RMM:   7    -0.231298616813E+04    0.36159E-05   -0.17526E-05  2896   0.381E-03
  67 F= -.23335036E+04 E0= -.23335036E+04  d E =-.102803E-01  mag=     1.0000
       N       E                     dE             d eps       ncg     rms          rms(c)
DAV:   1    -0.231298712387E+04   -0.95213E-03   -0.12276E+00  4464   0.100E+00    0.298E-01
RMM:   2    -0.231299425441E+04   -0.71305E-02   -0.73659E-02  5868   0.189E-01    0.265E-01
RMM:   3    -0.231299439048E+04   -0.13607E-03   -0.63928E-03  5637   0.613E-02    0.260E-01
RMM:   4    -0.231299358215E+04    0.80833E-03   -0.86681E-04  5348   0.189E-02    0.889E-02
RMM:   5    -0.231299347499E+04    0.10716E-03   -0.50230E-04  4960   0.154E-02    0.345E-02
RMM:   6    -0.231299345842E+04    0.16570E-04   -0.83757E-05  3384   0.888E-03    0.118E-02
RMM:   7    -0.231299345667E+04    0.17467E-05   -0.12594E-05  2872   0.398E-03
  68 F= -.23335110E+04 E0= -.23335110E+04  d E =-.733789E-02  mag=     1.0000
       N       E                     dE             d eps       ncg     rms          rms(c)
DAV:   1    -0.231298792972E+04    0.55287E-02   -0.16388E+00  4408   0.116E+00    0.344E-01
RMM:   2    -0.231299742582E+04   -0.94961E-02   -0.98465E-02  5855   0.220E-01    0.303E-01
RMM:   3    -0.231299762089E+04   -0.19507E-03   -0.85275E-03  5649   0.710E-02    0.301E-01
RMM:   4    -0.231299653667E+04    0.10842E-02   -0.11401E-03  5466   0.219E-02    0.103E-01
RMM:   5    -0.231299639064E+04    0.14603E-03   -0.69215E-04  5231   0.178E-02    0.401E-02
RMM:   6    -0.231299636643E+04    0.24208E-04   -0.11435E-04  3704   0.972E-03    0.137E-02
RMM:   7    -0.231299636390E+04    0.25222E-05   -0.15997E-05  2880   0.386E-03
  69 F= -.23335139E+04 E0= -.23335139E+04  d E =-.102962E-01  mag=     1.0000
       N       E                     dE             d eps       ncg     rms          rms(c)
DAV:   1    -0.231299418060E+04    0.21858E-02   -0.19488E+00  4408   0.129E+00    0.348E-01
RMM:   2    -0.231300389946E+04   -0.97189E-02   -0.10092E-01  5864   0.236E-01    0.305E-01
RMM:   3    -0.231300406709E+04   -0.16763E-03   -0.79293E-03  5644   0.720E-02    0.311E-01
RMM:   4    -0.231300287791E+04    0.11892E-02   -0.11002E-03  5442   0.221E-02    0.967E-02
RMM:   5    -0.231300274426E+04    0.13365E-03   -0.67701E-04  4964   0.178E-02    0.331E-02
RMM:   6    -0.231300273540E+04    0.88634E-05   -0.85405E-05  3492   0.997E-03
  70 F= -.23335202E+04 E0= -.23335202E+04  d E =-.622116E-02  mag=     1.0000
       N       E                     dE             d eps       ncg     rms          rms(c)
DAV:   1    -0.231296150106E+04    0.41243E-01   -0.89302E+00  4408   0.276E+00    0.748E-01
RMM:   2    -0.231300580903E+04   -0.44308E-01   -0.46265E-01  5853   0.506E-01    0.636E-01
RMM:   3    -0.231300701328E+04   -0.12043E-02   -0.39178E-02  5725   0.146E-01    0.667E-01
RMM:   4    -0.231300156487E+04    0.54484E-02   -0.51529E-03  5725   0.469E-02    0.210E-01
RMM:   5    -0.231300095114E+04    0.61372E-03   -0.31810E-03  5270   0.375E-02    0.807E-02
RMM:   6    -0.231300087225E+04    0.78890E-04   -0.49664E-04  4991   0.201E-02    0.292E-02
RMM:   7    -0.231300086069E+04    0.11558E-04   -0.65364E-05  3327   0.595E-03    0.155E-02
RMM:   8    -0.231300085646E+04    0.42300E-05   -0.14629E-05  2879   0.459E-03
  71 F= -.23335179E+04 E0= -.23335179E+04  d E =-.398038E-02  mag=     1.0000
       N       E                     dE             d eps       ncg     rms          rms(c)
DAV:   1    -0.231299093591E+04    0.99248E-02   -0.31064E+00  4408   0.163E+00    0.439E-01
RMM:   2    -0.231300638766E+04   -0.15452E-01   -0.16105E-01  5873   0.296E-01    0.379E-01
RMM:   3    -0.231300668885E+04   -0.30118E-03   -0.11891E-02  5644   0.862E-02    0.396E-01
RMM:   4    -0.231300475778E+04    0.19311E-02   -0.17299E-03  5561   0.278E-02    0.121E-01
RMM:   5    -0.231300453031E+04    0.22747E-03   -0.99619E-04  4845   0.212E-02    0.359E-02
RMM:   6    -0.231300452364E+04    0.66717E-05   -0.10154E-04  3877   0.125E-02    0.149E-02
RMM:   7    -0.231300452117E+04    0.24666E-05   -0.13645E-05  2883   0.346E-03
  72 F= -.23335218E+04 E0= -.23335218E+04  d E =-.786490E-02  mag=     1.0000
       N       E                     dE             d eps       ncg     rms          rms(c)
DAV:   1    -0.231299666430E+04    0.78593E-02   -0.22631E+00  4408   0.143E+00    0.374E-01
RMM:   2    -0.231301241054E+04   -0.15746E-01   -0.16121E-01  5934   0.295E-01    0.371E-01
RMM:   3    -0.231301207265E+04    0.33789E-03   -0.10956E-02  5731   0.743E-02    0.311E-01
RMM:   4    -0.231301087732E+04    0.11953E-02   -0.14840E-03  5424   0.235E-02    0.111E-01
RMM:   5    -0.231301068151E+04    0.19582E-03   -0.75413E-04  4807   0.196E-02    0.309E-02
RMM:   6    -0.231301068149E+04    0.16546E-07   -0.85799E-05  3783   0.117E-02
  73 F= -.23335274E+04 E0= -.23335274E+04  d E =-.557689E-02  mag=     1.0000
       N       E                     dE             d eps       ncg     rms          rms(c)
DAV:   1    -0.231298077870E+04    0.29903E-01   -0.47953E+00  4408   0.208E+00    0.550E-01
RMM:   2    -0.231301452513E+04   -0.33746E-01   -0.34444E-01  5936   0.431E-01    0.552E-01
RMM:   3    -0.231301361162E+04    0.91351E-03   -0.23776E-02  5782   0.107E-01    0.453E-01
RMM:   4    -0.231301110213E+04    0.25095E-02   -0.31660E-03  5603   0.341E-02    0.162E-01
RMM:   5    -0.231301069653E+04    0.40560E-03   -0.16005E-03  4834   0.284E-02    0.459E-02
RMM:   6    -0.231301069639E+04    0.13525E-06   -0.18250E-04  4412   0.170E-02    0.214E-02
RMM:   7    -0.231301069259E+04    0.37990E-05   -0.29456E-05  3123   0.428E-03
  74 F= -.23335265E+04 E0= -.23335265E+04  d E =-.470284E-02  mag=     1.0000
       N       E                     dE             d eps       ncg     rms          rms(c)
DAV:   1    -0.231300265619E+04    0.80402E-02   -0.15090E+00  4408   0.117E+00    0.303E-01
RMM:   2    -0.231301310146E+04   -0.10445E-01   -0.10738E-01  5954   0.237E-01    0.293E-01
RMM:   3    -0.231301291855E+04    0.18291E-03   -0.67984E-03  5692   0.598E-02    0.254E-01
RMM:   4    -0.231301210893E+04    0.80962E-03   -0.96050E-04  5255   0.191E-02    0.901E-02
RMM:   5    -0.231301198092E+04    0.12802E-03   -0.46551E-04  4544   0.157E-02    0.251E-02
RMM:   6    -0.231301198262E+04   -0.17038E-05   -0.58607E-05  3280   0.103E-02
  75 F= -.23335283E+04 E0= -.23335283E+04  d E =-.649457E-02  mag=     1.0000
       N       E                     dE             d eps       ncg     rms          rms(c)
DAV:   1    -0.231298912969E+04    0.22851E-01   -0.30423E+00  4408   0.168E+00    0.508E-01
RMM:   2    -0.231302390687E+04   -0.34777E-01   -0.33102E-01  6113   0.397E-01    0.671E-01
RMM:   3    -0.231302016893E+04    0.37379E-02   -0.22427E-02  5809   0.988E-02    0.335E-01
RMM:   4    -0.231301876588E+04    0.14031E-02   -0.27783E-03  5382   0.267E-02    0.137E-01
RMM:   5    -0.231301844969E+04    0.31618E-03   -0.98911E-04  5142   0.228E-02    0.444E-02
RMM:   6    -0.231301845241E+04   -0.27132E-05   -0.15468E-04  4175   0.126E-02    0.185E-02
RMM:   7    -0.231301844705E+04    0.53528E-05   -0.18699E-05  2897   0.386E-03
  76 F= -.23335338E+04 E0= -.23335338E+04  d E =-.551788E-02  mag=     1.0000
       N       E                     dE             d eps       ncg     rms          rms(c)
DAV:   1    -0.231301211784E+04    0.63346E-02   -0.79454E-01  4528   0.858E-01    0.261E-01
RMM:   2    -0.231302129138E+04   -0.91735E-02   -0.86851E-02  6041   0.203E-01    0.351E-01
RMM:   3    -0.231302024190E+04    0.10495E-02   -0.57907E-03  5675   0.518E-02    0.170E-01
RMM:   4    -0.231301988216E+04    0.35974E-03   -0.73131E-04  4913   0.138E-02    0.703E-02
RMM:   5    -0.231301980003E+04    0.82130E-04   -0.26147E-04  4499   0.121E-02    0.229E-02
RMM:   6    -0.231301980003E+04   -0.43656E-09   -0.39438E-05  2965   0.754E-03
  77 F= -.23335347E+04 E0= -.23335347E+04  d E =-.637402E-02  mag=     1.0000
       N       E                     dE             d eps       ncg     rms          rms(c)
DAV:   1    -0.231298972397E+04    0.30076E-01   -0.29487E+00  4408   0.164E+00    0.538E-01
RMM:   2    -0.231303601943E+04   -0.46295E-01   -0.42095E-01  6031   0.404E-01    0.882E-01
RMM:   3    -0.231302762021E+04    0.83992E-02   -0.27715E-02  5793   0.995E-02    0.307E-01
RMM:   4    -0.231302647153E+04    0.11487E-02   -0.33253E-03  5164   0.259E-02    0.148E-01
RMM:   5    -0.231302612333E+04    0.34821E-03   -0.10563E-03  5497   0.232E-02    0.546E-02
RMM:   6    -0.231302611480E+04    0.85239E-05   -0.18554E-04  4350   0.116E-02    0.197E-02
RMM:   7    -0.231302610770E+04    0.71041E-05   -0.20019E-05  2884   0.450E-03
  78 F= -.23335399E+04 E0= -.23335399E+04  d E =-.526388E-02  mag=     1.0000
       N       E                     dE             d eps       ncg     rms          rms(c)
DAV:   1    -0.231302342544E+04    0.26894E-02   -0.25847E-01  4624   0.484E-01    0.161E-01
RMM:   2    -0.231302757035E+04   -0.41449E-02   -0.37318E-02  6094   0.121E-01    0.272E-01
RMM:   3    -0.231302675961E+04    0.81074E-03   -0.24191E-03  5292   0.320E-02    0.883E-02
RMM:   4    -0.231302666488E+04    0.94728E-04   -0.29066E-04  3358   0.806E-03    0.448E-02
RMM:   5    -0.231302663239E+04    0.32491E-04   -0.10014E-04  3798   0.771E-03    0.168E-02
RMM:   6    -0.231302663101E+04    0.13799E-05   -0.19652E-05  2868   0.532E-03
  79 F= -.23335401E+04 E0= -.23335401E+04  d E =-.547202E-02  mag=     1.0000
       N       E                     dE             d eps       ncg     rms          rms(c)
DAV:   1    -0.231300041373E+04    0.26219E-01   -0.31435E+00  4408   0.166E+00    0.503E-01
RMM:   2    -0.231304099188E+04   -0.40578E-01   -0.36940E-01  6074   0.383E-01    0.819E-01
RMM:   3    -0.231303393262E+04    0.70593E-02   -0.24743E-02  5774   0.937E-02    0.300E-01
RMM:   4    -0.231303285533E+04    0.10773E-02   -0.29531E-03  5182   0.247E-02    0.143E-01
RMM:   5    -0.231303254493E+04    0.31040E-03   -0.93901E-04  5399   0.215E-02    0.536E-02
RMM:   6    -0.231303253899E+04    0.59439E-05   -0.20060E-04  4305   0.115E-02    0.191E-02
RMM:   7    -0.231303253378E+04    0.52074E-05   -0.18851E-05  2887   0.448E-03
  80 F= -.23335448E+04 E0= -.23335448E+04  d E =-.468839E-02  mag=     1.0000
       N       E                     dE             d eps       ncg     rms          rms(c)
DAV:   1    -0.231295735360E+04    0.75185E-01   -0.76065E+00  4408   0.258E+00    0.783E-01
RMM:   2    -0.231305544790E+04   -0.98094E-01   -0.89451E-01  6111   0.597E-01    0.127E+00
RMM:   3    -0.231303886133E+04    0.16587E-01   -0.61394E-02  5818   0.150E-01    0.483E-01
RMM:   4    -0.231303606922E+04    0.27921E-02   -0.71752E-03  5354   0.391E-02    0.224E-01
RMM:   5    -0.231303529878E+04    0.77044E-03   -0.23615E-03  5414   0.340E-02    0.843E-02
RMM:   6    -0.231303528442E+04    0.14362E-04   -0.50833E-04  4988   0.181E-02    0.307E-02
RMM:   7    -0.231303527114E+04    0.13282E-04   -0.47210E-05  3078   0.602E-03    0.186E-02
RMM:   8    -0.231303526469E+04    0.64452E-05   -0.25399E-05  2898   0.466E-03
  81 F= -.23335456E+04 E0= -.23335456E+04  d E =-.546371E-02  mag=     1.0000
       N       E                     dE             d eps       ncg     rms          rms(c)
DAV:   1    -0.231302238293E+04    0.12888E-01   -0.12441E+00  4432   0.104E+00    0.318E-01
RMM:   2    -0.231303869445E+04   -0.16312E-01   -0.14674E-01  6133   0.241E-01    0.537E-01
RMM:   3    -0.231303559380E+04    0.31007E-02   -0.95288E-03  5713   0.585E-02    0.180E-01
RMM:   4    -0.231303521132E+04    0.38247E-03   -0.11540E-03  4793   0.153E-02    0.893E-02
RMM:   5    -0.231303509057E+04    0.12076E-03   -0.34596E-04  4894   0.133E-02    0.351E-02
RMM:   6    -0.231303508673E+04    0.38357E-05   -0.85705E-05  3298   0.821E-03
  82 F= -.23335462E+04 E0= -.23335462E+04  d E =-.608679E-02  mag=     1.0000
       N       E                     dE             d eps       ncg     rms          rms(c)
DAV:   1    -0.231302130944E+04    0.13781E-01   -0.23344E+00  4440   0.142E+00    0.392E-01
RMM:   2    -0.231304322868E+04   -0.21919E-01   -0.21891E-01  6133   0.315E-01    0.430E-01
RMM:   3    -0.231304254637E+04    0.68231E-03   -0.16195E-02  5791   0.824E-02    0.314E-01
RMM:   4    -0.231304138425E+04    0.11621E-02   -0.19666E-03  5457   0.229E-02    0.117E-01
RMM:   5    -0.231304116937E+04    0.21487E-03   -0.67332E-04  4842   0.178E-02    0.372E-02
RMM:   6    -0.231304117176E+04   -0.23902E-05   -0.11036E-04  3698   0.110E-02    0.161E-02
RMM:   7    -0.231304116974E+04    0.20256E-05   -0.15008E-05  2887   0.392E-03
  83 F= -.23335511E+04 E0= -.23335511E+04  d E =-.486083E-02  mag=     1.0000
       N       E                     dE             d eps       ncg     rms          rms(c)
DAV:   1    -0.231301033266E+04    0.30839E-01   -0.41258E+00  4440   0.189E+00    0.528E-01
RMM:   2    -0.231304950933E+04   -0.39177E-01   -0.39063E-01  6059   0.423E-01    0.583E-01
RMM:   3    -0.231304806471E+04    0.14446E-02   -0.28902E-02  5801   0.110E-01    0.418E-01
RMM:   4    -0.231304602123E+04    0.20435E-02   -0.35163E-03  5604   0.305E-02    0.156E-01
RMM:   5    -0.231304565235E+04    0.36888E-03   -0.11862E-03  5007   0.235E-02    0.504E-02
RMM:   6    -0.231304565509E+04   -0.27367E-05   -0.19662E-04  4262   0.139E-02    0.220E-02
RMM:   7    -0.231304565052E+04    0.45666E-05   -0.23450E-05  2945   0.451E-03
  84 F= -.23335539E+04 E0= -.23335539E+04  d E =-.768576E-02  mag=     1.0000
       N       E                     dE             d eps       ncg     rms          rms(c)
DAV:   1    -0.231303194241E+04    0.13713E-01   -0.29567E+00  4472   0.157E+00    0.422E-01
RMM:   2    -0.231305334499E+04   -0.21403E-01   -0.22097E-01  5999   0.323E-01    0.355E-01
RMM:   3    -0.231305411189E+04   -0.76690E-03   -0.18330E-02  5755   0.889E-02    0.368E-01
RMM:   4    -0.231305253077E+04    0.15811E-02   -0.23058E-03  5707   0.265E-02    0.129E-01
RMM:   5    -0.231305230514E+04    0.22562E-03   -0.90828E-04  4946   0.200E-02    0.426E-02
RMM:   6    -0.231305230091E+04    0.42324E-05   -0.13628E-04  3943   0.117E-02    0.177E-02
RMM:   7    -0.231305229863E+04    0.22811E-05   -0.15910E-05  2891   0.393E-03
  85 F= -.23335594E+04 E0= -.23335594E+04  d E =-.553812E-02  mag=     1.0000
       N       E                     dE             d eps       ncg     rms          rms(c)
DAV:   1    -0.231301790405E+04    0.34397E-01   -0.54742E+00  4472   0.214E+00    0.574E-01
RMM:   2    -0.231305749466E+04   -0.39591E-01   -0.41000E-01  5982   0.440E-01    0.475E-01
RMM:   3    -0.231305896149E+04   -0.14668E-02   -0.34302E-02  5776   0.123E-01    0.499E-01
RMM:   4    -0.231305604057E+04    0.29209E-02   -0.42975E-03  5878   0.362E-02    0.176E-01
RMM:   5    -0.231305561177E+04    0.42880E-03   -0.17503E-03  5114   0.275E-02    0.598E-02
RMM:   6    -0.231305559335E+04    0.18419E-04   -0.26995E-04  4507   0.154E-02    0.247E-02
RMM:   7    -0.231305558740E+04    0.59536E-05   -0.31166E-05  3006   0.474E-03
  86 F= -.23335612E+04 E0= -.23335612E+04  d E =-.728513E-02  mag=     1.0000
       N       E                     dE             d eps       ncg     rms          rms(c)
DAV:   1    -0.231305337640E+04    0.22169E-02   -0.29959E-01  4608   0.501E-01    0.132E-01
RMM:   2    -0.231305549911E+04   -0.21227E-02   -0.22097E-02  6033   0.102E-01    0.104E-01
RMM:   3    -0.231305558822E+04   -0.89106E-04   -0.18230E-03  5136   0.289E-02    0.112E-01
RMM:   4    -0.231305543929E+04    0.14893E-03   -0.22445E-04  3425   0.878E-03    0.412E-02
RMM:   5    -0.231305541524E+04    0.24055E-04   -0.88736E-05  3499   0.720E-03    0.129E-02
RMM:   6    -0.231305541571E+04   -0.47540E-06   -0.14969E-05  2868   0.492E-03
  87 F= -.23335614E+04 E0= -.23335614E+04  d E =-.747785E-02  mag=     1.0000
       N       E                     dE             d eps       ncg     rms          rms(c)
DAV:   1    -0.231304869056E+04    0.67247E-02   -0.17164E+00  4472   0.117E+00    0.305E-01
RMM:   2    -0.231306076799E+04   -0.12077E-01   -0.12125E-01  6021   0.229E-01    0.311E-01
RMM:   3    -0.231306077443E+04   -0.64455E-05   -0.10991E-02  5706   0.663E-02    0.243E-01
RMM:   4    -0.231306007623E+04    0.69820E-03   -0.12674E-03  5322   0.185E-02    0.966E-02
RMM:   5    -0.231305994544E+04    0.13080E-03   -0.44794E-04  4731   0.139E-02    0.356E-02
RMM:   6    -0.231305993906E+04    0.63789E-05   -0.95990E-05  3423   0.895E-03
  88 F= -.23335651E+04 E0= -.23335651E+04  d E =-.373821E-02  mag=     1.0000
       N       E                     dE             d eps       ncg     rms          rms(c)
DAV:   1    -0.231296412389E+04    0.95822E-01   -0.15390E+01  4472   0.350E+00    0.922E-01
RMM:   2    -0.231307223908E+04   -0.10812E+00   -0.11007E+00  6009   0.685E-01    0.875E-01
RMM:   3    -0.231307529618E+04   -0.30571E-02   -0.10435E-01  5810   0.194E-01    0.789E-01
RMM:   4    -0.231306805724E+04    0.72389E-02   -0.11891E-02  5985   0.566E-02    0.296E-01
RMM:   5    -0.231306692427E+04    0.11330E-02   -0.43488E-03  5358   0.411E-02    0.123E-01
RMM:   6    -0.231306680108E+04    0.12319E-03   -0.11141E-03  5216   0.241E-02    0.411E-02
RMM:   7    -0.231306677896E+04    0.22119E-04   -0.78784E-05  3423   0.822E-03    0.221E-02
RMM:   8    -0.231306677070E+04    0.82542E-05   -0.31092E-05  2933   0.533E-03
  89 F= -.23335695E+04 E0= -.23335695E+04  d E =-.815845E-02  mag=     1.0000
       N       E                     dE             d eps       ncg     rms          rms(c)
DAV:   1    -0.231303984582E+04    0.26933E-01   -0.42959E+00  4440   0.189E+00    0.515E-01
RMM:   2    -0.231307730617E+04   -0.37460E-01   -0.37037E-01  6048   0.393E-01    0.577E-01
RMM:   3    -0.231307646031E+04    0.84586E-03   -0.32396E-02  5785   0.114E-01    0.394E-01
RMM:   4    -0.231307464002E+04    0.18203E-02   -0.37100E-03  5714   0.305E-02    0.159E-01
RMM:   5    -0.231307428562E+04    0.35441E-03   -0.11803E-03  5259   0.228E-02    0.593E-02
RMM:   6    -0.231307426883E+04    0.16781E-04   -0.28119E-04  4476   0.134E-02    0.215E-02
RMM:   7    -0.231307426359E+04    0.52402E-05   -0.21331E-05  2920   0.501E-03
  90 F= -.23335756E+04 E0= -.23335756E+04  d E =-.601124E-02  mag=     1.0000
       N       E                     dE             d eps       ncg     rms          rms(c)
DAV:   1    -0.231302102599E+04    0.53243E-01   -0.72949E+00  4440   0.247E+00    0.673E-01
RMM:   2    -0.231308470447E+04   -0.63678E-01   -0.63132E-01  6034   0.513E-01    0.746E-01
RMM:   3    -0.231308354282E+04    0.11617E-02   -0.55817E-02  5779   0.148E-01    0.527E-01
RMM:   4    -0.231308028487E+04    0.32580E-02   -0.63427E-03  5820   0.400E-02    0.208E-01
RMM:   5    -0.231307968556E+04    0.59931E-03   -0.20959E-03  5283   0.297E-02    0.800E-02
RMM:   6    -0.231307964912E+04    0.36437E-04   -0.49086E-04  4861   0.175E-02    0.288E-02
RMM:   7    -0.231307963972E+04    0.94069E-05   -0.37566E-05  3052   0.599E-03
  91 F= -.23335790E+04 E0= -.23335790E+04  d E =-.941110E-02  mag=     1.0000
       N       E                     dE             d eps       ncg     rms          rms(c)
DAV:   1    -0.231302624052E+04    0.53409E-01   -0.66169E+00  4408   0.242E+00    0.689E-01
RMM:   2    -0.231309669771E+04   -0.70457E-01   -0.69644E-01  6092   0.540E-01    0.787E-01
RMM:   3    -0.231309414059E+04    0.25571E-02   -0.55893E-02  5817   0.143E-01    0.524E-01
RMM:   4    -0.231309092316E+04    0.32174E-02   -0.64554E-03  5735   0.392E-02    0.203E-01
RMM:   5    -0.231309031582E+04    0.60734E-03   -0.20164E-03  5197   0.300E-02    0.690E-02
RMM:   6    -0.231309031461E+04    0.12105E-05   -0.38953E-04  4732   0.171E-02    0.295E-02
RMM:   7    -0.231309030671E+04    0.78963E-05   -0.38469E-05  3075   0.544E-03
  92 F= -.23335876E+04 E0= -.23335876E+04  d E =-.863141E-02  mag=     1.0000
[...]
RMM:   3    -0.231354114469E+04   -0.16612E-04   -0.19337E-03  5101   0.507E-02    0.937E-02
RMM:   4    -0.231354109176E+04    0.52928E-04   -0.24885E-04  4412   0.117E-02    0.658E-02
RMM:   5    -0.231354103017E+04    0.61596E-04   -0.19033E-04  4402   0.118E-02    0.137E-02
RMM:   6    -0.231354102795E+04    0.22160E-05   -0.16690E-05  2854   0.750E-03
 169 F= -.23339358E+04 E0= -.23339358E+04  d E =-.117503E-02  mag=     1.0000
       N       E                     dE             d eps       ncg     rms          rms(c)
DAV:   1    -0.231354028756E+04    0.74260E-03   -0.28318E-01  4496   0.576E-01    0.121E-01
RMM:   2    -0.231354132544E+04   -0.10379E-02   -0.11307E-02  5622   0.926E-02    0.580E-02
RMM:   3    -0.231354132817E+04   -0.27303E-05   -0.79824E-04  4885   0.303E-02    0.615E-02
RMM:   4    -0.231354130492E+04    0.23248E-04   -0.10272E-04  3141   0.767E-03    0.432E-02
RMM:   5    -0.231354127810E+04    0.26820E-04   -0.81097E-05  3981   0.834E-03    0.881E-03
RMM:   6    -0.231354127748E+04    0.61808E-06   -0.82134E-06  2832   0.552E-03
 170 F= -.23339360E+04 E0= -.23339360E+04  d E =-.131316E-02  mag=     1.0000
       N       E                     dE             d eps       ncg     rms          rms(c)
DAV:   1    -0.231353946723E+04    0.18109E-02   -0.82103E-01  4408   0.983E-01    0.197E-01
RMM:   2    -0.231354259978E+04   -0.31325E-02   -0.34157E-02  5550   0.157E-01    0.944E-02
RMM:   3    -0.231354254688E+04    0.52903E-04   -0.23896E-03  5067   0.531E-02    0.616E-02
RMM:   4    -0.231354249206E+04    0.54817E-04   -0.45559E-04  4464   0.168E-02    0.226E-02
RMM:   5    -0.231354248732E+04    0.47395E-05   -0.41264E-05  3156   0.108E-02
 171 F= -.23339369E+04 E0= -.23339369E+04  d E =-.959274E-03  mag=     1.0000
       N       E                     dE             d eps       ncg     rms          rms(c)
DAV:   1    -0.231354222967E+04    0.26239E-03   -0.86870E-02  4656   0.320E-01    0.681E-02
RMM:   2    -0.231354260061E+04   -0.37094E-03   -0.37446E-03  5622   0.519E-02    0.592E-02
RMM:   3    -0.231354260728E+04   -0.66745E-05   -0.31394E-04  3926   0.174E-02    0.615E-02
RMM:   4    -0.231354256319E+04    0.44093E-04   -0.37505E-05  2871   0.573E-03    0.190E-02
RMM:   5    -0.231354255734E+04    0.58485E-05   -0.34472E-05  3209   0.539E-03
 172 F= -.23339369E+04 E0= -.23339369E+04  d E =-.947801E-03  mag=     1.0000
       N       E                     dE             d eps       ncg     rms          rms(c)
DAV:   1    -0.231354048764E+04    0.20755E-02   -0.86512E-01  4408   0.101E+00    0.186E-01
RMM:   2    -0.231354377646E+04   -0.32888E-02   -0.35820E-02  5592   0.162E-01    0.931E-02
RMM:   3    -0.231354374608E+04    0.30374E-04   -0.25756E-03  5172   0.597E-02    0.658E-02
RMM:   4    -0.231354376930E+04   -0.23217E-04   -0.40062E-04  4828   0.146E-02    0.875E-02
RMM:   5    -0.231354368722E+04    0.82077E-04   -0.19294E-04  4733   0.120E-02    0.325E-02
RMM:   6    -0.231354367401E+04    0.13212E-04   -0.23991E-05  2881   0.510E-03    0.833E-03
RMM:   7    -0.231354367355E+04    0.45962E-06   -0.49086E-06  2835   0.352E-03
 173 F= -.23339377E+04 E0= -.23339377E+04  d E =-.844277E-03  mag=     1.0000
       N       E                     dE             d eps       ncg     rms          rms(c)
DAV:   1    -0.231354275479E+04    0.91922E-03   -0.27751E-01  4432   0.575E-01    0.106E-01
RMM:   2    -0.231354381322E+04   -0.10584E-02   -0.11509E-02  5611   0.918E-02    0.533E-02
RMM:   3    -0.231354380351E+04    0.97061E-05   -0.80869E-04  4904   0.322E-02    0.386E-02
RMM:   4    -0.231354381155E+04   -0.80373E-05   -0.12086E-04  3637   0.822E-03    0.515E-02
RMM:   5    -0.231354378115E+04    0.30403E-04   -0.67118E-05  3406   0.780E-03    0.171E-02
RMM:   6    -0.231354377775E+04    0.34010E-05   -0.11368E-05  2855   0.459E-03
 174 F= -.23339377E+04 E0= -.23339377E+04  d E =-.795083E-03  mag=     1.0000
       N       E                     dE             d eps       ncg     rms          rms(c)
DAV:   1    -0.231354256228E+04    0.12189E-02   -0.63378E-01  4440   0.866E-01    0.157E-01
RMM:   2    -0.231354472132E+04   -0.21590E-02   -0.23414E-02  5646   0.137E-01    0.783E-02
RMM:   3    -0.231354469913E+04    0.22194E-04   -0.15132E-03  5106   0.443E-02    0.747E-02
RMM:   4    -0.231354467881E+04    0.20312E-04   -0.19554E-04  3978   0.105E-02    0.642E-02
RMM:   5    -0.231354461775E+04    0.61069E-04   -0.16406E-04  4340   0.112E-02    0.121E-02
RMM:   6    -0.231354461636E+04    0.13844E-05   -0.16645E-05  2867   0.730E-03
 175 F= -.23339384E+04 E0= -.23339384E+04  d E =-.666749E-03  mag=     1.0000
       N       E                     dE             d eps       ncg     rms          rms(c)
DAV:   1    -0.231354367440E+04    0.94335E-03   -0.35129E-01  4464   0.645E-01    0.117E-01
RMM:   2    -0.231354487980E+04   -0.12054E-02   -0.13068E-02  5591   0.102E-01    0.579E-02
RMM:   3    -0.231354485993E+04    0.19868E-04   -0.83355E-04  4982   0.335E-02    0.523E-02
RMM:   4    -0.231354485527E+04    0.46600E-05   -0.10866E-04  3226   0.800E-03    0.508E-02
RMM:   5    -0.231354481812E+04    0.37144E-04   -0.90809E-05  4013   0.888E-03    0.913E-03
RMM:   6    -0.231354481738E+04    0.74077E-06   -0.10698E-05  2854   0.564E-03
 176 F= -.23339384E+04 E0= -.23339384E+04  d E =-.740576E-03  mag=     1.0000
       N       E                     dE             d eps       ncg     rms          rms(c)
DAV:   1    -0.231354486556E+04   -0.47433E-04   -0.26065E-01  4432   0.552E-01    0.122E-01
RMM:   2    -0.231354564568E+04   -0.78012E-03   -0.85184E-03  5617   0.881E-02    0.662E-02
RMM:   3    -0.231354566812E+04   -0.22442E-04   -0.50521E-04  4727   0.269E-02    0.921E-02
RMM:   4    -0.231354557063E+04    0.97489E-04   -0.99392E-05  3531   0.813E-03    0.340E-02
RMM:   5    -0.231354554956E+04    0.21073E-04   -0.79486E-05  4025   0.841E-03    0.722E-03
RMM:   6    -0.231354554887E+04    0.69062E-06   -0.81263E-06  2835   0.564E-03
 177 F= -.23339392E+04 E0= -.23339392E+04  d E =-.721034E-03  mag=     1.0000
       N       E                     dE             d eps       ncg     rms          rms(c)
DAV:   1    -0.231354544273E+04    0.10684E-03   -0.68959E-02  4560   0.284E-01    0.631E-02
RMM:   2    -0.231354565082E+04   -0.20809E-03   -0.22706E-03  5602   0.455E-02    0.346E-02
RMM:   3    -0.231354565743E+04   -0.66080E-05   -0.13802E-04  3571   0.150E-02    0.488E-02
RMM:   4    -0.231354563035E+04    0.27074E-04   -0.28189E-05  2879   0.559E-03    0.177E-02
RMM:   5    -0.231354562424E+04    0.61150E-05   -0.25724E-05  3019   0.508E-03
 178 F= -.23339392E+04 E0= -.23339392E+04  d E =-.791232E-03  mag=     1.0000
       N       E                     dE             d eps       ncg     rms          rms(c)
DAV:   1    -0.231354562533E+04    0.50221E-05   -0.17192E-01  4432   0.447E-01    0.997E-02
RMM:   2    -0.231354612404E+04   -0.49871E-03   -0.54600E-03  5803   0.732E-02    0.540E-02
RMM:   3    -0.231354614325E+04   -0.19215E-04   -0.32197E-04  4570   0.241E-02    0.766E-02
RMM:   4    -0.231354607397E+04    0.69282E-04   -0.67184E-05  3076   0.718E-03    0.276E-02
RMM:   5    -0.231354606147E+04    0.12505E-04   -0.57227E-05  3798   0.746E-03    0.676E-03
RMM:   6    -0.231354606109E+04    0.37298E-06   -0.65649E-06  2832   0.497E-03
 179 F= -.23339397E+04 E0= -.23339397E+04  d E =-.500348E-03  mag=     1.0000
       N       E                     dE             d eps       ncg     rms          rms(c)
DAV:   1    -0.231354591736E+04    0.14411E-03   -0.59442E-02  4512   0.263E-01    0.591E-02
RMM:   2    -0.231354609615E+04   -0.17879E-03   -0.19363E-03  5636   0.426E-02    0.338E-02
RMM:   3    -0.231354610108E+04   -0.49343E-05   -0.10392E-04  3459   0.128E-02    0.481E-02
RMM:   4    -0.231354607377E+04    0.27307E-04   -0.27332E-05  2871   0.538E-03    0.162E-02
RMM:   5    -0.231354606923E+04    0.45469E-05   -0.22152E-05  2921   0.477E-03
 180 F= -.23339398E+04 E0= -.23339398E+04  d E =-.545927E-03  mag=     1.0000
       N       E                     dE             d eps       ncg     rms          rms(c)
DAV:   1    -0.231354599942E+04    0.74350E-04   -0.20241E-01  4420   0.487E-01    0.102E-01
RMM:   2    -0.231354656922E+04   -0.56980E-03   -0.61790E-03  5738   0.778E-02    0.571E-02
RMM:   3    -0.231354658449E+04   -0.15268E-04   -0.34238E-04  4568   0.252E-02    0.789E-02
RMM:   4    -0.231354651195E+04    0.72532E-04   -0.70235E-05  3157   0.730E-03    0.296E-02
RMM:   5    -0.231354649669E+04    0.15266E-04   -0.63270E-05  3919   0.788E-03    0.662E-03
RMM:   6    -0.231354649645E+04    0.23337E-06   -0.67059E-06  2827   0.524E-03
 181 F= -.23339402E+04 E0= -.23339402E+04  d E =-.454503E-03  mag=     1.0000
       N       E                     dE             d eps       ncg     rms          rms(c)
DAV:   1    -0.231354639852E+04    0.98164E-04   -0.48234E-02  4528   0.238E-01    0.504E-02
RMM:   2    -0.231354653806E+04   -0.13953E-03   -0.15038E-03  5584   0.376E-02    0.296E-02
RMM:   3    -0.231354654062E+04   -0.25622E-05   -0.78273E-05  3343   0.118E-02
 182 F= -.23339403E+04 E0= -.23339403E+04  d E =-.512090E-03  mag=     1.0000
       N       E                     dE             d eps       ncg     rms          rms(c)
DAV:   1    -0.231354634764E+04    0.19041E-03   -0.20575E-01  4420   0.495E-01    0.115E-01
RMM:   2    -0.231354704010E+04   -0.69246E-03   -0.77573E-03  5733   0.819E-02    0.613E-02
RMM:   3    -0.231354703402E+04    0.60794E-05   -0.39746E-04  4721   0.235E-02    0.734E-02
RMM:   4    -0.231354697791E+04    0.56110E-04   -0.84900E-05  3198   0.753E-03    0.388E-02
RMM:   5    -0.231354695571E+04    0.22207E-04   -0.70350E-05  3951   0.830E-03    0.852E-03
RMM:   6    -0.231354695572E+04   -0.13431E-07   -0.99318E-06  2849   0.534E-03
 183 F= -.23339407E+04 E0= -.23339407E+04  d E =-.369822E-03  mag=     1.0000
       N       E                     dE             d eps       ncg     rms          rms(c)
DAV:   1    -0.231354694533E+04    0.10376E-04   -0.42375E-03  5136   0.715E-02    0.174E-02
RMM:   2    -0.231354696103E+04   -0.15697E-04   -0.17273E-04  5471   0.126E-02    0.952E-03
RMM:   3    -0.231354696196E+04   -0.93620E-06   -0.10867E-05  2817   0.500E-03
 184 F= -.23339407E+04 E0= -.23339407E+04  d E =-.369533E-03  mag=     1.0000
       N       E                     dE             d eps       ncg     rms          rms(c)
DAV:   1    -0.231354668062E+04    0.28041E-03   -0.19149E-01  4432   0.479E-01    0.986E-02
RMM:   2    -0.231354740340E+04   -0.72279E-03   -0.79435E-03  5652   0.776E-02    0.520E-02
RMM:   3    -0.231354738982E+04    0.13587E-04   -0.47081E-04  4517   0.224E-02    0.509E-02
RMM:   4    -0.231354737113E+04    0.18685E-04   -0.68641E-05  3005   0.670E-03    0.394E-02
RMM:   5    -0.231354734981E+04    0.21319E-04   -0.66308E-05  3724   0.776E-03    0.841E-03
RMM:   6    -0.231354734932E+04    0.49638E-06   -0.83338E-06  2845   0.471E-03
 185 F= -.23339410E+04 E0= -.23339410E+04  d E =-.324683E-03  mag=     1.0000
       N       E                     dE             d eps       ncg     rms          rms(c)
DAV:   1    -0.231354730935E+04    0.40458E-04   -0.15693E-02  4584   0.137E-01    0.291E-02
RMM:   2    -0.231354737024E+04   -0.60883E-04   -0.66779E-04  5679   0.228E-02    0.154E-02
RMM:   3    -0.231354737069E+04   -0.45527E-06   -0.41840E-05  2903   0.814E-03
 186 F= -.23339410E+04 E0= -.23339410E+04  d E =-.328095E-03  mag=     1.0000
       N       E                     dE             d eps       ncg     rms          rms(c)
DAV:   1    -0.231354714778E+04    0.22246E-03   -0.17334E-01  4464   0.458E-01    0.100E-01
RMM:   2    -0.231354779525E+04   -0.64747E-03   -0.71640E-03  5723   0.754E-02    0.493E-02
RMM:   3    -0.231354777448E+04    0.20769E-04   -0.42247E-04  4450   0.213E-02    0.439E-02
RMM:   4    -0.231354776445E+04    0.10030E-04   -0.63266E-05  3007   0.675E-03    0.415E-02
RMM:   5    -0.231354774160E+04    0.22851E-04   -0.64872E-05  3645   0.773E-03    0.961E-03
RMM:   6    -0.231354774085E+04    0.75686E-06   -0.86943E-06  2844   0.463E-03
 187 F= -.23339413E+04 E0= -.23339413E+04  d E =-.325504E-03  mag=     1.0000
       N       E                     dE             d eps       ncg     rms          rms(c)
DAV:   1    -0.231354768146E+04    0.60137E-04   -0.23395E-02  4608   0.169E-01    0.373E-02
RMM:   2    -0.231354777196E+04   -0.90497E-04   -0.98536E-04  5706   0.280E-02    0.200E-02
RMM:   3    -0.231354777405E+04   -0.20852E-05   -0.62823E-05  3010   0.989E-03
 188 F= -.23339413E+04 E0= -.23339413E+04  d E =-.342311E-03  mag=     1.0000
       N       E                     dE             d eps       ncg     rms          rms(c)
DAV:   1    -0.231354754968E+04    0.22228E-03   -0.13062E-01  4432   0.399E-01    0.925E-02
RMM:   2    -0.231354810023E+04   -0.55055E-03   -0.59134E-03  5826   0.696E-02    0.605E-02
RMM:   3    -0.231354812088E+04   -0.20651E-04   -0.39185E-04  4407   0.198E-02    0.765E-02
RMM:   4    -0.231354804829E+04    0.72590E-04   -0.70010E-05  3015   0.708E-03    0.269E-02
RMM:   5    -0.231354803529E+04    0.13006E-04   -0.51500E-05  3560   0.707E-03    0.660E-03
RMM:   6    -0.231354803545E+04   -0.16362E-06   -0.76695E-06  2835   0.472E-03
 189 F= -.23339416E+04 E0= -.23339416E+04  d E =-.236417E-03  mag=     1.0000
       N       E                     dE             d eps       ncg     rms          rms(c)
DAV:   1    -0.231354799495E+04    0.40338E-04   -0.11549E-02  4736   0.119E-01    0.282E-02
RMM:   2    -0.231354804738E+04   -0.52434E-04   -0.54293E-04  5805   0.211E-02    0.215E-02
RMM:   3    -0.231354804908E+04   -0.16974E-05   -0.38342E-05  2878   0.753E-03
 190 F= -.23339416E+04 E0= -.23339416E+04  d E =-.242602E-03  mag=     1.0000
       N       E                     dE             d eps       ncg     rms          rms(c)
DAV:   1    -0.231354769538E+04    0.35200E-03   -0.12500E-01  4432   0.390E-01    0.878E-02
RMM:   2    -0.231354829592E+04   -0.60054E-03   -0.61897E-03  5849   0.698E-02    0.730E-02
RMM:   3    -0.231354829618E+04   -0.25670E-06   -0.42374E-04  4270   0.187E-02    0.739E-02
RMM:   4    -0.231354822570E+04    0.70478E-04   -0.65931E-05  2998   0.693E-03    0.250E-02
RMM:   5    -0.231354821412E+04    0.11577E-04   -0.51067E-05  3536   0.693E-03    0.625E-03
RMM:   6    -0.231354821445E+04   -0.32794E-06   -0.73808E-06  2838   0.468E-03
 191 F= -.23339417E+04 E0= -.23339417E+04  d E =-.177696E-03  mag=     1.0000
       N       E                     dE             d eps       ncg     rms          rms(c)
DAV:   1    -0.231354819232E+04    0.21802E-04   -0.34175E-03  5032   0.648E-02    0.153E-02
RMM:   2    -0.231354820987E+04   -0.17550E-04   -0.17911E-04  5264   0.122E-02    0.127E-02
RMM:   3    -0.231354821018E+04   -0.30956E-06   -0.13070E-05  2789   0.463E-03
 192 F= -.23339417E+04 E0= -.23339417E+04  d E =-.175489E-03  mag=     1.0000
       N       E                     dE             d eps       ncg     rms          rms(c)
DAV:   1    -0.231354794714E+04    0.26274E-03   -0.11957E-01  4464   0.380E-01    0.848E-02
RMM:   2    -0.231354843290E+04   -0.48576E-03   -0.52287E-03  5774   0.646E-02    0.547E-02
RMM:   3    -0.231354845217E+04   -0.19274E-04   -0.35205E-04  4112   0.184E-02    0.690E-02
RMM:   4    -0.231354839251E+04    0.59661E-04   -0.56871E-05  2977   0.671E-03    0.247E-02
RMM:   5    -0.231354838118E+04    0.11334E-04   -0.47391E-05  3450   0.670E-03    0.620E-03
RMM:   6    -0.231354838120E+04   -0.19965E-07   -0.70852E-06  2830   0.456E-03
 193 F= -.23339419E+04 E0= -.23339419E+04  d E =-.183839E-03  mag=     1.0000
       N       E                     dE             d eps       ncg     rms          rms(c)
DAV:   1    -0.231354836590E+04    0.15278E-04   -0.23184E-03  5192   0.532E-02    0.125E-02
RMM:   2    -0.231354837599E+04   -0.10086E-04   -0.10782E-04  4564   0.975E-03    0.829E-03
RMM:   3    -0.231354837693E+04   -0.94013E-06   -0.93457E-06  2641   0.429E-03
 194 F= -.23339419E+04 E0= -.23339419E+04  d E =-.181382E-03  mag=     1.0000
       N       E                     dE             d eps       ncg     rms          rms(c)
DAV:   1    -0.231354814492E+04    0.23106E-03   -0.11109E-01  4432   0.366E-01    0.812E-02
RMM:   2    -0.231354861440E+04   -0.46948E-03   -0.51726E-03  5728   0.614E-02    0.425E-02
RMM:   3    -0.231354861722E+04   -0.28235E-05   -0.34756E-04  3987   0.186E-02    0.462E-02
RMM:   4    -0.231354859710E+04    0.20121E-04   -0.48425E-05  2902   0.620E-03    0.289E-02
RMM:   5    -0.231354858365E+04    0.13458E-04   -0.44461E-05  3332   0.647E-03    0.680E-03
RMM:   6    -0.231354858334E+04    0.30755E-06   -0.66671E-06  2835   0.439E-03
 195 F= -.23339421E+04 E0= -.23339421E+04  d E =-.168345E-03  mag=     1.0000
       N       E                     dE             d eps       ncg     rms          rms(c)
DAV:   1    -0.231354857738E+04    0.62610E-05   -0.15264E-03  5128   0.432E-02    0.102E-02
RMM:   2    -0.231354858412E+04   -0.67314E-05   -0.75424E-05  3943   0.804E-03
 196 F= -.23339421E+04 E0= -.23339421E+04  d E =-.164611E-03  mag=     1.0000
       N       E                     dE             d eps       ncg     rms          rms(c)
DAV:   1    -0.231354835898E+04    0.21840E-03   -0.96021E-02  4464   0.340E-01    0.770E-02
RMM:   2    -0.231354885351E+04   -0.49453E-03   -0.54034E-03  5977   0.591E-02    0.448E-02
RMM:   3    -0.231354888118E+04   -0.27662E-04   -0.45856E-04  4257   0.226E-02    0.561E-02
RMM:   4    -0.231354884726E+04    0.33912E-04   -0.50926E-05  2901   0.635E-03    0.249E-02
RMM:   5    -0.231354883653E+04    0.10737E-04   -0.40839E-05  3234   0.592E-03    0.637E-03
RMM:   6    -0.231354883633E+04    0.19220E-06   -0.57893E-06  2819   0.435E-03
 197 F= -.23339422E+04 E0= -.23339422E+04  d E =-.150354E-03  mag=     1.0000
       N       E                     dE             d eps       ncg     rms          rms(c)
DAV:   1    -0.231354883636E+04    0.17046E-06   -0.20608E-03  5104   0.501E-02    0.118E-02
RMM:   2    -0.231354884731E+04   -0.10955E-04   -0.12303E-04  4583   0.936E-03    0.577E-03
RMM:   3    -0.231354884780E+04   -0.48894E-06   -0.10739E-05  2658   0.432E-03
 198 F= -.23339422E+04 E0= -.23339422E+04  d E =-.146743E-03  mag=     1.0000
       N       E                     dE             d eps       ncg     rms          rms(c)
DAV:   1    -0.231354866446E+04    0.18285E-03   -0.80653E-02  4432   0.312E-01    0.705E-02
RMM:   2    -0.231354909368E+04   -0.42922E-03   -0.47369E-03  5837   0.542E-02    0.337E-02
RMM:   3    -0.231354909347E+04    0.20539E-06   -0.34059E-04  3681   0.168E-02    0.218E-02
RMM:   4    -0.231354908685E+04    0.66269E-05   -0.65112E-05  3538   0.671E-03
 199 F= -.23339424E+04 E0= -.23339424E+04  d E =-.155753E-03  mag=     1.0000
       N       E                     dE             d eps       ncg     rms          rms(c)
DAV:   1    -0.231354903814E+04    0.55332E-04   -0.15027E-02  4560   0.135E-01    0.337E-02
RMM:   2    -0.231354913814E+04   -0.99999E-04   -0.93504E-04  6047   0.256E-02    0.409E-02
RMM:   3    -0.231354912785E+04    0.10296E-04   -0.83799E-05  2972   0.831E-03    0.252E-02
RMM:   4    -0.231354912007E+04    0.77758E-05   -0.96728E-06  2828   0.373E-03
 200 F= -.23339424E+04 E0= -.23339424E+04  d E =-.152764E-03  mag=     1.0000
       N       E                     dE             d eps       ncg     rms          rms(c)
DAV:   1    -0.231354888491E+04    0.24293E-03   -0.89427E-02  4464   0.324E-01    0.712E-02
RMM:   2    -0.231354934827E+04   -0.46336E-03   -0.50585E-03  5844   0.563E-02    0.388E-02
RMM:   3    -0.231354936786E+04   -0.19587E-04   -0.37871E-04  3844   0.186E-02    0.474E-02
RMM:   4    -0.231354934602E+04    0.21832E-04   -0.46801E-05  2889   0.585E-03    0.239E-02
RMM:   5    -0.231354933702E+04    0.90052E-05   -0.36025E-05  3171   0.558E-03
 201 F= -.23339425E+04 E0= -.23339425E+04  d E =-.129612E-03  mag=     1.0000
