       N       E                     dE             d eps       ncg     rms          rms(c)
DAV:   1     0.128355505408E+05    0.12836E+05   -0.83732E+05  4456   0.144E+03
DAV:   2    -0.107464969887E+04   -0.13910E+05   -0.13323E+05  5304   0.331E+02
DAV:   3    -0.248506157453E+04   -0.14104E+04   -0.13971E+04  5376   0.111E+02
DAV:   4    -0.253063945000E+04   -0.45578E+02   -0.45353E+02  6680   0.297E+01
DAV:   5    -0.253148991626E+04   -0.85047E+00   -0.84899E+00  5592   0.329E+00    0.171E+02
RMM:   6    -0.147986291998E+04    0.10516E+04   -0.19605E+03  4426   0.388E+01    0.725E+01
RMM:   7    -0.165468849330E+04   -0.17483E+03   -0.28491E+02  5021   0.139E+01    0.473E+01
RMM:   8    -0.170827849005E+04   -0.53590E+02   -0.29916E+01  5274   0.638E+00    0.330E+01
RMM:   9    -0.189202363749E+04   -0.18375E+03   -0.94519E+01  4781   0.950E+00    0.297E+01
RMM:  10    -0.194678304486E+04   -0.54759E+02   -0.24084E+01  4830   0.478E+00    0.206E+01
RMM:  11    -0.205760689534E+04   -0.11082E+03   -0.46929E+01  4781   0.542E+00    0.146E+01
RMM:  12    -0.214407441362E+04   -0.86468E+02   -0.41373E+01  4860   0.497E+00    0.112E+01
RMM:  13    -0.229380470623E+04   -0.14973E+03   -0.15722E+02  4404   0.822E+00    0.108E+01
RMM:  14    -0.231144780109E+04   -0.17643E+02   -0.21306E+01  4439   0.428E+00    0.726E+00
RMM:  15    -0.231744946058E+04   -0.60017E+01   -0.85319E+00  4897   0.176E+00    0.453E+00
RMM:  16    -0.232162942592E+04   -0.41800E+01   -0.33678E+00  4861   0.138E+00    0.704E+00
RMM:  17    -0.232184562789E+04   -0.21620E+00   -0.32252E-01  5444   0.595E-01    0.658E+00
RMM:  18    -0.232204610883E+04   -0.20048E+00   -0.24647E-01  4887   0.257E-01    0.556E+00
RMM:  19    -0.232238887893E+04   -0.34277E+00   -0.29193E-01  4784   0.353E-01    0.331E+00
RMM:  20    -0.232263126699E+04   -0.24239E+00   -0.33239E-01  4524   0.372E-01    0.171E+00
RMM:  21    -0.232272349813E+04   -0.92231E-01   -0.75289E-02  4778   0.203E-01    0.952E-01
RMM:  22    -0.232288607840E+04   -0.16258E+00   -0.59925E-02  4454   0.153E-01    0.604E-01
RMM:  23    -0.232298139846E+04   -0.95320E-01   -0.37442E-02  4495   0.126E-01    0.300E-01
RMM:  24    -0.232306085222E+04   -0.79454E-01   -0.16576E-02  4828   0.814E-02    0.208E-01
RMM:  25    -0.232311232479E+04   -0.51473E-01   -0.83729E-03  4454   0.612E-02    0.130E-01
RMM:  26    -0.232314289886E+04   -0.30574E-01   -0.57862E-03  4556   0.516E-02    0.897E-02
RMM:  27    -0.232315487951E+04   -0.11981E-01   -0.29969E-03  4795   0.382E-02    0.526E-02
RMM:  28    -0.232315943464E+04   -0.45551E-02   -0.11727E-03  4551   0.231E-02    0.252E-02
RMM:  29    -0.232316093740E+04   -0.15028E-02   -0.30454E-04  4124   0.131E-02    0.135E-02
RMM:  30    -0.232316152085E+04   -0.58345E-03   -0.10490E-04  3849   0.779E-03    0.784E-03
RMM:  31    -0.232316177412E+04   -0.25328E-03   -0.48548E-05  3425   0.556E-03    0.378E-03
RMM:  32    -0.232316182741E+04   -0.53286E-04   -0.13221E-05  2902   0.408E-03    0.274E-03
RMM:  33    -0.232316184441E+04   -0.17004E-04   -0.62860E-06  2809   0.291E-03    0.166E-03
RMM:  34    -0.232316185277E+04   -0.83608E-05   -0.35048E-06  2608   0.235E-03
   1 F= -.23437187E+04 E0= -.23437187E+04  d E =-.234372E+04  mag=     1.9999
       N       E                     dE             d eps       ncg     rms          rms(c)
DAV:   1    -0.232323595018E+04   -0.74106E-01   -0.13471E+01  4928   0.300E+00    0.121E+00
RMM:   2    -0.232335650215E+04   -0.12055E+00   -0.14151E+00  6291   0.682E-01    0.670E-01
RMM:   3    -0.232335444636E+04    0.20558E-02   -0.10940E-01  6050   0.197E-01    0.436E-01
RMM:   4    -0.232335463780E+04   -0.19144E-03   -0.17728E-02  5219   0.622E-02    0.504E-01
RMM:   5    -0.232335268223E+04    0.19556E-02   -0.60570E-03  5681   0.487E-02    0.278E-01
RMM:   6    -0.232335178635E+04    0.89588E-03   -0.12948E-03  5383   0.209E-02    0.928E-02
RMM:   7    -0.232335170942E+04    0.76931E-04   -0.32144E-04  4504   0.133E-02    0.398E-02
RMM:   8    -0.232335168850E+04    0.20921E-04   -0.85475E-05  3673   0.680E-03    0.194E-02
RMM:   9    -0.232335168019E+04    0.83121E-05   -0.46223E-05  3280   0.610E-03
   2 F= -.23439103E+04 E0= -.23439103E+04  d E =-.191567E+00  mag=     2.0000
       N       E                     dE             d eps       ncg     rms          rms(c)
DAV:   1    -0.232335167461E+04    0.13890E-04   -0.15784E+00  4856   0.102E+00    0.421E-01
RMM:   2    -0.232336575166E+04   -0.14077E-01   -0.16693E-01  6309   0.230E-01    0.236E-01
RMM:   3    -0.232336529595E+04    0.45571E-03   -0.11525E-02  5913   0.636E-02    0.149E-01
RMM:   4    -0.232336539609E+04   -0.10014E-03   -0.21041E-03  5124   0.218E-02    0.199E-01
RMM:   5    -0.232336500622E+04    0.38987E-03   -0.73677E-04  4977   0.171E-02    0.730E-02
RMM:   6    -0.232336493204E+04    0.74177E-04   -0.15777E-04  4306   0.765E-03    0.231E-02
RMM:   7    -0.232336492411E+04    0.79326E-05   -0.25917E-05  2941   0.596E-03
   3 F= -.23439241E+04 E0= -.23439241E+04  d E =-.205406E+00  mag=     2.0000
       N       E                     dE             d eps       ncg     rms          rms(c)
DAV:   1    -0.232341182302E+04   -0.46891E-01   -0.68284E+00  4576   0.212E+00    0.825E-01
RMM:   2    -0.232349706030E+04   -0.85237E-01   -0.91173E-01  6433   0.485E-01    0.783E-01
RMM:   3    -0.232350142933E+04   -0.43690E-02   -0.91246E-02  6212   0.151E-01    0.718E-01
RMM:   4    -0.232349679465E+04    0.46347E-02   -0.98514E-03  5900   0.414E-02    0.232E-01
RMM:   5    -0.232349633127E+04    0.46338E-03   -0.27684E-03  5352   0.271E-02    0.113E-01
RMM:   6    -0.232349630519E+04    0.26079E-04   -0.63711E-04  4892   0.159E-02    0.559E-02
RMM:   7    -0.232349629245E+04    0.12742E-04   -0.11201E-04  3340   0.794E-03    0.208E-02
RMM:   8    -0.232349629165E+04    0.79494E-06   -0.23250E-05  2915   0.443E-03
   4 F= -.23440569E+04 E0= -.23440569E+04  d E =-.132787E+00  mag=     2.0000
       N       E                     dE             d eps       ncg     rms          rms(c)
DAV:   1    -0.232308318757E+04    0.41310E+00   -0.43188E+01  4472   0.542E+00    0.208E+00
RMM:   2    -0.232365431986E+04   -0.57113E+00   -0.60420E+00  6448   0.130E+00    0.206E+00
RMM:   3    -0.232365674702E+04   -0.24272E-02   -0.51803E-01  6298   0.369E-01    0.166E+00
RMM:   4    -0.232363111177E+04    0.25635E-01   -0.57764E-02  6059   0.102E-01    0.588E-01
RMM:   5    -0.232362817121E+04    0.29406E-02   -0.19607E-02  5583   0.694E-02    0.272E-01
RMM:   6    -0.232362809439E+04    0.76821E-04   -0.34811E-03  5376   0.381E-02    0.124E-01
RMM:   7    -0.232362814790E+04   -0.53512E-04   -0.65631E-04  4730   0.162E-02    0.559E-02
RMM:   8    -0.232362817790E+04   -0.29994E-04   -0.11787E-04  3369   0.872E-03    0.261E-02
RMM:   9    -0.232362822575E+04   -0.47858E-04   -0.55699E-05  3098   0.528E-03    0.128E-02
RMM:  10    -0.232362824447E+04   -0.18719E-04   -0.14136E-05  2898   0.406E-03    0.702E-03
RMM:  11    -0.232362825555E+04   -0.11077E-04   -0.79737E-06  2854   0.303E-03    0.345E-03
RMM:  12    -0.232362825979E+04   -0.42432E-05   -0.34630E-06  2799   0.255E-03
   5 F= -.23441921E+04 E0= -.23441921E+04  d E =-.267999E+00  mag=     2.0000
       N       E                     dE             d eps       ncg     rms          rms(c)
DAV:   1    -0.232364375353E+04   -0.15498E-01   -0.11240E+01  4528   0.247E+00    0.899E-01
RMM:   2    -0.232374463031E+04   -0.10088E+00   -0.10993E+00  6423   0.553E-01    0.540E-01
RMM:   3    -0.232374908634E+04   -0.44560E-02   -0.80917E-02  6224   0.145E-01    0.655E-01
RMM:   4    -0.232374599458E+04    0.30918E-02   -0.11683E-02  6084   0.424E-02    0.303E-01
RMM:   5    -0.232374481334E+04    0.11812E-02   -0.30418E-03  5252   0.297E-02    0.116E-01
RMM:   6    -0.232374472887E+04    0.84471E-04   -0.79722E-04  4431   0.191E-02    0.412E-02
RMM:   7    -0.232374478180E+04   -0.52927E-04   -0.13605E-04  3557   0.877E-03    0.231E-02
RMM:   8    -0.232374483917E+04   -0.57369E-04   -0.34605E-05  3025   0.539E-03    0.122E-02
RMM:   9    -0.232374491794E+04   -0.78777E-04   -0.23849E-05  2938   0.378E-03    0.583E-03
RMM:  10    -0.232374495203E+04   -0.34089E-04   -0.96499E-06  2864   0.322E-03    0.354E-03
RMM:  11    -0.232374496777E+04   -0.15736E-04   -0.59777E-06  2814   0.252E-03    0.242E-03
RMM:  12    -0.232374497732E+04   -0.95516E-05   -0.43234E-06  2641   0.225E-03
   6 F= -.23443096E+04 E0= -.23443096E+04  d E =-.117495E+00  mag=     2.0000
       N       E                     dE             d eps       ncg     rms          rms(c)
DAV:   1    -0.232349340056E+04    0.25157E+00   -0.35810E+01  4432   0.442E+00    0.165E+00
RMM:   2    -0.232382332068E+04   -0.32992E+00   -0.36047E+00  6456   0.101E+00    0.102E+00
RMM:   3    -0.232383797166E+04   -0.14651E-01   -0.26911E-01  6254   0.268E-01    0.127E+00
RMM:   4    -0.232382542576E+04    0.12546E-01   -0.38131E-02  6341   0.781E-02    0.538E-01
RMM:   5    -0.232382188281E+04    0.35429E-02   -0.11228E-02  5528   0.556E-02    0.220E-01
RMM:   6    -0.232382160805E+04    0.27476E-03   -0.28026E-03  4826   0.327E-02    0.843E-02
RMM:   7    -0.232382168942E+04   -0.81369E-04   -0.53314E-04  4317   0.166E-02    0.466E-02
RMM:   8    -0.232382180849E+04   -0.11907E-03   -0.14010E-04  3497   0.853E-03    0.227E-02
RMM:   9    -0.232382198032E+04   -0.17183E-03   -0.56222E-05  3282   0.589E-03    0.113E-02
RMM:  10    -0.232382212728E+04   -0.14696E-03   -0.35499E-05  3089   0.482E-03    0.653E-03
RMM:  11    -0.232382222612E+04   -0.98834E-04   -0.23258E-05  2957   0.420E-03    0.454E-03
RMM:  12    -0.232382227154E+04   -0.45419E-04   -0.13952E-05  2887   0.351E-03    0.289E-03
RMM:  13    -0.232382228981E+04   -0.18273E-04   -0.90680E-06  2825   0.312E-03    0.154E-03
RMM:  14    -0.232382229317E+04   -0.33573E-05   -0.38549E-06  2599   0.260E-03
   7 F= -.23443883E+04 E0= -.23443883E+04  d E =-.196242E+00  mag=     2.0000
       N       E                     dE             d eps       ncg     rms          rms(c)
DAV:   1    -0.232385336576E+04   -0.31076E-01   -0.10098E+01  4480   0.236E+00    0.917E-01
RMM:   2    -0.232392473000E+04   -0.71364E-01   -0.79971E-01  6196   0.502E-01    0.455E-01
RMM:   3    -0.232392482084E+04   -0.90838E-04   -0.50175E-02  5905   0.133E-01    0.541E-01
RMM:   4    -0.232392239756E+04    0.24233E-02   -0.66183E-03  6065   0.402E-02    0.267E-01
RMM:   5    -0.232392163236E+04    0.76520E-03   -0.33694E-03  4662   0.323E-02    0.975E-02
RMM:   6    -0.232392156011E+04    0.72245E-04   -0.47995E-04  4306   0.223E-02    0.376E-02
RMM:   7    -0.232392156030E+04   -0.18487E-06   -0.12568E-04  3856   0.718E-03    0.188E-02
RMM:   8    -0.232392156166E+04   -0.13696E-05   -0.15712E-05  2920   0.534E-03
   8 F= -.23444883E+04 E0= -.23444883E+04  d E =-.999300E-01  mag=     2.0000
       N       E                     dE             d eps       ncg     rms          rms(c)
DAV:   1    -0.232386719107E+04    0.54369E-01   -0.14494E+01  4448   0.281E+00    0.110E+00
RMM:   2    -0.232396773186E+04   -0.10054E+00   -0.11323E+00  6191   0.601E-01    0.536E-01
RMM:   3    -0.232396872041E+04   -0.98854E-03   -0.77983E-02  5890   0.166E-01    0.634E-01
RMM:   4    -0.232396564861E+04    0.30718E-02   -0.97987E-03  6139   0.477E-02    0.328E-01
RMM:   5    -0.232396447330E+04    0.11753E-02   -0.45733E-03  4707   0.383E-02    0.118E-01
RMM:   6    -0.232396440021E+04    0.73083E-04   -0.72331E-04  4489   0.264E-02    0.510E-02
RMM:   7    -0.232396441876E+04   -0.18544E-04   -0.17811E-04  4063   0.835E-03    0.234E-02
RMM:   8    -0.232396443831E+04   -0.19552E-04   -0.24251E-05  2956   0.666E-03    0.132E-02
RMM:   9    -0.232396446209E+04   -0.23778E-04   -0.33143E-05  3213   0.445E-03    0.601E-03
RMM:  10    -0.232396446974E+04   -0.76520E-05   -0.61018E-06  2840   0.387E-03
   9 F= -.23445321E+04 E0= -.23445321E+04  d E =-.143720E+00  mag=     2.0000
       N       E                     dE             d eps       ncg     rms          rms(c)
DAV:   1    -0.232398227357E+04   -0.17811E-01   -0.98014E+00  4480   0.215E+00    0.841E-01
RMM:   2    -0.232404319129E+04   -0.60918E-01   -0.68605E-01  6323   0.440E-01    0.481E-01
RMM:   3    -0.232404662988E+04   -0.34386E-02   -0.53473E-02  6091   0.121E-01    0.556E-01
RMM:   4    -0.232404415311E+04    0.24768E-02   -0.66760E-03  6006   0.375E-02    0.292E-01
RMM:   5    -0.232404356996E+04    0.58314E-03   -0.21542E-03  5078   0.251E-02    0.123E-01
RMM:   6    -0.232404347482E+04    0.95146E-04   -0.64809E-04  4883   0.160E-02    0.431E-02
RMM:   7    -0.232404346431E+04    0.10512E-04   -0.10323E-04  3144   0.760E-03    0.168E-02
RMM:   8    -0.232404346306E+04    0.12416E-05   -0.18121E-05  2924   0.414E-03
  10 F= -.23446108E+04 E0= -.23446108E+04  d E =-.787530E-01  mag=     2.0000
       N       E                     dE             d eps       ncg     rms          rms(c)
DAV:   1    -0.232403064585E+04    0.12818E-01   -0.47228E+00  4544   0.150E+00    0.583E-01
RMM:   2    -0.232405973900E+04   -0.29093E-01   -0.32684E-01  6326   0.304E-01    0.344E-01
RMM:   3    -0.232406162598E+04   -0.18870E-02   -0.25813E-02  6000   0.853E-02    0.422E-01
RMM:   4    -0.232406006798E+04    0.15580E-02   -0.33239E-03  5666   0.267E-02    0.195E-01
RMM:   5    -0.232405981086E+04    0.25712E-03   -0.10023E-03  4706   0.177E-02    0.823E-02
RMM:   6    -0.232405976413E+04    0.46734E-04   -0.30015E-04  4301   0.118E-02    0.285E-02
RMM:   7    -0.232405976002E+04    0.41095E-05   -0.47314E-05  2968   0.576E-03
  11 F= -.23446270E+04 E0= -.23446270E+04  d E =-.948993E-01  mag=     2.0000
       N       E                     dE             d eps       ncg     rms          rms(c)
DAV:   1    -0.232403627055E+04    0.23494E-01   -0.11647E+01  4448   0.238E+00    0.928E-01
RMM:   2    -0.232413190825E+04   -0.95638E-01   -0.99483E-01  6396   0.515E-01    0.100E+00
RMM:   3    -0.232412858136E+04    0.33269E-02   -0.65181E-02  6227   0.132E-01    0.803E-01
RMM:   4    -0.232412189539E+04    0.66860E-02   -0.95447E-03  6135   0.474E-02    0.277E-01
RMM:   5    -0.232412095405E+04    0.94134E-03   -0.37065E-03  5281   0.311E-02    0.119E-01
RMM:   6    -0.232412089969E+04    0.54362E-04   -0.80810E-04  4548   0.212E-02    0.408E-02
RMM:   7    -0.232412089799E+04    0.16959E-05   -0.13255E-04  3590   0.867E-03    0.203E-02
RMM:   8    -0.232412089856E+04   -0.56296E-06   -0.24487E-05  2976   0.557E-03
  12 F= -.23446871E+04 E0= -.23446871E+04  d E =-.601466E-01  mag=     2.0000
       N       E                     dE             d eps       ncg     rms          rms(c)
DAV:   1    -0.232407059364E+04    0.50304E-01   -0.92844E+00  4448   0.214E+00    0.823E-01
RMM:   2    -0.232414651367E+04   -0.75920E-01   -0.79640E-01  6416   0.462E-01    0.844E-01
RMM:   3    -0.232414459733E+04    0.19163E-02   -0.50883E-02  6220   0.118E-01    0.714E-01
RMM:   4    -0.232413926115E+04    0.53362E-02   -0.73737E-03  6072   0.424E-02    0.246E-01
RMM:   5    -0.232413852400E+04    0.73714E-03   -0.28895E-03  5227   0.277E-02    0.106E-01
RMM:   6    -0.232413847997E+04    0.44030E-04   -0.66077E-04  4462   0.198E-02    0.354E-02
RMM:   7    -0.232413848012E+04   -0.14255E-06   -0.10987E-04  3493   0.786E-03    0.182E-02
RMM:   8    -0.232413848113E+04   -0.10186E-05   -0.19488E-05  2958   0.519E-03
  13 F= -.23447038E+04 E0= -.23447038E+04  d E =-.768240E-01  mag=     2.0000
       N       E                     dE             d eps       ncg     rms          rms(c)
DAV:   1    -0.232412228259E+04    0.16198E-01   -0.60174E+00  4464   0.211E+00    0.781E-01
RMM:   2    -0.232416426458E+04   -0.41982E-01   -0.47715E-01  6214   0.432E-01    0.458E-01
RMM:   3    -0.232416525043E+04   -0.98585E-03   -0.29248E-02  6004   0.117E-01    0.627E-01
RMM:   4    -0.232416103168E+04    0.42188E-02   -0.55936E-03  6229   0.422E-02    0.206E-01
RMM:   5    -0.232416016246E+04    0.86922E-03   -0.25046E-03  4916   0.303E-02    0.853E-02
RMM:   6    -0.232416000584E+04    0.15662E-03   -0.59274E-04  5059   0.224E-02    0.292E-02
RMM:   7    -0.232415997440E+04    0.31436E-04   -0.12169E-04  4131   0.786E-03    0.181E-02
RMM:   8    -0.232415996260E+04    0.11799E-04   -0.21687E-05  2979   0.609E-03    0.101E-02
RMM:   9    -0.232415995780E+04    0.48015E-05   -0.26369E-05  3100   0.461E-03
  14 F= -.23447244E+04 E0= -.23447244E+04  d E =-.206104E-01  mag=     2.0000
       N       E                     dE             d eps       ncg     rms          rms(c)
DAV:   1    -0.232415973083E+04    0.23177E-03   -0.70976E-02  5144   0.229E-01    0.856E-02
RMM:   2    -0.232416023455E+04   -0.50372E-03   -0.56133E-03  6267   0.478E-02    0.498E-02
RMM:   3    -0.232416024790E+04   -0.13346E-04   -0.36313E-04  3608   0.151E-02    0.673E-02
RMM:   4    -0.232416020031E+04    0.47592E-04   -0.65059E-05  3011   0.614E-03    0.229E-02
RMM:   5    -0.232416019221E+04    0.80970E-05   -0.28872E-05  2992   0.442E-03
  15 F= -.23447247E+04 E0= -.23447247E+04  d E =-.209372E-01  mag=     2.0000
       N       E                     dE             d eps       ncg     rms          rms(c)
DAV:   1    -0.232415954345E+04    0.65686E-03   -0.15030E+00  4480   0.102E+00    0.333E-01
RMM:   2    -0.232417181150E+04   -0.12268E-01   -0.13602E-01  6191   0.207E-01    0.157E-01
RMM:   3    -0.232417209131E+04   -0.27981E-03   -0.97357E-03  5700   0.626E-02    0.128E-01
RMM:   4    -0.232417211540E+04   -0.24092E-04   -0.11648E-03  4925   0.167E-02    0.136E-01
RMM:   5    -0.232417191802E+04    0.19738E-03   -0.44635E-04  4555   0.140E-02    0.392E-02
RMM:   6    -0.232417191441E+04    0.36084E-05   -0.78883E-05  3136   0.798E-03
  16 F= -.23447355E+04 E0= -.23447355E+04  d E =-.107842E-01  mag=     2.0000
       N       E                     dE             d eps       ncg     rms          rms(c)
DAV:   1    -0.232416179617E+04    0.10122E-01   -0.16950E+00  4472   0.108E+00    0.357E-01
RMM:   2    -0.232417568359E+04   -0.13887E-01   -0.15424E-01  6186   0.221E-01    0.166E-01
RMM:   3    -0.232417599049E+04   -0.30690E-03   -0.11184E-02  5735   0.645E-02    0.123E-01
RMM:   4    -0.232417610380E+04   -0.11332E-03   -0.13915E-03  5204   0.182E-02    0.158E-01
RMM:   5    -0.232417585470E+04    0.24910E-03   -0.52850E-04  4796   0.146E-02    0.463E-02
RMM:   6    -0.232417584526E+04    0.94458E-05   -0.85135E-05  3235   0.781E-03
  17 F= -.23447384E+04 E0= -.23447384E+04  d E =-.137277E-01  mag=     2.0000
       N       E                     dE             d eps       ncg     rms          rms(c)
DAV:   1    -0.232417574973E+04    0.10497E-03   -0.12315E+00  4480   0.957E-01    0.284E-01
RMM:   2    -0.232418474497E+04   -0.89952E-02   -0.93681E-02  6214   0.186E-01    0.224E-01
RMM:   3    -0.232418512177E+04   -0.37681E-03   -0.69506E-03  5873   0.557E-02    0.259E-01
RMM:   4    -0.232418438642E+04    0.73535E-03   -0.86420E-04  5009   0.167E-02    0.722E-02
RMM:   5    -0.232418431805E+04    0.68377E-04   -0.31649E-04  4162   0.117E-02    0.293E-02
RMM:   6    -0.232418431920E+04   -0.11566E-05   -0.43040E-05  2997   0.860E-03
  18 F= -.23447462E+04 E0= -.23447462E+04  d E =-.773388E-02  mag=     2.0000
       N       E                     dE             d eps       ncg     rms          rms(c)
DAV:   1    -0.232415801762E+04    0.26300E-01   -0.47779E+00  4432   0.189E+00    0.558E-01
RMM:   2    -0.232419301671E+04   -0.34999E-01   -0.36514E-01  6183   0.370E-01    0.437E-01
RMM:   3    -0.232419467091E+04   -0.16542E-02   -0.25144E-02  5987   0.103E-01    0.532E-01
RMM:   4    -0.232419159609E+04    0.30748E-02   -0.32731E-03  5841   0.327E-02    0.141E-01
RMM:   5    -0.232419133791E+04    0.25818E-03   -0.13326E-03  4595   0.223E-02    0.610E-02
RMM:   6    -0.232419133252E+04    0.53928E-05   -0.16666E-04  4009   0.149E-02    0.213E-02
RMM:   7    -0.232419133158E+04    0.93514E-06   -0.33568E-05  2994   0.430E-03
  19 F= -.23447517E+04 E0= -.23447517E+04  d E =-.132869E-01  mag=     2.0000
       N       E                     dE             d eps       ncg     rms          rms(c)
DAV:   1    -0.232418971054E+04    0.16220E-02   -0.19814E+00  4496   0.120E+00    0.362E-01
RMM:   2    -0.232420283060E+04   -0.13120E-01   -0.13488E-01  6227   0.228E-01    0.340E-01
RMM:   3    -0.232420289999E+04   -0.69387E-04   -0.93843E-03  5912   0.656E-02    0.314E-01
RMM:   4    -0.232420185407E+04    0.10459E-02   -0.12354E-03  5348   0.205E-02    0.902E-02
RMM:   5    -0.232420171691E+04    0.13716E-03   -0.52309E-04  4540   0.148E-02    0.391E-02
RMM:   6    -0.232420170775E+04    0.91585E-05   -0.99256E-05  3887   0.101E-02
  20 F= -.23447614E+04 E0= -.23447614E+04  d E =-.965691E-02  mag=     2.0000
       N       E                     dE             d eps       ncg     rms          rms(c)
DAV:   1    -0.232417529656E+04    0.26420E-01   -0.53994E+00  4464   0.198E+00    0.599E-01
RMM:   2    -0.232421097395E+04   -0.35677E-01   -0.36895E-01  6242   0.381E-01    0.547E-01
RMM:   3    -0.232421148126E+04   -0.50731E-03   -0.25749E-02  6006   0.104E-01    0.527E-01
RMM:   4    -0.232420853163E+04    0.29496E-02   -0.34112E-03  5744   0.341E-02    0.149E-01
RMM:   5    -0.232420814802E+04    0.38361E-03   -0.14750E-03  4842   0.240E-02    0.666E-02
RMM:   6    -0.232420810868E+04    0.39347E-04   -0.29154E-04  4687   0.157E-02    0.280E-02
RMM:   7    -0.232420809558E+04    0.13093E-04   -0.51819E-05  3418   0.568E-03    0.135E-02
RMM:   8    -0.232420809004E+04    0.55451E-05   -0.14148E-05  2889   0.474E-03
  21 F= -.23447666E+04 E0= -.23447666E+04  d E =-.148261E-01  mag=     2.0000
       N       E                     dE             d eps       ncg     rms          rms(c)
DAV:   1    -0.232419597575E+04    0.12120E-01   -0.25265E+00  4480   0.133E+00    0.398E-01
RMM:   2    -0.232421821817E+04   -0.22242E-01   -0.22587E-01  6315   0.266E-01    0.413E-01
RMM:   3    -0.232421829428E+04   -0.76113E-04   -0.17723E-02  6002   0.761E-02    0.308E-01
RMM:   4    -0.232421736486E+04    0.92942E-03   -0.20253E-03  5356   0.216E-02    0.115E-01
RMM:   5    -0.232421717217E+04    0.19269E-03   -0.54200E-04  4598   0.145E-02    0.552E-02
RMM:   6    -0.232421714867E+04    0.23503E-04   -0.20310E-04  4331   0.111E-02    0.225E-02
RMM:   7    -0.232421714580E+04    0.28716E-05   -0.20886E-05  2917   0.496E-03
  22 F= -.23447748E+04 E0= -.23447748E+04  d E =-.827124E-02  mag=     2.0000
       N       E                     dE             d eps       ncg     rms          rms(c)
DAV:   1    -0.232419065851E+04    0.26490E-01   -0.36402E+00  4432   0.160E+00    0.481E-01
RMM:   2    -0.232422285487E+04   -0.32196E-01   -0.32771E-01  6287   0.320E-01    0.490E-01
RMM:   3    -0.232422303264E+04   -0.17777E-03   -0.25807E-02  6043   0.918E-02    0.372E-01
RMM:   4    -0.232422167270E+04    0.13599E-02   -0.29333E-03  5578   0.262E-02    0.139E-01
RMM:   5    -0.232422139605E+04    0.27665E-03   -0.79716E-04  4804   0.173E-02    0.675E-02
RMM:   6    -0.232422135570E+04    0.40351E-04   -0.29377E-04  4694   0.128E-02    0.276E-02
RMM:   7    -0.232422135081E+04    0.48903E-05   -0.29311E-05  2955   0.549E-03
  23 F= -.23447781E+04 E0= -.23447781E+04  d E =-.115182E-01  mag=     2.0000
       N       E                     dE             d eps       ncg     rms          rms(c)
DAV:   1    -0.232421442089E+04    0.69348E-02   -0.96200E-01  4512   0.913E-01    0.294E-01
RMM:   2    -0.232422734922E+04   -0.12928E-01   -0.13644E-01  6209   0.199E-01    0.193E-01
RMM:   3    -0.232422831644E+04   -0.96722E-03   -0.13153E-02  5902   0.637E-02    0.190E-01
RMM:   4    -0.232422805719E+04    0.25925E-03   -0.14409E-03  4858   0.169E-02    0.104E-01
RMM:   5    -0.232422794948E+04    0.10771E-03   -0.28082E-04  4064   0.113E-02    0.562E-02
RMM:   6    -0.232422792054E+04    0.28949E-04   -0.16235E-04  4436   0.940E-03    0.217E-02
RMM:   7    -0.232422791770E+04    0.28393E-05   -0.16420E-05  2898   0.551E-03
  24 F= -.23447844E+04 E0= -.23447844E+04  d E =-.629970E-02  mag=     2.0000
       N       E                     dE             d eps       ncg     rms          rms(c)
DAV:   1    -0.232421874601E+04    0.91745E-02   -0.77060E-01  4480   0.818E-01    0.263E-01
RMM:   2    -0.232422909889E+04   -0.10353E-01   -0.10922E-01  6158   0.178E-01    0.174E-01
RMM:   3    -0.232422987128E+04   -0.77239E-03   -0.10479E-02  5825   0.587E-02    0.173E-01
RMM:   4    -0.232422964934E+04    0.22194E-03   -0.11595E-03  4531   0.152E-02    0.925E-02
RMM:   5    -0.232422956197E+04    0.87367E-04   -0.22387E-04  3842   0.105E-02    0.497E-02
RMM:   6    -0.232422953868E+04    0.23289E-04   -0.13284E-04  4291   0.874E-03    0.192E-02
RMM:   7    -0.232422953608E+04    0.26014E-05   -0.13215E-05  2890   0.521E-03
  25 F= -.23447858E+04 E0= -.23447858E+04  d E =-.768663E-02  mag=     2.0000
       N       E                     dE             d eps       ncg     rms          rms(c)
DAV:   1    -0.232422172883E+04    0.78099E-02   -0.87922E-01  4448   0.844E-01    0.268E-01
RMM:   2    -0.232423426666E+04   -0.12538E-01   -0.13295E-01  6266   0.187E-01    0.145E-01
RMM:   3    -0.232423530611E+04   -0.10395E-02   -0.13815E-02  5710   0.600E-02    0.133E-01
RMM:   4    -0.232423534524E+04   -0.39137E-04   -0.13609E-03  3716   0.134E-02    0.109E-01
RMM:   5    -0.232423522069E+04    0.12455E-03   -0.17801E-04  3689   0.845E-03    0.557E-02
RMM:   6    -0.232423518794E+04    0.32753E-04   -0.18125E-04  4319   0.917E-03    0.135E-02
RMM:   7    -0.232423518791E+04    0.30588E-07   -0.11489E-05  2894   0.516E-03
  26 F= -.23447910E+04 E0= -.23447910E+04  d E =-.528062E-02  mag=     2.0000
       N       E                     dE             d eps       ncg     rms          rms(c)
DAV:   1    -0.232412052532E+04    0.11466E+00   -0.79107E+00  4432   0.253E+00    0.802E-01
RMM:   2    -0.232423384458E+04   -0.11332E+00   -0.12009E+00  6249   0.559E-01    0.454E-01
RMM:   3    -0.232424453911E+04   -0.10695E-01   -0.13746E-01  5982   0.183E-01    0.451E-01
RMM:   4    -0.232424434528E+04    0.19383E-03   -0.12318E-02  6051   0.402E-02    0.320E-01
RMM:   5    -0.232424337831E+04    0.96697E-03   -0.17895E-03  5660   0.219E-02    0.193E-01
RMM:   6    -0.232424293653E+04    0.44178E-03   -0.18702E-03  5178   0.243E-02    0.575E-02
RMM:   7    -0.232424292609E+04    0.10443E-04   -0.16375E-04  4000   0.133E-02    0.303E-02
RMM:   8    -0.232424291386E+04    0.12228E-04   -0.35036E-05  2926   0.483E-03    0.148E-02
RMM:   9    -0.232424291140E+04    0.24628E-05   -0.16589E-05  2901   0.336E-03
  27 F= -.23447977E+04 E0= -.23447977E+04  d E =-.119179E-01  mag=     2.0000
       N       E                     dE             d eps       ncg     rms          rms(c)
DAV:   1    -0.232422021470E+04    0.22699E-01   -0.19449E+00  4448   0.127E+00    0.416E-01
RMM:   2    -0.232424823600E+04   -0.28021E-01   -0.29887E-01  6179   0.279E-01    0.214E-01
RMM:   3    -0.232425063406E+04   -0.23981E-02   -0.32992E-02  5843   0.932E-02    0.154E-01
RMM:   4    -0.232425081058E+04   -0.17652E-03   -0.31150E-03  4871   0.209E-02    0.154E-01
RMM:   5    -0.232425063859E+04    0.17199E-03   -0.49066E-04  4574   0.127E-02    0.112E-01
RMM:   6    -0.232425049578E+04    0.14281E-03   -0.35893E-04  4758   0.121E-02    0.260E-02
RMM:   7    -0.232425049367E+04    0.21057E-05   -0.49980E-05  3027   0.717E-03
  28 F= -.23448046E+04 E0= -.23448046E+04  d E =-.691779E-02  mag=     2.0000
       N       E                     dE             d eps       ncg     rms          rms(c)
DAV:   1    -0.232423661401E+04    0.13882E-01   -0.10025E+00  4496   0.908E-01    0.300E-01
RMM:   2    -0.232425104147E+04   -0.14427E-01   -0.15416E-01  6187   0.200E-01    0.154E-01
RMM:   3    -0.232425224622E+04   -0.12048E-02   -0.16702E-02  5740   0.679E-02    0.106E-01
RMM:   4    -0.232425231909E+04   -0.72865E-04   -0.15878E-03  4206   0.151E-02    0.993E-02
RMM:   5    -0.232425227052E+04    0.48569E-04   -0.24246E-04  3801   0.973E-03    0.881E-02
RMM:   6    -0.232425218587E+04    0.84650E-04   -0.19035E-04  4309   0.943E-03    0.177E-02
RMM:   7    -0.232425218432E+04    0.15530E-05   -0.27425E-05  2928   0.543E-03
  29 F= -.23448058E+04 E0= -.23448058E+04  d E =-.813194E-02  mag=     2.0000
       N       E                     dE             d eps       ncg     rms          rms(c)
DAV:   1    -0.232423767698E+04    0.14509E-01   -0.11700E+00  4448   0.990E-01    0.328E-01
RMM:   2    -0.232425580217E+04   -0.18125E-01   -0.19454E-01  6236   0.221E-01    0.199E-01
RMM:   3    -0.232425746597E+04   -0.16638E-02   -0.20706E-02  5871   0.771E-02    0.201E-01
RMM:   4    -0.232425722916E+04    0.23681E-03   -0.20996E-03  4645   0.179E-02    0.109E-01
RMM:   5    -0.232425710504E+04    0.12411E-03   -0.29865E-04  3912   0.105E-02    0.667E-02
RMM:   6    -0.232425705664E+04    0.48404E-04   -0.20406E-04  4511   0.956E-03    0.242E-02
RMM:   7    -0.232425705359E+04    0.30469E-05   -0.26035E-05  2919   0.630E-03
  30 F= -.23448104E+04 E0= -.23448104E+04  d E =-.457511E-02  mag=     2.0000
       N       E                     dE             d eps       ncg     rms          rms(c)
DAV:   1    -0.232423500226E+04    0.22054E-01   -0.14479E+00  4440   0.110E+00    0.365E-01
RMM:   2    -0.232425744203E+04   -0.22440E-01   -0.24101E-01  6226   0.247E-01    0.219E-01
RMM:   3    -0.232425949921E+04   -0.20572E-02   -0.25791E-02  5920   0.866E-02    0.219E-01
RMM:   4    -0.232425922533E+04    0.27388E-03   -0.25979E-03  5021   0.199E-02    0.122E-01
RMM:   5    -0.232425907064E+04    0.15469E-03   -0.36419E-04  4139   0.113E-02    0.747E-02
RMM:   6    -0.232425900625E+04    0.64386E-04   -0.24777E-04  4667   0.104E-02    0.270E-02
RMM:   7    -0.232425900185E+04    0.44069E-05   -0.32940E-05  2935   0.678E-03
  31 F= -.23448120E+04 E0= -.23448120E+04  d E =-.619560E-02  mag=     2.0000
       N       E                     dE             d eps       ncg     rms          rms(c)
DAV:   1    -0.232424808111E+04    0.10925E-01   -0.94955E-01  4480   0.876E-01    0.285E-01
RMM:   2    -0.232426261909E+04   -0.14538E-01   -0.15618E-01  6248   0.197E-01    0.177E-01
RMM:   3    -0.232426400716E+04   -0.13881E-02   -0.16967E-02  5802   0.704E-02    0.174E-01
RMM:   4    -0.232426384355E+04    0.16361E-03   -0.17084E-03  4261   0.159E-02    0.983E-02
RMM:   5    -0.232426374918E+04    0.94372E-04   -0.20511E-04  3364   0.905E-03    0.584E-02
RMM:   6    -0.232426371374E+04    0.35438E-04   -0.18200E-04  4336   0.904E-03    0.197E-02
RMM:   7    -0.232426371238E+04    0.13640E-05   -0.20623E-05  2898   0.611E-03
  32 F= -.23448164E+04 E0= -.23448164E+04  d E =-.436964E-02  mag=     2.0000
       N       E                     dE             d eps       ncg     rms          rms(c)
DAV:   1    -0.232420869029E+04    0.55023E-01   -0.35759E+00  4432   0.170E+00    0.551E-01
RMM:   2    -0.232426318211E+04   -0.54492E-01   -0.58641E-01  6283   0.380E-01    0.334E-01
RMM:   3    -0.232426868355E+04   -0.55014E-02   -0.67479E-02  6008   0.135E-01    0.319E-01
RMM:   4    -0.232426823315E+04    0.45040E-03   -0.64406E-03  5833   0.301E-02    0.197E-01
RMM:   5    -0.232426787591E+04    0.35724E-03   -0.79101E-04  4543   0.151E-02    0.123E-01
RMM:   6    -0.232426769866E+04    0.17725E-03   -0.69191E-04  5082   0.154E-02    0.406E-02
RMM:   7    -0.232426769021E+04    0.84502E-05   -0.92280E-05  3176   0.108E-02
  33 F= -.23448197E+04 E0= -.23448197E+04  d E =-.768776E-02  mag=     2.0000
       N       E                     dE             d eps       ncg     rms          rms(c)
DAV:   1    -0.232424437617E+04    0.23322E-01   -0.16965E+00  4432   0.115E+00    0.387E-01
RMM:   2    -0.232427100856E+04   -0.26632E-01   -0.28867E-01  6269   0.262E-01    0.225E-01
RMM:   3    -0.232427372024E+04   -0.27117E-02   -0.31900E-02  5912   0.944E-02    0.224E-01
RMM:   4    -0.232427350061E+04    0.21963E-03   -0.31845E-03  5028   0.210E-02    0.135E-01
RMM:   5    -0.232427333756E+04    0.16305E-03   -0.38593E-04  3753   0.114E-02    0.821E-02
RMM:   6    -0.232427326664E+04    0.70923E-04   -0.31384E-04  4751   0.111E-02    0.281E-02
RMM:   7    -0.232427326264E+04    0.40020E-05   -0.43625E-05  2983   0.763E-03
  34 F= -.23448247E+04 E0= -.23448247E+04  d E =-.499774E-02  mag=     2.0000
       N       E                     dE             d eps       ncg     rms          rms(c)
DAV:   1    -0.232423030020E+04    0.42966E-01   -0.26873E+00  4432   0.145E+00    0.486E-01
RMM:   2    -0.232427241030E+04   -0.42110E-01   -0.45638E-01  6264   0.331E-01    0.284E-01
RMM:   3    -0.232427685147E+04   -0.44412E-02   -0.51957E-02  5943   0.120E-01    0.287E-01
RMM:   4    -0.232427647474E+04    0.37673E-03   -0.50709E-03  5683   0.265E-02    0.172E-01
RMM:   5    -0.232427621176E+04    0.26298E-03   -0.61502E-04  4141   0.136E-02    0.106E-01
RMM:   6    -0.232427608435E+04    0.12741E-03   -0.50820E-04  5118   0.137E-02    0.360E-02
RMM:   7    -0.232427607737E+04    0.69758E-05   -0.74546E-05  3108   0.893E-03
  35 F= -.23448268E+04 E0= -.23448268E+04  d E =-.709352E-02  mag=     2.0000
       N       E                     dE             d eps       ncg     rms          rms(c)
DAV:   1    -0.232423838364E+04    0.37701E-01   -0.25297E+00  4432   0.140E+00    0.472E-01
RMM:   2    -0.232427836272E+04   -0.39979E-01   -0.43470E-01  6267   0.318E-01    0.254E-01
RMM:   3    -0.232428255366E+04   -0.41909E-02   -0.50809E-02  5956   0.113E-01    0.219E-01
RMM:   4    -0.232428258780E+04   -0.34139E-04   -0.47970E-03  5366   0.243E-02    0.174E-01
RMM:   5    -0.232428235499E+04    0.23281E-03   -0.61647E-04  3924   0.130E-02    0.115E-01
RMM:   6    -0.232428221423E+04    0.14076E-03   -0.48271E-04  5103   0.128E-02    0.382E-02
RMM:   7    -0.232428220587E+04    0.83557E-05   -0.76088E-05  3126   0.844E-03
  36 F= -.23448321E+04 E0= -.23448321E+04  d E =-.535294E-02  mag=     2.0000
       N       E                     dE             d eps       ncg     rms          rms(c)
DAV:   1    -0.232425129956E+04    0.30915E-01   -0.19028E+00  4480   0.121E+00    0.410E-01
RMM:   2    -0.232428135142E+04   -0.30052E-01   -0.32675E-01  6285   0.275E-01    0.223E-01
RMM:   3    -0.232428450793E+04   -0.31565E-02   -0.37962E-02  5917   0.988E-02    0.199E-01
RMM:   4    -0.232428449387E+04    0.14054E-04   -0.36172E-03  4965   0.212E-02    0.151E-01
RMM:   5    -0.232428430786E+04    0.18601E-03   -0.46076E-04  3626   0.117E-02    0.969E-02
RMM:   6    -0.232428420807E+04    0.99790E-04   -0.37985E-04  4916   0.115E-02    0.322E-02
RMM:   7    -0.232428420066E+04    0.74088E-05   -0.55784E-05  3045   0.784E-03
  37 F= -.23448335E+04 E0= -.23448335E+04  d E =-.668220E-02  mag=     2.0000
       N       E                     dE             d eps       ncg     rms          rms(c)
DAV:   1    -0.232424023167E+04    0.43976E-01   -0.30235E+00  4432   0.153E+00    0.513E-01
RMM:   2    -0.232428588636E+04   -0.45655E-01   -0.49336E-01  6272   0.341E-01    0.297E-01
RMM:   3    -0.232429087148E+04   -0.49851E-02   -0.58850E-02  6034   0.118E-01    0.278E-01
RMM:   4    -0.232429059179E+04    0.27969E-03   -0.55328E-03  5695   0.275E-02    0.195E-01
RMM:   5    -0.232429027667E+04    0.31512E-03   -0.81385E-04  4335   0.147E-02    0.123E-01
RMM:   6    -0.232429011190E+04    0.16477E-03   -0.61948E-04  5081   0.143E-02    0.430E-02
RMM:   7    -0.232429009893E+04    0.12968E-04   -0.94754E-05  3232   0.972E-03    0.214E-02
RMM:   8    -0.232429009185E+04    0.70845E-05   -0.26159E-05  2896   0.465E-03
  38 F= -.23448384E+04 E0= -.23448384E+04  d E =-.491295E-02  mag=     2.0000
       N       E                     dE             d eps       ncg     rms          rms(c)
DAV:   1    -0.232428745185E+04    0.26471E-02   -0.18285E-01  4736   0.376E-01    0.127E-01
RMM:   2    -0.232429023238E+04   -0.27805E-02   -0.29978E-02  6300   0.836E-02    0.751E-02
RMM:   3    -0.232429050894E+04   -0.27656E-03   -0.32650E-03  4409   0.297E-02    0.704E-02
RMM:   4    -0.232429048711E+04    0.21827E-04   -0.33244E-04  3137   0.781E-03    0.469E-02
RMM:   5    -0.232429046638E+04    0.20732E-04   -0.49872E-05  2902   0.494E-03    0.269E-02
RMM:   6    -0.232429045850E+04    0.78783E-05   -0.38279E-05  3091   0.448E-03
  39 F= -.23448385E+04 E0= -.23448385E+04  d E =-.504267E-02  mag=     2.0000
       N       E                     dE             d eps       ncg     rms          rms(c)
DAV:   1    -0.232427112452E+04    0.19342E-01   -0.15187E+00  4448   0.106E+00    0.368E-01
RMM:   2    -0.232429257506E+04   -0.21451E-01   -0.22970E-01  6276   0.235E-01    0.250E-01
RMM:   3    -0.232429457350E+04   -0.19984E-02   -0.23921E-02  6037   0.756E-02    0.269E-01
RMM:   4    -0.232429397067E+04    0.60284E-03   -0.25847E-03  5128   0.204E-02    0.124E-01
RMM:   5    -0.232429379543E+04    0.17523E-03   -0.47273E-04  4408   0.124E-02    0.712E-02
RMM:   6    -0.232429374660E+04    0.48830E-04   -0.24155E-04  4488   0.103E-02    0.255E-02
RMM:   7    -0.232429374200E+04    0.46045E-05   -0.39438E-05  3011   0.644E-03
  40 F= -.23448414E+04 E0= -.23448414E+04  d E =-.288645E-02  mag=     2.0000
       N       E                     dE             d eps       ncg     rms          rms(c)
DAV:   1    -0.232429132912E+04    0.24175E-02   -0.17564E-01  4688   0.362E-01    0.127E-01
RMM:   2    -0.232429382422E+04   -0.24951E-02   -0.26737E-02  6287   0.809E-02    0.872E-02
RMM:   3    -0.232429405409E+04   -0.22987E-03   -0.27670E-03  4577   0.269E-02    0.917E-02
RMM:   4    -0.232429398280E+04    0.71294E-04   -0.30269E-04  3174   0.808E-03    0.421E-02
RMM:   5    -0.232429396257E+04    0.20225E-04   -0.55240E-05  2966   0.527E-03    0.235E-02
RMM:   6    -0.232429395729E+04    0.52804E-05   -0.31633E-05  3069   0.466E-03
  41 F= -.23448415E+04 E0= -.23448415E+04  d E =-.296782E-02  mag=     2.0000
       N       E                     dE             d eps       ncg     rms          rms(c)
DAV:   1    -0.232427334120E+04    0.20621E-01   -0.18523E+00  4432   0.119E+00    0.403E-01
RMM:   2    -0.232429568894E+04   -0.22348E-01   -0.23942E-01  6248   0.251E-01    0.226E-01
RMM:   3    -0.232429744503E+04   -0.17561E-02   -0.22928E-02  6001   0.771E-02    0.235E-01
RMM:   4    -0.232429708624E+04    0.35879E-03   -0.25661E-03  5202   0.209E-02    0.136E-01
RMM:   5    -0.232429691016E+04    0.17608E-03   -0.49295E-04  4390   0.129E-02    0.791E-02
RMM:   6    -0.232429684704E+04    0.63121E-04   -0.25723E-04  4614   0.106E-02    0.266E-02
RMM:   7    -0.232429684331E+04    0.37259E-05   -0.41284E-05  3006   0.712E-03
  42 F= -.23448441E+04 E0= -.23448441E+04  d E =-.264441E-02  mag=     2.0000
       N       E                     dE             d eps       ncg     rms          rms(c)
DAV:   1    -0.232429508768E+04    0.17594E-02   -0.14511E-01  4736   0.334E-01    0.114E-01
RMM:   2    -0.232429685045E+04   -0.17628E-02   -0.18926E-02  6265   0.713E-02    0.632E-02
RMM:   3    -0.232429698831E+04   -0.13786E-03   -0.17723E-03  4046   0.222E-02    0.664E-02
RMM:   4    -0.232429696007E+04    0.28232E-04   -0.20363E-04  3080   0.718E-03    0.380E-02
RMM:   5    -0.232429694658E+04    0.13492E-04   -0.39092E-05  2921   0.463E-03    0.215E-02
RMM:   6    -0.232429694217E+04    0.44082E-05   -0.22446E-05  3006   0.402E-03
  43 F= -.23448442E+04 E0= -.23448442E+04  d E =-.267547E-02  mag=     2.0000
       N       E                     dE             d eps       ncg     rms          rms(c)
DAV:   1    -0.232427540532E+04    0.21541E-01   -0.18936E+00  4432   0.123E+00    0.398E-01
RMM:   2    -0.232429861302E+04   -0.23208E-01   -0.24762E-01  6264   0.261E-01    0.217E-01
RMM:   3    -0.232430022942E+04   -0.16164E-02   -0.24375E-02  5937   0.808E-02    0.173E-01
RMM:   4    -0.232430020120E+04    0.28215E-04   -0.25048E-03  5084   0.204E-02    0.145E-01
RMM:   5    -0.232430005564E+04    0.14556E-03   -0.45824E-04  3812   0.122E-02    0.922E-02
RMM:   6    -0.232429996714E+04    0.88501E-04   -0.27209E-04  4645   0.105E-02    0.300E-02
RMM:   7    -0.232429996150E+04    0.56415E-05   -0.42698E-05  3002   0.778E-03
  44 F= -.23448468E+04 E0= -.23448468E+04  d E =-.262805E-02  mag=     2.0000
       N       E                     dE             d eps       ncg     rms          rms(c)
DAV:   1    -0.232429552365E+04    0.44435E-02   -0.35432E-01  4448   0.530E-01    0.173E-01
RMM:   2    -0.232429988547E+04   -0.43618E-02   -0.46572E-02  6267   0.114E-01    0.955E-02
RMM:   3    -0.232430018633E+04   -0.30086E-03   -0.44640E-03  5299   0.357E-02    0.804E-02
RMM:   4    -0.232430017234E+04    0.13985E-04   -0.47633E-04  3289   0.934E-03    0.636E-02
RMM:   5    -0.232430014120E+04    0.31147E-04   -0.84296E-05  2940   0.630E-03    0.371E-02
RMM:   6    -0.232430012686E+04    0.14339E-04   -0.56227E-05  3295   0.548E-03    0.127E-02
RMM:   7    -0.232430012570E+04    0.11522E-05   -0.94046E-06  2867   0.446E-03
  45 F= -.23448468E+04 E0= -.23448468E+04  d E =-.262469E-02  mag=     2.0000
       N       E                     dE             d eps       ncg     rms          rms(c)
DAV:   1    -0.232428076693E+04    0.19360E-01   -0.15559E+00  4432   0.114E+00    0.372E-01
RMM:   2    -0.232430076598E+04   -0.19999E-01   -0.21390E-01  6267   0.244E-01    0.192E-01
RMM:   3    -0.232430220755E+04   -0.14416E-02   -0.21210E-02  5852   0.755E-02    0.149E-01
RMM:   4    -0.232430222385E+04   -0.16301E-04   -0.21974E-03  4928   0.190E-02    0.130E-01
RMM:   5    -0.232430211498E+04    0.10887E-03   -0.40784E-04  3900   0.117E-02    0.893E-02
RMM:   6    -0.232430203021E+04    0.84770E-04   -0.22085E-04  4655   0.983E-03    0.276E-02
RMM:   7    -0.232430202491E+04    0.52928E-05   -0.33651E-05  2995   0.659E-03
  46 F= -.23448484E+04 E0= -.23448484E+04  d E =-.163982E-02  mag=     2.0000
       N       E                     dE             d eps       ncg     rms          rms(c)
DAV:   1    -0.232430194098E+04    0.89230E-04   -0.66541E-03  5352   0.749E-02    0.266E-02
RMM:   2    -0.232430202799E+04   -0.87014E-04   -0.95001E-04  5495   0.172E-02    0.142E-02
RMM:   3    -0.232430203649E+04   -0.84944E-05   -0.10385E-04  2887   0.619E-03    0.146E-02
RMM:   4    -0.232430203553E+04    0.95370E-06   -0.11791E-05  2797   0.235E-03
  47 F= -.23448484E+04 E0= -.23448484E+04  d E =-.163360E-02  mag=     2.0000
       N       E                     dE             d eps       ncg     rms          rms(c)
DAV:   1    -0.232429900545E+04    0.30310E-02   -0.28427E-01  4448   0.512E-01    0.179E-01
RMM:   2    -0.232430307501E+04   -0.40696E-02   -0.44142E-02  6205   0.117E-01    0.991E-02
RMM:   3    -0.232430345232E+04   -0.37731E-03   -0.45147E-03  5304   0.368E-02    0.121E-01
RMM:   4    -0.232430335099E+04    0.10133E-03   -0.49704E-04  3341   0.971E-03    0.589E-02
RMM:   5    -0.232430330289E+04    0.48097E-04   -0.12504E-04  3829   0.839E-03    0.250E-02
RMM:   6    -0.232430329722E+04    0.56739E-05   -0.43870E-05  3243   0.618E-03
  48 F= -.23448498E+04 E0= -.23448498E+04  d E =-.134005E-02  mag=     2.0000
       N       E                     dE             d eps       ncg     rms          rms(c)
DAV:   1    -0.232430280231E+04    0.50058E-03   -0.35084E-02  4840   0.180E-01    0.640E-02
RMM:   2    -0.232430330623E+04   -0.50392E-03   -0.55326E-03  6308   0.422E-02    0.350E-02
RMM:   3    -0.232430335754E+04   -0.51304E-04   -0.58783E-04  3240   0.145E-02    0.459E-02
RMM:   4    -0.232430334235E+04    0.15190E-04   -0.64724E-05  2937   0.489E-03    0.202E-02
RMM:   5    -0.232430333637E+04    0.59747E-05   -0.15756E-05  2908   0.331E-03
  49 F= -.23448498E+04 E0= -.23448498E+04  d E =-.140684E-02  mag=     2.0000
       N       E                     dE             d eps       ncg     rms          rms(c)
DAV:   1    -0.232430070248E+04    0.26399E-02   -0.29009E-01  4448   0.514E-01    0.166E-01
RMM:   2    -0.232430418053E+04   -0.34780E-02   -0.37349E-02  6276   0.112E-01    0.107E-01
RMM:   3    -0.232430447234E+04   -0.29182E-03   -0.33531E-03  5212   0.330E-02    0.133E-01
RMM:   4    -0.232430431348E+04    0.15886E-03   -0.41138E-04  3330   0.964E-03    0.494E-02
RMM:   5    -0.232430428216E+04    0.31323E-04   -0.10619E-04  3435   0.783E-03    0.239E-02
RMM:   6    -0.232430427879E+04    0.33642E-05   -0.42552E-05  3148   0.607E-03
  50 F= -.23448508E+04 E0= -.23448508E+04  d E =-.971523E-03  mag=     2.0000
       N       E                     dE             d eps       ncg     rms          rms(c)
DAV:   1    -0.232430407823E+04    0.20393E-03   -0.17005E-02  4880   0.124E-01    0.413E-02
RMM:   2    -0.232430428404E+04   -0.20581E-03   -0.22432E-03  6215   0.282E-02    0.246E-02
RMM:   3    -0.232430430416E+04   -0.20118E-04   -0.21048E-04  2972   0.944E-03    0.334E-02
RMM:   4    -0.232430429466E+04    0.94947E-05   -0.26166E-05  2888   0.361E-03
  51 F= -.23448508E+04 E0= -.23448508E+04  d E =-.994542E-03  mag=     2.0000
       N       E                     dE             d eps       ncg     rms          rms(c)
DAV:   1    -0.232430370486E+04    0.59930E-03   -0.18763E-01  4448   0.426E-01    0.121E-01
RMM:   2    -0.232430502373E+04   -0.13189E-02   -0.14328E-02  6016   0.785E-02    0.689E-02
RMM:   3    -0.232430509978E+04   -0.76041E-04   -0.11897E-03  4282   0.261E-02    0.756E-02
RMM:   4    -0.232430505353E+04    0.46244E-04   -0.15715E-04  3105   0.765E-03    0.418E-02
RMM:   5    -0.232430503166E+04    0.21875E-04   -0.62546E-05  3395   0.692E-03    0.148E-02
RMM:   6    -0.232430503028E+04    0.13769E-05   -0.16092E-05  2913   0.514E-03
  52 F= -.23448516E+04 E0= -.23448516E+04  d E =-.767603E-03  mag=     2.0000
       N       E                     dE             d eps       ncg     rms          rms(c)
DAV:   1    -0.232430462837E+04    0.40329E-03   -0.65404E-02  4480   0.252E-01    0.721E-02
RMM:   2    -0.232430509339E+04   -0.46502E-03   -0.50654E-03  6050   0.474E-02    0.400E-02
RMM:   3    -0.232430511992E+04   -0.26533E-04   -0.42015E-04  3540   0.162E-02    0.427E-02
RMM:   4    -0.232430510598E+04    0.13938E-04   -0.55966E-05  2955   0.525E-03    0.250E-02
RMM:   5    -0.232430509812E+04    0.78604E-05   -0.20752E-05  2908   0.421E-03
  53 F= -.23448517E+04 E0= -.23448517E+04  d E =-.854784E-03  mag=     2.0000
       N       E                     dE             d eps       ncg     rms          rms(c)
DAV:   1    -0.232430494513E+04    0.16086E-03   -0.13747E-01  4448   0.349E-01    0.947E-02
RMM:   2    -0.232430566378E+04   -0.71865E-03   -0.79333E-03  6148   0.617E-02    0.519E-02
RMM:   3    -0.232430568991E+04   -0.26136E-04   -0.62902E-04  3857   0.198E-02    0.498E-02
RMM:   4    -0.232430567418E+04    0.15730E-04   -0.80609E-05  3011   0.629E-03    0.356E-02
RMM:   5    -0.232430566028E+04    0.13905E-04   -0.36382E-05  3014   0.523E-03    0.127E-02
RMM:   6    -0.232430565899E+04    0.12870E-05   -0.13415E-05  2919   0.432E-03
  54 F= -.23448523E+04 E0= -.23448523E+04  d E =-.611899E-03  mag=     2.0000
       N       E                     dE             d eps       ncg     rms          rms(c)
DAV:   1    -0.232430444369E+04    0.12166E-02   -0.26728E-01  4448   0.486E-01    0.131E-01
RMM:   2    -0.232430584891E+04   -0.14052E-02   -0.15450E-02  5982   0.845E-02    0.741E-02
RMM:   3    -0.232430590279E+04   -0.53887E-04   -0.12358E-03  4466   0.291E-02    0.748E-02
RMM:   4    -0.232430586046E+04    0.42333E-04   -0.15672E-04  3149   0.770E-03    0.476E-02
RMM:   5    -0.232430583345E+04    0.27006E-04   -0.66863E-05  3294   0.687E-03    0.173E-02
RMM:   6    -0.232430583032E+04    0.31323E-05   -0.25186E-05  2995   0.541E-03
  55 F= -.23448525E+04 E0= -.23448525E+04  d E =-.855182E-03  mag=     2.0000
       N       E                     dE             d eps       ncg     rms          rms(c)
DAV:   1    -0.232430568675E+04    0.14671E-03   -0.22225E-01  4448   0.427E-01    0.104E-01
RMM:   2    -0.232430647693E+04   -0.79018E-03   -0.84854E-03  5777   0.693E-02    0.593E-02
RMM:   3    -0.232430648079E+04   -0.38578E-05   -0.55396E-04  4331   0.233E-02    0.604E-02
RMM:   4    -0.232430645424E+04    0.26553E-04   -0.82769E-05  3057   0.661E-03    0.391E-02
RMM:   5    -0.232430643823E+04    0.16009E-04   -0.47751E-05  3098   0.604E-03    0.119E-02
RMM:   6    -0.232430643765E+04    0.58123E-06   -0.13160E-05  2902   0.465E-03
  56 F= -.23448532E+04 E0= -.23448532E+04  d E =-.684375E-03  mag=     2.0000
       N       E                     dE             d eps       ncg     rms          rms(c)
DAV:   1    -0.232430526616E+04    0.11721E-02   -0.39679E-01  4448   0.571E-01    0.139E-01
RMM:   2    -0.232430667610E+04   -0.14099E-02   -0.15157E-02  5679   0.917E-02    0.784E-02
RMM:   3    -0.232430667552E+04    0.58443E-06   -0.99514E-04  4740   0.307E-02    0.768E-02
RMM:   4    -0.232430663617E+04    0.39348E-04   -0.14893E-04  3324   0.810E-03    0.539E-02
RMM:   5    -0.232430660506E+04    0.31116E-04   -0.87209E-05  3537   0.789E-03    0.162E-02
RMM:   6    -0.232430660327E+04    0.17870E-05   -0.21216E-05  2952   0.538E-03
  57 F= -.23448535E+04 E0= -.23448535E+04  d E =-.953487E-03  mag=     2.0000
       N       E                     dE             d eps       ncg     rms          rms(c)
DAV:   1    -0.232430646069E+04    0.14436E-03   -0.20062E-01  4448   0.415E-01    0.101E-01
RMM:   2    -0.232430724982E+04   -0.78913E-03   -0.84999E-03  5903   0.688E-02    0.533E-02
RMM:   3    -0.232430726829E+04   -0.18472E-04   -0.63543E-04  4285   0.240E-02    0.505E-02
RMM:   4    -0.232430725394E+04    0.14354E-04   -0.83195E-05  3042   0.656E-03    0.391E-02
RMM:   5    -0.232430723728E+04    0.16661E-04   -0.55767E-05  3207   0.633E-03    0.108E-02
RMM:   6    -0.232430723705E+04    0.22753E-06   -0.10544E-05  2882   0.452E-03
  58 F= -.23448542E+04 E0= -.23448542E+04  d E =-.705934E-03  mag=     2.0000
       N       E                     dE             d eps       ncg     rms          rms(c)
DAV:   1    -0.232430555858E+04    0.16787E-02   -0.50310E-01  4440   0.658E-01    0.159E-01
RMM:   2    -0.232430753264E+04   -0.19741E-02   -0.21282E-02  5846   0.108E-01    0.835E-02
RMM:   3    -0.232430756837E+04   -0.35737E-04   -0.15782E-03  4970   0.363E-02    0.761E-02
RMM:   4    -0.232430754056E+04    0.27811E-04   -0.20918E-04  3589   0.919E-03    0.634E-02
RMM:   5    -0.232430749452E+04    0.46044E-04   -0.13910E-04  4061   0.934E-03    0.178E-02
RMM:   6    -0.232430749229E+04    0.22330E-05   -0.21331E-05  2947   0.550E-03
  59 F= -.23448546E+04 E0= -.23448546E+04  d E =-.107627E-02  mag=     2.0000
       N       E                     dE             d eps       ncg     rms          rms(c)
DAV:   1    -0.232430719328E+04    0.30124E-03   -0.27558E-01  4448   0.476E-01    0.111E-01
RMM:   2    -0.232430820445E+04   -0.10112E-02   -0.10561E-02  5894   0.770E-02    0.775E-02
RMM:   3    -0.232430823532E+04   -0.30874E-04   -0.72869E-04  4481   0.245E-02    0.880E-02
RMM:   4    -0.232430815598E+04    0.79342E-04   -0.10871E-04  3149   0.750E-03    0.373E-02
RMM:   5    -0.232430814003E+04    0.15951E-04   -0.75679E-05  3519   0.720E-03    0.102E-02
RMM:   6    -0.232430814030E+04   -0.27800E-06   -0.11920E-05  2887   0.500E-03
  60 F= -.23448553E+04 E0= -.23448553E+04  d E =-.724269E-03  mag=     2.0000
       N       E                     dE             d eps       ncg     rms          rms(c)
DAV:   1    -0.232430714975E+04    0.99027E-03   -0.32680E-01  4448   0.518E-01    0.122E-01
RMM:   2    -0.232430835358E+04   -0.12038E-02   -0.12537E-02  5913   0.839E-02    0.876E-02
RMM:   3    -0.232430838723E+04   -0.33647E-04   -0.86235E-04  4562   0.252E-02    0.974E-02
RMM:   4    -0.232430828766E+04    0.99565E-04   -0.12981E-04  3220   0.803E-03    0.402E-02
RMM:   5    -0.232430826693E+04    0.20731E-04   -0.90768E-05  3694   0.782E-03    0.112E-02
RMM:   6    -0.232430826671E+04    0.22107E-06   -0.13537E-05  2895   0.535E-03
  61 F= -.23448555E+04 E0= -.23448555E+04  d E =-.934360E-03  mag=     2.0000
       N       E                     dE             d eps       ncg     rms          rms(c)
DAV:   1    -0.232430738026E+04    0.88668E-03   -0.40524E-01  4472   0.580E-01    0.147E-01
RMM:   2    -0.232430908303E+04   -0.17028E-02   -0.17682E-02  5867   0.951E-02    0.120E-01
RMM:   3    -0.232430908734E+04   -0.43092E-05   -0.11484E-03  4750   0.292E-02    0.124E-01
RMM:   4    -0.232430892321E+04    0.16413E-03   -0.18256E-04  3504   0.894E-03    0.441E-02
RMM:   5    -0.232430889705E+04    0.26161E-04   -0.94988E-05  3788   0.785E-03    0.157E-02
RMM:   6    -0.232430889596E+04    0.10870E-05   -0.23130E-05  2966   0.569E-03
  62 F= -.23448562E+04 E0= -.23448562E+04  d E =-.710590E-03  mag=     2.0000
       N       E                     dE             d eps       ncg     rms          rms(c)
DAV:   1    -0.232430836113E+04    0.53592E-03   -0.14565E-01  4512   0.348E-01    0.888E-02
RMM:   2    -0.232430898072E+04   -0.61958E-03   -0.64088E-03  5952   0.579E-02    0.743E-02
RMM:   3    -0.232430898125E+04   -0.53470E-06   -0.42699E-04  3970   0.190E-02    0.753E-02
RMM:   4    -0.232430892120E+04    0.60057E-04   -0.66121E-05  3065   0.637E-03    0.266E-02
RMM:   5    -0.232430891170E+04    0.94961E-05   -0.35802E-05  3045   0.520E-03
  63 F= -.23448563E+04 E0= -.23448563E+04  d E =-.775403E-03  mag=     2.0000
       N       E                     dE             d eps       ncg     rms          rms(c)
DAV:   1    -0.232430729734E+04    0.16239E-02   -0.44395E-01  4432   0.623E-01    0.159E-01
RMM:   2    -0.232430946563E+04   -0.21683E-02   -0.22779E-02  6071   0.106E-01    0.119E-01
RMM:   3    -0.232430952863E+04   -0.63003E-04   -0.16392E-03  5035   0.345E-02    0.129E-01
RMM:   4    -0.232430935100E+04    0.17763E-03   -0.23318E-04  3527   0.987E-03    0.485E-02
RMM:   5    -0.232430932026E+04    0.30741E-04   -0.10951E-04  3958   0.854E-03    0.179E-02
RMM:   6    -0.232430931856E+04    0.16965E-05   -0.26930E-05  2986   0.602E-03
  64 F= -.23448568E+04 E0= -.23448568E+04  d E =-.570075E-03  mag=     2.0000
       N       E                     dE             d eps       ncg     rms          rms(c)
DAV:   1    -0.232430915962E+04    0.16064E-03   -0.25623E-02  4752   0.150E-01    0.395E-02
RMM:   2    -0.232430929100E+04   -0.13138E-03   -0.13721E-03  5979   0.271E-02    0.316E-02
RMM:   3    -0.232430929333E+04   -0.23340E-05   -0.97569E-05  2993   0.902E-03
  65 F= -.23448568E+04 E0= -.23448568E+04  d E =-.584197E-03  mag=     2.0000
       N       E                     dE             d eps       ncg     rms          rms(c)
DAV:   1    -0.232430795068E+04    0.13403E-02   -0.30385E-01  4448   0.532E-01    0.140E-01
RMM:   2    -0.232430975655E+04   -0.18059E-02   -0.18976E-02  6084   0.969E-02    0.995E-02
RMM:   3    -0.232430983690E+04   -0.80354E-04   -0.14165E-03  4936   0.284E-02    0.106E-01
RMM:   4    -0.232430971808E+04    0.11882E-03   -0.19693E-04  3232   0.882E-03    0.458E-02
RMM:   5    -0.232430969299E+04    0.25090E-04   -0.85458E-05  3571   0.791E-03    0.156E-02
RMM:   6    -0.232430969319E+04   -0.20364E-06   -0.23985E-05  2954   0.572E-03
  66 F= -.23448574E+04 E0= -.23448574E+04  d E =-.567027E-03  mag=     2.0000
       N       E                     dE             d eps       ncg     rms          rms(c)
DAV:   1    -0.232430888070E+04    0.81229E-03   -0.12735E-01  4448   0.344E-01    0.906E-02
RMM:   2    -0.232430964499E+04   -0.76429E-03   -0.80229E-03  6062   0.628E-02    0.654E-02
RMM:   3    -0.232430967809E+04   -0.33105E-04   -0.57622E-04  4141   0.195E-02    0.713E-02
RMM:   4    -0.232430962279E+04    0.55299E-04   -0.81871E-05  3009   0.662E-03    0.271E-02
RMM:   5    -0.232430961385E+04    0.89448E-05   -0.34371E-05  2987   0.519E-03
  67 F= -.23448574E+04 E0= -.23448574E+04  d E =-.596373E-03  mag=     2.0000
       N       E                     dE             d eps       ncg     rms          rms(c)
DAV:   1    -0.232430888843E+04    0.73436E-03   -0.16057E-01  4448   0.385E-01    0.967E-02
RMM:   2    -0.232430996808E+04   -0.10796E-02   -0.11359E-02  6208   0.725E-02    0.693E-02
RMM:   3    -0.232431002315E+04   -0.55075E-04   -0.88019E-04  4276   0.221E-02    0.736E-02
RMM:   4    -0.232430996888E+04    0.54274E-04   -0.11318E-04  3049   0.707E-03    0.309E-02
RMM:   5    -0.232430995902E+04    0.98582E-05   -0.34979E-05  2971   0.517E-03
  68 F= -.23448579E+04 E0= -.23448579E+04  d E =-.435649E-03  mag=     2.0000
       N       E                     dE             d eps       ncg     rms          rms(c)
DAV:   1    -0.232430156310E+04    0.84058E-02   -0.12703E+00  4432   0.108E+00    0.270E-01
RMM:   2    -0.232431008369E+04   -0.85206E-02   -0.89411E-02  6138   0.200E-01    0.199E-01
RMM:   3    -0.232431050833E+04   -0.42464E-03   -0.71675E-03  5785   0.618E-02    0.207E-01
RMM:   4    -0.232431007856E+04    0.42977E-03   -0.90755E-04  4864   0.160E-02    0.861E-02
RMM:   5    -0.232430999558E+04    0.82984E-04   -0.26417E-04  4344   0.119E-02    0.363E-02
RMM:   6    -0.232430998871E+04    0.68716E-05   -0.10064E-04  3707   0.886E-03    0.136E-02
RMM:   7    -0.232430998740E+04    0.13081E-05   -0.10645E-05  2882   0.478E-03
  69 F= -.23448582E+04 E0= -.23448582E+04  d E =-.720010E-03  mag=     2.0000
       N       E                     dE             d eps       ncg     rms          rms(c)
DAV:   1    -0.232430913692E+04    0.85178E-03   -0.17845E-01  4448   0.407E-01    0.103E-01
RMM:   2    -0.232431039410E+04   -0.12572E-02   -0.13087E-02  6137   0.758E-02    0.837E-02
RMM:   3    -0.232431044195E+04   -0.47854E-04   -0.10132E-03  4404   0.233E-02    0.803E-02
RMM:   4    -0.232431037660E+04    0.65359E-04   -0.13261E-04  3061   0.711E-03    0.323E-02
RMM:   5    -0.232431036506E+04    0.11534E-04   -0.37860E-05  2985   0.542E-03    0.136E-02
RMM:   6    -0.232431036492E+04    0.14468E-06   -0.16280E-05  2927   0.451E-03
  70 F= -.23448586E+04 E0= -.23448586E+04  d E =-.472351E-03  mag=     2.0000
       N       E                     dE             d eps       ncg     rms          rms(c)
DAV:   1    -0.232430095247E+04    0.94126E-02   -0.13820E+00  4432   0.113E+00    0.285E-01
RMM:   2    -0.232431059805E+04   -0.96456E-02   -0.10077E-01  6023   0.208E-01    0.227E-01
RMM:   3    -0.232431102225E+04   -0.42420E-03   -0.82436E-03  5553   0.661E-02    0.223E-01
RMM:   4    -0.232431051848E+04    0.50377E-03   -0.10396E-03  5010   0.168E-02    0.897E-02
RMM:   5    -0.232431042557E+04    0.92914E-04   -0.29164E-04  4444   0.122E-02    0.384E-02
RMM:   6    -0.232431041731E+04    0.82556E-05   -0.10832E-04  3800   0.910E-03    0.146E-02
RMM:   7    -0.232431041569E+04    0.16225E-05   -0.11727E-05  2890   0.481E-03
  71 F= -.23448590E+04 E0= -.23448590E+04  d E =-.789027E-03  mag=     2.0000
       N       E                     dE             d eps       ncg     rms          rms(c)
DAV:   1    -0.232430883157E+04    0.15857E-02   -0.29139E-01  4448   0.515E-01    0.136E-01
RMM:   2    -0.232431103624E+04   -0.22047E-02   -0.22783E-02  6100   0.957E-02    0.128E-01
RMM:   3    -0.232431106942E+04   -0.33183E-04   -0.18034E-03  4865   0.305E-02    0.106E-01
RMM:   4    -0.232431095313E+04    0.11629E-03   -0.22308E-04  3166   0.841E-03    0.427E-02
RMM:   5    -0.232431093066E+04    0.22471E-04   -0.77658E-05  3337   0.713E-03    0.173E-02
RMM:   6    -0.232431093008E+04    0.58193E-06   -0.25639E-05  2961   0.552E-03
  72 F= -.23448596E+04 E0= -.23448596E+04  d E =-.676826E-03  mag=     2.0000
       N       E                     dE             d eps       ncg     rms          rms(c)
DAV:   1    -0.232430385703E+04    0.70736E-02   -0.98437E-01  4432   0.944E-01    0.251E-01
RMM:   2    -0.232431122065E+04   -0.73636E-02   -0.76371E-02  6047   0.176E-01    0.229E-01
RMM:   3    -0.232431138007E+04   -0.15941E-03   -0.63491E-03  5558   0.544E-02    0.194E-01
RMM:   4    -0.232431098718E+04    0.39289E-03   -0.77046E-04  4606   0.144E-02    0.786E-02
RMM:   5    -0.232431091100E+04    0.76175E-04   -0.26125E-04  4454   0.114E-02    0.319E-02
RMM:   6    -0.232431090571E+04    0.52949E-05   -0.78204E-05  3336   0.800E-03
  73 F= -.23448599E+04 E0= -.23448599E+04  d E =-.952069E-03  mag=     2.0000
       N       E                     dE             d eps       ncg     rms          rms(c)
DAV:   1    -0.232430850546E+04    0.24055E-02   -0.40136E-01  4480   0.596E-01    0.161E-01
RMM:   2    -0.232431156755E+04   -0.30621E-02   -0.31655E-02  6164   0.112E-01    0.153E-01
RMM:   3    -0.232431161205E+04   -0.44496E-04   -0.26826E-03  5289   0.366E-02    0.123E-01
RMM:   4    -0.232431145883E+04    0.15322E-03   -0.31567E-04  3295   0.950E-03    0.503E-02
RMM:   5    -0.232431143043E+04    0.28400E-04   -0.10094E-04  3473   0.772E-03    0.214E-02
RMM:   6    -0.232431142886E+04    0.15632E-05   -0.36155E-05  3011   0.599E-03
  74 F= -.23448606E+04 E0= -.23448606E+04  d E =-.696443E-03  mag=     2.0000
       N       E                     dE             d eps       ncg     rms          rms(c)
DAV:   1    -0.232430549212E+04    0.59383E-02   -0.82127E-01  4496   0.853E-01    0.229E-01
RMM:   2    -0.232431176739E+04   -0.62753E-02   -0.64769E-02  6178   0.159E-01    0.219E-01
RMM:   3    -0.232431184111E+04   -0.73720E-04   -0.53833E-03  5645   0.497E-02    0.175E-01
RMM:   4    -0.232431152900E+04    0.31211E-03   -0.63547E-04  4102   0.131E-02    0.723E-02
RMM:   5    -0.232431146831E+04    0.60692E-04   -0.21439E-04  4283   0.104E-02    0.307E-02
RMM:   6    -0.232431146325E+04    0.50555E-05   -0.70200E-05  3185   0.736E-03
  75 F= -.23448609E+04 E0= -.23448609E+04  d E =-.979253E-03  mag=     2.0000
       N       E                     dE             d eps       ncg     rms          rms(c)
DAV:   1    -0.232431031368E+04    0.11546E-02   -0.27326E-01  4448   0.508E-01    0.142E-01
RMM:   2    -0.232431212802E+04   -0.18143E-02   -0.19313E-02  6175   0.955E-02    0.104E-01
RMM:   3    -0.232431222371E+04   -0.95694E-04   -0.15750E-03  5086   0.314E-02    0.113E-01
RMM:   4    -0.232431209142E+04    0.13229E-03   -0.20824E-04  3225   0.894E-03    0.420E-02
RMM:   5    -0.232431207073E+04    0.20686E-04   -0.85184E-05  3580   0.768E-03    0.168E-02
RMM:   6    -0.232431206898E+04    0.17564E-05   -0.22669E-05  2953   0.572E-03
  76 F= -.23448616E+04 E0= -.23448616E+04  d E =-.726364E-03  mag=     2.0000
       N       E                     dE             d eps       ncg     rms          rms(c)
DAV:   1    -0.232431143449E+04    0.63624E-03   -0.10015E-01  4544   0.307E-01    0.856E-02
RMM:   2    -0.232431210123E+04   -0.66674E-03   -0.70928E-03  6221   0.582E-02    0.620E-02
RMM:   3    -0.232431213401E+04   -0.32779E-04   -0.54840E-04  4000   0.184E-02    0.679E-02
RMM:   4    -0.232431208675E+04    0.47261E-04   -0.75772E-05  2998   0.643E-03    0.258E-02
RMM:   5    -0.232431207854E+04    0.82100E-05   -0.32891E-05  2958   0.508E-03
  77 F= -.23448617E+04 E0= -.23448617E+04  d E =-.809296E-03  mag=     2.0000
       N       E                     dE             d eps       ncg     rms          rms(c)
DAV:   1    -0.232431125217E+04    0.83458E-03   -0.19230E-01  4448   0.429E-01    0.121E-01
RMM:   2    -0.232431243718E+04   -0.11850E-02   -0.12922E-02  6219   0.802E-02    0.652E-02
RMM:   3    -0.232431250967E+04   -0.72488E-04   -0.11326E-03  4667   0.267E-02    0.712E-02
RMM:   4    -0.232431246557E+04    0.44098E-04   -0.14113E-04  3120   0.759E-03    0.395E-02
RMM:   5    -0.232431244815E+04    0.17424E-04   -0.59516E-05  3189   0.662E-03    0.145E-02
RMM:   6    -0.232431244725E+04    0.89474E-06   -0.17326E-05  2937   0.511E-03
  78 F= -.23448622E+04 E0= -.23448622E+04  d E =-.538175E-03  mag=     2.0000
       N       E                     dE             d eps       ncg     rms          rms(c)
DAV:   1    -0.232431183694E+04    0.61121E-03   -0.90068E-02  4512   0.293E-01    0.825E-02
RMM:   2    -0.232431239712E+04   -0.56018E-03   -0.60902E-03  6115   0.540E-02    0.457E-02
RMM:   3    -0.232431242990E+04   -0.32785E-04   -0.50642E-04  3906   0.186E-02    0.516E-02
RMM:   4    -0.232431240525E+04    0.24654E-04   -0.66247E-05  2985   0.571E-03    0.261E-02
RMM:   5    -0.232431239726E+04    0.79924E-05   -0.28087E-05  2956   0.472E-03
  79 F= -.23448623E+04 E0= -.23448623E+04  d E =-.604286E-03  mag=     2.0000
       N       E                     dE             d eps       ncg     rms          rms(c)
DAV:   1    -0.232431164242E+04    0.76283E-03   -0.19627E-01  4440   0.429E-01    0.114E-01
RMM:   2    -0.232431264434E+04   -0.10019E-02   -0.10917E-02  6137   0.762E-02    0.653E-02
RMM:   3    -0.232431269027E+04   -0.45928E-04   -0.84340E-04  4535   0.245E-02    0.720E-02
RMM:   4    -0.232431264006E+04    0.50210E-04   -0.11110E-04  3071   0.742E-03    0.377E-02
RMM:   5    -0.232431262320E+04    0.16861E-04   -0.56489E-05  3239   0.652E-03    0.130E-02
RMM:   6    -0.232431262216E+04    0.10355E-05   -0.16573E-05  2919   0.510E-03
  80 F= -.23448627E+04 E0= -.23448627E+04  d E =-.418611E-03  mag=     2.0000
       N       E                     dE             d eps       ncg     rms          rms(c)
DAV:   1    -0.232431239497E+04    0.22823E-03   -0.31843E-02  4632   0.173E-01    0.463E-02
RMM:   2    -0.232431256287E+04   -0.16790E-03   -0.18166E-03  6079   0.313E-02    0.282E-02
RMM:   3    -0.232431257017E+04   -0.72974E-05   -0.12948E-04  3137   0.101E-02    0.326E-02
RMM:   4    -0.232431255936E+04    0.10809E-04   -0.19424E-05  2875   0.388E-03    0.145E-02
RMM:   5    -0.232431255675E+04    0.26064E-05   -0.93604E-06  2863   0.286E-03
  81 F= -.23448627E+04 E0= -.23448627E+04  d E =-.431454E-03  mag=     2.0000
       N       E                     dE             d eps       ncg     rms          rms(c)
DAV:   1    -0.232431177559E+04    0.78377E-03   -0.21114E-01  4432   0.458E-01    0.125E-01
RMM:   2    -0.232431283463E+04   -0.10590E-02   -0.11505E-02  6004   0.788E-02    0.759E-02
RMM:   3    -0.232431287433E+04   -0.39706E-04   -0.82120E-04  4684   0.246E-02    0.871E-02
RMM:   4    -0.232431279374E+04    0.80596E-04   -0.12076E-04  3109   0.780E-03    0.375E-02
RMM:   5    -0.232431277622E+04    0.17514E-04   -0.58466E-05  3306   0.686E-03    0.135E-02
RMM:   6    -0.232431277487E+04    0.13563E-05   -0.18801E-05  2926   0.533E-03
  82 F= -.23448631E+04 E0= -.23448631E+04  d E =-.390045E-03  mag=     2.0000
       N       E                     dE             d eps       ncg     rms          rms(c)
DAV:   1    -0.232431269314E+04    0.83078E-04   -0.88263E-03  5000   0.937E-02    0.264E-02
RMM:   2    -0.232431273997E+04   -0.46831E-04   -0.50416E-04  5552   0.177E-02    0.167E-02
RMM:   3    -0.232431274221E+04   -0.22307E-05   -0.38767E-05  2889   0.651E-03
  83 F= -.23448631E+04 E0= -.23448631E+04  d E =-.392792E-03  mag=     2.0000
       N       E                     dE             d eps       ncg     rms          rms(c)
DAV:   1    -0.232431208472E+04    0.65525E-03   -0.13119E-01  4448   0.372E-01    0.105E-01
RMM:   2    -0.232431293679E+04   -0.85207E-03   -0.91776E-03  6044   0.683E-02    0.716E-02
RMM:   3    -0.232431297648E+04   -0.39695E-04   -0.74932E-04  4224   0.214E-02    0.782E-02
RMM:   4    -0.232431290877E+04    0.67712E-04   -0.10126E-04  3049   0.739E-03    0.324E-02
RMM:   5    -0.232431289308E+04    0.15692E-04   -0.50868E-05  3269   0.654E-03    0.113E-02
RMM:   6    -0.232431289210E+04    0.98263E-06   -0.14893E-05  2886   0.507E-03
  84 F= -.23448634E+04 E0= -.23448634E+04  d E =-.301725E-03  mag=     2.0000
       N       E                     dE             d eps       ncg     rms          rms(c)
DAV:   1    -0.232431283835E+04    0.54730E-04   -0.38289E-03  5184   0.639E-02    0.188E-02
RMM:   2    -0.232431286440E+04   -0.26048E-04   -0.28254E-04  4949   0.129E-02    0.131E-02
RMM:   3    -0.232431286597E+04   -0.15704E-05   -0.25655E-05  2839   0.538E-03
  85 F= -.23448634E+04 E0= -.23448634E+04  d E =-.301851E-03  mag=     2.0000
       N       E                     dE             d eps       ncg     rms          rms(c)
DAV:   1    -0.232431217801E+04    0.68639E-03   -0.11570E-01  4448   0.348E-01    0.962E-02
RMM:   2    -0.232431306133E+04   -0.88333E-03   -0.91449E-03  6103   0.663E-02    0.851E-02
RMM:   3    -0.232431307129E+04   -0.99574E-05   -0.70600E-04  4125   0.202E-02    0.761E-02
RMM:   4    -0.232431300817E+04    0.63118E-04   -0.96165E-05  3051   0.694E-03    0.285E-02
RMM:   5    -0.232431299640E+04    0.11769E-04   -0.48616E-05  3258   0.626E-03    0.100E-02
RMM:   6    -0.232431299651E+04   -0.10562E-06   -0.11079E-05  2881   0.479E-03
  86 F= -.23448637E+04 E0= -.23448637E+04  d E =-.265283E-03  mag=     2.0000
       N       E                     dE             d eps       ncg     rms          rms(c)
DAV:   1    -0.232431288755E+04    0.10885E-03   -0.97103E-03  4704   0.101E-01    0.287E-02
RMM:   2    -0.232431296436E+04   -0.76809E-04   -0.79180E-04  6021   0.199E-02    0.260E-02
RMM:   3    -0.232431296473E+04   -0.37104E-06   -0.58523E-05  2903   0.664E-03
  87 F= -.23448637E+04 E0= -.23448637E+04  d E =-.272763E-03  mag=     2.0000
       N       E                     dE             d eps       ncg     rms          rms(c)
DAV:   1    -0.232431231052E+04    0.65384E-03   -0.11819E-01  4440   0.354E-01    0.953E-02
RMM:   2    -0.232431321235E+04   -0.90183E-03   -0.93894E-03  6163   0.682E-02    0.802E-02
RMM:   3    -0.232431323285E+04   -0.20494E-04   -0.73671E-04  4126   0.198E-02    0.760E-02
RMM:   4    -0.232431317154E+04    0.61308E-04   -0.10064E-04  3064   0.695E-03    0.286E-02
RMM:   5    -0.232431315964E+04    0.11903E-04   -0.45438E-05  3189   0.610E-03    0.102E-02
RMM:   6    -0.232431316007E+04   -0.42940E-06   -0.11583E-05  2884   0.473E-03
  88 F= -.23448640E+04 E0= -.23448640E+04  d E =-.267328E-03  mag=     2.0000
       N       E                     dE             d eps       ncg     rms          rms(c)
DAV:   1    -0.232431286187E+04    0.29776E-03   -0.36511E-02  4448   0.197E-01    0.533E-02
RMM:   2    -0.232431314165E+04   -0.27977E-03   -0.29190E-03  6108   0.379E-02    0.437E-02
RMM:   3    -0.232431314989E+04   -0.82431E-05   -0.22591E-04  3302   0.122E-02    0.436E-02
RMM:   4    -0.232431312943E+04    0.20456E-04   -0.31068E-05  2900   0.446E-03    0.146E-02
RMM:   5    -0.232431312661E+04    0.28201E-05   -0.12955E-05  2875   0.329E-03
  89 F= -.23448640E+04 E0= -.23448640E+04  d E =-.274055E-03  mag=     2.0000
       N       E                     dE             d eps       ncg     rms          rms(c)
DAV:   1    -0.232431267726E+04    0.45217E-03   -0.93077E-02  4432   0.317E-01    0.801E-02
RMM:   2    -0.232431332580E+04   -0.64853E-03   -0.69330E-03  6173   0.596E-02    0.528E-02
RMM:   3    -0.232431335688E+04   -0.31089E-04   -0.52958E-04  3929   0.185E-02    0.606E-02
RMM:   4    -0.232431331896E+04    0.37928E-04   -0.72612E-05  2993   0.630E-03    0.243E-02
RMM:   5    -0.232431331148E+04    0.74773E-05   -0.27475E-05  2937   0.487E-03
  90 F= -.23448642E+04 E0= -.23448642E+04  d E =-.228786E-03  mag=     2.0000
       N       E                     dE             d eps       ncg     rms          rms(c)
DAV:   1    -0.232431283062E+04    0.48833E-03   -0.67734E-02  4464   0.270E-01    0.687E-02
RMM:   2    -0.232431330135E+04   -0.47072E-03   -0.50635E-03  6269   0.519E-02    0.429E-02
RMM:   3    -0.232431332588E+04   -0.24536E-04   -0.39706E-04  3685   0.161E-02    0.497E-02
RMM:   4    -0.232431330156E+04    0.24325E-04   -0.53443E-05  2948   0.571E-03    0.214E-02
RMM:   5    -0.232431329600E+04    0.55561E-05   -0.20609E-05  2896   0.423E-03
  91 F= -.23448642E+04 E0= -.23448642E+04  d E =-.251042E-03  mag=     2.0000
       N       E                     dE             d eps       ncg     rms          rms(c)
DAV:   1    -0.232431276257E+04    0.53899E-03   -0.11655E-01  4432   0.351E-01    0.929E-02
RMM:   2    -0.232431351407E+04   -0.75150E-03   -0.82077E-03  6156   0.649E-02    0.516E-02
RMM:   3    -0.232431354335E+04   -0.29275E-04   -0.65025E-04  4130   0.212E-02    0.537E-02
RMM:   4    -0.232431351818E+04    0.25169E-04   -0.85382E-05  2985   0.667E-03    0.315E-02
RMM:   5    -0.232431350698E+04    0.11203E-04   -0.32722E-05  2943   0.536E-03    0.120E-02
RMM:   6    -0.232431350575E+04    0.12262E-05   -0.12897E-05  2912   0.446E-03
  92 F= -.23448645E+04 E0= -.23448645E+04  d E =-.267268E-03  mag=     2.0000
       N       E                     dE             d eps       ncg     rms          rms(c)
DAV:   1    -0.232431331032E+04    0.19666E-03   -0.28569E-02  4544   0.174E-01    0.464E-02
RMM:   2    -0.232431349892E+04   -0.18860E-03   -0.20464E-03  6130   0.327E-02    0.268E-02
RMM:   3    -0.232431350633E+04   -0.74115E-05   -0.15515E-04  3107   0.102E-02    0.292E-02
RMM:   4    -0.232431349828E+04    0.80533E-05   -0.22118E-05  2889   0.380E-03
  93 F= -.23448645E+04 E0= -.23448645E+04  d E =-.288282E-03  mag=     2.0000
       N       E                     dE             d eps       ncg     rms          rms(c)
DAV:   1    -0.232431314432E+04    0.36201E-03   -0.89398E-02  4432   0.302E-01    0.858E-02
RMM:   2    -0.232431372809E+04   -0.58376E-03   -0.63497E-03  6002   0.555E-02    0.538E-02
RMM:   3    -0.232431375101E+04   -0.22927E-04   -0.52525E-04  3975   0.200E-02    0.586E-02
RMM:   4    -0.232431371620E+04    0.34814E-04   -0.70154E-05  2984   0.621E-03    0.277E-02
RMM:   5    -0.232431370672E+04    0.94784E-05   -0.31712E-05  2958   0.507E-03
  94 F= -.23448647E+04 E0= -.23448647E+04  d E =-.231802E-03  mag=     2.0000
       N       E                     dE             d eps       ncg     rms          rms(c)
DAV:   1    -0.232431360476E+04    0.11144E-03   -0.14120E-02  4696   0.120E-01    0.348E-02
RMM:   2    -0.232431369865E+04   -0.93886E-04   -0.10396E-03  6008   0.243E-02    0.195E-02
RMM:   3    -0.232431370222E+04   -0.35786E-05   -0.86363E-05  2931   0.787E-03
  95 F= -.23448647E+04 E0= -.23448647E+04  d E =-.236694E-03  mag=     2.0000
       N       E                     dE             d eps       ncg     rms          rms(c)
DAV:   1    -0.232431318129E+04    0.51735E-03   -0.10030E-01  4432   0.321E-01    0.896E-02
RMM:   2    -0.232431387733E+04   -0.69603E-03   -0.76144E-03  6077   0.600E-02    0.506E-02
RMM:   3    -0.232431389614E+04   -0.18813E-04   -0.64364E-04  3877   0.183E-02    0.440E-02
RMM:   4    -0.232431388563E+04    0.10510E-04   -0.83494E-05  2987   0.623E-03    0.356E-02
RMM:   5    -0.232431387158E+04    0.14048E-04   -0.36409E-05  2940   0.547E-03    0.133E-02
RMM:   6    -0.232431387033E+04    0.12509E-05   -0.13763E-05  2904   0.440E-03
  96 F= -.23448649E+04 E0= -.23448649E+04  d E =-.166535E-03  mag=     2.0000
       N       E                     dE             d eps       ncg     rms          rms(c)
DAV:   1    -0.232431383167E+04    0.39908E-04   -0.49816E-03  5040   0.717E-02    0.205E-02
RMM:   2    -0.232431386827E+04   -0.36592E-04   -0.39837E-04  5383   0.149E-02    0.124E-02
RMM:   3    -0.232431387026E+04   -0.19933E-05   -0.33589E-05  2864   0.536E-03
  97 F= -.23448649E+04 E0= -.23448649E+04  d E =-.166108E-03  mag=     2.0000
       N       E                     dE             d eps       ncg     rms          rms(c)
DAV:   1    -0.232431326401E+04    0.60426E-03   -0.10016E-01  4464   0.326E-01    0.920E-02
RMM:   2    -0.232431406024E+04   -0.79623E-03   -0.85075E-03  6148   0.632E-02    0.582E-02
RMM:   3    -0.232431411014E+04   -0.49902E-04   -0.75221E-04  4038   0.196E-02    0.636E-02
RMM:   4    -0.232431406950E+04    0.40641E-04   -0.96065E-05  3015   0.668E-03    0.288E-02
RMM:   5    -0.232431405845E+04    0.11052E-04   -0.31831E-05  2912   0.534E-03    0.114E-02
RMM:   6    -0.232431405787E+04    0.57701E-06   -0.13265E-05  2907   0.447E-03
  98 F= -.23448651E+04 E0= -.23448651E+04  d E =-.221387E-03  mag=     2.0000
       N       E                     dE             d eps       ncg     rms          rms(c)
DAV:   1    -0.232431391892E+04    0.13952E-03   -0.15469E-02  4608   0.128E-01    0.366E-02
RMM:   2    -0.232431404531E+04   -0.12639E-03   -0.13514E-03  6138   0.259E-02    0.229E-02
RMM:   3    -0.232431405370E+04   -0.83937E-05   -0.11387E-04  2993   0.821E-03    0.272E-02
RMM:   4    -0.232431404601E+04    0.76957E-05   -0.15637E-05  2870   0.325E-03
  99 F= -.23448651E+04 E0= -.23448651E+04  d E =-.222914E-03  mag=     2.0000
       N       E                     dE             d eps       ncg     rms          rms(c)
DAV:   1    -0.232431328658E+04    0.76712E-03   -0.10681E-01  4448   0.327E-01    0.951E-02
RMM:   2    -0.232431421427E+04   -0.92769E-03   -0.97918E-03  6112   0.648E-02    0.678E-02
RMM:   3    -0.232431426059E+04   -0.46323E-04   -0.85612E-04  4165   0.208E-02    0.725E-02
RMM:   4    -0.232431420387E+04    0.56720E-04   -0.10993E-04  3052   0.679E-03    0.275E-02
RMM:   5    -0.232431419320E+04    0.10669E-04   -0.34729E-05  2969   0.535E-03    0.106E-02
RMM:   6    -0.232431419280E+04    0.40041E-06   -0.12558E-05  2899   0.450E-03
 100 F= -.23448653E+04 E0= -.23448653E+04  d E =-.191114E-03  mag=     2.0000
       N       E                     dE             d eps       ncg     rms          rms(c)
DAV:   1    -0.232431411392E+04    0.79280E-04   -0.72400E-03  4800   0.855E-02    0.254E-02
RMM:   2    -0.232431417884E+04   -0.64911E-04   -0.69041E-04  5929   0.180E-02    0.166E-02
RMM:   3    -0.232431418248E+04   -0.36470E-05   -0.59735E-05  2903   0.599E-03
 101 F= -.23448653E+04 E0= -.23448653E+04  d E =-.192421E-03  mag=     2.0000
       N       E                     dE             d eps       ncg     rms          rms(c)
DAV:   1    -0.232431346755E+04    0.71129E-03   -0.10243E-01  4432   0.312E-01    0.942E-02
RMM:   2    -0.232431441700E+04   -0.94946E-03   -0.10078E-02  6174   0.640E-02    0.672E-02
RMM:   3    -0.232431445452E+04   -0.37518E-04   -0.91965E-04  3969   0.193E-02    0.666E-02
RMM:   4    -0.232431440945E+04    0.45072E-04   -0.11259E-04  3054   0.674E-03    0.302E-02
RMM:   5    -0.232431439668E+04    0.12765E-04   -0.37287E-05  2949   0.540E-03    0.125E-02
RMM:   6    -0.232431439525E+04    0.14368E-05   -0.16414E-05  2924   0.461E-03
 102 F= -.23448655E+04 E0= -.23448655E+04  d E =-.205681E-03  mag=     2.0000
       N       E                     dE             d eps       ncg     rms          rms(c)
DAV:   1    -0.232431428341E+04    0.11328E-03   -0.12230E-02  4648   0.108E-01    0.331E-02
RMM:   2    -0.232431439838E+04   -0.11497E-03   -0.12268E-03  6081   0.231E-02    0.234E-02
RMM:   3    -0.232431440384E+04   -0.54565E-05   -0.10777E-04  2965   0.741E-03    0.251E-02
RMM:   4    -0.232431439725E+04    0.65897E-05   -0.13974E-05  2874   0.300E-03
 103 F= -.23448655E+04 E0= -.23448655E+04  d E =-.205186E-03  mag=     2.0000
       N       E                     dE             d eps       ncg     rms          rms(c)
DAV:   1    -0.232431373885E+04    0.66499E-03   -0.92440E-02  4432   0.299E-01    0.915E-02
RMM:   2    -0.232431462701E+04   -0.88816E-03   -0.95193E-03  6113   0.602E-02    0.587E-02
RMM:   3    -0.232431467372E+04   -0.46711E-04   -0.82789E-04  3936   0.194E-02    0.616E-02
RMM:   4    -0.232431463576E+04    0.37961E-04   -0.10240E-04  3027   0.643E-03    0.289E-02
RMM:   5    -0.232431462531E+04    0.10449E-04   -0.31616E-05  2932   0.483E-03    0.113E-02
RMM:   6    -0.232431462465E+04    0.65754E-06   -0.12346E-05  2895   0.413E-03
 104 F= -.23448657E+04 E0= -.23448657E+04  d E =-.205966E-03  mag=     2.0000
       N       E                     dE             d eps       ncg     rms          rms(c)
DAV:   1    -0.232431445979E+04    0.16552E-03   -0.18234E-02  4512   0.133E-01    0.413E-02
RMM:   2    -0.232431463778E+04   -0.17800E-03   -0.19230E-03  6152   0.275E-02    0.247E-02
RMM:   3    -0.232431464693E+04   -0.91408E-05   -0.16593E-04  3034   0.911E-03    0.268E-02
RMM:   4    -0.232431464013E+04    0.67920E-05   -0.21087E-05  2875   0.329E-03
[...]
RMM:   3    -0.232444324323E+04   -0.12455E-05   -0.27269E-05  2810   0.497E-03
 350 F= -.23449862E+04 E0= -.23449862E+04  d E =-.223319E-04  mag=     2.0000
       N       E                     dE             d eps       ncg     rms          rms(c)
DAV:   1    -0.232444325524E+04   -0.13257E-04   -0.27477E-03  4368   0.480E-02    0.187E-02
RMM:   2    -0.232444329144E+04   -0.36195E-04   -0.31730E-04  4373   0.106E-02    0.280E-02
RMM:   3    -0.232444328617E+04    0.52632E-05   -0.41599E-05  2768   0.526E-03
 351 F= -.23449863E+04 E0= -.23449863E+04  d E =-.208578E-04  mag=     2.0000
       N       E                     dE             d eps       ncg     rms          rms(c)
DAV:   1    -0.232444328623E+04    0.52082E-05   -0.24067E-03  4384   0.448E-02    0.162E-02
RMM:   2    -0.232444331186E+04   -0.25635E-04   -0.27173E-04  4034   0.101E-02    0.113E-02
RMM:   3    -0.232444331342E+04   -0.15593E-05   -0.27984E-05  2752   0.487E-03
 352 F= -.23449863E+04 E0= -.23449863E+04  d E =-.274370E-04  mag=     2.0000
       N       E                     dE             d eps       ncg     rms          rms(c)
DAV:   1    -0.232444332231E+04   -0.10447E-04   -0.37799E-03  4416   0.567E-02    0.198E-02
RMM:   2    -0.232444336189E+04   -0.39581E-04   -0.42005E-04  4886   0.125E-02    0.134E-02
RMM:   3    -0.232444336589E+04   -0.40000E-05   -0.49011E-05  2782   0.544E-03
 353 F= -.23449863E+04 E0= -.23449863E+04  d E =-.283479E-04  mag=     2.0000
       N       E                     dE             d eps       ncg     rms          rms(c)
DAV:   1    -0.232444336625E+04   -0.43604E-05   -0.14503E-03  4480   0.353E-02    0.150E-02
RMM:   2    -0.232444338285E+04   -0.16602E-04   -0.16870E-04  3589   0.793E-03    0.150E-02
RMM:   3    -0.232444338343E+04   -0.58016E-06   -0.23985E-05  2683   0.451E-03
 354 F= -.23449863E+04 E0= -.23449863E+04  d E =-.309354E-04  mag=     2.0000
       N       E                     dE             d eps       ncg     rms          rms(c)
DAV:   1    -0.232444338274E+04    0.11531E-06   -0.42765E-03  4432   0.597E-02    0.212E-02
RMM:   2    -0.232444342696E+04   -0.44226E-04   -0.47622E-04  4962   0.130E-02    0.128E-02
RMM:   3    -0.232444343004E+04   -0.30744E-05   -0.52326E-05  2846   0.552E-03
 355 F= -.23449863E+04 E0= -.23449863E+04  d E =-.203022E-04  mag=     2.0000
       N       E                     dE             d eps       ncg     rms          rms(c)
DAV:   1    -0.232444343462E+04   -0.76543E-05   -0.78458E-04  4720   0.257E-02    0.122E-02
RMM:   2    -0.232444344537E+04   -0.10757E-04   -0.93986E-05  3185   0.580E-03    0.165E-02
RMM:   3    -0.232444344344E+04    0.19305E-05   -0.12220E-05  2439   0.365E-03
 356 F= -.23449863E+04 E0= -.23449863E+04  d E =-.223645E-04  mag=     2.0000
       N       E                     dE             d eps       ncg     rms          rms(c)
DAV:   1    -0.232444343022E+04    0.15160E-04   -0.45987E-03  4416   0.609E-02    0.209E-02
RMM:   2    -0.232444348003E+04   -0.49818E-04   -0.53145E-04  5042   0.130E-02    0.139E-02
RMM:   3    -0.232444348439E+04   -0.43570E-05   -0.60835E-05  2784   0.565E-03
 357 F= -.23449863E+04 E0= -.23449863E+04  d E =-.248262E-04  mag=     2.0000
       N       E                     dE             d eps       ncg     rms          rms(c)
DAV:   1    -0.232444348096E+04   -0.93138E-06   -0.11135E-03  4352   0.301E-02    0.131E-02
RMM:   2    -0.232444349428E+04   -0.13318E-04   -0.13636E-04  3366   0.682E-03    0.121E-02
RMM:   3    -0.232444349495E+04   -0.66927E-06   -0.16585E-05  2572   0.391E-03
 358 F= -.23449863E+04 E0= -.23449863E+04  d E =-.274482E-04  mag=     2.0000
       N       E                     dE             d eps       ncg     rms          rms(c)
DAV:   1    -0.232444347176E+04    0.22521E-04   -0.53265E-03  4432   0.668E-02    0.233E-02
RMM:   2    -0.232444352849E+04   -0.56726E-04   -0.60436E-04  5357   0.141E-02    0.162E-02
RMM:   3    -0.232444353387E+04   -0.53789E-05   -0.72711E-05  2854   0.613E-03
 359 F= -.23449864E+04 E0= -.23449864E+04  d E =-.259476E-04  mag=     2.0000
       N       E                     dE             d eps       ncg     rms          rms(c)
DAV:   1    -0.232444352982E+04   -0.13286E-05   -0.73045E-04  4672   0.250E-02    0.124E-02
RMM:   2    -0.232444353880E+04   -0.89805E-05   -0.92381E-05  3142   0.564E-03
 360 F= -.23449864E+04 E0= -.23449864E+04  d E =-.260619E-04  mag=     2.0000
       N       E                     dE             d eps       ncg     rms          rms(c)
DAV:   1    -0.232444352437E+04    0.54478E-05   -0.57132E-03  4416   0.685E-02    0.240E-02
RMM:   2    -0.232444358836E+04   -0.63994E-04   -0.66814E-04  5308   0.150E-02    0.185E-02
RMM:   3    -0.232444359427E+04   -0.59097E-05   -0.76147E-05  2876   0.642E-03
 361 F= -.23449864E+04 E0= -.23449864E+04  d E =-.287222E-04  mag=     2.0000
       N       E                     dE             d eps       ncg     rms          rms(c)
DAV:   1    -0.232444358245E+04    0.59084E-05   -0.23261E-03  4440   0.439E-02    0.181E-02
RMM:   2    -0.232444360986E+04   -0.27407E-04   -0.28199E-04  3988   0.956E-03    0.166E-02
RMM:   3    -0.232444361169E+04   -0.18317E-05   -0.37242E-05  2796   0.490E-03
 362 F= -.23449864E+04 E0= -.23449864E+04  d E =-.290013E-04  mag=     2.0000
       N       E                     dE             d eps       ncg     rms          rms(c)
DAV:   1    -0.232444360773E+04    0.21322E-05   -0.34015E-03  4392   0.509E-02    0.180E-02
RMM:   2    -0.232444364713E+04   -0.39406E-04   -0.41834E-04  4412   0.111E-02    0.119E-02
RMM:   3    -0.232444365004E+04   -0.29064E-05   -0.45935E-05  2725   0.502E-03
 363 F= -.23449864E+04 E0= -.23449864E+04  d E =-.167177E-04  mag=     2.0000
       N       E                     dE             d eps       ncg     rms          rms(c)
DAV:   1    -0.232444363801E+04    0.91205E-05   -0.34974E-03  4384   0.516E-02    0.211E-02
RMM:   2    -0.232444368964E+04   -0.51626E-04   -0.44716E-04  4515   0.113E-02    0.337E-02
RMM:   3    -0.232444368135E+04    0.82902E-05   -0.55990E-05  2814   0.547E-03
 364 F= -.23449864E+04 E0= -.23449864E+04  d E =-.261153E-04  mag=     2.0000
       N       E                     dE             d eps       ncg     rms          rms(c)
DAV:   1    -0.232444370006E+04   -0.10423E-04   -0.21327E-03  4368   0.428E-02    0.166E-02
RMM:   2    -0.232444372359E+04   -0.23525E-04   -0.24929E-04  3929   0.969E-03    0.110E-02
RMM:   3    -0.232444372527E+04   -0.16804E-05   -0.30090E-05  2619   0.514E-03
 365 F= -.23449865E+04 E0= -.23449865E+04  d E =-.289342E-04  mag=     2.0000
       N       E                     dE             d eps       ncg     rms          rms(c)
DAV:   1    -0.232444372407E+04   -0.48106E-06   -0.23147E-03  4416   0.446E-02    0.179E-02
RMM:   2    -0.232444375135E+04   -0.27276E-04   -0.28011E-04  4075   0.994E-03    0.168E-02
RMM:   3    -0.232444375253E+04   -0.11883E-05   -0.32723E-05  2819   0.520E-03
 366 F= -.23449865E+04 E0= -.23449865E+04  d E =-.405409E-04  mag=     2.0000
       N       E                     dE             d eps       ncg     rms          rms(c)
DAV:   1    -0.232444376342E+04   -0.12071E-04   -0.11918E-03  4480   0.327E-02    0.129E-02
RMM:   2    -0.232444377738E+04   -0.13963E-04   -0.15042E-04  3410   0.739E-03    0.906E-03
RMM:   3    -0.232444377874E+04   -0.13584E-05   -0.19609E-05  2557   0.444E-03
 367 F= -.23449865E+04 E0= -.23449865E+04  d E =-.129332E-04  mag=     2.0000
       N       E                     dE             d eps       ncg     rms          rms(c)
DAV:   1    -0.232444378151E+04   -0.41354E-05   -0.84057E-04  4304   0.274E-02    0.113E-02
RMM:   2    -0.232444379196E+04   -0.10445E-04   -0.10623E-04  3163   0.627E-03    0.111E-02
RMM:   3    -0.232444379231E+04   -0.35088E-06   -0.13464E-05  2460   0.400E-03
 368 F= -.23449865E+04 E0= -.23449865E+04  d E =-.153507E-04  mag=     2.0000
       N       E                     dE             d eps       ncg     rms          rms(c)
DAV:   1    -0.232444380055E+04   -0.85891E-05   -0.10073E-03  4216   0.295E-02    0.105E-02
RMM:   2    -0.232444381250E+04   -0.11950E-04   -0.12741E-04  3210   0.663E-03    0.735E-03
RMM:   3    -0.232444381366E+04   -0.11614E-05   -0.16491E-05  2372   0.417E-03
 369 F= -.23449865E+04 E0= -.23449865E+04  d E =-.109420E-04  mag=     2.0000
       N       E                     dE             d eps       ncg     rms          rms(c)
DAV:   1    -0.232444381152E+04    0.97801E-06   -0.16390E-03  4352   0.375E-02    0.134E-02
RMM:   2    -0.232444383075E+04   -0.19228E-04   -0.20406E-04  3589   0.826E-03    0.102E-02
RMM:   3    -0.232444383285E+04   -0.20993E-05   -0.26027E-05  2580   0.488E-03
 370 F= -.23449865E+04 E0= -.23449865E+04  d E =-.168942E-04  mag=     2.0000
       N       E                     dE             d eps       ncg     rms          rms(c)
DAV:   1    -0.232444384332E+04   -0.12566E-04   -0.10815E-03  4320   0.310E-02    0.115E-02
RMM:   2    -0.232444385566E+04   -0.12340E-04   -0.12975E-04  3285   0.697E-03    0.924E-03
RMM:   3    -0.232444385674E+04   -0.10851E-05   -0.16196E-05  2418   0.421E-03
 371 F= -.23449865E+04 E0= -.23449865E+04  d E =-.144539E-04  mag=     2.0000
       N       E                     dE             d eps       ncg     rms          rms(c)
DAV:   1    -0.232444385989E+04   -0.42370E-05   -0.32613E-04  4688   0.171E-02    0.761E-03
RMM:   2    -0.232444386361E+04   -0.37182E-05   -0.39743E-05  2639   0.406E-03
 372 F= -.23449865E+04 E0= -.23449865E+04  d E =-.161125E-04  mag=     2.0000
       N       E                     dE             d eps       ncg     rms          rms(c)
DAV:   1    -0.232444386809E+04   -0.81950E-05   -0.12006E-03  4320   0.331E-02    0.126E-02
RMM:   2    -0.232444388149E+04   -0.13405E-04   -0.13476E-04  3352   0.776E-03    0.123E-02
RMM:   3    -0.232444388191E+04   -0.42000E-06   -0.16905E-05  2333   0.480E-03
 373 F= -.23449865E+04 E0= -.23449865E+04  d E =-.118933E-04  mag=     2.0000
       N       E                     dE             d eps       ncg     rms          rms(c)
DAV:   1    -0.232444388231E+04   -0.81968E-06   -0.68231E-05  4912   0.821E-03    0.536E-03
RMM:   2    -0.232444388308E+04   -0.76616E-06   -0.91657E-06  2323   0.217E-03
 374 F= -.23449865E+04 E0= -.23449865E+04  d E =-.115115E-04  mag=     2.0000
       N       E                     dE             d eps       ncg     rms          rms(c)
DAV:   1    -0.232444388540E+04   -0.30896E-05   -0.11238E-03  4304   0.319E-02    0.123E-02
RMM:   2    -0.232444389869E+04   -0.13290E-04   -0.12820E-04  3247   0.752E-03    0.143E-02
RMM:   3    -0.232444389819E+04    0.50094E-06   -0.17402E-05  2287   0.454E-03
 375 F= -.23449865E+04 E0= -.23449865E+04  d E =-.857907E-05  mag=     2.0000
       N       E                     dE             d eps       ncg     rms          rms(c)
DAV:   1    -0.232444389752E+04    0.11719E-05   -0.23199E-06  2760   0.231E-03    0.379E-03
RMM:   2    -0.232444389741E+04    0.11295E-06   -0.89555E-07  2110   0.122E-03
 376 F= -.23449865E+04 E0= -.23449865E+04  d E =-.779946E-05  mag=     2.0000
       N       E                     dE             d eps       ncg     rms          rms(c)
DAV:   1    -0.232444390838E+04   -0.10862E-04   -0.93013E-04  4264   0.289E-02    0.102E-02
RMM:   2    -0.232444391860E+04   -0.10224E-04   -0.10717E-04  3113   0.636E-03    0.906E-03
RMM:   3    -0.232444391929E+04   -0.68953E-06   -0.12556E-05  2282   0.387E-03
 377 F= -.23449865E+04 E0= -.23449865E+04  d E =-.850508E-05  mag=     2.0000
       N       E                     dE             d eps       ncg     rms          rms(c)
DAV:   1    -0.232444391981E+04   -0.12034E-05   -0.92686E-06  3152   0.337E-03    0.352E-03
RMM:   2    -0.232444391987E+04   -0.63359E-07   -0.17061E-06  2179   0.165E-03
 378 F= -.23449865E+04 E0= -.23449865E+04  d E =-.782334E-05  mag=     2.0000
       N       E                     dE             d eps       ncg     rms          rms(c)
DAV:   1    -0.232444392694E+04   -0.71287E-05   -0.95873E-04  4256   0.293E-02    0.105E-02
RMM:   2    -0.232444393878E+04   -0.11846E-04   -0.12148E-04  3171   0.639E-03    0.102E-02
RMM:   3    -0.232444393926E+04   -0.48059E-06   -0.15209E-05  2265   0.393E-03
 379 F= -.23449865E+04 E0= -.23449865E+04  d E =-.895341E-05  mag=     2.0000
       N       E                     dE             d eps       ncg     rms          rms(c)
DAV:   1    -0.232444394106E+04   -0.22753E-05   -0.70680E-05  4616   0.810E-03    0.465E-03
RMM:   2    -0.232444394192E+04   -0.85821E-06   -0.10420E-05  2296   0.216E-03
 380 F= -.23449865E+04 E0= -.23449865E+04  d E =-.874633E-05  mag=     2.0000
       N       E                     dE             d eps       ncg     rms          rms(c)
DAV:   1    -0.232444394493E+04   -0.38681E-05   -0.95295E-04  4216   0.291E-02    0.102E-02
RMM:   2    -0.232444395611E+04   -0.11184E-04   -0.11831E-04  3115   0.648E-03    0.812E-03
RMM:   3    -0.232444395726E+04   -0.11467E-05   -0.15292E-05  2265   0.429E-03
 381 F= -.23449866E+04 E0= -.23449866E+04  d E =-.825744E-05  mag=     2.0000
       N       E                     dE             d eps       ncg     rms          rms(c)
DAV:   1    -0.232444395668E+04   -0.57326E-06   -0.19017E-06  2672   0.215E-03    0.365E-03
RMM:   2    -0.232444395665E+04    0.29657E-07   -0.71291E-07  2041   0.109E-03
 382 F= -.23449866E+04 E0= -.23449866E+04  d E =-.758214E-05  mag=     2.0000
       N       E                     dE             d eps       ncg     rms          rms(c)
DAV:   1    -0.232444396509E+04   -0.84069E-05   -0.64486E-04  4160   0.239E-02    0.855E-03
RMM:   2    -0.232444397309E+04   -0.80036E-05   -0.81234E-05  2865   0.516E-03
 383 F= -.23449866E+04 E0= -.23449866E+04  d E =-.538797E-05  mag=     2.0000
       N       E                     dE             d eps       ncg     rms          rms(c)
DAV:   1    -0.232444397236E+04   -0.72646E-05   -0.14412E-05  2416   0.449E-03    0.655E-03
RMM:   2    -0.232444397465E+04   -0.22904E-05   -0.64784E-06  2119   0.213E-03
 384 F= -.23449866E+04 E0= -.23449866E+04  d E =-.779689E-05  mag=     2.0000
       N       E                     dE             d eps       ncg     rms          rms(c)
DAV:   1    -0.232444397257E+04   -0.21193E-06   -0.32932E-06  2328   0.318E-03    0.198E-03
RMM:   2    -0.232444397263E+04   -0.61642E-07   -0.67616E-07  1332   0.833E-04
 385 F= -.23449866E+04 E0= -.23449866E+04  d E =-.516560E-05  mag=     2.0000
       N       E                     dE             d eps       ncg     rms          rms(c)
DAV:   1    -0.232444398187E+04   -0.92989E-05   -0.47457E-04  4112   0.205E-02    0.709E-03
RMM:   2    -0.232444398745E+04   -0.55805E-05   -0.59128E-05  2664   0.447E-03
 386 F= -.23449866E+04 E0= -.23449866E+04  d E =-.760215E-05  mag=     2.0000
       N       E                     dE             d eps       ncg     rms          rms(c)
DAV:   1    -0.232444399102E+04   -0.91506E-05   -0.19413E-04  4480   0.134E-02    0.759E-03
RMM:   2    -0.232444399617E+04   -0.51495E-05   -0.34421E-05  2483   0.359E-03
 387 F= -.23449866E+04 E0= -.23449866E+04  d E =-.117592E-04  mag=     2.0000
       N       E                     dE             d eps       ncg     rms          rms(c)
DAV:   1    -0.232444399553E+04   -0.45177E-05   -0.37569E-04  4216   0.188E-02    0.694E-03
RMM:   2    -0.232444400026E+04   -0.47226E-05   -0.49468E-05  2544   0.478E-03
 388 F= -.23449866E+04 E0= -.23449866E+04  d E =-.221612E-05  mag=     2.0000
       N       E                     dE             d eps       ncg     rms          rms(c)
DAV:   1    -0.232444400048E+04   -0.49481E-05   -0.63442E-06  2380   0.372E-03    0.554E-03
RMM:   2    -0.232444400200E+04   -0.15206E-05   -0.38567E-06  2185   0.157E-03
 389 F= -.23449866E+04 E0= -.23449866E+04  d E =-.403675E-05  mag=     2.0000
       N       E                     dE             d eps       ncg     rms          rms(c)
DAV:   1    -0.232444400582E+04   -0.53396E-05   -0.24454E-04  4144   0.151E-02    0.520E-03
RMM:   2    -0.232444400846E+04   -0.26381E-05   -0.28430E-05  2375   0.350E-03
 390 F= -.23449866E+04 E0= -.23449866E+04  d E =-.223709E-05  mag=     2.0000
       N       E                     dE             d eps       ncg     rms          rms(c)
DAV:   1    -0.232444400978E+04   -0.39599E-05   -0.20673E-05  2604   0.496E-03    0.300E-03
RMM:   2    -0.232444401032E+04   -0.53598E-06   -0.41052E-06  2250   0.257E-03
 391 F= -.23449866E+04 E0= -.23449866E+04  d E =-.293296E-05  mag=     2.0000
       N       E                     dE             d eps       ncg     rms          rms(c)
DAV:   1    -0.232444402011E+04   -0.10325E-04   -0.13389E-04  4160   0.107E-02    0.401E-03
RMM:   2    -0.232444402177E+04   -0.16610E-05   -0.17682E-05  2330   0.271E-03
 392 F= -.23449866E+04 E0= -.23449866E+04  d E =-.446103E-05  mag=     2.0000
       N       E                     dE             d eps       ncg     rms          rms(c)
DAV:   1    -0.232444402730E+04   -0.71957E-05   -0.74041E-05  3840   0.805E-03    0.429E-03
RMM:   2    -0.232444402881E+04   -0.15051E-05   -0.11630E-05  2296   0.247E-03
 393 F= -.23449866E+04 E0= -.23449866E+04  d E =-.628493E-05  mag=     2.0000
       N       E                     dE             d eps       ncg     rms          rms(c)
DAV:   1    -0.232444403404E+04   -0.67404E-05   -0.13435E-04  4120   0.107E-02    0.432E-03
RMM:   2    -0.232444403585E+04   -0.18047E-05   -0.18553E-05  2342   0.285E-03
 394 F= -.23449866E+04 E0= -.23449866E+04  d E =-.263425E-05  mag=     2.0000
       N       E                     dE             d eps       ncg     rms          rms(c)
DAV:   1    -0.232444403657E+04   -0.25319E-05   -0.55032E-06  2348   0.289E-03    0.344E-03
RMM:   2    -0.232444403718E+04   -0.60265E-06   -0.20690E-06  2173   0.163E-03
 395 F= -.23449866E+04 E0= -.23449866E+04  d E =-.328187E-05  mag=     2.0000
       N       E                     dE             d eps       ncg     rms          rms(c)
DAV:   1    -0.232444403967E+04   -0.30909E-05   -0.10566E-04  3976   0.928E-03    0.341E-03
RMM:   2    -0.232444404110E+04   -0.14390E-05   -0.15157E-05  2308   0.231E-03
 396 F= -.23449866E+04 E0= -.23449866E+04  d E =-.246774E-05  mag=     2.0000
       N       E                     dE             d eps       ncg     rms          rms(c)
DAV:   1    -0.232444404126E+04   -0.15963E-05   -0.31389E-04  4104   0.155E-02    0.571E-03
RMM:   2    -0.232444404548E+04   -0.42148E-05   -0.42871E-05  2467   0.400E-03
 397 F= -.23449866E+04 E0= -.23449866E+04  d E =-.429135E-05  mag=     2.0000
       N       E                     dE             d eps       ncg     rms          rms(c)
DAV:   1    -0.232444404928E+04   -0.80146E-05   -0.14481E-04  4168   0.111E-02    0.567E-03
RMM:   2    -0.232444405251E+04   -0.32302E-05   -0.23582E-05  2376   0.299E-03
 398 F= -.23449866E+04 E0= -.23449866E+04  d E =-.517674E-05  mag=     2.0000
       N       E                     dE             d eps       ncg     rms          rms(c)
DAV:   1    -0.232444405308E+04   -0.38001E-05   -0.11747E-04  4016   0.101E-02    0.443E-03
RMM:   2    -0.232444405480E+04   -0.17242E-05   -0.17203E-05  2315   0.279E-03
 399 F= -.23449866E+04 E0= -.23449866E+04  d E =-.578782E-05  mag=     2.0000
       N       E                     dE             d eps       ncg     rms          rms(c)
DAV:   1    -0.232444405340E+04   -0.32355E-06   -0.45778E-04  4120   0.190E-02    0.731E-03
RMM:   2    -0.232444405944E+04   -0.60361E-05   -0.58984E-05  2686   0.483E-03
 400 F= -.23449866E+04 E0= -.23449866E+04  d E =-.704158E-05  mag=     2.0000
       N       E                     dE             d eps       ncg     rms          rms(c)
DAV:   1    -0.232444405711E+04   -0.37052E-05   -0.95231E-05  3856   0.907E-03    0.577E-03
RMM:   2    -0.232444405898E+04   -0.18706E-05   -0.13032E-05  2276   0.236E-03
 401 F= -.23449866E+04 E0= -.23449866E+04  d E =-.808014E-05  mag=     2.0000
