       N       E                     dE             d eps       ncg     rms          rms(c)
DAV:   1     0.129211636424E+05    0.12921E+05   -0.83678E+05  4496   0.144E+03
DAV:   2    -0.104970914188E+04   -0.13971E+05   -0.13356E+05  5096   0.330E+02
DAV:   3    -0.247527922849E+04   -0.14256E+04   -0.14103E+04  5432   0.112E+02
DAV:   4    -0.251972676081E+04   -0.44448E+02   -0.44203E+02  6728   0.294E+01
DAV:   5    -0.252055485053E+04   -0.82809E+00   -0.82630E+00  6000   0.341E+00    0.170E+02
RMM:   6    -0.149475006492E+04    0.10258E+04   -0.19377E+03  4437   0.384E+01    0.723E+01
RMM:   7    -0.166589200923E+04   -0.17114E+03   -0.28897E+02  4987   0.140E+01    0.503E+01
RMM:   8    -0.171840580957E+04   -0.52514E+02   -0.74750E+01  5213   0.823E+00    0.414E+01
RMM:   9    -0.179275710759E+04   -0.74351E+02   -0.57645E+01  5041   0.688E+00    0.325E+01
RMM:  10    -0.193380642761E+04   -0.14105E+03   -0.59011E+01  5209   0.719E+00    0.238E+01
RMM:  11    -0.201170516120E+04   -0.77899E+02   -0.30945E+01  5130   0.465E+00    0.196E+01
RMM:  12    -0.208015146857E+04   -0.68446E+02   -0.26866E+01  4795   0.414E+00    0.155E+01
RMM:  13    -0.220113776603E+04   -0.12099E+03   -0.83580E+01  4411   0.678E+00    0.918E+00
RMM:  14    -0.228597395400E+04   -0.84836E+02   -0.78786E+01  4566   0.630E+00    0.742E+00
RMM:  15    -0.230311735871E+04   -0.17143E+02   -0.20737E+01  4643   0.400E+00    0.437E+00
RMM:  16    -0.230981629362E+04   -0.66989E+01   -0.91843E+00  4748   0.174E+00    0.314E+00
RMM:  17    -0.231261703290E+04   -0.28007E+01   -0.25518E+00  4627   0.137E+00    0.210E+00
RMM:  18    -0.231416899599E+04   -0.15520E+01   -0.10535E+00  4834   0.613E-01    0.885E-01
RMM:  19    -0.231458544434E+04   -0.41645E+00   -0.23366E-01  4798   0.404E-01    0.448E-01
RMM:  20    -0.231467471102E+04   -0.89267E-01   -0.68376E-02  4622   0.191E-01    0.251E-01
RMM:  21    -0.231470137282E+04   -0.26662E-01   -0.16125E-02  4691   0.128E-01    0.176E-01
RMM:  22    -0.231472019717E+04   -0.18824E-01   -0.81603E-03  4458   0.695E-02    0.112E-01
RMM:  23    -0.231473254613E+04   -0.12349E-01   -0.40658E-03  4467   0.548E-02    0.663E-02
RMM:  24    -0.231473904639E+04   -0.65003E-02   -0.23842E-03  4533   0.421E-02    0.478E-02
RMM:  25    -0.231474304126E+04   -0.39949E-02   -0.15232E-03  4548   0.330E-02    0.324E-02
RMM:  26    -0.231474457741E+04   -0.15362E-02   -0.63836E-04  4247   0.214E-02    0.184E-02
RMM:  27    -0.231474499297E+04   -0.41556E-03   -0.15552E-04  3883   0.121E-02    0.105E-02
RMM:  28    -0.231474530216E+04   -0.30919E-03   -0.83019E-05  3632   0.851E-03    0.552E-03
RMM:  29    -0.231474542217E+04   -0.12001E-03   -0.38839E-05  3351   0.696E-03    0.400E-03
RMM:  30    -0.231474547575E+04   -0.53582E-04   -0.16941E-05  3013   0.453E-03    0.179E-03
RMM:  31    -0.231474550003E+04   -0.24277E-04   -0.90408E-06  2860   0.349E-03    0.130E-03
RMM:  32    -0.231474550713E+04   -0.71033E-05   -0.47160E-06  2498   0.256E-03
   1 F= -.23355905E+04 E0= -.23355905E+04  d E =-.233559E+04  mag=     8.0000
       N       E                     dE             d eps       ncg     rms          rms(c)
DAV:   1    -0.231461719442E+04    0.12831E+00   -0.42701E+01  5040   0.348E+00    0.167E+00
RMM:   2    -0.231477726138E+04   -0.16007E+00   -0.19446E+00  5353   0.718E-01    0.109E+00
RMM:   3    -0.231476561388E+04    0.11648E-01   -0.13269E-01  5148   0.304E-01    0.879E-01
RMM:   4    -0.231476199615E+04    0.36177E-02   -0.32362E-02  5494   0.829E-02    0.778E-01
RMM:   5    -0.231475545151E+04    0.65446E-02   -0.13195E-02  5005   0.610E-02    0.223E-01
RMM:   6    -0.231475583381E+04   -0.38229E-03   -0.27153E-03  4824   0.311E-02    0.205E-01
RMM:   7    -0.231475560404E+04    0.22977E-03   -0.81597E-04  3868   0.138E-02    0.804E-02
RMM:   8    -0.231475574682E+04   -0.14278E-03   -0.26448E-04  3614   0.902E-03    0.341E-02
RMM:   9    -0.231475583790E+04   -0.91080E-04   -0.58850E-05  3077   0.627E-03    0.155E-02
RMM:  10    -0.231475589489E+04   -0.56998E-04   -0.26410E-05  2952   0.431E-03    0.726E-03
RMM:  11    -0.231475592450E+04   -0.29606E-04   -0.10942E-05  2876   0.353E-03    0.490E-03
RMM:  12    -0.231475593882E+04   -0.14324E-04   -0.65118E-06  2807   0.273E-03    0.282E-03
RMM:  13    -0.231475594552E+04   -0.66927E-05   -0.45820E-06  2719   0.247E-03
   2 F= -.23356031E+04 E0= -.23356031E+04  d E =-.126196E-01  mag=     8.0000
       N       E                     dE             d eps       ncg     rms          rms(c)
DAV:   1    -0.231482743455E+04   -0.71496E-01   -0.11446E+01  4728   0.193E+00    0.865E-01
RMM:   2    -0.231486290365E+04   -0.35469E-01   -0.43218E-01  5540   0.340E-01    0.534E-01
RMM:   3    -0.231485972023E+04    0.31834E-02   -0.30409E-02  5011   0.154E-01    0.408E-01
RMM:   4    -0.231485914364E+04    0.57658E-03   -0.77920E-03  5156   0.438E-02    0.396E-01
RMM:   5    -0.231485743890E+04    0.17047E-02   -0.32733E-03  4754   0.324E-02    0.108E-01
RMM:   6    -0.231485750545E+04   -0.66549E-04   -0.57319E-04  3837   0.155E-02    0.111E-01
RMM:   7    -0.231485741673E+04    0.88727E-04   -0.17294E-04  3127   0.790E-03    0.363E-02
RMM:   8    -0.231485741738E+04   -0.65801E-06   -0.52176E-05  3016   0.485E-03
   3 F= -.23357034E+04 E0= -.23357034E+04  d E =-.112914E+00  mag=     8.0000
       N       E                     dE             d eps       ncg     rms          rms(c)
DAV:   1    -0.231486938582E+04   -0.11969E-01   -0.17049E+00  4672   0.112E+00    0.418E-01
RMM:   2    -0.231488969561E+04   -0.20310E-01   -0.21869E-01  5772   0.227E-01    0.234E-01
RMM:   3    -0.231489127071E+04   -0.15751E-02   -0.23179E-02  5135   0.109E-01    0.158E-01
RMM:   4    -0.231489125567E+04    0.15042E-04   -0.23248E-03  4633   0.216E-02    0.128E-01
RMM:   5    -0.231489109701E+04    0.15867E-03   -0.53394E-04  4416   0.143E-02    0.913E-02
RMM:   6    -0.231489103296E+04    0.64043E-04   -0.22094E-04  3701   0.103E-02    0.439E-02
RMM:   7    -0.231489102523E+04    0.77356E-05   -0.67595E-05  3078   0.705E-03
   4 F= -.23357369E+04 E0= -.23357369E+04  d E =-.335384E-01  mag=     8.0000
       N       E                     dE             d eps       ncg     rms          rms(c)
DAV:   1    -0.231486751169E+04    0.23521E-01   -0.29417E+00  4600   0.149E+00    0.549E-01
RMM:   2    -0.231490255746E+04   -0.35046E-01   -0.37747E-01  5762   0.302E-01    0.309E-01
RMM:   3    -0.231490540915E+04   -0.28517E-02   -0.42942E-02  5217   0.145E-01    0.209E-01
RMM:   4    -0.231490538023E+04    0.28916E-04   -0.41130E-03  5059   0.286E-02    0.171E-01
RMM:   5    -0.231490509506E+04    0.28517E-03   -0.95384E-04  4840   0.186E-02    0.119E-01
RMM:   6    -0.231490498172E+04    0.11334E-03   -0.37371E-04  4226   0.126E-02    0.585E-02
RMM:   7    -0.231490496264E+04    0.19077E-04   -0.11561E-04  3312   0.863E-03    0.495E-02
RMM:   8    -0.231490493794E+04    0.24700E-04   -0.30010E-05  2910   0.479E-03    0.110E-02
RMM:   9    -0.231490493349E+04    0.44519E-05   -0.13195E-05  2891   0.356E-03
   5 F= -.23357509E+04 E0= -.23357509E+04  d E =-.474931E-01  mag=     8.0000
       N       E                     dE             d eps       ncg     rms          rms(c)
DAV:   1    -0.231490607544E+04   -0.11375E-02   -0.23546E+00  4560   0.144E+00    0.529E-01
RMM:   2    -0.231492762372E+04   -0.21548E-01   -0.22724E-01  5739   0.277E-01    0.234E-01
RMM:   3    -0.231492908682E+04   -0.14631E-02   -0.25192E-02  5021   0.132E-01    0.139E-01
RMM:   4    -0.231492901457E+04    0.72254E-04   -0.27236E-03  5087   0.282E-02    0.115E-01
RMM:   5    -0.231492891550E+04    0.99070E-04   -0.56889E-04  4592   0.185E-02    0.852E-02
RMM:   6    -0.231492884431E+04    0.71186E-04   -0.20056E-04  4228   0.977E-03    0.373E-02
RMM:   7    -0.231492883349E+04    0.10825E-04   -0.40882E-05  3074   0.721E-03    0.169E-02
RMM:   8    -0.231492883076E+04    0.27233E-05   -0.15582E-05  2874   0.352E-03
   6 F= -.23357741E+04 E0= -.23357741E+04  d E =-.232749E-01  mag=     8.0000
       N       E                     dE             d eps       ncg     rms          rms(c)
DAV:   1    -0.231491188758E+04    0.16946E-01   -0.27933E+00  4528   0.156E+00    0.578E-01
RMM:   2    -0.231493729217E+04   -0.25405E-01   -0.26848E-01  5814   0.300E-01    0.258E-01
RMM:   3    -0.231493897298E+04   -0.16808E-02   -0.29545E-02  5126   0.139E-01    0.164E-01
RMM:   4    -0.231493889821E+04    0.74776E-04   -0.31986E-03  5264   0.301E-02    0.145E-01
RMM:   5    -0.231493869161E+04    0.20660E-03   -0.75699E-04  4759   0.200E-02    0.822E-02
RMM:   6    -0.231493861198E+04    0.79633E-04   -0.23994E-04  4448   0.110E-02    0.409E-02
RMM:   7    -0.231493859491E+04    0.17065E-04   -0.52281E-05  3236   0.789E-03    0.194E-02
RMM:   8    -0.231493859030E+04    0.46077E-05   -0.19961E-05  2884   0.393E-03
   7 F= -.23357834E+04 E0= -.23357834E+04  d E =-.325778E-01  mag=     8.0000
       N       E                     dE             d eps       ncg     rms          rms(c)
DAV:   1    -0.231494901609E+04   -0.10421E-01   -0.16710E+00  4544   0.111E+00    0.386E-01
RMM:   2    -0.231496182374E+04   -0.12808E-01   -0.13502E-01  5805   0.203E-01    0.207E-01
RMM:   3    -0.231496275645E+04   -0.93271E-03   -0.15235E-02  4899   0.101E-01    0.126E-01
RMM:   4    -0.231496275390E+04    0.25511E-05   -0.16798E-03  4932   0.202E-02    0.121E-01
RMM:   5    -0.231496264456E+04    0.10935E-03   -0.35732E-04  3929   0.129E-02    0.503E-02
RMM:   6    -0.231496263909E+04    0.54667E-05   -0.12226E-04  3495   0.810E-03    0.408E-02
RMM:   7    -0.231496263168E+04    0.74067E-05   -0.42652E-05  2899   0.638E-03
   8 F= -.23358069E+04 E0= -.23358069E+04  d E =-.234767E-01  mag=     8.0000
       N       E                     dE             d eps       ncg     rms          rms(c)
DAV:   1    -0.231488134076E+04    0.81298E-01   -0.14964E+01  4484   0.330E+00    0.116E+00
RMM:   2    -0.231499621944E+04   -0.11488E+00   -0.12200E+00  5777   0.615E-01    0.598E-01
RMM:   3    -0.231500381447E+04   -0.75950E-02   -0.13411E-01  4908   0.305E-01    0.354E-01
RMM:   4    -0.231500375535E+04    0.59116E-04   -0.15417E-02  5438   0.625E-02    0.325E-01
RMM:   5    -0.231500310931E+04    0.64604E-03   -0.30900E-03  5041   0.362E-02    0.190E-01
RMM:   6    -0.231500285727E+04    0.25204E-03   -0.10281E-03  4639   0.197E-02    0.862E-02
RMM:   7    -0.231500282094E+04    0.36333E-04   -0.26989E-04  4105   0.145E-02    0.610E-02
RMM:   8    -0.231500279997E+04    0.20964E-04   -0.10337E-04  3290   0.619E-03    0.362E-02
RMM:   9    -0.231500278654E+04    0.13433E-04   -0.34906E-05  2928   0.521E-03    0.125E-02
RMM:  10    -0.231500278618E+04    0.35742E-06   -0.17429E-05  2927   0.412E-03
   9 F= -.23358461E+04 E0= -.23358461E+04  d E =-.626396E-01  mag=     7.9999
       N       E                     dE             d eps       ncg     rms          rms(c)
DAV:   1    -0.231499161623E+04    0.11170E-01   -0.17631E+00  4624   0.114E+00    0.397E-01
RMM:   2    -0.231500504796E+04   -0.13432E-01   -0.14300E-01  5807   0.214E-01    0.206E-01
RMM:   3    -0.231500596371E+04   -0.91575E-03   -0.15845E-02  4923   0.104E-01    0.115E-01
RMM:   4    -0.231500595398E+04    0.97324E-05   -0.18102E-03  4945   0.218E-02    0.104E-01
RMM:   5    -0.231500588662E+04    0.67355E-04   -0.32983E-04  3831   0.132E-02    0.614E-02
RMM:   6    -0.231500586097E+04    0.25655E-04   -0.99946E-05  3603   0.752E-03    0.264E-02
RMM:   7    -0.231500585645E+04    0.45177E-05   -0.24542E-05  2962   0.581E-03
  10 F= -.23358490E+04 E0= -.23358490E+04  d E =-.655438E-01  mag=     7.9999
       N       E                     dE             d eps       ncg     rms          rms(c)
DAV:   1    -0.231499948384E+04    0.63771E-02   -0.43211E+00  4496   0.182E+00    0.630E-01
RMM:   2    -0.231503002816E+04   -0.30544E-01   -0.32870E-01  5827   0.334E-01    0.391E-01
RMM:   3    -0.231503144620E+04   -0.14180E-02   -0.32072E-02  5270   0.139E-01    0.285E-01
RMM:   4    -0.231503093594E+04    0.51026E-03   -0.38811E-03  5530   0.318E-02    0.173E-01
RMM:   5    -0.231503063536E+04    0.30058E-03   -0.10781E-03  4883   0.216E-02    0.745E-02
RMM:   6    -0.231503063045E+04    0.49091E-05   -0.33872E-04  4613   0.136E-02    0.633E-02
RMM:   7    -0.231503060846E+04    0.21989E-04   -0.11475E-04  3213   0.809E-03    0.441E-02
RMM:   8    -0.231503059340E+04    0.15058E-04   -0.28168E-05  2960   0.448E-03    0.137E-02
RMM:   9    -0.231503059184E+04    0.15660E-05   -0.14584E-05  2880   0.335E-03
  11 F= -.23358735E+04 E0= -.23358735E+04  d E =-.245141E-01  mag=     7.9996
       N       E                     dE             d eps       ncg     rms          rms(c)
DAV:   1    -0.231500746866E+04    0.23125E-01   -0.43850E+00  4512   0.183E+00    0.634E-01
RMM:   2    -0.231503835650E+04   -0.30888E-01   -0.33316E-01  5820   0.336E-01    0.391E-01
RMM:   3    -0.231503974289E+04   -0.13864E-02   -0.32560E-02  5246   0.141E-01    0.283E-01
RMM:   4    -0.231503923784E+04    0.50504E-03   -0.39526E-03  5564   0.320E-02    0.178E-01
RMM:   5    -0.231503892408E+04    0.31377E-03   -0.11206E-03  4930   0.219E-02    0.861E-02
RMM:   6    -0.231503894349E+04   -0.19416E-04   -0.44270E-04  4638   0.143E-02    0.994E-02
RMM:   7    -0.231503886390E+04    0.79595E-04   -0.15836E-04  3416   0.864E-03    0.379E-02
RMM:   8    -0.231503885196E+04    0.11936E-04   -0.37303E-05  2980   0.498E-03    0.150E-02
RMM:   9    -0.231503884834E+04    0.36271E-05   -0.15175E-05  2875   0.379E-03
  12 F= -.23358816E+04 E0= -.23358815E+04  d E =-.326072E-01  mag=     7.9987
       N       E                     dE             d eps       ncg     rms          rms(c)
DAV:   1    -0.231502274940E+04    0.16103E-01   -0.30275E+00  4528   0.156E+00    0.596E-01
RMM:   2    -0.231505604599E+04   -0.33297E-01   -0.35452E-01  5802   0.302E-01    0.459E-01
RMM:   3    -0.231505762770E+04   -0.15817E-02   -0.38070E-02  5340   0.132E-01    0.290E-01
RMM:   4    -0.231505709913E+04    0.52857E-03   -0.41443E-03  5417   0.285E-02    0.165E-01
RMM:   5    -0.231505687175E+04    0.22738E-03   -0.93269E-04  4695   0.185E-02    0.135E-01
RMM:   6    -0.231505675979E+04    0.11196E-03   -0.60493E-04  4449   0.138E-02    0.816E-02
RMM:   7    -0.231505672230E+04    0.37490E-04   -0.14419E-04  3774   0.987E-03    0.330E-02
RMM:   8    -0.231505671752E+04    0.47779E-05   -0.36590E-05  2987   0.537E-03
  13 F= -.23358998E+04 E0= -.23358993E+04  d E =-.181719E-01  mag=     7.9939
       N       E                     dE             d eps       ncg     rms          rms(c)
DAV:   1    -0.231501225253E+04    0.44470E-01   -0.46752E+00  4496   0.194E+00    0.756E-01
RMM:   2    -0.231506384524E+04   -0.51593E-01   -0.54671E-01  5828   0.377E-01    0.617E-01
RMM:   3    -0.231506610672E+04   -0.22615E-02   -0.60898E-02  5395   0.165E-01    0.383E-01
RMM:   4    -0.231506515926E+04    0.94746E-03   -0.67090E-03  5517   0.365E-02    0.233E-01
RMM:   5    -0.231506478892E+04    0.37034E-03   -0.14986E-03  4880   0.225E-02    0.206E-01
RMM:   6    -0.231506445841E+04    0.33051E-03   -0.12001E-03  4854   0.184E-02    0.894E-02
RMM:   7    -0.231506447473E+04   -0.16326E-04   -0.24820E-04  4336   0.126E-02    0.553E-02
RMM:   8    -0.231506452961E+04   -0.54878E-04   -0.79457E-05  3185   0.642E-03    0.393E-02
RMM:   9    -0.231506457567E+04   -0.46056E-04   -0.38102E-05  2936   0.510E-03    0.274E-02
RMM:  10    -0.231506461654E+04   -0.40876E-04   -0.23583E-05  2962   0.385E-03    0.254E-02
RMM:  11    -0.231506465218E+04   -0.35635E-04   -0.16250E-05  2915   0.357E-03    0.273E-02
RMM:  12    -0.231506461607E+04    0.36111E-04   -0.10928E-05  2815   0.272E-03    0.236E-02
RMM:  13    -0.231506457582E+04    0.40251E-04   -0.71579E-05  2942   0.371E-03    0.254E-02
RMM:  14    -0.231506452273E+04    0.53090E-04   -0.70152E-05  2953   0.389E-03    0.359E-02
RMM:  15    -0.231506467458E+04   -0.15186E-03   -0.23860E-04  3273   0.675E-03    0.292E-02
RMM:  16    -0.231506481830E+04   -0.14372E-03   -0.32936E-04  3522   0.846E-03    0.539E-02
RMM:  17    -0.231506492410E+04   -0.10579E-03   -0.14488E-04  3153   0.647E-03    0.809E-02
RMM:  18    -0.231506479825E+04    0.12585E-03   -0.21920E-04  3179   0.681E-03    0.158E-02
RMM:  19    -0.231506473739E+04    0.60858E-04   -0.10921E-04  3034   0.527E-03    0.177E-02
RMM:  20    -0.231506469691E+04    0.40483E-04   -0.23480E-04  3355   0.687E-03    0.255E-02
RMM:  21    -0.231506463736E+04    0.59544E-04   -0.13400E-04  3127   0.601E-03    0.469E-02
RMM:  22    -0.231506457301E+04    0.64348E-04   -0.73517E-05  3022   0.478E-03    0.658E-02
RMM:  23    -0.231506453010E+04    0.42917E-04   -0.23801E-05  2784   0.353E-03    0.768E-02
RMM:  24    -0.231506459402E+04   -0.63930E-04   -0.16238E-05  2525   0.256E-03    0.622E-02
RMM:  25    -0.231506464340E+04   -0.49375E-04   -0.27523E-05  2570   0.249E-03    0.483E-02
RMM:  26    -0.231506469449E+04   -0.51091E-04   -0.49899E-05  2893   0.317E-03    0.348E-02
RMM:  27    -0.231506473927E+04   -0.44783E-04   -0.80328E-05  3046   0.400E-03    0.251E-02
RMM:  28    -0.231506476001E+04   -0.20734E-04   -0.43042E-05  2798   0.347E-03    0.224E-02
RMM:  29    -0.231506477998E+04   -0.19969E-04   -0.36043E-05  2853   0.323E-03    0.242E-02
RMM:  30    -0.231506479794E+04   -0.17968E-04   -0.24125E-05  2751   0.296E-03    0.277E-02
RMM:  31    -0.231506480831E+04   -0.10367E-04   -0.99243E-06  2561   0.231E-03    0.296E-02
RMM:  32    -0.231506480447E+04    0.38420E-05   -0.11169E-06  2156   0.144E-03
  14 F= -.23359082E+04 E0= -.23359029E+04  d E =-.266138E-01  mag=     7.8460
       N       E                     dE             d eps       ncg     rms          rms(c)
DAV:   1    -0.231502807284E+04    0.36735E-01   -0.40808E+00  4484   0.184E+00    0.122E+00
RMM:   2    -0.231511706693E+04   -0.88994E-01   -0.66400E-01  5797   0.398E-01    0.238E+00
RMM:   3    -0.231511993620E+04   -0.28693E-02   -0.71290E-02  5427   0.168E-01    0.208E+00
RMM:   4    -0.231510354370E+04    0.16392E-01   -0.50651E-02  5452   0.911E-02    0.156E+00
RMM:   5    -0.231509610153E+04    0.74422E-02   -0.74258E-03  5823   0.421E-02    0.138E+00
RMM:   6    -0.231509347758E+04    0.26239E-02   -0.46626E-03  5398   0.355E-02    0.118E+00
RMM:   7    -0.231509096480E+04    0.25128E-02   -0.20862E-03  4802   0.241E-02    0.930E-01
RMM:   8    -0.231509028456E+04    0.68024E-03   -0.65443E-04  4252   0.127E-02    0.964E-01
RMM:   9    -0.231508917931E+04    0.11052E-02   -0.29521E-04  4107   0.112E-02    0.879E-01
RMM:  10    -0.231508820253E+04    0.97678E-03   -0.15178E-04  3565   0.950E-03    0.827E-01
RMM:  11    -0.231508762053E+04    0.58200E-03   -0.71203E-05  3001   0.651E-03    0.794E-01
RMM:  12    -0.231508697712E+04    0.64342E-03   -0.61983E-05  3038   0.524E-03    0.753E-01
RMM:  13    -0.231508623635E+04    0.74076E-03   -0.73535E-05  3020   0.557E-03    0.708E-01
RMM:  14    -0.231508585831E+04    0.37805E-03   -0.35650E-05  2944   0.415E-03    0.689E-01
RMM:  15    -0.231508531593E+04    0.54238E-03   -0.37582E-05  2914   0.396E-03    0.653E-01
RMM:  16    -0.231508392663E+04    0.13893E-02   -0.23900E-04  3400   0.723E-03    0.571E-01
RMM:  17    -0.231508305831E+04    0.86832E-03   -0.16308E-04  3116   0.648E-03    0.538E-01
RMM:  18    -0.231508187060E+04    0.11877E-02   -0.26149E-04  3449   0.767E-03    0.500E-01
RMM:  19    -0.231508111241E+04    0.75820E-03   -0.13725E-04  3113   0.657E-03    0.496E-01
RMM:  20    -0.231508128521E+04   -0.17280E-03   -0.10601E-05  2748   0.345E-03    0.498E-01
RMM:  21    -0.231508080082E+04    0.48439E-03   -0.37010E-05  2792   0.300E-03    0.495E-01
RMM:  22    -0.231508104100E+04   -0.24018E-03   -0.79672E-06  2469   0.248E-03    0.496E-01
RMM:  23    -0.231507743318E+04    0.36078E-02   -0.16284E-03  4191   0.163E-02    0.581E-01
RMM:  24    -0.231507818479E+04   -0.75161E-03   -0.14979E-04  3039   0.939E-03    0.530E-01
RMM:  25    -0.231507800256E+04    0.18223E-03   -0.13875E-05  2729   0.236E-03    0.536E-01
RMM:  26    -0.231507705600E+04    0.94656E-03   -0.95080E-05  3077   0.424E-03    0.578E-01
RMM:  27    -0.231507698736E+04    0.68640E-04   -0.92344E-06  2428   0.255E-03    0.580E-01
RMM:  28    -0.231507773165E+04   -0.74429E-03   -0.57457E-05  2752   0.328E-03    0.540E-01
RMM:  29    -0.231507910687E+04   -0.13752E-02   -0.28547E-04  3399   0.718E-03    0.479E-01
RMM:  30    -0.231508034465E+04   -0.12378E-02   -0.29327E-04  3315   0.736E-03    0.449E-01
RMM:  31    -0.231508122013E+04   -0.87548E-03   -0.18236E-04  3238   0.666E-03    0.446E-01
RMM:  32    -0.231507918819E+04    0.20319E-02   -0.51295E-04  3371   0.951E-03    0.462E-01
RMM:  33    -0.231508537460E+04   -0.61864E-02   -0.39576E-03  4398   0.250E-02    0.657E-01
RMM:  34    -0.231508062409E+04    0.47505E-02   -0.23875E-03  4373   0.216E-02    0.413E-01
RMM:  35    -0.231507879495E+04    0.18291E-02   -0.59429E-04  3669   0.117E-02    0.485E-01
RMM:  36    -0.231507522272E+04    0.35722E-02   -0.15197E-03  4309   0.164E-02    0.636E-01
RMM:  37    -0.231507182204E+04    0.34007E-02   -0.91770E-04  3860   0.146E-02    0.797E-01
RMM:  38    -0.231507211381E+04   -0.29177E-03   -0.54655E-05  3041   0.552E-03    0.783E-01
RMM:  39    -0.231507181444E+04    0.29937E-03   -0.11824E-05  2730   0.243E-03    0.794E-01
RMM:  40    -0.231507179493E+04    0.19508E-04   -0.18289E-06  2489   0.184E-03    0.794E-01
RMM:  41    -0.231507186302E+04   -0.68083E-04   -0.87593E-07  2037   0.998E-04    0.789E-01
RMM:  42    -0.231507249526E+04   -0.63225E-03   -0.29994E-05  2675   0.245E-03    0.750E-01
RMM:  43    -0.231507283802E+04   -0.34276E-03   -0.34484E-05  2945   0.294E-03    0.720E-01
RMM:  44    -0.231507453572E+04   -0.16977E-02   -0.19438E-04  3239   0.602E-03    0.631E-01
RMM:  45    -0.231507581500E+04   -0.12793E-02   -0.15496E-04  3133   0.617E-03    0.566E-01
RMM:  46    -0.231507921052E+04   -0.33955E-02   -0.12976E-03  4191   0.150E-02    0.429E-01
RMM:  47    -0.231508157637E+04   -0.23658E-02   -0.10708E-03  3863   0.152E-02    0.411E-01
RMM:  48    -0.231508244120E+04   -0.86484E-03   -0.32081E-04  3348   0.892E-03    0.425E-01
RMM:  49    -0.231508217921E+04    0.26199E-03   -0.17351E-05  2809   0.398E-03    0.409E-01
RMM:  50    -0.231508229939E+04   -0.12018E-03   -0.52363E-06  2538   0.189E-03    0.416E-01
RMM:  51    -0.231508235852E+04   -0.59126E-04   -0.16944E-06  2414   0.161E-03    0.417E-01
RMM:  52    -0.231508194530E+04    0.41322E-03   -0.20269E-05  2464   0.207E-03    0.403E-01
RMM:  53    -0.231508124946E+04    0.69583E-03   -0.78129E-05  2962   0.376E-03    0.394E-01
RMM:  54    -0.231507858172E+04    0.26677E-02   -0.10586E-03  4002   0.130E-02    0.441E-01
RMM:  55    -0.231507710657E+04    0.14751E-02   -0.38400E-04  3334   0.990E-03    0.506E-01
RMM:  56    -0.231507644936E+04    0.65721E-03   -0.11648E-04  3086   0.536E-03    0.536E-01
RMM:  57    -0.231507696953E+04   -0.52017E-03   -0.19589E-05  2599   0.322E-03    0.512E-01
RMM:  58    -0.231507733548E+04   -0.36595E-03   -0.18146E-05  2433   0.219E-03    0.493E-01
RMM:  59    -0.231507788106E+04   -0.54558E-03   -0.37171E-05  2762   0.282E-03    0.469E-01
RMM:  60    -0.231507853581E+04   -0.65475E-03   -0.57996E-05  2918   0.343E-03    0.446E-01
RMM:  61    -0.231507909644E+04   -0.56063E-03   -0.51852E-05  2854   0.349E-03    0.431E-01
RMM:  62    -0.231507948201E+04   -0.38557E-03   -0.32105E-05  2731   0.306E-03    0.423E-01
RMM:  63    -0.231508017292E+04   -0.69091E-03   -0.79572E-05  3092   0.414E-03    0.415E-01
RMM:  64    -0.231508019181E+04   -0.18886E-04   -0.65777E-06  2424   0.247E-03    0.414E-01
RMM:  65    -0.231508036877E+04   -0.17696E-03   -0.79047E-06  2213   0.151E-03    0.414E-01
RMM:  66    -0.231508080933E+04   -0.44057E-03   -0.31143E-05  2808   0.267E-03    0.413E-01
RMM:  67    -0.231508278017E+04   -0.19708E-02   -0.53223E-04  3711   0.950E-03    0.468E-01
RMM:  68    -0.231508408683E+04   -0.13067E-02   -0.28828E-04  3301   0.813E-03    0.524E-01
RMM:  69    -0.231508430691E+04   -0.22008E-03   -0.50097E-05  2938   0.455E-03    0.522E-01
RMM:  70    -0.231508439566E+04   -0.88759E-04   -0.73847E-06  2468   0.213E-03    0.528E-01
RMM:  71    -0.231508410848E+04    0.28719E-03   -0.71746E-06  2352   0.187E-03    0.507E-01
RMM:  72    -0.231508299544E+04    0.11130E-02   -0.14267E-04  3070   0.490E-03    0.447E-01
RMM:  73    -0.231508182592E+04    0.11695E-02   -0.21486E-04  3304   0.623E-03    0.416E-01
RMM:  74    -0.231508016490E+04    0.16610E-02   -0.47687E-04  3587   0.891E-03    0.412E-01
RMM:  75    -0.231507959495E+04    0.56996E-03   -0.11070E-04  3011   0.597E-03    0.428E-01
RMM:  76    -0.231507892964E+04    0.66531E-03   -0.10061E-04  3106   0.461E-03    0.445E-01
RMM:  77    -0.231508032339E+04   -0.13937E-02   -0.23145E-04  3206   0.685E-03    0.421E-01
RMM:  78    -0.231508057128E+04   -0.24789E-03   -0.28747E-05  2591   0.368E-03    0.414E-01
RMM:  79    -0.231508060055E+04   -0.29267E-04   -0.44042E-06  2054   0.163E-03    0.414E-01
RMM:  80    -0.231508032923E+04    0.27132E-03   -0.92168E-06  1749   0.145E-03    0.415E-01
RMM:  81    -0.231508124497E+04   -0.91574E-03   -0.11030E-04  3069   0.423E-03    0.421E-01
RMM:  82    -0.231508105947E+04    0.18549E-03   -0.13505E-05  2369   0.255E-03    0.421E-01
RMM:  83    -0.231508124126E+04   -0.18179E-03   -0.53345E-06  1756   0.141E-03    0.425E-01
RMM:  84    -0.231508085025E+04    0.39101E-03   -0.19097E-05  2187   0.198E-03    0.420E-01
RMM:  85    -0.231508096752E+04   -0.11727E-03   -0.16761E-06  1574   0.117E-03    0.423E-01
RMM:  86    -0.231508097070E+04   -0.31760E-05   -0.13199E-07   822   0.508E-04
  15 F= -.23359247E+04 E0= -.23359200E+04  d E =-.165128E-01  mag=     8.0541
       N       E                     dE             d eps       ncg     rms          rms(c)
DAV:   1    -0.231507025306E+04    0.10714E-01   -0.87307E-01  4528   0.853E-01    0.796E-01
RMM:   2    -0.231509745681E+04   -0.27204E-01   -0.15165E-01  5709   0.189E-01    0.151E+00
RMM:   3    -0.231509675094E+04    0.70587E-03   -0.15882E-02  5196   0.833E-02    0.115E+00
RMM:   4    -0.231508378761E+04    0.12963E-01   -0.22708E-02  5200   0.627E-02    0.786E-01
RMM:   5    -0.231507944484E+04    0.43428E-02   -0.36182E-03  5182   0.284E-02    0.662E-01
RMM:   6    -0.231507719844E+04    0.22464E-02   -0.11379E-03  4609   0.165E-02    0.700E-01
RMM:   7    -0.231507388346E+04    0.33150E-02   -0.73477E-04  4140   0.142E-02    0.755E-01
RMM:   8    -0.231507216535E+04    0.17181E-02   -0.22499E-04  3419   0.959E-03    0.807E-01
RMM:   9    -0.231508650686E+04   -0.14342E-01   -0.98009E-03  4587   0.407E-02    0.884E-01
RMM:  10    -0.231509317323E+04   -0.66664E-02   -0.30171E-03  4076   0.306E-02    0.123E+00
RMM:  11    -0.231507987401E+04    0.13299E-01   -0.77891E-03  4459   0.369E-02    0.593E-01
RMM:  12    -0.231507450015E+04    0.53739E-02   -0.21457E-03  4084   0.258E-02    0.749E-01
RMM:  13    -0.231506820434E+04    0.62958E-02   -0.23113E-03  4775   0.207E-02    0.968E-01
RMM:  14    -0.231507391140E+04   -0.57071E-02   -0.95621E-04  3938   0.149E-02    0.773E-01
RMM:  15    -0.231508443636E+04   -0.10525E-01   -0.67835E-03  4563   0.334E-02    0.771E-01
RMM:  16    -0.231510156143E+04   -0.17125E-01   -0.81252E-03  4793   0.411E-02    0.171E+00
RMM:  17    -0.231509306784E+04    0.84936E-02   -0.97311E-04  3752   0.212E-02    0.949E-01
RMM:  18    -0.231509094371E+04    0.21241E-02   -0.23822E-04  3071   0.878E-03    0.104E+00
RMM:  19    -0.231508815300E+04    0.27907E-02   -0.37415E-04  3550   0.802E-03    0.854E-01
RMM:  20    -0.231508401920E+04    0.41338E-02   -0.88745E-04  3973   0.130E-02    0.686E-01
RMM:  21    -0.231508097385E+04    0.30454E-02   -0.78273E-04  3823   0.133E-02    0.642E-01
RMM:  22    -0.231507892882E+04    0.20450E-02   -0.44964E-04  3594   0.102E-02    0.651E-01
RMM:  23    -0.231507720255E+04    0.17263E-02   -0.29284E-04  3400   0.868E-03    0.680E-01
RMM:  24    -0.231507580803E+04    0.13945E-02   -0.19410E-04  3279   0.744E-03    0.715E-01
RMM:  25    -0.231507649607E+04   -0.68804E-03   -0.21001E-05  2819   0.416E-03    0.698E-01
RMM:  26    -0.231507611154E+04    0.38453E-03   -0.86502E-06  2524   0.181E-03    0.708E-01
RMM:  27    -0.231507638344E+04   -0.27191E-03   -0.38295E-06  2422   0.175E-03    0.700E-01
RMM:  28    -0.231507693841E+04   -0.55497E-03   -0.20546E-05  2393   0.201E-03    0.686E-01
RMM:  29    -0.231507903540E+04   -0.20970E-02   -0.29725E-04  3364   0.695E-03    0.650E-01
RMM:  30    -0.231508624863E+04   -0.72132E-02   -0.31010E-03  4352   0.224E-02    0.842E-01
RMM:  31    -0.231509160472E+04   -0.53561E-02   -0.15493E-03  3928   0.190E-02    0.111E+00
RMM:  32    -0.231510093964E+04   -0.93349E-02   -0.20341E-03  4574   0.192E-02    0.161E+00
RMM:  33    -0.231511146349E+04   -0.10524E-01   -0.15275E-03  4078   0.186E-02    0.201E+00
RMM:  34    -0.231511125923E+04    0.20427E-03   -0.17598E-04  3142   0.997E-03    0.190E+00
RMM:  35    -0.231510600230E+04    0.52569E-02   -0.19848E-04  3172   0.691E-03    0.167E+00
RMM:  36    -0.231509517797E+04    0.10824E-01   -0.17243E-03  4141   0.170E-02    0.111E+00
RMM:  37    -0.231508856023E+04    0.66177E-02   -0.14523E-03  3935   0.177E-02    0.864E-01
RMM:  38    -0.231508519776E+04    0.33625E-02   -0.85489E-04  3951   0.134E-02    0.745E-01
RMM:  39    -0.231508438094E+04    0.81682E-03   -0.13202E-04  3148   0.722E-03    0.736E-01
RMM:  40    -0.231508431436E+04    0.66575E-04   -0.19128E-05  2869   0.346E-03    0.736E-01
RMM:  41    -0.231508428608E+04    0.28278E-04   -0.20836E-06  2564   0.195E-03    0.735E-01
RMM:  42    -0.231508432248E+04   -0.36393E-04   -0.69422E-07  2278   0.125E-03    0.736E-01
RMM:  43    -0.231508478657E+04   -0.46409E-03   -0.11675E-05  2326   0.166E-03    0.754E-01
RMM:  44    -0.231508547216E+04   -0.68559E-03   -0.31720E-05  2779   0.261E-03    0.777E-01
RMM:  45    -0.231508586312E+04   -0.39096E-03   -0.16220E-05  2616   0.215E-03    0.784E-01
RMM:  46    -0.231508536293E+04    0.50019E-03   -0.93150E-06  2358   0.191E-03    0.755E-01
RMM:  47    -0.231508446523E+04    0.89770E-03   -0.46180E-05  2667   0.297E-03    0.721E-01
RMM:  48    -0.231508408308E+04    0.38215E-03   -0.14663E-05  2404   0.211E-03    0.712E-01
RMM:  49    -0.231508330920E+04    0.77388E-03   -0.43935E-05  2862   0.305E-03    0.683E-01
RMM:  50    -0.231508221085E+04    0.10984E-02   -0.89888E-05  3080   0.423E-03    0.654E-01
RMM:  51    -0.231508112405E+04    0.10868E-02   -0.10620E-04  3077   0.487E-03    0.641E-01
RMM:  52    -0.231507941155E+04    0.17125E-02   -0.24829E-04  3528   0.683E-03    0.637E-01
RMM:  53    -0.231507799817E+04    0.14134E-02   -0.18607E-04  3218   0.671E-03    0.655E-01
RMM:  54    -0.231507737882E+04    0.61935E-03   -0.63457E-05  2945   0.458E-03    0.668E-01
RMM:  55    -0.231507754258E+04   -0.16376E-03   -0.42544E-06  2499   0.241E-03    0.665E-01
RMM:  56    -0.231507772816E+04   -0.18558E-03   -0.27698E-06  2210   0.130E-03    0.661E-01
RMM:  57    -0.231507831599E+04   -0.58782E-03   -0.23377E-05  2498   0.217E-03    0.652E-01
RMM:  58    -0.231507916182E+04   -0.84584E-03   -0.54502E-05  2877   0.329E-03    0.642E-01
RMM:  59    -0.231508108980E+04   -0.19280E-02   -0.27759E-04  3430   0.689E-03    0.648E-01
RMM:  60    -0.231508149099E+04   -0.40119E-03   -0.39738E-05  2812   0.397E-03    0.645E-01
RMM:  61    -0.231508257365E+04   -0.10827E-02   -0.97499E-05  3119   0.422E-03    0.671E-01
RMM:  62    -0.231508140245E+04    0.11712E-02   -0.76824E-05  2902   0.455E-03    0.637E-01
RMM:  63    -0.231508131688E+04    0.85566E-04   -0.53696E-06  2142   0.208E-03    0.645E-01
RMM:  64    -0.231508060612E+04    0.71076E-03   -0.40904E-05  2782   0.290E-03    0.636E-01
RMM:  65    -0.231508052445E+04    0.81668E-04   -0.35747E-06  2085   0.182E-03    0.639E-01
RMM:  66    -0.231508078525E+04   -0.26079E-03   -0.32113E-06  1448   0.102E-03    0.641E-01
RMM:  67    -0.231507934986E+04    0.14354E-02   -0.13222E-04  3125   0.459E-03    0.635E-01
RMM:  68    -0.231507883547E+04    0.51439E-03   -0.35011E-05  2692   0.321E-03    0.645E-01
RMM:  69    -0.231507919334E+04   -0.35787E-03   -0.52076E-06  2248   0.180E-03    0.643E-01
RMM:  70    -0.231508013664E+04   -0.94330E-03   -0.62295E-05  2722   0.338E-03    0.641E-01
RMM:  71    -0.231508158036E+04   -0.14437E-02   -0.15846E-04  3197   0.526E-03    0.654E-01
RMM:  72    -0.231507866914E+04    0.29112E-02   -0.54290E-04  3577   0.941E-03    0.641E-01
RMM:  73    -0.231507859501E+04    0.74135E-04   -0.26599E-05  2707   0.427E-03    0.651E-01
RMM:  74    -0.231507866421E+04   -0.69209E-04   -0.28630E-06  2111   0.139E-03    0.649E-01
RMM:  75    -0.231507857923E+04    0.84988E-04   -0.91965E-07  1597   0.934E-04    0.650E-01
RMM:  76    -0.231507857913E+04    0.92346E-07   -0.22332E-07  1246   0.753E-04
  16 F= -.23359225E+04 E0= -.23359188E+04  d E =-.142588E-01  mag=     7.7410
       N       E                     dE             d eps       ncg     rms          rms(c)
DAV:   1    -0.231508399399E+04   -0.54148E-02   -0.33259E+00  4472   0.169E+00    0.264E+00
RMM:   2    -0.231524487786E+04   -0.16088E+00   -0.79466E-01  5582   0.426E-01    0.319E+00
RMM:   3    -0.231519527058E+04    0.49607E-01   -0.10002E-01  5230   0.174E-01    0.176E+00
RMM:   4    -0.231509683977E+04    0.98431E-01   -0.92110E-02  4531   0.137E-01    0.138E+00
RMM:   5    -0.231520772199E+04   -0.11088E+00   -0.85326E-02  4705   0.135E-01    0.104E+00
RMM:   6    -0.231521730595E+04   -0.95840E-02   -0.20689E-02  5085   0.735E-02    0.788E-01
RMM:   7    -0.231522332650E+04   -0.60205E-02   -0.92212E-03  4504   0.470E-02    0.295E-01
RMM:   8    -0.231526190334E+04   -0.38577E-01   -0.63845E-03  4417   0.452E-02    0.181E-01
RMM:   9    -0.231529346979E+04   -0.31566E-01   -0.60474E-03  4470   0.437E-02    0.120E-01
RMM:  10    -0.231530884334E+04   -0.15374E-01   -0.36478E-03  4613   0.382E-02    0.723E-02
RMM:  11    -0.231531683286E+04   -0.79895E-02   -0.27289E-03  4420   0.296E-02    0.382E-02
RMM:  12    -0.231531896375E+04   -0.21309E-02   -0.54401E-04  4128   0.188E-02    0.209E-02
RMM:  13    -0.231532010713E+04   -0.11434E-02   -0.21795E-04  3937   0.922E-03    0.117E-02
RMM:  14    -0.231532061144E+04   -0.50431E-03   -0.84622E-05  3628   0.842E-03    0.599E-03
RMM:  15    -0.231532070078E+04   -0.89345E-04   -0.24809E-05  3114   0.417E-03    0.324E-03
RMM:  16    -0.231532072526E+04   -0.24476E-04   -0.77016E-06  2806   0.354E-03    0.130E-03
RMM:  17    -0.231532073016E+04   -0.49008E-05   -0.39275E-06  2719   0.219E-03
  17 F= -.23361643E+04 E0= -.23361643E+04  d E =-.241792E+00  mag=     6.0006
       N       E                     dE             d eps       ncg     rms          rms(c)
DAV:   1    -0.231490815045E+04    0.41257E+00   -0.29964E+01  4456   0.508E+00    0.192E+00
RMM:   2    -0.231538050525E+04   -0.47235E+00   -0.45786E+00  5940   0.106E+00    0.244E+00
RMM:   3    -0.231535332143E+04    0.27184E-01   -0.49495E-01  5690   0.398E-01    0.982E-01
RMM:   4    -0.231534537509E+04    0.79463E-02   -0.49161E-02  5024   0.916E-02    0.521E-01
RMM:   5    -0.231534613072E+04   -0.75563E-03   -0.11969E-02  5448   0.636E-02    0.739E-01
RMM:   6    -0.231534197211E+04    0.41586E-02   -0.76544E-03  5684   0.449E-02    0.286E-01
RMM:   7    -0.231534145753E+04    0.51458E-03   -0.28544E-03  4998   0.305E-02    0.132E-01
RMM:   8    -0.231534123562E+04    0.22190E-03   -0.36604E-04  4034   0.144E-02    0.402E-02
RMM:   9    -0.231534120076E+04    0.34861E-04   -0.18557E-04  3768   0.813E-03    0.221E-02
RMM:  10    -0.231534119884E+04    0.19214E-05   -0.33165E-05  2974   0.582E-03
  18 F= -.23361834E+04 E0= -.23361834E+04  d E =-.260910E+00  mag=     6.0001
       N       E                     dE             d eps       ncg     rms          rms(c)
DAV:   1    -0.231530446218E+04    0.36739E-01   -0.29216E+00  4560   0.159E+00    0.576E-01
RMM:   2    -0.231534496554E+04   -0.40503E-01   -0.41036E-01  5801   0.312E-01    0.562E-01
RMM:   3    -0.231534712584E+04   -0.21603E-02   -0.49505E-02  5383   0.140E-01    0.371E-01
RMM:   4    -0.231534595036E+04    0.11755E-02   -0.45956E-03  5256   0.298E-02    0.163E-01
RMM:   5    -0.231534591091E+04    0.39452E-04   -0.12360E-03  5105   0.199E-02    0.192E-01
RMM:   6    -0.231534564685E+04    0.26406E-03   -0.71824E-04  4545   0.145E-02    0.845E-02
RMM:   7    -0.231534559146E+04    0.55386E-04   -0.12904E-04  3571   0.840E-03    0.190E-02
RMM:   8    -0.231534558540E+04    0.60602E-05   -0.21001E-05  2917   0.511E-03
  19 F= -.23361882E+04 E0= -.23361882E+04  d E =-.265753E+00  mag=     6.0000
       N       E                     dE             d eps       ncg     rms          rms(c)
DAV:   1    -0.231534705746E+04   -0.14660E-02   -0.49765E-02  4824   0.201E-01    0.766E-02
RMM:   2    -0.231534783732E+04   -0.77986E-03   -0.77176E-03  6056   0.416E-02    0.908E-02
RMM:   3    -0.231534784387E+04   -0.65485E-05   -0.88091E-04  3097   0.171E-02    0.440E-02
RMM:   4    -0.231534782890E+04    0.14961E-04   -0.82612E-05  2967   0.478E-03    0.206E-02
RMM:   5    -0.231534782612E+04    0.27840E-05   -0.17942E-05  2888   0.302E-03
  20 F= -.23361904E+04 E0= -.23361904E+04  d E =-.220146E-02  mag=     6.0000
       N       E                     dE             d eps       ncg     rms          rms(c)
DAV:   1    -0.231534694599E+04    0.88292E-03   -0.44841E-01  4512   0.604E-01    0.233E-01
RMM:   2    -0.231535414183E+04   -0.71958E-02   -0.70781E-02  6053   0.124E-01    0.287E-01
RMM:   3    -0.231535411349E+04    0.28344E-04   -0.79421E-03  5159   0.485E-02    0.132E-01
RMM:   4    -0.231535398692E+04    0.12657E-03   -0.77629E-04  3566   0.111E-02    0.644E-02
RMM:   5    -0.231535399343E+04   -0.65145E-05   -0.15881E-04  3115   0.745E-03    0.823E-02
RMM:   6    -0.231535394134E+04    0.52093E-04   -0.13089E-04  3097   0.726E-03    0.380E-02
RMM:   7    -0.231535393281E+04    0.85276E-05   -0.35066E-05  2919   0.530E-03
  21 F= -.23361964E+04 E0= -.23361964E+04  d E =-.818668E-02  mag=     6.0000
       N       E                     dE             d eps       ncg     rms          rms(c)
DAV:   1    -0.231533515758E+04    0.18784E-01   -0.17962E+00  4468   0.121E+00    0.469E-01
RMM:   2    -0.231536428878E+04   -0.29131E-01   -0.28658E-01  5980   0.249E-01    0.572E-01
RMM:   3    -0.231536402727E+04    0.26151E-03   -0.32247E-02  5504   0.103E-01    0.255E-01
RMM:   4    -0.231536355846E+04    0.46881E-03   -0.31422E-03  4890   0.217E-02    0.123E-01
RMM:   5    -0.231536337478E+04    0.18368E-03   -0.52683E-04  4488   0.144E-02    0.756E-02
RMM:   6    -0.231536335958E+04    0.15204E-04   -0.27559E-04  3966   0.118E-02    0.381E-02
RMM:   7    -0.231536335315E+04    0.64302E-05   -0.42063E-05  2946   0.614E-03
  22 F= -.23362056E+04 E0= -.23362056E+04  d E =-.173487E-01  mag=     6.0000
       N       E                     dE             d eps       ncg     rms          rms(c)
DAV:   1    -0.231525662320E+04    0.10674E+00   -0.71771E+00  4456   0.242E+00    0.943E-01
RMM:   2    -0.231537489352E+04   -0.11827E+00   -0.11675E+00  5966   0.506E-01    0.112E+00
RMM:   3    -0.231537376697E+04    0.11265E-02   -0.13174E-01  5696   0.197E-01    0.508E-01
RMM:   4    -0.231537193097E+04    0.18360E-02   -0.12689E-02  5178   0.427E-02    0.249E-01
RMM:   5    -0.231537126984E+04    0.66113E-03   -0.22146E-03  5159   0.278E-02    0.176E-01
RMM:   6    -0.231537156912E+04   -0.29928E-03   -0.15436E-03  4839   0.211E-02    0.228E-01
RMM:   7    -0.231537109713E+04    0.47199E-03   -0.49800E-04  4158   0.122E-02    0.460E-02
RMM:   8    -0.231537106823E+04    0.28901E-04   -0.74920E-05  2910   0.638E-03    0.219E-02
RMM:   9    -0.231537106352E+04    0.47067E-05   -0.34576E-05  2942   0.369E-03
  23 F= -.23362127E+04 E0= -.23362127E+04  d E =-.244909E-01  mag=     6.0000
       N       E                     dE             d eps       ncg     rms          rms(c)
DAV:   1    -0.231538401288E+04   -0.12945E-01   -0.24018E-01  4784   0.434E-01    0.196E-01
RMM:   2    -0.231538887683E+04   -0.48639E-02   -0.47158E-02  6071   0.992E-02    0.252E-01
RMM:   3    -0.231538871336E+04    0.16347E-03   -0.50949E-03  4870   0.392E-02    0.106E-01
RMM:   4    -0.231538864825E+04    0.65108E-04   -0.52801E-04  3244   0.917E-03    0.497E-02
RMM:   5    -0.231538865569E+04   -0.74370E-05   -0.92902E-05  2949   0.576E-03
  24 F= -.23362303E+04 E0= -.23362303E+04  d E =-.175607E-01  mag=     6.0000
       N       E                     dE             d eps       ncg     rms          rms(c)
DAV:   1    -0.231539465468E+04   -0.60064E-02   -0.21465E+00  4468   0.130E+00    0.578E-01
RMM:   2    -0.231543760046E+04   -0.42946E-01   -0.42387E-01  5975   0.293E-01    0.686E-01
RMM:   3    -0.231543711505E+04    0.48541E-03   -0.46660E-02  5601   0.122E-01    0.317E-01
RMM:   4    -0.231543645466E+04    0.66039E-03   -0.46065E-03  5023   0.260E-02    0.142E-01
RMM:   5    -0.231543618908E+04    0.26558E-03   -0.61321E-04  4742   0.159E-02    0.867E-02
RMM:   6    -0.231543615715E+04    0.31929E-04   -0.41800E-04  4398   0.136E-02    0.500E-02
RMM:   7    -0.231543614171E+04    0.15436E-04   -0.71962E-05  3027   0.771E-03    0.321E-02
RMM:   8    -0.231543613017E+04    0.11545E-04   -0.18280E-05  2874   0.349E-03    0.128E-02
RMM:   9    -0.231543612713E+04    0.30371E-05   -0.98288E-06  2884   0.250E-03
  25 F= -.23362776E+04 E0= -.23362776E+04  d E =-.649212E-01  mag=     6.0000
       N       E                     dE             d eps       ncg     rms          rms(c)
DAV:   1    -0.231533917391E+04    0.96956E-01   -0.86138E+00  4456   0.261E+00    0.116E+00
RMM:   2    -0.231551378328E+04   -0.17461E+00   -0.17220E+00  5966   0.602E-01    0.138E+00
RMM:   3    -0.231551089671E+04    0.28866E-02   -0.18620E-01  5672   0.235E-01    0.651E-01
RMM:   4    -0.231550802201E+04    0.28747E-02   -0.18496E-02  5303   0.520E-02    0.281E-01
RMM:   5    -0.231550703387E+04    0.98814E-03   -0.23455E-03  5173   0.298E-02    0.180E-01
RMM:   6    -0.231550692454E+04    0.10934E-03   -0.18986E-03  4960   0.269E-02    0.136E-01
RMM:   7    -0.231550678501E+04    0.13953E-03   -0.39170E-04  4062   0.148E-02    0.623E-02
RMM:   8    -0.231550673829E+04    0.46715E-04   -0.76192E-05  3048   0.571E-03    0.249E-02
RMM:   9    -0.231550672450E+04    0.13790E-04   -0.32400E-05  2937   0.416E-03    0.163E-02
RMM:  10    -0.231550672041E+04    0.40880E-05   -0.19265E-05  2880   0.412E-03
  26 F= -.23363479E+04 E0= -.23363479E+04  d E =-.135222E+00  mag=     6.0000
       N       E                     dE             d eps       ncg     rms          rms(c)
DAV:   1    -0.231483032137E+04    0.67640E+00   -0.34130E+01  4456   0.526E+00    0.232E+00
RMM:   2    -0.231556033872E+04   -0.73002E+00   -0.72761E+00  6021   0.129E+00    0.269E+00
RMM:   3    -0.231556072524E+04   -0.38653E-03   -0.78229E-01  5743   0.488E-01    0.144E+00
RMM:   4    -0.231554717240E+04    0.13553E-01   -0.77498E-02  5661   0.112E-01    0.774E-01
RMM:   5    -0.231554653169E+04    0.64071E-03   -0.15993E-02  5608   0.614E-02    0.750E-01
RMM:   6    -0.231554160273E+04    0.49290E-02   -0.97229E-03  5463   0.469E-02    0.390E-01
RMM:   7    -0.231554028584E+04    0.13169E-02   -0.47492E-03  5329   0.403E-02    0.117E-01
RMM:   8    -0.231554016326E+04    0.12258E-03   -0.70319E-04  4903   0.199E-02    0.567E-02
RMM:   9    -0.231554011675E+04    0.46509E-04   -0.16843E-04  3875   0.938E-03    0.263E-02
RMM:  10    -0.231554009910E+04    0.17655E-04   -0.46644E-05  3094   0.668E-03    0.129E-02
RMM:  11    -0.231554009761E+04    0.14879E-05   -0.31091E-05  3061   0.510E-03
  27 F= -.23363805E+04 E0= -.23363805E+04  d E =-.167761E+00  mag=     6.0000
       N       E                     dE             d eps       ncg     rms          rms(c)
DAV:   1    -0.231548393650E+04    0.56163E-01   -0.30944E+00  4532   0.160E+00    0.689E-01
RMM:   2    -0.231554529353E+04   -0.61357E-01   -0.62686E-01  5982   0.366E-01    0.638E-01
RMM:   3    -0.231554801640E+04   -0.27229E-02   -0.70146E-02  5631   0.151E-01    0.417E-01
RMM:   4    -0.231554670880E+04    0.13076E-02   -0.70386E-03  5398   0.327E-02    0.179E-01
RMM:   5    -0.231554650509E+04    0.20371E-03   -0.11363E-03  4995   0.193E-02    0.163E-01
RMM:   6    -0.231554642424E+04    0.80849E-04   -0.76667E-04  4495   0.140E-02    0.140E-01
RMM:   7    -0.231554625379E+04    0.17045E-03   -0.21377E-04  4009   0.986E-03    0.358E-02
RMM:   8    -0.231554624340E+04    0.10394E-04   -0.44145E-05  2980   0.619E-03    0.156E-02
RMM:   9    -0.231554623935E+04    0.40487E-05   -0.14881E-05  2876   0.410E-03
  28 F= -.23363869E+04 E0= -.23363869E+04  d E =-.174188E+00  mag=     6.0000
       N       E                     dE             d eps       ncg     rms          rms(c)
DAV:   1    -0.231555546395E+04   -0.92206E-02   -0.99081E-01  4544   0.885E-01    0.407E-01
RMM:   2    -0.231557632294E+04   -0.20859E-01   -0.20440E-01  5998   0.210E-01    0.466E-01
RMM:   3    -0.231557565579E+04    0.66715E-03   -0.18098E-02  5692   0.765E-02    0.244E-01
RMM:   4    -0.231557520892E+04    0.44687E-03   -0.21563E-03  4788   0.191E-02    0.890E-02
RMM:   5    -0.231557511351E+04    0.95413E-04   -0.25245E-04  4193   0.114E-02    0.747E-02
RMM:   6    -0.231557512249E+04   -0.89833E-05   -0.23093E-04  3679   0.923E-03    0.856E-02
RMM:   7    -0.231557504863E+04    0.73860E-04   -0.93960E-05  3385   0.782E-03    0.121E-02
RMM:   8    -0.231557504730E+04    0.13288E-05   -0.15554E-05  2899   0.474E-03
  29 F= -.23364153E+04 E0= -.23364153E+04  d E =-.284302E-01  mag=     6.0000
       N       E                     dE             d eps       ncg     rms          rms(c)
DAV:   1    -0.231544832434E+04    0.12672E+00   -0.89066E+00  4472   0.265E+00    0.122E+00
RMM:   2    -0.231563487581E+04   -0.18655E+00   -0.18369E+00  5981   0.636E-01    0.137E+00
RMM:   3    -0.231563100676E+04    0.38690E-02   -0.18393E-01  5706   0.236E-01    0.709E-01
RMM:   4    -0.231562776031E+04    0.32465E-02   -0.20502E-02  5350   0.571E-02    0.273E-01
RMM:   5    -0.231562687966E+04    0.88064E-03   -0.23066E-03  5287   0.322E-02    0.218E-01
RMM:   6    -0.231562700643E+04   -0.12677E-03   -0.19488E-03  5533   0.240E-02    0.269E-01
RMM:   7    -0.231562630995E+04    0.69648E-03   -0.95749E-04  5082   0.198E-02    0.393E-02
RMM:   8    -0.231562629317E+04    0.16783E-04   -0.11781E-04  3249   0.799E-03    0.247E-02
RMM:   9    -0.231562627944E+04    0.13732E-04   -0.30637E-05  2972   0.532E-03    0.124E-02
RMM:  10    -0.231562627692E+04    0.25180E-05   -0.15454E-05  2904   0.410E-03
  30 F= -.23364654E+04 E0= -.23364654E+04  d E =-.784607E-01  mag=     6.0000
       N       E                     dE             d eps       ncg     rms          rms(c)
DAV:   1    -0.231559687076E+04    0.29409E-01   -0.17666E+00  4616   0.118E+00    0.542E-01
RMM:   2    -0.231563401608E+04   -0.37145E-01   -0.36849E-01  5980   0.281E-01    0.591E-01
RMM:   3    -0.231563316348E+04    0.85261E-03   -0.31703E-02  5680   0.993E-02    0.329E-01
RMM:   4    -0.231563235558E+04    0.80789E-03   -0.38652E-03  5158   0.256E-02    0.119E-01
RMM:   5    -0.231563217252E+04    0.18306E-03   -0.42624E-04  4688   0.146E-02    0.870E-02
RMM:   6    -0.231563223302E+04   -0.60501E-04   -0.39273E-04  4536   0.117E-02    0.126E-01
RMM:   7    -0.231563208176E+04    0.15127E-03   -0.18526E-04  3736   0.982E-03    0.173E-02
RMM:   8    -0.231563207866E+04    0.31016E-05   -0.27480E-05  2909   0.489E-03
  31 F= -.23364706E+04 E0= -.23364706E+04  d E =-.836961E-01  mag=     6.0000
       N       E                     dE             d eps       ncg     rms          rms(c)
DAV:   1    -0.231561374116E+04    0.18341E-01   -0.23263E+00  4464   0.137E+00    0.590E-01
RMM:   2    -0.231566191135E+04   -0.48170E-01   -0.48655E-01  6028   0.315E-01    0.569E-01
RMM:   3    -0.231566288856E+04   -0.97720E-03   -0.45214E-02  5767   0.114E-01    0.373E-01
RMM:   4    -0.231566185031E+04    0.10382E-02   -0.50320E-03  5241   0.277E-02    0.143E-01
RMM:   5    -0.231566158746E+04    0.26285E-03   -0.57096E-04  4716   0.154E-02    0.108E-01
RMM:   6    -0.231566162835E+04   -0.40889E-04   -0.54109E-04  4775   0.131E-02    0.142E-01
RMM:   7    -0.231566142786E+04    0.20049E-03   -0.23709E-04  4015   0.108E-02    0.220E-02
RMM:   8    -0.231566141914E+04    0.87256E-05   -0.36113E-05  2941   0.544E-03
  32 F= -.23364993E+04 E0= -.23364993E+04  d E =-.287514E-01  mag=     6.0000
       N       E                     dE             d eps       ncg     rms          rms(c)
DAV:   1    -0.231551885683E+04    0.14257E+00   -0.82232E+00  4456   0.257E+00    0.109E+00
RMM:   2    -0.231568181652E+04   -0.16296E+00   -0.16446E+00  5998   0.586E-01    0.102E+00
RMM:   3    -0.231568690643E+04   -0.50899E-02   -0.17440E-01  5784   0.221E-01    0.633E-01
RMM:   4    -0.231568433284E+04    0.25736E-02   -0.17944E-02  5453   0.508E-02    0.267E-01
RMM:   5    -0.231568342525E+04    0.90759E-03   -0.20195E-03  5195   0.278E-02    0.207E-01
RMM:   6    -0.231568347706E+04   -0.51812E-04   -0.18721E-03  5459   0.229E-02    0.255E-01
RMM:   7    -0.231568282386E+04    0.65320E-03   -0.78799E-04  4959   0.183E-02    0.485E-02
RMM:   8    -0.231568277758E+04    0.46278E-04   -0.12284E-04  3622   0.811E-03    0.259E-02
RMM:   9    -0.231568275379E+04    0.23786E-04   -0.42836E-05  3077   0.609E-03    0.142E-02
RMM:  10    -0.231568274510E+04    0.86911E-05   -0.16259E-05  2908   0.430E-03
  33 F= -.23365195E+04 E0= -.23365195E+04  d E =-.489089E-01  mag=     6.0000
       N       E                     dE             d eps       ncg     rms          rms(c)
DAV:   1    -0.231565144439E+04    0.31309E-01   -0.23113E+00  4528   0.145E+00    0.570E-01
RMM:   2    -0.231569697721E+04   -0.45533E-01   -0.46989E-01  5871   0.325E-01    0.378E-01
RMM:   3    -0.231570077185E+04   -0.37946E-02   -0.53772E-02  5565   0.137E-01    0.296E-01
RMM:   4    -0.231570031426E+04    0.45759E-03   -0.51801E-03  5369   0.287E-02    0.178E-01
RMM:   5    -0.231570006370E+04    0.25056E-03   -0.72164E-04  4575   0.157E-02    0.154E-01
RMM:   6    -0.231569984763E+04    0.21607E-03   -0.72853E-04  4879   0.149E-02    0.948E-02
RMM:   7    -0.231569975844E+04    0.89195E-04   -0.21096E-04  4184   0.105E-02    0.399E-02
RMM:   8    -0.231569973815E+04    0.20292E-04   -0.56544E-05  3034   0.643E-03    0.218E-02
RMM:   9    -0.231569972961E+04    0.85359E-05   -0.18214E-05  2879   0.474E-03
  34 F= -.23365365E+04 E0= -.23365365E+04  d E =-.170010E-01  mag=     6.0000
       N       E                     dE             d eps       ncg     rms          rms(c)
DAV:   1    -0.231567665345E+04    0.23085E-01   -0.12864E+00  4500   0.109E+00    0.424E-01
RMM:   2    -0.231570183908E+04   -0.25186E-01   -0.26004E-01  5858   0.243E-01    0.282E-01
RMM:   3    -0.231570390477E+04   -0.20657E-02   -0.29567E-02  5513   0.103E-01    0.216E-01
RMM:   4    -0.231570365427E+04    0.25050E-03   -0.28537E-03  4963   0.215E-02    0.128E-01
RMM:   5    -0.231570351282E+04    0.14145E-03   -0.41252E-04  4109   0.124E-02    0.113E-01
RMM:   6    -0.231570340189E+04    0.11093E-03   -0.39970E-04  4503   0.115E-02    0.738E-02
RMM:   7    -0.231570334418E+04    0.57705E-04   -0.11815E-04  3680   0.853E-03    0.292E-02
RMM:   8    -0.231570333153E+04    0.12652E-04   -0.34461E-05  2928   0.556E-03    0.160E-02
RMM:   9    -0.231570332573E+04    0.58036E-05   -0.12853E-05  2862   0.418E-03
  35 F= -.23365401E+04 E0= -.23365401E+04  d E =-.206030E-01  mag=     6.0000
       N       E                     dE             d eps       ncg     rms          rms(c)
DAV:   1    -0.231569368320E+04    0.96483E-02   -0.89378E-01  4544   0.945E-01    0.332E-01
RMM:   2    -0.231570948261E+04   -0.15799E-01   -0.16670E-01  5900   0.206E-01    0.179E-01
RMM:   3    -0.231571090335E+04   -0.14207E-02   -0.19295E-02  5452   0.874E-02    0.161E-01
RMM:   4    -0.231571083759E+04    0.65766E-04   -0.17530E-03  4128   0.171E-02    0.102E-01
RMM:   5    -0.231571067616E+04    0.16143E-03   -0.35733E-04  4354   0.119E-02    0.601E-02
RMM:   6    -0.231571064179E+04    0.34372E-04   -0.15433E-04  4160   0.932E-03    0.343E-02
RMM:   7    -0.231571064050E+04    0.12879E-05   -0.49086E-05  2912   0.682E-03
  36 F= -.23365477E+04 E0= -.23365477E+04  d E =-.760240E-02  mag=     6.0000
       N       E                     dE             d eps       ncg     rms          rms(c)
DAV:   1    -0.231569973284E+04    0.10909E-01   -0.66181E-01  4592   0.815E-01    0.286E-01
RMM:   2    -0.231571147510E+04   -0.11742E-01   -0.12425E-01  5879   0.179E-01    0.157E-01
RMM:   3    -0.231571256894E+04   -0.10938E-02   -0.14596E-02  5416   0.757E-02    0.146E-01
RMM:   4    -0.231571249947E+04    0.69471E-04   -0.13109E-03  3802   0.149E-02    0.882E-02
RMM:   5    -0.231571237519E+04    0.12428E-03   -0.25190E-04  4111   0.103E-02    0.519E-02
RMM:   6    -0.231571233958E+04    0.35614E-04   -0.13276E-04  4043   0.885E-03    0.183E-02
RMM:   7    -0.231571233930E+04    0.27299E-06   -0.25801E-05  2953   0.629E-03
  37 F= -.23365497E+04 E0= -.23365497E+04  d E =-.954573E-02  mag=     6.0000
       N       E                     dE             d eps       ncg     rms          rms(c)
DAV:   1    -0.231570820774E+04    0.41318E-02   -0.60696E-01  4512   0.818E-01    0.253E-01
RMM:   2    -0.231571577673E+04   -0.75690E-02   -0.81443E-02  5801   0.163E-01    0.137E-01
RMM:   3    -0.231571641153E+04   -0.63480E-03   -0.91271E-03  5252   0.709E-02    0.124E-01
RMM:   4    -0.231571632947E+04    0.82061E-04   -0.89864E-04  4124   0.142E-02    0.741E-02
RMM:   5    -0.231571625052E+04    0.78950E-04   -0.21619E-04  4279   0.111E-02    0.455E-02
RMM:   6    -0.231571624221E+04    0.83128E-05   -0.10671E-04  3859   0.791E-03    0.469E-02
RMM:   7    -0.231571622213E+04    0.20073E-04   -0.38740E-05  2894   0.637E-03    0.155E-02
RMM:   8    -0.231571621933E+04    0.28067E-05   -0.89397E-06  2874   0.321E-03
  38 F= -.23365535E+04 E0= -.23365535E+04  d E =-.387899E-02  mag=     6.0000
       N       E                     dE             d eps       ncg     rms          rms(c)
DAV:   1    -0.231571352281E+04    0.26993E-02   -0.25418E-01  4656   0.530E-01    0.164E-01
RMM:   2    -0.231571669269E+04   -0.31699E-02   -0.34118E-02  5845   0.106E-01    0.868E-02
RMM:   3    -0.231571694179E+04   -0.24910E-03   -0.37255E-03  4873   0.435E-02    0.743E-02
RMM:   4    -0.231571691558E+04    0.26209E-04   -0.37121E-04  3254   0.929E-03    0.474E-02
RMM:   5    -0.231571687812E+04    0.37467E-04   -0.94362E-05  3475   0.757E-03    0.273E-02
RMM:   6    -0.231571686573E+04    0.12384E-04   -0.40682E-05  3167   0.614E-03    0.134E-02
RMM:   7    -0.231571686557E+04    0.16333E-06   -0.12615E-05  2870   0.482E-03
  39 F= -.23365542E+04 E0= -.23365542E+04  d E =-.452251E-02  mag=     6.0000
       N       E                     dE             d eps       ncg     rms          rms(c)
DAV:   1    -0.231571511318E+04    0.17526E-02   -0.47393E-01  4480   0.695E-01    0.172E-01
RMM:   2    -0.231572004505E+04   -0.49319E-02   -0.52230E-02  5864   0.129E-01    0.105E-01
RMM:   3    -0.231572049923E+04   -0.45418E-03   -0.57224E-03  5052   0.508E-02    0.937E-02
RMM:   4    -0.231572046058E+04    0.38650E-04   -0.55347E-04  3364   0.104E-02    0.590E-02
RMM:   5    -0.231572041563E+04    0.44950E-04   -0.80028E-05  3075   0.702E-03    0.319E-02
RMM:   6    -0.231572040524E+04    0.10395E-04   -0.75198E-05  3557   0.686E-03    0.215E-02
RMM:   7    -0.231572040300E+04    0.22383E-05   -0.16871E-05  2869   0.529E-03
  40 F= -.23365577E+04 E0= -.23365577E+04  d E =-.348050E-02  mag=     6.0000
       N       E                     dE             d eps       ncg     rms          rms(c)
DAV:   1    -0.231567850860E+04    0.41897E-01   -0.42646E+00  4456   0.209E+00    0.518E-01
RMM:   2    -0.231572294956E+04   -0.44441E-01   -0.47038E-01  5784   0.385E-01    0.330E-01
RMM:   3    -0.231572719659E+04   -0.42470E-02   -0.53299E-02  5434   0.157E-01    0.311E-01
RMM:   4    -0.231572662895E+04    0.56764E-03   -0.51081E-03  5706   0.308E-02    0.176E-01
RMM:   5    -0.231572622946E+04    0.39949E-03   -0.71132E-04  4816   0.175E-02    0.979E-02
RMM:   6    -0.231572608282E+04    0.14664E-03   -0.69098E-04  4784   0.170E-02    0.398E-02
RMM:   7    -0.231572607287E+04    0.99585E-05   -0.94031E-05  3720   0.112E-02
  41 F= -.23365631E+04 E0= -.23365631E+04  d E =-.896989E-02  mag=     6.0000
       N       E                     dE             d eps       ncg     rms          rms(c)
DAV:   1    -0.231572166967E+04    0.44132E-02   -0.41827E-01  4688   0.654E-01    0.165E-01
RMM:   2    -0.231572602601E+04   -0.43563E-02   -0.46553E-02  5853   0.121E-01    0.105E-01
RMM:   3    -0.231572644442E+04   -0.41841E-03   -0.52439E-03  4850   0.461E-02    0.994E-02
RMM:   4    -0.231572638473E+04    0.59689E-04   -0.50102E-04  3275   0.100E-02    0.528E-02
RMM:   5    -0.231572634472E+04    0.40011E-04   -0.71523E-05  3063   0.670E-03    0.294E-02
RMM:   6    -0.231572633171E+04    0.13011E-04   -0.69020E-05  3531   0.668E-03    0.161E-02
RMM:   7    -0.231572633130E+04    0.40731E-06   -0.14845E-05  2880   0.529E-03
  42 F= -.23365633E+04 E0= -.23365633E+04  d E =-.916880E-02  mag=     6.0000
       N       E                     dE             d eps       ncg     rms          rms(c)
DAV:   1    -0.231572119268E+04    0.51390E-02   -0.80897E-01  4496   0.904E-01    0.234E-01
RMM:   2    -0.231572953242E+04   -0.83397E-02   -0.86394E-02  5769   0.164E-01    0.190E-01
RMM:   3    -0.231573013715E+04   -0.60473E-03   -0.91073E-03  5259   0.693E-02    0.163E-01
RMM:   4    -0.231572994566E+04    0.19149E-03   -0.10004E-03  4316   0.146E-02    0.721E-02
RMM:   5    -0.231572991176E+04    0.33893E-04   -0.14389E-04  3100   0.866E-03    0.650E-02
RMM:   6    -0.231572987120E+04    0.40567E-04   -0.13365E-04  3637   0.813E-03    0.382E-02
RMM:   7    -0.231572985972E+04    0.11474E-04   -0.45401E-05  3029   0.679E-03    0.135E-02
RMM:   8    -0.231572985877E+04    0.95324E-06   -0.89649E-06  2869   0.442E-03
  43 F= -.23365669E+04 E0= -.23365669E+04  d E =-.358900E-02  mag=     6.0000
       N       E                     dE             d eps       ncg     rms          rms(c)
DAV:   1    -0.231570449618E+04    0.25364E-01   -0.25803E+00  4472   0.161E+00    0.419E-01
RMM:   2    -0.231573134715E+04   -0.26851E-01   -0.27709E-01  5742   0.292E-01    0.354E-01
RMM:   3    -0.231573312130E+04   -0.17742E-02   -0.28808E-02  5404   0.118E-01    0.297E-01
RMM:   4    -0.231573246776E+04    0.65354E-03   -0.31658E-03  5464   0.257E-02    0.131E-01
RMM:   5    -0.231573236708E+04    0.10069E-03   -0.49516E-04  4259   0.136E-02    0.119E-01
RMM:   6    -0.231573222084E+04    0.14624E-03   -0.43722E-04  4537   0.127E-02    0.664E-02
RMM:   7    -0.231573218250E+04    0.38345E-04   -0.14027E-04  3888   0.103E-02    0.212E-02
RMM:   8    -0.231573217863E+04    0.38633E-05   -0.18636E-05  2918   0.503E-03
  44 F= -.23365694E+04 E0= -.23365694E+04  d E =-.601478E-02  mag=     6.0000
       N       E                     dE             d eps       ncg     rms          rms(c)
DAV:   1    -0.231572080141E+04    0.11381E-01   -0.11034E+00  4484   0.106E+00    0.306E-01
RMM:   2    -0.231573550788E+04   -0.14706E-01   -0.14870E-01  5833   0.202E-01    0.313E-01
RMM:   3    -0.231573602786E+04   -0.51998E-03   -0.16060E-02  5409   0.849E-02    0.196E-01
RMM:   4    -0.231573581254E+04    0.21532E-03   -0.17834E-03  4898   0.180E-02    0.965E-02
RMM:   5    -0.231573576321E+04    0.49330E-04   -0.21585E-04  3149   0.976E-03    0.858E-02
RMM:   6    -0.231573566649E+04    0.96724E-04   -0.18724E-04  4085   0.929E-03    0.394E-02
RMM:   7    -0.231573565298E+04    0.13501E-04   -0.86517E-05  3382   0.844E-03    0.110E-02
RMM:   8    -0.231573565245E+04    0.52960E-06   -0.10653E-05  2871   0.452E-03
  45 F= -.23365730E+04 E0= -.23365730E+04  d E =-.361761E-02  mag=     6.0000
       N       E                     dE             d eps       ncg     rms          rms(c)
DAV:   1    -0.231570624441E+04    0.29409E-01   -0.22183E+00  4472   0.150E+00    0.434E-01
RMM:   2    -0.231573600682E+04   -0.29762E-01   -0.30044E-01  5794   0.286E-01    0.453E-01
RMM:   3    -0.231573693852E+04   -0.93170E-03   -0.32689E-02  5441   0.121E-01    0.277E-01
RMM:   4    -0.231573653237E+04    0.40615E-03   -0.36129E-03  5325   0.256E-02    0.143E-01
RMM:   5    -0.231573641692E+04    0.11545E-03   -0.44458E-04  3753   0.130E-02    0.120E-01
RMM:   6    -0.231573621774E+04    0.19917E-03   -0.36991E-04  4429   0.124E-02    0.551E-02
RMM:   7    -0.231573618850E+04    0.29249E-04   -0.17698E-04  4011   0.114E-02    0.155E-02
RMM:   8    -0.231573618626E+04    0.22400E-05   -0.17640E-05  2888   0.487E-03
  46 F= -.23365737E+04 E0= -.23365737E+04  d E =-.434727E-02  mag=     6.0000
       N       E                     dE             d eps       ncg     rms          rms(c)
DAV:   1    -0.231573329426E+04    0.28942E-02   -0.24446E-01  4544   0.497E-01    0.141E-01
RMM:   2    -0.231573649823E+04   -0.32040E-02   -0.32580E-02  5977   0.946E-02    0.137E-01
RMM:   3    -0.231573666818E+04   -0.16995E-03   -0.35595E-03  4558   0.399E-02    0.971E-02
RMM:   4    -0.231573660291E+04    0.65272E-04   -0.38362E-04  3197   0.914E-03    0.412E-02
RMM:   5    -0.231573659362E+04    0.92840E-05   -0.50816E-05  2912   0.543E-03
  47 F= -.23365740E+04 E0= -.23365740E+04  d E =-.469063E-02  mag=     6.0000
       N       E                     dE             d eps       ncg     rms          rms(c)
DAV:   1    -0.231572089643E+04    0.15706E-01   -0.11371E+00  4484   0.103E+00    0.328E-01
RMM:   2    -0.231573898836E+04   -0.18092E-01   -0.18301E-01  5912   0.206E-01    0.356E-01
RMM:   3    -0.231573969453E+04   -0.70617E-03   -0.20139E-02  5412   0.887E-02    0.212E-01
RMM:   4    -0.231573950781E+04    0.18672E-03   -0.22500E-03  4798   0.186E-02    0.111E-01
RMM:   5    -0.231573942423E+04    0.83582E-04   -0.23283E-04  3153   0.924E-03    0.823E-02
RMM:   6    -0.231573932465E+04    0.99574E-04   -0.16091E-04  3788   0.845E-03    0.397E-02
RMM:   7    -0.231573930866E+04    0.15993E-04   -0.10981E-04  3470   0.829E-03    0.124E-02
RMM:   8    -0.231573930793E+04    0.72722E-06   -0.11799E-05  2891   0.470E-03
  48 F= -.23365769E+04 E0= -.23365769E+04  d E =-.288291E-02  mag=     6.0000
       N       E                     dE             d eps       ncg     rms          rms(c)
DAV:   1    -0.231572523112E+04    0.14078E-01   -0.90334E-01  4472   0.922E-01    0.287E-01
RMM:   2    -0.231573951234E+04   -0.14281E-01   -0.14505E-01  5895   0.183E-01    0.302E-01
RMM:   3    -0.231574014919E+04   -0.63685E-03   -0.15775E-02  5381   0.777E-02    0.183E-01
RMM:   4    -0.231574000729E+04    0.14190E-03   -0.17599E-03  4459   0.164E-02    0.954E-02
RMM:   5    -0.231573995215E+04    0.55140E-04   -0.18148E-04  3095   0.847E-03    0.776E-02
RMM:   6    -0.231573987027E+04    0.81875E-04   -0.14573E-04  3678   0.797E-03    0.365E-02
RMM:   7    -0.231573985920E+04    0.11072E-04   -0.82430E-05  3255   0.748E-03    0.119E-02
RMM:   8    -0.231573985851E+04    0.69465E-06   -0.10321E-05  2883   0.459E-03
  49 F= -.23365776E+04 E0= -.23365776E+04  d E =-.357841E-02  mag=     6.0000
       N       E                     dE             d eps       ncg     rms          rms(c)
DAV:   1    -0.231572124513E+04    0.18614E-01   -0.13662E+00  4472   0.113E+00    0.345E-01
RMM:   2    -0.231574156348E+04   -0.20318E-01   -0.20972E-01  5888   0.223E-01    0.290E-01
RMM:   3    -0.231574321413E+04   -0.16507E-02   -0.23639E-02  5433   0.957E-02    0.218E-01
RMM:   4    -0.231574296289E+04    0.25124E-03   -0.25622E-03  4821   0.197E-02    0.111E-01
RMM:   5    -0.231574288243E+04    0.80464E-04   -0.27888E-04  3486   0.998E-03    0.955E-02
RMM:   6    -0.231574277886E+04    0.10357E-03   -0.23314E-04  3760   0.937E-03    0.462E-02
RMM:   7    -0.231574276289E+04    0.15966E-04   -0.11180E-04  3603   0.817E-03    0.212E-02
RMM:   8    -0.231574275965E+04    0.32398E-05   -0.20561E-05  2880   0.548E-03
  50 F= -.23365805E+04 E0= -.23365805E+04  d E =-.291813E-02  mag=     6.0000
       N       E                     dE             d eps       ncg     rms          rms(c)
DAV:   1    -0.231569734802E+04    0.45415E-01   -0.29133E+00  4472   0.166E+00    0.505E-01
RMM:   2    -0.231574080373E+04   -0.43456E-01   -0.44767E-01  5911   0.326E-01    0.438E-01
RMM:   3    -0.231574415956E+04   -0.33558E-02   -0.50838E-02  5538   0.137E-01    0.318E-01
RMM:   4    -0.231574365267E+04    0.50688E-03   -0.54830E-03  5445   0.285E-02    0.166E-01
RMM:   5    -0.231574347327E+04    0.17940E-03   -0.58931E-04  4193   0.136E-02    0.140E-01
RMM:   6    -0.231574324452E+04    0.22875E-03   -0.50218E-04  4321   0.126E-02    0.664E-02
RMM:   7    -0.231574320973E+04    0.34798E-04   -0.23557E-04  4232   0.109E-02    0.316E-02
RMM:   8    -0.231574320169E+04    0.80401E-05   -0.41896E-05  2925   0.634E-03
  51 F= -.23365810E+04 E0= -.23365810E+04  d E =-.337118E-02  mag=     6.0000
       N       E                     dE             d eps       ncg     rms          rms(c)
DAV:   1    -0.231573722081E+04    0.59889E-02   -0.40802E-01  4528   0.619E-01    0.184E-01
RMM:   2    -0.231574315379E+04   -0.59330E-02   -0.61459E-02  5983   0.120E-01    0.142E-01
RMM:   3    -0.231574371765E+04   -0.56386E-03   -0.69193E-03  5018   0.535E-02    0.124E-01
RMM:   4    -0.231574361205E+04    0.10560E-03   -0.73007E-04  3363   0.111E-02    0.553E-02
RMM:   5    -0.231574358778E+04    0.24276E-04   -0.91389E-05  3037   0.646E-03    0.496E-02
RMM:   6    -0.231574356300E+04    0.24774E-04   -0.64913E-05  2952   0.592E-03    0.275E-02
RMM:   7    -0.231574355665E+04    0.63512E-05   -0.31007E-05  2980   0.527E-03
  52 F= -.23365814E+04 E0= -.23365814E+04  d E =-.372395E-02  mag=     6.0000
       N       E                     dE             d eps       ncg     rms          rms(c)
DAV:   1    -0.231571654106E+04    0.27022E-01   -0.17985E+00  4472   0.124E+00    0.394E-01
RMM:   2    -0.231574453010E+04   -0.27989E-01   -0.29366E-01  5946   0.247E-01    0.268E-01
RMM:   3    -0.231574710534E+04   -0.25752E-02   -0.31515E-02  5488   0.104E-01    0.210E-01
RMM:   4    -0.231574697744E+04    0.12789E-03   -0.34827E-03  4756   0.205E-02    0.136E-01
RMM:   5    -0.231574680141E+04    0.17603E-03   -0.35331E-04  3865   0.112E-02    0.906E-02
RMM:   6    -0.231574674696E+04    0.54451E-04   -0.34132E-04  4020   0.106E-02    0.733E-02
RMM:   7    -0.231574670606E+04    0.40899E-04   -0.13074E-04  3439   0.830E-03    0.329E-02
RMM:   8    -0.231574669514E+04    0.10919E-04   -0.26526E-05  2936   0.529E-03    0.127E-02
RMM:   9    -0.231574669311E+04    0.20328E-05   -0.86389E-06  2856   0.344E-03
  53 F= -.23365843E+04 E0= -.23365843E+04  d E =-.292791E-02  mag=     6.0000
       N       E                     dE             d eps       ncg     rms          rms(c)
DAV:   1    -0.231574068665E+04    0.60085E-02   -0.38416E-01  4544   0.573E-01    0.182E-01
RMM:   2    -0.231574668138E+04   -0.59947E-02   -0.63028E-02  5957   0.114E-01    0.120E-01
RMM:   3    -0.231574724219E+04   -0.56081E-03   -0.66686E-03  4827   0.507E-02    0.952E-02
RMM:   4    -0.231574721936E+04    0.22825E-04   -0.74222E-04  3212   0.998E-03    0.616E-02
RMM:   5    -0.231574718101E+04    0.38350E-04   -0.79867E-05  3033   0.617E-03    0.398E-02
RMM:   6    -0.231574717272E+04    0.82970E-05   -0.72863E-05  2978   0.587E-03
  54 F= -.23365847E+04 E0= -.23365847E+04  d E =-.330869E-02  mag=     6.0000
       N       E                     dE             d eps       ncg     rms          rms(c)
DAV:   1    -0.231573189639E+04    0.15285E-01   -0.11865E+00  4472   0.986E-01    0.327E-01
RMM:   2    -0.231574850508E+04   -0.16609E-01   -0.17749E-01  5933   0.190E-01    0.178E-01
RMM:   3    -0.231574996247E+04   -0.14574E-02   -0.18852E-02  5340   0.777E-02    0.106E-01
RMM:   4    -0.231575002895E+04   -0.66477E-04   -0.20926E-03  4473   0.163E-02    0.102E-01
RMM:   5    -0.231574994523E+04    0.83717E-04   -0.25676E-04  3364   0.101E-02    0.685E-02
RMM:   6    -0.231574990085E+04    0.44377E-04   -0.15809E-04  3925   0.840E-03    0.203E-02
RMM:   7    -0.231574990308E+04   -0.22242E-05   -0.29621E-05  2966   0.636E-03
  55 F= -.23365872E+04 E0= -.23365872E+04  d E =-.252436E-02  mag=     6.0000
       N       E                     dE             d eps       ncg     rms          rms(c)
DAV:   1    -0.231571207494E+04    0.37826E-01   -0.24496E+00  4472   0.142E+00    0.473E-01
RMM:   2    -0.231574662683E+04   -0.34552E-01   -0.36858E-01  5932   0.274E-01    0.278E-01
RMM:   3    -0.231574989178E+04   -0.32649E-02   -0.41126E-02  5444   0.119E-01    0.200E-01
RMM:   4    -0.231574996111E+04   -0.69330E-04   -0.45025E-03  5219   0.233E-02    0.174E-01
RMM:   5    -0.231574967357E+04    0.28754E-03   -0.58174E-04  4595   0.143E-02    0.920E-02
RMM:   6    -0.231574959020E+04    0.83371E-04   -0.40561E-04  4539   0.120E-02    0.483E-02
RMM:   7    -0.231574958575E+04    0.44438E-05   -0.94765E-05  3160   0.876E-03
  56 F= -.23365866E+04 E0= -.23365866E+04  d E =-.190363E-02  mag=     6.0000
       N       E                     dE             d eps       ncg     rms          rms(c)
DAV:   1    -0.231573768298E+04    0.11907E-01   -0.83730E-01  4496   0.828E-01    0.272E-01
RMM:   2    -0.231574944695E+04   -0.11764E-01   -0.12461E-01  5934   0.160E-01    0.165E-01
RMM:   3    -0.231575047051E+04   -0.10236E-02   -0.13400E-02  5331   0.675E-02    0.110E-01
RMM:   4    -0.231575048248E+04   -0.11965E-04   -0.14673E-03  3878   0.137E-02    0.895E-02
RMM:   5    -0.231575040416E+04    0.78319E-04   -0.20887E-04  3470   0.952E-03    0.533E-02
RMM:   6    -0.231575038791E+04    0.16246E-04   -0.13997E-04  3901   0.797E-03    0.455E-02
RMM:   7    -0.231575037276E+04    0.15150E-04   -0.42000E-05  2894   0.607E-03    0.208E-02
RMM:   8    -0.231575036950E+04    0.32618E-05   -0.85603E-06  2867   0.291E-03
  57 F= -.23365875E+04 E0= -.23365875E+04  d E =-.286564E-02  mag=     6.0000
       N       E                     dE             d eps       ncg     rms          rms(c)
DAV:   1    -0.231574393029E+04    0.64425E-02   -0.51646E-01  4496   0.620E-01    0.196E-01
RMM:   2    -0.231575150888E+04   -0.75786E-02   -0.80505E-02  6077   0.118E-01    0.119E-01
RMM:   3    -0.231575224418E+04   -0.73529E-03   -0.86973E-03  4984   0.499E-02    0.757E-02
RMM:   4    -0.231575228626E+04   -0.42081E-04   -0.96515E-04  3186   0.998E-03    0.765E-02
RMM:   5    -0.231575223730E+04    0.48954E-04   -0.10981E-04  3035   0.655E-03    0.431E-02
RMM:   6    -0.231575221902E+04    0.18285E-04   -0.80970E-05  3170   0.596E-03    0.201E-02
RMM:   7    -0.231575221898E+04    0.37020E-07   -0.17558E-05  2904   0.474E-03
  58 F= -.23365893E+04 E0= -.23365893E+04  d E =-.177337E-02  mag=     6.0000
       N       E                     dE             d eps       ncg     rms          rms(c)
DAV:   1    -0.231567959239E+04    0.72627E-01   -0.46432E+00  4472   0.186E+00    0.593E-01
RMM:   2    -0.231574827068E+04   -0.68678E-01   -0.73056E-01  6068   0.356E-01    0.367E-01
RMM:   3    -0.231575510361E+04   -0.68329E-02   -0.81162E-02  5627   0.148E-01    0.237E-01
RMM:   4    -0.231575543348E+04   -0.32987E-03   -0.87219E-03  5384   0.283E-02    0.221E-01
RMM:   5    -0.231575506549E+04    0.36799E-03   -0.89077E-04  4470   0.156E-02    0.144E-01
RMM:   6    -0.231575485705E+04    0.20844E-03   -0.66998E-04  4598   0.138E-02    0.637E-02
RMM:   7    -0.231575484779E+04    0.92646E-05   -0.17724E-04  3623   0.108E-02    0.416E-02
RMM:   8    -0.231575483768E+04    0.10106E-04   -0.56721E-05  2951   0.525E-03    0.298E-02
RMM:   9    -0.231575482547E+04    0.12208E-04   -0.18034E-05  2868   0.395E-03    0.889E-03
RMM:  10    -0.231575482336E+04    0.21102E-05   -0.85192E-06  2869   0.244E-03
  59 F= -.23365917E+04 E0= -.23365917E+04  d E =-.413902E-02  mag=     6.0000
       N       E                     dE             d eps       ncg     rms          rms(c)
DAV:   1    -0.231573810974E+04    0.16716E-01   -0.10821E+00  4484   0.903E-01    0.310E-01
RMM:   2    -0.231575636743E+04   -0.18258E-01   -0.19367E-01  5994   0.183E-01    0.191E-01
RMM:   3    -0.231575819791E+04   -0.18305E-02   -0.19876E-02  5503   0.752E-02    0.163E-01
RMM:   4    -0.231575817202E+04    0.25893E-04   -0.23259E-03  3764   0.156E-02    0.111E-01
RMM:   5    -0.231575804742E+04    0.12460E-03   -0.23260E-04  3433   0.945E-03    0.606E-02
RMM:   6    -0.231575801472E+04    0.32702E-04   -0.18131E-04  3955   0.875E-03    0.330E-02
RMM:   7    -0.231575801540E+04   -0.68170E-06   -0.47060E-05  2902   0.672E-03
  60 F= -.23365949E+04 E0= -.23365949E+04  d E =-.326144E-02  mag=     6.0000
       N       E                     dE             d eps       ncg     rms          rms(c)
DAV:   1    -0.231567075218E+04    0.87263E-01   -0.48307E+00  4472   0.191E+00    0.659E-01
RMM:   2    -0.231575250653E+04   -0.81754E-01   -0.86781E-01  6032   0.388E-01    0.420E-01
RMM:   3    -0.231576092808E+04   -0.84216E-02   -0.92995E-02  5713   0.162E-01    0.364E-01
RMM:   4    -0.231576074085E+04    0.18722E-03   -0.10513E-02  5714   0.330E-02    0.242E-01
RMM:   5    -0.231576022364E+04    0.51721E-03   -0.10047E-03  4713   0.170E-02    0.143E-01
RMM:   6    -0.231576011058E+04    0.11307E-03   -0.87418E-04  4911   0.156E-02    0.121E-01
RMM:   7    -0.231576001411E+04    0.96461E-04   -0.36281E-04  3797   0.123E-02    0.596E-02
RMM:   8    -0.231575998061E+04    0.33505E-04   -0.68869E-05  3147   0.600E-03    0.163E-02
RMM:   9    -0.231575997540E+04    0.52135E-05   -0.16863E-05  2889   0.433E-03
  61 F= -.23365970E+04 E0= -.23365970E+04  d E =-.534895E-02  mag=     6.0000
       N       E                     dE             d eps       ncg     rms          rms(c)
DAV:   1    -0.231574971009E+04    0.10271E-01   -0.60916E-01  4576   0.646E-01    0.233E-01
RMM:   2    -0.231576086686E+04   -0.11157E-01   -0.11796E-01  6113   0.135E-01    0.152E-01
RMM:   3    -0.231576202181E+04   -0.11549E-02   -0.12038E-02  5194   0.551E-02    0.136E-01
RMM:   4    -0.231576197715E+04    0.44656E-04   -0.14129E-03  3268   0.119E-02    0.813E-02
RMM:   5    -0.231576190996E+04    0.67197E-04   -0.12345E-04  3102   0.686E-03    0.459E-02
RMM:   6    -0.231576188850E+04    0.21461E-04   -0.10674E-04  3428   0.640E-03    0.196E-02
RMM:   7    -0.231576188732E+04    0.11796E-05   -0.16777E-05  2888   0.499E-03
  62 F= -.23365990E+04 E0= -.23365990E+04  d E =-.199482E-02  mag=     6.0000
       N       E                     dE             d eps       ncg     rms          rms(c)
DAV:   1    -0.231565407442E+04    0.10781E+00   -0.54686E+00  4472   0.194E+00    0.701E-01
RMM:   2    -0.231575454041E+04   -0.10047E+00   -0.10618E+00  6195   0.407E-01    0.480E-01
RMM:   3    -0.231576539700E+04   -0.10857E-01   -0.11729E-01  5772   0.171E-01    0.435E-01
RMM:   4    -0.231576490115E+04    0.49585E-03   -0.12866E-02  5637   0.353E-02    0.255E-01
RMM:   5    -0.231576436714E+04    0.53402E-03   -0.11136E-03  4503   0.169E-02    0.162E-01
RMM:   6    -0.231576423136E+04    0.13578E-03   -0.10159E-03  4852   0.155E-02    0.145E-01
RMM:   7    -0.231576407232E+04    0.15904E-03   -0.49252E-04  4116   0.128E-02    0.602E-02
RMM:   8    -0.231576404059E+04    0.31730E-04   -0.88175E-05  3193   0.657E-03    0.187E-02
RMM:   9    -0.231576403349E+04    0.70979E-05   -0.21136E-05  2891   0.472E-03
  63 F= -.23366014E+04 E0= -.23366014E+04  d E =-.437289E-02  mag=     6.0000
       N       E                     dE             d eps       ncg     rms          rms(c)
DAV:   1    -0.231576041669E+04    0.36239E-02   -0.34490E-01  4608   0.517E-01    0.190E-01
RMM:   2    -0.231576595299E+04   -0.55363E-02   -0.58734E-02  5935   0.105E-01    0.116E-01
RMM:   3    -0.231576651247E+04   -0.55948E-03   -0.60381E-03  4980   0.455E-02    0.105E-01
RMM:   4    -0.231576647783E+04    0.34646E-04   -0.73233E-04  3208   0.103E-02    0.651E-02
RMM:   5    -0.231576643498E+04    0.42842E-04   -0.94831E-05  3108   0.709E-03    0.351E-02
RMM:   6    -0.231576643394E+04    0.10458E-05   -0.67965E-05  3123   0.653E-03
  64 F= -.23366038E+04 E0= -.23366038E+04  d E =-.240478E-02  mag=     6.0000
       N       E                     dE             d eps       ncg     rms          rms(c)
DAV:   1    -0.231574709814E+04    0.19337E-01   -0.11959E+00  4472   0.963E-01    0.354E-01
RMM:   2    -0.231576616329E+04   -0.19065E-01   -0.20300E-01  5868   0.196E-01    0.205E-01
RMM:   3    -0.231576810334E+04   -0.19400E-02   -0.21519E-02  5418   0.843E-02    0.171E-01
RMM:   4    -0.231576810296E+04    0.38638E-06   -0.25413E-03  4486   0.181E-02    0.132E-01
RMM:   5    -0.231576792888E+04    0.17408E-03   -0.34730E-04  4151   0.120E-02    0.654E-02
RMM:   6    -0.231576788570E+04    0.43182E-04   -0.20003E-04  4162   0.988E-03    0.267E-02
RMM:   7    -0.231576788293E+04    0.27688E-05   -0.29052E-05  2976   0.693E-03
  65 F= -.23366052E+04 E0= -.23366052E+04  d E =-.385929E-02  mag=     6.0000
       N       E                     dE             d eps       ncg     rms          rms(c)
DAV:   1    -0.231575980623E+04    0.80795E-02   -0.61094E-01  4496   0.671E-01    0.245E-01
RMM:   2    -0.231576938257E+04   -0.95763E-02   -0.10162E-01  5928   0.138E-01    0.153E-01
RMM:   3    -0.231577037145E+04   -0.98888E-03   -0.10769E-02  5206   0.631E-02    0.137E-01
RMM:   4    -0.231577030148E+04    0.69975E-04   -0.12345E-03  3387   0.129E-02    0.831E-02
RMM:   5    -0.231577023107E+04    0.70405E-04   -0.14646E-04  3287   0.815E-03    0.445E-02
RMM:   6    -0.231577023338E+04   -0.23085E-05   -0.11747E-04  3591   0.760E-03    0.505E-02
RMM:   7    -0.231577020996E+04    0.23426E-04   -0.43024E-05  2888   0.588E-03    0.141E-02
RMM:   8    -0.231577020844E+04    0.15144E-05   -0.93636E-06  2886   0.296E-03
  66 F= -.23366074E+04 E0= -.23366074E+04  d E =-.218934E-02  mag=     6.0000
       N       E                     dE             d eps       ncg     rms          rms(c)
DAV:   1    -0.231576198800E+04    0.82220E-02   -0.52981E-01  4496   0.625E-01    0.226E-01
RMM:   2    -0.231577028675E+04   -0.82987E-02   -0.87773E-02  5861   0.128E-01    0.142E-01
RMM:   3    -0.231577111683E+04   -0.83008E-03   -0.91291E-03  5117   0.553E-02    0.126E-01
RMM:   4    -0.231577106216E+04    0.54663E-04   -0.10600E-03  3336   0.118E-02    0.782E-02
RMM:   5    -0.231577099762E+04    0.64547E-04   -0.13224E-04  3229   0.756E-03    0.416E-02
RMM:   6    -0.231577098404E+04    0.13581E-04   -0.98426E-05  3522   0.705E-03    0.294E-02
RMM:   7    -0.231577097929E+04    0.47448E-05   -0.28046E-05  2884   0.556E-03
  67 F= -.23366081E+04 E0= -.23366081E+04  d E =-.283148E-02  mag=     6.0000
       N       E                     dE             d eps       ncg     rms          rms(c)
DAV:   1    -0.231576748011E+04    0.35039E-02   -0.39686E-01  4496   0.581E-01    0.202E-01
RMM:   2    -0.231577291493E+04   -0.54348E-02   -0.58200E-02  5892   0.116E-01    0.125E-01
RMM:   3    -0.231577344015E+04   -0.52523E-03   -0.60447E-03  4998   0.498E-02    0.109E-01
RMM:   4    -0.231577340337E+04    0.36784E-04   -0.73372E-04  3439   0.112E-02    0.724E-02
RMM:   5    -0.231577336013E+04    0.43238E-04   -0.11321E-04  3170   0.794E-03    0.459E-02
RMM:   6    -0.231577335338E+04    0.67475E-05   -0.89447E-05  3072   0.724E-03
  68 F= -.23366102E+04 E0= -.23366102E+04  d E =-.214512E-02  mag=     6.0000
       N       E                     dE             d eps       ncg     rms          rms(c)
[...]
RMM:   2    -0.231581161242E+04   -0.21893E-03   -0.22031E-03  5927   0.281E-02    0.568E-02
RMM:   3    -0.231581160917E+04    0.32439E-05   -0.23618E-04  2998   0.111E-02    0.393E-02
RMM:   4    -0.231581159348E+04    0.15690E-04   -0.27182E-05  2913   0.382E-03    0.142E-02
RMM:   5    -0.231581159097E+04    0.25130E-05   -0.10258E-05  2878   0.286E-03
 153 F= -.23366448E+04 E0= -.23366448E+04  d E =-.102697E-03  mag=     6.0000
       N       E                     dE             d eps       ncg     rms          rms(c)
DAV:   1    -0.231581155290E+04    0.40579E-04   -0.38823E-03  4888   0.596E-02    0.233E-02
RMM:   2    -0.231581159120E+04   -0.38300E-04   -0.42318E-04  4611   0.136E-02    0.141E-02
RMM:   3    -0.231581159423E+04   -0.30255E-05   -0.46641E-05  2868   0.649E-03
 154 F= -.23366449E+04 E0= -.23366449E+04  d E =-.111099E-03  mag=     6.0000
       N       E                     dE             d eps       ncg     rms          rms(c)
DAV:   1    -0.231581145942E+04    0.13179E-03   -0.20081E-02  4468   0.135E-01    0.528E-02
RMM:   2    -0.231581167150E+04   -0.21209E-03   -0.22521E-03  5898   0.291E-02    0.401E-02
RMM:   3    -0.231581168300E+04   -0.11498E-04   -0.21357E-04  2979   0.108E-02    0.387E-02
RMM:   4    -0.231581167005E+04    0.12949E-04   -0.29335E-05  2913   0.382E-03    0.167E-02
RMM:   5    -0.231581166694E+04    0.31086E-05   -0.10551E-05  2871   0.285E-03
 155 F= -.23366449E+04 E0= -.23366449E+04  d E =-.717799E-04  mag=     6.0000
       N       E                     dE             d eps       ncg     rms          rms(c)
DAV:   1    -0.231581166387E+04    0.61844E-05   -0.21644E-04  5160   0.145E-02    0.650E-03
RMM:   2    -0.231581166646E+04   -0.25927E-05   -0.28149E-05  2713   0.364E-03
 156 F= -.23366449E+04 E0= -.23366449E+04  d E =-.711876E-04  mag=     6.0000
       N       E                     dE             d eps       ncg     rms          rms(c)
DAV:   1    -0.231581159083E+04    0.73037E-04   -0.14053E-02  4480   0.115E-01    0.453E-02
RMM:   2    -0.231581171872E+04   -0.12789E-03   -0.14034E-03  5848   0.247E-02    0.273E-02
RMM:   3    -0.231581172735E+04   -0.86299E-05   -0.13820E-04  2965   0.105E-02    0.301E-02
RMM:   4    -0.231581171971E+04    0.76414E-05   -0.18341E-05  2894   0.340E-03
 157 F= -.23366450E+04 E0= -.23366450E+04  d E =-.658020E-04  mag=     6.0000
       N       E                     dE             d eps       ncg     rms          rms(c)
DAV:   1    -0.231581171566E+04    0.11690E-04   -0.56642E-05  4816   0.830E-03    0.728E-03
RMM:   2    -0.231581171801E+04   -0.23451E-05   -0.11657E-05  2601   0.279E-03
 158 F= -.23366450E+04 E0= -.23366450E+04  d E =-.649715E-04  mag=     6.0000
       N       E                     dE             d eps       ncg     rms          rms(c)
DAV:   1    -0.231581167664E+04    0.39024E-04   -0.10491E-02  4496   0.980E-02    0.373E-02
RMM:   2    -0.231581176393E+04   -0.87287E-04   -0.92272E-04  5783   0.199E-02    0.313E-02
RMM:   3    -0.231581176784E+04   -0.39145E-05   -0.99446E-05  2894   0.893E-03
 159 F= -.23366450E+04 E0= -.23366450E+04  d E =-.582102E-04  mag=     6.0000
       N       E                     dE             d eps       ncg     rms          rms(c)
DAV:   1    -0.231581175863E+04    0.53008E-05   -0.37601E-05  4448   0.759E-03    0.117E-02
RMM:   2    -0.231581175981E+04   -0.11837E-05   -0.99191E-06  2500   0.320E-03
 160 F= -.23366450E+04 E0= -.23366450E+04  d E =-.505750E-04  mag=     6.0000
       N       E                     dE             d eps       ncg     rms          rms(c)
DAV:   1    -0.231581176040E+04   -0.17778E-05   -0.88885E-03  4496   0.922E-02    0.353E-02
RMM:   2    -0.231581182188E+04   -0.61476E-04   -0.69861E-04  5557   0.189E-02    0.192E-02
RMM:   3    -0.231581182426E+04   -0.23804E-05   -0.66606E-05  2889   0.835E-03
 161 F= -.23366451E+04 E0= -.23366451E+04  d E =-.541995E-04  mag=     6.0000
       N       E                     dE             d eps       ncg     rms          rms(c)
DAV:   1    -0.231581182073E+04    0.11472E-05   -0.91685E-04  5288   0.300E-02    0.173E-02
RMM:   2    -0.231581182826E+04   -0.75255E-05   -0.79622E-05  3221   0.645E-03
 162 F= -.23366451E+04 E0= -.23366451E+04  d E =-.548444E-04  mag=     6.0000
       N       E                     dE             d eps       ncg     rms          rms(c)
DAV:   1    -0.231581178474E+04    0.35993E-04   -0.90411E-03  4496   0.893E-02    0.335E-02
RMM:   2    -0.231581185844E+04   -0.73695E-04   -0.81641E-04  5524   0.197E-02    0.182E-02
RMM:   3    -0.231581186125E+04   -0.28100E-05   -0.84741E-05  2900   0.792E-03
 163 F= -.23366451E+04 E0= -.23366451E+04  d E =-.387515E-04  mag=     6.0000
       N       E                     dE             d eps       ncg     rms          rms(c)
DAV:   1    -0.231581186211E+04   -0.36747E-05   -0.92179E-05  5192   0.971E-03    0.180E-02
RMM:   2    -0.231581188490E+04   -0.22794E-04   -0.51243E-05  2893   0.375E-03    0.509E-02
RMM:   3    -0.231581185999E+04    0.24914E-04   -0.17252E-05  2442   0.285E-03    0.513E-03
RMM:   4    -0.231581186004E+04   -0.52532E-07   -0.26664E-06  1436   0.101E-03
 164 F= -.23366451E+04 E0= -.23366451E+04  d E =-.381202E-04  mag=     6.0000
       N       E                     dE             d eps       ncg     rms          rms(c)
DAV:   1    -0.231581183686E+04    0.23131E-04   -0.69322E-03  4496   0.797E-02    0.309E-02
RMM:   2    -0.231581189879E+04   -0.61928E-04   -0.60746E-04  5596   0.157E-02    0.350E-02
RMM:   3    -0.231581189313E+04    0.56539E-05   -0.56203E-05  2882   0.642E-03
 165 F= -.23366452E+04 E0= -.23366452E+04  d E =-.529955E-04  mag=     6.0000
       N       E                     dE             d eps       ncg     rms          rms(c)
DAV:   1    -0.231581187389E+04    0.24896E-04   -0.14612E-03  4768   0.367E-02    0.176E-02
RMM:   2    -0.231581188509E+04   -0.11200E-04   -0.12956E-04  3442   0.785E-03    0.148E-02
RMM:   3    -0.231581188537E+04   -0.28481E-06   -0.17648E-05  2811   0.418E-03
 166 F= -.23366452E+04 E0= -.23366452E+04  d E =-.544449E-04  mag=     6.0000
       N       E                     dE             d eps       ncg     rms          rms(c)
DAV:   1    -0.231581188377E+04    0.13199E-05   -0.48113E-03  4496   0.666E-02    0.263E-02
RMM:   2    -0.231581192378E+04   -0.40011E-04   -0.42691E-04  4898   0.141E-02    0.215E-02
RMM:   3    -0.231581192543E+04   -0.16486E-05   -0.41884E-05  2872   0.654E-03
 167 F= -.23366452E+04 E0= -.23366452E+04  d E =-.381006E-04  mag=     6.0000
       N       E                     dE             d eps       ncg     rms          rms(c)
DAV:   1    -0.231581191946E+04    0.43229E-05   -0.58779E-04  5056   0.236E-02    0.128E-02
RMM:   2    -0.231581192358E+04   -0.41252E-05   -0.54891E-05  2965   0.524E-03
 168 F= -.23366452E+04 E0= -.23366452E+04  d E =-.355495E-04  mag=     6.0000
       N       E                     dE             d eps       ncg     rms          rms(c)
DAV:   1    -0.231581192761E+04   -0.81511E-05   -0.36247E-03  4480   0.573E-02    0.240E-02
RMM:   2    -0.231581196069E+04   -0.33082E-04   -0.34146E-04  4368   0.130E-02    0.221E-02
RMM:   3    -0.231581196066E+04    0.34604E-07   -0.41748E-05  2852   0.631E-03
 169 F= -.23366453E+04 E0= -.23366453E+04  d E =-.330691E-04  mag=     6.0000
       N       E                     dE             d eps       ncg     rms          rms(c)
DAV:   1    -0.231581195171E+04    0.89816E-05   -0.22271E-03  4568   0.449E-02    0.203E-02
RMM:   2    -0.231581197264E+04   -0.20932E-04   -0.21344E-04  3843   0.997E-03    0.215E-02
RMM:   3    -0.231581197155E+04    0.10957E-05   -0.23771E-05  2852   0.481E-03
 170 F= -.23366453E+04 E0= -.23366453E+04  d E =-.407830E-04  mag=     6.0000
       N       E                     dE             d eps       ncg     rms          rms(c)
DAV:   1    -0.231581197449E+04   -0.18457E-05   -0.27723E-03  4464   0.508E-02    0.213E-02
RMM:   2    -0.231581199767E+04   -0.23186E-04   -0.25213E-04  4232   0.115E-02    0.154E-02
RMM:   3    -0.231581199950E+04   -0.18230E-05   -0.28124E-05  2831   0.569E-03
 171 F= -.23366453E+04 E0= -.23366453E+04  d E =-.320854E-04  mag=     6.0000
       N       E                     dE             d eps       ncg     rms          rms(c)
DAV:   1    -0.231581199331E+04    0.43626E-05   -0.62047E-04  4928   0.242E-02    0.126E-02
RMM:   2    -0.231581199791E+04   -0.46007E-05   -0.58820E-05  3054   0.568E-03
 172 F= -.23366453E+04 E0= -.23366453E+04  d E =-.324763E-04  mag=     6.0000
       N       E                     dE             d eps       ncg     rms          rms(c)
DAV:   1    -0.231581198428E+04    0.90296E-05   -0.29269E-03  4496   0.507E-02    0.215E-02
RMM:   2    -0.231581201003E+04   -0.25753E-04   -0.28165E-04  4133   0.119E-02    0.142E-02
RMM:   3    -0.231581201379E+04   -0.37535E-05   -0.38778E-05  2846   0.628E-03
 173 F= -.23366453E+04 E0= -.23366453E+04  d E =-.268361E-04  mag=     6.0000
       N       E                     dE             d eps       ncg     rms          rms(c)
DAV:   1    -0.231581200223E+04    0.78072E-05   -0.72703E-04  4672   0.256E-02    0.136E-02
RMM:   2    -0.231581200954E+04   -0.73170E-05   -0.75325E-05  3213   0.612E-03
 174 F= -.23366453E+04 E0= -.23366453E+04  d E =-.280660E-04  mag=     6.0000
       N       E                     dE             d eps       ncg     rms          rms(c)
DAV:   1    -0.231581200237E+04   -0.14689E-06   -0.27087E-03  4464   0.487E-02    0.230E-02
RMM:   2    -0.231581203666E+04   -0.34285E-04   -0.27257E-04  4221   0.121E-02    0.379E-02
RMM:   3    -0.231581202570E+04    0.10958E-04   -0.36064E-05  2829   0.598E-03    0.122E-02
RMM:   4    -0.231581202429E+04    0.14096E-05   -0.48891E-06  2671   0.220E-03
 175 F= -.23366454E+04 E0= -.23366454E+04  d E =-.286056E-04  mag=     6.0000
       N       E                     dE             d eps       ncg     rms          rms(c)
DAV:   1    -0.231581202313E+04    0.25744E-05   -0.22846E-05  4224   0.516E-03    0.858E-03
RMM:   2    -0.231581202690E+04   -0.37698E-05   -0.11496E-05  2421   0.275E-03
 176 F= -.23366454E+04 E0= -.23366454E+04  d E =-.325893E-04  mag=     6.0000
       N       E                     dE             d eps       ncg     rms          rms(c)
DAV:   1    -0.231581201826E+04    0.48674E-05   -0.19936E-03  4416   0.429E-02    0.174E-02
RMM:   2    -0.231581203382E+04   -0.15559E-04   -0.16841E-04  3761   0.939E-03    0.132E-02
RMM:   3    -0.231581203478E+04   -0.95848E-06   -0.18428E-05  2541   0.499E-03
 177 F= -.23366454E+04 E0= -.23366454E+04  d E =-.199000E-04  mag=     6.0000
       N       E                     dE             d eps       ncg     rms          rms(c)
DAV:   1    -0.231581202332E+04    0.10494E-04   -0.82384E-04  4448   0.275E-02    0.130E-02
RMM:   2    -0.231581202891E+04   -0.55816E-05   -0.69294E-05  3165   0.637E-03
 178 F= -.23366454E+04 E0= -.23366454E+04  d E =-.218559E-04  mag=     6.0000
       N       E                     dE             d eps       ncg     rms          rms(c)
DAV:   1    -0.231581203457E+04   -0.11245E-04   -0.18198E-03  4384   0.389E-02    0.171E-02
RMM:   2    -0.231581205129E+04   -0.16723E-04   -0.16801E-04  3713   0.929E-03    0.179E-02
RMM:   3    -0.231581205017E+04    0.11225E-05   -0.20428E-05  2716   0.493E-03
 179 F= -.23366454E+04 E0= -.23366454E+04  d E =-.233877E-04  mag=     6.0000
       N       E                     dE             d eps       ncg     rms          rms(c)
DAV:   1    -0.231581204352E+04    0.77722E-05   -0.10335E-03  4392   0.292E-02    0.139E-02
RMM:   2    -0.231581205198E+04   -0.84607E-05   -0.89038E-05  3278   0.683E-03
 180 F= -.23366454E+04 E0= -.23366454E+04  d E =-.268001E-04  mag=     6.0000
       N       E                     dE             d eps       ncg     rms          rms(c)
DAV:   1    -0.231581205145E+04   -0.79286E-05   -0.14083E-04  4880   0.117E-02    0.103E-02
RMM:   2    -0.231581205799E+04   -0.65361E-05   -0.20318E-05  2610   0.295E-03
 181 F= -.23366454E+04 E0= -.23366454E+04  d E =-.322383E-04  mag=     6.0000
       N       E                     dE             d eps       ncg     rms          rms(c)
DAV:   1    -0.231581205550E+04   -0.40475E-05   -0.16699E-03  4356   0.372E-02    0.152E-02
RMM:   2    -0.231581206720E+04   -0.11702E-04   -0.12904E-04  3485   0.817E-03    0.126E-02
RMM:   3    -0.231581206805E+04   -0.85021E-06   -0.17558E-05  2372   0.455E-03
 182 F= -.23366454E+04 E0= -.23366454E+04  d E =-.112957E-04  mag=     6.0000
       N       E                     dE             d eps       ncg     rms          rms(c)
DAV:   1    -0.231581206751E+04   -0.31496E-06   -0.23724E-04  4608   0.141E-02    0.788E-03
RMM:   2    -0.231581206898E+04   -0.14695E-05   -0.18579E-05  2522   0.347E-03
 183 F= -.23366454E+04 E0= -.23366454E+04  d E =-.126927E-04  mag=     6.0000
       N       E                     dE             d eps       ncg     rms          rms(c)
DAV:   1    -0.231581207295E+04   -0.54409E-05   -0.15952E-03  4376   0.367E-02    0.155E-02
RMM:   2    -0.231581208397E+04   -0.11017E-04   -0.11902E-04  3458   0.844E-03    0.127E-02
RMM:   3    -0.231581208515E+04   -0.11747E-05   -0.17427E-05  2601   0.490E-03
 184 F= -.23366454E+04 E0= -.23366454E+04  d E =-.234208E-04  mag=     6.0000
       N       E                     dE             d eps       ncg     rms          rms(c)
DAV:   1    -0.231581207738E+04    0.65867E-05   -0.79454E-04  4312   0.260E-02    0.127E-02
RMM:   2    -0.231581208270E+04   -0.53153E-05   -0.60920E-05  3179   0.604E-03
 185 F= -.23366455E+04 E0= -.23366455E+04  d E =-.261221E-04  mag=     6.0000
       N       E                     dE             d eps       ncg     rms          rms(c)
DAV:   1    -0.231581207967E+04   -0.22878E-05   -0.11443E-03  4256   0.292E-02    0.170E-02
RMM:   2    -0.231581209888E+04   -0.19204E-04   -0.11777E-04  3409   0.752E-03    0.354E-02
RMM:   3    -0.231581208748E+04    0.11402E-04   -0.17734E-05  2636   0.424E-03    0.766E-03
RMM:   4    -0.231581208692E+04    0.55524E-06   -0.26003E-06  2424   0.160E-03
 186 F= -.23366455E+04 E0= -.23366455E+04  d E =-.117216E-04  mag=     6.0000
       N       E                     dE             d eps       ncg     rms          rms(c)
DAV:   1    -0.231581208132E+04    0.61554E-05   -0.55558E-04  4376   0.202E-02    0.101E-02
RMM:   2    -0.231581208691E+04   -0.55905E-05   -0.48042E-05  3042   0.482E-03
 187 F= -.23366455E+04 E0= -.23366455E+04  d E =-.170372E-04  mag=     6.0000
       N       E                     dE             d eps       ncg     rms          rms(c)
DAV:   1    -0.231581208475E+04   -0.34281E-05   -0.14229E-03  4320   0.337E-02    0.145E-02
RMM:   2    -0.231581209662E+04   -0.11877E-04   -0.11796E-04  3418   0.819E-03    0.159E-02
RMM:   3    -0.231581209591E+04    0.71549E-06   -0.14810E-05  2418   0.450E-03
 188 F= -.23366455E+04 E0= -.23366455E+04  d E =-.193231E-04  mag=     6.0000
       N       E                     dE             d eps       ncg     rms          rms(c)
DAV:   1    -0.231581208835E+04    0.82731E-05   -0.87479E-04  4248   0.263E-02    0.124E-02
RMM:   2    -0.231581209408E+04   -0.57318E-05   -0.68789E-05  3166   0.635E-03
 189 F= -.23366455E+04 E0= -.23366455E+04  d E =-.256693E-04  mag=     6.0000
       N       E                     dE             d eps       ncg     rms          rms(c)
DAV:   1    -0.231581210301E+04   -0.14661E-04   -0.11208E-03  4360   0.317E-02    0.169E-02
RMM:   2    -0.231581211929E+04   -0.16281E-04   -0.11250E-04  3469   0.807E-03    0.310E-02
RMM:   3    -0.231581211100E+04    0.82907E-05   -0.15156E-05  2579   0.447E-03
 190 F= -.23366455E+04 E0= -.23366455E+04  d E =-.221617E-04  mag=     6.0000
       N       E                     dE             d eps       ncg     rms          rms(c)
DAV:   1    -0.231581210639E+04    0.12907E-04   -0.69328E-04  4448   0.247E-02    0.120E-02
RMM:   2    -0.231581211089E+04   -0.45031E-05   -0.54172E-05  3081   0.603E-03
 191 F= -.23366455E+04 E0= -.23366455E+04  d E =-.262120E-04  mag=     6.0000
       N       E                     dE             d eps       ncg     rms          rms(c)
DAV:   1    -0.231581211217E+04   -0.57878E-05   -0.56998E-05  4552   0.833E-03    0.102E-02
RMM:   2    -0.231581211953E+04   -0.73560E-05   -0.18026E-05  2506   0.293E-03
 192 F= -.23366455E+04 E0= -.23366455E+04  d E =-.337597E-04  mag=     6.0000
       N       E                     dE             d eps       ncg     rms          rms(c)
DAV:   1    -0.231581210210E+04    0.10072E-04   -0.11751E-03  4304   0.312E-02    0.132E-02
RMM:   2    -0.231581211102E+04   -0.89233E-05   -0.99721E-05  3290   0.708E-03
 193 F= -.23366455E+04 E0= -.23366455E+04  d E =-.635916E-05  mag=     6.0000
       N       E                     dE             d eps       ncg     rms          rms(c)
DAV:   1    -0.231581210884E+04   -0.67345E-05   -0.10143E-04  4960   0.992E-03    0.113E-02
RMM:   2    -0.231581211711E+04   -0.82747E-05   -0.25124E-05  2600   0.351E-03
 194 F= -.23366455E+04 E0= -.23366455E+04  d E =-.164284E-04  mag=     6.0000
       N       E                     dE             d eps       ncg     rms          rms(c)
DAV:   1    -0.231581209964E+04    0.92004E-05   -0.12373E-03  4332   0.315E-02    0.140E-02
RMM:   2    -0.231581210839E+04   -0.87557E-05   -0.10110E-04  3315   0.743E-03    0.900E-03
RMM:   3    -0.231581210909E+04   -0.69462E-06   -0.13068E-05  2385   0.430E-03
 195 F= -.23366456E+04 E0= -.23366456E+04  d E =-.831480E-05  mag=     6.0000
       N       E                     dE             d eps       ncg     rms          rms(c)
DAV:   1    -0.231581210528E+04    0.31071E-05   -0.53721E-05  4424   0.690E-03    0.675E-03
RMM:   2    -0.231581210660E+04   -0.13142E-05   -0.65234E-06  2358   0.237E-03
 196 F= -.23366456E+04 E0= -.23366456E+04  d E =-.924126E-05  mag=     6.0000
       N       E                     dE             d eps       ncg     rms          rms(c)
DAV:   1    -0.231581209835E+04    0.69303E-05   -0.12938E-03  4264   0.306E-02    0.130E-02
RMM:   2    -0.231581210838E+04   -0.10023E-04   -0.11340E-04  3273   0.716E-03    0.762E-03
RMM:   3    -0.231581210887E+04   -0.49378E-06   -0.12289E-05  2333   0.407E-03
 197 F= -.23366456E+04 E0= -.23366456E+04  d E =-.133189E-04  mag=     6.0000
       N       E                     dE             d eps       ncg     rms          rms(c)
DAV:   1    -0.231581210302E+04    0.53545E-05   -0.35051E-04  4544   0.160E-02    0.878E-03
RMM:   2    -0.231581210617E+04   -0.31485E-05   -0.32416E-05  2756   0.400E-03
 198 F= -.23366456E+04 E0= -.23366456E+04  d E =-.164139E-04  mag=     6.0000
       N       E                     dE             d eps       ncg     rms          rms(c)
DAV:   1    -0.231581210694E+04   -0.39153E-05   -0.10998E-03  4176   0.278E-02    0.124E-02
RMM:   2    -0.231581211740E+04   -0.10460E-04   -0.10858E-04  3223   0.695E-03    0.110E-02
RMM:   3    -0.231581211842E+04   -0.10255E-05   -0.15329E-05  2390   0.429E-03
 199 F= -.23366456E+04 E0= -.23366456E+04  d E =-.173536E-04  mag=     6.0000
       N       E                     dE             d eps       ncg     rms          rms(c)
DAV:   1    -0.231581210547E+04    0.11923E-04   -0.15922E-03  4356   0.334E-02    0.157E-02
RMM:   2    -0.231581212001E+04   -0.14539E-04   -0.15290E-04  3510   0.767E-03    0.145E-02
RMM:   3    -0.231581212082E+04   -0.81025E-06   -0.20966E-05  2610   0.436E-03
 200 F= -.23366456E+04 E0= -.23366456E+04  d E =-.259176E-04  mag=     6.0000
       N       E                     dE             d eps       ncg     rms          rms(c)
DAV:   1    -0.231581211583E+04    0.41846E-05   -0.12232E-03  4192   0.298E-02    0.136E-02
RMM:   2    -0.231581212720E+04   -0.11367E-04   -0.12405E-04  3347   0.715E-03    0.922E-03
RMM:   3    -0.231581212811E+04   -0.91325E-06   -0.13376E-05  2451   0.390E-03
 201 F= -.23366456E+04 E0= -.23366456E+04  d E =-.155406E-04  mag=     6.0000
