       N       E                     dE             d eps       ncg     rms          rms(c)
DAV:   1     0.129669466990E+05    0.12967E+05   -0.84106E+05  4512   0.144E+03
DAV:   2    -0.105649818018E+04   -0.14023E+05   -0.13421E+05  5144   0.331E+02
DAV:   3    -0.248050281832E+04   -0.14240E+04   -0.14086E+04  5416   0.112E+02
DAV:   4    -0.252650264105E+04   -0.46000E+02   -0.45737E+02  6784   0.302E+01
DAV:   5    -0.252730786452E+04   -0.80522E+00   -0.80373E+00  6008   0.340E+00    0.171E+02
RMM:   6    -0.149931244949E+04    0.10280E+04   -0.19276E+03  4450   0.382E+01    0.721E+01
RMM:   7    -0.166603483400E+04   -0.16672E+03   -0.28468E+02  4976   0.138E+01    0.465E+01
RMM:   8    -0.172114242957E+04   -0.55108E+02   -0.28857E+01  5272   0.644E+00    0.332E+01
RMM:   9    -0.188562110789E+04   -0.16448E+03   -0.80614E+01  4741   0.895E+00    0.264E+01
RMM:  10    -0.197125516897E+04   -0.85634E+02   -0.34842E+01  4783   0.569E+00    0.206E+01
RMM:  11    -0.206406452651E+04   -0.92809E+02   -0.39957E+01  4604   0.505E+00    0.142E+01
RMM:  12    -0.220463328543E+04   -0.14057E+03   -0.10256E+02  4459   0.746E+00    0.102E+01
RMM:  13    -0.229735378364E+04   -0.92720E+02   -0.93217E+01  4616   0.671E+00    0.742E+00
RMM:  14    -0.230971556870E+04   -0.12362E+02   -0.16954E+01  4739   0.406E+00    0.547E+00
RMM:  15    -0.231579819910E+04   -0.60826E+01   -0.75604E+00  4673   0.159E+00    0.291E+00
RMM:  16    -0.232058038782E+04   -0.47822E+01   -0.46180E+00  4828   0.175E+00    0.172E+00
RMM:  17    -0.232154483068E+04   -0.96444E+00   -0.12508E+00  5047   0.758E-01    0.967E-01
RMM:  18    -0.232190950524E+04   -0.36467E+00   -0.37281E-01  4849   0.422E-01    0.489E-01
RMM:  19    -0.232201432146E+04   -0.10482E+00   -0.99367E-02  4714   0.220E-01    0.279E-01
RMM:  20    -0.232205862737E+04   -0.44306E-01   -0.34615E-02  4699   0.146E-01    0.172E-01
RMM:  21    -0.232208054141E+04   -0.21914E-01   -0.10372E-02  4611   0.849E-02    0.109E-01
RMM:  22    -0.232209874505E+04   -0.18204E-01   -0.64776E-03  4484   0.619E-02    0.689E-02
RMM:  23    -0.232210682562E+04   -0.80806E-02   -0.24378E-03  4624   0.422E-02    0.431E-02
RMM:  24    -0.232211174452E+04   -0.49189E-02   -0.17206E-03  4550   0.290E-02    0.224E-02
RMM:  25    -0.232211306523E+04   -0.13207E-02   -0.45312E-04  4176   0.205E-02    0.126E-02
RMM:  26    -0.232211362991E+04   -0.56468E-03   -0.18046E-04  3827   0.910E-03    0.758E-03
RMM:  27    -0.232211382293E+04   -0.19302E-03   -0.46011E-05  3406   0.777E-03    0.446E-03
RMM:  28    -0.232211396281E+04   -0.13988E-03   -0.38590E-05  3292   0.442E-03    0.246E-03
RMM:  29    -0.232211399584E+04   -0.33028E-04   -0.89319E-06  2855   0.374E-03    0.158E-03
RMM:  30    -0.232211400654E+04   -0.10704E-04   -0.58193E-06  2753   0.247E-03    0.947E-04
RMM:  31    -0.232211400811E+04   -0.15702E-05   -0.25962E-06  2469   0.226E-03
   1 F= -.23430207E+04 E0= -.23430207E+04  d E =-.234302E+04  mag=     8.0000
       N       E                     dE             d eps       ncg     rms          rms(c)
DAV:   1    -0.232210564464E+04    0.83619E-02   -0.24622E+00  5214   0.109E+00    0.457E-01
RMM:   2    -0.232211967900E+04   -0.14034E-01   -0.16409E-01  5300   0.209E-01    0.280E-01
RMM:   3    -0.232211879035E+04    0.88866E-03   -0.15271E-02  4839   0.104E-01    0.195E-01
RMM:   4    -0.232211848069E+04    0.30965E-03   -0.22981E-03  4772   0.266E-02    0.176E-01
RMM:   5    -0.232211820515E+04    0.27554E-03   -0.11033E-03  4676   0.229E-02    0.925E-02
RMM:   6    -0.232211811299E+04    0.92162E-04   -0.18178E-04  3811   0.957E-03    0.322E-02
RMM:   7    -0.232211810469E+04    0.82990E-05   -0.54803E-05  3024   0.679E-03
   2 F= -.23430256E+04 E0= -.23430256E+04  d E =-.490877E-02  mag=     8.0000
       N       E                     dE             d eps       ncg     rms          rms(c)
DAV:   1    -0.232212067055E+04   -0.25576E-02   -0.42018E-01  4846   0.456E-01    0.187E-01
RMM:   2    -0.232212298969E+04   -0.23191E-02   -0.26919E-02  5486   0.864E-02    0.117E-01
RMM:   3    -0.232212287916E+04    0.11053E-03   -0.25955E-03  4418   0.416E-02    0.848E-02
RMM:   4    -0.232212283234E+04    0.46818E-04   -0.37553E-04  3715   0.111E-02    0.813E-02
RMM:   5    -0.232212276371E+04    0.68630E-04   -0.18259E-04  3367   0.971E-03    0.289E-02
RMM:   6    -0.232212275902E+04    0.46868E-05   -0.33528E-05  2951   0.567E-03
   3 F= -.23430299E+04 E0= -.23430299E+04  d E =-.922597E-02  mag=     8.0000
       N       E                     dE             d eps       ncg     rms          rms(c)
DAV:   1    -0.232211734962E+04    0.54141E-02   -0.95921E-01  4720   0.814E-01    0.323E-01
RMM:   2    -0.232213048711E+04   -0.13137E-01   -0.13905E-01  5726   0.155E-01    0.233E-01
RMM:   3    -0.232213143813E+04   -0.95101E-03   -0.14232E-02  5026   0.729E-02    0.153E-01
RMM:   4    -0.232213134759E+04    0.90534E-04   -0.15467E-03  4120   0.160E-02    0.968E-02
RMM:   5    -0.232213123732E+04    0.11027E-03   -0.31420E-04  3956   0.118E-02    0.526E-02
RMM:   6    -0.232213121093E+04    0.26394E-04   -0.13890E-04  3768   0.862E-03    0.396E-02
RMM:   7    -0.232213119895E+04    0.11977E-04   -0.41528E-05  2906   0.652E-03    0.229E-02
RMM:   8    -0.232213119307E+04    0.58802E-05   -0.15321E-05  2898   0.332E-03
   4 F= -.23430390E+04 E0= -.23430390E+04  d E =-.904034E-02  mag=     8.0000
       N       E                     dE             d eps       ncg     rms          rms(c)
DAV:   1    -0.232212688968E+04    0.43093E-02   -0.37649E-01  4752   0.509E-01    0.202E-01
RMM:   2    -0.232213201072E+04   -0.51210E-02   -0.54467E-02  5754   0.977E-02    0.136E-01
RMM:   3    -0.232213242859E+04   -0.41787E-03   -0.58941E-03  4313   0.454E-02    0.870E-02
RMM:   4    -0.232213241255E+04    0.16035E-04   -0.66165E-04  3306   0.103E-02    0.604E-02
RMM:   5    -0.232213236867E+04    0.43885E-04   -0.13436E-04  3226   0.788E-03    0.356E-02
RMM:   6    -0.232213235389E+04    0.14773E-04   -0.55067E-05  3106   0.635E-03    0.233E-02
RMM:   7    -0.232213234980E+04    0.40943E-05   -0.18489E-05  2892   0.497E-03
   5 F= -.23430405E+04 E0= -.23430405E+04  d E =-.105733E-01  mag=     8.0000
       N       E                     dE             d eps       ncg     rms          rms(c)
DAV:   1    -0.232212257580E+04    0.97781E-02   -0.10499E+00  4608   0.836E-01    0.369E-01
RMM:   2    -0.232213852208E+04   -0.15946E-01   -0.16677E-01  5854   0.166E-01    0.226E-01
RMM:   3    -0.232213991750E+04   -0.13954E-02   -0.17222E-02  5137   0.792E-02    0.158E-01
RMM:   4    -0.232213985641E+04    0.61083E-04   -0.19818E-03  3989   0.161E-02    0.885E-02
RMM:   5    -0.232213977801E+04    0.78405E-04   -0.22015E-04  3523   0.103E-02    0.480E-02
RMM:   6    -0.232213975817E+04    0.19841E-04   -0.12473E-04  3884   0.814E-03    0.270E-02
RMM:   7    -0.232213975358E+04    0.45859E-05   -0.27106E-05  2901   0.626E-03
   6 F= -.23430481E+04 E0= -.23430481E+04  d E =-.759575E-02  mag=     8.0000
       N       E                     dE             d eps       ncg     rms          rms(c)
DAV:   1    -0.232199412377E+04    0.14563E+00   -0.89542E+00  4560   0.246E+00    0.109E+00
RMM:   2    -0.232213264384E+04   -0.13852E+00   -0.14470E+00  5872   0.490E-01    0.698E-01
RMM:   3    -0.232214380547E+04   -0.11162E-01   -0.15010E-01  5472   0.219E-01    0.470E-01
RMM:   4    -0.232214309774E+04    0.70773E-03   -0.15866E-02  5425   0.457E-02    0.259E-01
RMM:   5    -0.232214242921E+04    0.66853E-03   -0.19218E-03  4997   0.260E-02    0.156E-01
RMM:   6    -0.232214226313E+04    0.16608E-03   -0.11443E-03  4827   0.190E-02    0.124E-01
RMM:   7    -0.232214216874E+04    0.94385E-04   -0.39112E-04  4148   0.139E-02    0.770E-02
RMM:   8    -0.232214211385E+04    0.54894E-04   -0.11283E-04  3177   0.629E-03    0.257E-02
RMM:   9    -0.232214210181E+04    0.12041E-04   -0.26321E-05  2900   0.475E-03    0.104E-02
RMM:  10    -0.232214209711E+04    0.46928E-05   -0.13885E-05  2900   0.326E-03
   7 F= -.23430509E+04 E0= -.23430509E+04  d E =-.104176E-01  mag=     8.0000
       N       E                     dE             d eps       ncg     rms          rms(c)
DAV:   1    -0.232212131737E+04    0.20784E-01   -0.14274E+00  4624   0.984E-01    0.427E-01
RMM:   2    -0.232214282428E+04   -0.21507E-01   -0.22490E-01  5878   0.193E-01    0.245E-01
RMM:   3    -0.232214480775E+04   -0.19835E-02   -0.23483E-02  5282   0.926E-02    0.170E-01
RMM:   4    -0.232214476391E+04    0.43846E-04   -0.26585E-03  4324   0.185E-02    0.105E-01
RMM:   5    -0.232214465680E+04    0.10711E-03   -0.29381E-04  3898   0.114E-02    0.600E-02
RMM:   6    -0.232214463461E+04    0.22187E-04   -0.17833E-04  3874   0.912E-03    0.450E-02
RMM:   7    -0.232214462289E+04    0.11722E-04   -0.52107E-05  2929   0.682E-03    0.258E-02
RMM:   8    -0.232214461669E+04    0.62000E-05   -0.14229E-05  2895   0.327E-03
   8 F= -.23430533E+04 E0= -.23430533E+04  d E =-.127612E-01  mag=     8.0000
       N       E                     dE             d eps       ncg     rms          rms(c)
DAV:   1    -0.232213486905E+04    0.97538E-02   -0.79109E-01  4576   0.635E-01    0.311E-01
RMM:   2    -0.232214982861E+04   -0.14960E-01   -0.15377E-01  6094   0.138E-01    0.210E-01
RMM:   3    -0.232215112877E+04   -0.13002E-02   -0.14965E-02  4982   0.622E-02    0.135E-01
RMM:   4    -0.232215110866E+04    0.20115E-04   -0.17429E-03  3204   0.129E-02    0.749E-02
RMM:   5    -0.232215105896E+04    0.49699E-04   -0.11396E-04  2935   0.655E-03    0.432E-02
RMM:   6    -0.232215104338E+04    0.15577E-04   -0.82000E-05  3138   0.618E-03    0.232E-02
RMM:   7    -0.232215103958E+04    0.37998E-05   -0.19958E-05  2893   0.505E-03
   9 F= -.23430597E+04 E0= -.23430597E+04  d E =-.640983E-02  mag=     8.0000
       N       E                     dE             d eps       ncg     rms          rms(c)
DAV:   1    -0.232201756852E+04    0.13347E+00   -0.71079E+00  4528   0.191E+00    0.940E-01
RMM:   2    -0.232215344876E+04   -0.13588E+00   -0.13973E+00  6158   0.419E-01    0.665E-01
RMM:   3    -0.232216549996E+04   -0.12051E-01   -0.14703E-01  5711   0.186E-01    0.419E-01
RMM:   4    -0.232216538947E+04    0.11049E-03   -0.15905E-02  5249   0.374E-02    0.231E-01
RMM:   5    -0.232216497949E+04    0.40998E-03   -0.11393E-03  4183   0.163E-02    0.154E-01
RMM:   6    -0.232216487914E+04    0.10036E-03   -0.92179E-04  4472   0.149E-02    0.131E-01
RMM:   7    -0.232216476924E+04    0.10990E-03   -0.33111E-04  3473   0.112E-02    0.642E-02
RMM:   8    -0.232216474246E+04    0.26778E-04   -0.10320E-04  2967   0.655E-03    0.250E-02
RMM:   9    -0.232216473759E+04    0.48709E-05   -0.20338E-05  2879   0.450E-03
  10 F= -.23430732E+04 E0= -.23430732E+04  d E =-.199962E-01  mag=     8.0000
       N       E                     dE             d eps       ncg     rms          rms(c)
DAV:   1    -0.232156534209E+04    0.59940E+00   -0.28393E+01  4504   0.382E+00    0.190E+00
RMM:   2    -0.232212385101E+04   -0.55851E+00   -0.57310E+00  6182   0.862E-01    0.145E+00
RMM:   3    -0.232216967683E+04   -0.45826E-01   -0.63094E-01  5786   0.367E-01    0.832E-01
RMM:   4    -0.232216957803E+04    0.98803E-04   -0.62116E-02  5650   0.748E-02    0.466E-01
RMM:   5    -0.232216816961E+04    0.14084E-02   -0.47246E-03  5077   0.308E-02    0.345E-01
RMM:   6    -0.232216745320E+04    0.71640E-03   -0.35990E-03  5059   0.267E-02    0.257E-01
RMM:   7    -0.232216704705E+04    0.40616E-03   -0.13445E-03  4690   0.205E-02    0.129E-01
RMM:   8    -0.232216695752E+04    0.89527E-04   -0.48971E-04  3997   0.119E-02    0.610E-02
RMM:   9    -0.232216692386E+04    0.33667E-04   -0.86018E-05  2943   0.753E-03    0.178E-02
RMM:  10    -0.232216692314E+04    0.71753E-06   -0.26035E-05  2929   0.370E-03
  11 F= -.23430749E+04 E0= -.23430749E+04  d E =-.216488E-01  mag=     8.0000
       N       E                     dE             d eps       ncg     rms          rms(c)
DAV:   1    -0.232205025877E+04    0.11667E+00   -0.57915E+00  4528   0.174E+00    0.839E-01
RMM:   2    -0.232216022045E+04   -0.10996E+00   -0.11304E+00  6105   0.377E-01    0.575E-01
RMM:   3    -0.232217063171E+04   -0.10411E-01   -0.11995E-01  5661   0.181E-01    0.373E-01
RMM:   4    -0.232217065230E+04   -0.20582E-04   -0.12845E-02  5094   0.341E-02    0.207E-01
RMM:   5    -0.232217034633E+04    0.30597E-03   -0.88625E-04  3902   0.147E-02    0.144E-01
RMM:   6    -0.232217023437E+04    0.11196E-03   -0.64291E-04  4196   0.130E-02    0.115E-01
RMM:   7    -0.232217015627E+04    0.78103E-04   -0.29307E-04  3552   0.104E-02    0.662E-02
RMM:   8    -0.232217012615E+04    0.30121E-04   -0.93796E-05  2942   0.668E-03    0.220E-02
RMM:   9    -0.232217012292E+04    0.32308E-05   -0.15108E-05  2889   0.416E-03
  12 F= -.23430784E+04 E0= -.23430784E+04  d E =-.251382E-01  mag=     8.0000
       N       E                     dE             d eps       ncg     rms          rms(c)
DAV:   1    -0.232215217251E+04    0.17954E-01   -0.11536E+00  4560   0.750E-01    0.383E-01
RMM:   2    -0.232217607695E+04   -0.23904E-01   -0.24439E-01  6284   0.169E-01    0.265E-01
RMM:   3    -0.232217800737E+04   -0.19304E-02   -0.22429E-02  5109   0.713E-02    0.169E-01
RMM:   4    -0.232217797344E+04    0.33929E-04   -0.26886E-03  3333   0.151E-02    0.887E-02
RMM:   5    -0.232217790593E+04    0.67515E-04   -0.14594E-04  2964   0.680E-03    0.550E-02
RMM:   6    -0.232217788689E+04    0.19033E-04   -0.13246E-04  3378   0.672E-03    0.417E-02
RMM:   7    -0.232217787619E+04    0.10699E-04   -0.39650E-05  2892   0.549E-03    0.230E-02
RMM:   8    -0.232217787238E+04    0.38137E-05   -0.12371E-05  2843   0.242E-03
  13 F= -.23430861E+04 E0= -.23430861E+04  d E =-.773706E-02  mag=     8.0000
       N       E                     dE             d eps       ncg     rms          rms(c)
DAV:   1    -0.232196294327E+04    0.21493E+00   -0.10361E+01  4508   0.226E+00    0.116E+00
RMM:   2    -0.232218013491E+04   -0.21719E+00   -0.22238E+00  6260   0.514E-01    0.829E-01
RMM:   3    -0.232219890457E+04   -0.18770E-01   -0.22731E-01  5792   0.218E-01    0.527E-01
RMM:   4    -0.232219866945E+04    0.23512E-03   -0.24324E-02  5306   0.444E-02    0.278E-01
RMM:   5    -0.232219809921E+04    0.57024E-03   -0.14473E-03  4013   0.167E-02    0.192E-01
RMM:   6    -0.232219792211E+04    0.17710E-03   -0.12436E-03  4560   0.163E-02    0.169E-01
RMM:   7    -0.232219774067E+04    0.18144E-03   -0.55912E-04  3905   0.133E-02    0.839E-02
RMM:   8    -0.232219769232E+04    0.48353E-04   -0.18302E-04  3136   0.795E-03    0.316E-02
RMM:   9    -0.232219768356E+04    0.87598E-05   -0.31066E-05  2889   0.536E-03
  14 F= -.23431058E+04 E0= -.23431058E+04  d E =-.274056E-01  mag=     8.0000
       N       E                     dE             d eps       ncg     rms          rms(c)
DAV:   1    -0.232125417970E+04    0.94351E+00   -0.41347E+01  4488   0.451E+00    0.234E+00
RMM:   2    -0.232215109717E+04   -0.89692E+00   -0.91765E+00  6388   0.106E+00    0.178E+00
RMM:   3    -0.232222538247E+04   -0.74285E-01   -0.98833E-01  5937   0.437E-01    0.106E+00
RMM:   4    -0.232222469371E+04    0.68876E-03   -0.96013E-02  5732   0.897E-02    0.571E-01
RMM:   5    -0.232222266018E+04    0.20335E-02   -0.62774E-03  5023   0.318E-02    0.423E-01
RMM:   6    -0.232222144820E+04    0.12120E-02   -0.47999E-03  5194   0.296E-02    0.328E-01
RMM:   7    -0.232222077847E+04    0.66973E-03   -0.23292E-03  4898   0.250E-02    0.172E-01
RMM:   8    -0.232222060128E+04    0.17719E-03   -0.87336E-04  4415   0.155E-02    0.752E-02
RMM:   9    -0.232222054783E+04    0.53443E-04   -0.13385E-04  3075   0.851E-03    0.227E-02
RMM:  10    -0.232222054414E+04    0.36974E-05   -0.38088E-05  2956   0.439E-03
  15 F= -.23431279E+04 E0= -.23431279E+04  d E =-.495465E-01  mag=     8.0000
       N       E                     dE             d eps       ncg     rms          rms(c)
DAV:   1    -0.232206660700E+04    0.15394E+00   -0.73287E+00  4512   0.193E+00    0.103E+00
RMM:   2    -0.232223183124E+04   -0.16522E+00   -0.16892E+00  6243   0.457E-01    0.743E-01
RMM:   3    -0.232224608213E+04   -0.14251E-01   -0.17078E-01  5784   0.195E-01    0.499E-01
RMM:   4    -0.232224556971E+04    0.51242E-03   -0.18089E-02  5302   0.403E-02    0.238E-01
RMM:   5    -0.232224513447E+04    0.43524E-03   -0.11191E-03  4125   0.164E-02    0.163E-01
RMM:   6    -0.232224504228E+04    0.92197E-04   -0.90664E-04  4613   0.152E-02    0.155E-01
RMM:   7    -0.232224489103E+04    0.15124E-03   -0.43969E-04  3922   0.122E-02    0.763E-02
RMM:   8    -0.232224485456E+04    0.36474E-04   -0.14639E-04  3022   0.765E-03    0.252E-02
RMM:   9    -0.232224485144E+04    0.31201E-05   -0.23527E-05  2891   0.493E-03
  16 F= -.23431522E+04 E0= -.23431522E+04  d E =-.242897E-01  mag=     8.0000
       N       E                     dE             d eps       ncg     rms          rms(c)
DAV:   1    -0.232078847826E+04    0.14564E+01   -0.58044E+01  4472   0.546E+00    0.294E+00
RMM:   2    -0.232215408054E+04   -0.13656E+01   -0.13983E+01  6356   0.135E+00    0.215E+00
RMM:   3    -0.232227520907E+04   -0.12113E+00   -0.14984E+00  5975   0.537E-01    0.140E+00
RMM:   4    -0.232227182348E+04    0.33856E-02   -0.14026E-01  5809   0.113E-01    0.699E-01
RMM:   5    -0.232226853750E+04    0.32860E-02   -0.99302E-03  5289   0.426E-02    0.505E-01
RMM:   6    -0.232226705955E+04    0.14779E-02   -0.72258E-03  5351   0.376E-02    0.425E-01
RMM:   7    -0.232226592568E+04    0.11339E-02   -0.36411E-03  5182   0.310E-02    0.231E-01
RMM:   8    -0.232226560423E+04    0.32146E-03   -0.15996E-03  4875   0.205E-02    0.904E-02
RMM:   9    -0.232226553758E+04    0.66647E-04   -0.20355E-04  3373   0.102E-02    0.311E-02
RMM:  10    -0.232226553545E+04    0.21287E-05   -0.60130E-05  2991   0.535E-03
  17 F= -.23431722E+04 E0= -.23431722E+04  d E =-.443026E-01  mag=     8.0000
       N       E                     dE             d eps       ncg     rms          rms(c)
DAV:   1    -0.232220079842E+04    0.64739E-01   -0.27349E+00  4528   0.118E+00    0.625E-01
RMM:   2    -0.232226189540E+04   -0.61097E-01   -0.62437E-01  6262   0.277E-01    0.432E-01
RMM:   3    -0.232226747689E+04   -0.55815E-02   -0.63174E-02  5712   0.122E-01    0.294E-01
RMM:   4    -0.232226732962E+04    0.14727E-03   -0.67770E-03  4438   0.247E-02    0.145E-01
RMM:   5    -0.232226718108E+04    0.14854E-03   -0.41503E-04  3265   0.105E-02    0.101E-01
RMM:   6    -0.232226714209E+04    0.38997E-04   -0.31153E-04  3662   0.972E-03    0.913E-02
RMM:   7    -0.232226708622E+04    0.55866E-04   -0.16736E-04  3332   0.853E-03    0.458E-02
RMM:   8    -0.232226707311E+04    0.13106E-04   -0.53684E-05  2910   0.591E-03    0.151E-02
RMM:   9    -0.232226707166E+04    0.14547E-05   -0.92637E-06  2875   0.338E-03
  18 F= -.23431740E+04 E0= -.23431740E+04  d E =-.460594E-01  mag=     8.0000
       N       E                     dE             d eps       ncg     rms          rms(c)
DAV:   1    -0.232202375330E+04    0.24332E+00   -0.98856E+00  4476   0.212E+00    0.121E+00
RMM:   2    -0.232226612147E+04   -0.24237E+00   -0.24740E+00  6430   0.524E-01    0.881E-01
RMM:   3    -0.232228752604E+04   -0.21405E-01   -0.25409E-01  5866   0.219E-01    0.582E-01
RMM:   4    -0.232228701508E+04    0.51096E-03   -0.26002E-02  5202   0.456E-02    0.278E-01
RMM:   5    -0.232228638710E+04    0.62799E-03   -0.14560E-03  4004   0.169E-02    0.191E-01
RMM:   6    -0.232228618490E+04    0.20220E-03   -0.11291E-03  4649   0.161E-02    0.172E-01
RMM:   7    -0.232228600569E+04    0.17921E-03   -0.60673E-04  3960   0.131E-02    0.986E-02
RMM:   8    -0.232228593759E+04    0.68101E-04   -0.23680E-04  3193   0.866E-03    0.315E-02
RMM:   9    -0.232228592944E+04    0.81423E-05   -0.34702E-05  2911   0.564E-03
  19 F= -.23431924E+04 E0= -.23431924E+04  d E =-.183874E-01  mag=     8.0000
       N       E                     dE             d eps       ncg     rms          rms(c)
DAV:   1    -0.232144881802E+04    0.83712E+00   -0.31315E+01  4472   0.377E+00    0.218E+00
RMM:   2    -0.232223058145E+04   -0.78176E+00   -0.79916E+00  6478   0.962E-01    0.159E+00
RMM:   3    -0.232230299828E+04   -0.72417E-01   -0.85855E-01  5977   0.390E-01    0.104E+00
RMM:   4    -0.232230150075E+04    0.14975E-02   -0.81066E-02  5573   0.813E-02    0.500E-01
RMM:   5    -0.232229953819E+04    0.19626E-02   -0.50736E-03  4923   0.294E-02    0.351E-01
RMM:   6    -0.232229884883E+04    0.68936E-03   -0.35424E-03  5220   0.264E-02    0.311E-01
RMM:   7    -0.232229824209E+04    0.60674E-03   -0.19583E-03  4859   0.217E-02    0.180E-01
RMM:   8    -0.232229803032E+04    0.21177E-03   -0.86857E-04  4230   0.147E-02    0.633E-02
RMM:   9    -0.232229799625E+04    0.34067E-04   -0.11525E-04  3100   0.814E-03    0.265E-02
RMM:  10    -0.232229799037E+04    0.58861E-05   -0.35219E-05  2966   0.442E-03
  20 F= -.23432032E+04 E0= -.23432032E+04  d E =-.291937E-01  mag=     8.0000
       N       E                     dE             d eps       ncg     rms          rms(c)
DAV:   1    -0.232210858944E+04    0.18941E+00   -0.77989E+00  4496   0.193E+00    0.109E+00
RMM:   2    -0.232229810166E+04   -0.18951E+00   -0.19354E+00  6352   0.474E-01    0.792E-01
RMM:   3    -0.232231500029E+04   -0.16899E-01   -0.19999E-01  5827   0.204E-01    0.522E-01
RMM:   4    -0.232231456968E+04    0.43061E-03   -0.20602E-02  5216   0.415E-02    0.241E-01
RMM:   5    -0.232231407488E+04    0.49480E-03   -0.12169E-03  3988   0.159E-02    0.165E-01
RMM:   6    -0.232231391955E+04    0.15533E-03   -0.88964E-04  4518   0.152E-02    0.145E-01
RMM:   7    -0.232231378375E+04    0.13580E-03   -0.42368E-04  3735   0.121E-02    0.851E-02
RMM:   8    -0.232231373258E+04    0.51172E-04   -0.16090E-04  2996   0.774E-03    0.260E-02
RMM:   9    -0.232231372545E+04    0.71361E-05   -0.25805E-05  2897   0.510E-03
  21 F= -.23432180E+04 E0= -.23432180E+04  d E =-.147670E-01  mag=     8.0000
       N       E                     dE             d eps       ncg     rms          rms(c)
DAV:   1    -0.232219524201E+04    0.11849E+00   -0.46459E+00  4512   0.149E+00    0.841E-01
RMM:   2    -0.232230816513E+04   -0.11292E+00   -0.11536E+00  6338   0.365E-01    0.612E-01
RMM:   3    -0.232231810521E+04   -0.99401E-02   -0.11707E-01  5778   0.158E-01    0.400E-01
RMM:   4    -0.232231784573E+04    0.25948E-03   -0.12437E-02  4848   0.322E-02    0.185E-01
RMM:   5    -0.232231754206E+04    0.30367E-03   -0.68144E-04  3543   0.127E-02    0.123E-01
RMM:   6    -0.232231742908E+04    0.11298E-03   -0.51926E-04  4299   0.124E-02    0.973E-02
RMM:   7    -0.232231737756E+04    0.51522E-04   -0.23521E-04  3134   0.100E-02    0.636E-02
RMM:   8    -0.232231734649E+04    0.31065E-04   -0.78288E-05  2949   0.583E-03    0.203E-02
RMM:   9    -0.232231734191E+04    0.45850E-05   -0.14714E-05  2881   0.401E-03
  22 F= -.23432207E+04 E0= -.23432207E+04  d E =-.175481E-01  mag=     8.0000
       N       E                     dE             d eps       ncg     rms          rms(c)
DAV:   1    -0.232210135258E+04    0.21599E+00   -0.93421E+00  4472   0.211E+00    0.113E+00
RMM:   2    -0.232231279991E+04   -0.21145E+00   -0.21595E+00  6396   0.505E-01    0.796E-01
RMM:   3    -0.232233247671E+04   -0.19677E-01   -0.22613E-01  5842   0.210E-01    0.541E-01
RMM:   4    -0.232233189980E+04    0.57692E-03   -0.22932E-02  5241   0.435E-02    0.265E-01
RMM:   5    -0.232233125735E+04    0.64245E-03   -0.14060E-03  4027   0.166E-02    0.180E-01
RMM:   6    -0.232233095420E+04    0.30315E-03   -0.11423E-03  4634   0.168E-02    0.147E-01
RMM:   7    -0.232233082030E+04    0.13390E-03   -0.55859E-04  3954   0.136E-02    0.964E-02
RMM:   8    -0.232233074896E+04    0.71338E-04   -0.19273E-04  3144   0.811E-03    0.286E-02
RMM:   9    -0.232233074150E+04    0.74643E-05   -0.33685E-05  2907   0.559E-03
  23 F= -.23432332E+04 E0= -.23432332E+04  d E =-.124161E-01  mag=     8.0000
       N       E                     dE             d eps       ncg     rms          rms(c)
DAV:   1    -0.232232130091E+04    0.94481E-02   -0.40893E-01  4816   0.442E-01    0.238E-01
RMM:   2    -0.232233048931E+04   -0.91884E-02   -0.93766E-02  6389   0.105E-01    0.169E-01
RMM:   3    -0.232233129062E+04   -0.80131E-03   -0.92298E-03  4092   0.455E-02    0.110E-01
RMM:   4    -0.232233126618E+04    0.24434E-04   -0.10195E-03  3064   0.100E-02    0.525E-02
RMM:   5    -0.232233123816E+04    0.28022E-04   -0.56294E-05  2932   0.450E-03    0.339E-02
RMM:   6    -0.232233122379E+04    0.14369E-04   -0.53592E-05  3010   0.460E-03    0.211E-02
RMM:   7    -0.232233122068E+04    0.31111E-05   -0.17507E-05  2881   0.411E-03
  24 F= -.23432334E+04 E0= -.23432334E+04  d E =-.126723E-01  mag=     8.0000
       N       E                     dE             d eps       ncg     rms          rms(c)
DAV:   1    -0.232215532066E+04    0.17590E+00   -0.75603E+00  4488   0.197E+00    0.104E+00
RMM:   2    -0.232233074020E+04   -0.17542E+00   -0.17961E+00  6285   0.470E-01    0.743E-01
RMM:   3    -0.232234687210E+04   -0.16132E-01   -0.18529E-01  5834   0.195E-01    0.507E-01
RMM:   4    -0.232234635663E+04    0.51546E-03   -0.19658E-02  5295   0.413E-02    0.240E-01
RMM:   5    -0.232234588260E+04    0.47404E-03   -0.11703E-03  3937   0.159E-02    0.161E-01
RMM:   6    -0.232234571418E+04    0.16841E-03   -0.93775E-04  4562   0.156E-02    0.138E-01
RMM:   7    -0.232234560529E+04    0.10889E-03   -0.43093E-04  3650   0.126E-02    0.843E-02
RMM:   8    -0.232234555708E+04    0.48209E-04   -0.14165E-04  3001   0.739E-03    0.243E-02
RMM:   9    -0.232234555356E+04    0.35211E-05   -0.24879E-05  2904   0.518E-03
  25 F= -.23432468E+04 E0= -.23432468E+04  d E =-.134373E-01  mag=     8.0000
       N       E                     dE             d eps       ncg     rms          rms(c)
DAV:   1    -0.232222097013E+04    0.12459E+00   -0.50480E+00  4488   0.161E+00    0.856E-01
RMM:   2    -0.232233865786E+04   -0.11769E+00   -0.12058E+00  6255   0.381E-01    0.613E-01
RMM:   3    -0.232234949475E+04   -0.10837E-01   -0.12410E-01  5758   0.161E-01    0.419E-01
RMM:   4    -0.232234909702E+04    0.39773E-03   -0.13257E-02  5008   0.340E-02    0.197E-01
RMM:   5    -0.232234877603E+04    0.32099E-03   -0.78924E-04  3541   0.135E-02    0.131E-01
RMM:   6    -0.232234866756E+04    0.10848E-03   -0.64353E-04  4305   0.133E-02    0.114E-01
RMM:   7    -0.232234859018E+04    0.77378E-04   -0.28631E-04  3283   0.108E-02    0.671E-02
RMM:   8    -0.232234856017E+04    0.30008E-04   -0.91367E-05  2952   0.635E-03    0.195E-02
RMM:   9    -0.232234855814E+04    0.20290E-05   -0.17692E-05  2899   0.452E-03
  26 F= -.23432491E+04 E0= -.23432491E+04  d E =-.156792E-01  mag=     8.0000
       N       E                     dE             d eps       ncg     rms          rms(c)
DAV:   1    -0.232212092855E+04    0.22763E+00   -0.98062E+00  4488   0.224E+00    0.118E+00
RMM:   2    -0.232234131440E+04   -0.22039E+00   -0.22588E+00  6212   0.535E-01    0.797E-01
RMM:   3    -0.232236253476E+04   -0.21220E-01   -0.23647E-01  5749   0.225E-01    0.565E-01
RMM:   4    -0.232236186903E+04    0.66573E-03   -0.24562E-02  5433   0.472E-02    0.283E-01
RMM:   5    -0.232236124993E+04    0.61910E-03   -0.15840E-03  4273   0.183E-02    0.191E-01
RMM:   6    -0.232236099967E+04    0.25026E-03   -0.12739E-03  4836   0.177E-02    0.169E-01
RMM:   7    -0.232236082211E+04    0.17756E-03   -0.66600E-04  4225   0.143E-02    0.995E-02
RMM:   8    -0.232236075379E+04    0.68326E-04   -0.20624E-04  3265   0.869E-03    0.263E-02
RMM:   9    -0.232236075067E+04    0.31153E-05   -0.38830E-05  2946   0.598E-03
  27 F= -.23432602E+04 E0= -.23432602E+04  d E =-.111377E-01  mag=     8.0000
       N       E                     dE             d eps       ncg     rms          rms(c)
DAV:   1    -0.232234991386E+04    0.10840E-01   -0.46785E-01  4720   0.492E-01    0.258E-01
RMM:   2    -0.232236040915E+04   -0.10495E-01   -0.10740E-01  6223   0.115E-01    0.179E-01
RMM:   3    -0.232236133758E+04   -0.92843E-03   -0.10336E-02  4533   0.478E-02    0.119E-01
RMM:   4    -0.232236130842E+04    0.29160E-04   -0.11874E-03  3057   0.109E-02    0.584E-02
RMM:   5    -0.232236127854E+04    0.29883E-04   -0.70250E-05  2930   0.514E-03    0.370E-02
RMM:   6    -0.232236126972E+04    0.88178E-05   -0.62938E-05  3018   0.517E-03
  28 F= -.23432605E+04 E0= -.23432605E+04  d E =-.114446E-01  mag=     8.0000
       N       E                     dE             d eps       ncg     rms          rms(c)
DAV:   1    -0.232233894416E+04    0.22334E-01   -0.15965E+00  4528   0.103E+00    0.453E-01
RMM:   2    -0.232236693459E+04   -0.27990E-01   -0.28891E-01  5844   0.217E-01    0.292E-01
RMM:   3    -0.232236928718E+04   -0.23526E-02   -0.27521E-02  5292   0.976E-02    0.210E-01
RMM:   4    -0.232236914228E+04    0.14490E-03   -0.31721E-03  4700   0.204E-02    0.118E-01
RMM:   5    -0.232236902661E+04    0.11567E-03   -0.30053E-04  3495   0.111E-02    0.790E-02
RMM:   6    -0.232236899033E+04    0.36278E-04   -0.26849E-04  4072   0.103E-02    0.659E-02
RMM:   7    -0.232236895787E+04    0.32458E-04   -0.93459E-05  3059   0.813E-03    0.295E-02
RMM:   8    -0.232236895121E+04    0.66577E-05   -0.23507E-05  2913   0.499E-03
  29 F= -.23432676E+04 E0= -.23432676E+04  d E =-.707464E-02  mag=     8.0000
       N       E                     dE             d eps       ncg     rms          rms(c)
DAV:   1    -0.232235825825E+04    0.10700E-01   -0.64416E-01  4528   0.655E-01    0.288E-01
RMM:   2    -0.232236956392E+04   -0.11306E-01   -0.11679E-01  5994   0.138E-01    0.184E-01
RMM:   3    -0.232237048502E+04   -0.92110E-03   -0.10805E-02  5094   0.601E-02    0.127E-01
RMM:   4    -0.232237044633E+04    0.38687E-04   -0.12621E-03  3445   0.131E-02    0.716E-02
RMM:   5    -0.232237039732E+04    0.49015E-04   -0.12527E-04  3042   0.796E-03    0.459E-02
RMM:   6    -0.232237038581E+04    0.11506E-04   -0.10721E-04  3313   0.747E-03    0.430E-02
RMM:   7    -0.232237037220E+04    0.13614E-04   -0.39868E-05  2906   0.616E-03    0.198E-02
RMM:   8    -0.232237036870E+04    0.35016E-05   -0.12083E-05  2884   0.378E-03
  30 F= -.23432687E+04 E0= -.23432686E+04  d E =-.811743E-02  mag=     8.0000
       N       E                     dE             d eps       ncg     rms          rms(c)
DAV:   1    -0.232235421226E+04    0.16160E-01   -0.15778E+00  4496   0.996E-01    0.408E-01
RMM:   2    -0.232237508977E+04   -0.20878E-01   -0.21633E-01  5880   0.195E-01    0.273E-01
RMM:   3    -0.232237667750E+04   -0.15877E-02   -0.19940E-02  5280   0.863E-02    0.188E-01
RMM:   4    -0.232237654203E+04    0.13547E-03   -0.23426E-03  4380   0.180E-02    0.104E-01
RMM:   5    -0.232237644451E+04    0.97523E-04   -0.29309E-04  3371   0.107E-02    0.648E-02
RMM:   6    -0.232237643302E+04    0.11488E-04   -0.21811E-04  3920   0.936E-03    0.602E-02
RMM:   7    -0.232237640912E+04    0.23896E-04   -0.69364E-05  2929   0.717E-03    0.265E-02
RMM:   8    -0.232237640456E+04    0.45659E-05   -0.17188E-05  2914   0.387E-03
  31 F= -.23432742E+04 E0= -.23432742E+04  d E =-.550572E-02  mag=     8.0000
       N       E                     dE             d eps       ncg     rms          rms(c)
DAV:   1    -0.232236420703E+04    0.12202E-01   -0.97199E-01  4528   0.783E-01    0.320E-01
RMM:   2    -0.232237705996E+04   -0.12853E-01   -0.13331E-01  5873   0.153E-01    0.210E-01
RMM:   3    -0.232237804625E+04   -0.98629E-03   -0.12270E-02  5104   0.663E-02    0.143E-01
RMM:   4    -0.232237797407E+04    0.72178E-04   -0.14416E-03  3709   0.142E-02    0.814E-02
RMM:   5    -0.232237791185E+04    0.62223E-04   -0.18353E-04  3105   0.875E-03    0.490E-02
RMM:   6    -0.232237790497E+04    0.68795E-05   -0.13086E-04  3516   0.784E-03    0.458E-02
RMM:   7    -0.232237789150E+04    0.13467E-04   -0.42942E-05  2908   0.621E-03    0.214E-02
RMM:   8    -0.232237788818E+04    0.33260E-05   -0.11207E-05  2892   0.329E-03
  32 F= -.23432752E+04 E0= -.23432752E+04  d E =-.659377E-02  mag=     8.0000
       N       E                     dE             d eps       ncg     rms          rms(c)
DAV:   1    -0.232237188412E+04    0.60074E-02   -0.92925E-01  4512   0.746E-01    0.283E-01
RMM:   2    -0.232238079202E+04   -0.89079E-02   -0.92385E-02  5728   0.141E-01    0.205E-01
RMM:   3    -0.232238131966E+04   -0.52765E-03   -0.88790E-03  5075   0.611E-02    0.138E-01
RMM:   4    -0.232238120408E+04    0.11558E-03   -0.96934E-04  4215   0.140E-02    0.801E-02
RMM:   5    -0.232238113729E+04    0.66795E-04   -0.23072E-04  3611   0.108E-02    0.468E-02
RMM:   6    -0.232238113451E+04    0.27760E-05   -0.13216E-04  3513   0.836E-03    0.429E-02
RMM:   7    -0.232238112169E+04    0.12826E-04   -0.34126E-05  2914   0.639E-03    0.176E-02
RMM:   8    -0.232238111904E+04    0.26432E-05   -0.94677E-06  2881   0.289E-03
  33 F= -.23432783E+04 E0= -.23432783E+04  d E =-.301869E-02  mag=     8.0000
       N       E                     dE             d eps       ncg     rms          rms(c)
DAV:   1    -0.232237993053E+04    0.11912E-02   -0.15383E-01  4624   0.304E-01    0.115E-01
RMM:   2    -0.232238140655E+04   -0.14760E-02   -0.15338E-02  5884   0.583E-02    0.811E-02
RMM:   3    -0.232238149381E+04   -0.87264E-04   -0.14321E-03  3603   0.239E-02    0.549E-02
RMM:   4    -0.232238147664E+04    0.17171E-04   -0.15922E-04  2975   0.646E-03    0.324E-02
RMM:   5    -0.232238146458E+04    0.12062E-04   -0.42042E-05  2912   0.507E-03    0.165E-02
RMM:   6    -0.232238146335E+04    0.12273E-05   -0.18382E-05  2941   0.434E-03
  34 F= -.23432785E+04 E0= -.23432785E+04  d E =-.328340E-02  mag=     8.0000
       N       E                     dE             d eps       ncg     rms          rms(c)
DAV:   1    -0.232237818233E+04    0.32822E-02   -0.74642E-01  4496   0.680E-01    0.245E-01
RMM:   2    -0.232238372508E+04   -0.55427E-02   -0.58388E-02  5624   0.120E-01    0.182E-01
RMM:   3    -0.232238398237E+04   -0.25729E-03   -0.54531E-03  4843   0.547E-02    0.134E-01
RMM:   4    -0.232238383540E+04    0.14697E-03   -0.59456E-04  3823   0.121E-02    0.700E-02
RMM:   5    -0.232238377597E+04    0.59438E-04   -0.17020E-04  3520   0.948E-03    0.327E-02
RMM:   6    -0.232238377297E+04    0.29910E-05   -0.78612E-05  3318   0.744E-03
  35 F= -.23432808E+04 E0= -.23432808E+04  d E =-.228140E-02  mag=     8.0000
       N       E                     dE             d eps       ncg     rms          rms(c)
DAV:   1    -0.232238235926E+04    0.14167E-02   -0.21392E-01  4528   0.364E-01    0.132E-01
RMM:   2    -0.232238395417E+04   -0.15949E-02   -0.16965E-02  6060   0.674E-02    0.913E-02
RMM:   3    -0.232238403349E+04   -0.79321E-04   -0.15797E-03  3974   0.261E-02    0.688E-02
RMM:   4    -0.232238400015E+04    0.33333E-04   -0.17777E-04  2977   0.695E-03    0.387E-02
RMM:   5    -0.232238398415E+04    0.16002E-04   -0.48806E-05  2929   0.512E-03    0.228E-02
RMM:   6    -0.232238398244E+04    0.17094E-05   -0.31472E-05  2912   0.490E-03
  36 F= -.23432810E+04 E0= -.23432810E+04  d E =-.248053E-02  mag=     8.0000
       N       E                     dE             d eps       ncg     rms          rms(c)
DAV:   1    -0.232238092921E+04    0.30549E-02   -0.61583E-01  4496   0.577E-01    0.198E-01
RMM:   2    -0.232238559651E+04   -0.46673E-02   -0.48208E-02  5933   0.105E-01    0.173E-01
RMM:   3    -0.232238575584E+04   -0.15933E-03   -0.43355E-03  4699   0.435E-02    0.103E-01
RMM:   4    -0.232238568335E+04    0.72490E-04   -0.49409E-04  3150   0.981E-03    0.600E-02
RMM:   5    -0.232238564051E+04    0.42835E-04   -0.11666E-04  3058   0.762E-03    0.283E-02
RMM:   6    -0.232238564222E+04   -0.17070E-05   -0.58282E-05  2962   0.655E-03
  37 F= -.23432828E+04 E0= -.23432828E+04  d E =-.174626E-02  mag=     8.0000
       N       E                     dE             d eps       ncg     rms          rms(c)
DAV:   1    -0.232237948162E+04    0.61589E-02   -0.86115E-01  4496   0.682E-01    0.236E-01
RMM:   2    -0.232238600891E+04   -0.65273E-02   -0.67499E-02  5757   0.124E-01    0.205E-01
RMM:   3    -0.232238624158E+04   -0.23267E-03   -0.61924E-03  4986   0.515E-02    0.123E-01
RMM:   4    -0.232238612665E+04    0.11493E-03   -0.69511E-04  3360   0.113E-02    0.712E-02
RMM:   5    -0.232238606819E+04    0.58462E-04   -0.15367E-04  3221   0.846E-03    0.361E-02
RMM:   6    -0.232238607150E+04   -0.33099E-05   -0.94120E-05  3030   0.751E-03
  38 F= -.23432833E+04 E0= -.23432833E+04  d E =-.228578E-02  mag=     8.0000
       N       E                     dE             d eps       ncg     rms          rms(c)
DAV:   1    -0.232237947118E+04    0.65970E-02   -0.85990E-01  4496   0.725E-01    0.259E-01
RMM:   2    -0.232238724728E+04   -0.77761E-02   -0.79556E-02  6091   0.139E-01    0.229E-01
RMM:   3    -0.232238750888E+04   -0.26160E-03   -0.73210E-03  5187   0.574E-02    0.131E-01
RMM:   4    -0.232238739606E+04    0.11282E-03   -0.83039E-04  3574   0.124E-02    0.680E-02
RMM:   5    -0.232238732850E+04    0.67553E-04   -0.16076E-04  3594   0.930E-03    0.321E-02
RMM:   6    -0.232238732796E+04    0.54626E-06   -0.78737E-05  3104   0.768E-03
  39 F= -.23432848E+04 E0= -.23432848E+04  d E =-.147321E-02  mag=     8.0000
       N       E                     dE             d eps       ncg     rms          rms(c)
DAV:   1    -0.232238685478E+04    0.47372E-03   -0.47313E-02  4832   0.170E-01    0.624E-02
RMM:   2    -0.232238729204E+04   -0.43725E-03   -0.45207E-03  6123   0.351E-02    0.551E-02
RMM:   3    -0.232238730449E+04   -0.12457E-04   -0.43953E-04  3037   0.130E-02    0.353E-02
RMM:   4    -0.232238729741E+04    0.70798E-05   -0.49796E-05  2949   0.414E-03
  40 F= -.23432848E+04 E0= -.23432848E+04  d E =-.149426E-02  mag=     8.0000
       N       E                     dE             d eps       ncg     rms          rms(c)
DAV:   1    -0.232237939274E+04    0.79118E-02   -0.78060E-01  4504   0.711E-01    0.266E-01
RMM:   2    -0.232238830309E+04   -0.89104E-02   -0.90002E-02  5965   0.140E-01    0.258E-01
RMM:   3    -0.232238849557E+04   -0.19248E-03   -0.84954E-03  5042   0.611E-02    0.132E-01
RMM:   4    -0.232238840215E+04    0.93420E-04   -0.98922E-04  3874   0.129E-02    0.726E-02
RMM:   5    -0.232238836409E+04    0.38060E-04   -0.15912E-04  3133   0.869E-03    0.702E-02
RMM:   6    -0.232238832943E+04    0.34658E-04   -0.13026E-04  3166   0.801E-03    0.344E-02
RMM:   7    -0.232238832378E+04    0.56455E-05   -0.39868E-05  2944   0.627E-03
  41 F= -.23432862E+04 E0= -.23432862E+04  d E =-.143478E-02  mag=     8.0000
       N       E                     dE             d eps       ncg     rms          rms(c)
DAV:   1    -0.232238746087E+04    0.86856E-03   -0.64701E-02  4608   0.205E-01    0.784E-02
RMM:   2    -0.232238820943E+04   -0.74856E-03   -0.76163E-03  6228   0.425E-02    0.741E-02
RMM:   3    -0.232238822682E+04   -0.17387E-04   -0.69837E-04  3186   0.162E-02    0.390E-02
RMM:   4    -0.232238822021E+04    0.66082E-05   -0.84397E-05  2965   0.464E-03
  42 F= -.23432862E+04 E0= -.23432862E+04  d E =-.144997E-02  mag=     8.0000
       N       E                     dE             d eps       ncg     rms          rms(c)
DAV:   1    -0.232238091905E+04    0.73078E-02   -0.64627E-01  4480   0.645E-01    0.245E-01
RMM:   2    -0.232238918360E+04   -0.82646E-02   -0.82368E-02  6077   0.127E-01    0.247E-01
RMM:   3    -0.232238938253E+04   -0.19893E-03   -0.73426E-03  4896   0.503E-02    0.119E-01
RMM:   4    -0.232238932637E+04    0.56162E-04   -0.87638E-04  3357   0.111E-02    0.633E-02
RMM:   5    -0.232238929785E+04    0.28521E-04   -0.10262E-04  3001   0.681E-03    0.629E-02
RMM:   6    -0.232238926840E+04    0.29452E-04   -0.97974E-05  2975   0.681E-03    0.317E-02
RMM:   7    -0.232238926367E+04    0.47326E-05   -0.37182E-05  2939   0.549E-03
  43 F= -.23432876E+04 E0= -.23432876E+04  d E =-.139296E-02  mag=     8.0000
       N       E                     dE             d eps       ncg     rms          rms(c)
DAV:   1    -0.232237662512E+04    0.12643E-01   -0.97184E-01  4476   0.791E-01    0.306E-01
RMM:   2    -0.232238910105E+04   -0.12476E-01   -0.12451E-01  6122   0.157E-01    0.308E-01
RMM:   3    -0.232238938471E+04   -0.28366E-03   -0.11165E-02  5233   0.643E-02    0.145E-01
RMM:   4    -0.232238931484E+04    0.69875E-04   -0.13220E-03  3675   0.135E-02    0.728E-02
RMM:   5    -0.232238926493E+04    0.49912E-04   -0.13410E-04  3097   0.813E-03    0.675E-02
RMM:   6    -0.232238923824E+04    0.26686E-04   -0.13033E-04  3022   0.767E-03    0.459E-02
RMM:   7    -0.232238922473E+04    0.13506E-04   -0.59248E-05  2961   0.651E-03    0.114E-02
RMM:   8    -0.232238922483E+04   -0.94456E-07   -0.85125E-06  2878   0.413E-03
  44 F= -.23432880E+04 E0= -.23432880E+04  d E =-.178683E-02  mag=     8.0000
       N       E                     dE             d eps       ncg     rms          rms(c)
DAV:   1    -0.232237886758E+04    0.10357E-01   -0.77682E-01  4496   0.728E-01    0.296E-01
RMM:   2    -0.232239009788E+04   -0.11230E-01   -0.11235E-01  6059   0.145E-01    0.301E-01
RMM:   3    -0.232239037291E+04   -0.27503E-03   -0.10513E-02  5227   0.566E-02    0.135E-01
RMM:   4    -0.232239027313E+04    0.99782E-04   -0.12207E-03  3494   0.127E-02    0.668E-02
RMM:   5    -0.232239022448E+04    0.48641E-04   -0.11366E-04  3032   0.736E-03    0.587E-02
RMM:   6    -0.232239020548E+04    0.19009E-04   -0.11164E-04  2991   0.708E-03    0.447E-02
RMM:   7    -0.232239019140E+04    0.14071E-04   -0.52686E-05  2933   0.618E-03    0.101E-02
RMM:   8    -0.232239019147E+04   -0.61555E-07   -0.78737E-06  2871   0.393E-03
  45 F= -.23432894E+04 E0= -.23432894E+04  d E =-.136359E-02  mag=     8.0000
       N       E                     dE             d eps       ncg     rms          rms(c)
DAV:   1    -0.232238541107E+04    0.47803E-02   -0.32475E-01  4512   0.471E-01    0.192E-01
RMM:   2    -0.232239011826E+04   -0.47072E-02   -0.47035E-02  6016   0.943E-02    0.197E-01
RMM:   3    -0.232239022157E+04   -0.10331E-03   -0.43731E-03  4245   0.359E-02    0.869E-02
RMM:   4    -0.232239018032E+04    0.41251E-04   -0.51035E-04  3070   0.872E-03    0.430E-02
RMM:   5    -0.232239015914E+04    0.21183E-04   -0.48741E-05  2940   0.515E-03    0.368E-02
RMM:   6    -0.232239015311E+04    0.60241E-05   -0.49153E-05  2924   0.495E-03
  46 F= -.23432896E+04 E0= -.23432896E+04  d E =-.158290E-02  mag=     8.0000
       N       E                     dE             d eps       ncg     rms          rms(c)
DAV:   1    -0.232238552568E+04    0.46335E-02   -0.29024E-01  4512   0.483E-01    0.207E-01
RMM:   2    -0.232239076709E+04   -0.52414E-02   -0.52940E-02  5853   0.998E-02    0.194E-01
RMM:   3    -0.232239095770E+04   -0.19061E-03   -0.51066E-03  4669   0.456E-02    0.935E-02
RMM:   4    -0.232239091581E+04    0.41894E-04   -0.59926E-04  3142   0.969E-03    0.470E-02
RMM:   5    -0.232239089591E+04    0.19897E-04   -0.58683E-05  2945   0.578E-03    0.442E-02
RMM:   6    -0.232239087802E+04    0.17896E-04   -0.52879E-05  2918   0.557E-03    0.234E-02
RMM:   7    -0.232239087369E+04    0.43288E-05   -0.25299E-05  2915   0.499E-03
  47 F= -.23432907E+04 E0= -.23432907E+04  d E =-.112152E-02  mag=     8.0000
       N       E                     dE             d eps       ncg     rms          rms(c)
DAV:   1    -0.232238603088E+04    0.48471E-02   -0.25572E-01  4496   0.453E-01    0.193E-01
RMM:   2    -0.232239066103E+04   -0.46301E-02   -0.46831E-02  6151   0.958E-02    0.177E-01
RMM:   3    -0.232239084911E+04   -0.18808E-03   -0.45281E-03  4476   0.413E-02    0.881E-02
RMM:   4    -0.232239080121E+04    0.47900E-04   -0.52379E-04  3051   0.932E-03    0.436E-02
RMM:   5    -0.232239077916E+04    0.22048E-04   -0.54191E-05  2945   0.579E-03    0.390E-02
RMM:   6    -0.232239076635E+04    0.12807E-04   -0.48853E-05  2908   0.557E-03    0.250E-02
RMM:   7    -0.232239076101E+04    0.53464E-05   -0.21974E-05  2918   0.478E-03
  48 F= -.23432910E+04 E0= -.23432910E+04  d E =-.138499E-02  mag=     8.0000
       N       E                     dE             d eps       ncg     rms          rms(c)
DAV:   1    -0.232238723898E+04    0.35274E-02   -0.18160E-01  4528   0.359E-01    0.164E-01
RMM:   2    -0.232239112922E+04   -0.38902E-02   -0.39090E-02  6369   0.801E-02    0.159E-01
RMM:   3    -0.232239131885E+04   -0.18964E-03   -0.39711E-03  3866   0.342E-02    0.709E-02
RMM:   4    -0.232239130363E+04    0.15221E-04   -0.45415E-04  3004   0.773E-03    0.367E-02
RMM:   5    -0.232239129023E+04    0.13398E-04   -0.31084E-05  2926   0.392E-03    0.334E-02
RMM:   6    -0.232239128143E+04    0.88089E-05   -0.28586E-05  2881   0.364E-03
  49 F= -.23432919E+04 E0= -.23432919E+04  d E =-.898247E-03  mag=     8.0000
       N       E                     dE             d eps       ncg     rms          rms(c)
DAV:   1    -0.232235486679E+04    0.36423E-01   -0.16330E+00  4488   0.108E+00    0.493E-01
RMM:   2    -0.232238987406E+04   -0.35007E-01   -0.35111E-01  6025   0.233E-01    0.479E-01
RMM:   3    -0.232239152666E+04   -0.16526E-02   -0.35376E-02  5447   0.107E-01    0.213E-01
RMM:   4    -0.232239134272E+04    0.18394E-03   -0.39316E-03  4477   0.202E-02    0.114E-01
RMM:   5    -0.232239123603E+04    0.10668E-03   -0.27009E-04  3110   0.952E-03    0.105E-01
RMM:   6    -0.232239113348E+04    0.10255E-03   -0.24236E-04  3374   0.901E-03    0.585E-02
RMM:   7    -0.232239110952E+04    0.23963E-04   -0.17798E-04  3273   0.895E-03    0.172E-02
RMM:   8    -0.232239111153E+04   -0.20133E-05   -0.19798E-05  2918   0.524E-03
  50 F= -.23432929E+04 E0= -.23432929E+04  d E =-.186628E-02  mag=     8.0000
       N       E                     dE             d eps       ncg     rms          rms(c)
DAV:   1    -0.232238262596E+04    0.84836E-02   -0.39140E-01  4512   0.530E-01    0.251E-01
RMM:   2    -0.232239148883E+04   -0.88629E-02   -0.88527E-02  6063   0.119E-01    0.254E-01
RMM:   3    -0.232239181827E+04   -0.32944E-03   -0.87661E-03  4795   0.530E-02    0.107E-01
RMM:   4    -0.232239176742E+04    0.50854E-04   -0.97335E-04  3201   0.108E-02    0.537E-02
RMM:   5    -0.232239173257E+04    0.34851E-04   -0.69437E-05  2951   0.597E-03    0.456E-02
RMM:   6    -0.232239172382E+04    0.87440E-05   -0.73084E-05  2911   0.588E-03
  51 F= -.23432939E+04 E0= -.23432939E+04  d E =-.104608E-02  mag=     8.0000
       N       E                     dE             d eps       ncg     rms          rms(c)
DAV:   1    -0.232238728127E+04    0.44513E-02   -0.18338E-01  4576   0.363E-01    0.173E-01
RMM:   2    -0.232239140992E+04   -0.41287E-02   -0.41297E-02  6188   0.821E-02    0.176E-01
RMM:   3    -0.232239158154E+04   -0.17162E-03   -0.42610E-03  4032   0.356E-02    0.736E-02
RMM:   4    -0.232239156904E+04    0.12500E-04   -0.47776E-04  3034   0.801E-03    0.385E-02
RMM:   5    -0.232239155777E+04    0.11272E-04   -0.35129E-05  2928   0.428E-03    0.367E-02
RMM:   6    -0.232239154760E+04    0.10170E-04   -0.30633E-05  2885   0.409E-03    0.218E-02
RMM:   7    -0.232239154506E+04    0.25455E-05   -0.24065E-05  2922   0.403E-03
  52 F= -.23432940E+04 E0= -.23432940E+04  d E =-.116723E-02  mag=     8.0000
       N       E                     dE             d eps       ncg     rms          rms(c)
DAV:   1    -0.232238378685E+04    0.77608E-02   -0.37325E-01  4496   0.534E-01    0.246E-01
RMM:   2    -0.232239171076E+04   -0.79239E-02   -0.79341E-02  6130   0.117E-01    0.229E-01
RMM:   3    -0.232239206542E+04   -0.35465E-03   -0.79394E-03  4903   0.499E-02    0.107E-01
RMM:   4    -0.232239200522E+04    0.60199E-04   -0.88614E-04  3211   0.109E-02    0.518E-02
RMM:   5    -0.232239196821E+04    0.37005E-04   -0.69922E-05  2972   0.637E-03    0.424E-02
RMM:   6    -0.232239196111E+04    0.71028E-05   -0.76031E-05  2944   0.629E-03
  53 F= -.23432948E+04 E0= -.23432948E+04  d E =-.818061E-03  mag=     8.0000
       N       E                     dE             d eps       ncg     rms          rms(c)
DAV:   1    -0.232239017156E+04    0.17966E-02   -0.74321E-02  4688   0.238E-01    0.111E-01
RMM:   2    -0.232239175384E+04   -0.15823E-02   -0.15857E-02  6344   0.538E-02    0.106E-01
RMM:   3    -0.232239182528E+04   -0.71435E-04   -0.16144E-03  3246   0.210E-02    0.486E-02
RMM:   4    -0.232239181764E+04    0.76402E-05   -0.18334E-04  2967   0.564E-03    0.247E-02
RMM:   5    -0.232239181249E+04    0.51466E-05   -0.15948E-05  2909   0.316E-03
  54 F= -.23432949E+04 E0= -.23432949E+04  d E =-.850600E-03  mag=     8.0000
       N       E                     dE             d eps       ncg     rms          rms(c)
DAV:   1    -0.232238605988E+04    0.57578E-02   -0.26807E-01  4496   0.448E-01    0.209E-01
RMM:   2    -0.232239186988E+04   -0.58100E-02   -0.58459E-02  6149   0.989E-02    0.201E-01
RMM:   3    -0.232239211049E+04   -0.24061E-03   -0.58957E-03  4418   0.401E-02    0.923E-02
RMM:   4    -0.232239206569E+04    0.44805E-04   -0.65223E-04  3055   0.966E-03    0.488E-02
RMM:   5    -0.232239203557E+04    0.30121E-04   -0.59968E-05  2941   0.596E-03    0.358E-02
RMM:   6    -0.232239203312E+04    0.24516E-05   -0.66946E-05  2957   0.599E-03
  55 F= -.23432955E+04 E0= -.23432955E+04  d E =-.661110E-03  mag=     8.0000
       N       E                     dE             d eps       ncg     rms          rms(c)
DAV:   1    -0.232238776874E+04    0.42668E-02   -0.16720E-01  4496   0.354E-01    0.171E-01
RMM:   2    -0.232239142423E+04   -0.36555E-02   -0.36766E-02  6228   0.788E-02    0.170E-01
RMM:   3    -0.232239155352E+04   -0.12929E-03   -0.37605E-03  3989   0.321E-02    0.750E-02
RMM:   4    -0.232239152789E+04    0.25628E-04   -0.41714E-04  3007   0.789E-03    0.371E-02
RMM:   5    -0.232239151035E+04    0.17537E-04   -0.34456E-05  2925   0.466E-03    0.279E-02
RMM:   6    -0.232239150879E+04    0.15619E-05   -0.39733E-05  2927   0.476E-03
  56 F= -.23432954E+04 E0= -.23432954E+04  d E =-.485062E-03  mag=     8.0000
       N       E                     dE             d eps       ncg     rms          rms(c)
DAV:   1    -0.232239026337E+04    0.12470E-02   -0.74553E-02  4512   0.237E-01    0.110E-01
RMM:   2    -0.232239186890E+04   -0.16055E-02   -0.16120E-02  6299   0.536E-02    0.104E-01
RMM:   3    -0.232239194122E+04   -0.72322E-04   -0.16432E-03  3297   0.216E-02    0.494E-02
RMM:   4    -0.232239193003E+04    0.11191E-04   -0.18330E-04  2971   0.568E-03    0.251E-02
RMM:   5    -0.232239192404E+04    0.59910E-05   -0.17240E-05  2899   0.321E-03
  57 F= -.23432955E+04 E0= -.23432955E+04  d E =-.669706E-03  mag=     8.0000
       N       E                     dE             d eps       ncg     rms          rms(c)
DAV:   1    -0.232238581290E+04    0.61171E-02   -0.28998E-01  4496   0.472E-01    0.224E-01
RMM:   2    -0.232239187293E+04   -0.60600E-02   -0.60874E-02  6050   0.101E-01    0.211E-01
RMM:   3    -0.232239211968E+04   -0.24675E-03   -0.61945E-03  4612   0.445E-02    0.100E-01
RMM:   4    -0.232239206639E+04    0.53286E-04   -0.69528E-04  3098   0.996E-03    0.448E-02
RMM:   5    -0.232239203932E+04    0.27070E-04   -0.56757E-05  2949   0.572E-03    0.418E-02
RMM:   6    -0.232239202608E+04    0.13241E-04   -0.55989E-05  2912   0.549E-03    0.287E-02
RMM:   7    -0.232239201902E+04    0.70626E-05   -0.30453E-05  2918   0.482E-03
  58 F= -.23432960E+04 E0= -.23432960E+04  d E =-.476963E-03  mag=     8.0000
       N       E                     dE             d eps       ncg     rms          rms(c)
DAV:   1    -0.232239177855E+04    0.24754E-03   -0.75164E-03  5160   0.761E-02    0.356E-02
RMM:   2    -0.232239193620E+04   -0.15766E-03   -0.16150E-03  4843   0.185E-02    0.289E-02
RMM:   3    -0.232239194641E+04   -0.10211E-04   -0.16487E-04  2895   0.850E-03    0.162E-02
RMM:   4    -0.232239194577E+04    0.63817E-06   -0.19673E-05  2903   0.248E-03
  59 F= -.23432960E+04 E0= -.23432960E+04  d E =-.465766E-03  mag=     8.0000
       N       E                     dE             d eps       ncg     rms          rms(c)
DAV:   1    -0.232238848235E+04    0.34641E-02   -0.17589E-01  4496   0.378E-01    0.166E-01
RMM:   2    -0.232239200045E+04   -0.35181E-02   -0.35367E-02  5912   0.790E-02    0.155E-01
RMM:   3    -0.232239215093E+04   -0.15048E-03   -0.34941E-03  4050   0.355E-02    0.745E-02
RMM:   4    -0.232239212027E+04    0.30665E-04   -0.40001E-04  3006   0.805E-03    0.370E-02
RMM:   5    -0.232239210038E+04    0.19891E-04   -0.36585E-05  2911   0.498E-03    0.256E-02
RMM:   6    -0.232239210117E+04   -0.78938E-06   -0.43038E-05  2909   0.506E-03
  60 F= -.23432964E+04 E0= -.23432964E+04  d E =-.378146E-03  mag=     8.0000
       N       E                     dE             d eps       ncg     rms          rms(c)
DAV:   1    -0.232239164854E+04    0.45184E-03   -0.17884E-02  4824   0.121E-01    0.551E-02
RMM:   2    -0.232239200899E+04   -0.36045E-03   -0.36576E-03  5775   0.272E-02    0.514E-02
RMM:   3    -0.232239202658E+04   -0.17590E-04   -0.38434E-04  2918   0.114E-02    0.253E-02
RMM:   4    -0.232239202426E+04    0.23203E-05   -0.43995E-05  2935   0.327E-03
  61 F= -.23432964E+04 E0= -.23432964E+04  d E =-.372990E-03  mag=     8.0000
       N       E                     dE             d eps       ncg     rms          rms(c)
DAV:   1    -0.232238890945E+04    0.31171E-02   -0.16410E-01  4496   0.369E-01    0.155E-01
RMM:   2    -0.232239208161E+04   -0.31722E-02   -0.32018E-02  5946   0.764E-02    0.138E-01
RMM:   3    -0.232239223355E+04   -0.15194E-03   -0.29828E-03  4031   0.333E-02    0.725E-02
RMM:   4    -0.232239220442E+04    0.29124E-04   -0.35484E-04  2994   0.787E-03    0.374E-02
RMM:   5    -0.232239219111E+04    0.13318E-04   -0.38870E-05  2921   0.486E-03    0.336E-02
RMM:   6    -0.232239218296E+04    0.81426E-05   -0.34288E-05  2887   0.471E-03
  62 F= -.23432968E+04 E0= -.23432968E+04  d E =-.372293E-03  mag=     8.0000
       N       E                     dE             d eps       ncg     rms          rms(c)
DAV:   1    -0.232239145384E+04    0.73726E-03   -0.31699E-02  4640   0.162E-01    0.703E-02
RMM:   2    -0.232239206487E+04   -0.61103E-03   -0.62282E-03  6121   0.347E-02    0.590E-02
RMM:   3    -0.232239210129E+04   -0.36419E-04   -0.61722E-04  2951   0.142E-02    0.316E-02
RMM:   4    -0.232239209665E+04    0.46383E-05   -0.72596E-05  2940   0.395E-03
  63 F= -.23432968E+04 E0= -.23432968E+04  d E =-.380880E-03  mag=     8.0000
       N       E                     dE             d eps       ncg     rms          rms(c)
DAV:   1    -0.232238924591E+04    0.28554E-02   -0.15174E-01  4496   0.341E-01    0.138E-01
RMM:   2    -0.232239210109E+04   -0.28552E-02   -0.28896E-02  6077   0.698E-02    0.119E-01
RMM:   3    -0.232239228127E+04   -0.18018E-03   -0.28719E-03  3703   0.309E-02    0.606E-02
RMM:   4    -0.232239226591E+04    0.15362E-04   -0.32674E-04  2982   0.708E-03    0.354E-02
RMM:   5    -0.232239225245E+04    0.13460E-04   -0.30418E-05  2920   0.409E-03    0.275E-02
RMM:   6    -0.232239224847E+04    0.39729E-05   -0.28623E-05  2883   0.397E-03
  64 F= -.23432971E+04 E0= -.23432971E+04  d E =-.360901E-03  mag=     8.0000
       N       E                     dE             d eps       ncg     rms          rms(c)
DAV:   1    -0.232238877456E+04    0.34779E-02   -0.16683E-01  4496   0.357E-01    0.149E-01
RMM:   2    -0.232239189819E+04   -0.31236E-02   -0.31814E-02  5810   0.727E-02    0.124E-01
RMM:   3    -0.232239210882E+04   -0.21063E-03   -0.32375E-03  3926   0.350E-02    0.636E-02
RMM:   4    -0.232239209367E+04    0.15151E-04   -0.36232E-04  2977   0.717E-03    0.349E-02
RMM:   5    -0.232239207909E+04    0.14573E-04   -0.28284E-05  2912   0.398E-03    0.250E-02
RMM:   6    -0.232239207675E+04    0.23402E-05   -0.28066E-05  2887   0.384E-03
  65 F= -.23432972E+04 E0= -.23432972E+04  d E =-.409859E-03  mag=     8.0000
       N       E                     dE             d eps       ncg     rms          rms(c)
DAV:   1    -0.232239023715E+04    0.18419E-02   -0.10062E-01  4512   0.272E-01    0.113E-01
RMM:   2    -0.232239209377E+04   -0.18566E-02   -0.19013E-02  6087   0.559E-02    0.910E-02
RMM:   3    -0.232239223466E+04   -0.14089E-03   -0.19607E-03  3330   0.258E-02    0.488E-02
RMM:   4    -0.232239222760E+04    0.70619E-05   -0.21823E-04  2967   0.583E-03    0.277E-02
RMM:   5    -0.232239222070E+04    0.68958E-05   -0.16181E-05  2889   0.297E-03
  66 F= -.23432975E+04 E0= -.23432975E+04  d E =-.289028E-03  mag=     8.0000
       N       E                     dE             d eps       ncg     rms          rms(c)
DAV:   1    -0.232238899261E+04    0.32350E-02   -0.16076E-01  4496   0.345E-01    0.140E-01
RMM:   2    -0.232239199568E+04   -0.30031E-02   -0.30467E-02  6142   0.708E-02    0.124E-01
RMM:   3    -0.232239218782E+04   -0.19214E-03   -0.30935E-03  3628   0.301E-02    0.643E-02
RMM:   4    -0.232239217080E+04    0.17022E-04   -0.34817E-04  2987   0.720E-03    0.370E-02
RMM:   5    -0.232239215923E+04    0.11573E-04   -0.29894E-05  2906   0.387E-03    0.319E-02
RMM:   6    -0.232239215182E+04    0.74087E-05   -0.31703E-05  2910   0.392E-03
  67 F= -.23432976E+04 E0= -.23432976E+04  d E =-.403828E-03  mag=     8.0000
       N       E                     dE             d eps       ncg     rms          rms(c)
DAV:   1    -0.232239136810E+04    0.79113E-03   -0.61559E-02  4520   0.224E-01    0.921E-02
RMM:   2    -0.232239236626E+04   -0.99816E-03   -0.10351E-02  5963   0.454E-02    0.625E-02
RMM:   3    -0.232239244082E+04   -0.74565E-04   -0.10147E-03  3266   0.198E-02    0.405E-02
RMM:   4    -0.232239243236E+04    0.84670E-05   -0.11765E-04  2942   0.508E-03    0.224E-02
RMM:   5    -0.232239242620E+04    0.61604E-05   -0.14804E-05  2877   0.327E-03
  68 F= -.23432979E+04 E0= -.23432979E+04  d E =-.325199E-03  mag=     8.0000
       N       E                     dE             d eps       ncg     rms          rms(c)
DAV:   1    -0.232239129800E+04    0.11344E-02   -0.67515E-02  4512   0.234E-01    0.947E-02
RMM:   2    -0.232239238163E+04   -0.10836E-02   -0.11283E-02  6005   0.478E-02    0.578E-02
RMM:   3    -0.232239246746E+04   -0.85834E-04   -0.11022E-03  3324   0.207E-02    0.379E-02
RMM:   4    -0.232239246155E+04    0.59079E-05   -0.12778E-04  2947   0.534E-03    0.251E-02
RMM:   5    -0.232239245499E+04    0.65614E-05   -0.17851E-05  2879   0.347E-03
  69 F= -.23432980E+04 E0= -.23432980E+04  d E =-.407259E-03  mag=     8.0000
       N       E                     dE             d eps       ncg     rms          rms(c)
DAV:   1    -0.232239119177E+04    0.12698E-02   -0.84128E-02  4496   0.249E-01    0.103E-01
RMM:   2    -0.232239262977E+04   -0.14380E-02   -0.14744E-02  6134   0.509E-02    0.828E-02
RMM:   3    -0.232239272699E+04   -0.97221E-04   -0.14327E-03  3270   0.209E-02    0.508E-02
RMM:   4    -0.232239271372E+04    0.13266E-04   -0.16845E-04  2963   0.565E-03    0.257E-02
RMM:   5    -0.232239270855E+04    0.51785E-05   -0.17143E-05  2908   0.312E-03
  70 F= -.23432983E+04 E0= -.23432983E+04  d E =-.300192E-03  mag=     8.0000
       N       E                     dE             d eps       ncg     rms          rms(c)
DAV:   1    -0.232239064608E+04    0.20676E-02   -0.11884E-01  4496   0.295E-01    0.121E-01
RMM:   2    -0.232239265396E+04   -0.20079E-02   -0.20587E-02  6052   0.593E-02    0.979E-02
RMM:   3    -0.232239279144E+04   -0.13748E-03   -0.19913E-03  3482   0.257E-02    0.609E-02
RMM:   4    -0.232239277292E+04    0.18519E-04   -0.23489E-04  2978   0.660E-03    0.323E-02
RMM:   5    -0.232239276547E+04    0.74583E-05   -0.25934E-05  2916   0.375E-03
  71 F= -.23432984E+04 E0= -.23432984E+04  d E =-.412763E-03  mag=     8.0000
       N       E                     dE             d eps       ncg     rms          rms(c)
DAV:   1    -0.232239105334E+04    0.17196E-02   -0.11828E-01  4496   0.297E-01    0.121E-01
RMM:   2    -0.232239293772E+04   -0.18844E-02   -0.19410E-02  6062   0.608E-02    0.892E-02
RMM:   3    -0.232239307578E+04   -0.13806E-03   -0.18878E-03  3592   0.261E-02    0.606E-02
RMM:   4    -0.232239305522E+04    0.20558E-04   -0.21995E-04  2968   0.659E-03    0.317E-02
RMM:   5    -0.232239304720E+04    0.80222E-05   -0.27037E-05  2912   0.405E-03
  72 F= -.23432988E+04 E0= -.23432988E+04  d E =-.364512E-03  mag=     8.0000
       N       E                     dE             d eps       ncg     rms          rms(c)
DAV:   1    -0.232239203649E+04    0.10187E-02   -0.59795E-02  4528   0.210E-01    0.875E-02
RMM:   2    -0.232239299161E+04   -0.95513E-03   -0.97885E-03  6151   0.439E-02    0.747E-02
RMM:   3    -0.232239305038E+04   -0.58765E-04   -0.94769E-04  3186   0.179E-02    0.470E-02
RMM:   4    -0.232239303787E+04    0.12511E-04   -0.11312E-04  2949   0.515E-03    0.231E-02
RMM:   5    -0.232239303509E+04    0.27746E-05   -0.16951E-05  2918   0.313E-03
  73 F= -.23432988E+04 E0= -.23432988E+04  d E =-.411389E-03  mag=     8.0000
       N       E                     dE             d eps       ncg     rms          rms(c)
DAV:   1    -0.232239084945E+04    0.21884E-02   -0.13828E-01  4496   0.297E-01    0.126E-01
RMM:   2    -0.232239309496E+04   -0.22455E-02   -0.23196E-02  6152   0.618E-02    0.868E-02
RMM:   3    -0.232239327278E+04   -0.17782E-03   -0.22280E-03  3492   0.263E-02    0.589E-02
RMM:   4    -0.232239325880E+04    0.13976E-04   -0.25640E-04  2979   0.662E-03    0.331E-02
RMM:   5    -0.232239324962E+04    0.91807E-05   -0.25797E-05  2893   0.382E-03
  74 F= -.23432991E+04 E0= -.23432991E+04  d E =-.326564E-03  mag=     8.0000
       N       E                     dE             d eps       ncg     rms          rms(c)
DAV:   1    -0.232239094118E+04    0.23176E-02   -0.13123E-01  4496   0.289E-01    0.124E-01
RMM:   2    -0.232239308228E+04   -0.21411E-02   -0.22056E-02  6187   0.603E-02    0.935E-02
RMM:   3    -0.232239324017E+04   -0.15789E-03   -0.20820E-03  3493   0.249E-02    0.645E-02
RMM:   4    -0.232239322152E+04    0.18645E-04   -0.24936E-04  2979   0.665E-03    0.326E-02
RMM:   5    -0.232239321474E+04    0.67844E-05   -0.27004E-05  2929   0.378E-03
  75 F= -.23432992E+04 E0= -.23432992E+04  d E =-.400830E-03  mag=     8.0000
       N       E                     dE             d eps       ncg     rms          rms(c)
DAV:   1    -0.232239120419E+04    0.20173E-02   -0.13280E-01  4496   0.276E-01    0.121E-01
RMM:   2    -0.232239335430E+04   -0.21501E-02   -0.22034E-02  6194   0.587E-02    0.950E-02
RMM:   3    -0.232239351329E+04   -0.15899E-03   -0.21262E-03  3343   0.247E-02    0.609E-02
RMM:   4    -0.232239349686E+04    0.16436E-04   -0.24711E-04  2969   0.640E-03    0.322E-02
RMM:   5    -0.232239348850E+04    0.83623E-05   -0.24411E-05  2915   0.359E-03
  76 F= -.23432996E+04 E0= -.23432996E+04  d E =-.367517E-03  mag=     8.0000
       N       E                     dE             d eps       ncg     rms          rms(c)
DAV:   1    -0.232238897093E+04    0.45259E-02   -0.26480E-01  4496   0.390E-01    0.171E-01
RMM:   2    -0.232239324018E+04   -0.42693E-02   -0.43967E-02  6153   0.815E-02    0.127E-01
RMM:   3    -0.232239356170E+04   -0.32152E-03   -0.40940E-03  3903   0.347E-02    0.846E-02
RMM:   4    -0.232239353338E+04    0.28320E-04   -0.48745E-04  3000   0.854E-03    0.457E-02
RMM:   5    -0.232239351838E+04    0.15002E-04   -0.48200E-05  2922   0.488E-03    0.340E-02
RMM:   6    -0.232239351274E+04    0.56411E-05   -0.40822E-05  2908   0.467E-03
  77 F= -.23432997E+04 E0= -.23432997E+04  d E =-.524169E-03  mag=     8.0000
       N       E                     dE             d eps       ncg     rms          rms(c)
DAV:   1    -0.232239094207E+04    0.25763E-02   -0.16989E-01  4496   0.303E-01    0.137E-01
RMM:   2    -0.232239362391E+04   -0.26818E-02   -0.27886E-02  6102   0.637E-02    0.793E-02
RMM:   3    -0.232239384649E+04   -0.22259E-03   -0.25949E-03  3401   0.274E-02    0.469E-02
RMM:   4    -0.232239384948E+04   -0.29867E-05   -0.30059E-04  2979   0.652E-03    0.352E-02
RMM:   5    -0.232239383938E+04    0.10104E-04   -0.30887E-05  2888   0.386E-03    0.214E-02
RMM:   6    -0.232239383654E+04    0.28330E-05   -0.20267E-05  2924   0.355E-03
  78 F= -.23433002E+04 E0= -.23433002E+04  d E =-.423014E-03  mag=     8.0000
       N       E                     dE             d eps       ncg     rms          rms(c)
DAV:   1    -0.232239060650E+04    0.32329E-02   -0.19256E-01  4496   0.322E-01    0.146E-01
RMM:   2    -0.232239364576E+04   -0.30393E-02   -0.31578E-02  6096   0.677E-02    0.859E-02
RMM:   3    -0.232239389227E+04   -0.24650E-03   -0.28855E-03  3578   0.300E-02    0.548E-02
RMM:   4    -0.232239388903E+04    0.32403E-05   -0.34223E-04  2977   0.706E-03    0.400E-02
RMM:   5    -0.232239387612E+04    0.12910E-04   -0.35094E-05  2905   0.409E-03    0.244E-02
RMM:   6    -0.232239387327E+04    0.28489E-05   -0.28948E-05  2905   0.397E-03
  79 F= -.23433003E+04 E0= -.23433003E+04  d E =-.565563E-03  mag=     8.0000
       N       E                     dE             d eps       ncg     rms          rms(c)
DAV:   1    -0.232239070166E+04    0.31745E-02   -0.19288E-01  4496   0.313E-01    0.147E-01
RMM:   2    -0.232239385915E+04   -0.31575E-02   -0.32814E-02  6141   0.675E-02    0.863E-02
RMM:   3    -0.232239412404E+04   -0.26489E-03   -0.31024E-03  3412   0.292E-02    0.513E-02
RMM:   4    -0.232239412734E+04   -0.33048E-05   -0.35536E-04  2979   0.699E-03    0.376E-02
RMM:   5    -0.232239411594E+04    0.11396E-04   -0.35495E-05  2889   0.410E-03    0.241E-02
RMM:   6    -0.232239411251E+04    0.34378E-05   -0.25255E-05  2913   0.379E-03
  80 F= -.23433007E+04 E0= -.23433007E+04  d E =-.406495E-03  mag=     8.0000
       N       E                     dE             d eps       ncg     rms          rms(c)
DAV:   1    -0.232239234031E+04    0.17756E-02   -0.96595E-02  4512   0.221E-01    0.104E-01
RMM:   2    -0.232239391925E+04   -0.15789E-02   -0.16435E-02  6130   0.482E-02    0.590E-02
RMM:   3    -0.232239405557E+04   -0.13632E-03   -0.15607E-03  3119   0.212E-02    0.371E-02
RMM:   4    -0.232239405751E+04   -0.19494E-05   -0.18154E-04  2965   0.525E-03    0.305E-02
RMM:   5    -0.232239405069E+04    0.68234E-05   -0.17992E-05  2882   0.286E-03
  81 F= -.23433008E+04 E0= -.23433008E+04  d E =-.463602E-03  mag=     8.0000
       N       E                     dE             d eps       ncg     rms          rms(c)
DAV:   1    -0.232239015989E+04    0.38976E-02   -0.22820E-01  4496   0.351E-01    0.165E-01
RMM:   2    -0.232239401339E+04   -0.38535E-02   -0.39665E-02  6051   0.751E-02    0.120E-01
RMM:   3    -0.232239430000E+04   -0.28661E-03   -0.37267E-03  3711   0.323E-02    0.773E-02
RMM:   4    -0.232239427754E+04    0.22460E-04   -0.44242E-04  2986   0.795E-03    0.420E-02
RMM:   5    -0.232239426055E+04    0.16988E-04   -0.40677E-05  2903   0.468E-03    0.232E-02
RMM:   6    -0.232239425850E+04    0.20455E-05   -0.32262E-05  2963   0.458E-03
  82 F= -.23433012E+04 E0= -.23433012E+04  d E =-.391360E-03  mag=     8.0000
       N       E                     dE             d eps       ncg     rms          rms(c)
DAV:   1    -0.232239244808E+04    0.18125E-02   -0.95667E-02  4512   0.227E-01    0.107E-01
RMM:   2    -0.232239404420E+04   -0.15961E-02   -0.16597E-02  6159   0.493E-02    0.628E-02
RMM:   3    -0.232239418404E+04   -0.13984E-03   -0.16051E-03  3155   0.211E-02    0.399E-02
RMM:   4    -0.232239418239E+04    0.16517E-05   -0.18290E-04  2962   0.521E-03    0.287E-02
RMM:   5    -0.232239417610E+04    0.62896E-05   -0.17855E-05  2882   0.291E-03
  83 F= -.23433012E+04 E0= -.23433012E+04  d E =-.428066E-03  mag=     8.0000
       N       E                     dE             d eps       ncg     rms          rms(c)
DAV:   1    -0.232239024174E+04    0.39406E-02   -0.22991E-01  4496   0.356E-01    0.168E-01
RMM:   2    -0.232239416192E+04   -0.39202E-02   -0.40378E-02  6106   0.751E-02    0.120E-01
RMM:   3    -0.232239445801E+04   -0.29609E-03   -0.37456E-03  3712   0.319E-02    0.782E-02
RMM:   4    -0.232239443855E+04    0.19458E-04   -0.45186E-04  2971   0.792E-03    0.430E-02
RMM:   5    -0.232239442487E+04    0.13686E-04   -0.42888E-05  2921   0.448E-03    0.308E-02
RMM:   6    -0.232239442170E+04    0.31652E-05   -0.36080E-05  2903   0.430E-03
  84 F= -.23433016E+04 E0= -.23433016E+04  d E =-.378020E-03  mag=     8.0000
       N       E                     dE             d eps       ncg     rms          rms(c)
DAV:   1    -0.232239197315E+04    0.24517E-02   -0.13034E-01  4512   0.267E-01    0.126E-01
RMM:   2    -0.232239417845E+04   -0.22053E-02   -0.22918E-02  6120   0.566E-02    0.735E-02
RMM:   3    -0.232239436692E+04   -0.18847E-03   -0.21715E-03  3327   0.252E-02    0.441E-02
RMM:   4    -0.232239436882E+04   -0.19031E-05   -0.25078E-04  2968   0.588E-03    0.319E-02
RMM:   5    -0.232239436073E+04    0.80924E-05   -0.23960E-05  2882   0.341E-03
  85 F= -.23433016E+04 E0= -.23433016E+04  d E =-.416982E-03  mag=     8.0000
       N       E                     dE             d eps       ncg     rms          rms(c)
DAV:   1    -0.232238997575E+04    0.43931E-02   -0.24720E-01  4496   0.370E-01    0.174E-01
RMM:   2    -0.232239428065E+04   -0.43049E-02   -0.44501E-02  6194   0.797E-02    0.114E-01
RMM:   3    -0.232239464185E+04   -0.36120E-03   -0.42945E-03  3774   0.334E-02    0.743E-02
RMM:   4    -0.232239463109E+04    0.10760E-04   -0.49693E-04  3000   0.805E-03    0.448E-02
RMM:   5    -0.232239461487E+04    0.16213E-04   -0.44348E-05  2913   0.456E-03    0.312E-02
RMM:   6    -0.232239461094E+04    0.39351E-05   -0.39617E-05  2921   0.447E-03
  86 F= -.23433020E+04 E0= -.23433020E+04  d E =-.413582E-03  mag=     8.0000
       N       E                     dE             d eps       ncg     rms          rms(c)
DAV:   1    -0.232239170621E+04    0.29087E-02   -0.14969E-01  4496   0.288E-01    0.136E-01
RMM:   2    -0.232239430512E+04   -0.25989E-02   -0.27017E-02  6201   0.621E-02    0.811E-02
RMM:   3    -0.232239453387E+04   -0.22875E-03   -0.26374E-03  3349   0.266E-02    0.485E-02
RMM:   4    -0.232239453507E+04   -0.12015E-05   -0.29416E-04  2982   0.631E-03    0.332E-02
RMM:   5    -0.232239452499E+04    0.10083E-04   -0.27457E-05  2882   0.374E-03    0.193E-02
RMM:   6    -0.232239452297E+04    0.20189E-05   -0.18277E-05  2937   0.339E-03
  87 F= -.23433021E+04 E0= -.23433021E+04  d E =-.453116E-03  mag=     8.0000
       N       E                     dE             d eps       ncg     rms          rms(c)
DAV:   1    -0.232238871175E+04    0.58132E-02   -0.31724E-01  4496   0.425E-01    0.203E-01
RMM:   2    -0.232239425678E+04   -0.55450E-02   -0.57027E-02  6171   0.908E-02    0.142E-01
RMM:   3    -0.232239468516E+04   -0.42838E-03   -0.55664E-03  4119   0.393E-02    0.904E-02
RMM:   4    -0.232239465538E+04    0.29786E-04   -0.62393E-04  3014   0.907E-03    0.479E-02
RMM:   5    -0.232239463180E+04    0.23580E-04   -0.52313E-05  2912   0.528E-03    0.262E-02
RMM:   6    -0.232239462848E+04    0.33133E-05   -0.41319E-05  2978   0.510E-03
  88 F= -.23433025E+04 E0= -.23433025E+04  d E =-.409098E-03  mag=     8.0000
       N       E                     dE             d eps       ncg     rms          rms(c)
DAV:   1    -0.232239370740E+04    0.92440E-03   -0.43306E-02  4688   0.157E-01    0.751E-02
RMM:   2    -0.232239446642E+04   -0.75902E-03   -0.78565E-03  5984   0.355E-02    0.464E-02
RMM:   3    -0.232239453722E+04   -0.70805E-04   -0.80095E-04  2957   0.148E-02    0.341E-02
RMM:   4    -0.232239453310E+04    0.41204E-05   -0.90615E-05  2944   0.404E-03
  89 F= -.23433025E+04 E0= -.23433025E+04  d E =-.426498E-03  mag=     8.0000
       N       E                     dE             d eps       ncg     rms          rms(c)
DAV:   1    -0.232239002671E+04    0.45105E-02   -0.24547E-01  4496   0.377E-01    0.176E-01
RMM:   2    -0.232239434546E+04   -0.43188E-02   -0.44243E-02  6037   0.806E-02    0.122E-01
RMM:   3    -0.232239467895E+04   -0.33349E-03   -0.43834E-03  3949   0.357E-02    0.767E-02
RMM:   4    -0.232239466265E+04    0.16303E-04   -0.50585E-04  2994   0.835E-03    0.462E-02
RMM:   5    -0.232239463937E+04    0.23285E-04   -0.52536E-05  2915   0.526E-03    0.272E-02
RMM:   6    -0.232239463864E+04    0.72879E-06   -0.44374E-05  2944   0.514E-03
  90 F= -.23433029E+04 E0= -.23433029E+04  d E =-.427975E-03  mag=     8.0000
       N       E                     dE             d eps       ncg     rms          rms(c)
DAV:   1    -0.232239362832E+04    0.10110E-02   -0.45866E-02  4688   0.163E-01    0.778E-02
RMM:   2    -0.232239443012E+04   -0.80180E-03   -0.83424E-03  6020   0.364E-02    0.443E-02
RMM:   3    -0.232239450341E+04   -0.73291E-04   -0.85400E-04  2949   0.156E-02    0.273E-02
RMM:   4    -0.232239450408E+04   -0.67022E-06   -0.94850E-05  2949   0.398E-03
  91 F= -.23433029E+04 E0= -.23433029E+04  d E =-.433842E-03  mag=     8.0000
       N       E                     dE             d eps       ncg     rms          rms(c)
DAV:   1    -0.232238939654E+04    0.51069E-02   -0.26791E-01  4496   0.389E-01    0.185E-01
RMM:   2    -0.232239425981E+04   -0.48633E-02   -0.49412E-02  6034   0.836E-02    0.147E-01
RMM:   3    -0.232239459188E+04   -0.33207E-03   -0.49720E-03  4049   0.370E-02    0.855E-02
RMM:   4    -0.232239456527E+04    0.26608E-04   -0.56579E-04  3002   0.858E-03    0.472E-02
RMM:   5    -0.232239454223E+04    0.23041E-04   -0.52422E-05  2923   0.512E-03    0.316E-02
RMM:   6    -0.232239454139E+04    0.84231E-06   -0.51138E-05  2929   0.508E-03
  92 F= -.23433033E+04 E0= -.23433033E+04  d E =-.343451E-03  mag=     8.0000
       N       E                     dE             d eps       ncg     rms          rms(c)
DAV:   1    -0.232239367278E+04    0.86945E-03   -0.37995E-02  4672   0.147E-01    0.709E-02
RMM:   2    -0.232239435846E+04   -0.68567E-03   -0.71004E-03  5880   0.330E-02    0.458E-02
RMM:   3    -0.232239441829E+04   -0.59834E-04   -0.73622E-04  2937   0.143E-02    0.284E-02
RMM:   4    -0.232239441767E+04    0.62371E-06   -0.81230E-05  2942   0.372E-03
  93 F= -.23433033E+04 E0= -.23433033E+04  d E =-.336291E-03  mag=     8.0000
       N       E                     dE             d eps       ncg     rms          rms(c)
DAV:   1    -0.232238933695E+04    0.50813E-02   -0.27664E-01  4496   0.397E-01    0.187E-01
RMM:   2    -0.232239430806E+04   -0.49711E-02   -0.50350E-02  6004   0.849E-02    0.155E-01
RMM:   3    -0.232239463501E+04   -0.32695E-03   -0.51288E-03  4064   0.374E-02    0.865E-02
RMM:   4    -0.232239460281E+04    0.32206E-04   -0.55393E-04  3010   0.868E-03    0.479E-02
RMM:   5    -0.232239457920E+04    0.23601E-04   -0.56075E-05  2915   0.530E-03    0.315E-02
RMM:   6    -0.232239457888E+04    0.32173E-06   -0.52509E-05  2937   0.522E-03
  94 F= -.23433037E+04 E0= -.23433037E+04  d E =-.439971E-03  mag=     8.0000
       N       E                     dE             d eps       ncg     rms          rms(c)
DAV:   1    -0.232239229125E+04    0.22880E-02   -0.11052E-01  4512   0.251E-01    0.120E-01
RMM:   2    -0.232239426692E+04   -0.19757E-02   -0.20293E-02  6140   0.546E-02    0.853E-02
RMM:   3    -0.232239442262E+04   -0.15569E-03   -0.20728E-03  3278   0.233E-02    0.516E-02
RMM:   4    -0.232239441497E+04    0.76498E-05   -0.23130E-04  2969   0.587E-03    0.298E-02
RMM:   5    -0.232239440679E+04    0.81822E-05   -0.21215E-05  2883   0.332E-03
  95 F= -.23433037E+04 E0= -.23433037E+04  d E =-.445607E-03  mag=     8.0000
       N       E                     dE             d eps       ncg     rms          rms(c)
DAV:   1    -0.232239110308E+04    0.33119E-02   -0.17613E-01  4496   0.305E-01    0.148E-01
RMM:   2    -0.232239431352E+04   -0.32104E-02   -0.32572E-02  6193   0.663E-02    0.126E-01
RMM:   3    -0.232239452783E+04   -0.21431E-03   -0.33233E-03  3469   0.285E-02    0.702E-02
RMM:   4    -0.232239451523E+04    0.12596E-04   -0.37818E-04  2969   0.704E-03    0.383E-02
RMM:   5    -0.232239450654E+04    0.86921E-05   -0.34777E-05  2919   0.372E-03
  96 F= -.23433041E+04 E0= -.23433041E+04  d E =-.372019E-03  mag=     8.0000
       N       E                     dE             d eps       ncg     rms          rms(c)
DAV:   1    -0.232238912484E+04    0.53904E-02   -0.26955E-01  4496   0.376E-01    0.183E-01
RMM:   2    -0.232239406781E+04   -0.49430E-02   -0.50000E-02  6240   0.824E-02    0.159E-01
RMM:   3    -0.232239437541E+04   -0.30761E-03   -0.50201E-03  3829   0.338E-02    0.861E-02
RMM:   4    -0.232239434763E+04    0.27783E-04   -0.56407E-04  3006   0.834E-03    0.485E-02
RMM:   5    -0.232239433125E+04    0.16379E-04   -0.52516E-05  2919   0.473E-03    0.401E-02
RMM:   6    -0.232239432249E+04    0.87644E-05   -0.51070E-05  2923   0.470E-03
  97 F= -.23433042E+04 E0= -.23433042E+04  d E =-.526361E-03  mag=     8.0000
       N       E                     dE             d eps       ncg     rms          rms(c)
DAV:   1    -0.232239212855E+04    0.22027E-02   -0.13447E-01  4512   0.296E-01    0.138E-01
RMM:   2    -0.232239438664E+04   -0.22581E-02   -0.23291E-02  6046   0.638E-02    0.102E-01
RMM:   3    -0.232239454795E+04   -0.16131E-03   -0.24138E-03  3696   0.286E-02    0.624E-02
RMM:   4    -0.232239453066E+04    0.17287E-04   -0.26882E-04  2985   0.678E-03    0.327E-02
RMM:   5    -0.232239451831E+04    0.12346E-04   -0.30074E-05  2900   0.442E-03    0.191E-02
RMM:   6    -0.232239451864E+04   -0.33196E-06   -0.25229E-05  2929   0.430E-03
  98 F= -.23433047E+04 E0= -.23433047E+04  d E =-.472697E-03  mag=     8.0000
       N       E                     dE             d eps       ncg     rms          rms(c)
DAV:   1    -0.232239354540E+04    0.97292E-03   -0.47866E-02  4640   0.176E-01    0.818E-02
RMM:   2    -0.232239435064E+04   -0.80524E-03   -0.83491E-03  6045   0.390E-02    0.556E-02
RMM:   3    -0.232239441198E+04   -0.61344E-04   -0.84225E-04  3120   0.168E-02    0.358E-02
RMM:   4    -0.232239440675E+04    0.52320E-05   -0.96333E-05  2953   0.445E-03
  99 F= -.23433048E+04 E0= -.23433048E+04  d E =-.526271E-03  mag=     8.0000
       N       E                     dE             d eps       ncg     rms          rms(c)
DAV:   1    -0.232239315037E+04    0.12616E-02   -0.78651E-02  4496   0.230E-01    0.102E-01
RMM:   2    -0.232239443769E+04   -0.12873E-02   -0.13062E-02  6058   0.482E-02    0.813E-02
RMM:   3    -0.232239451723E+04   -0.79547E-04   -0.13133E-03  3352   0.212E-02    0.497E-02
RMM:   4    -0.232239450206E+04    0.15172E-04   -0.15088E-04  2970   0.546E-03    0.285E-02
RMM:   5    -0.232239449596E+04    0.61005E-05   -0.23266E-05  2900   0.366E-03
 100 F= -.23433050E+04 E0= -.23433050E+04  d E =-.255260E-03  mag=     8.0000
       N       E                     dE             d eps       ncg     rms          rms(c)
DAV:   1    -0.232239382367E+04    0.67839E-03   -0.34329E-02  4592   0.152E-01    0.700E-02
RMM:   2    -0.232239438856E+04   -0.56488E-03   -0.57334E-03  5943   0.332E-02    0.642E-02
RMM:   3    -0.232239441805E+04   -0.29488E-04   -0.60429E-04  2966   0.142E-02    0.352E-02
RMM:   4    -0.232239441078E+04    0.72698E-05   -0.67533E-05  2937   0.405E-03
 101 F= -.23433050E+04 E0= -.23433050E+04  d E =-.280537E-03  mag=     8.0000
       N       E                     dE             d eps       ncg     rms          rms(c)
DAV:   1    -0.232239304516E+04    0.13729E-02   -0.92271E-02  4496   0.255E-01    0.110E-01
RMM:   2    -0.232239446097E+04   -0.14158E-02   -0.14561E-02  5979   0.523E-02    0.753E-02
RMM:   3    -0.232239457051E+04   -0.10954E-03   -0.15476E-03  3456   0.242E-02    0.524E-02
RMM:   4    -0.232239455796E+04    0.12556E-04   -0.17443E-04  2955   0.590E-03    0.315E-02
RMM:   5    -0.232239455098E+04    0.69716E-05   -0.27727E-05  2925   0.375E-03
 102 F= -.23433053E+04 E0= -.23433053E+04  d E =-.276778E-03  mag=     8.0000
       N       E                     dE             d eps       ncg     rms          rms(c)
[...]
       N       E                     dE             d eps       ncg     rms          rms(c)
DAV:   1    -0.232239861901E+04    0.30215E-04   -0.47937E-03  4592   0.529E-02    0.256E-02
RMM:   2    -0.232239864914E+04   -0.30131E-04   -0.32890E-04  3551   0.109E-02    0.194E-02
RMM:   3    -0.232239865059E+04   -0.14467E-05   -0.37597E-05  2894   0.590E-03
 255 F= -.23433166E+04 E0= -.23433166E+04  d E =-.577325E-04  mag=     8.0000
       N       E                     dE             d eps       ncg     rms          rms(c)
DAV:   1    -0.232239862982E+04    0.19319E-04   -0.11131E-02  4488   0.834E-02    0.351E-02
RMM:   2    -0.232239869700E+04   -0.67179E-04   -0.73133E-04  4557   0.165E-02    0.210E-02
RMM:   3    -0.232239870141E+04   -0.44029E-05   -0.80108E-05  2911   0.818E-03
 256 F= -.23433166E+04 E0= -.23433166E+04  d E =-.520698E-04  mag=     8.0000
       N       E                     dE             d eps       ncg     rms          rms(c)
DAV:   1    -0.232239868656E+04    0.10442E-04   -0.24436E-03  4920   0.391E-02    0.203E-02
RMM:   2    -0.232239870151E+04   -0.14950E-04   -0.16935E-04  3163   0.824E-03    0.169E-02
RMM:   3    -0.232239870177E+04   -0.26112E-06   -0.20059E-05  2865   0.454E-03
 257 F= -.23433166E+04 E0= -.23433166E+04  d E =-.530354E-04  mag=     8.0000
       N       E                     dE             d eps       ncg     rms          rms(c)
DAV:   1    -0.232239867799E+04    0.23522E-04   -0.98282E-03  4488   0.752E-02    0.317E-02
RMM:   2    -0.232239874021E+04   -0.62226E-04   -0.66607E-04  4305   0.150E-02    0.189E-02
RMM:   3    -0.232239874463E+04   -0.44132E-05   -0.71460E-05  2905   0.816E-03
 258 F= -.23433167E+04 E0= -.23433167E+04  d E =-.452813E-04  mag=     8.0000
       N       E                     dE             d eps       ncg     rms          rms(c)
DAV:   1    -0.232239872807E+04    0.12147E-04   -0.26001E-03  4656   0.387E-02    0.195E-02
RMM:   2    -0.232239874509E+04   -0.17018E-04   -0.18731E-04  3119   0.817E-03    0.147E-02
RMM:   3    -0.232239874608E+04   -0.99769E-06   -0.21863E-05  2866   0.445E-03
 259 F= -.23433167E+04 E0= -.23433167E+04  d E =-.479921E-04  mag=     8.0000
       N       E                     dE             d eps       ncg     rms          rms(c)
DAV:   1    -0.232239870374E+04    0.41350E-04   -0.11169E-02  4488   0.822E-02    0.347E-02
RMM:   2    -0.232239877333E+04   -0.69599E-04   -0.75165E-04  4539   0.163E-02    0.212E-02
RMM:   3    -0.232239877742E+04   -0.40896E-05   -0.81063E-05  2911   0.883E-03
 260 F= -.23433167E+04 E0= -.23433167E+04  d E =-.519879E-04  mag=     8.0000
       N       E                     dE             d eps       ncg     rms          rms(c)
DAV:   1    -0.232239876632E+04    0.70126E-05   -0.59404E-04  5136   0.192E-02    0.136E-02
RMM:   2    -0.232239877028E+04   -0.39555E-05   -0.48347E-05  2848   0.442E-03
 261 F= -.23433167E+04 E0= -.23433167E+04  d E =-.496502E-04  mag=     8.0000
       N       E                     dE             d eps       ncg     rms          rms(c)
DAV:   1    -0.232239873623E+04    0.30089E-04   -0.86061E-03  4488   0.736E-02    0.304E-02
RMM:   2    -0.232239879101E+04   -0.54774E-04   -0.59583E-04  4193   0.155E-02    0.169E-02
RMM:   3    -0.232239879452E+04   -0.35080E-05   -0.62094E-05  2900   0.832E-03
 262 F= -.23433168E+04 E0= -.23433168E+04  d E =-.440963E-04  mag=     8.0000
       N       E                     dE             d eps       ncg     rms          rms(c)
DAV:   1    -0.232239876674E+04    0.24269E-04   -0.28904E-03  4568   0.427E-02    0.212E-02
RMM:   2    -0.232239878575E+04   -0.19007E-04   -0.20662E-04  3269   0.922E-03    0.182E-02
RMM:   3    -0.232239878612E+04   -0.37422E-06   -0.26763E-05  2880   0.516E-03
 263 F= -.23433168E+04 E0= -.23433168E+04  d E =-.472800E-04  mag=     8.0000
       N       E                     dE             d eps       ncg     rms          rms(c)
DAV:   1    -0.232239876430E+04    0.21446E-04   -0.90994E-03  4488   0.713E-02    0.302E-02
RMM:   2    -0.232239882329E+04   -0.58995E-04   -0.63045E-04  4104   0.145E-02    0.187E-02
RMM:   3    -0.232239882680E+04   -0.35103E-05   -0.65611E-05  2906   0.778E-03
 264 F= -.23433168E+04 E0= -.23433168E+04  d E =-.410627E-04  mag=     8.0000
       N       E                     dE             d eps       ncg     rms          rms(c)
DAV:   1    -0.232239881196E+04    0.11333E-04   -0.27654E-03  4752   0.393E-02    0.196E-02
RMM:   2    -0.232239883023E+04   -0.18266E-04   -0.20145E-04  3137   0.841E-03    0.153E-02
RMM:   3    -0.232239883116E+04   -0.93208E-06   -0.23286E-05  2863   0.464E-03
 265 F= -.23433168E+04 E0= -.23433168E+04  d E =-.456463E-04  mag=     8.0000
       N       E                     dE             d eps       ncg     rms          rms(c)
DAV:   1    -0.232239881565E+04    0.14580E-04   -0.10853E-02  4488   0.819E-02    0.338E-02
RMM:   2    -0.232239888349E+04   -0.67841E-04   -0.72806E-04  4541   0.162E-02    0.205E-02
RMM:   3    -0.232239888775E+04   -0.42629E-05   -0.79262E-05  2911   0.881E-03
 266 F= -.23433169E+04 E0= -.23433169E+04  d E =-.553420E-04  mag=     8.0000
       N       E                     dE             d eps       ncg     rms          rms(c)
DAV:   1    -0.232239887934E+04    0.41449E-05   -0.15686E-03  4936   0.312E-02    0.174E-02
RMM:   2    -0.232239888975E+04   -0.10408E-04   -0.11654E-04  3018   0.681E-03    0.153E-02
RMM:   3    -0.232239888966E+04    0.96086E-07   -0.13427E-05  2747   0.373E-03
 267 F= -.23433169E+04 E0= -.23433169E+04  d E =-.567833E-04  mag=     8.0000
       N       E                     dE             d eps       ncg     rms          rms(c)
DAV:   1    -0.232239882660E+04    0.63150E-04   -0.12107E-02  4488   0.832E-02    0.348E-02
RMM:   2    -0.232239890521E+04   -0.78608E-04   -0.84275E-04  4684   0.165E-02    0.205E-02
RMM:   3    -0.232239891018E+04   -0.49703E-05   -0.87111E-05  2908   0.895E-03
 268 F= -.23433169E+04 E0= -.23433169E+04  d E =-.408538E-04  mag=     8.0000
       N       E                     dE             d eps       ncg     rms          rms(c)
DAV:   1    -0.232239890551E+04   -0.30588E-06   -0.94702E-05  4536   0.800E-03    0.111E-02
RMM:   2    -0.232239890735E+04   -0.18313E-05   -0.14366E-05  2531   0.307E-03
 269 F= -.23433169E+04 E0= -.23433169E+04  d E =-.397454E-04  mag=     8.0000
       N       E                     dE             d eps       ncg     rms          rms(c)
DAV:   1    -0.232239884590E+04    0.59610E-04   -0.12325E-02  4488   0.837E-02    0.346E-02
RMM:   2    -0.232239893088E+04   -0.84976E-04   -0.91872E-04  4741   0.166E-02    0.180E-02
RMM:   3    -0.232239893633E+04   -0.54454E-05   -0.96681E-05  2903   0.912E-03
 270 F= -.23433170E+04 E0= -.23433170E+04  d E =-.453754E-04  mag=     8.0000
       N       E                     dE             d eps       ncg     rms          rms(c)
DAV:   1    -0.232239892139E+04    0.94874E-05   -0.15640E-03  4856   0.298E-02    0.181E-02
RMM:   2    -0.232239893504E+04   -0.13645E-04   -0.13128E-04  3014   0.654E-03    0.226E-02
RMM:   3    -0.232239893266E+04    0.23757E-05   -0.17684E-05  2751   0.382E-03
 271 F= -.23433170E+04 E0= -.23433170E+04  d E =-.476166E-04  mag=     8.0000
       N       E                     dE             d eps       ncg     rms          rms(c)
DAV:   1    -0.232239887797E+04    0.57069E-04   -0.12363E-02  4488   0.830E-02    0.347E-02
RMM:   2    -0.232239896631E+04   -0.88340E-04   -0.94394E-04  4711   0.165E-02    0.189E-02
RMM:   3    -0.232239897166E+04   -0.53530E-05   -0.90480E-05  2906   0.872E-03
 272 F= -.23433170E+04 E0= -.23433170E+04  d E =-.472466E-04  mag=     8.0000
       N       E                     dE             d eps       ncg     rms          rms(c)
DAV:   1    -0.232239896358E+04    0.27267E-05   -0.94349E-04  4936   0.230E-02    0.146E-02
RMM:   2    -0.232239897179E+04   -0.82043E-05   -0.84193E-05  2932   0.519E-03
 273 F= -.23433170E+04 E0= -.23433170E+04  d E =-.496704E-04  mag=     8.0000
       N       E                     dE             d eps       ncg     rms          rms(c)
DAV:   1    -0.232239891393E+04    0.49649E-04   -0.12924E-02  4488   0.884E-02    0.358E-02
RMM:   2    -0.232239900824E+04   -0.94305E-04   -0.10143E-03  4760   0.185E-02    0.185E-02
RMM:   3    -0.232239901413E+04   -0.58959E-05   -0.10725E-04  2913   0.935E-03    0.140E-02
RMM:   4    -0.232239901450E+04   -0.36496E-06   -0.14351E-05  2893   0.281E-03
 274 F= -.23433171E+04 E0= -.23433171E+04  d E =-.471219E-04  mag=     8.0000
       N       E                     dE             d eps       ncg     rms          rms(c)
DAV:   1    -0.232239900863E+04    0.55079E-05   -0.54372E-04  5024   0.182E-02    0.845E-03
RMM:   2    -0.232239901286E+04   -0.42360E-05   -0.45711E-05  2763   0.422E-03
 275 F= -.23433171E+04 E0= -.23433171E+04  d E =-.464194E-04  mag=     8.0000
       N       E                     dE             d eps       ncg     rms          rms(c)
DAV:   1    -0.232239897164E+04    0.36991E-04   -0.89840E-03  4488   0.694E-02    0.287E-02
RMM:   2    -0.232239903876E+04   -0.67128E-04   -0.71722E-04  4099   0.150E-02    0.147E-02
RMM:   3    -0.232239904370E+04   -0.49400E-05   -0.76868E-05  2895   0.809E-03
 276 F= -.23433171E+04 E0= -.23433171E+04  d E =-.435707E-04  mag=     8.0000
       N       E                     dE             d eps       ncg     rms          rms(c)
DAV:   1    -0.232239899259E+04    0.46177E-04   -0.57580E-03  4508   0.555E-02    0.263E-02
RMM:   2    -0.232239903829E+04   -0.45700E-04   -0.47055E-04  3680   0.119E-02    0.253E-02
RMM:   3    -0.232239903906E+04   -0.77698E-06   -0.58200E-05  2896   0.647E-03
 277 F= -.23433171E+04 E0= -.23433171E+04  d E =-.491967E-04  mag=     8.0000
       N       E                     dE             d eps       ncg     rms          rms(c)
DAV:   1    -0.232239900492E+04    0.33362E-04   -0.71120E-03  4460   0.569E-02    0.260E-02
RMM:   2    -0.232239905990E+04   -0.54975E-04   -0.57042E-04  3659   0.122E-02    0.197E-02
RMM:   3    -0.232239906330E+04   -0.33965E-05   -0.62151E-05  2902   0.653E-03
 278 F= -.23433171E+04 E0= -.23433171E+04  d E =-.367849E-04  mag=     8.0000
       N       E                     dE             d eps       ncg     rms          rms(c)
DAV:   1    -0.232239900579E+04    0.54107E-04   -0.72885E-03  4476   0.574E-02    0.268E-02
RMM:   2    -0.232239906131E+04   -0.55522E-04   -0.58646E-04  3630   0.123E-02    0.188E-02
RMM:   3    -0.232239906535E+04   -0.40408E-05   -0.67788E-05  2899   0.684E-03
 279 F= -.23433172E+04 E0= -.23433172E+04  d E =-.515898E-04  mag=     8.0000
       N       E                     dE             d eps       ncg     rms          rms(c)
DAV:   1    -0.232239907374E+04   -0.12422E-04   -0.60444E-03  4456   0.637E-02    0.277E-02
RMM:   2    -0.232239911265E+04   -0.38912E-04   -0.41237E-04  3986   0.131E-02    0.199E-02
RMM:   3    -0.232239911501E+04   -0.23571E-05   -0.47905E-05  2896   0.719E-03
 280 F= -.23433172E+04 E0= -.23433172E+04  d E =-.565168E-04  mag=     8.0000
       N       E                     dE             d eps       ncg     rms          rms(c)
DAV:   1    -0.232239908852E+04    0.24126E-04   -0.44645E-03  4528   0.545E-02    0.252E-02
RMM:   2    -0.232239911570E+04   -0.27174E-04   -0.30709E-04  3686   0.115E-02    0.162E-02
RMM:   3    -0.232239911755E+04   -0.18514E-05   -0.36132E-05  2892   0.612E-03
 281 F= -.23433172E+04 E0= -.23433172E+04  d E =-.650031E-04  mag=     8.0000
       N       E                     dE             d eps       ncg     rms          rms(c)
DAV:   1    -0.232239911045E+04    0.52421E-05   -0.49137E-03  4488   0.549E-02    0.242E-02
RMM:   2    -0.232239914115E+04   -0.30692E-04   -0.33014E-04  3653   0.114E-02    0.164E-02
RMM:   3    -0.232239914358E+04   -0.24342E-05   -0.38573E-05  2892   0.632E-03
 282 F= -.23433173E+04 E0= -.23433173E+04  d E =-.262572E-04  mag=     8.0000
       N       E                     dE             d eps       ncg     rms          rms(c)
DAV:   1    -0.232239912317E+04    0.17972E-04   -0.39781E-03  4560   0.493E-02    0.223E-02
RMM:   2    -0.232239914762E+04   -0.24442E-04   -0.27064E-04  3416   0.104E-02    0.146E-02
RMM:   3    -0.232239914948E+04   -0.18607E-05   -0.31938E-05  2885   0.560E-03
 283 F= -.23433173E+04 E0= -.23433173E+04  d E =-.323667E-04  mag=     8.0000
       N       E                     dE             d eps       ncg     rms          rms(c)
DAV:   1    -0.232239915055E+04   -0.29296E-05   -0.51740E-03  4444   0.557E-02    0.235E-02
RMM:   2    -0.232239918324E+04   -0.32698E-04   -0.34664E-04  3692   0.118E-02    0.158E-02
RMM:   3    -0.232239918574E+04   -0.24960E-05   -0.39300E-05  2873   0.646E-03
 284 F= -.23433173E+04 E0= -.23433173E+04  d E =-.386796E-04  mag=     8.0000
       N       E                     dE             d eps       ncg     rms          rms(c)
DAV:   1    -0.232239915808E+04    0.25162E-04   -0.47150E-03  4476   0.530E-02    0.237E-02
RMM:   2    -0.232239918724E+04   -0.29160E-04   -0.32081E-04  3632   0.113E-02    0.159E-02
RMM:   3    -0.232239918926E+04   -0.20181E-05   -0.37239E-05  2893   0.603E-03
 285 F= -.23433173E+04 E0= -.23433173E+04  d E =-.445104E-04  mag=     8.0000
       N       E                     dE             d eps       ncg     rms          rms(c)
DAV:   1    -0.232239917694E+04    0.10305E-04   -0.38174E-03  4528   0.458E-02    0.204E-02
RMM:   2    -0.232239920115E+04   -0.24218E-04   -0.25769E-04  3294   0.975E-03    0.151E-02
RMM:   3    -0.232239920284E+04   -0.16881E-05   -0.29657E-05  2871   0.533E-03
 286 F= -.23433173E+04 E0= -.23433173E+04  d E =-.237777E-04  mag=     8.0000
       N       E                     dE             d eps       ncg     rms          rms(c)
DAV:   1    -0.232239916652E+04    0.34638E-04   -0.52971E-03  4476   0.538E-02    0.234E-02
RMM:   2    -0.232239919916E+04   -0.32640E-04   -0.35356E-04  3524   0.113E-02    0.154E-02
RMM:   3    -0.232239920157E+04   -0.24099E-05   -0.40789E-05  2899   0.618E-03
 287 F= -.23433173E+04 E0= -.23433173E+04  d E =-.344898E-04  mag=     8.0000
       N       E                     dE             d eps       ncg     rms          rms(c)
DAV:   1    -0.232239921398E+04   -0.14819E-04   -0.34318E-03  4496   0.473E-02    0.206E-02
RMM:   2    -0.232239923472E+04   -0.20747E-04   -0.22268E-04  3514   0.102E-02    0.143E-02
RMM:   3    -0.232239923610E+04   -0.13791E-05   -0.25747E-05  2835   0.565E-03
 288 F= -.23433174E+04 E0= -.23433174E+04  d E =-.432776E-04  mag=     8.0000
       N       E                     dE             d eps       ncg     rms          rms(c)
DAV:   1    -0.232239922347E+04    0.11251E-04   -0.30418E-03  4492   0.443E-02    0.202E-02
RMM:   2    -0.232239924071E+04   -0.17240E-04   -0.19629E-04  3367   0.963E-03    0.135E-02
RMM:   3    -0.232239924186E+04   -0.11496E-05   -0.24103E-05  2874   0.530E-03
 289 F= -.23433174E+04 E0= -.23433174E+04  d E =-.573131E-04  mag=     8.0000
       N       E                     dE             d eps       ncg     rms          rms(c)
DAV:   1    -0.232239923789E+04    0.28226E-05   -0.13532E-04  5176   0.972E-03    0.784E-03
RMM:   2    -0.232239923888E+04   -0.98800E-06   -0.11601E-05  2473   0.246E-03
 290 F= -.23433174E+04 E0= -.23433174E+04  d E =-.560890E-04  mag=     8.0000
       N       E                     dE             d eps       ncg     rms          rms(c)
DAV:   1    -0.232239924817E+04   -0.10277E-04   -0.27639E-03  4420   0.415E-02    0.175E-02
RMM:   2    -0.232239926571E+04   -0.17541E-04   -0.19221E-04  3239   0.892E-03    0.110E-02
RMM:   3    -0.232239926692E+04   -0.12121E-05   -0.21579E-05  2688   0.529E-03
 291 F= -.23433174E+04 E0= -.23433174E+04  d E =-.255292E-04  mag=     8.0000
       N       E                     dE             d eps       ncg     rms          rms(c)
DAV:   1    -0.232239925679E+04    0.89220E-05   -0.30421E-03  4460   0.434E-02    0.193E-02
RMM:   2    -0.232239927550E+04   -0.18710E-04   -0.21036E-04  3284   0.926E-03    0.120E-02
RMM:   3    -0.232239927706E+04   -0.15601E-05   -0.25407E-05  2866   0.539E-03
 292 F= -.23433174E+04 E0= -.23433174E+04  d E =-.330359E-04  mag=     8.0000
       N       E                     dE             d eps       ncg     rms          rms(c)
DAV:   1    -0.232239927630E+04   -0.80853E-06   -0.34277E-03  4416   0.458E-02    0.197E-02
RMM:   2    -0.232239929976E+04   -0.23459E-04   -0.24885E-04  3417   0.984E-03    0.142E-02
RMM:   3    -0.232239930175E+04   -0.19842E-05   -0.29943E-05  2837   0.567E-03
 293 F= -.23433175E+04 E0= -.23433175E+04  d E =-.288449E-04  mag=     8.0000
       N       E                     dE             d eps       ncg     rms          rms(c)
DAV:   1    -0.232239929389E+04    0.58738E-05   -0.14202E-03  4576   0.295E-02    0.143E-02
RMM:   2    -0.232239930366E+04   -0.97656E-05   -0.10695E-04  2982   0.664E-03    0.112E-02
RMM:   3    -0.232239930426E+04   -0.60638E-06   -0.12953E-05  2694   0.379E-03
 294 F= -.23433175E+04 E0= -.23433175E+04  d E =-.340456E-04  mag=     8.0000
       N       E                     dE             d eps       ncg     rms          rms(c)
DAV:   1    -0.232239929040E+04    0.13251E-04   -0.36221E-03  4460   0.499E-02    0.210E-02
RMM:   2    -0.232239931360E+04   -0.23199E-04   -0.25341E-04  3593   0.104E-02    0.127E-02
RMM:   3    -0.232239931555E+04   -0.19488E-05   -0.29727E-05  2858   0.628E-03
 295 F= -.23433175E+04 E0= -.23433175E+04  d E =-.283230E-04  mag=     8.0000
       N       E                     dE             d eps       ncg     rms          rms(c)
DAV:   1    -0.232239930482E+04    0.87823E-05   -0.63078E-04  4872   0.209E-02    0.114E-02
RMM:   2    -0.232239930911E+04   -0.42849E-05   -0.49171E-05  2863   0.484E-03
 296 F= -.23433175E+04 E0= -.23433175E+04  d E =-.290557E-04  mag=     8.0000
       N       E                     dE             d eps       ncg     rms          rms(c)
DAV:   1    -0.232239930098E+04    0.38452E-05   -0.37366E-03  4444   0.488E-02    0.210E-02
RMM:   2    -0.232239932831E+04   -0.27333E-04   -0.29079E-04  3542   0.112E-02    0.162E-02
RMM:   3    -0.232239933012E+04   -0.18103E-05   -0.33921E-05  2859   0.633E-03
 297 F= -.23433175E+04 E0= -.23433175E+04  d E =-.245790E-04  mag=     8.0000
       N       E                     dE             d eps       ncg     rms          rms(c)
DAV:   1    -0.232239932531E+04    0.29994E-05   -0.56649E-04  4936   0.191E-02    0.106E-02
RMM:   2    -0.232239932945E+04   -0.41382E-05   -0.46392E-05  2777   0.451E-03
 298 F= -.23433175E+04 E0= -.23433175E+04  d E =-.253184E-04  mag=     8.0000
       N       E                     dE             d eps       ncg     rms          rms(c)
DAV:   1    -0.232239932504E+04    0.26556E-06   -0.41242E-03  4456   0.514E-02    0.221E-02
RMM:   2    -0.232239935703E+04   -0.31987E-04   -0.33040E-04  3582   0.118E-02    0.190E-02
RMM:   3    -0.232239935812E+04   -0.10861E-05   -0.38788E-05  2803   0.645E-03
 299 F= -.23433175E+04 E0= -.23433175E+04  d E =-.283944E-04  mag=     8.0000
       N       E                     dE             d eps       ncg     rms          rms(c)
DAV:   1    -0.232239934755E+04    0.94851E-05   -0.19748E-03  4480   0.355E-02    0.164E-02
RMM:   2    -0.232239936143E+04   -0.13887E-04   -0.15525E-04  3055   0.804E-03    0.109E-02
RMM:   3    -0.232239936260E+04   -0.11688E-05   -0.19163E-05  2817   0.457E-03
 300 F= -.23433176E+04 E0= -.23433176E+04  d E =-.326928E-04  mag=     8.0000
       N       E                     dE             d eps       ncg     rms          rms(c)
DAV:   1    -0.232239934717E+04    0.14264E-04   -0.51300E-03  4456   0.551E-02    0.234E-02
RMM:   2    -0.232239938598E+04   -0.38814E-04   -0.41133E-04  3647   0.118E-02    0.148E-02
RMM:   3    -0.232239938922E+04   -0.32411E-05   -0.46156E-05  2877   0.670E-03
 301 F= -.23433176E+04 E0= -.23433176E+04  d E =-.280693E-04  mag=     8.0000
