       N       E                     dE             d eps       ncg     rms          rms(c)
DAV:   1     0.131481503856E+05    0.13148E+05   -0.84548E+05  4544   0.144E+03
DAV:   2    -0.101203486710E+04   -0.14160E+05   -0.13522E+05  4928   0.331E+02
DAV:   3    -0.248396317799E+04   -0.14719E+04   -0.14536E+04  5536   0.115E+02
DAV:   4    -0.252935353115E+04   -0.45390E+02   -0.45130E+02  6696   0.290E+01
DAV:   5    -0.253023365691E+04   -0.88013E+00   -0.87800E+00  6264   0.350E+00    0.170E+02
RMM:   6    -0.149533310047E+04    0.10349E+04   -0.19631E+03  4481   0.383E+01    0.724E+01
RMM:   7    -0.166881431098E+04   -0.17348E+03   -0.29084E+02  5212   0.144E+01    0.511E+01
RMM:   8    -0.171950694273E+04   -0.50693E+02   -0.64020E+01  5333   0.767E+00    0.453E+01
RMM:   9    -0.178565683160E+04   -0.66150E+02   -0.55298E+01  5066   0.706E+00    0.364E+01
RMM:  10    -0.191922758865E+04   -0.13357E+03   -0.63209E+01  5072   0.772E+00    0.233E+01
RMM:  11    -0.200009659960E+04   -0.80869E+02   -0.28611E+01  4934   0.478E+00    0.270E+01
RMM:  12    -0.205804928512E+04   -0.57953E+02   -0.21405E+01  5052   0.377E+00    0.166E+01
RMM:  13    -0.213408322838E+04   -0.76034E+02   -0.33452E+01  5078   0.458E+00    0.155E+01
RMM:  14    -0.224291026690E+04   -0.10883E+03   -0.85697E+01  4573   0.668E+00    0.948E+00
RMM:  15    -0.229088168059E+04   -0.47971E+02   -0.41135E+01  4727   0.481E+00    0.746E+00
RMM:  16    -0.231476852666E+04   -0.23887E+02   -0.23537E+01  4588   0.350E+00    0.531E+00
RMM:  17    -0.232122032612E+04   -0.64518E+01   -0.68867E+00  4767   0.213E+00    0.277E+00
RMM:  18    -0.232378595769E+04   -0.25656E+01   -0.20943E+00  5150   0.946E-01    0.141E+00
RMM:  19    -0.232455185452E+04   -0.76590E+00   -0.40222E-01  5024   0.545E-01    0.637E-01
RMM:  20    -0.232478321210E+04   -0.23136E+00   -0.94961E-02  4846   0.227E-01    0.455E-01
RMM:  21    -0.232485330137E+04   -0.70089E-01   -0.27776E-02  4812   0.148E-01    0.504E-01
RMM:  22    -0.232486722458E+04   -0.13923E-01   -0.61120E-03  5209   0.597E-02    0.610E-01
RMM:  23    -0.232486193602E+04    0.52886E-02   -0.22658E-03  4911   0.358E-02    0.376E-01
RMM:  24    -0.232488599194E+04   -0.24056E-01   -0.75775E-03  4466   0.663E-02    0.297E-01
RMM:  25    -0.232489860342E+04   -0.12611E-01   -0.42846E-03  4479   0.506E-02    0.188E-01
RMM:  26    -0.232490884211E+04   -0.10239E-01   -0.38659E-03  4550   0.465E-02    0.216E-01
RMM:  27    -0.232491254769E+04   -0.37056E-02   -0.32478E-03  4709   0.428E-02    0.336E-01
RMM:  28    -0.232491326831E+04   -0.72063E-03   -0.24864E-04  4256   0.154E-02    0.295E-01
RMM:  29    -0.232491858513E+04   -0.53168E-02   -0.97771E-04  4119   0.200E-02    0.229E-01
RMM:  30    -0.232492390922E+04   -0.53241E-02   -0.26668E-03  4310   0.280E-02    0.209E-01
RMM:  31    -0.232492836163E+04   -0.44524E-02   -0.39425E-03  4605   0.342E-02    0.446E-01
RMM:  32    -0.232492689276E+04    0.14689E-02   -0.94455E-04  4341   0.177E-02    0.186E-01
RMM:  33    -0.232492686878E+04    0.23982E-04   -0.38432E-04  4067   0.114E-02    0.196E-01
RMM:  34    -0.232492722002E+04   -0.35125E-03   -0.72957E-04  4211   0.150E-02    0.172E-01
RMM:  35    -0.232492726229E+04   -0.42269E-04   -0.58509E-04  4254   0.152E-02    0.194E-01
RMM:  36    -0.232492710633E+04    0.15596E-03   -0.26873E-04  3956   0.101E-02    0.216E-01
RMM:  37    -0.232492674989E+04    0.35644E-03   -0.19281E-04  3606   0.814E-03    0.245E-01
RMM:  38    -0.232492612458E+04    0.62531E-03   -0.27636E-04  3739   0.934E-03    0.297E-01
RMM:  39    -0.232492636738E+04   -0.24280E-03   -0.20874E-05  2917   0.437E-03    0.281E-01
RMM:  40    -0.232492659090E+04   -0.22352E-03   -0.25417E-05  2708   0.284E-03    0.263E-01
RMM:  41    -0.232492765420E+04   -0.10633E-02   -0.68950E-04  4096   0.120E-02    0.203E-01
RMM:  42    -0.232492870697E+04   -0.10528E-02   -0.11019E-03  4268   0.167E-02    0.206E-01
RMM:  43    -0.232492879447E+04   -0.87500E-04   -0.13390E-04  3109   0.757E-03    0.194E-01
RMM:  44    -0.232492882534E+04   -0.30872E-04   -0.24873E-05  2790   0.304E-03    0.196E-01
RMM:  45    -0.232492871813E+04    0.10721E-03   -0.92591E-06  2537   0.246E-03    0.187E-01
RMM:  46    -0.232492837509E+04    0.34304E-03   -0.11532E-04  3058   0.518E-03    0.171E-01
RMM:  47    -0.232492825154E+04    0.12355E-03   -0.29042E-05  2787   0.335E-03    0.176E-01
RMM:  48    -0.232492847292E+04   -0.22138E-03   -0.29980E-05  2629   0.267E-03    0.183E-01
RMM:  49    -0.232492892286E+04   -0.44994E-03   -0.17861E-04  3182   0.630E-03    0.206E-01
RMM:  50    -0.232492946036E+04   -0.53750E-03   -0.24074E-04  3524   0.749E-03    0.244E-01
RMM:  51    -0.232492919700E+04    0.26336E-03   -0.31885E-05  2805   0.410E-03    0.205E-01
RMM:  52    -0.232492808910E+04    0.11079E-02   -0.13229E-03  4365   0.164E-02    0.165E-01
RMM:  53    -0.232492707915E+04    0.10099E-02   -0.95698E-04  4114   0.168E-02    0.231E-01
RMM:  54    -0.232492518190E+04    0.18973E-02   -0.17669E-03  4876   0.198E-02    0.383E-01
RMM:  55    -0.232492554842E+04   -0.36653E-03   -0.75680E-05  3074   0.763E-03    0.357E-01
RMM:  56    -0.232492510882E+04    0.43960E-03   -0.61429E-05  2952   0.378E-03    0.388E-01
RMM:  57    -0.232492562374E+04   -0.51492E-03   -0.60375E-05  2877   0.434E-03    0.349E-01
RMM:  58    -0.232492727879E+04   -0.16551E-02   -0.11873E-03  4286   0.159E-02    0.228E-01
RMM:  59    -0.232492816919E+04   -0.89040E-03   -0.91292E-04  4031   0.162E-02    0.189E-01
RMM:  60    -0.232492859833E+04   -0.42913E-03   -0.40960E-04  3975   0.984E-03    0.190E-01
RMM:  61    -0.232492917175E+04   -0.57343E-03   -0.34186E-04  3810   0.954E-03    0.223E-01
RMM:  62    -0.232492960795E+04   -0.43620E-03   -0.20913E-04  3412   0.838E-03    0.253E-01
RMM:  63    -0.232492982663E+04   -0.21868E-03   -0.81252E-05  3042   0.540E-03    0.266E-01
RMM:  64    -0.232492989240E+04   -0.65765E-04   -0.13015E-05  2838   0.336E-03    0.269E-01
RMM:  65    -0.232492988983E+04    0.25646E-05   -0.25515E-06  2533   0.202E-03
   1 F= -.23463741E+04 E0= -.23463647E+04  d E =-.234637E+04  mag=     4.7621
       N       E                     dE             d eps       ncg     rms          rms(c)
DAV:   1    -0.232495742503E+04   -0.27533E-01   -0.98558E+00  4752   0.242E+00    0.123E+00
RMM:   2    -0.232518498984E+04   -0.22756E+00   -0.21602E+00  6553   0.676E-01    0.216E+00
RMM:   3    -0.232520218986E+04   -0.17200E-01   -0.26058E-01  6162   0.279E-01    0.206E+00
RMM:   4    -0.232520996495E+04   -0.77751E-02   -0.26048E-02  6009   0.549E-02    0.220E+00
RMM:   5    -0.232521044370E+04   -0.47875E-03   -0.11207E-03  3617   0.124E-02    0.219E+00
RMM:   6    -0.232519842306E+04    0.12021E-01   -0.15914E-02  4955   0.602E-02    0.155E+00
RMM:   7    -0.232517505469E+04    0.23368E-01   -0.52534E-02  5352   0.929E-02    0.115E+00
RMM:   8    -0.232516118740E+04    0.13867E-01   -0.13454E-02  5686   0.562E-02    0.904E-01
RMM:   9    -0.232515254735E+04    0.86400E-02   -0.98769E-03  5469   0.456E-02    0.119E+00
RMM:  10    -0.232514210370E+04    0.10444E-01   -0.29071E-03  5128   0.298E-02    0.130E+00
RMM:  11    -0.232515838620E+04   -0.16283E-01   -0.95896E-03  4514   0.468E-02    0.864E-01
RMM:  12    -0.232517150215E+04   -0.13116E-01   -0.32767E-02  5149   0.913E-02    0.109E+00
RMM:  13    -0.232519261388E+04   -0.21112E-01   -0.19129E-02  5289   0.640E-02    0.187E+00
RMM:  14    -0.232519291463E+04   -0.30074E-03   -0.15296E-03  4757   0.256E-02    0.172E+00
RMM:  15    -0.232519920070E+04   -0.62861E-02   -0.10937E-03  4478   0.143E-02    0.192E+00
RMM:  16    -0.232519726184E+04    0.19389E-02   -0.15004E-04  3187   0.923E-03    0.182E+00
RMM:  17    -0.232522295364E+04   -0.25692E-01   -0.90743E-03  4798   0.428E-02    0.211E+00
RMM:  18    -0.232523420151E+04   -0.11248E-01   -0.38838E-03  4720   0.342E-02    0.200E+00
RMM:  19    -0.232525423847E+04   -0.20037E-01   -0.72633E-03  5196   0.383E-02    0.166E+00
RMM:  20    -0.232524421734E+04    0.10021E-01   -0.33667E-03  4536   0.291E-02    0.196E+00
RMM:  21    -0.232526850932E+04   -0.24292E-01   -0.92514E-03  4986   0.452E-02    0.136E+00
RMM:  22    -0.232526939612E+04   -0.88680E-03   -0.64422E-04  4103   0.180E-02    0.133E+00
RMM:  23    -0.232527475038E+04   -0.53543E-02   -0.90218E-04  4469   0.127E-02    0.116E+00
RMM:  24    -0.232527827492E+04   -0.35245E-02   -0.50966E-04  3884   0.119E-02    0.103E+00
RMM:  25    -0.232528237922E+04   -0.41043E-02   -0.95512E-04  4438   0.148E-02    0.837E-01
RMM:  26    -0.232528592762E+04   -0.35484E-02   -0.11762E-03  4405   0.169E-02    0.625E-01
RMM:  27    -0.232528807415E+04   -0.21465E-02   -0.84592E-04  4436   0.142E-02    0.452E-01
RMM:  28    -0.232528904452E+04   -0.97036E-03   -0.41078E-04  3812   0.111E-02    0.350E-01
RMM:  29    -0.232528960151E+04   -0.55699E-03   -0.24860E-04  3439   0.802E-03    0.277E-01
RMM:  30    -0.232528994505E+04   -0.34354E-03   -0.12816E-04  3144   0.647E-03    0.224E-01
RMM:  31    -0.232529036129E+04   -0.41624E-03   -0.25912E-04  3557   0.822E-03    0.138E-01
RMM:  32    -0.232529054508E+04   -0.18379E-03   -0.15860E-04  3162   0.697E-03    0.829E-02
RMM:  33    -0.232529060818E+04   -0.63104E-04   -0.49401E-05  2988   0.470E-03    0.526E-02
RMM:  34    -0.232529064613E+04   -0.37950E-04   -0.52299E-05  2993   0.435E-03    0.162E-02
RMM:  35    -0.232529065221E+04   -0.60731E-05   -0.14393E-05  2821   0.343E-03
   2 F= -.23467254E+04 E0= -.23467245E+04  d E =-.351291E+00  mag=     2.9994
       N       E                     dE             d eps       ncg     rms          rms(c)
DAV:   1    -0.232366672961E+04    0.16239E+01   -0.89727E+01  4552   0.729E+00    0.296E+00
RMM:   2    -0.232594047101E+04   -0.22737E+01   -0.22674E+01  6600   0.244E+00    0.419E+00
RMM:   3    -0.232581979837E+04    0.12067E+00   -0.23337E+00  6092   0.893E-01    0.251E+00
RMM:   4    -0.232577723942E+04    0.42559E-01   -0.25968E-01  6418   0.197E-01    0.158E+00
RMM:   5    -0.232575639799E+04    0.20841E-01   -0.38886E-02  6300   0.913E-02    0.106E+00
RMM:   6    -0.232574008608E+04    0.16312E-01   -0.41278E-02  5825   0.926E-02    0.628E-01
RMM:   7    -0.232574159911E+04   -0.15130E-02   -0.21459E-02  5857   0.799E-02    0.636E-01
RMM:   8    -0.232573685924E+04    0.47399E-02   -0.50137E-03  5771   0.366E-02    0.143E-01
RMM:   9    -0.232573653560E+04    0.32364E-03   -0.11491E-03  4819   0.173E-02    0.773E-02
RMM:  10    -0.232573653013E+04    0.54765E-05   -0.39881E-04  4382   0.113E-02    0.296E-02
RMM:  11    -0.232573658641E+04   -0.56283E-04   -0.57624E-05  3327   0.619E-03    0.152E-02
RMM:  12    -0.232573663273E+04   -0.46315E-04   -0.22799E-05  3019   0.472E-03    0.855E-03
RMM:  13    -0.232573665728E+04   -0.24556E-04   -0.10202E-05  2906   0.378E-03    0.469E-03
RMM:  14    -0.232573667733E+04   -0.20046E-04   -0.95624E-06  2873   0.314E-03    0.405E-03
RMM:  15    -0.232573668389E+04   -0.65669E-05   -0.46167E-06  2828   0.294E-03
   3 F= -.23471670E+04 E0= -.23471670E+04  d E =-.792941E+00  mag=     3.0000
       N       E                     dE             d eps       ncg     rms          rms(c)
DAV:   1    -0.232566794883E+04    0.68728E-01   -0.97175E+00  4608   0.291E+00    0.109E+00
RMM:   2    -0.232587393829E+04   -0.20599E+00   -0.21405E+00  6300   0.851E-01    0.929E-01
RMM:   3    -0.232588836289E+04   -0.14425E-01   -0.22434E-01  6034   0.342E-01    0.102E+00
RMM:   4    -0.232587987047E+04    0.84924E-02   -0.21048E-02  6325   0.688E-02    0.406E-01
RMM:   5    -0.232587952876E+04    0.34171E-03   -0.57057E-03  6060   0.398E-02    0.401E-01
RMM:   6    -0.232587732408E+04    0.22047E-02   -0.57796E-03  6005   0.421E-02    0.149E-01
RMM:   7    -0.232587714008E+04    0.18400E-03   -0.81948E-04  5272   0.190E-02    0.106E-01
RMM:   8    -0.232587703318E+04    0.10690E-03   -0.24809E-04  3311   0.944E-03    0.604E-02
RMM:   9    -0.232587697352E+04    0.59654E-04   -0.87633E-05  3342   0.654E-03    0.283E-02
RMM:  10    -0.232587695780E+04    0.15729E-04   -0.43251E-05  3112   0.575E-03    0.115E-02
RMM:  11    -0.232587695553E+04    0.22677E-05   -0.14367E-05  2932   0.415E-03
   4 F= -.23473071E+04 E0= -.23473071E+04  d E =-.140050E+00  mag=     3.0000
       N       E                     dE             d eps       ncg     rms          rms(c)
DAV:   1    -0.232584985331E+04    0.27104E-01   -0.20004E+00  4680   0.135E+00    0.495E-01
RMM:   2    -0.232589265381E+04   -0.42800E-01   -0.44339E-01  6318   0.389E-01    0.447E-01
RMM:   3    -0.232589572155E+04   -0.30677E-02   -0.47925E-02  5962   0.162E-01    0.456E-01
RMM:   4    -0.232589391337E+04    0.18082E-02   -0.42923E-03  5779   0.317E-02    0.179E-01
RMM:   5    -0.232589386330E+04    0.50068E-04   -0.13782E-03  5772   0.209E-02    0.185E-01
RMM:   6    -0.232589343262E+04    0.43068E-03   -0.98524E-04  5620   0.178E-02    0.725E-02
RMM:   7    -0.232589340094E+04    0.31680E-04   -0.18075E-04  3813   0.885E-03    0.537E-02
RMM:   8    -0.232589336567E+04    0.35272E-04   -0.56542E-05  2947   0.575E-03    0.245E-02
RMM:   9    -0.232589335562E+04    0.10055E-04   -0.17039E-05  2981   0.345E-03    0.118E-02
RMM:  10    -0.232589335297E+04    0.26505E-05   -0.96190E-06  2914   0.320E-03
   5 F= -.23473234E+04 E0= -.23473234E+04  d E =-.156385E+00  mag=     3.0000
       N       E                     dE             d eps       ncg     rms          rms(c)
DAV:   1    -0.232584642187E+04    0.46934E-01   -0.39439E+00  4576   0.172E+00    0.751E-01
RMM:   2    -0.232596228401E+04   -0.11586E+00   -0.11731E+00  6523   0.521E-01    0.107E+00
RMM:   3    -0.232596251021E+04   -0.22620E-03   -0.13346E-01  6395   0.204E-01    0.605E-01
RMM:   4    -0.232595897531E+04    0.35349E-02   -0.11024E-02  5778   0.445E-02    0.240E-01
RMM:   5    -0.232595876661E+04    0.20870E-03   -0.20754E-03  5373   0.222E-02    0.264E-01
RMM:   6    -0.232595781274E+04    0.95387E-03   -0.21752E-03  5611   0.238E-02    0.951E-02
RMM:   7    -0.232595773894E+04    0.73803E-04   -0.36482E-04  4766   0.132E-02    0.323E-02
RMM:   8    -0.232595773726E+04    0.16821E-05   -0.66897E-05  3084   0.601E-03
   6 F= -.23473874E+04 E0= -.23473874E+04  d E =-.640198E-01  mag=     3.0000
       N       E                     dE             d eps       ncg     rms          rms(c)
DAV:   1    -0.232580205929E+04    0.15568E+00   -0.64919E+00  4576   0.221E+00    0.966E-01
RMM:   2    -0.232599111021E+04   -0.18905E+00   -0.19232E+00  6517   0.666E-01    0.135E+00
RMM:   3    -0.232599460361E+04   -0.34934E-02   -0.23731E-01  6407   0.268E-01    0.821E-01
RMM:   4    -0.232598784907E+04    0.67545E-02   -0.18590E-02  5923   0.576E-02    0.310E-01
RMM:   5    -0.232598747098E+04    0.37810E-03   -0.34709E-03  5558   0.277E-02    0.344E-01
RMM:   6    -0.232598592587E+04    0.15451E-02   -0.37698E-03  5728   0.316E-02    0.128E-01
RMM:   7    -0.232598578247E+04    0.14340E-03   -0.62658E-04  5236   0.161E-02    0.407E-02
RMM:   8    -0.232598576027E+04    0.22200E-04   -0.10379E-04  3401   0.718E-03    0.347E-02
RMM:   9    -0.232598575089E+04    0.93767E-05   -0.55614E-05  2974   0.579E-03
   7 F= -.23474151E+04 E0= -.23474151E+04  d E =-.916764E-01  mag=     3.0000
       N       E                     dE             d eps       ncg     rms          rms(c)
DAV:   1    -0.232597847504E+04    0.72852E-02   -0.23804E+00  4576   0.149E+00    0.576E-01
RMM:   2    -0.232601285483E+04   -0.34380E-01   -0.37074E-01  6176   0.368E-01    0.424E-01
RMM:   3    -0.232601657895E+04   -0.37241E-02   -0.42438E-02  6047   0.150E-01    0.556E-01
RMM:   4    -0.232601325488E+04    0.33241E-02   -0.42157E-03  5995   0.362E-02    0.179E-01
RMM:   5    -0.232601321420E+04    0.40683E-04   -0.14950E-03  5495   0.214E-02    0.202E-01
RMM:   6    -0.232601275353E+04    0.46067E-03   -0.11268E-03  5531   0.200E-02    0.717E-02
RMM:   7    -0.232601276572E+04   -0.12192E-04   -0.29625E-04  4351   0.125E-02    0.739E-02
RMM:   8    -0.232601268307E+04    0.82646E-04   -0.76983E-05  3000   0.599E-03    0.169E-02
RMM:   9    -0.232601267481E+04    0.82614E-05   -0.20220E-05  2995   0.402E-03
   8 F= -.23474420E+04 E0= -.23474419E+04  d E =-.268597E-01  mag=     3.0000
       N       E                     dE             d eps       ncg     rms          rms(c)
DAV:   1    -0.232600452174E+04    0.81613E-02   -0.90371E-01  4608   0.920E-01    0.355E-01
RMM:   2    -0.232601758987E+04   -0.13068E-01   -0.14055E-01  6193   0.227E-01    0.265E-01
RMM:   3    -0.232601896307E+04   -0.13732E-02   -0.15919E-02  6032   0.915E-02    0.343E-01
RMM:   4    -0.232601769193E+04    0.12711E-02   -0.15994E-03  5518   0.225E-02    0.110E-01
RMM:   5    -0.232601767693E+04    0.15004E-04   -0.59402E-04  4864   0.142E-02    0.126E-01
RMM:   6    -0.232601748716E+04    0.18977E-03   -0.45635E-04  5123   0.132E-02    0.424E-02
RMM:   7    -0.232601749128E+04   -0.41238E-05   -0.10845E-04  3249   0.861E-03    0.456E-02
RMM:   8    -0.232601745914E+04    0.32148E-04   -0.30008E-05  2920   0.473E-03    0.102E-02
RMM:   9    -0.232601745515E+04    0.39860E-05   -0.95552E-06  2938   0.296E-03
   9 F= -.23474467E+04 E0= -.23474467E+04  d E =-.316105E-01  mag=     3.0000
       N       E                     dE             d eps       ncg     rms          rms(c)
DAV:   1    -0.232602620301E+04   -0.87439E-02   -0.17511E+00  4560   0.110E+00    0.383E-01
RMM:   2    -0.232604253858E+04   -0.16336E-01   -0.16645E-01  6293   0.246E-01    0.350E-01
RMM:   3    -0.232604319463E+04   -0.65606E-03   -0.16754E-02  6060   0.861E-02    0.317E-01
RMM:   4    -0.232604220330E+04    0.99133E-03   -0.17828E-03  5384   0.228E-02    0.128E-01
RMM:   5    -0.232604219977E+04    0.35320E-05   -0.65196E-04  4689   0.153E-02    0.124E-01
RMM:   6    -0.232604197814E+04    0.22163E-03   -0.48665E-04  5246   0.139E-02    0.324E-02
RMM:   7    -0.232604196856E+04    0.95805E-05   -0.63698E-05  3084   0.726E-03
  10 F= -.23474717E+04 E0= -.23474716E+04  d E =-.249522E-01  mag=     3.0000
       N       E                     dE             d eps       ncg     rms          rms(c)
DAV:   1    -0.232595516968E+04    0.86808E-01   -0.12476E+01  4528   0.294E+00    0.103E+00
RMM:   2    -0.232607242572E+04   -0.11726E+00   -0.11971E+00  6258   0.652E-01    0.935E-01
RMM:   3    -0.232607764236E+04   -0.52166E-02   -0.12471E-01  6151   0.234E-01    0.864E-01
RMM:   4    -0.232607014212E+04    0.75002E-02   -0.12829E-02  6038   0.614E-02    0.343E-01
RMM:   5    -0.232607016043E+04   -0.18310E-04   -0.46550E-03  5840   0.385E-02    0.335E-01
RMM:   6    -0.232606855784E+04    0.16026E-02   -0.33633E-03  5804   0.346E-02    0.998E-02
RMM:   7    -0.232606850665E+04    0.51184E-04   -0.54854E-04  4744   0.163E-02    0.839E-02
RMM:   8    -0.232606844300E+04    0.63654E-04   -0.19942E-04  3395   0.845E-03    0.552E-02
RMM:   9    -0.232606839786E+04    0.45135E-04   -0.51574E-05  3194   0.591E-03    0.168E-02
RMM:  10    -0.232606839196E+04    0.59060E-05   -0.27094E-05  3007   0.468E-03
  11 F= -.23474993E+04 E0= -.23474993E+04  d E =-.525820E-01  mag=     3.0000
       N       E                     dE             d eps       ncg     rms          rms(c)
DAV:   1    -0.232607769611E+04   -0.92982E-02   -0.98452E-01  4736   0.770E-01    0.279E-01
RMM:   2    -0.232608683258E+04   -0.91365E-02   -0.85598E-02  6330   0.164E-01    0.354E-01
RMM:   3    -0.232608623295E+04    0.59963E-03   -0.81718E-03  5938   0.582E-02    0.199E-01
RMM:   4    -0.232608581196E+04    0.42099E-03   -0.85648E-04  4545   0.153E-02    0.796E-02
RMM:   5    -0.232608586128E+04   -0.49314E-04   -0.30177E-04  3903   0.106E-02    0.990E-02
RMM:   6    -0.232608574175E+04    0.11953E-03   -0.24296E-04  4424   0.101E-02    0.398E-02
RMM:   7    -0.232608573934E+04    0.24092E-05   -0.56465E-05  2962   0.594E-03
  12 F= -.23475170E+04 E0= -.23475169E+04  d E =-.176774E-01  mag=     3.0000
       N       E                     dE             d eps       ncg     rms          rms(c)
DAV:   1    -0.232604449096E+04    0.41251E-01   -0.88384E+00  4528   0.231E+00    0.845E-01
RMM:   2    -0.232612772383E+04   -0.83233E-01   -0.77929E-01  6269   0.498E-01    0.108E+00
RMM:   3    -0.232612156409E+04    0.61597E-02   -0.74605E-02  6162   0.177E-01    0.598E-01
RMM:   4    -0.232611784851E+04    0.37156E-02   -0.79425E-03  5793   0.459E-02    0.252E-01
RMM:   5    -0.232611823843E+04   -0.38992E-03   -0.26293E-03  5583   0.293E-02    0.304E-01
RMM:   6    -0.232611712152E+04    0.11169E-02   -0.21646E-03  5512   0.267E-02    0.126E-01
RMM:   7    -0.232611707649E+04    0.45023E-04   -0.55098E-04  4229   0.151E-02    0.928E-02
RMM:   8    -0.232611696013E+04    0.11637E-03   -0.12670E-04  3256   0.667E-03    0.248E-02
RMM:   9    -0.232611694888E+04    0.11249E-04   -0.33427E-05  2980   0.453E-03    0.120E-02
RMM:  10    -0.232611694682E+04    0.20620E-05   -0.14671E-05  2953   0.367E-03
  13 F= -.23475491E+04 E0= -.23475491E+04  d E =-.498514E-01  mag=     3.0000
       N       E                     dE             d eps       ncg     rms          rms(c)
DAV:   1    -0.232579237409E+04    0.32457E+00   -0.35235E+01  4512   0.462E+00    0.169E+00
RMM:   2    -0.232613040681E+04   -0.33803E+00   -0.31784E+00  6279   0.100E+00    0.213E+00
RMM:   3    -0.232610529216E+04    0.25115E-01   -0.30471E-01  6107   0.355E-01    0.120E+00
RMM:   4    -0.232609086366E+04    0.14428E-01   -0.33093E-02  5967   0.929E-02    0.547E-01
RMM:   5    -0.232609188787E+04   -0.10242E-02   -0.10700E-02  5949   0.568E-02    0.622E-01
RMM:   6    -0.232608741737E+04    0.44705E-02   -0.92570E-03  5570   0.534E-02    0.262E-01
RMM:   7    -0.232608720199E+04    0.21538E-03   -0.24644E-03  5200   0.309E-02    0.196E-01
RMM:   8    -0.232608669032E+04    0.51167E-03   -0.58102E-04  4771   0.130E-02    0.522E-02
RMM:   9    -0.232608664954E+04    0.40787E-04   -0.14435E-04  3603   0.764E-03    0.255E-02
RMM:  10    -0.232608664050E+04    0.90372E-05   -0.49850E-05  3240   0.592E-03
  14 F= -.23475205E+04 E0= -.23475205E+04  d E =-.211763E-01  mag=     3.0000
       N       E                     dE             d eps       ncg     rms          rms(c)
DAV:   1    -0.232596610715E+04    0.12054E+00   -0.18912E+01  4512   0.337E+00    0.121E+00
RMM:   2    -0.232613700984E+04   -0.17090E+00   -0.16196E+00  6300   0.715E-01    0.147E+00
RMM:   3    -0.232613158668E+04    0.54232E-02   -0.16899E-01  6220   0.263E-01    0.909E-01
RMM:   4    -0.232612253229E+04    0.90544E-02   -0.16248E-02  5784   0.675E-02    0.337E-01
RMM:   5    -0.232612384366E+04   -0.13114E-02   -0.62937E-03  5940   0.435E-02    0.461E-01
RMM:   6    -0.232612119498E+04    0.26487E-02   -0.40941E-03  5869   0.361E-02    0.170E-01
RMM:   7    -0.232612117490E+04    0.20083E-04   -0.95838E-04  5033   0.182E-02    0.128E-01
RMM:   8    -0.232612094792E+04    0.22698E-03   -0.28553E-04  3546   0.901E-03    0.418E-02
RMM:   9    -0.232612091783E+04    0.30088E-04   -0.64594E-05  3048   0.548E-03    0.190E-02
RMM:  10    -0.232612091101E+04    0.68171E-05   -0.26764E-05  2971   0.480E-03
  15 F= -.23475536E+04 E0= -.23475536E+04  d E =-.543041E-01  mag=     3.0000
       N       E                     dE             d eps       ncg     rms          rms(c)
DAV:   1    -0.232612710446E+04   -0.61866E-02   -0.12883E+00  4544   0.946E-01    0.333E-01
RMM:   2    -0.232613813667E+04   -0.11032E-01   -0.11228E-01  6298   0.203E-01    0.278E-01
RMM:   3    -0.232613868478E+04   -0.54811E-03   -0.11423E-02  6095   0.757E-02    0.264E-01
RMM:   4    -0.232613772248E+04    0.96229E-03   -0.11784E-03  5496   0.212E-02    0.919E-02
RMM:   5    -0.232613771486E+04    0.76169E-05   -0.56251E-04  5070   0.149E-02    0.104E-01
RMM:   6    -0.232613760653E+04    0.10833E-03   -0.28621E-04  4167   0.106E-02    0.491E-02
RMM:   7    -0.232613759665E+04    0.98835E-05   -0.65613E-05  3019   0.648E-03
  16 F= -.23475704E+04 E0= -.23475704E+04  d E =-.168095E-01  mag=     3.0000
       N       E                     dE             d eps       ncg     rms          rms(c)
DAV:   1    -0.232605443118E+04    0.83175E-01   -0.11586E+01  4512   0.283E+00    0.100E+00
RMM:   2    -0.232615352468E+04   -0.99093E-01   -0.10142E+00  6224   0.604E-01    0.821E-01
RMM:   3    -0.232616026461E+04   -0.67399E-02   -0.10727E-01  6151   0.228E-01    0.835E-01
RMM:   4    -0.232615070578E+04    0.95588E-02   -0.10811E-02  6132   0.640E-02    0.276E-01
RMM:   5    -0.232615047730E+04    0.22848E-03   -0.50091E-03  5684   0.422E-02    0.282E-01
RMM:   6    -0.232614977861E+04    0.69869E-03   -0.25816E-03  5747   0.291E-02    0.169E-01
RMM:   7    -0.232614955290E+04    0.22570E-03   -0.59859E-04  4918   0.155E-02    0.941E-02
RMM:   8    -0.232614946701E+04    0.85894E-04   -0.17400E-04  3298   0.923E-03    0.500E-02
RMM:   9    -0.232614942236E+04    0.44644E-04   -0.69340E-05  3278   0.579E-03    0.192E-02
RMM:  10    -0.232614941406E+04    0.83024E-05   -0.33804E-05  3085   0.535E-03
  17 F= -.23475825E+04 E0= -.23475825E+04  d E =-.288856E-01  mag=     3.0000
       N       E                     dE             d eps       ncg     rms          rms(c)
DAV:   1    -0.232614432096E+04    0.51014E-02   -0.91102E-01  4672   0.790E-01    0.283E-01
RMM:   2    -0.232615225819E+04   -0.79372E-02   -0.79719E-02  6332   0.170E-01    0.247E-01
RMM:   3    -0.232615253347E+04   -0.27529E-03   -0.80736E-03  6062   0.628E-02    0.220E-01
RMM:   4    -0.232615188160E+04    0.65187E-03   -0.84462E-04  5185   0.177E-02    0.784E-02
RMM:   5    -0.232615190379E+04   -0.22187E-04   -0.37892E-04  4766   0.122E-02    0.945E-02
RMM:   6    -0.232615180883E+04    0.94956E-04   -0.21589E-04  3788   0.945E-03    0.359E-02
RMM:   7    -0.232615181237E+04   -0.35312E-05   -0.50817E-05  2971   0.614E-03
  18 F= -.23475848E+04 E0= -.23475848E+04  d E =-.312298E-01  mag=     3.0000
       N       E                     dE             d eps       ncg     rms          rms(c)
DAV:   1    -0.232615176798E+04    0.40858E-04   -0.15101E+00  4544   0.103E+00    0.366E-01
RMM:   2    -0.232616776575E+04   -0.15998E-01   -0.16371E-01  6390   0.236E-01    0.304E-01
RMM:   3    -0.232616887366E+04   -0.11079E-02   -0.17966E-02  6037   0.876E-02    0.300E-01
RMM:   4    -0.232616789892E+04    0.97475E-03   -0.17062E-03  5222   0.216E-02    0.106E-01
RMM:   5    -0.232616798062E+04   -0.81704E-04   -0.55376E-04  4726   0.126E-02    0.140E-01
RMM:   6    -0.232616777008E+04    0.21055E-03   -0.40296E-04  4518   0.117E-02    0.558E-02
RMM:   7    -0.232616777586E+04   -0.57813E-05   -0.13613E-04  3300   0.775E-03    0.539E-02
RMM:   8    -0.232616773730E+04    0.38557E-04   -0.43688E-05  2953   0.540E-03    0.119E-02
RMM:   9    -0.232616773461E+04    0.26922E-05   -0.88237E-06  2908   0.288E-03
  19 F= -.23476006E+04 E0= -.23476006E+04  d E =-.158049E-01  mag=     3.0000
       N       E                     dE             d eps       ncg     rms          rms(c)
DAV:   1    -0.232608581860E+04    0.81919E-01   -0.93583E+00  4512   0.257E+00    0.916E-01
RMM:   2    -0.232618516431E+04   -0.99346E-01   -0.10178E+00  6380   0.586E-01    0.773E-01
RMM:   3    -0.232619281039E+04   -0.76461E-02   -0.11471E-01  6236   0.217E-01    0.785E-01
RMM:   4    -0.232618626964E+04    0.65407E-02   -0.10902E-02  6106   0.547E-02    0.272E-01
RMM:   5    -0.232618653355E+04   -0.26391E-03   -0.34669E-03  5761   0.282E-02    0.323E-01
RMM:   6    -0.232618547118E+04    0.10624E-02   -0.26596E-03  5721   0.284E-02    0.154E-01
RMM:   7    -0.232618548584E+04   -0.14662E-04   -0.91298E-04  5247   0.166E-02    0.148E-01
RMM:   8    -0.232618521448E+04    0.27136E-03   -0.27827E-04  3660   0.943E-03    0.314E-02
RMM:   9    -0.232618519510E+04    0.19380E-04   -0.54967E-05  3061   0.517E-03    0.163E-02
RMM:  10    -0.232618519348E+04    0.16104E-05   -0.19506E-05  2977   0.401E-03
  20 F= -.23476177E+04 E0= -.23476177E+04  d E =-.328673E-01  mag=     3.0000
       N       E                     dE             d eps       ncg     rms          rms(c)
DAV:   1    -0.232618090299E+04    0.42921E-02   -0.13243E+00  4560   0.102E+00    0.363E-01
RMM:   2    -0.232619867205E+04   -0.17769E-01   -0.18243E-01  6419   0.259E-01    0.306E-01
RMM:   3    -0.232619993059E+04   -0.12585E-02   -0.18819E-02  6040   0.876E-02    0.314E-01
RMM:   4    -0.232619896165E+04    0.96894E-03   -0.18990E-03  5298   0.231E-02    0.114E-01
RMM:   5    -0.232619904558E+04   -0.83930E-04   -0.57771E-04  5189   0.137E-02    0.151E-01
RMM:   6    -0.232619880384E+04    0.24175E-03   -0.47916E-04  4741   0.132E-02    0.583E-02
RMM:   7    -0.232619880954E+04   -0.57002E-05   -0.15534E-04  3264   0.845E-03    0.568E-02
RMM:   8    -0.232619876598E+04    0.43562E-04   -0.45994E-05  2968   0.577E-03    0.143E-02
RMM:   9    -0.232619876187E+04    0.41092E-05   -0.10298E-05  2915   0.306E-03
  21 F= -.23476305E+04 E0= -.23476304E+04  d E =-.127677E-01  mag=     3.0000
       N       E                     dE             d eps       ncg     rms          rms(c)
DAV:   1    -0.232617260410E+04    0.26162E-01   -0.25827E+00  4544   0.142E+00    0.506E-01
RMM:   2    -0.232620727820E+04   -0.34674E-01   -0.35601E-01  6392   0.361E-01    0.428E-01
RMM:   3    -0.232620973167E+04   -0.24535E-02   -0.36860E-02  6145   0.123E-01    0.438E-01
RMM:   4    -0.232620782274E+04    0.19089E-02   -0.36899E-03  5745   0.323E-02    0.159E-01
RMM:   5    -0.232620793010E+04   -0.10736E-03   -0.11509E-03  5582   0.186E-02    0.200E-01
RMM:   6    -0.232620750261E+04    0.42749E-03   -0.94684E-04  5274   0.179E-02    0.865E-02
RMM:   7    -0.232620750618E+04   -0.35680E-05   -0.31004E-04  4009   0.110E-02    0.834E-02
RMM:   8    -0.232620741177E+04    0.94404E-04   -0.91096E-05  3101   0.656E-03    0.204E-02
RMM:   9    -0.232620740134E+04    0.10430E-04   -0.19190E-05  2950   0.418E-03    0.937E-03
RMM:  10    -0.232620739896E+04    0.23773E-05   -0.10363E-05  2895   0.325E-03
  22 F= -.23476379E+04 E0= -.23476379E+04  d E =-.202557E-01  mag=     3.0000
       N       E                     dE             d eps       ncg     rms          rms(c)
DAV:   1    -0.232618919322E+04    0.18208E-01   -0.14935E+00  4544   0.116E+00    0.401E-01
RMM:   2    -0.232621759768E+04   -0.28404E-01   -0.29507E-01  6522   0.315E-01    0.280E-01
RMM:   3    -0.232622012878E+04   -0.25311E-02   -0.29698E-02  6161   0.106E-01    0.309E-01
RMM:   4    -0.232621897213E+04    0.11566E-02   -0.28713E-03  5425   0.259E-02    0.134E-01
RMM:   5    -0.232621871506E+04    0.25708E-03   -0.59650E-04  5198   0.146E-02    0.653E-02
RMM:   6    -0.232621878218E+04   -0.67128E-04   -0.36635E-04  4518   0.127E-02    0.935E-02
RMM:   7    -0.232621867835E+04    0.10383E-03   -0.84958E-05  3060   0.670E-03    0.233E-02
RMM:   8    -0.232621867556E+04    0.27923E-05   -0.24157E-05  2937   0.430E-03
  23 F= -.23476484E+04 E0= -.23476484E+04  d E =-.104611E-01  mag=     3.0000
       N       E                     dE             d eps       ncg     rms          rms(c)
DAV:   1    -0.232612632782E+04    0.92351E-01   -0.51294E+00  4512   0.214E+00    0.743E-01
RMM:   2    -0.232622364393E+04   -0.97316E-01   -0.10121E+00  6487   0.577E-01    0.519E-01
RMM:   3    -0.232623278424E+04   -0.91403E-02   -0.10419E-01  6298   0.197E-01    0.587E-01
RMM:   4    -0.232622862749E+04    0.41568E-02   -0.99502E-03  6167   0.479E-02    0.251E-01
RMM:   5    -0.232622782089E+04    0.80660E-03   -0.20087E-03  5686   0.246E-02    0.149E-01
RMM:   6    -0.232622806426E+04   -0.24337E-03   -0.14889E-03  5270   0.221E-02    0.204E-01
RMM:   7    -0.232622758765E+04    0.47661E-03   -0.39409E-04  4801   0.122E-02    0.536E-02
RMM:   8    -0.232622756528E+04    0.22369E-04   -0.99613E-05  3047   0.717E-03    0.402E-02
RMM:   9    -0.232622754189E+04    0.23393E-04   -0.30245E-05  2956   0.429E-03    0.193E-02
RMM:  10    -0.232622753477E+04    0.71150E-05   -0.20826E-05  2936   0.375E-03
  24 F= -.23476558E+04 E0= -.23476558E+04  d E =-.178198E-01  mag=     3.0000
       N       E                     dE             d eps       ncg     rms          rms(c)
DAV:   1    -0.232621855334E+04    0.89885E-02   -0.72106E-01  4640   0.771E-01    0.266E-01
RMM:   2    -0.232623416886E+04   -0.15616E-01   -0.15932E-01  6654   0.223E-01    0.228E-01
RMM:   3    -0.232623536831E+04   -0.11994E-02   -0.16013E-02  5944   0.720E-02    0.213E-01
RMM:   4    -0.232623480701E+04    0.56130E-03   -0.15359E-03  4170   0.174E-02    0.934E-02
RMM:   5    -0.232623469098E+04    0.11603E-03   -0.25175E-04  4360   0.985E-03    0.551E-02
RMM:   6    -0.232623472374E+04   -0.32760E-04   -0.20078E-04  3509   0.863E-03    0.736E-02
RMM:   7    -0.232623466502E+04    0.58714E-04   -0.56050E-05  2988   0.601E-03    0.204E-02
RMM:   8    -0.232623466212E+04    0.29002E-05   -0.13579E-05  2891   0.346E-03
  25 F= -.23476624E+04 E0= -.23476624E+04  d E =-.662446E-02  mag=     3.0000
       N       E                     dE             d eps       ncg     rms          rms(c)
DAV:   1    -0.232610381384E+04    0.13085E+00   -0.64900E+00  4512   0.231E+00    0.796E-01
RMM:   2    -0.232624374641E+04   -0.13993E+00   -0.14312E+00  6656   0.656E-01    0.676E-01
RMM:   3    -0.232625578367E+04   -0.12037E-01   -0.15002E-01  6402   0.219E-01    0.672E-01
RMM:   4    -0.232625035018E+04    0.54335E-02   -0.14094E-02  6064   0.525E-02    0.289E-01
RMM:   5    -0.232624986003E+04    0.49015E-03   -0.21680E-03  5610   0.229E-02    0.280E-01
RMM:   6    -0.232624928261E+04    0.57742E-03   -0.19857E-03  5444   0.224E-02    0.181E-01
RMM:   7    -0.232624899129E+04    0.29132E-03   -0.74173E-04  5319   0.150E-02    0.735E-02
RMM:   8    -0.232624894912E+04    0.42160E-04   -0.15420E-04  3144   0.826E-03    0.429E-02
RMM:   9    -0.232624892202E+04    0.27104E-04   -0.40098E-05  3047   0.485E-03    0.257E-02
RMM:  10    -0.232624891320E+04    0.88197E-05   -0.28531E-05  2944   0.397E-03
  26 F= -.23476752E+04 E0= -.23476752E+04  d E =-.194106E-01  mag=     3.0000
       N       E                     dE             d eps       ncg     rms          rms(c)
DAV:   1    -0.232565450039E+04    0.59442E+00   -0.26001E+01  4520   0.461E+00    0.158E+00
RMM:   2    -0.232621491188E+04   -0.56041E+00   -0.57750E+00  6665   0.130E+00    0.120E+00
RMM:   3    -0.232626792391E+04   -0.53012E-01   -0.62399E-01  6377   0.459E-01    0.132E+00
RMM:   4    -0.232624917994E+04    0.18744E-01   -0.57001E-02  6448   0.105E-01    0.655E-01
RMM:   5    -0.232624713979E+04    0.20402E-02   -0.93948E-03  5963   0.427E-02    0.612E-01
RMM:   6    -0.232624406991E+04    0.30699E-02   -0.85203E-03  6001   0.454E-02    0.391E-01
RMM:   7    -0.232624263752E+04    0.14324E-02   -0.42289E-03  5844   0.330E-02    0.175E-01
RMM:   8    -0.232624247838E+04    0.15914E-03   -0.10473E-03  5002   0.189E-02    0.123E-01
RMM:   9    -0.232624228387E+04    0.19451E-03   -0.28293E-04  4009   0.987E-03    0.660E-02
RMM:  10    -0.232624223480E+04    0.49069E-04   -0.12298E-04  3114   0.769E-03    0.296E-02
RMM:  11    -0.232624223428E+04    0.52263E-06   -0.80690E-05  3130   0.586E-03
  27 F= -.23476658E+04 E0= -.23476658E+04  d E =-.100149E-01  mag=     3.0000
       N       E                     dE             d eps       ncg     rms          rms(c)
DAV:   1    -0.232595444602E+04    0.28779E+00   -0.13327E+01  4512   0.328E+00    0.116E+00
RMM:   2    -0.232625664096E+04   -0.30219E+00   -0.30047E+00  6659   0.985E-01    0.128E+00
RMM:   3    -0.232626356838E+04   -0.69274E-02   -0.29402E-01  6429   0.311E-01    0.863E-01
RMM:   4    -0.232625500539E+04    0.85630E-02   -0.27890E-02  6045   0.687E-02    0.412E-01
RMM:   5    -0.232625278125E+04    0.22241E-02   -0.61673E-03  6050   0.433E-02    0.260E-01
RMM:   6    -0.232625313003E+04   -0.34878E-03   -0.35561E-03  5836   0.285E-02    0.320E-01
RMM:   7    -0.232625214614E+04    0.98389E-03   -0.10983E-03  5383   0.177E-02    0.792E-02
RMM:   8    -0.232625214151E+04    0.46288E-05   -0.28141E-04  3466   0.882E-03    0.779E-02
RMM:   9    -0.232625205641E+04    0.85107E-04   -0.11192E-04  3165   0.685E-03    0.362E-02
RMM:  10    -0.232625204178E+04    0.14628E-04   -0.52358E-05  3008   0.499E-03    0.121E-02
RMM:  11    -0.232625204286E+04   -0.10818E-05   -0.14867E-05  2958   0.343E-03
  28 F= -.23476775E+04 E0= -.23476775E+04  d E =-.217378E-01  mag=     3.0000
       N       E                     dE             d eps       ncg     rms          rms(c)
DAV:   1    -0.232622730505E+04    0.24737E-01   -0.15758E+00  4528   0.114E+00    0.410E-01
RMM:   2    -0.232626289302E+04   -0.35588E-01   -0.35920E-01  6623   0.327E-01    0.411E-01
RMM:   3    -0.232626524369E+04   -0.23507E-02   -0.36551E-02  6291   0.109E-01    0.361E-01
RMM:   4    -0.232626369980E+04    0.15439E-02   -0.34929E-03  5306   0.262E-02    0.140E-01
RMM:   5    -0.232626363649E+04    0.63311E-04   -0.57430E-04  4863   0.127E-02    0.149E-01
RMM:   6    -0.232626343046E+04    0.20603E-03   -0.52460E-04  4615   0.125E-02    0.847E-02
RMM:   7    -0.232626337492E+04    0.55541E-04   -0.19030E-04  3718   0.869E-03    0.425E-02
RMM:   8    -0.232626335526E+04    0.19664E-04   -0.45014E-05  2971   0.580E-03    0.194E-02
RMM:   9    -0.232626334983E+04    0.54297E-05   -0.93079E-06  2918   0.292E-03
  29 F= -.23476885E+04 E0= -.23476884E+04  d E =-.109617E-01  mag=     3.0000
       N       E                     dE             d eps       ncg     rms          rms(c)
DAV:   1    -0.232599216175E+04    0.27119E+00   -0.12258E+01  4512   0.320E+00    0.113E+00
RMM:   2    -0.232626736592E+04   -0.27520E+00   -0.28160E+00  6624   0.899E-01    0.103E+00
RMM:   3    -0.232629350819E+04   -0.26142E-01   -0.29356E-01  6386   0.309E-01    0.115E+00
RMM:   4    -0.232627885174E+04    0.14656E-01   -0.27982E-02  6241   0.749E-02    0.426E-01
RMM:   5    -0.232627835918E+04    0.49256E-03   -0.48029E-03  5880   0.309E-02    0.443E-01
RMM:   6    -0.232627642110E+04    0.19381E-02   -0.45125E-03  5970   0.342E-02    0.243E-01
RMM:   7    -0.232627600422E+04    0.41689E-03   -0.22045E-03  5734   0.242E-02    0.155E-01
RMM:   8    -0.232627574860E+04    0.25562E-03   -0.54327E-04  4099   0.135E-02    0.684E-02
RMM:   9    -0.232627568270E+04    0.65904E-04   -0.11192E-04  3263   0.712E-03    0.351E-02
RMM:  10    -0.232627566447E+04    0.18229E-04   -0.62961E-05  3032   0.551E-03    0.173E-02
RMM:  11    -0.232627566278E+04    0.16845E-05   -0.27161E-05  2983   0.422E-03
  30 F= -.23476999E+04 E0= -.23476999E+04  d E =-.224209E-01  mag=     3.0000
       N       E                     dE             d eps       ncg     rms          rms(c)
DAV:   1    -0.232621091558E+04    0.64749E-01   -0.32286E+00  4528   0.166E+00    0.613E-01
RMM:   2    -0.232628512436E+04   -0.74209E-01   -0.74770E-01  6559   0.462E-01    0.689E-01
RMM:   3    -0.232629087649E+04   -0.57521E-02   -0.84605E-02  6292   0.168E-01    0.607E-01
RMM:   4    -0.232628693542E+04    0.39411E-02   -0.74720E-03  5811   0.387E-02    0.193E-01
RMM:   5    -0.232628654337E+04    0.39206E-03   -0.12862E-03  5586   0.200E-02    0.156E-01
RMM:   6    -0.232628645253E+04    0.90833E-04   -0.11130E-03  5163   0.176E-02    0.132E-01
RMM:   7    -0.232628624788E+04    0.20465E-03   -0.33217E-04  4735   0.114E-02    0.449E-02
RMM:   8    -0.232628624190E+04    0.59780E-05   -0.60757E-05  2956   0.557E-03
  31 F= -.23477099E+04 E0= -.23477099E+04  d E =-.100189E-01  mag=     3.0000
       N       E                     dE             d eps       ncg     rms          rms(c)
DAV:   1    -0.232625885549E+04    0.27392E-01   -0.12444E+00  4576   0.103E+00    0.385E-01
RMM:   2    -0.232628819239E+04   -0.29337E-01   -0.29295E-01  6560   0.289E-01    0.462E-01
RMM:   3    -0.232628978331E+04   -0.15909E-02   -0.31002E-02  6143   0.100E-01    0.368E-01
RMM:   4    -0.232628833506E+04    0.14482E-02   -0.28527E-03  5140   0.237E-02    0.120E-01
RMM:   5    -0.232628815315E+04    0.18192E-03   -0.50098E-04  5106   0.132E-02    0.880E-02
RMM:   6    -0.232628818332E+04   -0.30177E-04   -0.37082E-04  3929   0.110E-02    0.101E-01
RMM:   7    -0.232628807152E+04    0.11180E-03   -0.14121E-04  3668   0.817E-03    0.272E-02
RMM:   8    -0.232628806688E+04    0.46477E-05   -0.27857E-05  2943   0.481E-03
  32 F= -.23477114E+04 E0= -.23477114E+04  d E =-.115110E-01  mag=     3.0000
       N       E                     dE             d eps       ncg     rms          rms(c)
DAV:   1    -0.232627686607E+04    0.11205E-01   -0.81498E-01  4544   0.878E-01    0.352E-01
RMM:   2    -0.232629804450E+04   -0.21178E-01   -0.20922E-01  6459   0.241E-01    0.453E-01
RMM:   3    -0.232629834992E+04   -0.30542E-03   -0.23446E-02  6088   0.916E-02    0.294E-01
RMM:   4    -0.232629755932E+04    0.79060E-03   -0.21740E-03  5150   0.219E-02    0.133E-01
RMM:   5    -0.232629748663E+04    0.72685E-04   -0.40869E-04  3790   0.119E-02    0.117E-01
RMM:   6    -0.232629731651E+04    0.17012E-03   -0.31351E-04  4742   0.115E-02    0.518E-02
RMM:   7    -0.232629732852E+04   -0.12006E-04   -0.15663E-04  3383   0.964E-03    0.583E-02
RMM:   8    -0.232629729045E+04    0.38068E-04   -0.44632E-05  2949   0.539E-03    0.101E-02
RMM:   9    -0.232629729072E+04   -0.27304E-06   -0.78605E-06  2917   0.322E-03
  33 F= -.23477202E+04 E0= -.23477202E+04  d E =-.873840E-02  mag=     3.0000
       N       E                     dE             d eps       ncg     rms          rms(c)
DAV:   1    -0.232626365970E+04    0.33631E-01   -0.15394E+00  4528   0.121E+00    0.483E-01
RMM:   2    -0.232630352502E+04   -0.39865E-01   -0.39457E-01  6442   0.331E-01    0.615E-01
RMM:   3    -0.232630428737E+04   -0.76235E-03   -0.44769E-02  6213   0.127E-01    0.402E-01
RMM:   4    -0.232630278691E+04    0.15005E-02   -0.40971E-03  5558   0.302E-02    0.186E-01
RMM:   5    -0.232630263580E+04    0.15111E-03   -0.77909E-04  4709   0.157E-02    0.161E-01
RMM:   6    -0.232630228114E+04    0.35466E-03   -0.56850E-04  4981   0.147E-02    0.585E-02
RMM:   7    -0.232630229344E+04   -0.12307E-04   -0.21569E-04  4075   0.117E-02    0.619E-02
RMM:   8    -0.232630225216E+04    0.41289E-04   -0.67592E-05  2995   0.563E-03    0.155E-02
RMM:   9    -0.232630225053E+04    0.16248E-05   -0.10395E-05  2927   0.376E-03
  34 F= -.23477245E+04 E0= -.23477244E+04  d E =-.130402E-01  mag=     3.0000
       N       E                     dE             d eps       ncg     rms          rms(c)
DAV:   1    -0.232628515723E+04    0.17095E-01   -0.94778E-01  4544   0.933E-01    0.372E-01
RMM:   2    -0.232631039518E+04   -0.25238E-01   -0.25277E-01  6577   0.257E-01    0.457E-01
RMM:   3    -0.232631102589E+04   -0.63071E-03   -0.27304E-02  6237   0.966E-02    0.307E-01
RMM:   4    -0.232631014742E+04    0.87847E-03   -0.26839E-03  5198   0.225E-02    0.144E-01
RMM:   5    -0.232631003152E+04    0.11591E-03   -0.40836E-04  3608   0.108E-02    0.113E-01
RMM:   6    -0.232630988812E+04    0.14340E-03   -0.30902E-04  4574   0.108E-02    0.683E-02
RMM:   7    -0.232630987910E+04    0.90158E-05   -0.22487E-04  3910   0.101E-02    0.637E-02
RMM:   8    -0.232630983337E+04    0.45739E-04   -0.57123E-05  3007   0.579E-03    0.115E-02
RMM:   9    -0.232630983175E+04    0.16132E-05   -0.95618E-06  2919   0.385E-03
  35 F= -.23477319E+04 E0= -.23477319E+04  d E =-.746641E-02  mag=     3.0000
       N       E                     dE             d eps       ncg     rms          rms(c)
DAV:   1    -0.232622806873E+04    0.81765E-01   -0.32863E+00  4512   0.174E+00    0.692E-01
RMM:   2    -0.232631496368E+04   -0.86895E-01   -0.87487E-01  6562   0.476E-01    0.832E-01
RMM:   3    -0.232631823059E+04   -0.32669E-02   -0.97668E-02  6364   0.182E-01    0.587E-01
RMM:   4    -0.232631493531E+04    0.32953E-02   -0.92964E-03  5953   0.423E-02    0.270E-01
RMM:   5    -0.232631452496E+04    0.41035E-03   -0.14742E-03  5137   0.188E-02    0.213E-01
RMM:   6    -0.232631398334E+04    0.54161E-03   -0.10399E-03  5329   0.183E-02    0.120E-01
RMM:   7    -0.232631396461E+04    0.18736E-04   -0.73282E-04  5115   0.168E-02    0.118E-01
RMM:   8    -0.232631380667E+04    0.15793E-03   -0.19713E-04  3865   0.860E-03    0.233E-02
RMM:   9    -0.232631379613E+04    0.10540E-04   -0.29192E-05  3004   0.533E-03    0.146E-02
RMM:  10    -0.232631379146E+04    0.46743E-05   -0.14838E-05  2910   0.332E-03
  36 F= -.23477357E+04 E0= -.23477357E+04  d E =-.112190E-01  mag=     3.0000
       N       E                     dE             d eps       ncg     rms          rms(c)
DAV:   1    -0.232630296092E+04    0.10835E-01   -0.57553E-01  4576   0.695E-01    0.272E-01
RMM:   2    -0.232631826490E+04   -0.15304E-01   -0.15577E-01  6654   0.191E-01    0.320E-01
RMM:   3    -0.232631905832E+04   -0.79342E-03   -0.17071E-02  5933   0.728E-02    0.237E-01
RMM:   4    -0.232631851282E+04    0.54550E-03   -0.16829E-03  4028   0.167E-02    0.104E-01
RMM:   5    -0.232631846193E+04    0.50888E-04   -0.21231E-04  3169   0.785E-03    0.869E-02
RMM:   6    -0.232631838102E+04    0.80914E-04   -0.14939E-04  3379   0.785E-03    0.520E-02
RMM:   7    -0.232631838430E+04   -0.32806E-05   -0.15743E-04  3618   0.817E-03    0.534E-02
RMM:   8    -0.232631835183E+04    0.32466E-04   -0.42359E-05  2991   0.539E-03    0.999E-03
RMM:   9    -0.232631835034E+04    0.14908E-05   -0.68137E-06  2853   0.307E-03
  37 F= -.23477402E+04 E0= -.23477402E+04  d E =-.453815E-02  mag=     3.0000
       N       E                     dE             d eps       ncg     rms          rms(c)
DAV:   1    -0.232618503321E+04    0.13332E+00   -0.51695E+00  4512   0.209E+00    0.810E-01
RMM:   2    -0.232632088646E+04   -0.13585E+00   -0.14005E+00  6674   0.573E-01    0.896E-01
RMM:   3    -0.232633165230E+04   -0.10766E-01   -0.16067E-01  6470   0.219E-01    0.761E-01
RMM:   4    -0.232632574124E+04    0.59111E-02   -0.15107E-02  6038   0.504E-02    0.300E-01
RMM:   5    -0.232632535443E+04    0.38681E-03   -0.19617E-03  5285   0.199E-02    0.261E-01
RMM:   6    -0.232632465262E+04    0.70181E-03   -0.14017E-03  5422   0.192E-02    0.163E-01
RMM:   7    -0.232632461521E+04    0.37407E-04   -0.13155E-03  5535   0.200E-02    0.157E-01
RMM:   8    -0.232632434521E+04    0.27000E-03   -0.34567E-04  4168   0.106E-02    0.379E-02
RMM:   9    -0.232632432185E+04    0.23362E-04   -0.53547E-05  3087   0.574E-03    0.206E-02
RMM:  10    -0.232632431517E+04    0.66788E-05   -0.19585E-05  2920   0.392E-03
  38 F= -.23477461E+04 E0= -.23477461E+04  d E =-.104298E-01  mag=     3.0000
       N       E                     dE             d eps       ncg     rms          rms(c)
DAV:   1    -0.232632239417E+04    0.19277E-02   -0.31803E-01  4608   0.532E-01    0.204E-01
RMM:   2    -0.232632927517E+04   -0.68810E-02   -0.74473E-02  6470   0.135E-01    0.137E-01
RMM:   3    -0.232633015740E+04   -0.88223E-03   -0.91657E-03  5680   0.570E-02    0.182E-01
RMM:   4    -0.232632984130E+04    0.31610E-03   -0.81536E-04  3583   0.131E-02    0.706E-02
RMM:   5    -0.232632979288E+04    0.48427E-04   -0.14616E-04  3208   0.842E-03    0.484E-02
RMM:   6    -0.232632978968E+04    0.31963E-05   -0.98915E-05  3303   0.731E-03
  39 F= -.23477517E+04 E0= -.23477516E+04  d E =-.555103E-02  mag=     3.0000
       N       E                     dE             d eps       ncg     rms          rms(c)
DAV:   1    -0.232629709038E+04    0.32702E-01   -0.15954E+00  4528   0.119E+00    0.459E-01
RMM:   2    -0.232633179676E+04   -0.34706E-01   -0.37603E-01  6392   0.301E-01    0.315E-01
RMM:   3    -0.232633611586E+04   -0.43191E-02   -0.46156E-02  6180   0.127E-01    0.408E-01
RMM:   4    -0.232633461491E+04    0.15010E-02   -0.41309E-03  5830   0.284E-02    0.166E-01
RMM:   5    -0.232633440701E+04    0.20789E-03   -0.76342E-04  4904   0.159E-02    0.121E-01
RMM:   6    -0.232633430508E+04    0.10194E-03   -0.52413E-04  5171   0.131E-02    0.104E-01
RMM:   7    -0.232633419167E+04    0.11340E-03   -0.29055E-04  4416   0.111E-02    0.555E-02
RMM:   8    -0.232633416258E+04    0.29095E-04   -0.73702E-05  2978   0.662E-03    0.323E-02
RMM:   9    -0.232633414796E+04    0.14615E-04   -0.15685E-05  2914   0.413E-03    0.104E-02
RMM:  10    -0.232633414517E+04    0.27935E-05   -0.12949E-05  2954   0.300E-03
  40 F= -.23477562E+04 E0= -.23477562E+04  d E =-.100791E-01  mag=     3.0000
       N       E                     dE             d eps       ncg     rms          rms(c)
DAV:   1    -0.232632539423E+04    0.87537E-02   -0.57145E-01  4560   0.706E-01    0.273E-01
RMM:   2    -0.232633764760E+04   -0.12253E-01   -0.12987E-01  6409   0.179E-01    0.213E-01
RMM:   3    -0.232633922586E+04   -0.15783E-02   -0.16170E-02  6041   0.765E-02    0.270E-01
RMM:   4    -0.232633843320E+04    0.79265E-03   -0.14703E-03  4848   0.180E-02    0.900E-02
RMM:   5    -0.232633841807E+04    0.15138E-04   -0.28506E-04  3364   0.990E-03    0.914E-02
RMM:   6    -0.232633832313E+04    0.94937E-04   -0.16287E-04  3873   0.843E-03    0.554E-02
RMM:   7    -0.232633830521E+04    0.17923E-04   -0.97555E-05  3401   0.738E-03    0.343E-02
RMM:   8    -0.232633829221E+04    0.12999E-04   -0.30206E-05  2924   0.567E-03    0.137E-02
RMM:   9    -0.232633828963E+04    0.25777E-05   -0.58939E-06  2872   0.300E-03
  41 F= -.23477606E+04 E0= -.23477606E+04  d E =-.441325E-02  mag=     3.0000
       N       E                     dE             d eps       ncg     rms          rms(c)
DAV:   1    -0.232632794216E+04    0.10350E-01   -0.50376E-01  4544   0.663E-01    0.256E-01
RMM:   2    -0.232633876353E+04   -0.10821E-01   -0.11449E-01  6369   0.168E-01    0.205E-01
RMM:   3    -0.232634014740E+04   -0.13839E-02   -0.14293E-02  6025   0.729E-02    0.256E-01
RMM:   4    -0.232633943311E+04    0.71429E-03   -0.12967E-03  4686   0.169E-02    0.845E-02
RMM:   5    -0.232633941920E+04    0.13907E-04   -0.25147E-04  3250   0.943E-03    0.861E-02
RMM:   6    -0.232633933428E+04    0.84915E-04   -0.14618E-04  3708   0.812E-03    0.518E-02
RMM:   7    -0.232633931721E+04    0.17077E-04   -0.87259E-05  3391   0.723E-03    0.311E-02
RMM:   8    -0.232633930645E+04    0.10754E-04   -0.27237E-05  2920   0.546E-03    0.136E-02
RMM:   9    -0.232633930379E+04    0.26661E-05   -0.56792E-06  2873   0.299E-03
  42 F= -.23477619E+04 E0= -.23477618E+04  d E =-.567961E-02  mag=     3.0000
       N       E                     dE             d eps       ncg     rms          rms(c)
DAV:   1    -0.232633565897E+04    0.36475E-02   -0.32445E-01  4544   0.527E-01    0.198E-01
RMM:   2    -0.232634267834E+04   -0.70194E-02   -0.72139E-02  6386   0.135E-01    0.206E-01
RMM:   3    -0.232634333585E+04   -0.65752E-03   -0.86459E-03  5634   0.550E-02    0.198E-01
RMM:   4    -0.232634291139E+04    0.42446E-03   -0.78394E-04  4187   0.133E-02    0.685E-02
RMM:   5    -0.232634286032E+04    0.51069E-04   -0.16405E-04  3663   0.881E-03    0.482E-02
RMM:   6    -0.232634286384E+04   -0.35172E-05   -0.10156E-04  3011   0.776E-03    0.520E-02
RMM:   7    -0.232634283745E+04    0.26388E-04   -0.39674E-05  2945   0.592E-03    0.133E-02
RMM:   8    -0.232634283761E+04   -0.16189E-06   -0.11222E-05  2908   0.411E-03
  43 F= -.23477653E+04 E0= -.23477653E+04  d E =-.341989E-02  mag=     3.0000
       N       E                     dE             d eps       ncg     rms          rms(c)
DAV:   1    -0.232633653348E+04    0.63040E-02   -0.34244E-01  4536   0.542E-01    0.205E-01
RMM:   2    -0.232634397446E+04   -0.74410E-02   -0.76409E-02  6335   0.139E-01    0.215E-01
RMM:   3    -0.232634464487E+04   -0.67041E-03   -0.91018E-03  5615   0.557E-02    0.204E-01
RMM:   4    -0.232634419392E+04    0.45095E-03   -0.83270E-04  4333   0.137E-02    0.701E-02
RMM:   5    -0.232634414367E+04    0.50256E-04   -0.17577E-04  3759   0.892E-03    0.518E-02
RMM:   6    -0.232634414145E+04    0.22172E-05   -0.11166E-04  3019   0.793E-03    0.512E-02
RMM:   7    -0.232634411688E+04    0.24573E-04   -0.40940E-05  2954   0.600E-03    0.161E-02
RMM:   8    -0.232634411598E+04    0.89555E-06   -0.12230E-05  2905   0.428E-03
  44 F= -.23477665E+04 E0= -.23477664E+04  d E =-.458143E-02  mag=     3.0000
       N       E                     dE             d eps       ncg     rms          rms(c)
DAV:   1    -0.232633859154E+04    0.55253E-02   -0.47905E-01  4528   0.681E-01    0.243E-01
RMM:   2    -0.232634759229E+04   -0.90008E-02   -0.91285E-02  6340   0.163E-01    0.256E-01
RMM:   3    -0.232634831769E+04   -0.72540E-03   -0.10797E-02  5676   0.662E-02    0.236E-01
RMM:   4    -0.232634769616E+04    0.62153E-03   -0.99528E-04  4597   0.158E-02    0.762E-02
RMM:   5    -0.232634769331E+04    0.28550E-05   -0.22319E-04  3341   0.902E-03    0.804E-02
RMM:   6    -0.232634761507E+04    0.78244E-04   -0.15131E-04  3624   0.858E-03    0.367E-02
RMM:   7    -0.232634761853E+04   -0.34640E-05   -0.65504E-05  3008   0.674E-03
  45 F= -.23477695E+04 E0= -.23477695E+04  d E =-.308712E-02  mag=     3.0000
       N       E                     dE             d eps       ncg     rms          rms(c)
DAV:   1    -0.232631915224E+04    0.28463E-01   -0.15380E+00  4512   0.122E+00    0.436E-01
RMM:   2    -0.232634776512E+04   -0.28613E-01   -0.29344E-01  6377   0.295E-01    0.424E-01
RMM:   3    -0.232635057708E+04   -0.28120E-02   -0.35116E-02  6015   0.119E-01    0.431E-01
RMM:   4    -0.232634851435E+04    0.20627E-02   -0.32236E-03  5690   0.283E-02    0.138E-01
RMM:   5    -0.232634847801E+04    0.36343E-04   -0.73176E-04  4880   0.146E-02    0.137E-01
RMM:   6    -0.232634825730E+04    0.22071E-03   -0.46535E-04  5059   0.125E-02    0.694E-02
RMM:   7    -0.232634826133E+04   -0.40335E-05   -0.20592E-04  3553   0.970E-03    0.674E-02
RMM:   8    -0.232634821146E+04    0.49868E-04   -0.69016E-05  2998   0.649E-03    0.145E-02
RMM:   9    -0.232634821068E+04    0.78486E-06   -0.11852E-05  2943   0.358E-03
  46 F= -.23477694E+04 E0= -.23477693E+04  d E =-.293328E-02  mag=     3.0000
       N       E                     dE             d eps       ncg     rms          rms(c)
DAV:   1    -0.232634176363E+04    0.64478E-02   -0.37755E-01  4528   0.605E-01    0.214E-01
RMM:   2    -0.232634874389E+04   -0.69803E-02   -0.71612E-02  6345   0.144E-01    0.209E-01
RMM:   3    -0.232634942432E+04   -0.68044E-03   -0.85172E-03  5469   0.583E-02    0.217E-01
RMM:   4    -0.232634891155E+04    0.51277E-03   -0.77233E-04  4106   0.141E-02    0.704E-02
RMM:   5    -0.232634890798E+04    0.35719E-05   -0.18075E-04  3178   0.824E-03    0.739E-02
RMM:   6    -0.232634884108E+04    0.66896E-04   -0.13412E-04  3384   0.807E-03    0.312E-02
RMM:   7    -0.232634883969E+04    0.13943E-05   -0.50911E-05  3000   0.637E-03
  47 F= -.23477704E+04 E0= -.23477703E+04  d E =-.393171E-02  mag=     3.0000
       N       E                     dE             d eps       ncg     rms          rms(c)
DAV:   1    -0.232634145771E+04    0.73834E-02   -0.56622E-01  4528   0.751E-01    0.256E-01
RMM:   2    -0.232635133382E+04   -0.98761E-02   -0.10017E-01  6279   0.183E-01    0.267E-01
RMM:   3    -0.232635203368E+04   -0.69986E-03   -0.10943E-02  5870   0.679E-02    0.244E-01
RMM:   4    -0.232635137667E+04    0.65702E-03   -0.10817E-03  4940   0.169E-02    0.893E-02
RMM:   5    -0.232635137958E+04   -0.29105E-05   -0.25672E-04  3511   0.990E-03    0.931E-02
RMM:   6    -0.232635126924E+04    0.11033E-03   -0.20553E-04  4349   0.990E-03    0.373E-02
RMM:   7    -0.232635127249E+04   -0.32432E-05   -0.79650E-05  3088   0.746E-03
  48 F= -.23477725E+04 E0= -.23477724E+04  d E =-.210225E-02  mag=     3.0000
       N       E                     dE             d eps       ncg     rms          rms(c)
DAV:   1    -0.232635013449E+04    0.11348E-02   -0.72084E-02  4664   0.269E-01    0.953E-02
RMM:   2    -0.232635140134E+04   -0.12668E-02   -0.13078E-02  6378   0.680E-02    0.915E-02
RMM:   3    -0.232635151257E+04   -0.11123E-03   -0.14662E-03  3977   0.249E-02    0.942E-02
RMM:   4    -0.232635142114E+04    0.91432E-04   -0.15006E-04  2984   0.747E-03    0.346E-02
RMM:   5    -0.232635141930E+04    0.18357E-05   -0.38481E-05  2957   0.431E-03
  49 F= -.23477725E+04 E0= -.23477725E+04  d E =-.213057E-02  mag=     3.0000
       N       E                     dE             d eps       ncg     rms          rms(c)
DAV:   1    -0.232634308126E+04    0.83399E-02   -0.59110E-01  4528   0.755E-01    0.252E-01
RMM:   2    -0.232635346093E+04   -0.10380E-01   -0.10613E-01  6515   0.189E-01    0.265E-01
RMM:   3    -0.232635428954E+04   -0.82861E-03   -0.11879E-02  5788   0.664E-02    0.249E-01
RMM:   4    -0.232635361858E+04    0.67096E-03   -0.11213E-03  4359   0.162E-02    0.842E-02
RMM:   5    -0.232635362302E+04   -0.44319E-05   -0.23384E-04  3670   0.925E-03    0.911E-02
RMM:   6    -0.232635353422E+04    0.88798E-04   -0.18114E-04  3595   0.890E-03    0.424E-02
RMM:   7    -0.232635352615E+04    0.80686E-05   -0.84910E-05  3337   0.747E-03
  50 F= -.23477746E+04 E0= -.23477745E+04  d E =-.202860E-02  mag=     3.0000
       N       E                     dE             d eps       ncg     rms          rms(c)
DAV:   1    -0.232634547523E+04    0.80590E-02   -0.48025E-01  4528   0.680E-01    0.232E-01
RMM:   2    -0.232635408242E+04   -0.86072E-02   -0.87523E-02  6528   0.172E-01    0.257E-01
RMM:   3    -0.232635464524E+04   -0.56282E-03   -0.92547E-03  5732   0.583E-02    0.234E-01
RMM:   4    -0.232635405771E+04    0.58753E-03   -0.93082E-04  4001   0.147E-02    0.744E-02
RMM:   5    -0.232635405103E+04    0.66803E-05   -0.17152E-04  3384   0.820E-03    0.778E-02
RMM:   6    -0.232635398931E+04    0.61716E-04   -0.14921E-04  3340   0.842E-03    0.398E-02
RMM:   7    -0.232635399011E+04   -0.79721E-06   -0.87871E-05  3327   0.734E-03
  51 F= -.23477749E+04 E0= -.23477749E+04  d E =-.242364E-02  mag=     3.0000
       N       E                     dE             d eps       ncg     rms          rms(c)
DAV:   1    -0.232634748550E+04    0.65038E-02   -0.48957E-01  4528   0.685E-01    0.236E-01
RMM:   2    -0.232635643588E+04   -0.89504E-02   -0.87730E-02  6519   0.174E-01    0.307E-01
RMM:   3    -0.232635651379E+04   -0.77912E-04   -0.87476E-03  5741   0.587E-02    0.221E-01
RMM:   4    -0.232635599035E+04    0.52345E-03   -0.94542E-04  4233   0.149E-02    0.738E-02
RMM:   5    -0.232635597498E+04    0.15366E-04   -0.16258E-04  3370   0.841E-03    0.717E-02
RMM:   6    -0.232635592054E+04    0.54439E-04   -0.15923E-04  3643   0.898E-03    0.342E-02
RMM:   7    -0.232635591382E+04    0.67235E-05   -0.53777E-05  3252   0.649E-03
  52 F= -.23477769E+04 E0= -.23477768E+04  d E =-.190784E-02  mag=     3.0000
       N       E                     dE             d eps       ncg     rms          rms(c)
DAV:   1    -0.232634555108E+04    0.10369E-01   -0.64216E-01  4512   0.785E-01    0.271E-01
RMM:   2    -0.232635735980E+04   -0.11809E-01   -0.11506E-01  6518   0.199E-01    0.362E-01
RMM:   3    -0.232635737426E+04   -0.14455E-04   -0.11404E-02  5850   0.665E-02    0.250E-01
RMM:   4    -0.232635670860E+04    0.66566E-03   -0.12241E-03  4698   0.168E-02    0.828E-02
RMM:   5    -0.232635669292E+04    0.15680E-04   -0.20895E-04  3659   0.939E-03    0.822E-02
RMM:   6    -0.232635662498E+04    0.67935E-04   -0.19226E-04  3888   0.962E-03    0.438E-02
RMM:   7    -0.232635662063E+04    0.43516E-05   -0.83013E-05  3358   0.724E-03
  53 F= -.23477775E+04 E0= -.23477775E+04  d E =-.259792E-02  mag=     3.0000
       N       E                     dE             d eps       ncg     rms          rms(c)
DAV:   1    -0.232635029852E+04    0.63265E-02   -0.50046E-01  4512   0.691E-01    0.240E-01
RMM:   2    -0.232635943730E+04   -0.91388E-02   -0.85653E-02  6419   0.172E-01    0.358E-01
RMM:   3    -0.232635893771E+04    0.49959E-03   -0.81207E-03  5884   0.581E-02    0.199E-01
RMM:   4    -0.232635852297E+04    0.41474E-03   -0.93479E-04  4265   0.145E-02    0.728E-02
RMM:   5    -0.232635851233E+04    0.10633E-04   -0.16861E-04  3438   0.859E-03    0.730E-02
RMM:   6    -0.232635845427E+04    0.58064E-04   -0.14899E-04  3612   0.881E-03    0.348E-02
RMM:   7    -0.232635844491E+04    0.93621E-05   -0.47872E-05  3187   0.637E-03
  54 F= -.23477792E+04 E0= -.23477792E+04  d E =-.169659E-02  mag=     3.0000
       N       E                     dE             d eps       ncg     rms          rms(c)
DAV:   1    -0.232635391621E+04    0.45381E-02   -0.30411E-01  4544   0.539E-01    0.188E-01
RMM:   2    -0.232635952199E+04   -0.56058E-02   -0.52110E-02  6431   0.134E-01    0.289E-01
RMM:   3    -0.232635915673E+04    0.36526E-03   -0.49224E-03  5599   0.452E-02    0.153E-01
RMM:   4    -0.232635891621E+04    0.24051E-03   -0.56874E-04  3631   0.115E-02    0.576E-02
RMM:   5    -0.232635891427E+04    0.19432E-05   -0.10397E-04  3173   0.716E-03    0.610E-02
RMM:   6    -0.232635887552E+04    0.38755E-04   -0.86866E-05  3166   0.718E-03    0.321E-02
RMM:   7    -0.232635887680E+04   -0.12830E-05   -0.50611E-05  3113   0.616E-03
  55 F= -.23477796E+04 E0= -.23477795E+04  d E =-.202877E-02  mag=     3.0000
       N       E                     dE             d eps       ncg     rms          rms(c)
DAV:   1    -0.232635251406E+04    0.63615E-02   -0.53610E-01  4512   0.720E-01    0.246E-01
RMM:   2    -0.232636140642E+04   -0.88924E-02   -0.83625E-02  6417   0.172E-01    0.357E-01
RMM:   3    -0.232636092967E+04    0.47674E-03   -0.80774E-03  5820   0.589E-02    0.204E-01
RMM:   4    -0.232636051606E+04    0.41361E-03   -0.94507E-04  4492   0.153E-02    0.881E-02
RMM:   5    -0.232636049282E+04    0.23241E-04   -0.20268E-04  3359   0.912E-03    0.822E-02
RMM:   6    -0.232636042636E+04    0.66459E-04   -0.16881E-04  4113   0.933E-03    0.446E-02
RMM:   7    -0.232636042787E+04   -0.15054E-05   -0.96847E-05  3196   0.769E-03
  56 F= -.23477808E+04 E0= -.23477808E+04  d E =-.125915E-02  mag=     3.0000
       N       E                     dE             d eps       ncg     rms          rms(c)
DAV:   1    -0.232635989748E+04    0.52888E-03   -0.40264E-02  4704   0.198E-01    0.709E-02
RMM:   2    -0.232636057470E+04   -0.67722E-03   -0.64345E-03  6396   0.491E-02    0.977E-02
RMM:   3    -0.232636055053E+04    0.24178E-04   -0.67427E-04  3431   0.171E-02    0.622E-02
RMM:   4    -0.232636051476E+04    0.35770E-04   -0.77301E-05  3006   0.571E-03    0.260E-02
RMM:   5    -0.232636051237E+04    0.23833E-05   -0.17774E-05  2924   0.315E-03
  57 F= -.23477808E+04 E0= -.23477808E+04  d E =-.126302E-02  mag=     3.0000
       N       E                     dE             d eps       ncg     rms          rms(c)
DAV:   1    -0.232635730663E+04    0.32081E-02   -0.32858E-01  4528   0.572E-01    0.198E-01
RMM:   2    -0.232636229180E+04   -0.49852E-02   -0.47014E-02  6391   0.131E-01    0.261E-01
RMM:   3    -0.232636193910E+04    0.35270E-03   -0.47195E-03  5832   0.455E-02    0.145E-01
RMM:   4    -0.232636172509E+04    0.21401E-03   -0.51728E-04  3663   0.119E-02    0.754E-02
RMM:   5    -0.232636171204E+04    0.13044E-04   -0.12306E-04  3085   0.739E-03    0.670E-02
RMM:   6    -0.232636167427E+04    0.37770E-04   -0.99943E-05  3717   0.725E-03    0.383E-02
RMM:   7    -0.232636166904E+04    0.52379E-05   -0.60484E-05  3070   0.653E-03
  58 F= -.23477818E+04 E0= -.23477818E+04  d E =-.979200E-03  mag=     3.0000
       N       E                     dE             d eps       ncg     rms          rms(c)
DAV:   1    -0.232635927081E+04    0.24035E-02   -0.19636E-01  4528   0.443E-01    0.155E-01
RMM:   2    -0.232636227559E+04   -0.30048E-02   -0.28627E-02  6476   0.104E-01    0.200E-01
RMM:   3    -0.232636210256E+04    0.17303E-03   -0.28200E-03  5423   0.358E-02    0.122E-01
RMM:   4    -0.232636196501E+04    0.13755E-03   -0.32959E-04  3292   0.968E-03    0.672E-02
RMM:   5    -0.232636193692E+04    0.28095E-04   -0.79247E-05  2996   0.613E-03    0.451E-02
RMM:   6    -0.232636192524E+04    0.11681E-04   -0.58034E-05  3206   0.568E-03    0.352E-02
RMM:   7    -0.232636191633E+04    0.89019E-05   -0.43326E-05  2963   0.576E-03
  59 F= -.23477819E+04 E0= -.23477819E+04  d E =-.108915E-02  mag=     3.0000
       N       E                     dE             d eps       ncg     rms          rms(c)
DAV:   1    -0.232636024978E+04    0.16755E-02   -0.17811E-01  4528   0.417E-01    0.138E-01
RMM:   2    -0.232636303435E+04   -0.27846E-02   -0.26411E-02  6613   0.973E-02    0.190E-01
RMM:   3    -0.232636283327E+04    0.20108E-03   -0.25321E-03  5255   0.324E-02    0.102E-01
RMM:   4    -0.232636274310E+04    0.90166E-04   -0.29419E-04  3224   0.874E-03    0.613E-02
RMM:   5    -0.232636272009E+04    0.23010E-04   -0.58078E-05  2961   0.525E-03    0.412E-02
RMM:   6    -0.232636271214E+04    0.79558E-05   -0.49086E-05  3154   0.503E-03
  60 F= -.23477827E+04 E0= -.23477826E+04  d E =-.747933E-03  mag=     3.0000
       N       E                     dE             d eps       ncg     rms          rms(c)
DAV:   1    -0.232635634991E+04    0.63702E-02   -0.50167E-01  4512   0.700E-01    0.228E-01
RMM:   2    -0.232636404255E+04   -0.76926E-02   -0.73191E-02  6487   0.159E-01    0.305E-01
RMM:   3    -0.232636357988E+04    0.46268E-03   -0.72716E-03  5918   0.559E-02    0.171E-01
RMM:   4    -0.232636333902E+04    0.24086E-03   -0.82798E-04  3912   0.139E-02    0.111E-01
RMM:   5    -0.232636325261E+04    0.86405E-04   -0.17295E-04  3172   0.797E-03    0.684E-02
RMM:   6    -0.232636322544E+04    0.27169E-04   -0.15166E-04  4001   0.837E-03    0.524E-02
RMM:   7    -0.232636320524E+04    0.20202E-04   -0.91681E-05  3267   0.720E-03    0.355E-02
RMM:   8    -0.232636318994E+04    0.15303E-04   -0.21229E-05  2938   0.433E-03    0.679E-03
RMM:   9    -0.232636318902E+04    0.91598E-06   -0.42418E-06  2850   0.259E-03
  61 F= -.23477831E+04 E0= -.23477830E+04  d E =-.114532E-02  mag=     3.0000
       N       E                     dE             d eps       ncg     rms          rms(c)
DAV:   1    -0.232636235485E+04    0.83508E-03   -0.15776E-01  4528   0.410E-01    0.135E-01
RMM:   2    -0.232636419419E+04   -0.18393E-02   -0.17784E-02  6272   0.861E-02    0.154E-01
RMM:   3    -0.232636419343E+04    0.75874E-06   -0.17803E-03  5044   0.322E-02    0.125E-01
RMM:   4    -0.232636403566E+04    0.15777E-03   -0.22034E-04  3252   0.921E-03    0.543E-02
RMM:   5    -0.232636401775E+04    0.17914E-04   -0.66657E-05  3004   0.629E-03    0.425E-02
RMM:   6    -0.232636399895E+04    0.18794E-04   -0.51907E-05  3111   0.596E-03    0.216E-02
RMM:   7    -0.232636399803E+04    0.92396E-06   -0.25832E-05  2929   0.539E-03
  62 F= -.23477839E+04 E0= -.23477838E+04  d E =-.786759E-03  mag=     3.0000
       N       E                     dE             d eps       ncg     rms          rms(c)
DAV:   1    -0.232636248850E+04    0.15105E-02   -0.16340E-01  4528   0.418E-01    0.139E-01
RMM:   2    -0.232636441021E+04   -0.19217E-02   -0.18585E-02  6353   0.887E-02    0.159E-01
RMM:   3    -0.232636440955E+04    0.65385E-06   -0.18602E-03  5134   0.328E-02    0.130E-01
RMM:   4    -0.232636424120E+04    0.16835E-03   -0.23209E-04  3278   0.941E-03    0.562E-02
RMM:   5    -0.232636422167E+04    0.19526E-04   -0.69409E-05  3010   0.639E-03    0.431E-02
RMM:   6    -0.232636420353E+04    0.18143E-04   -0.53115E-05  3130   0.600E-03    0.243E-02
RMM:   7    -0.232636420091E+04    0.26222E-05   -0.28232E-05  2932   0.554E-03
  63 F= -.23477840E+04 E0= -.23477840E+04  d E =-.966756E-03  mag=     3.0000
       N       E                     dE             d eps       ncg     rms          rms(c)
DAV:   1    -0.232636258698E+04    0.16166E-02   -0.17848E-01  4528   0.422E-01    0.132E-01
RMM:   2    -0.232636514153E+04   -0.25546E-02   -0.24863E-02  6510   0.928E-02    0.172E-01
RMM:   3    -0.232636515226E+04   -0.10728E-04   -0.24460E-03  5000   0.330E-02    0.126E-01
RMM:   4    -0.232636498887E+04    0.16339E-03   -0.26951E-04  3226   0.905E-03    0.443E-02
RMM:   5    -0.232636499056E+04   -0.16877E-05   -0.66831E-05  3053   0.580E-03
  64 F= -.23477848E+04 E0= -.23477847E+04  d E =-.762903E-03  mag=     3.0000
       N       E                     dE             d eps       ncg     rms          rms(c)
DAV:   1    -0.232635941716E+04    0.55717E-02   -0.45035E-01  4512   0.671E-01    0.207E-01
RMM:   2    -0.232636564957E+04   -0.62324E-02   -0.61845E-02  6510   0.146E-01    0.250E-01
RMM:   3    -0.232636583556E+04   -0.18599E-03   -0.61568E-03  5672   0.525E-02    0.197E-01
RMM:   4    -0.232636544216E+04    0.39340E-03   -0.65941E-04  4021   0.136E-02    0.735E-02
RMM:   5    -0.232636547123E+04   -0.29068E-04   -0.19258E-04  3441   0.879E-03    0.923E-02
RMM:   6    -0.232636537100E+04    0.10023E-03   -0.16295E-04  4032   0.924E-03    0.259E-02
RMM:   7    -0.232636536788E+04    0.31164E-05   -0.37628E-05  3016   0.586E-03
  65 F= -.23477851E+04 E0= -.23477851E+04  d E =-.109825E-02  mag=     3.0000
       N       E                     dE             d eps       ncg     rms          rms(c)
DAV:   1    -0.232636343072E+04    0.19403E-02   -0.18403E-01  4544   0.425E-01    0.138E-01
RMM:   2    -0.232636626578E+04   -0.28351E-02   -0.28719E-02  6545   0.973E-02    0.153E-01
RMM:   3    -0.232636644741E+04   -0.18163E-03   -0.29783E-03  5079   0.350E-02    0.142E-01
RMM:   4    -0.232636624706E+04    0.20035E-03   -0.31705E-04  3222   0.948E-03    0.457E-02
RMM:   5    -0.232636625301E+04   -0.59407E-05   -0.72977E-05  3064   0.596E-03
  66 F= -.23477860E+04 E0= -.23477859E+04  d E =-.867403E-03  mag=     3.0000
       N       E                     dE             d eps       ncg     rms          rms(c)
DAV:   1    -0.232635826423E+04    0.79828E-02   -0.56013E-01  4512   0.742E-01    0.237E-01
RMM:   2    -0.232636678639E+04   -0.85222E-02   -0.86453E-02  6550   0.168E-01    0.256E-01
RMM:   3    -0.232636735030E+04   -0.56391E-03   -0.88525E-03  5785   0.613E-02    0.239E-01
RMM:   4    -0.232636677224E+04    0.57807E-03   -0.94184E-04  4263   0.156E-02    0.841E-02
RMM:   5    -0.232636680294E+04   -0.30703E-04   -0.25335E-04  3734   0.964E-03    0.103E-01
RMM:   6    -0.232636668378E+04    0.11915E-03   -0.22314E-04  4273   0.102E-02    0.370E-02
RMM:   7    -0.232636668328E+04    0.50684E-06   -0.69966E-05  3073   0.660E-03
  67 F= -.23477864E+04 E0= -.23477863E+04  d E =-.126783E-02  mag=     3.0000
       N       E                     dE             d eps       ncg     rms          rms(c)
DAV:   1    -0.232636298703E+04    0.36968E-02   -0.28342E-01  4512   0.529E-01    0.173E-01
RMM:   2    -0.232636739053E+04   -0.44035E-02   -0.46006E-02  6516   0.124E-01    0.148E-01
RMM:   3    -0.232636782863E+04   -0.43810E-03   -0.49408E-03  5579   0.466E-02    0.170E-01
RMM:   4    -0.232636754581E+04    0.28282E-03   -0.53791E-04  3274   0.115E-02    0.657E-02
RMM:   5    -0.232636754301E+04    0.28012E-05   -0.11494E-04  3085   0.699E-03    0.658E-02
RMM:   6    -0.232636749892E+04    0.44089E-04   -0.10012E-04  3334   0.723E-03    0.320E-02
RMM:   7    -0.232636750027E+04   -0.13556E-05   -0.57071E-05  2999   0.642E-03
  68 F= -.23477872E+04 E0= -.23477872E+04  d E =-.818247E-03  mag=     3.0000
       N       E                     dE             d eps       ncg     rms          rms(c)
DAV:   1    -0.232636395574E+04    0.35432E-02   -0.23062E-01  4512   0.477E-01    0.156E-01
RMM:   2    -0.232636753983E+04   -0.35841E-02   -0.37523E-02  6572   0.112E-01    0.131E-01
RMM:   3    -0.232636790548E+04   -0.36566E-03   -0.40086E-03  5442   0.417E-02    0.153E-01
RMM:   4    -0.232636767370E+04    0.23178E-03   -0.43642E-04  3187   0.105E-02    0.592E-02
RMM:   5    -0.232636766993E+04    0.37745E-05   -0.93530E-05  3049   0.644E-03
  69 F= -.23477874E+04 E0= -.23477873E+04  d E =-.989670E-03  mag=     3.0000
       N       E                     dE             d eps       ncg     rms          rms(c)
DAV:   1    -0.232636326722E+04    0.44065E-02   -0.33952E-01  4512   0.568E-01    0.184E-01
RMM:   2    -0.232636842784E+04   -0.51606E-02   -0.53553E-02  6562   0.131E-01    0.160E-01
RMM:   3    -0.232636884328E+04   -0.41543E-03   -0.59708E-03  5705   0.498E-02    0.157E-01
RMM:   4    -0.232636857838E+04    0.26490E-03   -0.59729E-04  3493   0.124E-02    0.627E-02
RMM:   5    -0.232636856819E+04    0.10193E-04   -0.16791E-04  3515   0.869E-03    0.600E-02
RMM:   6    -0.232636855770E+04    0.10485E-04   -0.95201E-05  3144   0.723E-03    0.504E-02
RMM:   7    -0.232636854080E+04    0.16898E-04   -0.40100E-05  2982   0.548E-03    0.265E-02
RMM:   8    -0.232636853294E+04    0.78611E-05   -0.13804E-05  2896   0.389E-03
  70 F= -.23477882E+04 E0= -.23477882E+04  d E =-.856773E-03  mag=     3.0000
       N       E                     dE             d eps       ncg     rms          rms(c)
DAV:   1    -0.232636564225E+04    0.28986E-02   -0.19678E-01  4528   0.432E-01    0.140E-01
RMM:   2    -0.232636866198E+04   -0.30197E-02   -0.31226E-02  6445   0.995E-02    0.125E-01
RMM:   3    -0.232636892029E+04   -0.25831E-03   -0.32931E-03  5096   0.364E-02    0.134E-01
RMM:   4    -0.232636874547E+04    0.17482E-03   -0.35802E-04  3178   0.960E-03    0.556E-02
RMM:   5    -0.232636874212E+04    0.33475E-05   -0.78186E-05  2998   0.573E-03
  71 F= -.23477885E+04 E0= -.23477884E+04  d E =-.106205E-02  mag=     3.0000
       N       E                     dE             d eps       ncg     rms          rms(c)
DAV:   1    -0.232636489239E+04    0.38531E-02   -0.37238E-01  4512   0.592E-01    0.202E-01
RMM:   2    -0.232636973200E+04   -0.48396E-02   -0.50508E-02  6430   0.132E-01    0.171E-01
RMM:   3    -0.232637019205E+04   -0.46005E-03   -0.54465E-03  5706   0.487E-02    0.195E-01
RMM:   4    -0.232636980688E+04    0.38517E-03   -0.58042E-04  3797   0.131E-02    0.744E-02
RMM:   5    -0.232636984088E+04   -0.33997E-04   -0.21656E-04  3410   0.918E-03    0.873E-02
RMM:   6    -0.232636975547E+04    0.85405E-04   -0.14340E-04  3858   0.850E-03    0.324E-02
RMM:   7    -0.232636974651E+04    0.89582E-05   -0.36957E-05  2999   0.597E-03
  72 F= -.23477894E+04 E0= -.23477893E+04  d E =-.924793E-03  mag=     3.0000
       N       E                     dE             d eps       ncg     rms          rms(c)
DAV:   1    -0.232636883002E+04    0.92545E-03   -0.74721E-02  4624   0.265E-01    0.923E-02
RMM:   2    -0.232636981486E+04   -0.98484E-03   -0.10342E-02  6456   0.610E-02    0.784E-02
RMM:   3    -0.232636991747E+04   -0.10261E-03   -0.10895E-03  3959   0.219E-02    0.944E-02
RMM:   4    -0.232636983137E+04    0.86100E-04   -0.12235E-04  3003   0.714E-03    0.324E-02
RMM:   5    -0.232636983221E+04   -0.84126E-06   -0.39040E-05  2957   0.458E-03
  73 F= -.23477894E+04 E0= -.23477894E+04  d E =-.975246E-03  mag=     3.0000
       N       E                     dE             d eps       ncg     rms          rms(c)
DAV:   1    -0.232636700691E+04    0.28245E-02   -0.28266E-01  4512   0.493E-01    0.171E-01
RMM:   2    -0.232637078682E+04   -0.37799E-02   -0.38213E-02  6431   0.112E-01    0.181E-01
RMM:   3    -0.232637101710E+04   -0.23027E-03   -0.39886E-03  5318   0.403E-02    0.171E-01
RMM:   4    -0.232637071276E+04    0.30434E-03   -0.43895E-04  3430   0.111E-02    0.618E-02
RMM:   5    -0.232637072111E+04   -0.83545E-05   -0.13954E-04  3209   0.756E-03    0.652E-02
RMM:   6    -0.232637067705E+04    0.44060E-04   -0.10789E-04  3309   0.757E-03    0.302E-02
RMM:   7    -0.232637067696E+04    0.97352E-07   -0.41162E-05  2961   0.582E-03
  74 F= -.23477902E+04 E0= -.23477902E+04  d E =-.797274E-03  mag=     3.0000
       N       E                     dE             d eps       ncg     rms          rms(c)
DAV:   1    -0.232636717967E+04    0.34974E-02   -0.28442E-01  4512   0.495E-01    0.174E-01
RMM:   2    -0.232637106865E+04   -0.38890E-02   -0.38905E-02  6488   0.113E-01    0.194E-01
RMM:   3    -0.232637125627E+04   -0.18762E-03   -0.39747E-03  5343   0.402E-02    0.176E-01
RMM:   4    -0.232637092817E+04    0.32809E-03   -0.45047E-04  3483   0.112E-02    0.581E-02
RMM:   5    -0.232637092720E+04    0.97699E-06   -0.12253E-04  3217   0.730E-03    0.587E-02
RMM:   6    -0.232637089300E+04    0.34200E-04   -0.10214E-04  3245   0.754E-03    0.289E-02
RMM:   7    -0.232637089172E+04    0.12812E-05   -0.34608E-05  2966   0.551E-03
  75 F= -.23477904E+04 E0= -.23477903E+04  d E =-.965327E-03  mag=     3.0000
       N       E                     dE             d eps       ncg     rms          rms(c)
DAV:   1    -0.232636648607E+04    0.44069E-02   -0.41388E-01  4512   0.605E-01    0.213E-01
RMM:   2    -0.232637218310E+04   -0.56970E-02   -0.55864E-02  6394   0.139E-01    0.255E-01
RMM:   3    -0.232637230506E+04   -0.12196E-03   -0.57682E-03  5668   0.503E-02    0.207E-01
RMM:   4    -0.232637184024E+04    0.46482E-03   -0.65750E-04  4005   0.133E-02    0.689E-02
RMM:   5    -0.232637183653E+04    0.37111E-05   -0.18809E-04  3473   0.875E-03    0.701E-02
RMM:   6    -0.232637178461E+04    0.51922E-04   -0.14938E-04  3655   0.876E-03    0.307E-02
RMM:   7    -0.232637177853E+04    0.60797E-05   -0.33675E-05  2988   0.583E-03
  76 F= -.23477913E+04 E0= -.23477913E+04  d E =-.951387E-03  mag=     3.0000
       N       E                     dE             d eps       ncg     rms          rms(c)
DAV:   1    -0.232636996450E+04    0.18201E-02   -0.14537E-01  4576   0.358E-01    0.128E-01
RMM:   2    -0.232637200485E+04   -0.20403E-02   -0.19686E-02  6420   0.823E-02    0.159E-01
RMM:   3    -0.232637200451E+04    0.33878E-06   -0.20789E-03  4813   0.304E-02    0.120E-01
RMM:   4    -0.232637184635E+04    0.15816E-03   -0.22910E-04  3249   0.869E-03    0.420E-02
RMM:   5    -0.232637184824E+04   -0.18878E-05   -0.68661E-05  3009   0.569E-03
  77 F= -.23477915E+04 E0= -.23477914E+04  d E =-.106013E-02  mag=     3.0000
       N       E                     dE             d eps       ncg     rms          rms(c)
DAV:   1    -0.232636671486E+04    0.51315E-02   -0.46417E-01  4512   0.648E-01    0.227E-01
RMM:   2    -0.232637305244E+04   -0.63376E-02   -0.62592E-02  6354   0.148E-01    0.249E-01
RMM:   3    -0.232637335009E+04   -0.29765E-03   -0.69103E-03  5820   0.560E-02    0.221E-01
RMM:   4    -0.232637281070E+04    0.53940E-03   -0.74912E-04  4439   0.146E-02    0.774E-02
RMM:   5    -0.232637282586E+04   -0.15160E-04   -0.25362E-04  3557   0.994E-03    0.882E-02
RMM:   6    -0.232637275264E+04    0.73214E-04   -0.15983E-04  3836   0.887E-03    0.369E-02
RMM:   7    -0.232637275117E+04    0.14738E-05   -0.50911E-05  3026   0.642E-03
  78 F= -.23477924E+04 E0= -.23477923E+04  d E =-.915959E-03  mag=     3.0000
       N       E                     dE             d eps       ncg     rms          rms(c)
DAV:   1    -0.232637206587E+04    0.68677E-03   -0.52314E-02  4704   0.218E-01    0.792E-02
RMM:   2    -0.232637280174E+04   -0.73587E-03   -0.72628E-03  6365   0.516E-02    0.888E-02
RMM:   3    -0.232637283431E+04   -0.32563E-04   -0.76878E-04  3746   0.186E-02    0.780E-02
RMM:   4    -0.232637277040E+04    0.63900E-04   -0.90313E-05  3031   0.624E-03    0.252E-02
RMM:   5    -0.232637276744E+04    0.29683E-05   -0.23149E-05  2926   0.385E-03
  79 F= -.23477924E+04 E0= -.23477923E+04  d E =-.936976E-03  mag=     3.0000
       N       E                     dE             d eps       ncg     rms          rms(c)
DAV:   1    -0.232636964908E+04    0.31213E-02   -0.29956E-01  4512   0.527E-01    0.185E-01
RMM:   2    -0.232637397089E+04   -0.43218E-02   -0.42566E-02  6290   0.123E-01    0.202E-01
RMM:   3    -0.232637416791E+04   -0.19701E-03   -0.45964E-03  5617   0.461E-02    0.178E-01
RMM:   4    -0.232637381683E+04    0.35108E-03   -0.51471E-04  3833   0.122E-02    0.686E-02
RMM:   5    -0.232637381929E+04   -0.24634E-05   -0.16232E-04  3219   0.820E-03    0.718E-02
RMM:   6    -0.232637376848E+04    0.50817E-04   -0.11285E-04  3633   0.806E-03    0.283E-02
RMM:   7    -0.232637377250E+04   -0.40246E-05   -0.42684E-05  2958   0.611E-03
  80 F= -.23477932E+04 E0= -.23477931E+04  d E =-.773092E-03  mag=     3.0000
[...]
RMM:   4    -0.232649407991E+04    0.55933E-04   -0.10398E-04  2968   0.706E-03    0.326E-02
RMM:   5    -0.232649407644E+04    0.34707E-05   -0.32673E-05  2941   0.440E-03
 173 F= -.23479056E+04 E0= -.23479055E+04  d E =-.147583E-02  mag=     2.9996
       N       E                     dE             d eps       ncg     rms          rms(c)
DAV:   1    -0.232649089939E+04    0.31805E-02   -0.37958E-01  4512   0.674E-01    0.212E-01
RMM:   2    -0.232649560564E+04   -0.47063E-02   -0.50114E-02  6231   0.142E-01    0.169E-01
RMM:   3    -0.232649597399E+04   -0.36834E-03   -0.54705E-03  5566   0.542E-02    0.175E-01
RMM:   4    -0.232649571679E+04    0.25720E-03   -0.58057E-04  4153   0.139E-02    0.939E-02
RMM:   5    -0.232649566942E+04    0.47366E-04   -0.18315E-04  3383   0.929E-03    0.663E-02
RMM:   6    -0.232649561628E+04    0.53144E-04   -0.14988E-04  4215   0.937E-03    0.245E-02
RMM:   7    -0.232649561809E+04   -0.18149E-05   -0.35460E-05  2933   0.661E-03
 174 F= -.23479070E+04 E0= -.23479069E+04  d E =-.142276E-02  mag=     2.9996
       N       E                     dE             d eps       ncg     rms          rms(c)
DAV:   1    -0.232649510167E+04    0.51460E-03   -0.44879E-02  4800   0.232E-01    0.742E-02
RMM:   2    -0.232649566175E+04   -0.56007E-03   -0.60446E-03  6234   0.504E-02    0.541E-02
RMM:   3    -0.232649571568E+04   -0.53933E-04   -0.67072E-04  3466   0.199E-02    0.613E-02
RMM:   4    -0.232649568540E+04    0.30277E-04   -0.70684E-05  2938   0.595E-03    0.326E-02
RMM:   5    -0.232649568003E+04    0.53716E-05   -0.23479E-05  2936   0.378E-03
 175 F= -.23479070E+04 E0= -.23479069E+04  d E =-.144327E-02  mag=     2.9996
       N       E                     dE             d eps       ncg     rms          rms(c)
DAV:   1    -0.232649261374E+04    0.30717E-02   -0.30045E-01  4512   0.579E-01    0.168E-01
RMM:   2    -0.232649691195E+04   -0.42982E-02   -0.45297E-02  6409   0.124E-01    0.164E-01
RMM:   3    -0.232649715662E+04   -0.24468E-03   -0.48665E-03  5272   0.446E-02    0.131E-01
RMM:   4    -0.232649703082E+04    0.12580E-03   -0.48515E-04  3269   0.113E-02    0.841E-02
RMM:   5    -0.232649698811E+04    0.42708E-04   -0.11397E-04  3076   0.753E-03    0.537E-02
RMM:   6    -0.232649695441E+04    0.33706E-04   -0.11076E-04  3772   0.780E-03    0.216E-02
RMM:   7    -0.232649695815E+04   -0.37470E-05   -0.28369E-05  2934   0.574E-03
 176 F= -.23479081E+04 E0= -.23479081E+04  d E =-.115000E-02  mag=     2.9996
       N       E                     dE             d eps       ncg     rms          rms(c)
DAV:   1    -0.232649324438E+04    0.37100E-02   -0.28137E-01  4512   0.560E-01    0.164E-01
RMM:   2    -0.232649725781E+04   -0.40134E-02   -0.42636E-02  6372   0.121E-01    0.151E-01
RMM:   3    -0.232649752636E+04   -0.26856E-03   -0.46074E-03  5230   0.441E-02    0.130E-01
RMM:   4    -0.232649740839E+04    0.11798E-03   -0.46381E-04  3210   0.111E-02    0.825E-02
RMM:   5    -0.232649736533E+04    0.43054E-04   -0.10657E-04  3069   0.736E-03    0.513E-02
RMM:   6    -0.232649733465E+04    0.30684E-04   -0.10044E-04  3518   0.753E-03    0.217E-02
RMM:   7    -0.232649733738E+04   -0.27321E-05   -0.27520E-05  2944   0.549E-03
 177 F= -.23479084E+04 E0= -.23479083E+04  d E =-.140384E-02  mag=     2.9997
       N       E                     dE             d eps       ncg     rms          rms(c)
DAV:   1    -0.232649476965E+04    0.25650E-02   -0.32164E-01  4512   0.603E-01    0.182E-01
RMM:   2    -0.232649879259E+04   -0.40229E-02   -0.42052E-02  6281   0.127E-01    0.183E-01
RMM:   3    -0.232649901546E+04   -0.22287E-03   -0.45297E-03  5434   0.476E-02    0.159E-01
RMM:   4    -0.232649880627E+04    0.20919E-03   -0.49381E-04  3862   0.125E-02    0.783E-02
RMM:   5    -0.232649877128E+04    0.34991E-04   -0.15033E-04  3257   0.848E-03    0.566E-02
RMM:   6    -0.232649873237E+04    0.38912E-04   -0.12294E-04  3831   0.862E-03    0.220E-02
RMM:   7    -0.232649872892E+04    0.34447E-05   -0.18739E-05  2951   0.530E-03
 178 F= -.23479096E+04 E0= -.23479095E+04  d E =-.120030E-02  mag=     2.9997
       N       E                     dE             d eps       ncg     rms          rms(c)
DAV:   1    -0.232649804093E+04    0.69144E-03   -0.71996E-02  4640   0.286E-01    0.871E-02
RMM:   2    -0.232649895973E+04   -0.91880E-03   -0.95203E-03  6288   0.609E-02    0.919E-02
RMM:   3    -0.232649899751E+04   -0.37782E-04   -0.10263E-03  3689   0.227E-02    0.742E-02
RMM:   4    -0.232649895340E+04    0.44108E-04   -0.11265E-04  2977   0.704E-03    0.387E-02
RMM:   5    -0.232649894414E+04    0.92651E-05   -0.35298E-05  2948   0.457E-03
 179 F= -.23479097E+04 E0= -.23479097E+04  d E =-.132426E-02  mag=     2.9997
       N       E                     dE             d eps       ncg     rms          rms(c)
DAV:   1    -0.232649770397E+04    0.12494E-02   -0.22510E-01  4512   0.503E-01    0.161E-01
RMM:   2    -0.232650027595E+04   -0.25720E-02   -0.26286E-02  6223   0.105E-01    0.181E-01
RMM:   3    -0.232650034237E+04   -0.66418E-04   -0.28755E-03  5363   0.402E-02    0.148E-01
RMM:   4    -0.232650013359E+04    0.20878E-03   -0.29716E-04  3817   0.109E-02    0.527E-02
RMM:   5    -0.232650013944E+04   -0.58518E-05   -0.13259E-04  3302   0.850E-03    0.564E-02
RMM:   6    -0.232650009524E+04    0.44201E-04   -0.90489E-05  3365   0.793E-03    0.181E-02
RMM:   7    -0.232650009329E+04    0.19562E-05   -0.17845E-05  2940   0.535E-03
 180 F= -.23479107E+04 E0= -.23479107E+04  d E =-.101662E-02  mag=     2.9997
       N       E                     dE             d eps       ncg     rms          rms(c)
DAV:   1    -0.232649823911E+04    0.18561E-02   -0.17707E-01  4512   0.445E-01    0.143E-01
RMM:   2    -0.232650024269E+04   -0.20036E-02   -0.20735E-02  6235   0.935E-02    0.148E-01
RMM:   3    -0.232650033395E+04   -0.91261E-04   -0.22812E-03  5189   0.362E-02    0.132E-01
RMM:   4    -0.232650017038E+04    0.16356E-03   -0.24073E-04  3347   0.990E-03    0.504E-02
RMM:   5    -0.232650016912E+04    0.12676E-05   -0.98213E-05  3042   0.747E-03
 181 F= -.23479107E+04 E0= -.23479106E+04  d E =-.973996E-03  mag=     2.9997
       N       E                     dE             d eps       ncg     rms          rms(c)
DAV:   1    -0.232649975938E+04    0.41100E-03   -0.43104E-02  4608   0.220E-01    0.674E-02
RMM:   2    -0.232650022406E+04   -0.46467E-03   -0.49363E-03  6268   0.479E-02    0.517E-02
RMM:   3    -0.232650026729E+04   -0.43229E-04   -0.53614E-04  3328   0.169E-02    0.620E-02
RMM:   4    -0.232650023372E+04    0.33567E-04   -0.54571E-05  2929   0.555E-03    0.244E-02
RMM:   5    -0.232650022997E+04    0.37466E-05   -0.18509E-05  2902   0.345E-03
 182 F= -.23479108E+04 E0= -.23479108E+04  d E =-.109236E-02  mag=     2.9997
       N       E                     dE             d eps       ncg     rms          rms(c)
DAV:   1    -0.232649862118E+04    0.16125E-02   -0.21471E-01  4512   0.473E-01    0.146E-01
RMM:   2    -0.232650120550E+04   -0.25843E-02   -0.27131E-02  6338   0.101E-01    0.140E-01
RMM:   3    -0.232650138430E+04   -0.17880E-03   -0.29905E-03  5341   0.378E-02    0.137E-01
RMM:   4    -0.232650121524E+04    0.16906E-03   -0.29674E-04  3198   0.974E-03    0.533E-02
RMM:   5    -0.232650120780E+04    0.74424E-05   -0.95347E-05  3034   0.672E-03
 183 F= -.23479117E+04 E0= -.23479116E+04  d E =-.852617E-03  mag=     2.9997
       N       E                     dE             d eps       ncg     rms          rms(c)
DAV:   1    -0.232649889816E+04    0.23171E-02   -0.21462E-01  4512   0.473E-01    0.152E-01
RMM:   2    -0.232650159228E+04   -0.26941E-02   -0.27541E-02  6419   0.101E-01    0.177E-01
RMM:   3    -0.232650165860E+04   -0.66317E-04   -0.31400E-03  5379   0.385E-02    0.137E-01
RMM:   4    -0.232650148976E+04    0.16884E-03   -0.30567E-04  3303   0.992E-03    0.551E-02
RMM:   5    -0.232650149448E+04   -0.47239E-05   -0.12226E-04  3031   0.734E-03    0.596E-02
RMM:   6    -0.232650144936E+04    0.45118E-04   -0.83489E-05  3375   0.712E-03    0.158E-02
RMM:   7    -0.232650144777E+04    0.15922E-05   -0.13774E-05  2931   0.500E-03
 184 F= -.23479118E+04 E0= -.23479117E+04  d E =-.965428E-03  mag=     2.9997
       N       E                     dE             d eps       ncg     rms          rms(c)
DAV:   1    -0.232650004933E+04    0.14000E-02   -0.19165E-01  4512   0.443E-01    0.133E-01
RMM:   2    -0.232650235060E+04   -0.23013E-02   -0.24786E-02  6391   0.948E-02    0.107E-01
RMM:   3    -0.232650256985E+04   -0.21925E-03   -0.26238E-03  5058   0.349E-02    0.126E-01
RMM:   4    -0.232650243638E+04    0.13347E-03   -0.26951E-04  3103   0.906E-03    0.492E-02
RMM:   5    -0.232650243502E+04    0.13660E-05   -0.87912E-05  3064   0.632E-03
 185 F= -.23479127E+04 E0= -.23479126E+04  d E =-.871236E-03  mag=     2.9997
       N       E                     dE             d eps       ncg     rms          rms(c)
DAV:   1    -0.232649801557E+04    0.44208E-02   -0.39865E-01  4512   0.640E-01    0.196E-01
RMM:   2    -0.232650289414E+04   -0.48786E-02   -0.51709E-02  6437   0.137E-01    0.185E-01
RMM:   3    -0.232650326820E+04   -0.37406E-03   -0.56001E-03  5774   0.506E-02    0.187E-01
RMM:   4    -0.232650295946E+04    0.30874E-03   -0.56546E-04  3656   0.128E-02    0.732E-02
RMM:   5    -0.232650297069E+04   -0.11233E-04   -0.20540E-04  3332   0.913E-03    0.803E-02
RMM:   6    -0.232650289344E+04    0.77248E-04   -0.13702E-04  3850   0.869E-03    0.250E-02
RMM:   7    -0.232650288937E+04    0.40757E-05   -0.23017E-05  2966   0.564E-03
 186 F= -.23479129E+04 E0= -.23479129E+04  d E =-.115642E-02  mag=     2.9997
       N       E                     dE             d eps       ncg     rms          rms(c)
DAV:   1    -0.232650065264E+04    0.22408E-02   -0.23700E-01  4512   0.498E-01    0.156E-01
RMM:   2    -0.232650368252E+04   -0.30299E-02   -0.33602E-02  6378   0.108E-01    0.798E-02
RMM:   3    -0.232650389177E+04   -0.20925E-03   -0.34293E-03  5245   0.405E-02    0.590E-02
RMM:   4    -0.232650391750E+04   -0.25736E-04   -0.35207E-04  3168   0.963E-03    0.709E-02
RMM:   5    -0.232650387514E+04    0.42365E-04   -0.10235E-04  3264   0.761E-03    0.469E-02
RMM:   6    -0.232650386451E+04    0.10632E-04   -0.47890E-05  2921   0.599E-03    0.270E-02
RMM:   7    -0.232650385668E+04    0.78311E-05   -0.16143E-05  2912   0.403E-03
 187 F= -.23479138E+04 E0= -.23479137E+04  d E =-.816829E-03  mag=     2.9997
       N       E                     dE             d eps       ncg     rms          rms(c)
DAV:   1    -0.232650290907E+04    0.95544E-03   -0.84459E-02  4624   0.298E-01    0.930E-02
RMM:   2    -0.232650399974E+04   -0.10907E-02   -0.12040E-02  6428   0.655E-02    0.506E-02
RMM:   3    -0.232650407575E+04   -0.76006E-04   -0.12314E-03  3803   0.245E-02    0.399E-02
RMM:   4    -0.232650407281E+04    0.29327E-05   -0.12510E-04  2987   0.675E-03    0.359E-02
RMM:   5    -0.232650406641E+04    0.64011E-05   -0.39553E-05  2950   0.492E-03
 188 F= -.23479139E+04 E0= -.23479138E+04  d E =-.936283E-03  mag=     2.9997
       N       E                     dE             d eps       ncg     rms          rms(c)
DAV:   1    -0.232650150692E+04    0.25659E-02   -0.23306E-01  4512   0.491E-01    0.155E-01
RMM:   2    -0.232650507183E+04   -0.35649E-02   -0.38727E-02  6427   0.112E-01    0.104E-01
RMM:   3    -0.232650543147E+04   -0.35965E-03   -0.41560E-03  5350   0.425E-02    0.135E-01
RMM:   4    -0.232650528811E+04    0.14336E-03   -0.39733E-04  3088   0.981E-03    0.576E-02
RMM:   5    -0.232650528357E+04    0.45438E-05   -0.11069E-04  3107   0.673E-03    0.571E-02
RMM:   6    -0.232650524622E+04    0.37348E-04   -0.97861E-05  3253   0.756E-03    0.225E-02
RMM:   7    -0.232650524396E+04    0.22615E-05   -0.17482E-05  2949   0.506E-03
 189 F= -.23479148E+04 E0= -.23479147E+04  d E =-.928235E-03  mag=     2.9997
       N       E                     dE             d eps       ncg     rms          rms(c)
DAV:   1    -0.232650390102E+04    0.13452E-02   -0.10276E-01  4544   0.326E-01    0.104E-01
RMM:   2    -0.232650546510E+04   -0.15641E-02   -0.17163E-02  6428   0.747E-02    0.595E-02
RMM:   3    -0.232650559576E+04   -0.13066E-03   -0.17986E-03  4097   0.284E-02    0.559E-02
RMM:   4    -0.232650558075E+04    0.15016E-04   -0.17122E-04  3000   0.724E-03    0.402E-02
RMM:   5    -0.232650557624E+04    0.45087E-05   -0.44685E-05  2957   0.461E-03
 190 F= -.23479150E+04 E0= -.23479149E+04  d E =-.109499E-02  mag=     2.9997
       N       E                     dE             d eps       ncg     rms          rms(c)
DAV:   1    -0.232650276457E+04    0.28162E-02   -0.25321E-01  4512   0.517E-01    0.164E-01
RMM:   2    -0.232650636836E+04   -0.36038E-02   -0.39140E-02  6425   0.117E-01    0.103E-01
RMM:   3    -0.232650664581E+04   -0.27746E-03   -0.40911E-03  5399   0.438E-02    0.938E-02
RMM:   4    -0.232650657933E+04    0.66484E-04   -0.39176E-04  3233   0.103E-02    0.627E-02
RMM:   5    -0.232650658018E+04   -0.85364E-06   -0.11559E-04  2996   0.716E-03    0.685E-02
RMM:   6    -0.232650653536E+04    0.44825E-04   -0.93516E-05  3232   0.724E-03    0.255E-02
RMM:   7    -0.232650653425E+04    0.11053E-05   -0.21673E-05  2940   0.550E-03
 191 F= -.23479157E+04 E0= -.23479157E+04  d E =-.732938E-03  mag=     2.9997
       N       E                     dE             d eps       ncg     rms          rms(c)
DAV:   1    -0.232650596726E+04    0.56810E-03   -0.45950E-02  4640   0.220E-01    0.715E-02
RMM:   2    -0.232650662338E+04   -0.65612E-03   -0.72149E-03  6463   0.502E-02    0.413E-02
RMM:   3    -0.232650667484E+04   -0.51465E-04   -0.75533E-04  3375   0.191E-02    0.345E-02
RMM:   4    -0.232650666760E+04    0.72453E-05   -0.73578E-05  2965   0.568E-03
 192 F= -.23479157E+04 E0= -.23479157E+04  d E =-.770376E-03  mag=     2.9997
       N       E                     dE             d eps       ncg     rms          rms(c)
DAV:   1    -0.232650415338E+04    0.25215E-02   -0.25901E-01  4512   0.514E-01    0.159E-01
RMM:   2    -0.232650751226E+04   -0.33589E-02   -0.35046E-02  6381   0.110E-01    0.146E-01
RMM:   3    -0.232650780017E+04   -0.28791E-03   -0.38026E-03  5316   0.399E-02    0.163E-01
RMM:   4    -0.232650757197E+04    0.22820E-03   -0.40428E-04  3127   0.104E-02    0.605E-02
RMM:   5    -0.232650755921E+04    0.12761E-04   -0.11894E-04  3104   0.721E-03    0.574E-02
RMM:   6    -0.232650752233E+04    0.36876E-04   -0.12155E-04  3672   0.820E-03    0.207E-02
RMM:   7    -0.232650752237E+04   -0.38301E-07   -0.19782E-05  2953   0.511E-03
 193 F= -.23479164E+04 E0= -.23479164E+04  d E =-.684640E-03  mag=     2.9998
       N       E                     dE             d eps       ncg     rms          rms(c)
DAV:   1    -0.232650664064E+04    0.88170E-03   -0.77850E-02  4544   0.282E-01    0.888E-02
RMM:   2    -0.232650763619E+04   -0.99555E-03   -0.10715E-02  6385   0.622E-02    0.623E-02
RMM:   3    -0.232650770577E+04   -0.69581E-04   -0.11387E-03  3764   0.233E-02    0.538E-02
RMM:   4    -0.232650767917E+04    0.26596E-04   -0.11285E-04  2998   0.676E-03    0.326E-02
RMM:   5    -0.232650767923E+04   -0.57946E-07   -0.30868E-05  2926   0.402E-03
 194 F= -.23479165E+04 E0= -.23479164E+04  d E =-.748405E-03  mag=     2.9998
       N       E                     dE             d eps       ncg     rms          rms(c)
DAV:   1    -0.232650533345E+04    0.23457E-02   -0.27786E-01  4512   0.525E-01    0.160E-01
RMM:   2    -0.232650850474E+04   -0.31713E-02   -0.34217E-02  6262   0.109E-01    0.106E-01
RMM:   3    -0.232650870765E+04   -0.20291E-03   -0.35076E-03  5209   0.412E-02    0.922E-02
RMM:   4    -0.232650863847E+04    0.69173E-04   -0.36618E-04  3213   0.994E-03    0.587E-02
RMM:   5    -0.232650865389E+04   -0.15418E-04   -0.11363E-04  3141   0.712E-03    0.812E-02
RMM:   6    -0.232650859666E+04    0.57230E-04   -0.90740E-05  3108   0.730E-03    0.183E-02
RMM:   7    -0.232650859724E+04   -0.57920E-06   -0.21780E-05  2938   0.513E-03
 195 F= -.23479172E+04 E0= -.23479171E+04  d E =-.699754E-03  mag=     2.9998
       N       E                     dE             d eps       ncg     rms          rms(c)
DAV:   1    -0.232650774606E+04    0.85060E-03   -0.86033E-02  4544   0.292E-01    0.899E-02
RMM:   2    -0.232650872883E+04   -0.98277E-03   -0.10735E-02  6387   0.619E-02    0.529E-02
RMM:   3    -0.232650879719E+04   -0.68354E-04   -0.11001E-03  3651   0.232E-02    0.451E-02
RMM:   4    -0.232650878533E+04    0.11860E-04   -0.11276E-04  3000   0.664E-03    0.345E-02
RMM:   5    -0.232650878117E+04    0.41619E-05   -0.33056E-05  2936   0.432E-03
 196 F= -.23479173E+04 E0= -.23479172E+04  d E =-.762368E-03  mag=     2.9998
       N       E                     dE             d eps       ncg     rms          rms(c)
DAV:   1    -0.232650600116E+04    0.27842E-02   -0.32804E-01  4512   0.563E-01    0.176E-01
RMM:   2    -0.232650951967E+04   -0.35185E-02   -0.38484E-02  6172   0.113E-01    0.105E-01
RMM:   3    -0.232650976058E+04   -0.24091E-03   -0.39488E-03  5326   0.456E-02    0.988E-02
RMM:   4    -0.232650970874E+04    0.51833E-04   -0.43224E-04  3252   0.106E-02    0.714E-02
RMM:   5    -0.232650970911E+04   -0.36666E-06   -0.13602E-04  3307   0.781E-03    0.823E-02
RMM:   6    -0.232650964858E+04    0.60534E-04   -0.11041E-04  3315   0.800E-03    0.210E-02
RMM:   7    -0.232650964555E+04    0.30271E-05   -0.20988E-05  2935   0.526E-03
 197 F= -.23479179E+04 E0= -.23479178E+04  d E =-.613459E-03  mag=     2.9998
       N       E                     dE             d eps       ncg     rms          rms(c)
DAV:   1    -0.232650906080E+04    0.58778E-03   -0.56376E-02  4656   0.234E-01    0.741E-02
RMM:   2    -0.232650967193E+04   -0.61113E-03   -0.67462E-03  6326   0.484E-02    0.411E-02
RMM:   3    -0.232650971481E+04   -0.42878E-04   -0.69922E-04  3387   0.190E-02    0.364E-02
RMM:   4    -0.232650970663E+04    0.81788E-05   -0.76172E-05  2960   0.583E-03
 198 F= -.23479178E+04 E0= -.23479178E+04  d E =-.570495E-03  mag=     2.9998
       N       E                     dE             d eps       ncg     rms          rms(c)
DAV:   1    -0.232650944784E+04    0.26697E-03   -0.21278E-02  4608   0.143E-01    0.464E-02
RMM:   2    -0.232650970504E+04   -0.25720E-03   -0.25148E-03  6164   0.297E-02    0.619E-02
RMM:   3    -0.232650970783E+04   -0.27933E-05   -0.30591E-04  3024   0.128E-02    0.472E-02
RMM:   4    -0.232650968888E+04    0.18955E-04   -0.30563E-05  2922   0.424E-03    0.137E-02
RMM:   5    -0.232650968761E+04    0.12740E-05   -0.69666E-06  2715   0.211E-03
 199 F= -.23479179E+04 E0= -.23479178E+04  d E =-.614377E-03  mag=     2.9998
       N       E                     dE             d eps       ncg     rms          rms(c)
DAV:   1    -0.232650778088E+04    0.19080E-02   -0.22594E-01  4512   0.469E-01    0.152E-01
RMM:   2    -0.232651025369E+04   -0.24728E-02   -0.26972E-02  6087   0.928E-02    0.913E-02
RMM:   3    -0.232651050501E+04   -0.25132E-03   -0.28436E-03  5208   0.386E-02    0.126E-01
RMM:   4    -0.232651037275E+04    0.13227E-03   -0.29676E-04  3008   0.919E-03    0.506E-02
RMM:   5    -0.232651035148E+04    0.21267E-04   -0.89495E-05  3243   0.692E-03    0.351E-02
RMM:   6    -0.232651034452E+04    0.69568E-05   -0.61418E-05  3023   0.660E-03
 200 F= -.23479184E+04 E0= -.23479183E+04  d E =-.520900E-03  mag=     2.9998
       N       E                     dE             d eps       ncg     rms          rms(c)
DAV:   1    -0.232650946566E+04    0.88582E-03   -0.74518E-02  4576   0.270E-01    0.900E-02
RMM:   2    -0.232651028100E+04   -0.81533E-03   -0.91009E-03  6162   0.547E-02    0.461E-02
RMM:   3    -0.232651033261E+04   -0.51616E-04   -0.96295E-04  3638   0.221E-02    0.326E-02
RMM:   4    -0.232651033633E+04   -0.37158E-05   -0.10649E-04  3011   0.608E-03    0.336E-02
RMM:   5    -0.232651032659E+04    0.97382E-05   -0.30459E-05  2934   0.451E-03
 201 F= -.23479183E+04 E0= -.23479182E+04  d E =-.424171E-03  mag=     2.9998
