       N       E                     dE             d eps       ncg     rms          rms(c)
DAV:   1     0.128708969501E+05    0.12871E+05   -0.83965E+05  4560   0.142E+03
DAV:   2    -0.109609186045E+04   -0.13967E+05   -0.13356E+05  5160   0.327E+02
DAV:   3    -0.248412979717E+04   -0.13880E+04   -0.13737E+04  5500   0.110E+02
DAV:   4    -0.252467334283E+04   -0.40544E+02   -0.40365E+02  6720   0.271E+01
DAV:   5    -0.252534171061E+04   -0.66837E+00   -0.66724E+00  5640   0.274E+00    0.170E+02
RMM:   6    -0.148904479581E+04    0.10363E+04   -0.19084E+03  4504   0.377E+01    0.722E+01
RMM:   7    -0.165877796741E+04   -0.16973E+03   -0.28204E+02  5081   0.138E+01    0.484E+01
RMM:   8    -0.171531785640E+04   -0.56540E+02   -0.47919E+01  5224   0.724E+00    0.392E+01
RMM:   9    -0.181872595630E+04   -0.10341E+03   -0.60487E+01  5356   0.734E+00    0.357E+01
RMM:  10    -0.194202506839E+04   -0.12330E+03   -0.56881E+01  5488   0.714E+00    0.237E+01
RMM:  11    -0.201333280155E+04   -0.71308E+02   -0.27336E+01  5214   0.442E+00    0.240E+01
RMM:  12    -0.206966855621E+04   -0.56336E+02   -0.20182E+01  5281   0.363E+00    0.154E+01
RMM:  13    -0.215874548368E+04   -0.89077E+02   -0.45350E+01  4630   0.505E+00    0.108E+01
RMM:  14    -0.228201958801E+04   -0.12327E+03   -0.12528E+02  4515   0.733E+00    0.834E+00
RMM:  15    -0.230300783224E+04   -0.20988E+02   -0.21386E+01  4534   0.440E+00    0.526E+00
RMM:  16    -0.231259679968E+04   -0.95890E+01   -0.11040E+01  4588   0.207E+00    0.245E+00
RMM:  17    -0.231676658630E+04   -0.41698E+01   -0.29243E+00  5043   0.161E+00    0.162E+00
RMM:  18    -0.231737722854E+04   -0.61064E+00   -0.82226E-01  5162   0.538E-01    0.774E-01
RMM:  19    -0.231769928516E+04   -0.32206E+00   -0.18806E-01  4847   0.331E-01    0.630E-01
RMM:  20    -0.231776036678E+04   -0.61082E-01   -0.44143E-02  4915   0.161E-01    0.277E-01
RMM:  21    -0.231778610581E+04   -0.25739E-01   -0.13675E-02  4730   0.958E-02    0.171E-01
RMM:  22    -0.231780814796E+04   -0.22042E-01   -0.82361E-03  4526   0.736E-02    0.104E-01
RMM:  23    -0.231782204797E+04   -0.13900E-01   -0.43509E-03  4561   0.550E-02    0.623E-02
RMM:  24    -0.231783185308E+04   -0.98051E-02   -0.32872E-03  4514   0.446E-02    0.416E-02
RMM:  25    -0.231783659191E+04   -0.47388E-02   -0.16527E-03  4678   0.342E-02    0.240E-02
RMM:  26    -0.231783857256E+04   -0.19806E-02   -0.75673E-04  4280   0.199E-02    0.172E-02
RMM:  27    -0.231783910173E+04   -0.52917E-03   -0.18203E-04  3990   0.130E-02    0.750E-03
RMM:  28    -0.231783937205E+04   -0.27032E-03   -0.79265E-05  3674   0.729E-03    0.446E-03
RMM:  29    -0.231783948600E+04   -0.11395E-03   -0.30478E-05  3341   0.593E-03    0.297E-03
RMM:  30    -0.231783953170E+04   -0.45702E-04   -0.14643E-05  3040   0.385E-03    0.183E-03
RMM:  31    -0.231783954965E+04   -0.17952E-04   -0.70991E-06  2889   0.305E-03    0.963E-04
RMM:  32    -0.231783955237E+04   -0.27109E-05   -0.32514E-06  2487   0.221E-03
   1 F= -.23386917E+04 E0= -.23386917E+04  d E =-.801071E-15  mag=     5.0000
       N       E                     dE             d eps       ncg     rms          rms(c)
DAV:   1    -0.231777595815E+04    0.63592E-01   -0.20750E+00  4680   0.696E-01    0.434E-01
RMM:   2    -0.231777758407E+04   -0.16259E-02   -0.43211E-02  5529   0.107E-01    0.297E-01
RMM:   3    -0.231777726417E+04    0.31990E-03   -0.61876E-03  5153   0.435E-02    0.296E-01
RMM:   4    -0.231777611706E+04    0.11471E-02   -0.22649E-03  5364   0.230E-02    0.142E-01
RMM:   5    -0.231777600316E+04    0.11390E-03   -0.60020E-04  3849   0.127E-02    0.117E-01
RMM:   6    -0.231777589135E+04    0.11181E-03   -0.13995E-04  3110   0.696E-03    0.305E-02
RMM:   7    -0.231777588294E+04    0.84153E-05   -0.49823E-05  3110   0.378E-03
   2 F= -.23386280E+04 E0= -.23386280E+04  d E =-.139852E-18  mag=     5.0000
       N       E                     dE             d eps       ncg     rms          rms(c)
DAV:   1    -0.231783666147E+04   -0.60770E-01   -0.80920E+00  4580   0.136E+00    0.814E-01
RMM:   2    -0.231784783260E+04   -0.11171E-01   -0.20672E-01  5726   0.221E-01    0.606E-01
RMM:   3    -0.231784499945E+04    0.28331E-02   -0.21103E-02  5386   0.835E-02    0.492E-01
RMM:   4    -0.231784289047E+04    0.21090E-02   -0.95967E-03  5870   0.449E-02    0.383E-01
RMM:   5    -0.231784154000E+04    0.13505E-02   -0.33151E-03  5131   0.292E-02    0.235E-01
RMM:   6    -0.231784111494E+04    0.42506E-03   -0.69549E-04  3806   0.131E-02    0.789E-02
RMM:   7    -0.231784107799E+04    0.36948E-04   -0.26008E-04  3574   0.748E-03    0.351E-02
RMM:   8    -0.231784107673E+04    0.12631E-05   -0.36250E-05  3071   0.490E-03
   3 F= -.23386933E+04 E0= -.23386933E+04  d E =-.128284E-20  mag=     5.0000
       N       E                     dE             d eps       ncg     rms          rms(c)
DAV:   1    -0.231780907656E+04    0.32001E-01   -0.36701E+00  4520   0.960E-01    0.490E-01
RMM:   2    -0.231781161579E+04   -0.25392E-02   -0.46668E-02  5098   0.112E-01    0.314E-01
RMM:   3    -0.231781129467E+04    0.32111E-03   -0.51241E-03  4748   0.463E-02    0.318E-01
RMM:   4    -0.231781109359E+04    0.20108E-03   -0.28750E-03  4895   0.237E-02    0.263E-01
RMM:   5    -0.231781050375E+04    0.58984E-03   -0.40667E-04  3762   0.127E-02    0.342E-02
RMM:   6    -0.231781051580E+04   -0.12057E-04   -0.13508E-04  3291   0.635E-03    0.448E-02
RMM:   7    -0.231781049013E+04    0.25670E-04   -0.37322E-05  2940   0.415E-03    0.148E-02
RMM:   8    -0.231781048932E+04    0.81495E-06   -0.14102E-05  2885   0.256E-03
   4 F= -.23386633E+04 E0= -.23386633E+04  d E =-.122486E-18  mag=     5.0000
       N       E                     dE             d eps       ncg     rms          rms(c)
DAV:   1    -0.231785507357E+04   -0.44583E-01   -0.71327E+00  4480   0.132E+00    0.604E-01
RMM:   2    -0.231785846219E+04   -0.33886E-02   -0.53801E-02  4680   0.119E-01    0.409E-01
RMM:   3    -0.231786100002E+04   -0.25378E-02   -0.10839E-02  5199   0.601E-02    0.643E-01
RMM:   4    -0.231785755291E+04    0.34471E-02   -0.36991E-03  5127   0.280E-02    0.185E-01
RMM:   5    -0.231785747155E+04    0.81365E-04   -0.13243E-03  4247   0.176E-02    0.149E-01
RMM:   6    -0.231785725283E+04    0.21872E-03   -0.28092E-04  3377   0.862E-03    0.324E-02
RMM:   7    -0.231785724669E+04    0.61391E-05   -0.48149E-05  2998   0.406E-03
   5 F= -.23387089E+04 E0= -.23387089E+04  d E =-.228755E-15  mag=     5.0000
       N       E                     dE             d eps       ncg     rms          rms(c)
DAV:   1    -0.231782124166E+04    0.36011E-01   -0.37786E+00  4520   0.922E-01    0.428E-01
RMM:   2    -0.231782340908E+04   -0.21674E-02   -0.45785E-02  4791   0.107E-01    0.315E-01
RMM:   3    -0.231782296267E+04    0.44641E-03   -0.49630E-03  4602   0.489E-02    0.272E-01
RMM:   4    -0.231782269956E+04    0.26311E-03   -0.24629E-03  4968   0.219E-02    0.242E-01
RMM:   5    -0.231782236930E+04    0.33026E-03   -0.87658E-04  4253   0.146E-02    0.131E-01
RMM:   6    -0.231782219408E+04    0.17523E-03   -0.27953E-04  3442   0.870E-03    0.423E-02
RMM:   7    -0.231782218018E+04    0.13895E-04   -0.49943E-05  3134   0.448E-03    0.195E-02
RMM:   8    -0.231782217908E+04    0.11042E-05   -0.11696E-05  2900   0.305E-03
   6 F= -.23386733E+04 E0= -.23386733E+04  d E =-.190455E-15  mag=     5.0000
       N       E                     dE             d eps       ncg     rms          rms(c)
DAV:   1    -0.231783272548E+04   -0.10545E-01   -0.75957E+00  4500   0.128E+00    0.575E-01
RMM:   2    -0.231783728865E+04   -0.45632E-02   -0.93158E-02  5109   0.146E-01    0.443E-01
RMM:   3    -0.231783525879E+04    0.20299E-02   -0.75519E-03  4609   0.627E-02    0.249E-01
RMM:   4    -0.231783576040E+04   -0.50161E-03   -0.53485E-03  5256   0.325E-02    0.312E-01
RMM:   5    -0.231783451168E+04    0.12487E-02   -0.15379E-03  4656   0.218E-02    0.862E-02
RMM:   6    -0.231783450241E+04    0.92692E-05   -0.34624E-04  3552   0.785E-03    0.861E-02
RMM:   7    -0.231783443396E+04    0.68450E-04   -0.11120E-04  3195   0.592E-03    0.324E-02
RMM:   8    -0.231783442533E+04    0.86240E-05   -0.21297E-05  2963   0.334E-03
   7 F= -.23386878E+04 E0= -.23386878E+04  d E =-.772963E-14  mag=     5.0000
       N       E                     dE             d eps       ncg     rms          rms(c)
DAV:   1    -0.231781382386E+04    0.20610E-01   -0.66374E+00  4520   0.126E+00    0.531E-01
RMM:   2    -0.231782156386E+04   -0.77400E-02   -0.11371E-01  4799   0.164E-01    0.331E-01
RMM:   3    -0.231782087329E+04    0.69058E-03   -0.12075E-02  4687   0.883E-02    0.322E-01
RMM:   4    -0.231781991806E+04    0.95522E-03   -0.39990E-03  5209   0.293E-02    0.193E-01
RMM:   5    -0.231781970683E+04    0.21124E-03   -0.87367E-04  4511   0.161E-02    0.154E-01
RMM:   6    -0.231781954116E+04    0.16567E-03   -0.43360E-04  3670   0.104E-02    0.792E-02
RMM:   7    -0.231781949324E+04    0.47916E-04   -0.77043E-05  3097   0.570E-03    0.215E-02
RMM:   8    -0.231781949306E+04    0.18308E-06   -0.28781E-05  3074   0.377E-03
   8 F= -.23386728E+04 E0= -.23386728E+04  d E =-.205208E-15  mag=     5.0000
       N       E                     dE             d eps       ncg     rms          rms(c)
DAV:   1    -0.231779803671E+04    0.21457E-01   -0.20232E+01  4520   0.223E+00    0.939E-01
RMM:   2    -0.231781112902E+04   -0.13092E-01   -0.27025E-01  4546   0.258E-01    0.534E-01
RMM:   3    -0.231780989266E+04    0.12364E-02   -0.32086E-02  4832   0.137E-01    0.669E-01
RMM:   4    -0.231780608995E+04    0.38027E-02   -0.11105E-02  5430   0.488E-02    0.318E-01
RMM:   5    -0.231780565773E+04    0.43222E-03   -0.26026E-03  4928   0.293E-02    0.236E-01
RMM:   6    -0.231780515245E+04    0.50529E-03   -0.11535E-03  4684   0.160E-02    0.906E-02
RMM:   7    -0.231780505092E+04    0.10153E-03   -0.14475E-04  3434   0.723E-03    0.306E-02
RMM:   8    -0.231780503941E+04    0.11507E-04   -0.62846E-05  3181   0.549E-03    0.132E-02
RMM:   9    -0.231780503613E+04    0.32838E-05   -0.12936E-05  2963   0.406E-03
   9 F= -.23386561E+04 E0= -.23386561E+04  d E =-.460293E-12  mag=     5.0000
       N       E                     dE             d eps       ncg     rms          rms(c)
DAV:   1    -0.231784013093E+04   -0.35092E-01   -0.98794E+00  4520   0.155E+00    0.508E-01
RMM:   2    -0.231784912604E+04   -0.89951E-02   -0.12647E-01  4322   0.165E-01    0.286E-01
RMM:   3    -0.231784812244E+04    0.10036E-02   -0.10621E-02  4113   0.864E-02    0.262E-01
RMM:   4    -0.231784813391E+04   -0.11468E-04   -0.35820E-03  4589   0.264E-02    0.262E-01
RMM:   5    -0.231784759611E+04    0.53780E-03   -0.81278E-04  4230   0.177E-02    0.534E-02
RMM:   6    -0.231784759177E+04    0.43383E-05   -0.15361E-04  3246   0.712E-03    0.420E-02
RMM:   7    -0.231784757464E+04    0.17131E-04   -0.48259E-05  3032   0.466E-03    0.219E-02
RMM:   8    -0.231784757262E+04    0.20193E-05   -0.18900E-05  2999   0.316E-03
  10 F= -.23386999E+04 E0= -.23386999E+04  d E =-.853714E-13  mag=     5.0000
       N       E                     dE             d eps       ncg     rms          rms(c)
DAV:   1    -0.231781692402E+04    0.30651E-01   -0.19672E+01  4520   0.217E+00    0.576E-01
RMM:   2    -0.231782938033E+04   -0.12456E-01   -0.16583E-01  4311   0.206E-01    0.335E-01
RMM:   3    -0.231782925604E+04    0.12429E-03   -0.16068E-02  4309   0.106E-01    0.343E-01
RMM:   4    -0.231782793236E+04    0.13237E-02   -0.45823E-03  5040   0.320E-02    0.133E-01
RMM:   5    -0.231782780883E+04    0.12353E-03   -0.68008E-04  3995   0.157E-02    0.784E-02
RMM:   6    -0.231782779637E+04    0.12464E-04   -0.18124E-04  3196   0.707E-03    0.642E-02
RMM:   7    -0.231782777082E+04    0.25548E-04   -0.34447E-05  2912   0.423E-03    0.150E-02
RMM:   8    -0.231782777396E+04   -0.31408E-05   -0.11326E-05  2853   0.247E-03
  11 F= -.23386798E+04 E0= -.23386798E+04  d E =-.130721E-13  mag=     5.0000
       N       E                     dE             d eps       ncg     rms          rms(c)
DAV:   1    -0.231782795164E+04   -0.18082E-03   -0.10227E+01  4480   0.149E+00    0.352E-01
RMM:   2    -0.231783411739E+04   -0.61658E-02   -0.75369E-02  4308   0.141E-01    0.231E-01
RMM:   3    -0.231783412150E+04   -0.41093E-05   -0.68687E-03  4163   0.650E-02    0.274E-01
RMM:   4    -0.231783360168E+04    0.51983E-03   -0.23331E-03  4564   0.218E-02    0.143E-01
RMM:   5    -0.231783353213E+04    0.69543E-04   -0.77236E-04  3908   0.140E-02    0.112E-01
RMM:   6    -0.231783338421E+04    0.14792E-03   -0.25615E-04  3402   0.855E-03    0.349E-02
RMM:   7    -0.231783337411E+04    0.10104E-04   -0.44624E-05  2971   0.421E-03    0.136E-02
RMM:   8    -0.231783337285E+04    0.12564E-05   -0.65861E-06  2717   0.226E-03
  12 F= -.23386851E+04 E0= -.23386851E+04  d E =-.718994E-13  mag=     5.0000
       N       E                     dE             d eps       ncg     rms          rms(c)
DAV:   1    -0.231782804637E+04    0.53277E-02   -0.20305E+01  4480   0.216E+00    0.528E-01
RMM:   2    -0.231784187422E+04   -0.13828E-01   -0.17538E-01  4800   0.209E-01    0.337E-01
RMM:   3    -0.231784200607E+04   -0.13185E-03   -0.15370E-02  4527   0.869E-02    0.503E-01
RMM:   4    -0.231784014739E+04    0.18587E-02   -0.41121E-03  4800   0.289E-02    0.161E-01
RMM:   5    -0.231783991172E+04    0.23567E-03   -0.12849E-03  3988   0.156E-02    0.679E-02
RMM:   6    -0.231783992369E+04   -0.11973E-04   -0.31408E-04  3579   0.104E-02    0.686E-02
RMM:   7    -0.231783986405E+04    0.59647E-04   -0.83684E-05  3125   0.568E-03    0.191E-02
RMM:   8    -0.231783986490E+04   -0.85607E-06   -0.17782E-05  2890   0.275E-03
  13 F= -.23386924E+04 E0= -.23386924E+04  d E =-.374419E-13  mag=     5.0000
       N       E                     dE             d eps       ncg     rms          rms(c)
DAV:   1    -0.231785761854E+04   -0.17754E-01   -0.10034E+01  4560   0.147E+00    0.476E-01
RMM:   2    -0.231786752138E+04   -0.99028E-02   -0.11353E-01  5106   0.156E-01    0.302E-01
RMM:   3    -0.231786728812E+04    0.23326E-03   -0.11189E-02  4730   0.670E-02    0.304E-01
RMM:   4    -0.231786628213E+04    0.10060E-02   -0.27771E-03  5035   0.236E-02    0.132E-01
RMM:   5    -0.231786618405E+04    0.98085E-04   -0.69683E-04  3710   0.124E-02    0.488E-02
RMM:   6    -0.231786622579E+04   -0.41742E-04   -0.16444E-04  3118   0.826E-03    0.844E-02
RMM:   7    -0.231786617103E+04    0.54753E-04   -0.51252E-05  2922   0.405E-03    0.152E-02
RMM:   8    -0.231786617046E+04    0.57078E-06   -0.11010E-05  2752   0.205E-03
  14 F= -.23387186E+04 E0= -.23387186E+04  d E =-.651719E-15  mag=     5.0000
       N       E                     dE             d eps       ncg     rms          rms(c)
DAV:   1    -0.231779261157E+04    0.73559E-01   -0.19682E+01  4500   0.192E+00    0.819E-01
RMM:   2    -0.231781019405E+04   -0.17582E-01   -0.25148E-01  5295   0.228E-01    0.596E-01
RMM:   3    -0.231780669548E+04    0.34986E-02   -0.25490E-02  5204   0.102E-01    0.496E-01
RMM:   4    -0.231780428298E+04    0.24125E-02   -0.57937E-03  5508   0.344E-02    0.290E-01
RMM:   5    -0.231780463666E+04   -0.35368E-03   -0.38707E-03  5033   0.262E-02    0.329E-01
RMM:   6    -0.231780368697E+04    0.94969E-03   -0.14319E-03  4660   0.191E-02    0.805E-02
RMM:   7    -0.231780360850E+04    0.78472E-04   -0.19104E-04  3476   0.647E-03    0.274E-02
RMM:   8    -0.231780360378E+04    0.47182E-05   -0.51379E-05  3127   0.413E-03
  15 F= -.23386558E+04 E0= -.23386558E+04  d E =-.902654E-11  mag=     5.0000
       N       E                     dE             d eps       ncg     rms          rms(c)
DAV:   1    -0.231784214401E+04   -0.38536E-01   -0.98751E+00  4500   0.142E+00    0.523E-01
RMM:   2    -0.231784970231E+04   -0.75583E-02   -0.10152E-01  4906   0.145E-01    0.345E-01
RMM:   3    -0.231784900362E+04    0.69869E-03   -0.10631E-02  4641   0.702E-02    0.314E-01
RMM:   4    -0.231784791754E+04    0.10861E-02   -0.27099E-03  4973   0.234E-02    0.153E-01
RMM:   5    -0.231784779706E+04    0.12048E-03   -0.90372E-04  4100   0.141E-02    0.824E-02
RMM:   6    -0.231784779744E+04   -0.37164E-06   -0.21246E-04  3152   0.854E-03    0.792E-02
RMM:   7    -0.231784774686E+04    0.50577E-04   -0.40758E-05  2907   0.400E-03    0.152E-02
RMM:   8    -0.231784774624E+04    0.62429E-06   -0.13477E-05  2763   0.212E-03
  16 F= -.23387001E+04 E0= -.23387001E+04  d E =-.143521E-13  mag=     5.0000
       N       E                     dE             d eps       ncg     rms          rms(c)
DAV:   1    -0.231781586894E+04    0.31878E-01   -0.20039E+01  4480   0.195E+00    0.529E-01
RMM:   2    -0.231783014701E+04   -0.14278E-01   -0.16064E-01  4362   0.181E-01    0.308E-01
RMM:   3    -0.231783136916E+04   -0.12222E-02   -0.15644E-02  4231   0.903E-02    0.471E-01
RMM:   4    -0.231782967729E+04    0.16919E-02   -0.42556E-03  4842   0.282E-02    0.157E-01
RMM:   5    -0.231782971079E+04   -0.33496E-04   -0.11430E-03  4208   0.170E-02    0.151E-01
RMM:   6    -0.231782945669E+04    0.25410E-03   -0.46362E-04  3835   0.104E-02    0.357E-02
RMM:   7    -0.231782944730E+04    0.93867E-05   -0.57299E-05  3004   0.491E-03
  17 F= -.23386815E+04 E0= -.23386815E+04  d E =-.679066E-12  mag=     5.0000
       N       E                     dE             d eps       ncg     rms          rms(c)
DAV:   1    -0.231783491628E+04   -0.54596E-02   -0.99994E+00  4480   0.142E+00    0.461E-01
RMM:   2    -0.231784227789E+04   -0.73616E-02   -0.97773E-02  4456   0.153E-01    0.287E-01
RMM:   3    -0.231784268275E+04   -0.40486E-03   -0.10821E-02  4310   0.759E-02    0.380E-01
RMM:   4    -0.231784147361E+04    0.12091E-02   -0.31523E-03  4952   0.263E-02    0.163E-01
RMM:   5    -0.231784132405E+04    0.14956E-03   -0.80151E-04  4272   0.157E-02    0.115E-01
RMM:   6    -0.231784117216E+04    0.15189E-03   -0.31148E-04  3583   0.902E-03    0.491E-02
RMM:   7    -0.231784114454E+04    0.27619E-04   -0.60441E-05  3050   0.544E-03    0.167E-02
RMM:   8    -0.231784114048E+04    0.40591E-05   -0.25426E-05  2982   0.375E-03
  18 F= -.23386925E+04 E0= -.23386925E+04  d E =-.144924E-10  mag=     5.0000
       N       E                     dE             d eps       ncg     rms          rms(c)
DAV:   1    -0.231779648680E+04    0.44658E-01   -0.19481E+01  4480   0.208E+00    0.785E-01
RMM:   2    -0.231781894459E+04   -0.22458E-01   -0.29914E-01  4700   0.243E-01    0.482E-01
RMM:   3    -0.231781858971E+04    0.35487E-03   -0.34294E-02  4841   0.129E-01    0.540E-01
RMM:   4    -0.231781498592E+04    0.36038E-02   -0.82066E-03  5769   0.410E-02    0.249E-01
RMM:   5    -0.231781494993E+04    0.35989E-04   -0.27033E-03  5028   0.215E-02    0.306E-01
RMM:   6    -0.231781411006E+04    0.83988E-03   -0.10600E-03  4637   0.161E-02    0.909E-02
RMM:   7    -0.231781403705E+04    0.73010E-04   -0.28884E-04  3355   0.822E-03    0.281E-02
RMM:   8    -0.231781403656E+04    0.48200E-06   -0.57682E-05  3159   0.589E-03
  19 F= -.23386676E+04 E0= -.23386676E+04  d E =-.783331E-15  mag=     5.0000
       N       E                     dE             d eps       ncg     rms          rms(c)
DAV:   1    -0.231782393083E+04   -0.98938E-02   -0.54013E+00  4500   0.105E+00    0.454E-01
RMM:   2    -0.231783130208E+04   -0.73712E-02   -0.97002E-02  4899   0.136E-01    0.370E-01
RMM:   3    -0.231783038546E+04    0.91662E-03   -0.11131E-02  4773   0.733E-02    0.290E-01
RMM:   4    -0.231782928264E+04    0.11028E-02   -0.25889E-03  4837   0.238E-02    0.131E-01
RMM:   5    -0.231782919963E+04    0.83009E-04   -0.78524E-04  4318   0.144E-02    0.166E-01
RMM:   6    -0.231782899833E+04    0.20130E-03   -0.36567E-04  3508   0.944E-03    0.700E-02
RMM:   7    -0.231782894707E+04    0.51265E-04   -0.10326E-04  3137   0.661E-03    0.156E-02
RMM:   8    -0.231782894363E+04    0.34365E-05   -0.31155E-05  2994   0.441E-03
  20 F= -.23386801E+04 E0= -.23386801E+04  d E =-.695519E-11  mag=     5.0000
       N       E                     dE             d eps       ncg     rms          rms(c)
DAV:   1    -0.231784737631E+04   -0.18429E-01   -0.96650E-01  4500   0.368E-01    0.344E-01
RMM:   2    -0.231784873077E+04   -0.13545E-02   -0.18468E-02  5523   0.615E-02    0.374E-01
RMM:   3    -0.231784701908E+04    0.17117E-02   -0.34031E-03  5420   0.288E-02    0.179E-01
RMM:   4    -0.231784671565E+04    0.30344E-03   -0.85407E-04  4086   0.132E-02    0.813E-02
RMM:   5    -0.231784671560E+04    0.45839E-07   -0.23530E-04  3254   0.821E-03    0.870E-02
RMM:   6    -0.231784666245E+04    0.53152E-04   -0.93537E-05  2999   0.530E-03    0.317E-02
RMM:   7    -0.231784665958E+04    0.28732E-05   -0.20907E-05  2911   0.293E-03
  21 F= -.23387000E+04 E0= -.23387000E+04  d E =-.410180E-14  mag=     5.0000
       N       E                     dE             d eps       ncg     rms          rms(c)
DAV:   1    -0.231782852451E+04    0.18138E-01   -0.49099E-01  4560   0.266E-01    0.215E-01
RMM:   2    -0.231782977044E+04   -0.12459E-02   -0.87024E-03  5542   0.451E-02    0.313E-01
RMM:   3    -0.231782850101E+04    0.12694E-02   -0.15549E-03  4736   0.188E-02    0.949E-02
RMM:   4    -0.231782847391E+04    0.27095E-04   -0.36806E-04  3384   0.836E-03    0.693E-02
RMM:   5    -0.231782850948E+04   -0.35572E-04   -0.18159E-04  3040   0.718E-03    0.949E-02
RMM:   6    -0.231782843855E+04    0.70930E-04   -0.57207E-05  2979   0.440E-03    0.123E-02
RMM:   7    -0.231782843978E+04   -0.12208E-05   -0.13111E-05  2759   0.228E-03
  22 F= -.23386803E+04 E0= -.23386803E+04  d E =-.705501E-12  mag=     5.0000
       N       E                     dE             d eps       ncg     rms          rms(c)
DAV:   1    -0.231784581684E+04   -0.17378E-01   -0.98578E-01  4480   0.369E-01    0.233E-01
RMM:   2    -0.231784724646E+04   -0.14296E-02   -0.85746E-03  4940   0.489E-02    0.288E-01
RMM:   3    -0.231784634430E+04    0.90216E-03   -0.16169E-03  4578   0.193E-02    0.114E-01
RMM:   4    -0.231784635046E+04   -0.61576E-05   -0.37592E-04  3460   0.854E-03    0.962E-02
RMM:   5    -0.231784636709E+04   -0.16628E-04   -0.24517E-04  3094   0.738E-03    0.923E-02
RMM:   6    -0.231784630671E+04    0.60378E-04   -0.51578E-05  2924   0.458E-03    0.127E-02
RMM:   7    -0.231784630709E+04   -0.37733E-06   -0.91420E-06  2742   0.229E-03
  23 F= -.23386988E+04 E0= -.23386988E+04  d E =-.954526E-13  mag=     5.0000
       N       E                     dE             d eps       ncg     rms          rms(c)
DAV:   1    -0.231783970059E+04    0.66061E-02   -0.51122E-01  4560   0.265E-01    0.282E-01
RMM:   2    -0.231783910241E+04    0.59818E-03   -0.11233E-02  5125   0.440E-02    0.184E-01
RMM:   3    -0.231783867021E+04    0.43219E-03   -0.12059E-03  4003   0.217E-02    0.907E-02
RMM:   4    -0.231783881073E+04   -0.14052E-03   -0.72244E-04  4024   0.117E-02    0.140E-01
RMM:   5    -0.231783864278E+04    0.16795E-03   -0.23241E-04  3251   0.819E-03    0.480E-02
RMM:   6    -0.231783863235E+04    0.10435E-04   -0.58064E-05  2972   0.427E-03    0.283E-02
RMM:   7    -0.231783862781E+04    0.45384E-05   -0.30374E-05  2937   0.351E-03
  24 F= -.23386917E+04 E0= -.23386917E+04  d E =-.931327E-16  mag=     5.0000
       N       E                     dE             d eps       ncg     rms          rms(c)
DAV:   1    -0.231784632779E+04   -0.76954E-02   -0.99536E-01  4480   0.381E-01    0.489E-01
RMM:   2    -0.231784424624E+04    0.20816E-02   -0.34232E-02  5538   0.739E-02    0.362E-01
RMM:   3    -0.231784266881E+04    0.15774E-02   -0.47972E-03  4908   0.396E-02    0.228E-01
RMM:   4    -0.231784236646E+04    0.30234E-03   -0.21789E-03  5089   0.202E-02    0.164E-01
RMM:   5    -0.231784215644E+04    0.21002E-03   -0.58045E-04  4125   0.119E-02    0.107E-01
RMM:   6    -0.231784206757E+04    0.88867E-04   -0.14923E-04  3104   0.713E-03    0.479E-02
RMM:   7    -0.231784204866E+04    0.18911E-04   -0.73629E-05  3183   0.450E-03    0.203E-02
RMM:   8    -0.231784204448E+04    0.41817E-05   -0.15077E-05  2958   0.372E-03
  25 F= -.23386935E+04 E0= -.23386935E+04  d E =-.786751E-26  mag=     5.0000
