       N       E                     dE             d eps       ncg     rms          rms(c)
DAV:   1     0.123759976236E+05    0.12376E+05   -0.83737E+05  4640   0.141E+03
DAV:   2    -0.124817215046E+04   -0.13624E+05   -0.13090E+05  4960   0.321E+02
DAV:   3    -0.248389276488E+04   -0.12357E+04   -0.12251E+04  5440   0.104E+02
DAV:   4    -0.251169737303E+04   -0.27805E+02   -0.27625E+02  5600   0.194E+01
DAV:   5    -0.251259827520E+04   -0.90090E+00   -0.89926E+00  5840   0.291E+00    0.170E+02
RMM:   6    -0.148618921352E+04    0.10264E+04   -0.18883E+03  4510   0.374E+01    0.719E+01
RMM:   7    -0.165714471139E+04   -0.17096E+03   -0.27703E+02  5078   0.137E+01    0.548E+01
RMM:   8    -0.170428489764E+04   -0.47140E+02   -0.93916E+01  5313   0.834E+00    0.454E+01
RMM:   9    -0.176536618437E+04   -0.61081E+02   -0.59236E+01  5024   0.719E+00    0.339E+01
RMM:  10    -0.187574814428E+04   -0.11038E+03   -0.56545E+01  5367   0.660E+00    0.343E+01
RMM:  11    -0.195505596313E+04   -0.79308E+02   -0.36297E+01  5232   0.521E+00    0.218E+01
RMM:  12    -0.202474709824E+04   -0.69691E+02   -0.24603E+01  5038   0.391E+00    0.158E+01
RMM:  13    -0.212557327912E+04   -0.10083E+03   -0.51745E+01  4556   0.530E+00    0.126E+01
RMM:  14    -0.222808542027E+04   -0.10251E+03   -0.81217E+01  4543   0.637E+00    0.916E+00
RMM:  15    -0.227259977691E+04   -0.44514E+02   -0.34592E+01  4591   0.464E+00    0.601E+00
RMM:  16    -0.229646348602E+04   -0.23864E+02   -0.22742E+01  4621   0.329E+00    0.391E+00
RMM:  17    -0.230355331852E+04   -0.70898E+01   -0.67073E+00  4680   0.217E+00    0.207E+00
RMM:  18    -0.230540724177E+04   -0.18539E+01   -0.14861E+00  5377   0.822E-01    0.174E+00
RMM:  19    -0.230616090917E+04   -0.75367E+00   -0.32818E-01  4902   0.395E-01    0.629E-01
RMM:  20    -0.230631436534E+04   -0.15346E+00   -0.68642E-02  4930   0.232E-01    0.356E-01
RMM:  21    -0.230637791607E+04   -0.63551E-01   -0.26289E-02  4645   0.121E-01    0.271E-01
RMM:  22    -0.230640611368E+04   -0.28198E-01   -0.13427E-02  4609   0.954E-02    0.133E-01
RMM:  23    -0.230642069026E+04   -0.14577E-01   -0.57585E-03  4646   0.618E-02    0.161E-01
RMM:  24    -0.230642968544E+04   -0.89952E-02   -0.28822E-03  4578   0.440E-02    0.626E-02
RMM:  25    -0.230643767739E+04   -0.79920E-02   -0.26055E-03  4531   0.381E-02    0.634E-02
RMM:  26    -0.230644079826E+04   -0.31209E-02   -0.11166E-03  4487   0.279E-02    0.237E-02
RMM:  27    -0.230644239565E+04   -0.15974E-02   -0.54185E-04  4134   0.165E-02    0.144E-02
RMM:  28    -0.230644285947E+04   -0.46382E-03   -0.13755E-04  3861   0.122E-02    0.667E-03
RMM:  29    -0.230644312667E+04   -0.26719E-03   -0.75499E-05  3663   0.654E-03    0.406E-03
RMM:  30    -0.230644322452E+04   -0.97849E-04   -0.21325E-05  3156   0.521E-03    0.231E-03
RMM:  31    -0.230644327775E+04   -0.53235E-04   -0.14430E-05  3040   0.337E-03    0.140E-03
RMM:  32    -0.230644329178E+04   -0.14025E-04   -0.58664E-06  2885   0.303E-03    0.915E-04
RMM:  33    -0.230644329466E+04   -0.28816E-05   -0.30644E-06  2454   0.194E-03
   1 F= -.23271786E+04 E0= -.23271786E+04  d E =-.126008E-20  mag=     6.0000
       N       E                     dE             d eps       ncg     rms          rms(c)
DAV:   1    -0.230644448943E+04   -0.11977E-02   -0.50812E+00  4480   0.616E-01    0.328E-01
RMM:   2    -0.230644624998E+04   -0.17605E-02   -0.37687E-02  4260   0.477E-02    0.246E-01
RMM:   3    -0.230644587940E+04    0.37057E-03   -0.31011E-03  4304   0.227E-02    0.265E-01
RMM:   4    -0.230644515854E+04    0.72086E-03   -0.11114E-03  3706   0.117E-02    0.834E-02
RMM:   5    -0.230644502820E+04    0.13033E-03   -0.41683E-04  3536   0.761E-03    0.279E-02
RMM:   6    -0.230644502828E+04   -0.73473E-07   -0.45065E-05  2942   0.520E-03
   2 F= -.23271808E+04 E0= -.23271808E+04  d E =-.113882E-10  mag=     6.0000
       N       E                     dE             d eps       ncg     rms          rms(c)
DAV:   1    -0.230643385174E+04    0.11176E-01   -0.20305E+01  4480   0.129E+00    0.615E-01
RMM:   2    -0.230644292541E+04   -0.90737E-02   -0.16164E-01  4485   0.823E-02    0.473E-01
RMM:   3    -0.230644081542E+04    0.21100E-02   -0.10673E-02  5154   0.378E-02    0.511E-01
RMM:   4    -0.230643809523E+04    0.27202E-02   -0.37935E-03  4806   0.211E-02    0.164E-01
RMM:   5    -0.230643766674E+04    0.42848E-03   -0.16437E-03  4277   0.135E-02    0.547E-02
RMM:   6    -0.230643766044E+04    0.63036E-05   -0.16937E-04  3077   0.948E-03    0.616E-02
RMM:   7    -0.230643763160E+04    0.28845E-04   -0.59591E-05  2999   0.431E-03    0.289E-02
RMM:   8    -0.230643762193E+04    0.96647E-05   -0.23520E-05  2993   0.343E-03
   3 F= -.23271725E+04 E0= -.23271725E+04  d E =-.141270E-19  mag=     6.0000
       N       E                     dE             d eps       ncg     rms          rms(c)
DAV:   1    -0.230643098537E+04    0.66462E-02   -0.10217E+01  4640   0.808E-01    0.615E-01
RMM:   2    -0.230643670076E+04   -0.57154E-02   -0.12528E-01  4193   0.646E-02    0.381E-01
RMM:   3    -0.230643544109E+04    0.12597E-02   -0.70840E-03  5078   0.285E-02    0.437E-01
RMM:   4    -0.230643364590E+04    0.17952E-02   -0.22351E-03  4262   0.164E-02    0.155E-01
RMM:   5    -0.230643347261E+04    0.17329E-03   -0.13987E-03  3636   0.109E-02    0.733E-02
RMM:   6    -0.230643345823E+04    0.14382E-04   -0.21276E-04  3022   0.792E-03    0.727E-02
RMM:   7    -0.230643341334E+04    0.44892E-04   -0.47786E-05  2851   0.386E-03    0.191E-02
RMM:   8    -0.230643341110E+04    0.22375E-05   -0.12478E-05  2756   0.206E-03
   4 F= -.23271686E+04 E0= -.23271686E+04  d E =-.564282E-20  mag=     6.0000
       N       E                     dE             d eps       ncg     rms          rms(c)
DAV:   1    -0.230643713322E+04   -0.37199E-02   -0.20443E+01  4640   0.112E+00    0.851E-01
RMM:   2    -0.230644299617E+04   -0.58629E-02   -0.16768E-01  4027   0.831E-02    0.404E-01
RMM:   3    -0.230643999913E+04    0.29970E-02   -0.80448E-03  5163   0.327E-02    0.404E-01
RMM:   4    -0.230643912774E+04    0.87139E-03   -0.34849E-03  4664   0.198E-02    0.287E-01
RMM:   5    -0.230643846574E+04    0.66200E-03   -0.15921E-03  3773   0.142E-02    0.709E-02
RMM:   6    -0.230643848696E+04   -0.21216E-04   -0.31915E-04  3078   0.991E-03    0.850E-02
RMM:   7    -0.230643842475E+04    0.62208E-04   -0.87132E-05  2913   0.453E-03    0.215E-02
RMM:   8    -0.230643842146E+04    0.32950E-05   -0.16116E-05  2874   0.265E-03
   5 F= -.23271739E+04 E0= -.23271739E+04  d E =-.441681E-20  mag=     6.0000
       N       E                     dE             d eps       ncg     rms          rms(c)
DAV:   1    -0.230640816844E+04    0.30256E-01   -0.10294E+01  4480   0.861E-01    0.393E-01
RMM:   2    -0.230641524151E+04   -0.70731E-02   -0.88964E-02  3851   0.518E-02    0.241E-01
RMM:   3    -0.230641487445E+04    0.36706E-03   -0.45589E-03  4837   0.214E-02    0.341E-01
RMM:   4    -0.230641384094E+04    0.10335E-02   -0.15587E-03  3841   0.138E-02    0.958E-02
RMM:   5    -0.230641377478E+04    0.66163E-04   -0.48565E-04  3333   0.896E-03    0.434E-02
RMM:   6    -0.230641377480E+04   -0.18961E-07   -0.91033E-05  2938   0.592E-03
   6 F= -.23271496E+04 E0= -.23271496E+04  d E =-.122679E-18  mag=     6.0000
       N       E                     dE             d eps       ncg     rms          rms(c)
DAV:   1    -0.230644532660E+04   -0.31552E-01   -0.20241E+01  4480   0.129E+00    0.939E-01
RMM:   2    -0.230644983095E+04   -0.45043E-02   -0.23217E-01  4479   0.945E-02    0.565E-01
RMM:   3    -0.230644587051E+04    0.39604E-02   -0.15870E-02  5514   0.437E-02    0.674E-01
RMM:   4    -0.230644231537E+04    0.35551E-02   -0.53761E-03  4849   0.249E-02    0.241E-01
RMM:   5    -0.230644190342E+04    0.41195E-03   -0.37255E-03  3755   0.161E-02    0.592E-02
RMM:   6    -0.230644184250E+04    0.60926E-04   -0.24792E-04  3056   0.982E-03    0.460E-02
RMM:   7    -0.230644184673E+04   -0.42345E-05   -0.68286E-05  2965   0.386E-03
   7 F= -.23271767E+04 E0= -.23271767E+04  d E =-.465097E-20  mag=     6.0000
       N       E                     dE             d eps       ncg     rms          rms(c)
DAV:   1    -0.230643585005E+04    0.59924E-02   -0.55500E+00  4480   0.621E-01    0.551E-01
RMM:   2    -0.230643987173E+04   -0.40217E-02   -0.95390E-02  4149   0.538E-02    0.353E-01
RMM:   3    -0.230643770314E+04    0.21686E-02   -0.57502E-03  4979   0.260E-02    0.386E-01
RMM:   4    -0.230643658133E+04    0.11218E-02   -0.17872E-03  3851   0.145E-02    0.153E-01
RMM:   5    -0.230643647183E+04    0.10950E-03   -0.12789E-03  3386   0.971E-03    0.410E-02
RMM:   6    -0.230643644919E+04    0.22636E-04   -0.86588E-05  2898   0.612E-03    0.260E-02
RMM:   7    -0.230643645030E+04   -0.11087E-05   -0.24025E-05  2744   0.250E-03
   8 F= -.23271719E+04 E0= -.23271719E+04  d E =-.263673E-19  mag=     6.0000
       N       E                     dE             d eps       ncg     rms          rms(c)
DAV:   1    -0.230644566846E+04   -0.92193E-02   -0.10906E+00  4480   0.232E-01    0.330E-01
RMM:   2    -0.230644653444E+04   -0.86597E-03   -0.86842E-03  3517   0.206E-02    0.195E-01
RMM:   3    -0.230644675170E+04   -0.21726E-03   -0.69426E-04  3550   0.900E-03    0.158E-01
RMM:   4    -0.230644693558E+04   -0.18388E-03   -0.78819E-04  3155   0.980E-03    0.172E-01
RMM:   5    -0.230644672918E+04    0.20640E-03   -0.18560E-04  2960   0.645E-03    0.182E-02
RMM:   6    -0.230644673879E+04   -0.96142E-05   -0.31190E-05  2679   0.266E-03
   9 F= -.23271820E+04 E0= -.23271820E+04  d E =-.119584E-19  mag=     6.0000
       N       E                     dE             d eps       ncg     rms          rms(c)
DAV:   1    -0.230643921390E+04    0.75153E-02   -0.55004E-01  4880   0.176E-01    0.380E-01
RMM:   2    -0.230643892869E+04    0.28521E-03   -0.18074E-02  3815   0.266E-02    0.224E-01
RMM:   3    -0.230643826824E+04    0.66045E-03   -0.13746E-03  3638   0.144E-02    0.171E-01
RMM:   4    -0.230643834558E+04   -0.77337E-04   -0.79341E-04  3210   0.970E-03    0.172E-01
RMM:   5    -0.230643816281E+04    0.18277E-03   -0.22457E-04  3060   0.677E-03    0.320E-02
RMM:   6    -0.230643816924E+04   -0.64304E-05   -0.54447E-05  2730   0.363E-03
  10 F= -.23271736E+04 E0= -.23271736E+04  d E =-.243199E-19  mag=     6.0000
       N       E                     dE             d eps       ncg     rms          rms(c)
DAV:   1    -0.230643794095E+04    0.22186E-03   -0.11164E+00  4640   0.254E-01    0.561E-01
RMM:   2    -0.230643657670E+04    0.13643E-02   -0.36030E-02  4053   0.359E-02    0.330E-01
RMM:   3    -0.230643535523E+04    0.12215E-02   -0.29345E-03  4171   0.206E-02    0.269E-01
RMM:   4    -0.230643531080E+04    0.44431E-04   -0.15455E-03  3688   0.132E-02    0.233E-01
RMM:   5    -0.230643502878E+04    0.28202E-03   -0.41254E-04  3212   0.879E-03    0.469E-02
RMM:   6    -0.230643504183E+04   -0.13042E-04   -0.10889E-04  2862   0.497E-03    0.560E-02
RMM:   7    -0.230643501552E+04    0.26309E-04   -0.31500E-05  2645   0.299E-03    0.113E-02
RMM:   8    -0.230643501733E+04   -0.18095E-05   -0.69134E-06  2487   0.155E-03
  11 F= -.23271702E+04 E0= -.23271702E+04  d E =-.145096E-19  mag=     6.0000
       N       E                     dE             d eps       ncg     rms          rms(c)
DAV:   1    -0.230644544068E+04   -0.10425E-01   -0.55273E-01  4800   0.155E-01    0.238E-01
RMM:   2    -0.230644603004E+04   -0.58936E-03   -0.45240E-03  3454   0.132E-02    0.143E-01
RMM:   3    -0.230644633842E+04   -0.30838E-03   -0.57849E-04  3255   0.794E-03    0.162E-01
RMM:   4    -0.230644618280E+04    0.15562E-03   -0.37937E-04  2958   0.750E-03    0.665E-02
RMM:   5    -0.230644616479E+04    0.18015E-04   -0.50877E-05  2829   0.389E-03    0.154E-02
RMM:   6    -0.230644617092E+04   -0.61290E-05   -0.13545E-05  2539   0.230E-03
  12 F= -.23271815E+04 E0= -.23271815E+04  d E =-.155474E-19  mag=     6.0000
       N       E                     dE             d eps       ncg     rms          rms(c)
DAV:   1    -0.230642103603E+04    0.25129E-01   -0.11260E+00  4960   0.232E-01    0.704E-01
RMM:   2    -0.230641906851E+04    0.19675E-02   -0.69535E-02  4321   0.471E-02    0.422E-01
RMM:   3    -0.230641567616E+04    0.33924E-02   -0.54769E-03  4284   0.295E-02    0.320E-01
RMM:   4    -0.230641548537E+04    0.19078E-03   -0.24701E-03  4082   0.165E-02    0.270E-01
RMM:   5    -0.230641500971E+04    0.47566E-03   -0.66969E-04  3427   0.103E-02    0.638E-02
RMM:   6    -0.230641502189E+04   -0.12184E-04   -0.17625E-04  2921   0.613E-03    0.737E-02
RMM:   7    -0.230641497566E+04    0.46229E-04   -0.51303E-05  2709   0.352E-03    0.139E-02
RMM:   8    -0.230641497724E+04   -0.15815E-05   -0.12241E-05  2466   0.176E-03
  13 F= -.23271503E+04 E0= -.23271503E+04  d E =-.323456E-19  mag=     6.0000
       N       E                     dE             d eps       ncg     rms          rms(c)
DAV:   1    -0.230643422545E+04   -0.19250E-01   -0.52043E-01  4640   0.219E-01    0.335E-01
RMM:   2    -0.230643318971E+04    0.10357E-02   -0.86732E-03  4500   0.253E-02    0.176E-01
RMM:   3    -0.230643361992E+04   -0.43021E-03   -0.16103E-03  4210   0.148E-02    0.283E-01
RMM:   4    -0.230643283467E+04    0.78525E-03   -0.70733E-04  3371   0.973E-03    0.609E-02
RMM:   5    -0.230643282499E+04    0.96853E-05   -0.17516E-04  2993   0.591E-03    0.393E-02
RMM:   6    -0.230643282362E+04    0.13677E-05   -0.52987E-05  2829   0.407E-03
  14 F= -.23271678E+04 E0= -.23271678E+04  d E =-.797416E-17  mag=     6.0000
       N       E                     dE             d eps       ncg     rms          rms(c)
DAV:   1    -0.230646102785E+04   -0.28203E-01   -0.10018E+00  4480   0.309E-01    0.488E-01
RMM:   2    -0.230645752462E+04    0.35032E-02   -0.25899E-02  5297   0.448E-02    0.362E-01
RMM:   3    -0.230645716745E+04    0.35717E-03   -0.57795E-03  4682   0.282E-02    0.383E-01
RMM:   4    -0.230645578167E+04    0.13858E-02   -0.19446E-03  4326   0.158E-02    0.104E-01
RMM:   5    -0.230645563129E+04    0.15038E-03   -0.35694E-04  3345   0.778E-03    0.425E-02
RMM:   6    -0.230645563126E+04    0.32887E-07   -0.79118E-05  2958   0.552E-03
  15 F= -.23271913E+04 E0= -.23271913E+04  d E =-.940972E-22  mag=     6.0000
       N       E                     dE             d eps       ncg     rms          rms(c)
DAV:   1    -0.230643971557E+04    0.15916E-01   -0.50049E-01  4320   0.220E-01    0.251E-01
RMM:   2    -0.230643917300E+04    0.54258E-03   -0.78758E-03  4235   0.247E-02    0.159E-01
RMM:   3    -0.230643896532E+04    0.20767E-03   -0.11562E-03  3393   0.141E-02    0.159E-01
RMM:   4    -0.230643876525E+04    0.20007E-03   -0.41853E-04  3088   0.808E-03    0.668E-02
RMM:   5    -0.230643872743E+04    0.37824E-04   -0.87366E-05  3010   0.452E-03    0.220E-02
RMM:   6    -0.230643873437E+04   -0.69396E-05   -0.31380E-05  2736   0.324E-03
  16 F= -.23271740E+04 E0= -.23271740E+04  d E =-.114995E-19  mag=     6.0000
       N       E                     dE             d eps       ncg     rms          rms(c)
DAV:   1    -0.230644639745E+04   -0.76700E-02   -0.97244E-01  4480   0.298E-01    0.166E-01
RMM:   2    -0.230644659064E+04   -0.19319E-03   -0.24547E-03  3486   0.157E-02    0.941E-02
RMM:   3    -0.230644664041E+04   -0.49770E-04   -0.37305E-04  3151   0.783E-03    0.112E-01
RMM:   4    -0.230644655875E+04    0.81667E-04   -0.24156E-04  2901   0.599E-03    0.541E-02
RMM:   5    -0.230644654853E+04    0.10218E-04   -0.42416E-05  2752   0.338E-03    0.128E-02
RMM:   6    -0.230644654971E+04   -0.11809E-05   -0.73099E-06  2516   0.202E-03
  17 F= -.23271820E+04 E0= -.23271820E+04  d E =-.601798E-19  mag=     6.0000
       N       E                     dE             d eps       ncg     rms          rms(c)
DAV:   1    -0.230643938078E+04    0.71678E-02   -0.49545E-01  4320   0.206E-01    0.160E-01
RMM:   2    -0.230643937163E+04    0.91491E-05   -0.26320E-03  3633   0.146E-02    0.113E-01
RMM:   3    -0.230643935695E+04    0.14676E-04   -0.46451E-04  3004   0.966E-03    0.122E-01
RMM:   4    -0.230643925468E+04    0.10227E-03   -0.23155E-04  2920   0.605E-03    0.559E-02
RMM:   5    -0.230643923817E+04    0.16519E-04   -0.57226E-05  2926   0.381E-03    0.163E-02
RMM:   6    -0.230643924158E+04   -0.34109E-05   -0.15698E-05  2628   0.242E-03
  18 F= -.23271748E+04 E0= -.23271748E+04  d E =-.593355E-19  mag=     6.0000
       N       E                     dE             d eps       ncg     rms          rms(c)
DAV:   1    -0.230644308674E+04   -0.38486E-02   -0.98977E-01  4480   0.296E-01    0.237E-01
RMM:   2    -0.230644310078E+04   -0.14041E-04   -0.66731E-03  4092   0.232E-02    0.198E-01
RMM:   3    -0.230644293088E+04    0.16991E-03   -0.11823E-03  3643   0.140E-02    0.186E-01
RMM:   4    -0.230644265109E+04    0.27979E-03   -0.50208E-04  3119   0.845E-03    0.745E-02
RMM:   5    -0.230644261113E+04    0.39952E-04   -0.15856E-04  3092   0.568E-03    0.290E-02
RMM:   6    -0.230644261450E+04   -0.33632E-05   -0.37317E-05  2798   0.357E-03
  19 F= -.23271778E+04 E0= -.23271778E+04  d E =-.125129E-19  mag=     6.0000
