       N       E                     dE             d eps       ncg     rms          rms(c)
DAV:   1     0.131492514281E+05    0.13149E+05   -0.84595E+05  4544   0.145E+03
DAV:   2    -0.101970016844E+04   -0.14169E+05   -0.13539E+05  4976   0.331E+02
DAV:   3    -0.248596821210E+04   -0.14663E+04   -0.14483E+04  5544   0.115E+02
DAV:   4    -0.253200992036E+04   -0.46042E+02   -0.45791E+02  6736   0.296E+01
DAV:   5    -0.253288231676E+04   -0.87240E+00   -0.87043E+00  6360   0.346E+00    0.170E+02
RMM:   6    -0.149595652397E+04    0.10369E+04   -0.19647E+03  4482   0.383E+01    0.723E+01
RMM:   7    -0.166829581973E+04   -0.17234E+03   -0.29652E+02  5129   0.142E+01    0.497E+01
RMM:   8    -0.172488390696E+04   -0.56588E+02   -0.63300E+01  5310   0.774E+00    0.445E+01
RMM:   9    -0.179252651200E+04   -0.67643E+02   -0.62359E+01  5073   0.747E+00    0.341E+01
RMM:  10    -0.191575640867E+04   -0.12323E+03   -0.64914E+01  5410   0.780E+00    0.271E+01
RMM:  11    -0.198327354672E+04   -0.67517E+02   -0.27305E+01  5483   0.459E+00    0.226E+01
RMM:  12    -0.205427735195E+04   -0.71004E+02   -0.24800E+01  5033   0.401E+00    0.159E+01
RMM:  13    -0.213081824790E+04   -0.76541E+02   -0.34977E+01  4882   0.433E+00    0.132E+01
RMM:  14    -0.223967593681E+04   -0.10886E+03   -0.85959E+01  4680   0.681E+00    0.125E+01
RMM:  15    -0.229618453501E+04   -0.56509E+02   -0.49341E+01  4713   0.513E+00    0.864E+00
RMM:  16    -0.231699413218E+04   -0.20810E+02   -0.20164E+01  4734   0.338E+00    0.542E+00
RMM:  17    -0.232480971810E+04   -0.78156E+01   -0.74516E+00  4916   0.193E+00    0.271E+00
RMM:  18    -0.232812742920E+04   -0.33177E+01   -0.20368E+00  4987   0.114E+00    0.325E+00
RMM:  19    -0.232849074866E+04   -0.36332E+00   -0.27423E-01  5563   0.433E-01    0.369E+00
RMM:  20    -0.232845633000E+04    0.34419E-01   -0.52724E-02  5474   0.144E-01    0.269E+00
RMM:  21    -0.232880003601E+04   -0.34371E+00   -0.13322E-01  4516   0.235E-01    0.237E+00
RMM:  22    -0.232894279316E+04   -0.14276E+00   -0.16725E-01  4544   0.255E-01    0.317E+00
RMM:  23    -0.232889743273E+04    0.45360E-01   -0.31279E-02  4986   0.130E-01    0.374E+00
RMM:  24    -0.232918309966E+04   -0.28567E+00   -0.17834E-01  4784   0.221E-01    0.229E+00
RMM:  25    -0.232927748796E+04   -0.94388E-01   -0.59641E-02  4768   0.155E-01    0.304E+00
RMM:  26    -0.232934055237E+04   -0.63064E-01   -0.53990E-02  5500   0.117E-01    0.313E+00
RMM:  27    -0.232933902033E+04    0.15320E-02   -0.34869E-03  5445   0.366E-02    0.310E+00
RMM:  28    -0.232936803094E+04   -0.29011E-01   -0.12278E-02  4726   0.493E-02    0.256E+00
RMM:  29    -0.232938782889E+04   -0.19798E-01   -0.44735E-03  4549   0.451E-02    0.252E+00
RMM:  30    -0.232943415680E+04   -0.46328E-01   -0.20481E-02  4614   0.807E-02    0.198E+00
RMM:  31    -0.232947431340E+04   -0.40157E-01   -0.18670E-02  4536   0.901E-02    0.205E+00
RMM:  32    -0.232949470054E+04   -0.20387E-01   -0.11084E-02  4684   0.736E-02    0.211E+00
RMM:  33    -0.232950097989E+04   -0.62794E-02   -0.41082E-03  5103   0.431E-02    0.214E+00
RMM:  34    -0.232950396868E+04   -0.29888E-02   -0.45931E-03  4736   0.370E-02    0.235E+00
RMM:  35    -0.232950303723E+04    0.93145E-03   -0.46992E-03  4793   0.399E-02    0.250E+00
RMM:  36    -0.232949725928E+04    0.57780E-02   -0.34536E-03  5165   0.331E-02    0.270E+00
RMM:  37    -0.232949719278E+04    0.66497E-04   -0.26863E-04  4528   0.103E-02    0.270E+00
RMM:  38    -0.232949520459E+04    0.19882E-02   -0.10303E-04  3195   0.566E-03    0.270E+00
RMM:  39    -0.232948999606E+04    0.52085E-02   -0.36794E-04  4132   0.991E-03    0.276E+00
RMM:  40    -0.232949422812E+04   -0.42321E-02   -0.17603E-04  3423   0.794E-03    0.276E+00
RMM:  41    -0.232951438638E+04   -0.20158E-01   -0.46492E-03  5188   0.337E-02    0.273E+00
RMM:  42    -0.232950827755E+04    0.61088E-02   -0.31341E-04  3672   0.168E-02    0.277E+00
RMM:  43    -0.232952570927E+04   -0.17432E-01   -0.25897E-03  4962   0.236E-02    0.266E+00
RMM:  44    -0.232955190180E+04   -0.26193E-01   -0.84821E-03  5485   0.450E-02    0.249E+00
RMM:  45    -0.232955015842E+04    0.17434E-02   -0.41861E-04  4278   0.171E-02    0.250E+00
RMM:  46    -0.232954885503E+04    0.13034E-02   -0.13614E-04  3426   0.631E-03    0.252E+00
RMM:  47    -0.232957833393E+04   -0.29479E-01   -0.10810E-02  5082   0.476E-02    0.235E+00
RMM:  48    -0.232957982594E+04   -0.14920E-02   -0.79159E-04  4108   0.232E-02    0.233E+00
RMM:  49    -0.232958129302E+04   -0.14671E-02   -0.26625E-04  3601   0.700E-03    0.234E+00
RMM:  50    -0.232958679404E+04   -0.55010E-02   -0.97399E-04  5114   0.159E-02    0.231E+00
RMM:  51    -0.232958601633E+04    0.77771E-03   -0.71080E-05  3011   0.758E-03    0.230E+00
RMM:  52    -0.232958284304E+04    0.31733E-02   -0.37483E-04  3580   0.913E-03    0.234E+00
RMM:  53    -0.232958517676E+04   -0.23337E-02   -0.45823E-04  4422   0.112E-02    0.236E+00
RMM:  54    -0.232958244719E+04    0.27296E-02   -0.45862E-04  3895   0.110E-02    0.241E+00
RMM:  55    -0.232958214633E+04    0.30086E-03   -0.42887E-05  2993   0.507E-03    0.242E+00
RMM:  56    -0.232958158992E+04    0.55641E-03   -0.14392E-03  4627   0.178E-02    0.234E+00
RMM:  57    -0.232960974630E+04   -0.28156E-01   -0.16201E-02  5084   0.571E-02    0.240E+00
RMM:  58    -0.232960747564E+04    0.22707E-02   -0.15199E-03  4504   0.272E-02    0.230E+00
RMM:  59    -0.232960855219E+04   -0.10766E-02   -0.10570E-03  4963   0.146E-02    0.230E+00
RMM:  60    -0.232960794594E+04    0.60625E-03   -0.75760E-05  3132   0.751E-03    0.228E+00
RMM:  61    -0.232960507195E+04    0.28740E-02   -0.12018E-04  3187   0.551E-03    0.224E+00
RMM:  62    -0.232960498420E+04    0.87756E-04   -0.57590E-04  4398   0.115E-02    0.225E+00
RMM:  63    -0.232959777578E+04    0.72084E-02   -0.10774E-03  5228   0.159E-02    0.213E+00
RMM:  64    -0.232957525139E+04    0.22524E-01   -0.10618E-02  5435   0.461E-02    0.181E+00
RMM:  65    -0.232956571351E+04    0.95379E-02   -0.37227E-03  5062   0.356E-02    0.173E+00
RMM:  66    -0.232956661384E+04   -0.90033E-03   -0.48972E-04  4295   0.130E-02    0.177E+00
RMM:  67    -0.232956696668E+04   -0.35285E-03   -0.48415E-05  3013   0.545E-03    0.176E+00
RMM:  68    -0.232956736061E+04   -0.39393E-03   -0.17843E-03  4813   0.205E-02    0.168E+00
RMM:  69    -0.232956538374E+04    0.19769E-02   -0.99251E-04  4913   0.173E-02    0.162E+00
RMM:  70    -0.232956523767E+04    0.14608E-03   -0.15046E-04  4062   0.744E-03    0.161E+00
RMM:  71    -0.232956654307E+04   -0.13054E-02   -0.25295E-02  4998   0.685E-02    0.182E+00
RMM:  72    -0.232956542830E+04    0.11148E-02   -0.14259E-03  4096   0.307E-02    0.177E+00
RMM:  73    -0.232956423529E+04    0.11930E-02   -0.47437E-04  4071   0.859E-03    0.174E+00
RMM:  74    -0.232956327600E+04    0.95929E-03   -0.64604E-05  3083   0.647E-03    0.173E+00
RMM:  75    -0.232956188946E+04    0.13865E-02   -0.25795E-04  3624   0.770E-03    0.167E+00
RMM:  76    -0.232955883468E+04    0.30548E-02   -0.41105E-03  4926   0.303E-02    0.173E+00
RMM:  77    -0.232955395191E+04    0.48828E-02   -0.11225E-03  4278   0.219E-02    0.167E+00
RMM:  78    -0.232955396363E+04   -0.11722E-04   -0.10569E-04  3124   0.605E-03    0.167E+00
RMM:  79    -0.232955437206E+04   -0.40843E-03   -0.11098E-05  2845   0.341E-03    0.166E+00
RMM:  80    -0.232955870422E+04   -0.43322E-02   -0.72035E-04  4338   0.125E-02    0.166E+00
RMM:  81    -0.232953821813E+04    0.20486E-01   -0.91721E-02  5031   0.140E-01    0.112E+00
RMM:  82    -0.232953723950E+04    0.97863E-03   -0.43565E-03  4560   0.674E-02    0.113E+00
RMM:  83    -0.232953665480E+04    0.58470E-03   -0.53894E-04  4826   0.115E-02    0.113E+00
RMM:  84    -0.232953645778E+04    0.19701E-03   -0.44739E-05  3038   0.579E-03    0.113E+00
RMM:  85    -0.232953827064E+04   -0.18129E-02   -0.15500E-04  3326   0.627E-03    0.111E+00
RMM:  86    -0.232955417151E+04   -0.15901E-01   -0.11004E-02  5118   0.495E-02    0.135E+00
RMM:  87    -0.232955377130E+04    0.40021E-03   -0.65683E-04  3871   0.231E-02    0.132E+00
RMM:  88    -0.232955370303E+04    0.68263E-04   -0.13833E-04  3274   0.514E-03    0.133E+00
RMM:  89    -0.232955582824E+04   -0.21252E-02   -0.13117E-04  3311   0.650E-03    0.138E+00
RMM:  90    -0.232956044250E+04   -0.46143E-02   -0.68760E-04  4381   0.127E-02    0.149E+00
RMM:  91    -0.232956934992E+04   -0.89074E-02   -0.32825E-03  4957   0.276E-02    0.169E+00
RMM:  92    -0.232957480243E+04   -0.54525E-02   -0.93600E-04  4533   0.195E-02    0.183E+00
RMM:  93    -0.232957376224E+04    0.10402E-02   -0.87109E-05  3126   0.653E-03    0.180E+00
RMM:  94    -0.232957508480E+04   -0.13226E-02   -0.40266E-05  2961   0.437E-03    0.185E+00
RMM:  95    -0.232957027814E+04    0.48067E-02   -0.35430E-04  3658   0.863E-03    0.164E+00
RMM:  96    -0.232956091599E+04    0.93621E-02   -0.21771E-03  4978   0.219E-02    0.132E+00
RMM:  97    -0.232955396023E+04    0.69558E-02   -0.22017E-03  5189   0.239E-02    0.114E+00
RMM:  98    -0.232954972043E+04    0.42398E-02   -0.10677E-03  4560   0.166E-02    0.106E+00
RMM:  99    -0.232955381826E+04   -0.40978E-02   -0.48244E-04  3957   0.120E-02    0.113E+00
RMM: 100    -0.232955434157E+04   -0.52332E-03   -0.52619E-05  2960   0.509E-03    0.113E+00
RMM: 101    -0.232954921771E+04    0.51239E-02   -0.11739E-03  4760   0.163E-02    0.107E+00
RMM: 102    -0.232953377974E+04    0.15438E-01   -0.98368E-03  5163   0.465E-02    0.122E+00
RMM: 103    -0.232953027600E+04    0.35037E-02   -0.13963E-03  4689   0.230E-02    0.133E+00
RMM: 104    -0.232952990914E+04    0.36686E-03   -0.21332E-04  3736   0.686E-03    0.134E+00
RMM: 105    -0.232953267236E+04   -0.27632E-02   -0.17135E-04  3331   0.798E-03    0.128E+00
RMM: 106    -0.232954749974E+04   -0.14827E-01   -0.70702E-03  4862   0.381E-02    0.115E+00
RMM: 107    -0.232956129665E+04   -0.13797E-01   -0.72671E-03  5045   0.423E-02    0.150E+00
RMM: 108    -0.232956307107E+04   -0.17744E-02   -0.97947E-04  4646   0.183E-02    0.152E+00
RMM: 109    -0.232956649352E+04   -0.34224E-02   -0.61536E-04  4207   0.115E-02    0.165E+00
RMM: 110    -0.232956870610E+04   -0.22126E-02   -0.17548E-04  3319   0.831E-03    0.172E+00
RMM: 111    -0.232956415728E+04    0.45488E-02   -0.39356E-04  3408   0.958E-03    0.155E+00
RMM: 112    -0.232955974223E+04    0.44151E-02   -0.62380E-04  3893   0.114E-02    0.139E+00
RMM: 113    -0.232955213445E+04    0.76078E-02   -0.18914E-03  4337   0.192E-02    0.115E+00
RMM: 114    -0.232954642708E+04    0.57074E-02   -0.16558E-03  4249   0.193E-02    0.108E+00
RMM: 115    -0.232954556750E+04    0.85958E-03   -0.22120E-04  3244   0.863E-03    0.108E+00
RMM: 116    -0.232953614208E+04    0.94254E-02   -0.35835E-03  4861   0.270E-02    0.121E+00
RMM: 117    -0.232953646735E+04   -0.32526E-03   -0.16820E-04  3199   0.105E-02    0.121E+00
RMM: 118    -0.232953739077E+04   -0.92342E-03   -0.62476E-05  3031   0.453E-03    0.121E+00
RMM: 119    -0.232953836210E+04   -0.97133E-03   -0.11765E-04  3165   0.607E-03    0.122E+00
RMM: 120    -0.232954000836E+04   -0.16463E-02   -0.26110E-04  3342   0.818E-03    0.122E+00
RMM: 121    -0.232953800012E+04    0.20082E-02   -0.16293E-04  3421   0.742E-03    0.126E+00
RMM: 122    -0.232953777208E+04    0.22804E-03   -0.19048E-05  2866   0.408E-03    0.127E+00
RMM: 123    -0.232953738689E+04    0.38518E-03   -0.29792E-05  2711   0.317E-03    0.127E+00
RMM: 124    -0.232953753273E+04   -0.14584E-03   -0.14193E-05  2815   0.271E-03    0.127E+00
RMM: 125    -0.232953802349E+04   -0.49075E-03   -0.12726E-05  2700   0.255E-03    0.126E+00
RMM: 126    -0.232954476775E+04   -0.67443E-02   -0.18836E-03  4731   0.200E-02    0.116E+00
RMM: 127    -0.232954088659E+04    0.38812E-02   -0.45961E-04  3809   0.115E-02    0.119E+00
RMM: 128    -0.232953730062E+04    0.35860E-02   -0.62760E-04  3891   0.118E-02    0.126E+00
RMM: 129    -0.232953732034E+04   -0.19719E-04   -0.25874E-05  2805   0.459E-03    0.126E+00
RMM: 130    -0.232953730910E+04    0.11234E-04   -0.49033E-06  2572   0.156E-03    0.126E+00
RMM: 131    -0.232953214330E+04    0.51658E-02   -0.13380E-03  4769   0.174E-02    0.142E+00
RMM: 132    -0.232953235364E+04   -0.21034E-03   -0.80343E-05  3082   0.760E-03    0.143E+00
RMM: 133    -0.232953241489E+04   -0.61251E-04   -0.17135E-05  2881   0.284E-03    0.142E+00
RMM: 134    -0.232953358083E+04   -0.11659E-02   -0.40763E-05  2838   0.355E-03    0.139E+00
RMM: 135    -0.232953435085E+04   -0.77002E-03   -0.26775E-05  2826   0.306E-03    0.137E+00
RMM: 136    -0.232953307260E+04    0.12782E-02   -0.44461E-05  2705   0.337E-03    0.140E+00
RMM: 137    -0.232953267271E+04    0.39990E-03   -0.11744E-05  2607   0.219E-03    0.142E+00
RMM: 138    -0.232953277211E+04   -0.99397E-04   -0.80812E-07  2189   0.124E-03    0.141E+00
RMM: 139    -0.232953356300E+04   -0.79089E-03   -0.19170E-05  2518   0.206E-03    0.139E+00
RMM: 140    -0.232953620611E+04   -0.26431E-02   -0.26518E-04  3669   0.731E-03    0.131E+00
RMM: 141    -0.232954596162E+04   -0.97555E-02   -0.37744E-03  4851   0.276E-02    0.118E+00
RMM: 142    -0.232955343773E+04   -0.74761E-02   -0.30164E-03  4767   0.266E-02    0.127E+00
RMM: 143    -0.232955568625E+04   -0.22485E-02   -0.62654E-04  4377   0.131E-02    0.132E+00
RMM: 144    -0.232955374787E+04    0.19384E-02   -0.10109E-04  3144   0.618E-03    0.126E+00
RMM: 145    -0.232954886151E+04    0.48864E-02   -0.10216E-03  4371   0.144E-02    0.118E+00
RMM: 146    -0.232954539534E+04    0.34662E-02   -0.91588E-04  4233   0.151E-02    0.117E+00
RMM: 147    -0.232954415562E+04    0.12397E-02   -0.19997E-04  3437   0.751E-03    0.118E+00
RMM: 148    -0.232954382823E+04    0.32739E-03   -0.26441E-05  2880   0.387E-03    0.118E+00
RMM: 149    -0.232954262483E+04    0.12034E-02   -0.73603E-05  3116   0.455E-03    0.119E+00
RMM: 150    -0.232954491268E+04   -0.22878E-02   -0.26109E-04  3351   0.792E-03    0.118E+00
RMM: 151    -0.232954997596E+04   -0.50633E-02   -0.12396E-03  4472   0.161E-02    0.120E+00
RMM: 152    -0.232955394752E+04   -0.39716E-02   -0.91252E-04  4211   0.143E-02    0.127E+00
RMM: 153    -0.232954533920E+04    0.86083E-02   -0.29465E-03  4757   0.243E-02    0.116E+00
RMM: 154    -0.232953949776E+04    0.58414E-02   -0.21742E-03  4734   0.226E-02    0.125E+00
RMM: 155    -0.232953654083E+04    0.29569E-02   -0.70868E-04  4258   0.128E-02    0.132E+00
RMM: 156    -0.232952946364E+04    0.70772E-02   -0.23200E-03  4929   0.225E-02    0.153E+00
RMM: 157    -0.232953187470E+04   -0.24111E-02   -0.15313E-04  3198   0.884E-03    0.146E+00
RMM: 158    -0.232953365331E+04   -0.17786E-02   -0.14136E-04  3271   0.616E-03    0.140E+00
RMM: 159    -0.232953979481E+04   -0.61415E-02   -0.14205E-03  4623   0.173E-02    0.124E+00
RMM: 160    -0.232954431817E+04   -0.45234E-02   -0.10983E-03  4265   0.161E-02    0.119E+00
RMM: 161    -0.232954228603E+04    0.20321E-02   -0.18474E-04  3219   0.760E-03    0.122E+00
RMM: 162    -0.232954655708E+04   -0.42710E-02   -0.61228E-04  4091   0.113E-02    0.121E+00
RMM: 163    -0.232954682037E+04   -0.26329E-03   -0.54873E-05  2908   0.534E-03    0.120E+00
RMM: 164    -0.232954684853E+04   -0.28158E-04   -0.10847E-05  2741   0.195E-03    0.120E+00
RMM: 165    -0.232954663937E+04    0.20916E-03   -0.37364E-06  2536   0.162E-03    0.121E+00
RMM: 166    -0.232954657323E+04    0.66145E-04   -0.17273E-06  2064   0.993E-04    0.121E+00
RMM: 167    -0.232954689116E+04   -0.31793E-03   -0.72135E-06  2435   0.155E-03    0.120E+00
RMM: 168    -0.232954668181E+04    0.20935E-03   -0.37733E-06  2539   0.155E-03    0.120E+00
RMM: 169    -0.232954668643E+04   -0.46229E-05   -0.49953E-07  2113   0.103E-03
   1 F= -.23510227E+04 E0= -.23510155E+04  d E =-.235102E+04  mag=     4.2350
       N       E                     dE             d eps       ncg     rms          rms(c)
DAV:   1    -0.232946060087E+04    0.86081E-01   -0.65166E+00  4624   0.214E+00    0.139E+00
RMM:   2    -0.232969843626E+04   -0.23784E+00   -0.19905E+00  6552   0.619E-01    0.243E+00
RMM:   3    -0.232968248410E+04    0.15952E-01   -0.25133E-01  6181   0.253E-01    0.238E+00
RMM:   4    -0.232967606535E+04    0.64187E-02   -0.24606E-02  5473   0.540E-02    0.234E+00
RMM:   5    -0.232967388680E+04    0.21786E-02   -0.96682E-03  5409   0.390E-02    0.192E+00
RMM:   6    -0.232965255884E+04    0.21328E-01   -0.18564E-02  4972   0.595E-02    0.123E+00
RMM:   7    -0.232964788028E+04    0.46786E-02   -0.37551E-03  4777   0.311E-02    0.119E+00
RMM:   8    -0.232964270837E+04    0.51719E-02   -0.25990E-03  4880   0.227E-02    0.126E+00
RMM:   9    -0.232963224062E+04    0.10468E-01   -0.42533E-03  4537   0.302E-02    0.160E+00
RMM:  10    -0.232964282988E+04   -0.10589E-01   -0.11147E-02  4820   0.484E-02    0.818E-01
RMM:  11    -0.232965029056E+04   -0.74607E-02   -0.96308E-03  4805   0.481E-02    0.724E-01
RMM:  12    -0.232965844946E+04   -0.81589E-02   -0.65852E-03  4866   0.386E-02    0.125E+00
RMM:  13    -0.232965747549E+04    0.97398E-03   -0.47569E-04  3837   0.163E-02    0.116E+00
RMM:  14    -0.232965827728E+04   -0.80180E-03   -0.17022E-04  3201   0.585E-03    0.123E+00
RMM:  15    -0.232965824815E+04    0.29132E-04   -0.10954E-05  2895   0.363E-03    0.122E+00
RMM:  16    -0.232965796187E+04    0.28628E-03   -0.23161E-04  3199   0.671E-03    0.122E+00
RMM:  17    -0.232965640148E+04    0.15604E-02   -0.22194E-03  4409   0.204E-02    0.124E+00
RMM:  18    -0.232965214850E+04    0.42530E-02   -0.18134E-03  4338   0.211E-02    0.107E+00
RMM:  19    -0.232964681768E+04    0.53308E-02   -0.30004E-03  4721   0.258E-02    0.956E-01
RMM:  20    -0.232964451927E+04    0.22984E-02   -0.11666E-03  4141   0.178E-02    0.962E-01
RMM:  21    -0.232964081795E+04    0.37013E-02   -0.14821E-03  4521   0.176E-02    0.106E+00
RMM:  22    -0.232963818652E+04    0.26314E-02   -0.62903E-04  3882   0.133E-02    0.116E+00
RMM:  23    -0.232964313897E+04   -0.49525E-02   -0.11158E-03  4073   0.146E-02    0.983E-01
RMM:  24    -0.232965010799E+04   -0.69690E-02   -0.43527E-03  4784   0.295E-02    0.904E-01
RMM:  25    -0.232965775896E+04   -0.76510E-02   -0.44028E-03  4778   0.303E-02    0.124E+00
RMM:  26    -0.232965159099E+04    0.61680E-02   -0.16186E-03  4227   0.191E-02    0.909E-01
RMM:  27    -0.232964674535E+04    0.48456E-02   -0.25619E-03  4471   0.213E-02    0.853E-01
RMM:  28    -0.232964168037E+04    0.50650E-02   -0.26117E-03  4476   0.229E-02    0.976E-01
RMM:  29    -0.232963560795E+04    0.60724E-02   -0.26177E-03  4550   0.231E-02    0.123E+00
RMM:  30    -0.232963618100E+04   -0.57304E-03   -0.10546E-04  3065   0.753E-03    0.121E+00
RMM:  31    -0.232963629397E+04   -0.11297E-03   -0.19617E-05  2838   0.260E-03    0.120E+00
RMM:  32    -0.232963638755E+04   -0.93578E-04   -0.20291E-06  2621   0.178E-03    0.119E+00
RMM:  33    -0.232963650243E+04   -0.11489E-03   -0.14233E-06  2084   0.106E-03    0.119E+00
RMM:  34    -0.232963822690E+04   -0.17245E-02   -0.19614E-04  3307   0.640E-03    0.109E+00
RMM:  35    -0.232964125128E+04   -0.30244E-02   -0.79829E-04  4304   0.127E-02    0.924E-01
RMM:  36    -0.232964695022E+04   -0.56989E-02   -0.33546E-03  4718   0.259E-02    0.709E-01
RMM:  37    -0.232965230227E+04   -0.53520E-02   -0.32403E-03  4770   0.262E-02    0.778E-01
RMM:  38    -0.232965466074E+04   -0.23585E-02   -0.77848E-04  4078   0.138E-02    0.883E-01
RMM:  39    -0.232965673932E+04   -0.20786E-02   -0.39017E-04  3721   0.921E-03    0.996E-01
RMM:  40    -0.232965769046E+04   -0.95114E-03   -0.86814E-05  3066   0.598E-03    0.105E+00
RMM:  41    -0.232965743812E+04    0.25234E-03   -0.96632E-06  2820   0.334E-03    0.103E+00
RMM:  42    -0.232965624773E+04    0.11904E-02   -0.69544E-05  2827   0.375E-03    0.975E-01
RMM:  43    -0.232965036768E+04    0.58800E-02   -0.23584E-03  4486   0.204E-02    0.735E-01
RMM:  44    -0.232964535424E+04    0.50134E-02   -0.27881E-03  4513   0.243E-02    0.746E-01
RMM:  45    -0.232964455383E+04    0.80042E-03   -0.32413E-04  3523   0.965E-03    0.765E-01
RMM:  46    -0.232964461611E+04   -0.62281E-04   -0.31998E-05  2873   0.347E-03    0.761E-01
RMM:  47    -0.232964404741E+04    0.56870E-03   -0.28763E-05  2765   0.327E-03    0.775E-01
RMM:  48    -0.232964434846E+04   -0.30105E-03   -0.60714E-06  2500   0.234E-03    0.767E-01
RMM:  49    -0.232964627034E+04   -0.19219E-02   -0.29095E-04  3161   0.698E-03    0.737E-01
RMM:  50    -0.232964979714E+04   -0.35268E-02   -0.11361E-03  3991   0.142E-02    0.759E-01
RMM:  51    -0.232965137161E+04   -0.15745E-02   -0.35634E-04  3327   0.895E-03    0.804E-01
RMM:  52    -0.232965094236E+04    0.42925E-03   -0.23518E-05  2727   0.350E-03    0.790E-01
RMM:  53    -0.232965092262E+04    0.19743E-04   -0.35908E-06  2297   0.147E-03    0.791E-01
RMM:  54    -0.232965093627E+04   -0.13643E-04   -0.62786E-07  2092   0.100E-03    0.791E-01
RMM:  55    -0.232965052295E+04    0.41332E-03   -0.13748E-05  2458   0.177E-03    0.779E-01
RMM:  56    -0.232964985435E+04    0.66860E-03   -0.45509E-05  2835   0.298E-03    0.763E-01
RMM:  57    -0.232964943122E+04    0.42313E-03   -0.26289E-05  2594   0.234E-03    0.751E-01
RMM:  58    -0.232964724162E+04    0.21896E-02   -0.44553E-04  3578   0.892E-03    0.737E-01
RMM:  59    -0.232964728490E+04   -0.43284E-04   -0.24209E-05  2743   0.413E-03    0.738E-01
RMM:  60    -0.232964762902E+04   -0.34411E-03   -0.97551E-06  2359   0.175E-03    0.735E-01
RMM:  61    -0.232964756434E+04    0.64674E-04   -0.36796E-06  2060   0.130E-03    0.733E-01
RMM:  62    -0.232964854200E+04   -0.97766E-03   -0.82546E-05  2868   0.389E-03    0.743E-01
RMM:  63    -0.232964792673E+04    0.61527E-03   -0.22534E-05  2490   0.270E-03    0.739E-01
RMM:  64    -0.232964765180E+04    0.27493E-03   -0.10682E-05  2191   0.181E-03    0.740E-01
RMM:  65    -0.232964689656E+04    0.75524E-03   -0.54252E-05  2904   0.342E-03    0.742E-01
RMM:  66    -0.232964233170E+04    0.45649E-02   -0.16649E-03  4206   0.169E-02    0.855E-01
RMM:  67    -0.232964432704E+04   -0.19953E-02   -0.22619E-04  3453   0.834E-03    0.782E-01
RMM:  68    -0.232964390038E+04    0.42666E-03   -0.10565E-05  2712   0.299E-03    0.794E-01
RMM:  69    -0.232964399775E+04   -0.97373E-04   -0.10243E-06  1720   0.885E-04    0.791E-01
RMM:  70    -0.232964416893E+04   -0.17118E-03   -0.26060E-06  1670   0.928E-04    0.787E-01
RMM:  71    -0.232964408664E+04    0.82299E-04   -0.40707E-06  2045   0.112E-03    0.791E-01
RMM:  72    -0.232964050499E+04    0.35816E-02   -0.87899E-04  4067   0.126E-02    0.933E-01
RMM:  73    -0.232964029420E+04    0.21079E-03   -0.56266E-05  2917   0.517E-03    0.941E-01
RMM:  74    -0.232964176815E+04   -0.14740E-02   -0.99279E-05  2856   0.455E-03    0.881E-01
RMM:  75    -0.232964314171E+04   -0.13736E-02   -0.16503E-04  3207   0.584E-03    0.826E-01
RMM:  76    -0.232964513405E+04   -0.19923E-02   -0.37027E-04  3483   0.831E-03    0.763E-01
RMM:  77    -0.232964501562E+04    0.11843E-03   -0.22434E-05  2739   0.390E-03    0.767E-01
RMM:  78    -0.232964536827E+04   -0.35265E-03   -0.18070E-05  2667   0.210E-03    0.759E-01
RMM:  79    -0.232964521165E+04    0.15662E-03   -0.21880E-06  2290   0.172E-03    0.763E-01
RMM:  80    -0.232964522774E+04   -0.16089E-04   -0.22297E-07  1210   0.638E-04    0.762E-01
RMM:  81    -0.232964528869E+04   -0.60946E-04   -0.29477E-07  1080   0.661E-04    0.761E-01
RMM:  82    -0.232965144224E+04   -0.61536E-02   -0.30263E-03  4510   0.228E-02    0.806E-01
RMM:  83    -0.232965160508E+04   -0.16284E-03   -0.20846E-04  3109   0.100E-02    0.798E-01
RMM:  84    -0.232965206404E+04   -0.45896E-03   -0.80804E-05  3000   0.407E-03    0.818E-01
RMM:  85    -0.232965120313E+04    0.86091E-03   -0.46691E-05  2794   0.398E-03    0.787E-01
RMM:  86    -0.232964711890E+04    0.40842E-02   -0.14999E-03  4237   0.164E-02    0.738E-01
RMM:  87    -0.232963713234E+04    0.99866E-02   -0.69909E-03  4620   0.360E-02    0.103E+00
RMM:  88    -0.232963055827E+04    0.65741E-02   -0.25430E-03  4448   0.245E-02    0.131E+00
RMM:  89    -0.232963186756E+04   -0.13093E-02   -0.15563E-04  3117   0.612E-03    0.126E+00
RMM:  90    -0.232962943450E+04    0.24331E-02   -0.17727E-04  3153   0.625E-03    0.135E+00
RMM:  91    -0.232962992440E+04   -0.48990E-03   -0.10366E-05  2727   0.332E-03    0.133E+00
RMM:  92    -0.232964158824E+04   -0.11664E-01   -0.52345E-03  4554   0.304E-02    0.857E-01
RMM:  93    -0.232964647195E+04   -0.48837E-02   -0.27078E-03  4246   0.252E-02    0.717E-01
RMM:  94    -0.232964100198E+04    0.54700E-02   -0.15944E-03  4098   0.175E-02    0.880E-01
RMM:  95    -0.232964137190E+04   -0.36992E-03   -0.46894E-05  2858   0.497E-03    0.866E-01
RMM:  96    -0.232964292699E+04   -0.15551E-02   -0.14001E-04  2928   0.523E-03    0.810E-01
RMM:  97    -0.232964744605E+04   -0.45191E-02   -0.18440E-03  4260   0.181E-02    0.723E-01
RMM:  98    -0.232964945581E+04   -0.20098E-02   -0.57830E-04  3590   0.120E-02    0.740E-01
RMM:  99    -0.232965093110E+04   -0.14753E-02   -0.30560E-04  3467   0.783E-03    0.783E-01
RMM: 100    -0.232965287022E+04   -0.19391E-02   -0.30863E-04  3445   0.860E-03    0.860E-01
RMM: 101    -0.232965259996E+04    0.27026E-03   -0.23083E-05  2788   0.434E-03    0.846E-01
RMM: 102    -0.232965171040E+04    0.88956E-03   -0.80344E-05  2920   0.407E-03    0.821E-01
RMM: 103    -0.232965289418E+04   -0.11838E-02   -0.76852E-05  2863   0.429E-03    0.869E-01
RMM: 104    -0.232965308303E+04   -0.18885E-03   -0.11709E-05  2601   0.242E-03    0.875E-01
RMM: 105    -0.232965168926E+04    0.13938E-02   -0.11417E-04  2860   0.435E-03    0.820E-01
RMM: 106    -0.232965186941E+04   -0.18015E-03   -0.99508E-06  2352   0.218E-03    0.827E-01
RMM: 107    -0.232965271974E+04   -0.85033E-03   -0.59375E-05  2847   0.337E-03    0.854E-01
RMM: 108    -0.232965181639E+04    0.90334E-03   -0.46104E-05  2789   0.355E-03    0.820E-01
RMM: 109    -0.232965114556E+04    0.67083E-03   -0.65917E-05  2981   0.381E-03    0.809E-01
RMM: 110    -0.232964860099E+04    0.25446E-02   -0.57842E-04  3859   0.103E-02    0.766E-01
RMM: 111    -0.232964127564E+04    0.73253E-02   -0.44059E-03  4696   0.284E-02    0.926E-01
RMM: 112    -0.232962729590E+04    0.13980E-01   -0.84335E-03  4872   0.407E-02    0.153E+00
RMM: 113    -0.232962430882E+04    0.29871E-02   -0.94984E-04  4215   0.165E-02    0.164E+00
RMM: 114    -0.232962346063E+04    0.84819E-03   -0.14478E-04  3248   0.508E-03    0.167E+00
RMM: 115    -0.232962306916E+04    0.39148E-03   -0.14670E-05  2864   0.371E-03    0.169E+00
RMM: 116    -0.232962463315E+04   -0.15640E-02   -0.46740E-05  2774   0.337E-03    0.163E+00
RMM: 117    -0.232962407368E+04    0.55947E-03   -0.14713E-05  2576   0.220E-03    0.164E+00
RMM: 118    -0.232962006730E+04    0.40064E-02   -0.28567E-04  3370   0.722E-03    0.179E+00
RMM: 119    -0.232962129104E+04   -0.12237E-02   -0.21895E-05  2706   0.325E-03    0.174E+00
RMM: 120    -0.232962160081E+04   -0.30978E-03   -0.50751E-06  2286   0.147E-03    0.173E+00
RMM: 121    -0.232962072906E+04    0.87175E-03   -0.11593E-05  2251   0.160E-03    0.176E+00
RMM: 122    -0.232962535208E+04   -0.46230E-02   -0.39030E-04  3537   0.836E-03    0.159E+00
RMM: 123    -0.232962143604E+04    0.39160E-02   -0.25891E-04  3398   0.711E-03    0.174E+00
RMM: 124    -0.232962161936E+04   -0.18332E-03   -0.10098E-05  2646   0.305E-03    0.173E+00
RMM: 125    -0.232962270008E+04   -0.10807E-02   -0.23343E-05  2350   0.216E-03    0.169E+00
RMM: 126    -0.232962129142E+04    0.14087E-02   -0.28216E-05  2398   0.231E-03    0.174E+00
RMM: 127    -0.232963419244E+04   -0.12901E-01   -0.39538E-03  4540   0.266E-02    0.123E+00
RMM: 128    -0.232962997133E+04    0.42211E-02   -0.38541E-04  3586   0.103E-02    0.141E+00
RMM: 129    -0.232962987014E+04    0.10120E-03   -0.13975E-05  2745   0.341E-03    0.141E+00
RMM: 130    -0.232963075272E+04   -0.88258E-03   -0.16486E-05  2364   0.193E-03    0.137E+00
RMM: 131    -0.232963295382E+04   -0.22011E-02   -0.15790E-04  3152   0.550E-03    0.128E+00
RMM: 132    -0.232962821244E+04    0.47414E-02   -0.59285E-04  3642   0.105E-02    0.148E+00
RMM: 133    -0.232963009210E+04   -0.18797E-02   -0.64522E-05  2908   0.475E-03    0.140E+00
RMM: 134    -0.232963034972E+04   -0.25761E-03   -0.11729E-05  2491   0.231E-03    0.139E+00
RMM: 135    -0.232963049835E+04   -0.14864E-03   -0.89655E-06  2389   0.171E-03    0.138E+00
RMM: 136    -0.232963117301E+04   -0.67465E-03   -0.22677E-05  2703   0.242E-03    0.135E+00
RMM: 137    -0.232963159040E+04   -0.41739E-03   -0.12988E-05  2569   0.201E-03    0.134E+00
RMM: 138    -0.232963067616E+04    0.91424E-03   -0.17788E-05  2381   0.196E-03    0.138E+00
RMM: 139    -0.232963046388E+04    0.21229E-03   -0.31556E-06  2221   0.135E-03    0.138E+00
RMM: 140    -0.232963041562E+04    0.48260E-04   -0.69046E-07  1441   0.797E-04    0.139E+00
RMM: 141    -0.232962960964E+04    0.80597E-03   -0.19077E-05  2644   0.212E-03    0.142E+00
RMM: 142    -0.232963814984E+04   -0.85402E-02   -0.25037E-03  4570   0.215E-02    0.103E+00
RMM: 143    -0.232964175719E+04   -0.36073E-02   -0.11709E-03  4090   0.170E-02    0.875E-01
RMM: 144    -0.232964382523E+04   -0.20680E-02   -0.62938E-04  4182   0.111E-02    0.792E-01
RMM: 145    -0.232964623319E+04   -0.24080E-02   -0.57384E-04  3851   0.117E-02    0.735E-01
RMM: 146    -0.232964904784E+04   -0.28147E-02   -0.84884E-04  4185   0.135E-02    0.733E-01
RMM: 147    -0.232965496784E+04   -0.59200E-02   -0.27269E-03  4573   0.228E-02    0.947E-01
RMM: 148    -0.232965793677E+04   -0.29689E-02   -0.81693E-04  3901   0.145E-02    0.110E+00
RMM: 149    -0.232965828702E+04   -0.35025E-03   -0.12444E-04  3042   0.604E-03    0.112E+00
RMM: 150    -0.232965827489E+04    0.12127E-04   -0.13136E-05  2843   0.317E-03    0.112E+00
RMM: 151    -0.232965775264E+04    0.52225E-03   -0.10192E-05  2686   0.220E-03    0.109E+00
RMM: 152    -0.232966545063E+04   -0.76980E-02   -0.15772E-03  4407   0.167E-02    0.152E+00
RMM: 153    -0.232966515808E+04    0.29256E-03   -0.14902E-04  2968   0.878E-03    0.148E+00
RMM: 154    -0.232966473256E+04    0.42552E-03   -0.20040E-05  2833   0.279E-03    0.146E+00
RMM: 155    -0.232966406483E+04    0.66772E-03   -0.11387E-05  2588   0.214E-03    0.143E+00
RMM: 156    -0.232966401884E+04    0.45995E-04   -0.30375E-06  2221   0.144E-03    0.143E+00
RMM: 157    -0.232965923530E+04    0.47835E-02   -0.61770E-04  3786   0.101E-02    0.115E+00
RMM: 158    -0.232966113381E+04   -0.18985E-02   -0.10499E-04  2851   0.615E-03    0.127E+00
RMM: 159    -0.232966088988E+04    0.24392E-03   -0.57176E-06  2404   0.246E-03    0.125E+00
RMM: 160    -0.232966087709E+04    0.12797E-04   -0.61778E-07  1321   0.748E-04    0.125E+00
RMM: 161    -0.232966068401E+04    0.19308E-03   -0.40455E-06  1936   0.103E-03    0.124E+00
RMM: 162    -0.232965855822E+04    0.21258E-02   -0.15198E-04  3085   0.519E-03    0.113E+00
RMM: 163    -0.232965617850E+04    0.23797E-02   -0.26753E-04  3369   0.689E-03    0.994E-01
RMM: 164    -0.232965280165E+04    0.33768E-02   -0.72693E-04  3922   0.112E-02    0.829E-01
RMM: 165    -0.232964843827E+04    0.43634E-02   -0.16886E-03  4380   0.176E-02    0.717E-01
RMM: 166    -0.232964365601E+04    0.47823E-02   -0.23799E-03  4504   0.216E-02    0.791E-01
RMM: 167    -0.232964152376E+04    0.21323E-02   -0.64123E-04  3873   0.124E-02    0.867E-01
RMM: 168    -0.232964078919E+04    0.73457E-03   -0.12767E-04  3151   0.580E-03    0.895E-01
RMM: 169    -0.232964083095E+04   -0.41756E-04   -0.11219E-05  2825   0.322E-03    0.893E-01
RMM: 170    -0.232964111670E+04   -0.28576E-03   -0.53622E-06  2581   0.175E-03    0.881E-01
RMM: 171    -0.232964270064E+04   -0.15839E-02   -0.17230E-04  3114   0.577E-03    0.814E-01
RMM: 172    -0.232964540214E+04   -0.27015E-02   -0.65064E-04  3961   0.110E-02    0.727E-01
RMM: 173    -0.232964780730E+04   -0.24052E-02   -0.67361E-04  3794   0.115E-02    0.696E-01
RMM: 174    -0.232964894425E+04   -0.11370E-02   -0.21434E-04  3292   0.729E-03    0.701E-01
RMM: 175    -0.232965031730E+04   -0.13730E-02   -0.21983E-04  3380   0.714E-03    0.726E-01
RMM: 176    -0.232965204089E+04   -0.17236E-02   -0.28241E-04  3505   0.821E-03    0.779E-01
RMM: 177    -0.232965298518E+04   -0.94429E-03   -0.11320E-04  3073   0.616E-03    0.816E-01
RMM: 178    -0.232965263394E+04    0.35124E-03   -0.10382E-05  2758   0.340E-03    0.801E-01
RMM: 179    -0.232965254428E+04    0.89656E-04   -0.25077E-06  2372   0.142E-03    0.799E-01
RMM: 180    -0.232965296869E+04   -0.42441E-03   -0.11548E-05  2528   0.194E-03    0.817E-01
RMM: 181    -0.232965136446E+04    0.16042E-02   -0.16468E-04  3013   0.555E-03    0.755E-01
RMM: 182    -0.232964675630E+04    0.46082E-02   -0.19476E-03  4381   0.185E-02    0.706E-01
RMM: 183    -0.232964502384E+04    0.17325E-02   -0.50054E-04  3611   0.117E-02    0.738E-01
RMM: 184    -0.232964235367E+04    0.26702E-02   -0.69930E-04  4273   0.116E-02    0.821E-01
RMM: 185    -0.232963977482E+04    0.25788E-02   -0.51519E-04  3679   0.110E-02    0.924E-01
RMM: 186    -0.232963796463E+04    0.18102E-02   -0.26577E-04  3432   0.837E-03    0.100E+00
RMM: 187    -0.232963668648E+04    0.12781E-02   -0.12150E-04  3122   0.630E-03    0.106E+00
RMM: 188    -0.232963667500E+04    0.11486E-04   -0.12864E-05  2804   0.338E-03    0.106E+00
RMM: 189    -0.232963668010E+04   -0.51007E-05   -0.20691E-06  2488   0.165E-03
   2 F= -.23511149E+04 E0= -.23511136E+04  d E =-.922281E-01  mag=     4.3828
       N       E                     dE             d eps       ncg     rms          rms(c)
DAV:   1    -0.232893431650E+04    0.70236E+00   -0.26752E+01  4512   0.430E+00    0.223E+00
RMM:   2    -0.232979675846E+04   -0.86244E+00   -0.79119E+00  6581   0.119E+00    0.401E+00
RMM:   3    -0.232978227294E+04    0.14486E-01   -0.10251E+00  6252   0.514E-01    0.249E+00
RMM:   4    -0.232973021661E+04    0.52056E-01   -0.96719E-02  6370   0.127E-01    0.125E+00
RMM:   5    -0.232971678707E+04    0.13430E-01   -0.19691E-02  6117   0.563E-02    0.809E-01
RMM:   6    -0.232971015550E+04    0.66316E-02   -0.13574E-02  5681   0.512E-02    0.386E-01
RMM:   7    -0.232971088572E+04   -0.73022E-03   -0.89910E-03  5428   0.439E-02    0.492E-01
RMM:   8    -0.232970888539E+04    0.20003E-02   -0.27230E-03  5639   0.256E-02    0.230E-01
RMM:   9    -0.232970906447E+04   -0.17908E-03   -0.66413E-04  4101   0.142E-02    0.935E-02
RMM:  10    -0.232970962656E+04   -0.56209E-03   -0.40536E-04  3907   0.121E-02    0.455E-02
RMM:  11    -0.232970992973E+04   -0.30317E-03   -0.10958E-04  3869   0.761E-03    0.324E-02
RMM:  12    -0.232971017657E+04   -0.24684E-03   -0.49733E-05  3340   0.629E-03    0.237E-02
RMM:  13    -0.232971042840E+04   -0.25182E-03   -0.54838E-05  3553   0.608E-03    0.165E-02
RMM:  14    -0.232971059658E+04   -0.16818E-03   -0.33427E-05  3216   0.542E-03    0.898E-03
RMM:  15    -0.232971069213E+04   -0.95552E-04   -0.16884E-05  2957   0.443E-03    0.639E-03
RMM:  16    -0.232971072757E+04   -0.35443E-04   -0.79770E-06  2851   0.357E-03    0.285E-03
RMM:  17    -0.232971074036E+04   -0.12787E-04   -0.45595E-06  2667   0.264E-03    0.155E-03
RMM:  18    -0.232971074462E+04   -0.42662E-05   -0.25118E-06  2521   0.204E-03
   3 F= -.23511940E+04 E0= -.23511933E+04  d E =-.171354E+00  mag=     3.9881
       N       E                     dE             d eps       ncg     rms          rms(c)
DAV:   1    -0.232968033564E+04    0.30405E-01   -0.46087E+00  4544   0.197E+00    0.912E-01
RMM:   2    -0.232979267073E+04   -0.11234E+00   -0.95131E-01  6166   0.517E-01    0.165E+00
RMM:   3    -0.232977540472E+04    0.17266E-01   -0.10361E-01  6135   0.201E-01    0.796E-01
RMM:   4    -0.232977196658E+04    0.34381E-02   -0.14920E-02  6116   0.538E-02    0.546E-01
RMM:   5    -0.232976927340E+04    0.26932E-02   -0.36573E-03  5814   0.292E-02    0.270E-01
RMM:   6    -0.232976850923E+04    0.76417E-03   -0.22797E-03  4993   0.271E-02    0.171E-01
RMM:   7    -0.232976854515E+04   -0.35915E-04   -0.97047E-04  4445   0.229E-02    0.167E-01
RMM:   8    -0.232976822289E+04    0.32226E-03   -0.28342E-04  3971   0.938E-03    0.543E-02
RMM:   9    -0.232976819671E+04    0.26176E-04   -0.79600E-05  3109   0.647E-03    0.201E-02
RMM:  10    -0.232976819852E+04   -0.18139E-05   -0.27778E-05  3057   0.454E-03
   4 F= -.23512527E+04 E0= -.23512523E+04  d E =-.586440E-01  mag=     3.9952
       N       E                     dE             d eps       ncg     rms          rms(c)
DAV:   1    -0.232969352407E+04    0.74673E-01   -0.49096E+00  4544   0.205E+00    0.949E-01
RMM:   2    -0.232981585350E+04   -0.12233E+00   -0.10146E+00  6174   0.533E-01    0.182E+00
RMM:   3    -0.232979335672E+04    0.22497E-01   -0.11089E-01  6159   0.205E-01    0.770E-01
RMM:   4    -0.232979030628E+04    0.30504E-02   -0.16072E-02  6086   0.550E-02    0.558E-01
RMM:   5    -0.232978744932E+04    0.28570E-02   -0.38346E-03  5801   0.299E-02    0.266E-01
RMM:   6    -0.232978664618E+04    0.80314E-03   -0.23160E-03  4974   0.273E-02    0.172E-01
RMM:   7    -0.232978667711E+04   -0.30929E-04   -0.99202E-04  4538   0.234E-02    0.169E-01
RMM:   8    -0.232978635443E+04    0.32268E-03   -0.29154E-04  3995   0.948E-03    0.570E-02
RMM:   9    -0.232978632136E+04    0.33070E-04   -0.82747E-05  3138   0.668E-03    0.214E-02
RMM:  10    -0.232978631998E+04    0.13860E-05   -0.33584E-05  3208   0.482E-03
   5 F= -.23512720E+04 E0= -.23512717E+04  d E =-.779408E-01  mag=     3.9987
       N       E                     dE             d eps       ncg     rms          rms(c)
DAV:   1    -0.232971953683E+04    0.66785E-01   -0.50976E+00  4544   0.198E+00    0.100E+00
RMM:   2    -0.232986637474E+04   -0.14684E+00   -0.13553E+00  6407   0.578E-01    0.157E+00
RMM:   3    -0.232985924663E+04    0.71281E-02   -0.16268E-01  6240   0.228E-01    0.885E-01
RMM:   4    -0.232985305559E+04    0.61910E-02   -0.16574E-02  5958   0.549E-02    0.469E-01
RMM:   5    -0.232985171435E+04    0.13412E-02   -0.38468E-03  5632   0.271E-02    0.328E-01
RMM:   6    -0.232985068057E+04    0.10338E-02   -0.21488E-03  5161   0.245E-02    0.165E-01
RMM:   7    -0.232985083683E+04   -0.15626E-03   -0.86075E-04  4296   0.194E-02    0.160E-01
RMM:   8    -0.232985056260E+04    0.27424E-03   -0.31875E-04  3512   0.904E-03    0.553E-02
RMM:   9    -0.232985056220E+04    0.39958E-06   -0.78918E-05  3077   0.598E-03
   6 F= -.23513357E+04 E0= -.23513353E+04  d E =-.636905E-01  mag=     3.9994
       N       E                     dE             d eps       ncg     rms          rms(c)
DAV:   1    -0.232948185599E+04    0.36871E+00   -0.15879E+01  4512   0.349E+00    0.180E+00
RMM:   2    -0.232994085417E+04   -0.45900E+00   -0.42660E+00  6416   0.103E+00    0.282E+00
RMM:   3    -0.232991974242E+04    0.21112E-01   -0.54073E-01  6268   0.412E-01    0.144E+00
RMM:   4    -0.232990143327E+04    0.18309E-01   -0.52171E-02  6069   0.979E-02    0.795E-01
RMM:   5    -0.232989784894E+04    0.35843E-02   -0.12330E-02  5943   0.483E-02    0.583E-01
RMM:   6    -0.232989486228E+04    0.29867E-02   -0.58840E-03  5349   0.394E-02    0.322E-01
RMM:   7    -0.232989548737E+04   -0.62509E-03   -0.37350E-03  5133   0.343E-02    0.345E-01
RMM:   8    -0.232989422702E+04    0.12603E-02   -0.11997E-03  5097   0.178E-02    0.979E-02
RMM:   9    -0.232989417446E+04    0.52566E-04   -0.28870E-04  4077   0.104E-02    0.417E-02
RMM:  10    -0.232989422256E+04   -0.48098E-04   -0.80706E-05  3839   0.719E-03    0.183E-02
RMM:  11    -0.232989425930E+04   -0.36744E-04   -0.23411E-05  3034   0.545E-03    0.116E-02
RMM:  12    -0.232989428368E+04   -0.24377E-04   -0.14136E-05  2908   0.419E-03    0.762E-03
RMM:  13    -0.232989430100E+04   -0.17327E-04   -0.98077E-06  2923   0.367E-03    0.536E-03
RMM:  14    -0.232989431368E+04   -0.12675E-04   -0.64603E-06  2836   0.304E-03    0.299E-03
RMM:  15    -0.232989432230E+04   -0.86239E-05   -0.45795E-06  2797   0.264E-03
   7 F= -.23513783E+04 E0= -.23513781E+04  d E =-.106363E+00  mag=     3.9993
       N       E                     dE             d eps       ncg     rms          rms(c)
DAV:   1    -0.232978349572E+04    0.11082E+00   -0.55086E+00  4544   0.194E+00    0.931E-01
RMM:   2    -0.232994508892E+04   -0.16159E+00   -0.16349E+00  6529   0.590E-01    0.109E+00
RMM:   3    -0.232995662759E+04   -0.11539E-01   -0.19847E-01  6213   0.238E-01    0.857E-01
RMM:   4    -0.232994894895E+04    0.76786E-02   -0.16922E-02  5970   0.538E-02    0.282E-01
RMM:   5    -0.232994902201E+04   -0.73060E-04   -0.29907E-03  5643   0.243E-02    0.350E-01
RMM:   6    -0.232994789248E+04    0.11295E-02   -0.20208E-03  5175   0.213E-02    0.157E-01
RMM:   7    -0.232994773343E+04    0.15905E-03   -0.55456E-04  4943   0.130E-02    0.883E-02
RMM:   8    -0.232994768955E+04    0.43887E-04   -0.18855E-04  3117   0.847E-03    0.648E-02
RMM:   9    -0.232994764348E+04    0.46063E-04   -0.64493E-05  3061   0.585E-03    0.249E-02
RMM:  10    -0.232994763630E+04    0.71779E-05   -0.24689E-05  3018   0.476E-03
   8 F= -.23514308E+04 E0= -.23514306E+04  d E =-.524491E-01  mag=     3.9986
       N       E                     dE             d eps       ncg     rms          rms(c)
DAV:   1    -0.232938762420E+04    0.56002E+00   -0.19573E+01  4512   0.367E+00    0.175E+00
RMM:   2    -0.232996084821E+04   -0.57322E+00   -0.59267E+00  6536   0.112E+00    0.180E+00
RMM:   3    -0.233002020014E+04   -0.59352E-01   -0.74775E-01  6220   0.455E-01    0.164E+00
RMM:   4    -0.232999169006E+04    0.28510E-01   -0.62321E-02  6267   0.105E-01    0.561E-01
RMM:   5    -0.232998945067E+04    0.22394E-02   -0.99230E-03  5791   0.456E-02    0.452E-01
RMM:   6    -0.232998939765E+04    0.53023E-04   -0.75297E-03  5759   0.403E-02    0.417E-01
RMM:   7    -0.232998745865E+04    0.19390E-02   -0.20752E-03  5605   0.240E-02    0.156E-01
RMM:   8    -0.232998745475E+04    0.39026E-05   -0.84578E-04  4790   0.141E-02    0.162E-01
RMM:   9    -0.232998718349E+04    0.27126E-03   -0.39115E-04  4376   0.108E-02    0.544E-02
RMM:  10    -0.232998714970E+04    0.33794E-04   -0.87120E-05  3604   0.718E-03    0.255E-02
RMM:  11    -0.232998713502E+04    0.14677E-04   -0.33390E-05  3103   0.567E-03    0.134E-02
RMM:  12    -0.232998712734E+04    0.76770E-05   -0.23015E-05  2988   0.497E-03
   9 F= -.23514686E+04 E0= -.23514684E+04  d E =-.902385E-01  mag=     3.9974
       N       E                     dE             d eps       ncg     rms          rms(c)
DAV:   1    -0.232984622584E+04    0.14091E+00   -0.62399E+00  4528   0.215E+00    0.937E-01
RMM:   2    -0.233002307423E+04   -0.17685E+00   -0.18729E+00  6397   0.643E-01    0.714E-01
RMM:   3    -0.233004266230E+04   -0.19588E-01   -0.21788E-01  6221   0.250E-01    0.782E-01
RMM:   4    -0.233003687679E+04    0.57855E-02   -0.19294E-02  6043   0.568E-02    0.313E-01
RMM:   5    -0.233003633910E+04    0.53769E-03   -0.25335E-03  5551   0.226E-02    0.291E-01
RMM:   6    -0.233003578958E+04    0.54952E-03   -0.19679E-03  5189   0.211E-02    0.201E-01
RMM:   7    -0.233003564417E+04    0.14541E-03   -0.13706E-03  5432   0.196E-02    0.158E-01
RMM:   8    -0.233003537420E+04    0.26997E-03   -0.36633E-04  3539   0.108E-02    0.517E-02
RMM:   9    -0.233003533563E+04    0.38567E-04   -0.61333E-05  3031   0.610E-03    0.198E-02
RMM:  10    -0.233003533271E+04    0.29208E-05   -0.22777E-05  2999   0.429E-03
  10 F= -.23515166E+04 E0= -.23515165E+04  d E =-.479782E-01  mag=     3.9981
       N       E                     dE             d eps       ncg     rms          rms(c)
DAV:   1    -0.232980351302E+04    0.23182E+00   -0.82539E+00  4512   0.247E+00    0.107E+00
RMM:   2    -0.233003843858E+04   -0.23493E+00   -0.24887E+00  6396   0.731E-01    0.825E-01
RMM:   3    -0.233006411919E+04   -0.25681E-01   -0.28779E-01  6238   0.283E-01    0.897E-01
RMM:   4    -0.233005640541E+04    0.77138E-02   -0.25629E-02  6172   0.652E-02    0.375E-01
RMM:   5    -0.233005566475E+04    0.74066E-03   -0.34446E-03  5611   0.253E-02    0.343E-01
RMM:   6    -0.233005482191E+04    0.84284E-03   -0.24456E-03  5396   0.232E-02    0.233E-01
RMM:   7    -0.233005457351E+04    0.24840E-03   -0.19440E-03  5607   0.227E-02    0.177E-01
RMM:   8    -0.233005423347E+04    0.34005E-03   -0.50451E-04  4040   0.123E-02    0.624E-02
RMM:   9    -0.233005417446E+04    0.59011E-04   -0.95699E-05  3192   0.687E-03    0.240E-02
RMM:  10    -0.233005416787E+04    0.65912E-05   -0.31762E-05  3012   0.506E-03
  11 F= -.23515352E+04 E0= -.23515352E+04  d E =-.666644E-01  mag=     3.9989
       N       E                     dE             d eps       ncg     rms          rms(c)
DAV:   1    -0.232988049911E+04    0.17368E+00   -0.77409E+00  4512   0.242E+00    0.103E+00
RMM:   2    -0.233008968224E+04   -0.20918E+00   -0.21928E+00  6421   0.685E-01    0.101E+00
RMM:   3    -0.233010708439E+04   -0.17402E-01   -0.24772E-01  6283   0.265E-01    0.895E-01
RMM:   4    -0.233010004499E+04    0.70394E-02   -0.23515E-02  6150   0.627E-02    0.447E-01
RMM:   5    -0.233009869552E+04    0.13495E-02   -0.36348E-03  5569   0.264E-02    0.334E-01
RMM:   6    -0.233009752465E+04    0.11709E-02   -0.26208E-03  5502   0.262E-02    0.181E-01
RMM:   7    -0.233009768128E+04   -0.15663E-03   -0.18015E-03  5299   0.221E-02    0.203E-01
RMM:   8    -0.233009719915E+04    0.48213E-03   -0.52182E-04  4746   0.124E-02    0.434E-02
RMM:   9    -0.233009716700E+04    0.32156E-04   -0.79402E-05  3051   0.682E-03    0.215E-02
RMM:  10    -0.233009716220E+04    0.47950E-05   -0.26833E-05  2976   0.451E-03
  12 F= -.23515779E+04 E0= -.23515779E+04  d E =-.426934E-01  mag=     3.9993
       N       E                     dE             d eps       ncg     rms          rms(c)
DAV:   1    -0.232998682162E+04    0.11035E+00   -0.42983E+00  4528   0.179E+00    0.765E-01
RMM:   2    -0.233010361938E+04   -0.11680E+00   -0.12172E+00  6444   0.506E-01    0.802E-01
RMM:   3    -0.233011260444E+04   -0.89851E-02   -0.13534E-01  6277   0.194E-01    0.686E-01
RMM:   4    -0.233010845951E+04    0.41449E-02   -0.13119E-02  5960   0.469E-02    0.335E-01
RMM:   5    -0.233010769065E+04    0.76886E-03   -0.20864E-03  5223   0.202E-02    0.248E-01
RMM:   6    -0.233010701243E+04    0.67822E-03   -0.14432E-03  5267   0.199E-02    0.132E-01
RMM:   7    -0.233010710608E+04   -0.93650E-04   -0.99724E-04  4820   0.172E-02    0.151E-01
RMM:   8    -0.233010683332E+04    0.27276E-03   -0.29107E-04  4222   0.963E-03    0.301E-02
RMM:   9    -0.233010681481E+04    0.18510E-04   -0.41946E-05  2986   0.580E-03    0.159E-02
RMM:  10    -0.233010681064E+04    0.41734E-05   -0.17199E-05  2961   0.366E-03
  13 F= -.23515874E+04 E0= -.23515874E+04  d E =-.521845E-01  mag=     3.9996
       N       E                     dE             d eps       ncg     rms          rms(c)
DAV:   1    -0.232992080673E+04    0.18601E+00   -0.85896E+00  4512   0.250E+00    0.103E+00
RMM:   2    -0.233014394105E+04   -0.22313E+00   -0.22928E+00  6436   0.677E-01    0.127E+00
RMM:   3    -0.233015455072E+04   -0.10610E-01   -0.26947E-01  6282   0.276E-01    0.889E-01
RMM:   4    -0.233014819852E+04    0.63522E-02   -0.24971E-02  6133   0.624E-02    0.500E-01
RMM:   5    -0.233014629635E+04    0.19022E-02   -0.40989E-03  5578   0.274E-02    0.354E-01
RMM:   6    -0.233014447317E+04    0.18232E-02   -0.38244E-03  5487   0.303E-02    0.146E-01
RMM:   7    -0.233014460717E+04   -0.13399E-03   -0.14362E-03  5068   0.216E-02    0.170E-01
RMM:   8    -0.233014432039E+04    0.28677E-03   -0.40666E-04  3981   0.112E-02    0.522E-02
RMM:   9    -0.233014428188E+04    0.38512E-04   -0.71829E-05  3126   0.688E-03    0.228E-02
RMM:  10    -0.233014428606E+04   -0.41810E-05   -0.29638E-05  2988   0.497E-03
  14 F= -.23516245E+04 E0= -.23516244E+04  d E =-.370465E-01  mag=     3.9995
       N       E                     dE             d eps       ncg     rms          rms(c)
DAV:   1    -0.233009378242E+04    0.50499E-01   -0.21392E+00  4544   0.125E+00    0.514E-01
RMM:   2    -0.233014903741E+04   -0.55255E-01   -0.56910E-01  6458   0.338E-01    0.637E-01
RMM:   3    -0.233015160470E+04   -0.25673E-02   -0.65626E-02  6219   0.135E-01    0.434E-01
RMM:   4    -0.233015009574E+04    0.15090E-02   -0.60921E-03  5583   0.312E-02    0.244E-01
RMM:   5    -0.233014965104E+04    0.44470E-03   -0.10089E-03  4351   0.143E-02    0.175E-01
RMM:   6    -0.233014919879E+04    0.45225E-03   -0.93400E-04  5087   0.158E-02    0.702E-02
RMM:   7    -0.233014924707E+04   -0.48276E-04   -0.34132E-04  3987   0.120E-02    0.893E-02
RMM:   8    -0.233014916797E+04    0.79091E-04   -0.10425E-04  3155   0.644E-03    0.241E-02
RMM:   9    -0.233014916190E+04    0.60789E-05   -0.18225E-05  2958   0.413E-03
  15 F= -.23516291E+04 E0= -.23516291E+04  d E =-.417165E-01  mag=     3.9995
       N       E                     dE             d eps       ncg     rms          rms(c)
DAV:   1    -0.233002319978E+04    0.12597E+00   -0.61116E+00  4528   0.217E+00    0.845E-01
RMM:   2    -0.233016493678E+04   -0.14174E+00   -0.15205E+00  6356   0.556E-01    0.729E-01
RMM:   3    -0.233017838538E+04   -0.13449E-01   -0.18060E-01  6151   0.239E-01    0.720E-01
RMM:   4    -0.233017368333E+04    0.47021E-02   -0.15266E-02  6243   0.518E-02    0.352E-01
RMM:   5    -0.233017307366E+04    0.60966E-03   -0.29146E-03  5593   0.242E-02    0.319E-01
RMM:   6    -0.233017195952E+04    0.11141E-02   -0.29334E-03  5668   0.267E-02    0.179E-01
RMM:   7    -0.233017185785E+04    0.10167E-03   -0.11766E-03  5156   0.180E-02    0.161E-01
RMM:   8    -0.233017162880E+04    0.22904E-03   -0.34788E-04  3583   0.103E-02    0.589E-02
RMM:   9    -0.233017159738E+04    0.31426E-04   -0.58794E-05  3115   0.632E-03    0.224E-02
RMM:  10    -0.233017159967E+04   -0.22967E-05   -0.28113E-05  2987   0.490E-03
  16 F= -.23516517E+04 E0= -.23516515E+04  d E =-.225765E-01  mag=     3.9992
       N       E                     dE             d eps       ncg     rms          rms(c)
DAV:   1    -0.233016757208E+04    0.40253E-02   -0.18673E-01  4904   0.380E-01    0.148E-01
RMM:   2    -0.233017186871E+04   -0.42966E-02   -0.46412E-02  6443   0.984E-02    0.119E-01
RMM:   3    -0.233017228092E+04   -0.41221E-03   -0.53746E-03  4585   0.407E-02    0.119E-01
RMM:   4    -0.233017215765E+04    0.12326E-03   -0.46039E-04  3128   0.982E-03    0.608E-02
RMM:   5    -0.233017214608E+04    0.11579E-04   -0.10412E-04  3059   0.593E-03    0.595E-02
RMM:   6    -0.233017210612E+04    0.39951E-04   -0.91068E-05  3124   0.609E-03    0.265E-02
RMM:   7    -0.233017210777E+04   -0.16423E-05   -0.32273E-05  2966   0.491E-03
  17 F= -.23516522E+04 E0= -.23516519E+04  d E =-.231108E-01  mag=     3.9991
       N       E                     dE             d eps       ncg     rms          rms(c)
DAV:   1    -0.233013754420E+04    0.34562E-01   -0.26406E+00  4528   0.151E+00    0.567E-01
RMM:   2    -0.233018525494E+04   -0.47711E-01   -0.50855E-01  6317   0.351E-01    0.534E-01
RMM:   3    -0.233018854674E+04   -0.32918E-02   -0.57969E-02  6149   0.146E-01    0.437E-01
RMM:   4    -0.233018693502E+04    0.16117E-02   -0.53188E-03  5838   0.329E-02    0.177E-01
RMM:   5    -0.233018700864E+04   -0.73617E-04   -0.12698E-03  5158   0.185E-02    0.225E-01
RMM:   6    -0.233018651644E+04    0.49219E-03   -0.73701E-04  5004   0.147E-02    0.935E-02
RMM:   7    -0.233018650171E+04    0.14736E-04   -0.35220E-04  4525   0.115E-02    0.745E-02
RMM:   8    -0.233018644448E+04    0.57227E-04   -0.10458E-04  3045   0.784E-03    0.337E-02
RMM:   9    -0.233018642918E+04    0.15304E-04   -0.21662E-05  2961   0.401E-03    0.122E-02
RMM:  10    -0.233018642788E+04    0.12968E-05   -0.12542E-05  2941   0.326E-03
  18 F= -.23516672E+04 E0= -.23516668E+04  d E =-.149903E-01  mag=     3.9987
       N       E                     dE             d eps       ncg     rms          rms(c)
DAV:   1    -0.233017687893E+04    0.95502E-02   -0.59195E-01  4576   0.717E-01    0.268E-01
RMM:   2    -0.233018755033E+04   -0.10671E-01   -0.11375E-01  6308   0.167E-01    0.250E-01
RMM:   3    -0.233018827436E+04   -0.72403E-03   -0.12834E-02  5898   0.681E-02    0.203E-01
RMM:   4    -0.233018793122E+04    0.34314E-03   -0.11971E-03  4242   0.156E-02    0.853E-02
RMM:   5    -0.233018794564E+04   -0.14423E-04   -0.28111E-04  3463   0.979E-03    0.106E-01
RMM:   6    -0.233018782913E+04    0.11651E-03   -0.17285E-04  3664   0.853E-03    0.427E-02
RMM:   7    -0.233018783396E+04   -0.48237E-05   -0.96904E-05  3356   0.721E-03
  19 F= -.23516690E+04 E0= -.23516684E+04  d E =-.167114E-01  mag=     3.9985
       N       E                     dE             d eps       ncg     rms          rms(c)
DAV:   1    -0.233015524902E+04    0.32580E-01   -0.20214E+00  4512   0.130E+00    0.477E-01
RMM:   2    -0.233020015100E+04   -0.44902E-01   -0.47100E-01  6526   0.323E-01    0.453E-01
RMM:   3    -0.233020366731E+04   -0.35163E-02   -0.52277E-02  6241   0.128E-01    0.341E-01
RMM:   4    -0.233020287468E+04    0.79263E-03   -0.49588E-03  5469   0.278E-02    0.179E-01
RMM:   5    -0.233020274154E+04    0.13315E-03   -0.60056E-04  3665   0.123E-02    0.162E-01
RMM:   6    -0.233020245550E+04    0.28603E-03   -0.43950E-04  4552   0.121E-02    0.714E-02
RMM:   7    -0.233020244208E+04    0.13425E-04   -0.29353E-04  4278   0.105E-02    0.642E-02
RMM:   8    -0.233020240975E+04    0.32325E-04   -0.65812E-05  2990   0.681E-03    0.331E-02
RMM:   9    -0.233020239658E+04    0.13176E-04   -0.20181E-05  2932   0.360E-03    0.140E-02
RMM:  10    -0.233020239459E+04    0.19857E-05   -0.79505E-06  2882   0.284E-03
  20 F= -.23516839E+04 E0= -.23516832E+04  d E =-.149209E-01  mag=     3.9981
       N       E                     dE             d eps       ncg     rms          rms(c)
DAV:   1    -0.232978147179E+04    0.42092E+00   -0.18153E+01  4512   0.390E+00    0.144E+00
RMM:   2    -0.233019110365E+04   -0.40963E+00   -0.42892E+00  6525   0.972E-01    0.142E+00
RMM:   3    -0.233022710281E+04   -0.35999E-01   -0.51112E-01  6350   0.393E-01    0.113E+00
RMM:   4    -0.233021718604E+04    0.99168E-02   -0.44879E-02  6229   0.840E-02    0.547E-01
RMM:   5    -0.233021562883E+04    0.15572E-02   -0.59971E-03  5579   0.348E-02    0.471E-01
RMM:   6    -0.233021319686E+04    0.24320E-02   -0.40699E-03  5701   0.324E-02    0.230E-01
RMM:   7    -0.233021271400E+04    0.48286E-03   -0.28571E-03  5319   0.286E-02    0.139E-01
RMM:   8    -0.233021268922E+04    0.24782E-04   -0.55614E-04  4558   0.176E-02    0.126E-01
RMM:   9    -0.233021251735E+04    0.17186E-03   -0.23825E-04  3467   0.864E-03    0.498E-02
RMM:  10    -0.233021248352E+04    0.33833E-04   -0.78590E-05  3069   0.644E-03    0.183E-02
RMM:  11    -0.233021248318E+04    0.33488E-06   -0.18167E-05  2967   0.431E-03
  21 F= -.23516950E+04 E0= -.23516940E+04  d E =-.260215E-01  mag=     3.9973
       N       E                     dE             d eps       ncg     rms          rms(c)
DAV:   1    -0.233018106743E+04    0.31416E-01   -0.14387E+00  4544   0.110E+00    0.406E-01
RMM:   2    -0.233021417425E+04   -0.33107E-01   -0.33871E-01  6529   0.274E-01    0.473E-01
RMM:   3    -0.233021585327E+04   -0.16790E-02   -0.37560E-02  6182   0.107E-01    0.302E-01
RMM:   4    -0.233021526398E+04    0.58929E-03   -0.36990E-03  5287   0.246E-02    0.174E-01
RMM:   5    -0.233021504829E+04    0.21568E-03   -0.48933E-04  3372   0.109E-02    0.126E-01
RMM:   6    -0.233021486412E+04    0.18417E-03   -0.32587E-04  4233   0.109E-02    0.584E-02
RMM:   7    -0.233021484026E+04    0.23864E-04   -0.19586E-04  3945   0.919E-03    0.398E-02
RMM:   8    -0.233021483921E+04    0.10448E-05   -0.44879E-05  2945   0.611E-03
  22 F= -.23516971E+04 E0= -.23516962E+04  d E =-.281027E-01  mag=     3.9973
       N       E                     dE             d eps       ncg     rms          rms(c)
DAV:   1    -0.233020584023E+04    0.90000E-02   -0.74794E-01  4544   0.764E-01    0.293E-01
RMM:   2    -0.233022331722E+04   -0.17477E-01   -0.18548E-01  6571   0.195E-01    0.216E-01
RMM:   3    -0.233022507901E+04   -0.17618E-02   -0.20619E-02  5900   0.788E-02    0.192E-01
RMM:   4    -0.233022488027E+04    0.19874E-03   -0.19157E-03  3766   0.168E-02    0.119E-01
RMM:   5    -0.233022482041E+04    0.59863E-04   -0.27369E-04  3253   0.921E-03    0.101E-01
RMM:   6    -0.233022472685E+04    0.93560E-04   -0.19487E-04  3126   0.832E-03    0.493E-02
RMM:   7    -0.233022471194E+04    0.14908E-04   -0.70193E-05  3085   0.643E-03    0.384E-02
RMM:   8    -0.233022470682E+04    0.51233E-05   -0.27780E-05  2918   0.506E-03
  23 F= -.23517069E+04 E0= -.23517059E+04  d E =-.982167E-02  mag=     3.9970
       N       E                     dE             d eps       ncg     rms          rms(c)
DAV:   1    -0.233007317109E+04    0.15154E+00   -0.67133E+00  4512   0.229E+00    0.894E-01
RMM:   2    -0.233023215125E+04   -0.15898E+00   -0.16826E+00  6564   0.588E-01    0.728E-01
RMM:   3    -0.233024873872E+04   -0.16587E-01   -0.19505E-01  6329   0.235E-01    0.660E-01
RMM:   4    -0.233024584180E+04    0.28969E-02   -0.17779E-02  6085   0.513E-02    0.364E-01
RMM:   5    -0.233024528713E+04    0.55467E-03   -0.28404E-03  5231   0.242E-02    0.307E-01
RMM:   6    -0.233024446441E+04    0.82272E-03   -0.18539E-03  5296   0.210E-02    0.161E-01
RMM:   7    -0.233024428702E+04    0.17739E-03   -0.68016E-04  5042   0.140E-02    0.110E-01
RMM:   8    -0.233024426678E+04    0.20238E-04   -0.23611E-04  3245   0.986E-03    0.919E-02
RMM:   9    -0.233024418189E+04    0.84892E-04   -0.11923E-04  3064   0.695E-03    0.297E-02
RMM:  10    -0.233024417511E+04    0.67756E-05   -0.28285E-05  2969   0.482E-03
  24 F= -.23517262E+04 E0= -.23517249E+04  d E =-.291194E-01  mag=     3.9953
       N       E                     dE             d eps       ncg     rms          rms(c)
DAV:   1    -0.232953831348E+04    0.70587E+00   -0.26771E+01  4512   0.459E+00    0.184E+00
RMM:   2    -0.233018910351E+04   -0.65079E+00   -0.68615E+00  6591   0.120E+00    0.159E+00
RMM:   3    -0.233025929044E+04   -0.70187E-01   -0.82414E-01  6383   0.483E-01    0.152E+00
RMM:   4    -0.233024132157E+04    0.17969E-01   -0.72097E-02  6360   0.107E-01    0.747E-01
RMM:   5    -0.233023837636E+04    0.29452E-02   -0.12438E-02  5856   0.498E-02    0.561E-01
RMM:   6    -0.233023598018E+04    0.23962E-02   -0.76597E-03  5851   0.400E-02    0.361E-01
RMM:   7    -0.233023465648E+04    0.13237E-02   -0.37789E-03  5668   0.307E-02    0.173E-01
RMM:   8    -0.233023463714E+04    0.19337E-04   -0.92009E-04  4851   0.193E-02    0.147E-01
RMM:   9    -0.233023444877E+04    0.18837E-03   -0.35761E-04  3828   0.103E-02    0.950E-02
RMM:  10    -0.233023437619E+04    0.72585E-04   -0.11605E-04  3225   0.768E-03    0.334E-02
RMM:  11    -0.233023437042E+04    0.57684E-05   -0.45874E-05  2956   0.576E-03
  25 F= -.23517159E+04 E0= -.23517142E+04  d E =-.188522E-01  mag=     3.9903
       N       E                     dE             d eps       ncg     rms          rms(c)
DAV:   1    -0.232995177983E+04    0.28260E+00   -0.11506E+01  4512   0.301E+00    0.115E+00
RMM:   2    -0.233023362037E+04   -0.28184E+00   -0.29372E+00  6582   0.783E-01    0.118E+00
RMM:   3    -0.233025805556E+04   -0.24435E-01   -0.33863E-01  6336   0.310E-01    0.917E-01
RMM:   4    -0.233025175921E+04    0.62963E-02   -0.31471E-02  6247   0.722E-02    0.542E-01
RMM:   5    -0.233025019451E+04    0.15647E-02   -0.52012E-03  5569   0.315E-02    0.404E-01
RMM:   6    -0.233024888229E+04    0.13122E-02   -0.43856E-03  5619   0.314E-02    0.231E-01
RMM:   7    -0.233024856722E+04    0.31506E-03   -0.12542E-03  5189   0.187E-02    0.163E-01
RMM:   8    -0.233024851134E+04    0.55880E-04   -0.62100E-04  4500   0.124E-02    0.158E-01
RMM:   9    -0.233024829525E+04    0.21609E-03   -0.25083E-04  3612   0.944E-03    0.378E-02
RMM:  10    -0.233024829240E+04    0.28510E-05   -0.56377E-05  3046   0.608E-03
  26 F= -.23517302E+04 E0= -.23517286E+04  d E =-.330931E-01  mag=     3.9922
       N       E                     dE             d eps       ncg     rms          rms(c)
DAV:   1    -0.233022771456E+04    0.20581E-01   -0.13462E+00  4544   0.101E+00    0.440E-01
RMM:   2    -0.233025933203E+04   -0.31617E-01   -0.33545E-01  6493   0.269E-01    0.311E-01
RMM:   3    -0.233026320136E+04   -0.38693E-02   -0.39576E-02  5969   0.111E-01    0.397E-01
RMM:   4    -0.233026193587E+04    0.12655E-02   -0.36211E-03  4891   0.243E-02    0.137E-01
RMM:   5    -0.233026211343E+04   -0.17756E-03   -0.78980E-04  4549   0.139E-02    0.193E-01
RMM:   6    -0.233026175439E+04    0.35904E-03   -0.53868E-04  4230   0.124E-02    0.732E-02
RMM:   7    -0.233026176410E+04   -0.97176E-05   -0.13496E-04  3103   0.741E-03    0.773E-02
RMM:   8    -0.233026171337E+04    0.50739E-04   -0.66706E-05  2940   0.601E-03    0.235E-02
RMM:   9    -0.233026171066E+04    0.27092E-05   -0.17670E-05  2943   0.359E-03
  27 F= -.23517430E+04 E0= -.23517411E+04  d E =-.128234E-01  mag=     3.9858
       N       E                     dE             d eps       ncg     rms          rms(c)
DAV:   1    -0.232996930611E+04    0.29241E+00   -0.12049E+01  4512   0.302E+00    0.138E+00
RMM:   2    -0.233025620910E+04   -0.28690E+00   -0.30396E+00  6489   0.825E-01    0.108E+00
RMM:   3    -0.233029551436E+04   -0.39305E-01   -0.39481E-01  6217   0.340E-01    0.129E+00
RMM:   4    -0.233027985036E+04    0.15664E-01   -0.34036E-02  6349   0.789E-02    0.453E-01
RMM:   5    -0.233027983903E+04    0.11323E-04   -0.76547E-03  5769   0.390E-02    0.449E-01
RMM:   6    -0.233027861667E+04    0.12224E-02   -0.39308E-03  5850   0.287E-02    0.306E-01
RMM:   7    -0.233027811276E+04    0.50392E-03   -0.19177E-03  5159   0.229E-02    0.194E-01
RMM:   8    -0.233027804243E+04    0.70321E-04   -0.53671E-04  3901   0.142E-02    0.142E-01
RMM:   9    -0.233027804562E+04   -0.31839E-05   -0.34765E-04  3938   0.940E-03    0.182E-01
RMM:  10    -0.233027805636E+04   -0.10746E-04   -0.43001E-05  2987   0.492E-03    0.188E-01
RMM:  11    -0.233027786522E+04    0.19115E-03   -0.36169E-04  3358   0.843E-03    0.118E-01
RMM:  12    -0.233027781171E+04    0.53512E-04   -0.18876E-04  3188   0.739E-03    0.858E-02
RMM:  13    -0.233027775897E+04    0.52734E-04   -0.23344E-04  3412   0.754E-03    0.888E-02
RMM:  14    -0.233027756564E+04    0.19333E-03   -0.36452E-04  3804   0.931E-03    0.122E-01
RMM:  15    -0.233027764545E+04   -0.79802E-04   -0.22583E-05  2909   0.466E-03    0.104E-01
RMM:  16    -0.233027773982E+04   -0.94377E-04   -0.69580E-05  2957   0.424E-03    0.792E-02
RMM:  17    -0.233027786883E+04   -0.12901E-03   -0.15087E-04  3183   0.559E-03    0.635E-02
RMM:  18    -0.233027794071E+04   -0.71879E-04   -0.58436E-05  2905   0.405E-03    0.657E-02
RMM:  19    -0.233027804573E+04   -0.10502E-03   -0.79402E-05  3031   0.423E-03    0.758E-02
RMM:  20    -0.233027796665E+04    0.79086E-04   -0.31747E-05  2729   0.368E-03    0.716E-02
RMM:  21    -0.233027797249E+04   -0.58441E-05   -0.24115E-06  2187   0.139E-03
  28 F= -.23517574E+04 E0= -.23517521E+04  d E =-.272848E-01  mag=     3.9039
       N       E                     dE             d eps       ncg     rms          rms(c)
DAV:   1    -0.233025707095E+04    0.20896E-01   -0.12687E+00  4544   0.939E-01    0.406E-01
RMM:   2    -0.233028739224E+04   -0.30321E-01   -0.31405E-01  6602   0.259E-01    0.357E-01
RMM:   3    -0.233029079687E+04   -0.34046E-02   -0.36618E-02  5793   0.101E-01    0.396E-01
RMM:   4    -0.233029005991E+04    0.73695E-03   -0.34083E-03  4486   0.221E-02    0.296E-01
RMM:   5    -0.233029007266E+04   -0.12746E-04   -0.14365E-04  3014   0.557E-03    0.300E-01
RMM:   6    -0.233029005301E+04    0.19655E-04   -0.79622E-06  2921   0.244E-03    0.297E-01
RMM:   7    -0.233028998488E+04    0.68130E-04   -0.63911E-05  2964   0.391E-03    0.307E-01
RMM:   8    -0.233029015615E+04   -0.17127E-03   -0.25221E-05  2795   0.288E-03    0.340E-01
RMM:   9    -0.233028938130E+04    0.77484E-03   -0.78563E-04  4094   0.122E-02    0.250E-01
RMM:  10    -0.233028832477E+04    0.10565E-02   -0.19611E-03  4553   0.198E-02    0.252E-01
RMM:  11    -0.233028574567E+04    0.25791E-02   -0.30472E-03  4470   0.254E-02    0.475E-01
RMM:  12    -0.233028850204E+04   -0.27564E-02   -0.25005E-03  4456   0.223E-02    0.223E-01
RMM:  13    -0.233028885389E+04   -0.35185E-03   -0.59213E-04  3963   0.136E-02    0.163E-01
RMM:  14    -0.233028938957E+04   -0.53569E-03   -0.78146E-04  4472   0.134E-02    0.181E-01
RMM:  15    -0.233028981300E+04   -0.42343E-03   -0.25301E-04  3409   0.906E-03    0.243E-01
RMM:  16    -0.233028967383E+04    0.13917E-03   -0.20966E-05  2899   0.413E-03    0.225E-01
RMM:  17    -0.233028942602E+04    0.24781E-03   -0.68314E-05  2889   0.399E-03    0.195E-01
RMM:  18    -0.233028885571E+04    0.57031E-03   -0.54123E-04  3778   0.100E-02    0.161E-01
RMM:  19    -0.233028798749E+04    0.86823E-03   -0.10565E-03  4099   0.144E-02    0.232E-01
RMM:  20    -0.233028772834E+04    0.25914E-03   -0.16104E-04  3195   0.697E-03    0.263E-01
RMM:  21    -0.233028806456E+04   -0.33622E-03   -0.53667E-05  2794   0.425E-03    0.226E-01
RMM:  22    -0.233028880758E+04   -0.74301E-03   -0.65436E-04  3821   0.108E-02    0.165E-01
RMM:  23    -0.233028936476E+04   -0.55718E-03   -0.57426E-04  3637   0.108E-02    0.186E-01
RMM:  24    -0.233028962611E+04   -0.26135E-03   -0.14772E-04  3150   0.594E-03    0.216E-01
RMM:  25    -0.233028939542E+04    0.23069E-03   -0.41165E-05  2753   0.414E-03    0.190E-01
RMM:  26    -0.233028866524E+04    0.73018E-03   -0.76112E-04  3843   0.115E-02    0.169E-01
RMM:  27    -0.233028770436E+04    0.96088E-03   -0.10110E-03  4026   0.141E-02    0.263E-01
RMM:  28    -0.233028734055E+04    0.36381E-03   -0.18607E-04  3229   0.640E-03    0.304E-01
RMM:  29    -0.233028754673E+04   -0.20618E-03   -0.16999E-05  2654   0.333E-03    0.280E-01
RMM:  30    -0.233028792159E+04   -0.37486E-03   -0.81083E-05  2854   0.392E-03    0.236E-01
RMM:  31    -0.233028848980E+04   -0.56821E-03   -0.31908E-04  3378   0.752E-03    0.175E-01
RMM:  32    -0.233028913168E+04   -0.64188E-03   -0.67626E-04  3894   0.108E-02    0.159E-01
RMM:  33    -0.233028952775E+04   -0.39607E-03   -0.29053E-04  3364   0.780E-03    0.195E-01
RMM:  34    -0.233029022051E+04   -0.69276E-03   -0.38989E-04  3697   0.870E-03    0.292E-01
RMM:  35    -0.233029097220E+04   -0.75169E-03   -0.23915E-04  3334   0.763E-03    0.404E-01
RMM:  36    -0.233029115269E+04   -0.18049E-03   -0.43590E-05  2861   0.442E-03    0.433E-01
RMM:  37    -0.233029111275E+04    0.39940E-04   -0.61340E-06  2609   0.236E-03    0.430E-01
RMM:  38    -0.233029110831E+04    0.44410E-05   -0.13829E-06  2354   0.143E-03
  29 F= -.23517701E+04 E0= -.23517596E+04  d E =-.126324E-01  mag=     3.7304
       N       E                     dE             d eps       ncg     rms          rms(c)
DAV:   1    -0.233002258145E+04    0.26853E+00   -0.11364E+01  4512   0.282E+00    0.126E+00
RMM:   2    -0.233030898801E+04   -0.28641E+00   -0.28632E+00  6615   0.802E-01    0.187E+00
RMM:   3    -0.233034044660E+04   -0.31459E-01   -0.34124E-01  5970   0.307E-01    0.238E+00
RMM:   4    -0.233033930548E+04    0.11411E-02   -0.39803E-02  5740   0.637E-02    0.213E+00
RMM:   5    -0.233032298657E+04    0.16319E-01   -0.31931E-02  5471   0.773E-02    0.119E+00
RMM:   6    -0.233031409937E+04    0.88872E-02   -0.14966E-02  6047   0.505E-02    0.825E-01
RMM:   7    -0.233030865208E+04    0.54473E-02   -0.54313E-03  5337   0.342E-02    0.513E-01
RMM:   8    -0.233030533518E+04    0.33169E-02   -0.70183E-03  5557   0.378E-02    0.356E-01
RMM:   9    -0.233030474183E+04    0.59335E-03   -0.28035E-03  5252   0.253E-02    0.421E-01
RMM:  10    -0.233030222900E+04    0.25128E-02   -0.13071E-03  4786   0.178E-02    0.400E-01
RMM:  11    -0.233030031561E+04    0.19134E-02   -0.58401E-04  4000   0.143E-02    0.495E-01
RMM:  12    -0.233030262386E+04   -0.23082E-02   -0.47607E-04  3759   0.101E-02    0.384E-01
RMM:  13    -0.233030665140E+04   -0.40275E-02   -0.31242E-03  4404   0.250E-02    0.345E-01
RMM:  14    -0.233030994138E+04   -0.32900E-02   -0.20092E-03  4255   0.221E-02    0.597E-01
RMM:  15    -0.233030962513E+04    0.31625E-03   -0.13639E-04  3165   0.861E-03    0.571E-01
RMM:  16    -0.233030944616E+04    0.17897E-03   -0.31899E-05  2915   0.371E-03    0.565E-01
RMM:  17    -0.233030779405E+04    0.16521E-02   -0.38649E-04  3637   0.869E-03    0.419E-01
RMM:  18    -0.233030582398E+04    0.19701E-02   -0.13973E-03  4353   0.169E-02    0.339E-01
RMM:  19    -0.233030437367E+04    0.14503E-02   -0.95386E-04  4086   0.149E-02    0.395E-01
RMM:  20    -0.233030377401E+04    0.59965E-03   -0.21491E-04  3467   0.713E-03    0.434E-01
RMM:  21    -0.233030522392E+04   -0.14499E-02   -0.43611E-04  3508   0.982E-03    0.357E-01
RMM:  22    -0.233030802161E+04   -0.27977E-02   -0.24622E-03  4412   0.215E-02    0.431E-01
RMM:  23    -0.233031164062E+04   -0.36190E-02   -0.18145E-03  4282   0.192E-02    0.778E-01
RMM:  24    -0.233031019356E+04    0.14471E-02   -0.17406E-04  3079   0.891E-03    0.638E-01
RMM:  25    -0.233030782365E+04    0.23699E-02   -0.85850E-04  3956   0.127E-02    0.413E-01
RMM:  26    -0.233030637841E+04    0.14452E-02   -0.86444E-04  3975   0.139E-02    0.329E-01
RMM:  27    -0.233030546759E+04    0.91081E-03   -0.56611E-04  3897   0.106E-02    0.342E-01
RMM:  28    -0.233030442850E+04    0.10391E-02   -0.40394E-04  3806   0.946E-03    0.396E-01
RMM:  29    -0.233030247684E+04    0.19517E-02   -0.78988E-04  4236   0.129E-02    0.537E-01
RMM:  30    -0.233030241539E+04    0.61454E-04   -0.51737E-05  2972   0.505E-03    0.540E-01
RMM:  31    -0.233030242709E+04   -0.11705E-04   -0.92296E-06  2657   0.211E-03    0.539E-01
RMM:  32    -0.233030238938E+04    0.37717E-04   -0.16327E-06  2500   0.164E-03    0.542E-01
RMM:  33    -0.233030237836E+04    0.11015E-04   -0.68488E-07  1998   0.101E-03    0.543E-01
RMM:  34    -0.233030238411E+04   -0.57488E-05   -0.24789E-07  1811   0.788E-04
  30 F= -.23517798E+04 E0= -.23517784E+04  d E =-.223847E-01  mag=     4.1742
       N       E                     dE             d eps       ncg     rms          rms(c)
DAV:   1    -0.233029952281E+04    0.28556E-02   -0.81679E-01  4544   0.777E-01    0.669E-01
RMM:   2    -0.233032253177E+04   -0.23009E-01   -0.19307E-01  6305   0.219E-01    0.667E-01
RMM:   3    -0.233032309829E+04   -0.56651E-03   -0.24532E-02  6015   0.865E-02    0.749E-01
RMM:   4    -0.233032106519E+04    0.20331E-02   -0.31513E-03  4916   0.258E-02    0.620E-01
RMM:   5    -0.233031944185E+04    0.16233E-02   -0.34289E-03  4587   0.280E-02    0.506E-01
RMM:   6    -0.233031444903E+04    0.49928E-02   -0.88319E-03  5046   0.427E-02    0.929E-01
RMM:   7    -0.233031828889E+04   -0.38399E-02   -0.91588E-04  3984   0.171E-02    0.785E-01
RMM:   8    -0.233032086043E+04   -0.25715E-02   -0.56480E-03  5006   0.340E-02    0.511E-01
RMM:   9    -0.233031979814E+04    0.10623E-02   -0.19369E-03  4803   0.219E-02    0.312E-01
RMM:  10    -0.233032204339E+04   -0.22452E-02   -0.32554E-03  4696   0.272E-02    0.550E-01
RMM:  11    -0.233032577982E+04   -0.37364E-02   -0.17362E-03  4239   0.225E-02    0.981E-01
RMM:  12    -0.233032030149E+04    0.54783E-02   -0.40691E-03  4326   0.289E-02    0.364E-01
RMM:  13    -0.233031810178E+04    0.21997E-02   -0.37865E-03  4445   0.284E-02    0.398E-01
RMM:  14    -0.233031530612E+04    0.27957E-02   -0.22076E-03  4540   0.227E-02    0.604E-01
RMM:  15    -0.233031149444E+04    0.38117E-02   -0.13963E-03  4447   0.173E-02    0.843E-01
RMM:  16    -0.233031273520E+04   -0.12408E-02   -0.86733E-05  3045   0.698E-03    0.771E-01
RMM:  17    -0.233031333825E+04   -0.60305E-03   -0.35890E-05  2833   0.348E-03    0.733E-01
RMM:  18    -0.233031663204E+04   -0.32938E-02   -0.10694E-03  4205   0.140E-02    0.507E-01
RMM:  19    -0.233031922322E+04   -0.25912E-02   -0.15984E-03  4318   0.181E-02    0.340E-01
RMM:  20    -0.233031999148E+04   -0.76826E-03   -0.36232E-04  3627   0.927E-03    0.322E-01
RMM:  21    -0.233032046139E+04   -0.46991E-03   -0.14012E-04  3188   0.595E-03    0.326E-01
RMM:  22    -0.233032145891E+04   -0.99752E-03   -0.32244E-04  3747   0.863E-03    0.371E-01
RMM:  23    -0.233032286210E+04   -0.14032E-02   -0.46870E-04  3899   0.984E-03    0.486E-01
RMM:  24    -0.233032194935E+04    0.91275E-03   -0.11989E-04  3013   0.664E-03    0.410E-01
RMM:  25    -0.233032057331E+04    0.13760E-02   -0.56586E-04  3946   0.102E-02    0.337E-01
RMM:  26    -0.233031887640E+04    0.16969E-02   -0.10372E-03  4214   0.142E-02    0.365E-01
RMM:  27    -0.233031684076E+04    0.20356E-02   -0.10626E-03  4213   0.143E-02    0.498E-01
RMM:  28    -0.233031357508E+04    0.32657E-02   -0.12394E-03  4411   0.154E-02    0.721E-01
RMM:  29    -0.233031205186E+04    0.15232E-02   -0.30266E-04  3478   0.896E-03    0.814E-01
RMM:  30    -0.233031252159E+04   -0.46972E-03   -0.23298E-05  2835   0.370E-03    0.785E-01
RMM:  31    -0.233031320277E+04   -0.68118E-03   -0.31265E-05  2611   0.284E-03    0.742E-01
RMM:  32    -0.233031638202E+04   -0.31792E-02   -0.89400E-04  4059   0.128E-02    0.526E-01
RMM:  33    -0.233031840635E+04   -0.20243E-02   -0.85599E-04  3957   0.136E-02    0.387E-01
RMM:  34    -0.233031978431E+04   -0.13780E-02   -0.69522E-04  4150   0.118E-02    0.329E-01
RMM:  35    -0.233032066185E+04   -0.87754E-03   -0.36105E-04  3624   0.902E-03    0.333E-01
RMM:  36    -0.233032123437E+04   -0.57252E-03   -0.16898E-04  3235   0.677E-03    0.358E-01
RMM:  37    -0.233032145355E+04   -0.21917E-03   -0.43455E-05  2923   0.443E-03    0.373E-01
RMM:  38    -0.233032144633E+04    0.72204E-05   -0.52629E-06  2617   0.236E-03
  31 F= -.23517990E+04 E0= -.23517918E+04  d E =-.191825E-01  mag=     3.8937
       N       E                     dE             d eps       ncg     rms          rms(c)
DAV:   1    -0.233026797760E+04    0.53476E-01   -0.30953E+00  4512   0.151E+00    0.915E-01
RMM:   2    -0.233034531277E+04   -0.77335E-01   -0.69637E-01  6328   0.420E-01    0.120E+00
RMM:   3    -0.233034919202E+04   -0.38792E-02   -0.80777E-02  6114   0.163E-01    0.195E+00
RMM:   4    -0.233034618940E+04    0.30026E-02   -0.15080E-02  5417   0.490E-02    0.156E+00
RMM:   5    -0.233033318225E+04    0.13007E-01   -0.12551E-02  5679   0.514E-02    0.633E-01
RMM:   6    -0.233033142324E+04    0.17590E-02   -0.33388E-03  5504   0.279E-02    0.485E-01
RMM:   7    -0.233032953576E+04    0.18875E-02   -0.20859E-03  5310   0.228E-02    0.456E-01
RMM:   8    -0.233032725397E+04    0.22818E-02   -0.20400E-03  4765   0.235E-02    0.492E-01
RMM:   9    -0.233032338111E+04    0.38729E-02   -0.22720E-03  4909   0.231E-02    0.663E-01
RMM:  10    -0.233032391032E+04   -0.52921E-03   -0.94882E-05  3152   0.949E-03    0.637E-01
RMM:  11    -0.233032739997E+04   -0.34897E-02   -0.15965E-03  4117   0.183E-02    0.424E-01
RMM:  12    -0.233033096972E+04   -0.35697E-02   -0.29359E-03  4464   0.260E-02    0.373E-01
RMM:  13    -0.233033545731E+04   -0.44876E-02   -0.31609E-03  4746   0.266E-02    0.731E-01
RMM:  14    -0.233033324549E+04    0.22118E-02   -0.44028E-04  3921   0.126E-02    0.536E-01
RMM:  15    -0.233033181359E+04    0.14319E-02   -0.52886E-04  3741   0.102E-02    0.442E-01
RMM:  16    -0.233032963368E+04    0.21799E-02   -0.12707E-03  4352   0.161E-02    0.381E-01
RMM:  17    -0.233032758927E+04    0.20444E-02   -0.11748E-03  4228   0.157E-02    0.464E-01
RMM:  18    -0.233032581569E+04    0.17736E-02   -0.61678E-04  3966   0.115E-02    0.572E-01
RMM:  19    -0.233032739680E+04   -0.15811E-02   -0.24407E-04  3287   0.774E-03    0.477E-01
RMM:  20    -0.233033046695E+04   -0.30702E-02   -0.20150E-03  4507   0.194E-02    0.389E-01
RMM:  21    -0.233033505209E+04   -0.45851E-02   -0.33175E-03  4666   0.256E-02    0.717E-01
RMM:  22    -0.233033439361E+04    0.65847E-03   -0.18818E-04  3128   0.998E-03    0.656E-01
RMM:  23    -0.233033264889E+04    0.17447E-02   -0.30383E-04  3303   0.812E-03    0.516E-01
RMM:  24    -0.233032956118E+04    0.30877E-02   -0.20704E-03  4385   0.195E-02    0.394E-01
RMM:  25    -0.233032690563E+04    0.26555E-02   -0.18022E-03  4260   0.190E-02    0.518E-01
RMM:  26    -0.233032095488E+04    0.59507E-02   -0.32562E-03  4892   0.247E-02    0.895E-01
RMM:  27    -0.233032049477E+04    0.46011E-03   -0.21729E-04  3364   0.868E-03    0.920E-01
RMM:  28    -0.233032044989E+04    0.44878E-04   -0.39051E-05  2878   0.311E-03    0.923E-01
RMM:  29    -0.233032032549E+04    0.12440E-03   -0.49609E-06  2697   0.229E-03    0.930E-01
RMM:  30    -0.233032116320E+04   -0.83771E-03   -0.26259E-05  2510   0.267E-03    0.882E-01
RMM:  31    -0.233032377436E+04   -0.26112E-02   -0.40292E-04  3566   0.863E-03    0.724E-01
RMM:  32    -0.233032691167E+04   -0.31373E-02   -0.10436E-03  4236   0.140E-02    0.524E-01
RMM:  33    -0.233032811009E+04   -0.11984E-02   -0.36127E-04  3527   0.896E-03    0.456E-01
RMM:  34    -0.233032919418E+04   -0.10841E-02   -0.32682E-04  3739   0.817E-03    0.414E-01
RMM:  35    -0.233032956309E+04   -0.36891E-03   -0.73435E-05  3033   0.505E-03    0.407E-01
RMM:  36    -0.233032988396E+04   -0.32087E-03   -0.47953E-05  2903   0.366E-03    0.404E-01
RMM:  37    -0.233032939555E+04    0.48841E-03   -0.46579E-05  2726   0.371E-03    0.410E-01
RMM:  38    -0.233032913438E+04    0.26117E-03   -0.23448E-05  2540   0.263E-03    0.418E-01
RMM:  39    -0.233032880587E+04    0.32851E-03   -0.30405E-05  2769   0.269E-03    0.429E-01
RMM:  40    -0.233032878484E+04    0.21033E-04   -0.22479E-06  2057   0.150E-03    0.430E-01
RMM:  41    -0.233032891007E+04   -0.12524E-03   -0.24009E-06  1493   0.926E-04    0.424E-01
RMM:  42    -0.233032933070E+04   -0.42063E-03   -0.42681E-05  2657   0.289E-03    0.410E-01
RMM:  43    -0.233032986492E+04   -0.53422E-03   -0.82685E-05  2934   0.386E-03    0.399E-01
RMM:  44    -0.233033024351E+04   -0.37859E-03   -0.49625E-05  2906   0.311E-03    0.399E-01
RMM:  45    -0.233033032762E+04   -0.84108E-04   -0.82005E-06  2526   0.195E-03    0.400E-01
RMM:  46    -0.233033017832E+04    0.14930E-03   -0.41271E-06  2003   0.130E-03    0.399E-01
RMM:  47    -0.233033002820E+04    0.15011E-03   -0.69885E-06  2068   0.136E-03    0.399E-01
RMM:  48    -0.233032897944E+04    0.10488E-02   -0.25365E-04  3299   0.676E-03    0.416E-01
RMM:  49    -0.233032846912E+04    0.51033E-03   -0.89769E-05  2934   0.468E-03    0.436E-01
RMM:  50    -0.233032866953E+04   -0.20041E-03   -0.70688E-06  2416   0.232E-03    0.427E-01
RMM:  51    -0.233032937873E+04   -0.70920E-03   -0.11314E-04  2911   0.456E-03    0.403E-01
RMM:  52    -0.233033135018E+04   -0.19714E-02   -0.96551E-04  4140   0.129E-02    0.430E-01
RMM:  53    -0.233033385682E+04   -0.25066E-02   -0.10692E-03  3991   0.145E-02    0.622E-01
RMM:  54    -0.233033528887E+04   -0.14321E-02   -0.32020E-04  3570   0.853E-03    0.756E-01
RMM:  55    -0.233033507621E+04    0.21266E-03   -0.32269E-05  2831   0.438E-03    0.743E-01
RMM:  56    -0.233033495834E+04    0.11787E-03   -0.54839E-06  2341   0.180E-03    0.736E-01
RMM:  57    -0.233033598410E+04   -0.10258E-02   -0.60645E-05  2801   0.355E-03    0.828E-01
RMM:  58    -0.233033605844E+04   -0.74344E-04   -0.81357E-06  2496   0.257E-03    0.835E-01
RMM:  59    -0.233033634252E+04   -0.28408E-03   -0.88054E-06  2415   0.163E-03    0.863E-01
RMM:  60    -0.233033556415E+04    0.77837E-03   -0.26532E-05  2372   0.267E-03    0.793E-01
RMM:  61    -0.233033453545E+04    0.10287E-02   -0.75284E-05  2952   0.391E-03    0.697E-01
RMM:  62    -0.233033565588E+04   -0.11204E-02   -0.79253E-05  2765   0.432E-03    0.793E-01
RMM:  63    -0.233033607024E+04   -0.41435E-03   -0.24729E-05  2519   0.266E-03    0.828E-01
RMM:  64    -0.233033541812E+04    0.65212E-03   -0.17306E-05  2272   0.208E-03    0.772E-01
[...]
 165 F= -.23523624E+04 E0= -.23523624E+04  d E =-.301907E-03  mag=     2.0000
       N       E                     dE             d eps       ncg     rms          rms(c)
DAV:   1    -0.233089208345E+04    0.12490E-02   -0.11741E-01  4512   0.334E-01    0.103E-01
RMM:   2    -0.233089361292E+04   -0.15295E-02   -0.15856E-02  6173   0.721E-02    0.742E-02
RMM:   3    -0.233089381640E+04   -0.20348E-03   -0.18032E-03  3973   0.281E-02    0.113E-01
RMM:   4    -0.233089367572E+04    0.14068E-03   -0.16790E-04  2971   0.811E-03    0.291E-02
RMM:   5    -0.233089367813E+04   -0.24073E-05   -0.49186E-05  2970   0.504E-03
 166 F= -.23523626E+04 E0= -.23523626E+04  d E =-.286024E-03  mag=     2.0000
       N       E                     dE             d eps       ncg     rms          rms(c)
DAV:   1    -0.233089354665E+04    0.12907E-03   -0.10224E-02  5032   0.989E-02    0.344E-02
RMM:   2    -0.233089370695E+04   -0.16030E-03   -0.14418E-03  5922   0.232E-02    0.483E-02
RMM:   3    -0.233089369406E+04    0.12889E-04   -0.17702E-04  2946   0.916E-03    0.250E-02
RMM:   4    -0.233089368628E+04    0.77834E-05   -0.14688E-05  2941   0.328E-03
 167 F= -.23523626E+04 E0= -.23523626E+04  d E =-.274491E-03  mag=     2.0000
       N       E                     dE             d eps       ncg     rms          rms(c)
DAV:   1    -0.233089245078E+04    0.12433E-02   -0.13028E-01  4512   0.361E-01    0.112E-01
RMM:   2    -0.233089393818E+04   -0.14874E-02   -0.15889E-02  6087   0.750E-02    0.497E-02
RMM:   3    -0.233089405829E+04   -0.12011E-03   -0.16853E-03  4140   0.300E-02    0.554E-02
RMM:   4    -0.233089404177E+04    0.16525E-04   -0.15650E-04  2978   0.731E-03    0.358E-02
RMM:   5    -0.233089404027E+04    0.14963E-05   -0.39008E-05  2948   0.491E-03
 168 F= -.23523629E+04 E0= -.23523629E+04  d E =-.272783E-03  mag=     2.0000
       N       E                     dE             d eps       ncg     rms          rms(c)
DAV:   1    -0.233089399737E+04    0.44405E-04   -0.30374E-03  5456   0.556E-02    0.233E-02
RMM:   2    -0.233089406439E+04   -0.67023E-04   -0.41072E-04  4497   0.131E-02    0.506E-02
RMM:   3    -0.233089403509E+04    0.29298E-04   -0.56567E-05  2912   0.643E-03    0.141E-02
RMM:   4    -0.233089403456E+04    0.53253E-06   -0.88433E-06  2815   0.230E-03
 169 F= -.23523629E+04 E0= -.23523629E+04  d E =-.254520E-03  mag=     2.0000
       N       E                     dE             d eps       ncg     rms          rms(c)
DAV:   1    -0.233089277260E+04    0.12625E-02   -0.13149E-01  4528   0.363E-01    0.111E-01
RMM:   2    -0.233089428568E+04   -0.15131E-02   -0.16166E-02  6021   0.748E-02    0.473E-02
RMM:   3    -0.233089439978E+04   -0.11410E-03   -0.16773E-03  4115   0.297E-02    0.453E-02
RMM:   4    -0.233089439900E+04    0.78014E-06   -0.15746E-04  3012   0.714E-03    0.401E-02
RMM:   5    -0.233089438054E+04    0.18461E-04   -0.38745E-05  2941   0.512E-03    0.198E-02
RMM:   6    -0.233089438111E+04   -0.56437E-06   -0.20441E-05  2933   0.457E-03
 170 F= -.23523631E+04 E0= -.23523631E+04  d E =-.240486E-03  mag=     2.0000
       N       E                     dE             d eps       ncg     rms          rms(c)
DAV:   1    -0.233089434675E+04    0.33793E-04   -0.33834E-03  5232   0.586E-02    0.200E-02
RMM:   2    -0.233089439675E+04   -0.50001E-04   -0.43896E-04  4465   0.133E-02    0.302E-02
RMM:   3    -0.233089439299E+04    0.37577E-05   -0.59376E-05  2890   0.690E-03
 171 F= -.23523631E+04 E0= -.23523631E+04  d E =-.235107E-03  mag=     2.0000
       N       E                     dE             d eps       ncg     rms          rms(c)
DAV:   1    -0.233089315336E+04    0.12434E-02   -0.12348E-01  4560   0.346E-01    0.105E-01
RMM:   2    -0.233089464215E+04   -0.14888E-02   -0.15828E-02  6047   0.721E-02    0.521E-02
RMM:   3    -0.233089480718E+04   -0.16503E-03   -0.17079E-03  3943   0.292E-02    0.830E-02
RMM:   4    -0.233089474250E+04    0.64679E-04   -0.16341E-04  2986   0.770E-03    0.333E-02
RMM:   5    -0.233089474131E+04    0.11983E-05   -0.41939E-05  2959   0.456E-03
 172 F= -.23523634E+04 E0= -.23523634E+04  d E =-.242846E-03  mag=     2.0000
       N       E                     dE             d eps       ncg     rms          rms(c)
DAV:   1    -0.233089464512E+04    0.97386E-04   -0.84112E-03  5072   0.911E-02    0.300E-02
RMM:   2    -0.233089475908E+04   -0.11396E-03   -0.11224E-03  5644   0.205E-02    0.327E-02
RMM:   3    -0.233089476360E+04   -0.45140E-05   -0.14338E-04  2932   0.861E-03    0.260E-02
RMM:   4    -0.233089475540E+04    0.81972E-05   -0.11639E-05  2917   0.309E-03
 173 F= -.23523634E+04 E0= -.23523634E+04  d E =-.228929E-03  mag=     2.0000
       N       E                     dE             d eps       ncg     rms          rms(c)
DAV:   1    -0.233089349857E+04    0.12650E-02   -0.12866E-01  4512   0.358E-01    0.111E-01
RMM:   2    -0.233089493223E+04   -0.14337E-02   -0.15340E-02  6039   0.735E-02    0.474E-02
RMM:   3    -0.233089504396E+04   -0.11172E-03   -0.16087E-03  3981   0.296E-02    0.465E-02
RMM:   4    -0.233089503986E+04    0.40999E-05   -0.15450E-04  2986   0.710E-03    0.389E-02
RMM:   5    -0.233089503348E+04    0.63792E-05   -0.43049E-05  2937   0.495E-03
 174 F= -.23523636E+04 E0= -.23523636E+04  d E =-.231062E-03  mag=     2.0000
       N       E                     dE             d eps       ncg     rms          rms(c)
DAV:   1    -0.233089500471E+04    0.35147E-04   -0.13380E-03  5360   0.374E-02    0.167E-02
RMM:   2    -0.233089502976E+04   -0.25053E-04   -0.18145E-04  3327   0.886E-03    0.318E-02
RMM:   3    -0.233089502171E+04    0.80507E-05   -0.26914E-05  2705   0.534E-03
 175 F= -.23523636E+04 E0= -.23523636E+04  d E =-.214381E-03  mag=     2.0000
       N       E                     dE             d eps       ncg     rms          rms(c)
DAV:   1    -0.233089385478E+04    0.11750E-02   -0.10835E-01  4512   0.322E-01    0.998E-02
RMM:   2    -0.233089517446E+04   -0.13197E-02   -0.13911E-02  6105   0.680E-02    0.596E-02
RMM:   3    -0.233089535320E+04   -0.17875E-03   -0.15377E-03  3844   0.273E-02    0.103E-01
RMM:   4    -0.233089524903E+04    0.10417E-03   -0.14878E-04  2997   0.769E-03    0.273E-02
RMM:   5    -0.233089524586E+04    0.31709E-05   -0.40309E-05  2968   0.487E-03
 176 F= -.23523638E+04 E0= -.23523638E+04  d E =-.205906E-03  mag=     2.0000
       N       E                     dE             d eps       ncg     rms          rms(c)
DAV:   1    -0.233089521118E+04    0.37855E-04   -0.24120E-03  5312   0.485E-02    0.241E-02
RMM:   2    -0.233089528883E+04   -0.77652E-04   -0.37516E-04  4174   0.121E-02    0.602E-02
RMM:   3    -0.233089524056E+04    0.48271E-04   -0.56984E-05  2890   0.618E-03    0.962E-03
RMM:   4    -0.233089524018E+04    0.37717E-06   -0.73693E-06  2758   0.211E-03
 177 F= -.23523638E+04 E0= -.23523638E+04  d E =-.197487E-03  mag=     2.0000
       N       E                     dE             d eps       ncg     rms          rms(c)
DAV:   1    -0.233089420020E+04    0.10404E-02   -0.10087E-01  4512   0.313E-01    0.979E-02
RMM:   2    -0.233089541639E+04   -0.12162E-02   -0.12858E-02  6053   0.659E-02    0.565E-02
RMM:   3    -0.233089556412E+04   -0.14773E-03   -0.13938E-03  3835   0.263E-02    0.929E-02
RMM:   4    -0.233089548524E+04    0.78874E-04   -0.13836E-04  2986   0.737E-03    0.280E-02
RMM:   5    -0.233089548440E+04    0.84263E-06   -0.40178E-05  2959   0.462E-03
 178 F= -.23523640E+04 E0= -.23523640E+04  d E =-.185813E-03  mag=     2.0000
       N       E                     dE             d eps       ncg     rms          rms(c)
DAV:   1    -0.233089547100E+04    0.14243E-04   -0.57786E-04  5328   0.245E-02    0.168E-02
RMM:   2    -0.233089550629E+04   -0.35295E-04   -0.11423E-04  3136   0.650E-03    0.472E-02
RMM:   3    -0.233089547644E+04    0.29855E-04   -0.24440E-05  2682   0.424E-03    0.781E-03
RMM:   4    -0.233089547625E+04    0.18484E-06   -0.42174E-06  2268   0.135E-03
 179 F= -.23523639E+04 E0= -.23523639E+04  d E =-.173187E-03  mag=     2.0000
       N       E                     dE             d eps       ncg     rms          rms(c)
DAV:   1    -0.233089475660E+04    0.71983E-03   -0.76754E-02  4560   0.276E-01    0.858E-02
RMM:   2    -0.233089562646E+04   -0.86985E-03   -0.91730E-03  6053   0.568E-02    0.527E-02
RMM:   3    -0.233089574273E+04   -0.11627E-03   -0.99024E-04  3594   0.231E-02    0.886E-02
RMM:   4    -0.233089566854E+04    0.74189E-04   -0.10439E-04  2966   0.684E-03    0.236E-02
RMM:   5    -0.233089566863E+04   -0.95926E-07   -0.31250E-05  2954   0.412E-03
 180 F= -.23523641E+04 E0= -.23523641E+04  d E =-.147554E-03  mag=     2.0000
       N       E                     dE             d eps       ncg     rms          rms(c)
DAV:   1    -0.233089565852E+04    0.10014E-04   -0.29688E-04  5360   0.185E-02    0.106E-02
RMM:   2    -0.233089566593E+04   -0.74054E-05   -0.48949E-05  2891   0.463E-03
 181 F= -.23523641E+04 E0= -.23523641E+04  d E =-.141949E-03  mag=     2.0000
       N       E                     dE             d eps       ncg     rms          rms(c)
DAV:   1    -0.233089499328E+04    0.66524E-03   -0.74648E-02  4544   0.272E-01    0.839E-02
RMM:   2    -0.233089578883E+04   -0.79555E-03   -0.84805E-03  6053   0.556E-02    0.403E-02
RMM:   3    -0.233089586841E+04   -0.79575E-04   -0.88212E-04  3649   0.236E-02    0.581E-02
RMM:   4    -0.233089583970E+04    0.28701E-04   -0.89038E-05  2973   0.601E-03    0.255E-02
RMM:   5    -0.233089583937E+04    0.33627E-06   -0.27282E-05  2948   0.398E-03
 182 F= -.23523642E+04 E0= -.23523642E+04  d E =-.147929E-03  mag=     2.0000
       N       E                     dE             d eps       ncg     rms          rms(c)
DAV:   1    -0.233089581695E+04    0.22752E-04   -0.15655E-03  5344   0.399E-02    0.176E-02
RMM:   2    -0.233089585330E+04   -0.36346E-04   -0.20396E-04  3492   0.942E-03    0.402E-02
RMM:   3    -0.233089583443E+04    0.18863E-04   -0.31518E-05  2744   0.554E-03    0.879E-03
RMM:   4    -0.233089583450E+04   -0.60492E-07   -0.48560E-06  2585   0.180E-03
 183 F= -.23523642E+04 E0= -.23523642E+04  d E =-.139335E-03  mag=     2.0000
       N       E                     dE             d eps       ncg     rms          rms(c)
DAV:   1    -0.233089524256E+04    0.59188E-03   -0.72090E-02  4512   0.265E-01    0.820E-02
RMM:   2    -0.233089599700E+04   -0.75444E-03   -0.80456E-03  6043   0.531E-02    0.396E-02
RMM:   3    -0.233089608322E+04   -0.86225E-04   -0.84001E-04  3487   0.214E-02    0.667E-02
RMM:   4    -0.233089604316E+04    0.40063E-04   -0.85581E-05  2970   0.614E-03    0.239E-02
RMM:   5    -0.233089604072E+04    0.24403E-05   -0.23113E-05  2965   0.381E-03
 184 F= -.23523644E+04 E0= -.23523644E+04  d E =-.156522E-03  mag=     2.0000
       N       E                     dE             d eps       ncg     rms          rms(c)
DAV:   1    -0.233089598580E+04    0.57359E-04   -0.60092E-03  4936   0.769E-02    0.274E-02
RMM:   2    -0.233089607080E+04   -0.84998E-04   -0.69927E-04  5199   0.171E-02    0.422E-02
RMM:   3    -0.233089605656E+04    0.14235E-04   -0.95311E-05  2930   0.765E-03    0.188E-02
RMM:   4    -0.233089605290E+04    0.36642E-05   -0.88156E-06  2927   0.278E-03
 185 F= -.23523644E+04 E0= -.23523644E+04  d E =-.154219E-03  mag=     2.0000
       N       E                     dE             d eps       ncg     rms          rms(c)
DAV:   1    -0.233089561509E+04    0.44147E-03   -0.60874E-02  4512   0.241E-01    0.719E-02
RMM:   2    -0.233089622768E+04   -0.61258E-03   -0.65324E-03  6042   0.481E-02    0.336E-02
RMM:   3    -0.233089627496E+04   -0.47283E-04   -0.66935E-04  3308   0.192E-02    0.363E-02
RMM:   4    -0.233089627038E+04    0.45793E-05   -0.65863E-05  2968   0.514E-03
 186 F= -.23523645E+04 E0= -.23523645E+04  d E =-.156439E-03  mag=     2.0000
       N       E                     dE             d eps       ncg     rms          rms(c)
DAV:   1    -0.233089619983E+04    0.75130E-04   -0.95859E-03  4720   0.956E-02    0.373E-02
RMM:   2    -0.233089637346E+04   -0.17363E-03   -0.11199E-03  5764   0.198E-02    0.806E-02
RMM:   3    -0.233089630204E+04    0.71419E-04   -0.14966E-04  2937   0.859E-03    0.235E-02
RMM:   4    -0.233089630095E+04    0.10858E-05   -0.23980E-05  2947   0.311E-03
 187 F= -.23523645E+04 E0= -.23523645E+04  d E =-.162562E-03  mag=     2.0000
       N       E                     dE             d eps       ncg     rms          rms(c)
DAV:   1    -0.233089590971E+04    0.39233E-03   -0.60051E-02  4512   0.243E-01    0.756E-02
RMM:   2    -0.233089646150E+04   -0.55179E-03   -0.58491E-03  6067   0.475E-02    0.420E-02
RMM:   3    -0.233089654900E+04   -0.87503E-04   -0.64795E-04  3390   0.193E-02    0.764E-02
RMM:   4    -0.233089648437E+04    0.64631E-04   -0.68938E-05  2928   0.604E-03    0.201E-02
RMM:   5    -0.233089648734E+04   -0.29711E-05   -0.27100E-05  2946   0.401E-03
 188 F= -.23523647E+04 E0= -.23523647E+04  d E =-.150292E-03  mag=     2.0000
       N       E                     dE             d eps       ncg     rms          rms(c)
DAV:   1    -0.233089644666E+04    0.37715E-04   -0.45564E-03  5144   0.672E-02    0.233E-02
RMM:   2    -0.233089650086E+04   -0.54202E-04   -0.46881E-04  4853   0.148E-02    0.330E-02
RMM:   3    -0.233089649500E+04    0.58585E-05   -0.62507E-05  2914   0.693E-03
 189 F= -.23523647E+04 E0= -.23523647E+04  d E =-.147973E-03  mag=     2.0000
       N       E                     dE             d eps       ncg     rms          rms(c)
DAV:   1    -0.233089609162E+04    0.40924E-03   -0.57882E-02  4512   0.236E-01    0.735E-02
RMM:   2    -0.233089663729E+04   -0.54567E-03   -0.57543E-03  6089   0.471E-02    0.424E-02
RMM:   3    -0.233089671752E+04   -0.80232E-04   -0.62229E-04  3286   0.186E-02    0.700E-02
RMM:   4    -0.233089665609E+04    0.61431E-04   -0.67389E-05  2934   0.612E-03    0.202E-02
RMM:   5    -0.233089665997E+04   -0.38857E-05   -0.26352E-05  2963   0.375E-03
 190 F= -.23523648E+04 E0= -.23523648E+04  d E =-.134281E-03  mag=     2.0000
       N       E                     dE             d eps       ncg     rms          rms(c)
DAV:   1    -0.233089663712E+04    0.18962E-04   -0.18638E-03  5376   0.425E-02    0.166E-02
RMM:   2    -0.233089666734E+04   -0.30211E-04   -0.20001E-04  3542   0.962E-03    0.344E-02
RMM:   3    -0.233089665601E+04    0.11325E-04   -0.30285E-05  2731   0.568E-03    0.941E-03
RMM:   4    -0.233089665564E+04    0.36672E-06   -0.37878E-06  2590   0.180E-03
 191 F= -.23523648E+04 E0= -.23523648E+04  d E =-.124412E-03  mag=     2.0000
       N       E                     dE             d eps       ncg     rms          rms(c)
DAV:   1    -0.233089627103E+04    0.38498E-03   -0.58298E-02  4512   0.232E-01    0.720E-02
RMM:   2    -0.233089678219E+04   -0.51116E-03   -0.54675E-03  6046   0.455E-02    0.354E-02
RMM:   3    -0.233089683784E+04   -0.55644E-04   -0.55766E-04  3328   0.184E-02    0.585E-02
RMM:   4    -0.233089680878E+04    0.29054E-04   -0.59024E-05  2962   0.540E-03    0.211E-02
RMM:   5    -0.233089680456E+04    0.42192E-05   -0.19291E-05  2950   0.364E-03
 192 F= -.23523649E+04 E0= -.23523649E+04  d E =-.124155E-03  mag=     2.0000
       N       E                     dE             d eps       ncg     rms          rms(c)
DAV:   1    -0.233089679730E+04    0.11478E-04   -0.10928E-03  5280   0.322E-02    0.180E-02
RMM:   2    -0.233089684006E+04   -0.42758E-04   -0.14609E-04  3207   0.797E-03    0.505E-02
RMM:   3    -0.233089680563E+04    0.34436E-04   -0.28972E-05  2713   0.485E-03    0.638E-03
RMM:   4    -0.233089680551E+04    0.11192E-06   -0.42060E-06  2475   0.165E-03
 193 F= -.23523649E+04 E0= -.23523649E+04  d E =-.121683E-03  mag=     2.0000
       N       E                     dE             d eps       ncg     rms          rms(c)
DAV:   1    -0.233089649947E+04    0.30616E-03   -0.54760E-02  4512   0.223E-01    0.706E-02
RMM:   2    -0.233089695191E+04   -0.45244E-03   -0.48723E-03  6036   0.435E-02    0.294E-02
RMM:   3    -0.233089697668E+04   -0.24766E-04   -0.47141E-04  3301   0.177E-02    0.214E-02
RMM:   4    -0.233089698491E+04   -0.82315E-05   -0.52256E-05  2979   0.492E-03
 194 F= -.23523651E+04 E0= -.23523651E+04  d E =-.141181E-03  mag=     2.0000
       N       E                     dE             d eps       ncg     rms          rms(c)
DAV:   1    -0.233089695661E+04    0.20073E-04   -0.33312E-03  5336   0.553E-02    0.217E-02
RMM:   2    -0.233089700598E+04   -0.49370E-04   -0.31520E-04  4026   0.117E-02    0.447E-02
RMM:   3    -0.233089698670E+04    0.19272E-04   -0.47495E-05  2885   0.655E-03    0.130E-02
RMM:   4    -0.233089698572E+04    0.98735E-06   -0.58570E-06  2799   0.211E-03
 195 F= -.23523651E+04 E0= -.23523651E+04  d E =-.132488E-03  mag=     2.0000
       N       E                     dE             d eps       ncg     rms          rms(c)
DAV:   1    -0.233089663259E+04    0.35411E-03   -0.58663E-02  4512   0.229E-01    0.718E-02
RMM:   2    -0.233089712019E+04   -0.48760E-03   -0.52353E-03  6077   0.449E-02    0.349E-02
RMM:   3    -0.233089716186E+04   -0.41673E-04   -0.53645E-04  3338   0.179E-02    0.425E-02
RMM:   4    -0.233089714646E+04    0.15401E-04   -0.57358E-05  2965   0.525E-03    0.225E-02
RMM:   5    -0.233089714701E+04   -0.55227E-06   -0.21938E-05  2918   0.356E-03
 196 F= -.23523652E+04 E0= -.23523652E+04  d E =-.129770E-03  mag=     2.0000
       N       E                     dE             d eps       ncg     rms          rms(c)
DAV:   1    -0.233089712679E+04    0.19665E-04   -0.20587E-03  5240   0.435E-02    0.159E-02
RMM:   2    -0.233089715158E+04   -0.24790E-04   -0.19546E-04  3523   0.972E-03    0.252E-02
RMM:   3    -0.233089714651E+04    0.50683E-05   -0.27797E-05  2789   0.567E-03
 197 F= -.23523652E+04 E0= -.23523652E+04  d E =-.123310E-03  mag=     2.0000
       N       E                     dE             d eps       ncg     rms          rms(c)
DAV:   1    -0.233089683417E+04    0.31741E-03   -0.51259E-02  4512   0.212E-01    0.662E-02
RMM:   2    -0.233089726824E+04   -0.43407E-03   -0.46112E-03  6028   0.417E-02    0.357E-02
RMM:   3    -0.233089731944E+04   -0.51195E-04   -0.48056E-04  3229   0.168E-02    0.533E-02
RMM:   4    -0.233089728931E+04    0.30124E-04   -0.52715E-05  2944   0.527E-03    0.233E-02
RMM:   5    -0.233089729042E+04   -0.11083E-05   -0.21986E-05  2921   0.322E-03
 198 F= -.23523653E+04 E0= -.23523653E+04  d E =-.112952E-03  mag=     2.0000
       N       E                     dE             d eps       ncg     rms          rms(c)
DAV:   1    -0.233089727239E+04    0.16926E-04   -0.17858E-03  5200   0.401E-02    0.143E-02
RMM:   2    -0.233089729212E+04   -0.19732E-04   -0.17232E-04  3354   0.876E-03    0.187E-02
RMM:   3    -0.233089729051E+04    0.16059E-05   -0.24233E-05  2749   0.522E-03
 199 F= -.23523653E+04 E0= -.23523653E+04  d E =-.107123E-03  mag=     2.0000
       N       E                     dE             d eps       ncg     rms          rms(c)
DAV:   1    -0.233089708522E+04    0.20689E-03   -0.43268E-02  4512   0.196E-01    0.621E-02
RMM:   2    -0.233089744036E+04   -0.35513E-03   -0.37639E-03  6004   0.385E-02    0.370E-02
RMM:   3    -0.233089749966E+04   -0.59302E-04   -0.40463E-04  3219   0.159E-02    0.689E-02
RMM:   4    -0.233089745107E+04    0.48588E-04   -0.47105E-05  2927   0.527E-03    0.164E-02
RMM:   5    -0.233089744887E+04    0.22024E-05   -0.18226E-05  2962   0.348E-03
 200 F= -.23523654E+04 E0= -.23523654E+04  d E =-.114877E-03  mag=     2.0000
       N       E                     dE             d eps       ncg     rms          rms(c)
DAV:   1    -0.233089744376E+04    0.73164E-05   -0.16423E-03  5096   0.386E-02    0.157E-02
RMM:   2    -0.233089746738E+04   -0.23620E-04   -0.15882E-04  3341   0.886E-03    0.281E-02
RMM:   3    -0.233089745828E+04    0.90965E-05   -0.25251E-05  2767   0.538E-03
 201 F= -.23523654E+04 E0= -.23523654E+04  d E =-.115711E-03  mag=     2.0000
