       N       E                     dE             d eps       ncg     rms          rms(c)
DAV:   1     0.131853952594E+05    0.13185E+05   -0.84447E+05  4536   0.145E+03
DAV:   2    -0.986146221077E+03   -0.14172E+05   -0.13543E+05  4960   0.332E+02
DAV:   3    -0.247019138499E+04   -0.14840E+04   -0.14639E+04  5536   0.116E+02
DAV:   4    -0.251753418832E+04   -0.47343E+02   -0.47046E+02  6720   0.294E+01
DAV:   5    -0.251837529120E+04   -0.84110E+00   -0.83877E+00  6200   0.343E+00    0.170E+02
RMM:   6    -0.149242113773E+04    0.10260E+04   -0.19578E+03  4474   0.383E+01    0.739E+01
RMM:   7    -0.167703989597E+04   -0.18462E+03   -0.31383E+02  5343   0.150E+01    0.599E+01
RMM:   8    -0.170661290092E+04   -0.29573E+02   -0.96326E+01  5337   0.930E+00    0.460E+01
RMM:   9    -0.175658255592E+04   -0.49970E+02   -0.55353E+01  5240   0.701E+00    0.365E+01
RMM:  10    -0.188826177107E+04   -0.13168E+03   -0.65177E+01  5196   0.795E+00    0.267E+01
RMM:  11    -0.197100974641E+04   -0.82748E+02   -0.34297E+01  4971   0.559E+00    0.218E+01
RMM:  12    -0.204560438228E+04   -0.74595E+02   -0.28838E+01  5012   0.442E+00    0.179E+01
RMM:  13    -0.210004559684E+04   -0.54441E+02   -0.21058E+01  5383   0.376E+00    0.149E+01
RMM:  14    -0.221078350015E+04   -0.11074E+03   -0.81171E+01  4561   0.660E+00    0.107E+01
RMM:  15    -0.227420874619E+04   -0.63425E+02   -0.57111E+01  4709   0.526E+00    0.595E+00
RMM:  16    -0.230006717225E+04   -0.25858E+02   -0.25606E+01  4791   0.384E+00    0.345E+00
RMM:  17    -0.230554396941E+04   -0.54768E+01   -0.63804E+00  5122   0.193E+00    0.363E+00
RMM:  18    -0.230622607387E+04   -0.68210E+00   -0.83713E-01  5765   0.605E-01    0.338E+00
RMM:  19    -0.230704020033E+04   -0.81413E+00   -0.22771E-01  4683   0.345E-01    0.295E+00
RMM:  20    -0.230788906142E+04   -0.84886E+00   -0.21687E-01  4494   0.342E-01    0.376E+00
RMM:  21    -0.230788005313E+04    0.90083E-02   -0.18737E-02  4791   0.153E-01    0.363E+00
RMM:  22    -0.230812054726E+04   -0.24049E+00   -0.60175E-02  4493   0.157E-01    0.357E+00
RMM:  23    -0.230854866180E+04   -0.42811E+00   -0.25728E-01  4721   0.301E-01    0.350E+00
RMM:  24    -0.230875055788E+04   -0.20190E+00   -0.53343E-01  4586   0.377E-01    0.564E+00
RMM:  25    -0.230872173558E+04    0.28822E-01   -0.39120E-02  4817   0.140E-01    0.570E+00
RMM:  26    -0.230914978379E+04   -0.42805E+00   -0.41279E-01  4529   0.234E-01    0.415E+00
RMM:  27    -0.230980159764E+04   -0.65181E+00   -0.19822E-01  4515   0.282E-01    0.528E+00
RMM:  28    -0.230987497017E+04   -0.73373E-01   -0.14861E-01  4597   0.241E-01    0.427E+00
RMM:  29    -0.230987183987E+04    0.31303E-02   -0.76403E-02  5172   0.147E-01    0.311E+00
RMM:  30    -0.230989411261E+04   -0.22273E-01   -0.16114E-02  5183   0.771E-02    0.283E+00
RMM:  31    -0.231001809007E+04   -0.12398E+00   -0.90074E-02  4667   0.127E-01    0.222E+00
RMM:  32    -0.231014039419E+04   -0.12230E+00   -0.81036E-02  4506   0.148E-01    0.157E+00
RMM:  33    -0.231018085202E+04   -0.40458E-01   -0.38568E-02  4779   0.113E-01    0.969E-01
RMM:  34    -0.231020451718E+04   -0.23665E-01   -0.13876E-02  4943   0.679E-02    0.719E-01
RMM:  35    -0.231023008926E+04   -0.25572E-01   -0.13139E-02  4627   0.671E-02    0.452E-01
RMM:  36    -0.231024412986E+04   -0.14041E-01   -0.54706E-03  4605   0.545E-02    0.313E-01
RMM:  37    -0.231025452484E+04   -0.10395E-01   -0.34503E-03  4587   0.397E-02    0.202E-01
RMM:  38    -0.231025839367E+04   -0.38688E-02   -0.13380E-03  4438   0.324E-02    0.139E-01
RMM:  39    -0.231025991709E+04   -0.15234E-02   -0.62544E-04  4450   0.162E-02    0.106E-01
RMM:  40    -0.231026069956E+04   -0.78247E-03   -0.23926E-04  4018   0.131E-02    0.738E-02
RMM:  41    -0.231026105518E+04   -0.35562E-03   -0.15542E-04  3819   0.861E-03    0.454E-02
RMM:  42    -0.231026119088E+04   -0.13570E-03   -0.65131E-05  3420   0.737E-03    0.283E-02
RMM:  43    -0.231026124046E+04   -0.49580E-04   -0.24897E-05  3038   0.452E-03    0.188E-02
RMM:  44    -0.231026126960E+04   -0.29148E-04   -0.13015E-05  2930   0.382E-03    0.110E-02
RMM:  45    -0.231026127912E+04   -0.95196E-05   -0.67509E-06  2861   0.288E-03
   1 F= -.23315845E+04 E0= -.23315845E+04  d E =-.233158E+04  mag=     2.9992
       N       E                     dE             d eps       ncg     rms          rms(c)
DAV:   1    -0.231002664791E+04    0.23462E+00   -0.90263E+02  4504   0.221E+01    0.903E+00
RMM:   2    -0.231543297442E+04   -0.54063E+01   -0.55325E+01  5671   0.567E+00    0.670E+00
RMM:   3    -0.231626530127E+04   -0.83233E+00   -0.46857E+00  5042   0.254E+00    0.105E+01
RMM:   4    -0.231485067921E+04    0.14146E+01   -0.98555E-01  6570   0.716E-01    0.374E+00
RMM:   5    -0.231479431016E+04    0.56369E-01   -0.30821E-01  6312   0.307E-01    0.330E+00
RMM:   6    -0.231475461309E+04    0.39697E-01   -0.23118E-01  5954   0.266E-01    0.260E+00
RMM:   7    -0.231467710461E+04    0.77508E-01   -0.10413E-01  6363   0.205E-01    0.119E+00
RMM:   8    -0.231466503729E+04    0.12067E-01   -0.20798E-02  5424   0.850E-02    0.324E-01
RMM:   9    -0.231466406624E+04    0.97106E-03   -0.62314E-03  5536   0.595E-02    0.227E-01
RMM:  10    -0.231466340813E+04    0.65811E-03   -0.14661E-03  5455   0.262E-02    0.987E-02
RMM:  11    -0.231466321997E+04    0.18816E-03   -0.55907E-04  4753   0.180E-02    0.469E-02
RMM:  12    -0.231466320809E+04    0.11878E-04   -0.26662E-04  4615   0.117E-02    0.251E-02
RMM:  13    -0.231466326649E+04   -0.58398E-04   -0.88772E-05  4131   0.852E-03    0.233E-02
RMM:  14    -0.231466334238E+04   -0.75888E-04   -0.71028E-05  3848   0.636E-03    0.100E-02
RMM:  15    -0.231466337442E+04   -0.32043E-04   -0.15894E-05  2947   0.539E-03    0.604E-03
RMM:  16    -0.231466339552E+04   -0.21097E-04   -0.87510E-06  2854   0.327E-03    0.404E-03
RMM:  17    -0.231466341005E+04   -0.14535E-04   -0.47131E-06  2838   0.297E-03    0.263E-03
RMM:  18    -0.231466341731E+04   -0.72562E-05   -0.30729E-06  2724   0.209E-03
   2 F= -.23359887E+04 E0= -.23359887E+04  d E =-.440419E+01  mag=     3.0000
       N       E                     dE             d eps       ncg     rms          rms(c)
DAV:   1    -0.231466407669E+04   -0.66664E-03   -0.39020E-01  4948   0.495E-01    0.162E-01
RMM:   2    -0.231466512582E+04   -0.10491E-02   -0.10851E-02  6110   0.776E-02    0.146E-01
RMM:   3    -0.231466532093E+04   -0.19511E-03   -0.10320E-03  5017   0.273E-02    0.220E-01
RMM:   4    -0.231466484336E+04    0.47757E-03   -0.24708E-04  3965   0.109E-02    0.556E-02
RMM:   5    -0.231466488712E+04   -0.43762E-04   -0.12006E-04  3112   0.761E-03    0.924E-02
RMM:   6    -0.231466480239E+04    0.84735E-04   -0.85458E-05  3375   0.696E-03    0.103E-02
RMM:   7    -0.231466480143E+04    0.95929E-06   -0.10389E-05  2813   0.431E-03
   3 F= -.23359900E+04 E0= -.23359900E+04  d E =-.440551E+01  mag=     3.0000
       N       E                     dE             d eps       ncg     rms          rms(c)
DAV:   1    -0.231407397937E+04    0.59082E+00   -0.38451E+02  4488   0.165E+01    0.721E+00
RMM:   2    -0.231588352312E+04   -0.18095E+01   -0.19589E+01  6283   0.331E+00    0.571E+00
RMM:   3    -0.231645793903E+04   -0.57442E+00   -0.23876E+00  6108   0.139E+00    0.830E+00
RMM:   4    -0.231553735646E+04    0.92058E+00   -0.53079E-01  6517   0.493E-01    0.302E+00
RMM:   5    -0.231554365863E+04   -0.63022E-02   -0.22288E-01  6228   0.247E-01    0.326E+00
RMM:   6    -0.231545309128E+04    0.90567E-01   -0.14824E-01  6013   0.213E-01    0.182E+00
RMM:   7    -0.231543133713E+04    0.21754E-01   -0.74802E-02  6378   0.167E-01    0.113E+00
RMM:   8    -0.231541671937E+04    0.14618E-01   -0.22016E-02  6350   0.883E-02    0.413E-01
RMM:   9    -0.231541422007E+04    0.24993E-02   -0.47352E-03  5797   0.437E-02    0.208E-01
RMM:  10    -0.231541354009E+04    0.67997E-03   -0.16294E-03  5063   0.269E-02    0.719E-02
RMM:  11    -0.231541363931E+04   -0.99215E-04   -0.52087E-04  4931   0.196E-02    0.436E-02
RMM:  12    -0.231541384783E+04   -0.20852E-03   -0.30364E-04  4600   0.119E-02    0.301E-02
RMM:  13    -0.231541405641E+04   -0.20857E-03   -0.20854E-04  4448   0.110E-02    0.139E-02
RMM:  14    -0.231541416933E+04   -0.11293E-03   -0.77708E-05  4061   0.729E-03    0.784E-03
RMM:  15    -0.231541422185E+04   -0.52517E-04   -0.20318E-05  3046   0.498E-03    0.587E-03
RMM:  16    -0.231541425525E+04   -0.33396E-04   -0.10769E-05  2867   0.367E-03    0.363E-03
RMM:  17    -0.231541426922E+04   -0.13974E-04   -0.51518E-06  2842   0.289E-03    0.203E-03
RMM:  18    -0.231541427537E+04   -0.61483E-05   -0.28514E-06  2777   0.213E-03
   4 F= -.23367414E+04 E0= -.23367414E+04  d E =-.751415E+00  mag=     3.0000
       N       E                     dE             d eps       ncg     rms          rms(c)
DAV:   1    -0.231558927271E+04   -0.17500E+00   -0.57670E+01  4560   0.594E+00    0.289E+00
RMM:   2    -0.231583275231E+04   -0.24348E+00   -0.25110E+00  6347   0.124E+00    0.252E+00
RMM:   3    -0.231589722409E+04   -0.64472E-01   -0.29651E-01  6289   0.460E-01    0.368E+00
RMM:   4    -0.231575706419E+04    0.14016E+00   -0.85566E-02  6281   0.187E-01    0.111E+00
RMM:   5    -0.231575961372E+04   -0.25495E-02   -0.32152E-02  6225   0.106E-01    0.141E+00
RMM:   6    -0.231573993068E+04    0.19683E-01   -0.18307E-02  5808   0.786E-02    0.423E-01
RMM:   7    -0.231573841645E+04    0.15142E-02   -0.71981E-03  5744   0.557E-02    0.300E-01
RMM:   8    -0.231573708414E+04    0.13323E-02   -0.22469E-03  5920   0.288E-02    0.106E-01
RMM:   9    -0.231573680251E+04    0.28163E-03   -0.43075E-04  5042   0.157E-02    0.530E-02
RMM:  10    -0.231573668018E+04    0.12233E-03   -0.21078E-04  4648   0.105E-02    0.255E-02
RMM:  11    -0.231573663654E+04    0.43641E-04   -0.10113E-04  4139   0.888E-03    0.143E-02
RMM:  12    -0.231573663156E+04    0.49812E-05   -0.39425E-05  3414   0.604E-03
   5 F= -.23370633E+04 E0= -.23370633E+04  d E =-.107329E+01  mag=     3.0000
       N       E                     dE             d eps       ncg     rms          rms(c)
DAV:   1    -0.231577138989E+04   -0.34753E-01   -0.77049E+01  4508   0.762E+00    0.198E+00
RMM:   2    -0.231625138364E+04   -0.47999E+00   -0.45565E+00  6439   0.143E+00    0.277E+00
RMM:   3    -0.231624493071E+04    0.64529E-02   -0.46245E-01  6114   0.547E-01    0.223E+00
RMM:   4    -0.231620286754E+04    0.42063E-01   -0.56486E-02  5874   0.146E-01    0.123E+00
RMM:   5    -0.231619403154E+04    0.88360E-02   -0.18397E-02  5952   0.805E-02    0.900E-01
RMM:   6    -0.231618645457E+04    0.75770E-02   -0.25472E-02  4798   0.956E-02    0.537E-01
RMM:   7    -0.231618348866E+04    0.29659E-02   -0.84720E-03  4996   0.746E-02    0.283E-01
RMM:   8    -0.231618260076E+04    0.88790E-03   -0.17486E-03  5849   0.265E-02    0.797E-02
RMM:   9    -0.231618251510E+04    0.85663E-04   -0.29611E-04  4177   0.125E-02    0.464E-02
RMM:  10    -0.231618250384E+04    0.11259E-04   -0.92204E-05  3550   0.763E-03    0.212E-02
RMM:  11    -0.231618250843E+04   -0.45936E-05   -0.21952E-05  3017   0.543E-03
   6 F= -.23375115E+04 E0= -.23375115E+04  d E =-.448209E+00  mag=     3.0000
       N       E                     dE             d eps       ncg     rms          rms(c)
DAV:   1    -0.231610210714E+04    0.80397E-01   -0.30188E+01  4560   0.484E+00    0.124E+00
RMM:   2    -0.231629125770E+04   -0.18915E+00   -0.17583E+00  6417   0.876E-01    0.186E+00
RMM:   3    -0.231628090402E+04    0.10354E-01   -0.16773E-01  6133   0.321E-01    0.134E+00
RMM:   4    -0.231626736315E+04    0.13541E-01   -0.22886E-02  5714   0.886E-02    0.840E-01
RMM:   5    -0.231626247238E+04    0.48908E-02   -0.73762E-03  5914   0.539E-02    0.528E-01
RMM:   6    -0.231625950727E+04    0.29651E-02   -0.97772E-03  4646   0.595E-02    0.306E-01
RMM:   7    -0.231625861119E+04    0.89607E-03   -0.32223E-03  4692   0.466E-02    0.174E-01
RMM:   8    -0.231625823561E+04    0.37558E-03   -0.65234E-04  5258   0.165E-02    0.441E-02
RMM:   9    -0.231625820893E+04    0.26679E-04   -0.97106E-05  3350   0.830E-03    0.295E-02
RMM:  10    -0.231625820802E+04    0.90559E-06   -0.46586E-05  3221   0.547E-03
   7 F= -.23375892E+04 E0= -.23375892E+04  d E =-.525916E+00  mag=     3.0000
       N       E                     dE             d eps       ncg     rms          rms(c)
DAV:   1    -0.231638690608E+04   -0.12870E+00   -0.31348E+01  4516   0.499E+00    0.130E+00
RMM:   2    -0.231656987039E+04   -0.18296E+00   -0.18079E+00  6489   0.954E-01    0.151E+00
RMM:   3    -0.231657227508E+04   -0.24047E-02   -0.17047E-01  6347   0.325E-01    0.133E+00
RMM:   4    -0.231655526054E+04    0.17015E-01   -0.20498E-02  6140   0.914E-02    0.674E-01
RMM:   5    -0.231655603568E+04   -0.77514E-03   -0.83419E-03  6015   0.534E-02    0.796E-01
RMM:   6    -0.231654938994E+04    0.66457E-02   -0.72950E-03  4747   0.537E-02    0.157E-01
RMM:   7    -0.231654935737E+04    0.32566E-04   -0.17975E-03  4594   0.393E-02    0.133E-01
RMM:   8    -0.231654918524E+04    0.17213E-03   -0.53158E-04  4984   0.144E-02    0.592E-02
RMM:   9    -0.231654913460E+04    0.50647E-04   -0.91733E-05  3291   0.768E-03    0.257E-02
RMM:  10    -0.231654912877E+04    0.58245E-05   -0.65708E-05  3575   0.606E-03
   8 F= -.23378828E+04 E0= -.23378828E+04  d E =-.293611E+00  mag=     3.0000
       N       E                     dE             d eps       ncg     rms          rms(c)
DAV:   1    -0.231641533790E+04    0.13380E+00   -0.53518E+01  4504   0.651E+00    0.169E+00
RMM:   2    -0.231672758628E+04   -0.31225E+00   -0.31170E+00  6457   0.126E+00    0.189E+00
RMM:   3    -0.231673596500E+04   -0.83787E-02   -0.30852E-01  6330   0.440E-01    0.174E+00
RMM:   4    -0.231670631332E+04    0.29652E-01   -0.36249E-02  6320   0.121E-01    0.874E-01
RMM:   5    -0.231670756867E+04   -0.12554E-02   -0.13708E-02  6027   0.632E-02    0.104E+00
RMM:   6    -0.231669668406E+04    0.10885E-01   -0.12382E-02  4803   0.681E-02    0.271E-01
RMM:   7    -0.231669677614E+04   -0.92078E-04   -0.49387E-03  4768   0.562E-02    0.271E-01
RMM:   8    -0.231669584419E+04    0.93195E-03   -0.14018E-03  5847   0.232E-02    0.750E-02
RMM:   9    -0.231669578438E+04    0.59813E-04   -0.22365E-04  3806   0.973E-03    0.346E-02
RMM:  10    -0.231669579586E+04   -0.11482E-04   -0.11708E-04  4020   0.780E-03    0.162E-02
RMM:  11    -0.231669581241E+04   -0.16546E-04   -0.22632E-05  3054   0.554E-03    0.911E-03
RMM:  12    -0.231669582904E+04   -0.16632E-04   -0.18874E-05  2963   0.420E-03    0.514E-03
RMM:  13    -0.231669583739E+04   -0.83525E-05   -0.10998E-05  2875   0.395E-03
   9 F= -.23380334E+04 E0= -.23380334E+04  d E =-.444141E+00  mag=     3.0000
       N       E                     dE             d eps       ncg     rms          rms(c)
DAV:   1    -0.231677406275E+04   -0.78234E-01   -0.99209E+00  4640   0.290E+00    0.789E-01
RMM:   2    -0.231683003997E+04   -0.55977E-01   -0.52338E-01  6229   0.514E-01    0.104E+00
RMM:   3    -0.231683117114E+04   -0.11312E-02   -0.51553E-02  6084   0.190E-01    0.102E+00
RMM:   4    -0.231682227840E+04    0.88927E-02   -0.65703E-03  5959   0.558E-02    0.337E-01
RMM:   5    -0.231682208920E+04    0.18920E-03   -0.27804E-03  5624   0.321E-02    0.345E-01
RMM:   6    -0.231682065406E+04    0.14351E-02   -0.24707E-03  4747   0.321E-02    0.988E-02
RMM:   7    -0.231682068602E+04   -0.31957E-04   -0.48266E-04  4268   0.213E-02    0.889E-02
RMM:   8    -0.231682059367E+04    0.92354E-04   -0.13818E-04  3495   0.731E-03    0.312E-02
RMM:   9    -0.231682059589E+04   -0.22279E-05   -0.28719E-05  2997   0.489E-03
  10 F= -.23381600E+04 E0= -.23381600E+04  d E =-.126588E+00  mag=     3.0000
       N       E                     dE             d eps       ncg     rms          rms(c)
DAV:   1    -0.231656075118E+04    0.25984E+00   -0.89072E+01  4504   0.868E+00    0.240E+00
RMM:   2    -0.231712023774E+04   -0.55949E+00   -0.49630E+00  6228   0.158E+00    0.360E+00
RMM:   3    -0.231708002557E+04    0.40212E-01   -0.49025E-01  6045   0.581E-01    0.278E+00
RMM:   4    -0.231701081840E+04    0.69207E-01   -0.56417E-02  5886   0.165E-01    0.888E-01
RMM:   5    -0.231701414697E+04   -0.33286E-02   -0.28050E-02  5960   0.102E-01    0.115E+00
RMM:   6    -0.231699864241E+04    0.15505E-01   -0.19865E-02  5183   0.894E-02    0.340E-01
RMM:   7    -0.231699896945E+04   -0.32704E-03   -0.45859E-03  5103   0.570E-02    0.266E-01
RMM:   8    -0.231699826581E+04    0.70364E-03   -0.15618E-03  5780   0.229E-02    0.110E-01
RMM:   9    -0.231699830697E+04   -0.41156E-04   -0.25880E-04  4178   0.109E-02    0.662E-02
RMM:  10    -0.231699845449E+04   -0.14752E-03   -0.15560E-04  4245   0.894E-03    0.432E-02
RMM:  11    -0.231699858805E+04   -0.13356E-03   -0.75997E-05  3648   0.743E-03    0.330E-02
RMM:  12    -0.231699868263E+04   -0.94579E-04   -0.39488E-05  3088   0.553E-03    0.272E-02
RMM:  13    -0.231699877732E+04   -0.94686E-04   -0.54175E-05  3279   0.565E-03    0.152E-02
RMM:  14    -0.231699881948E+04   -0.42167E-04   -0.22380E-05  2968   0.468E-03    0.685E-03
RMM:  15    -0.231699883791E+04   -0.18427E-04   -0.99375E-06  2909   0.337E-03    0.345E-03
RMM:  16    -0.231699884566E+04   -0.77533E-05   -0.43458E-06  2741   0.260E-03
  11 F= -.23383424E+04 E0= -.23383424E+04  d E =-.309043E+00  mag=     3.0000
       N       E                     dE             d eps       ncg     rms          rms(c)
DAV:   1    -0.231707104187E+04   -0.72204E-01   -0.12064E+01  4576   0.312E+00    0.748E-01
RMM:   2    -0.231714081312E+04   -0.69771E-01   -0.65428E-01  6311   0.559E-01    0.117E+00
RMM:   3    -0.231713798801E+04    0.28251E-02   -0.58648E-02  6124   0.191E-01    0.878E-01
RMM:   4    -0.231713072386E+04    0.72642E-02   -0.65918E-03  5781   0.533E-02    0.281E-01
RMM:   5    -0.231713065498E+04    0.68884E-04   -0.45323E-03  5908   0.411E-02    0.335E-01
RMM:   6    -0.231712895966E+04    0.16953E-02   -0.28728E-03  6018   0.324E-02    0.102E-01
RMM:   7    -0.231712901640E+04   -0.56741E-04   -0.40323E-04  4543   0.131E-02    0.868E-02
RMM:   8    -0.231712898743E+04    0.28973E-04   -0.12710E-04  3186   0.717E-03    0.581E-02
RMM:   9    -0.231712902678E+04   -0.39352E-04   -0.57895E-05  3191   0.582E-03    0.225E-02
RMM:  10    -0.231712907645E+04   -0.49673E-04   -0.38828E-05  3157   0.557E-03    0.199E-02
RMM:  11    -0.231712909426E+04   -0.17814E-04   -0.15091E-05  2955   0.460E-03    0.172E-02
RMM:  12    -0.231712911943E+04   -0.25167E-04   -0.20672E-05  2964   0.397E-03    0.146E-02
RMM:  13    -0.231712913885E+04   -0.19419E-04   -0.14284E-05  2947   0.403E-03    0.855E-03
RMM:  14    -0.231712914970E+04   -0.10849E-04   -0.85801E-06  2848   0.291E-03    0.391E-03
RMM:  15    -0.231712915444E+04   -0.47405E-05   -0.44954E-06  2680   0.247E-03
  12 F= -.23384739E+04 E0= -.23384739E+04  d E =-.131515E+00  mag=     3.0000
       N       E                     dE             d eps       ncg     rms          rms(c)
DAV:   1    -0.231679289672E+04    0.33625E+00   -0.10796E+02  4504   0.937E+00    0.236E+00
RMM:   2    -0.231750449782E+04   -0.71160E+00   -0.62766E+00  6328   0.170E+00    0.405E+00
RMM:   3    -0.231742387593E+04    0.80622E-01   -0.57138E-01  6141   0.579E-01    0.258E+00
RMM:   4    -0.231736902110E+04    0.54855E-01   -0.70552E-02  5892   0.164E-01    0.117E+00
RMM:   5    -0.231736750346E+04    0.15176E-02   -0.28672E-02  6152   0.971E-02    0.114E+00
RMM:   6    -0.231734824746E+04    0.19256E-01   -0.34597E-02  4935   0.110E-01    0.431E-01
RMM:   7    -0.231734889777E+04   -0.65031E-03   -0.93706E-03  4995   0.769E-02    0.381E-01
RMM:   8    -0.231734789551E+04    0.10023E-02   -0.28166E-03  5874   0.304E-02    0.172E-01
RMM:   9    -0.231734882481E+04   -0.92930E-03   -0.67352E-04  4672   0.173E-02    0.932E-02
RMM:  10    -0.231734965447E+04   -0.82966E-03   -0.47718E-04  4605   0.142E-02    0.429E-02
RMM:  11    -0.231734997410E+04   -0.31963E-03   -0.15992E-04  4112   0.924E-03    0.438E-02
RMM:  12    -0.231735012849E+04   -0.15438E-03   -0.65073E-05  3387   0.580E-03    0.426E-02
RMM:  13    -0.231735023624E+04   -0.10775E-03   -0.55304E-05  3094   0.583E-03    0.428E-02
RMM:  14    -0.231735032160E+04   -0.85363E-04   -0.75078E-05  3109   0.565E-03    0.425E-02
RMM:  15    -0.231735044445E+04   -0.12285E-03   -0.59040E-04  4212   0.112E-02    0.292E-02
RMM:  16    -0.231735048553E+04   -0.41082E-04   -0.44676E-04  3656   0.105E-02    0.131E-02
RMM:  17    -0.231735051021E+04   -0.24679E-04   -0.62457E-05  3014   0.511E-03    0.897E-03
RMM:  18    -0.231735051883E+04   -0.86191E-05   -0.27128E-05  2923   0.366E-03
  13 F= -.23386984E+04 E0= -.23386947E+04  d E =-.356024E+00  mag=     2.9994
       N       E                     dE             d eps       ncg     rms          rms(c)
DAV:   1    -0.231727496125E+04    0.75549E-01   -0.19630E+01  4528   0.400E+00    0.113E+00
RMM:   2    -0.231739169773E+04   -0.11674E+00   -0.10934E+00  6323   0.714E-01    0.145E+00
RMM:   3    -0.231739383838E+04   -0.21406E-02   -0.11311E-01  6152   0.245E-01    0.152E+00
RMM:   4    -0.231737956579E+04    0.14273E-01   -0.15722E-02  6236   0.748E-02    0.871E-01
RMM:   5    -0.231737452942E+04    0.50364E-02   -0.44632E-03  5885   0.377E-02    0.379E-01
RMM:   6    -0.231737293340E+04    0.15960E-02   -0.82604E-03  4529   0.522E-02    0.243E-01
RMM:   7    -0.231737306969E+04   -0.13629E-03   -0.15749E-03  4465   0.355E-02    0.172E-01
RMM:   8    -0.231737313075E+04   -0.61056E-04   -0.77155E-04  5119   0.142E-02    0.121E-01
RMM:   9    -0.231737335650E+04   -0.22576E-03   -0.36154E-04  4299   0.116E-02    0.733E-02
RMM:  10    -0.231737342714E+04   -0.70636E-04   -0.10748E-04  3346   0.752E-03    0.237E-02
RMM:  11    -0.231737344121E+04   -0.14069E-04   -0.28716E-05  3026   0.490E-03    0.116E-02
RMM:  12    -0.231737345031E+04   -0.91049E-05   -0.13323E-05  2900   0.411E-03
  14 F= -.23387227E+04 E0= -.23387170E+04  d E =-.380322E+00  mag=     2.9997
       N       E                     dE             d eps       ncg     rms          rms(c)
DAV:   1    -0.231742464333E+04   -0.51202E-01   -0.84181E+00  4560   0.259E+00    0.835E-01
RMM:   2    -0.231747520552E+04   -0.50562E-01   -0.49515E-01  6451   0.474E-01    0.754E-01
RMM:   3    -0.231747881289E+04   -0.36074E-02   -0.50777E-02  6292   0.155E-01    0.967E-01
RMM:   4    -0.231747154475E+04    0.72681E-02   -0.65085E-03  5677   0.444E-02    0.427E-01
RMM:   5    -0.231747043099E+04    0.11138E-02   -0.56451E-03  4812   0.423E-02    0.256E-01
RMM:   6    -0.231747071049E+04   -0.27950E-03   -0.19513E-03  4703   0.300E-02    0.290E-01
RMM:   7    -0.231747053217E+04    0.17832E-03   -0.83616E-04  4773   0.142E-02    0.149E-01
RMM:   8    -0.231747055869E+04   -0.26518E-04   -0.38761E-04  3973   0.104E-02    0.779E-02
RMM:   9    -0.231747073956E+04   -0.18087E-03   -0.20088E-04  3709   0.851E-03    0.322E-02
RMM:  10    -0.231747084702E+04   -0.10746E-03   -0.62248E-05  3062   0.572E-03    0.295E-02
RMM:  11    -0.231747089834E+04   -0.51323E-04   -0.41024E-05  3009   0.464E-03    0.153E-02
RMM:  12    -0.231747092551E+04   -0.27170E-04   -0.17480E-05  2921   0.394E-03    0.120E-02
RMM:  13    -0.231747094104E+04   -0.15530E-04   -0.16892E-05  2915   0.342E-03    0.484E-03
RMM:  14    -0.231747094688E+04   -0.58352E-05   -0.66485E-06  2820   0.292E-03
  15 F= -.23388218E+04 E0= -.23388160E+04  d E =-.990364E-01  mag=     3.0000
       N       E                     dE             d eps       ncg     rms          rms(c)
DAV:   1    -0.231725020666E+04    0.22073E+00   -0.75316E+01  4504   0.774E+00    0.189E+00
RMM:   2    -0.231767535886E+04   -0.42515E+00   -0.44621E+00  6446   0.144E+00    0.159E+00
RMM:   3    -0.231771066220E+04   -0.35303E-01   -0.40288E-01  6235   0.462E-01    0.206E+00
RMM:   4    -0.231767683900E+04    0.33823E-01   -0.50960E-02  6479   0.125E-01    0.907E-01
RMM:   5    -0.231767551404E+04    0.13250E-02   -0.18647E-02  6203   0.675E-02    0.784E-01
RMM:   6    -0.231766703518E+04    0.84789E-02   -0.19948E-02  5194   0.819E-02    0.233E-01
RMM:   7    -0.231766723234E+04   -0.19716E-03   -0.28804E-03  4653   0.488E-02    0.114E-01
RMM:   8    -0.231766763671E+04   -0.40437E-03   -0.88407E-04  5215   0.174E-02    0.123E-01
RMM:   9    -0.231766780798E+04   -0.17127E-03   -0.34004E-04  4398   0.120E-02    0.539E-02
RMM:  10    -0.231766822979E+04   -0.42181E-03   -0.22412E-04  3935   0.869E-03    0.211E-02
RMM:  11    -0.231766844294E+04   -0.21316E-03   -0.55484E-05  3201   0.642E-03    0.121E-02
RMM:  12    -0.231766857098E+04   -0.12804E-03   -0.33885E-05  3104   0.453E-03    0.718E-03
RMM:  13    -0.231766863811E+04   -0.67133E-04   -0.17680E-05  2912   0.422E-03    0.422E-03
RMM:  14    -0.231766866264E+04   -0.24526E-04   -0.93566E-06  2839   0.311E-03    0.260E-03
RMM:  15    -0.231766867277E+04   -0.10131E-04   -0.42121E-06  2680   0.255E-03    0.171E-03
RMM:  16    -0.231766867865E+04   -0.58801E-05   -0.28153E-06  2550   0.189E-03
  16 F= -.23390257E+04 E0= -.23390248E+04  d E =-.302954E+00  mag=     3.0000
       N       E                     dE             d eps       ncg     rms          rms(c)
DAV:   1    -0.231539647890E+04    0.22722E+01   -0.29689E+02  4504   0.153E+01    0.361E+00
RMM:   2    -0.231732553222E+04   -0.19291E+01   -0.19853E+01  6436   0.291E+00    0.403E+00
RMM:   3    -0.231740334069E+04   -0.77808E-01   -0.18355E+00  6307   0.930E-01    0.390E+00
RMM:   4    -0.231727340609E+04    0.12993E+00   -0.21344E-01  6420   0.245E-01    0.160E+00
RMM:   5    -0.231726330360E+04    0.10102E-01   -0.76759E-02  6280   0.148E-01    0.130E+00
RMM:   6    -0.231723639564E+04    0.26908E-01   -0.67797E-02  5579   0.153E-01    0.444E-01
RMM:   7    -0.231723554286E+04    0.85278E-03   -0.11778E-02  5550   0.780E-02    0.254E-01
RMM:   8    -0.231723572135E+04   -0.17849E-03   -0.31899E-03  5757   0.328E-02    0.230E-01
RMM:   9    -0.231723521918E+04    0.50217E-03   -0.10794E-03  5450   0.224E-02    0.836E-02
RMM:  10    -0.231723552548E+04   -0.30630E-03   -0.43581E-04  4511   0.125E-02    0.372E-02
RMM:  11    -0.231723580363E+04   -0.27815E-03   -0.10363E-04  3761   0.850E-03    0.161E-02
RMM:  12    -0.231723597346E+04   -0.16983E-03   -0.39187E-05  3245   0.534E-03    0.114E-02
RMM:  13    -0.231723614708E+04   -0.17362E-03   -0.35670E-05  3188   0.512E-03    0.633E-03
RMM:  14    -0.231723627800E+04   -0.13092E-03   -0.33063E-05  3172   0.469E-03    0.434E-03
RMM:  15    -0.231723632878E+04   -0.50780E-04   -0.15263E-05  2905   0.402E-03    0.235E-03
RMM:  16    -0.231723634387E+04   -0.15094E-04   -0.71269E-06  2781   0.293E-03    0.152E-03
RMM:  17    -0.231723634893E+04   -0.50515E-05   -0.32458E-06  2582   0.231E-03
  17 F= -.23386102E+04 E0= -.23386102E+04  d E =0.112499E+00  mag=     3.0000
       N       E                     dE             d eps       ncg     rms          rms(c)
DAV:   1    -0.231636084319E+04    0.87550E+00   -0.21892E+02  4504   0.127E+01    0.299E+00
RMM:   2    -0.231775241424E+04   -0.13916E+01   -0.14493E+01  6428   0.259E+00    0.295E+00
RMM:   3    -0.231782359981E+04   -0.71186E-01   -0.11722E+00  6244   0.763E-01    0.361E+00
RMM:   4    -0.231771927235E+04    0.10433E+00   -0.14791E-01  6654   0.211E-01    0.157E+00
RMM:   5    -0.231770570651E+04    0.13566E-01   -0.49642E-02  6056   0.109E-01    0.118E+00
RMM:   6    -0.231768723000E+04    0.18477E-01   -0.55519E-02  5089   0.139E-01    0.635E-01
RMM:   7    -0.231768463909E+04    0.25909E-02   -0.15087E-02  5455   0.930E-02    0.318E-01
RMM:   8    -0.231768416789E+04    0.47120E-03   -0.40594E-03  6029   0.362E-02    0.253E-01
RMM:   9    -0.231768328051E+04    0.88738E-03   -0.13519E-03  5364   0.214E-02    0.710E-02
RMM:  10    -0.231768332793E+04   -0.47423E-04   -0.28301E-04  4225   0.953E-03    0.347E-02
RMM:  11    -0.231768338525E+04   -0.57316E-04   -0.73096E-05  3502   0.752E-03    0.194E-02
RMM:  12    -0.231768343051E+04   -0.45269E-04   -0.30306E-05  3157   0.546E-03    0.101E-02
RMM:  13    -0.231768346118E+04   -0.30665E-04   -0.14253E-05  2919   0.454E-03    0.711E-03
RMM:  14    -0.231768348815E+04   -0.26966E-04   -0.15104E-05  2894   0.393E-03    0.373E-03
RMM:  15    -0.231768350158E+04   -0.13434E-04   -0.74796E-06  2843   0.367E-03    0.272E-03
RMM:  16    -0.231768350686E+04   -0.52837E-05   -0.39510E-06  2727   0.249E-03
  18 F= -.23390429E+04 E0= -.23390424E+04  d E =-.320144E+00  mag=     3.0000
       N       E                     dE             d eps       ncg     rms          rms(c)
DAV:   1    -0.231777613675E+04   -0.92635E-01   -0.81949E+00  4504   0.263E+00    0.759E-01
RMM:   2    -0.231784128553E+04   -0.65149E-01   -0.71586E-01  6336   0.548E-01    0.443E-01
RMM:   3    -0.231784980049E+04   -0.85150E-02   -0.79030E-02  6121   0.195E-01    0.860E-01
RMM:   4    -0.231784486817E+04    0.49323E-02   -0.79415E-03  6289   0.441E-02    0.229E-01
RMM:   5    -0.231784423224E+04    0.63593E-03   -0.29206E-03  5529   0.325E-02    0.172E-01
RMM:   6    -0.231784406213E+04    0.17011E-03   -0.14095E-03  5574   0.244E-02    0.128E-01
RMM:   7    -0.231784381504E+04    0.24709E-03   -0.34764E-04  4936   0.123E-02    0.349E-02
RMM:   8    -0.231784381280E+04    0.22403E-05   -0.70440E-05  3018   0.646E-03
  19 F= -.23392086E+04 E0= -.23392084E+04  d E =-.165707E+00  mag=     3.0000
       N       E                     dE             d eps       ncg     rms          rms(c)
DAV:   1    -0.231744531645E+04    0.39850E+00   -0.73280E+01  4504   0.791E+00    0.229E+00
RMM:   2    -0.231804600759E+04   -0.60069E+00   -0.66355E+00  6348   0.168E+00    0.120E+00
RMM:   3    -0.231809184002E+04   -0.45832E-01   -0.69521E-01  6078   0.582E-01    0.149E+00
RMM:   4    -0.231808284660E+04    0.89934E-02   -0.71260E-02  6733   0.126E-01    0.961E-01
RMM:   5    -0.231807818849E+04    0.46581E-02   -0.21178E-02  6087   0.783E-02    0.846E-01
RMM:   6    -0.231807293465E+04    0.52538E-02   -0.18947E-02  6280   0.770E-02    0.454E-01
RMM:   7    -0.231806966266E+04    0.32720E-02   -0.63362E-03  5922   0.485E-02    0.137E-01
RMM:   8    -0.231806959139E+04    0.71263E-04   -0.11120E-03  5337   0.231E-02    0.141E-01
RMM:   9    -0.231806936031E+04    0.23108E-03   -0.47397E-04  4766   0.130E-02    0.713E-02
RMM:  10    -0.231806933413E+04    0.26185E-04   -0.30054E-04  4593   0.108E-02    0.257E-02
RMM:  11    -0.231806937629E+04   -0.42162E-04   -0.87073E-05  3931   0.739E-03    0.155E-02
RMM:  12    -0.231806939842E+04   -0.22130E-04   -0.28405E-05  3139   0.548E-03    0.901E-03
RMM:  13    -0.231806941813E+04   -0.19709E-04   -0.22474E-05  3023   0.503E-03    0.530E-03
RMM:  14    -0.231806943050E+04   -0.12366E-04   -0.13859E-05  2874   0.446E-03    0.293E-03
RMM:  15    -0.231806943749E+04   -0.69999E-05   -0.81545E-06  2839   0.381E-03
  20 F= -.23394485E+04 E0= -.23394485E+04  d E =-.405655E+00  mag=     3.0000
       N       E                     dE             d eps       ncg     rms          rms(c)
DAV:   1    -0.231817919391E+04   -0.10976E+00   -0.68776E+00  4516   0.246E+00    0.685E-01
RMM:   2    -0.231823752408E+04   -0.58330E-01   -0.62195E-01  6428   0.522E-01    0.616E-01
RMM:   3    -0.231824432519E+04   -0.68011E-02   -0.68971E-02  6268   0.179E-01    0.915E-01
RMM:   4    -0.231823819780E+04    0.61274E-02   -0.74544E-03  6228   0.457E-02    0.254E-01
RMM:   5    -0.231823813173E+04    0.66064E-04   -0.30526E-03  5936   0.307E-02    0.287E-01
RMM:   6    -0.231823698848E+04    0.11433E-02   -0.23714E-03  5967   0.283E-02    0.954E-02
RMM:   7    -0.231823691368E+04    0.74795E-04   -0.53833E-04  4686   0.150E-02    0.621E-02
RMM:   8    -0.231823686603E+04    0.47655E-04   -0.13014E-04  3290   0.846E-03    0.325E-02
RMM:   9    -0.231823684332E+04    0.22702E-04   -0.38526E-05  3124   0.479E-03    0.147E-02
RMM:  10    -0.231823684064E+04    0.26834E-05   -0.15724E-05  2961   0.410E-03
  21 F= -.23396197E+04 E0= -.23396196E+04  d E =-.171115E+00  mag=     3.0000
       N       E                     dE             d eps       ncg     rms          rms(c)
DAV:   1    -0.231806738560E+04    0.16946E+00   -0.38928E+01  4504   0.594E+00    0.162E+00
RMM:   2    -0.231839100815E+04   -0.32362E+00   -0.35115E+00  6432   0.125E+00    0.123E+00
RMM:   3    -0.231843062204E+04   -0.39614E-01   -0.41870E-01  6303   0.446E-01    0.190E+00
RMM:   4    -0.231840402662E+04    0.26595E-01   -0.41128E-02  6670   0.105E-01    0.672E-01
RMM:   5    -0.231840268560E+04    0.13410E-02   -0.15530E-02  6148   0.688E-02    0.692E-01
RMM:   6    -0.231839734555E+04    0.53400E-02   -0.14041E-02  6258   0.655E-02    0.321E-01
RMM:   7    -0.231839603090E+04    0.13147E-02   -0.42136E-03  5294   0.410E-02    0.147E-01
RMM:   8    -0.231839581413E+04    0.21677E-03   -0.94559E-04  4559   0.232E-02    0.108E-01
RMM:   9    -0.231839557306E+04    0.24107E-03   -0.36673E-04  4726   0.112E-02    0.339E-02
RMM:  10    -0.231839554529E+04    0.27771E-04   -0.15435E-04  3927   0.860E-03    0.173E-02
RMM:  11    -0.231839554441E+04    0.88831E-06   -0.32370E-05  3254   0.556E-03
  22 F= -.23397858E+04 E0= -.23397858E+04  d E =-.337277E+00  mag=     3.0000
       N       E                     dE             d eps       ncg     rms          rms(c)
DAV:   1    -0.231847404508E+04   -0.78500E-01   -0.40660E+00  4528   0.192E+00    0.462E-01
RMM:   2    -0.231849903826E+04   -0.24993E-01   -0.26918E-01  6429   0.374E-01    0.390E-01
RMM:   3    -0.231850220253E+04   -0.31643E-02   -0.27892E-02  6269   0.118E-01    0.610E-01
RMM:   4    -0.231849942378E+04    0.27787E-02   -0.31843E-03  5739   0.312E-02    0.161E-01
RMM:   5    -0.231849942505E+04   -0.12694E-05   -0.14417E-03  5176   0.220E-02    0.175E-01
RMM:   6    -0.231849905178E+04    0.37327E-03   -0.89636E-04  5302   0.182E-02    0.677E-02
RMM:   7    -0.231849900895E+04    0.42823E-04   -0.13470E-04  3801   0.828E-03    0.303E-02
RMM:   8    -0.231849900741E+04    0.15389E-05   -0.38628E-05  2928   0.561E-03
  23 F= -.23398912E+04 E0= -.23398912E+04  d E =-.105396E+00  mag=     3.0000
       N       E                     dE             d eps       ncg     rms          rms(c)
DAV:   1    -0.231843115083E+04    0.67858E-01   -0.36573E+01  4504   0.573E+00    0.139E+00
RMM:   2    -0.231865444834E+04   -0.22330E+00   -0.24449E+00  6432   0.114E+00    0.100E+00
RMM:   3    -0.231868397352E+04   -0.29525E-01   -0.26670E-01  6312   0.364E-01    0.169E+00
RMM:   4    -0.231866206018E+04    0.21913E-01   -0.29165E-02  6597   0.924E-02    0.495E-01
RMM:   5    -0.231866089520E+04    0.11650E-02   -0.10956E-02  5231   0.559E-02    0.460E-01
RMM:   6    -0.231865914741E+04    0.17478E-02   -0.78150E-03  6079   0.531E-02    0.280E-01
RMM:   7    -0.231865818451E+04    0.96290E-03   -0.16612E-03  5736   0.268E-02    0.899E-02
RMM:   8    -0.231865821543E+04   -0.30921E-04   -0.43796E-04  4039   0.140E-02    0.907E-02
RMM:   9    -0.231865812029E+04    0.95144E-04   -0.14900E-04  3566   0.772E-03    0.304E-02
RMM:  10    -0.231865815251E+04   -0.32226E-04   -0.71067E-05  3177   0.584E-03    0.127E-02
RMM:  11    -0.231865818563E+04   -0.33112E-04   -0.15730E-05  2906   0.453E-03    0.603E-03
RMM:  12    -0.231865821073E+04   -0.25100E-04   -0.10089E-05  2882   0.344E-03    0.390E-03
RMM:  13    -0.231865822794E+04   -0.17217E-04   -0.62623E-06  2811   0.290E-03    0.264E-03
RMM:  14    -0.231865823785E+04   -0.99099E-05   -0.47363E-06  2726   0.238E-03
  24 F= -.23400561E+04 E0= -.23400561E+04  d E =-.270305E+00  mag=     3.0000
       N       E                     dE             d eps       ncg     rms          rms(c)
DAV:   1    -0.231865172402E+04    0.65039E-02   -0.18018E+00  4640   0.126E+00    0.300E-01
RMM:   2    -0.231866233161E+04   -0.10608E-01   -0.11580E-01  6421   0.246E-01    0.215E-01
RMM:   3    -0.231866356817E+04   -0.12366E-02   -0.11976E-02  6072   0.785E-02    0.345E-01
RMM:   4    -0.231866269633E+04    0.87184E-03   -0.13536E-03  4908   0.200E-02    0.108E-01
RMM:   5    -0.231866258618E+04    0.11015E-03   -0.50794E-04  4308   0.140E-02    0.825E-02
RMM:   6    -0.231866256479E+04    0.21394E-04   -0.30946E-04  3957   0.131E-02    0.667E-02
RMM:   7    -0.231866250712E+04    0.57670E-04   -0.70768E-05  3443   0.686E-03    0.163E-02
RMM:   8    -0.231866250851E+04   -0.13937E-05   -0.15785E-05  2889   0.465E-03
  25 F= -.23400616E+04 E0= -.23400616E+04  d E =-.275817E+00  mag=     3.0000
       N       E                     dE             d eps       ncg     rms          rms(c)
DAV:   1    -0.231871574770E+04   -0.53241E-01   -0.28405E+00  4516   0.168E+00    0.452E-01
RMM:   2    -0.231872991057E+04   -0.14163E-01   -0.15461E-01  6286   0.310E-01    0.297E-01
RMM:   3    -0.231873095942E+04   -0.10489E-02   -0.13478E-02  6082   0.100E-01    0.390E-01
RMM:   4    -0.231872932462E+04    0.16348E-02   -0.20752E-03  6077   0.299E-02    0.216E-01
RMM:   5    -0.231872907567E+04    0.24894E-03   -0.88219E-04  5250   0.170E-02    0.163E-01
RMM:   6    -0.231872877395E+04    0.30172E-03   -0.75413E-04  4878   0.189E-02    0.509E-02
RMM:   7    -0.231872877215E+04    0.18003E-05   -0.19222E-04  3814   0.128E-02    0.537E-02
RMM:   8    -0.231872872218E+04    0.49976E-04   -0.45358E-05  3017   0.494E-03    0.130E-02
RMM:   9    -0.231872871295E+04    0.92286E-05   -0.16580E-05  2937   0.381E-03
  26 F= -.23401284E+04 E0= -.23401284E+04  d E =-.667880E-01  mag=     3.0000
       N       E                     dE             d eps       ncg     rms          rms(c)
DAV:   1    -0.231871307443E+04    0.15648E-01   -0.25510E+01  4504   0.501E+00    0.136E+00
RMM:   2    -0.231884352591E+04   -0.13045E+00   -0.14244E+00  6277   0.943E-01    0.899E-01
RMM:   3    -0.231884949328E+04   -0.59674E-02   -0.12011E-01  6123   0.301E-01    0.106E+00
RMM:   4    -0.231883631378E+04    0.13180E-01   -0.17905E-02  6452   0.898E-02    0.625E-01
RMM:   5    -0.231883463628E+04    0.16775E-02   -0.76559E-03  5866   0.476E-02    0.532E-01
RMM:   6    -0.231883161972E+04    0.30166E-02   -0.66747E-03  5025   0.544E-02    0.169E-01
RMM:   7    -0.231883153136E+04    0.88356E-04   -0.18479E-03  5043   0.366E-02    0.164E-01
RMM:   8    -0.231883105455E+04    0.47681E-03   -0.42236E-04  5124   0.128E-02    0.398E-02
RMM:   9    -0.231883096748E+04    0.87068E-04   -0.14443E-04  4202   0.842E-03    0.220E-02
RMM:  10    -0.231883092263E+04    0.44855E-04   -0.70318E-05  4016   0.750E-03    0.101E-02
RMM:  11    -0.231883091229E+04    0.10332E-04   -0.22448E-05  3138   0.557E-03    0.687E-03
RMM:  12    -0.231883090973E+04    0.25599E-05   -0.20244E-05  3010   0.469E-03
  27 F= -.23402324E+04 E0= -.23402323E+04  d E =-.170736E+00  mag=     3.0000
       N       E                     dE             d eps       ncg     rms          rms(c)
DAV:   1    -0.231882836553E+04    0.25468E-02   -0.12111E+00  4768   0.108E+00    0.295E-01
RMM:   2    -0.231883428137E+04   -0.59158E-02   -0.65671E-02  6270   0.200E-01    0.178E-01
RMM:   3    -0.231883467844E+04   -0.39707E-03   -0.55688E-03  5936   0.658E-02    0.220E-01
RMM:   4    -0.231883408017E+04    0.59827E-03   -0.80879E-04  5673   0.194E-02    0.122E-01
RMM:   5    -0.231883405746E+04    0.22711E-04   -0.38194E-04  4358   0.118E-02    0.129E-01
RMM:   6    -0.231883389484E+04    0.16261E-03   -0.30889E-04  4664   0.123E-02    0.350E-02
RMM:   7    -0.231883389319E+04    0.16581E-05   -0.84172E-05  3088   0.865E-03
  28 F= -.23402357E+04 E0= -.23402357E+04  d E =-.174102E+00  mag=     3.0000
       N       E                     dE             d eps       ncg     rms          rms(c)
DAV:   1    -0.231885838314E+04   -0.24488E-01   -0.70973E+00  4504   0.261E+00    0.657E-01
RMM:   2    -0.231890893612E+04   -0.50553E-01   -0.53856E-01  6378   0.527E-01    0.499E-01
RMM:   3    -0.231890990505E+04   -0.96892E-03   -0.44939E-02  6159   0.161E-01    0.450E-01
RMM:   4    -0.231890745061E+04    0.24544E-02   -0.49385E-03  5987   0.412E-02    0.238E-01
RMM:   5    -0.231890797441E+04   -0.52380E-03   -0.21790E-03  5762   0.265E-02    0.374E-01
RMM:   6    -0.231890651412E+04    0.14603E-02   -0.21450E-03  5831   0.286E-02    0.101E-01
RMM:   7    -0.231890651086E+04    0.32691E-05   -0.54496E-04  4927   0.154E-02    0.907E-02
RMM:   8    -0.231890637721E+04    0.13364E-03   -0.12955E-04  3345   0.717E-03    0.234E-02
RMM:   9    -0.231890636306E+04    0.14156E-04   -0.30156E-05  3013   0.492E-03    0.137E-02
RMM:  10    -0.231890635613E+04    0.69301E-05   -0.20930E-05  2959   0.435E-03
  29 F= -.23403081E+04 E0= -.23403080E+04  d E =-.723126E-01  mag=     3.0000
       N       E                     dE             d eps       ncg     rms          rms(c)
DAV:   1    -0.231886857455E+04    0.37789E-01   -0.10332E+01  4504   0.316E+00    0.794E-01
RMM:   2    -0.231894220239E+04   -0.73628E-01   -0.78712E-01  6372   0.635E-01    0.601E-01
RMM:   3    -0.231894375355E+04   -0.15512E-02   -0.65916E-02  6166   0.190E-01    0.570E-01
RMM:   4    -0.231894032808E+04    0.34255E-02   -0.73500E-03  6023   0.490E-02    0.330E-01
RMM:   5    -0.231894051983E+04   -0.19175E-03   -0.29136E-03  5805   0.301E-02    0.403E-01
RMM:   6    -0.231893857555E+04    0.19443E-02   -0.33820E-03  5708   0.370E-02    0.100E-01
RMM:   7    -0.231893860293E+04   -0.27379E-04   -0.72636E-04  5140   0.194E-02    0.108E-01
RMM:   8    -0.231893841014E+04    0.19279E-03   -0.21203E-04  3814   0.857E-03    0.300E-02
RMM:   9    -0.231893838240E+04    0.27744E-04   -0.46694E-05  3181   0.567E-03    0.173E-02
RMM:  10    -0.231893836786E+04    0.14541E-04   -0.36369E-05  3229   0.530E-03    0.765E-03
RMM:  11    -0.231893836491E+04    0.29486E-05   -0.12557E-05  2901   0.445E-03
  30 F= -.23403399E+04 E0= -.23403398E+04  d E =-.104177E+00  mag=     3.0000
       N       E                     dE             d eps       ncg     rms          rms(c)
DAV:   1    -0.231892972683E+04    0.86410E-02   -0.97252E+00  4504   0.303E+00    0.724E-01
RMM:   2    -0.231899317601E+04   -0.63449E-01   -0.69116E-01  6308   0.575E-01    0.609E-01
RMM:   3    -0.231899478837E+04   -0.16124E-02   -0.66307E-02  6107   0.199E-01    0.633E-01
RMM:   4    -0.231899149407E+04    0.32943E-02   -0.72179E-03  6139   0.480E-02    0.345E-01
RMM:   5    -0.231899119458E+04    0.29949E-03   -0.29864E-03  5902   0.292E-02    0.366E-01
RMM:   6    -0.231898932092E+04    0.18737E-02   -0.25034E-03  5755   0.315E-02    0.971E-02
RMM:   7    -0.231898917048E+04    0.15044E-03   -0.87007E-04  4568   0.204E-02    0.358E-02
RMM:   8    -0.231898917519E+04   -0.47112E-05   -0.11016E-04  3512   0.104E-02    0.385E-02
RMM:   9    -0.231898916298E+04    0.12213E-04   -0.38387E-05  2973   0.535E-03    0.165E-02
RMM:  10    -0.231898918305E+04   -0.20078E-04   -0.27245E-05  3030   0.448E-03    0.759E-03
RMM:  11    -0.231898919703E+04   -0.13974E-04   -0.82931E-06  2857   0.370E-03    0.411E-03
RMM:  12    -0.231898920985E+04   -0.12826E-04   -0.81788E-06  2842   0.295E-03    0.270E-03
RMM:  13    -0.231898921714E+04   -0.72876E-05   -0.49890E-06  2781   0.288E-03
  31 F= -.23403905E+04 E0= -.23403904E+04  d E =-.505598E-01  mag=     3.0000
       N       E                     dE             d eps       ncg     rms          rms(c)
DAV:   1    -0.231898753150E+04    0.16784E-02   -0.62475E-01  4704   0.762E-01    0.183E-01
RMM:   2    -0.231899160606E+04   -0.40746E-02   -0.44437E-02  6342   0.146E-01    0.153E-01
RMM:   3    -0.231899173520E+04   -0.12914E-03   -0.42239E-03  5587   0.497E-02    0.163E-01
RMM:   4    -0.231899152231E+04    0.21290E-03   -0.44884E-04  3673   0.126E-02    0.864E-02
RMM:   5    -0.231899150276E+04    0.19542E-04   -0.19135E-04  3718   0.910E-03    0.907E-02
RMM:   6    -0.231899138828E+04    0.11448E-03   -0.17974E-04  4435   0.969E-03    0.241E-02
RMM:   7    -0.231899138190E+04    0.63833E-05   -0.58365E-05  3278   0.664E-03
  32 F= -.23403926E+04 E0= -.23403925E+04  d E =-.526528E-01  mag=     3.0000
       N       E                     dE             d eps       ncg     rms          rms(c)
DAV:   1    -0.231900476081E+04   -0.13373E-01   -0.73618E+00  4504   0.257E+00    0.588E-01
RMM:   2    -0.231904076996E+04   -0.36009E-01   -0.38747E-01  6231   0.440E-01    0.429E-01
RMM:   3    -0.231904542314E+04   -0.46532E-02   -0.38911E-02  6054   0.156E-01    0.763E-01
RMM:   4    -0.231904063543E+04    0.47877E-02   -0.41251E-03  6134   0.387E-02    0.191E-01
RMM:   5    -0.231904073099E+04   -0.95557E-04   -0.19975E-03  5659   0.249E-02    0.241E-01
RMM:   6    -0.231903992481E+04    0.80618E-03   -0.15197E-03  5674   0.247E-02    0.670E-02
RMM:   7    -0.231903991067E+04    0.14139E-04   -0.30688E-04  4530   0.126E-02    0.558E-02
RMM:   8    -0.231903986826E+04    0.42410E-04   -0.77318E-05  3027   0.597E-03    0.215E-02
RMM:   9    -0.231903986305E+04    0.52047E-05   -0.16620E-05  2953   0.395E-03
  33 F= -.23404410E+04 E0= -.23404409E+04  d E =-.483854E-01  mag=     3.0000
       N       E                     dE             d eps       ncg     rms          rms(c)
DAV:   1    -0.231887698854E+04    0.16288E+00   -0.43768E+01  4504   0.626E+00    0.145E+00
RMM:   2    -0.231910189224E+04   -0.22490E+00   -0.23788E+00  6239   0.110E+00    0.123E+00
RMM:   3    -0.231912701489E+04   -0.25123E-01   -0.23997E-01  6081   0.381E-01    0.195E+00
RMM:   4    -0.231909547448E+04    0.31540E-01   -0.25032E-02  6438   0.985E-02    0.478E-01
RMM:   5    -0.231909548151E+04   -0.70349E-05   -0.12048E-02  5794   0.599E-02    0.569E-01
RMM:   6    -0.231909106806E+04    0.44134E-02   -0.94934E-03  5895   0.611E-02    0.187E-01
RMM:   7    -0.231909082759E+04    0.24047E-03   -0.20748E-03  5763   0.324E-02    0.145E-01
RMM:   8    -0.231909054331E+04    0.28428E-03   -0.52275E-04  4762   0.138E-02    0.580E-02
RMM:   9    -0.231909049825E+04    0.45057E-04   -0.12932E-04  4050   0.781E-03    0.318E-02
RMM:  10    -0.231909049281E+04    0.54422E-05   -0.46908E-05  3340   0.643E-03
  34 F= -.23404913E+04 E0= -.23404913E+04  d E =-.987520E-01  mag=     3.0000
       N       E                     dE             d eps       ncg     rms          rms(c)
DAV:   1    -0.231909381747E+04   -0.33192E-02   -0.10870E+01  4504   0.307E+00    0.664E-01
RMM:   2    -0.231914320082E+04   -0.49383E-01   -0.52993E-01  6349   0.554E-01    0.442E-01
RMM:   3    -0.231914448129E+04   -0.12805E-02   -0.39898E-02  6067   0.169E-01    0.433E-01
RMM:   4    -0.231914257576E+04    0.19055E-02   -0.47187E-03  6311   0.447E-02    0.282E-01
RMM:   5    -0.231914279574E+04   -0.21998E-03   -0.23514E-03  5552   0.258E-02    0.400E-01
RMM:   6    -0.231914151878E+04    0.12770E-02   -0.20939E-03  5360   0.280E-02    0.141E-01
RMM:   7    -0.231914137970E+04    0.13908E-03   -0.75770E-04  4924   0.197E-02    0.943E-02
RMM:   8    -0.231914124499E+04    0.13471E-03   -0.14358E-04  3700   0.825E-03    0.232E-02
RMM:   9    -0.231914123512E+04    0.98680E-05   -0.28558E-05  2989   0.500E-03
  35 F= -.23405420E+04 E0= -.23405420E+04  d E =-.506879E-01  mag=     3.0000
       N       E                     dE             d eps       ncg     rms          rms(c)
DAV:   1    -0.231909222454E+04    0.49020E-01   -0.17144E+01  4504   0.390E+00    0.837E-01
RMM:   2    -0.231917096828E+04   -0.78744E-01   -0.84389E-01  6316   0.692E-01    0.570E-01
RMM:   3    -0.231917323613E+04   -0.22679E-02   -0.65591E-02  6022   0.217E-01    0.565E-01
RMM:   4    -0.231916991377E+04    0.33224E-02   -0.76015E-03  6417   0.563E-02    0.357E-01
RMM:   5    -0.231917025067E+04   -0.33690E-03   -0.37874E-03  5640   0.325E-02    0.508E-01
RMM:   6    -0.231916822351E+04    0.20272E-02   -0.34356E-03  5391   0.350E-02    0.193E-01
RMM:   7    -0.231916794001E+04    0.28351E-03   -0.13538E-03  5278   0.253E-02    0.127E-01
RMM:   8    -0.231916768965E+04    0.25036E-03   -0.25578E-04  4253   0.106E-02    0.311E-02
RMM:   9    -0.231916766287E+04    0.26772E-04   -0.55690E-05  3132   0.615E-03    0.197E-02
RMM:  10    -0.231916764937E+04    0.13507E-04   -0.31210E-05  3162   0.497E-03    0.745E-03
RMM:  11    -0.231916764642E+04    0.29485E-05   -0.10304E-05  2865   0.440E-03
  36 F= -.23405683E+04 E0= -.23405683E+04  d E =-.769975E-01  mag=     3.0000
       N       E                     dE             d eps       ncg     rms          rms(c)
DAV:   1    -0.231916653287E+04    0.11165E-02   -0.84812E+00  4504   0.267E+00    0.543E-01
RMM:   2    -0.231921286561E+04   -0.46333E-01   -0.48108E-01  6445   0.493E-01    0.545E-01
RMM:   3    -0.231921406230E+04   -0.11967E-02   -0.40579E-02  6195   0.147E-01    0.511E-01
RMM:   4    -0.231921220406E+04    0.18582E-02   -0.44901E-03  6057   0.383E-02    0.313E-01
RMM:   5    -0.231921169833E+04    0.50573E-03   -0.16641E-03  5637   0.228E-02    0.252E-01
RMM:   6    -0.231921094522E+04    0.75310E-03   -0.22718E-03  5054   0.291E-02    0.152E-01
RMM:   7    -0.231921069573E+04    0.24950E-03   -0.80489E-04  4565   0.211E-02    0.723E-02
RMM:   8    -0.231921062910E+04    0.66630E-04   -0.10695E-04  3456   0.737E-03    0.248E-02
RMM:   9    -0.231921063246E+04   -0.33601E-05   -0.29714E-05  2984   0.524E-03
  37 F= -.23406110E+04 E0= -.23406110E+04  d E =-.426559E-01  mag=     3.0000
       N       E                     dE             d eps       ncg     rms          rms(c)
DAV:   1    -0.231914389534E+04    0.66734E-01   -0.17155E+01  4504   0.377E+00    0.776E-01
RMM:   2    -0.231923758411E+04   -0.93689E-01   -0.97323E-01  6443   0.700E-01    0.773E-01
RMM:   3    -0.231924024849E+04   -0.26644E-02   -0.86229E-02  6197   0.215E-01    0.720E-01
RMM:   4    -0.231923636601E+04    0.38825E-02   -0.92200E-03  6346   0.543E-02    0.440E-01
RMM:   5    -0.231923541694E+04    0.94907E-03   -0.32893E-03  5883   0.312E-02    0.362E-01
RMM:   6    -0.231923395634E+04    0.14606E-02   -0.43947E-03  5335   0.392E-02    0.227E-01
RMM:   7    -0.231923340685E+04    0.54949E-03   -0.16958E-03  5071   0.280E-02    0.106E-01
RMM:   8    -0.231923327727E+04    0.12958E-03   -0.24099E-04  3917   0.103E-02    0.367E-02
RMM:   9    -0.231923330164E+04   -0.24366E-04   -0.66101E-05  3149   0.694E-03    0.192E-02
RMM:  10    -0.231923335322E+04   -0.51578E-04   -0.38086E-05  3118   0.494E-03    0.787E-03
RMM:  11    -0.231923338602E+04   -0.32809E-04   -0.10605E-05  2910   0.393E-03    0.473E-03
RMM:  12    -0.231923341472E+04   -0.28698E-04   -0.96457E-06  2849   0.287E-03    0.263E-03
RMM:  13    -0.231923343046E+04   -0.15739E-04   -0.56290E-06  2773   0.279E-03    0.203E-03
RMM:  14    -0.231923343697E+04   -0.65061E-05   -0.39656E-06  2646   0.210E-03
  38 F= -.23406333E+04 E0= -.23406333E+04  d E =-.649590E-01  mag=     3.0000
       N       E                     dE             d eps       ncg     rms          rms(c)
DAV:   1    -0.231921344598E+04    0.19984E-01   -0.11544E+01  4504   0.300E+00    0.643E-01
RMM:   2    -0.231927867123E+04   -0.65225E-01   -0.66540E-01  6441   0.560E-01    0.693E-01
RMM:   3    -0.231927934684E+04   -0.67561E-03   -0.61195E-02  6216   0.171E-01    0.569E-01
RMM:   4    -0.231927702194E+04    0.23249E-02   -0.63723E-03  6146   0.439E-02    0.354E-01
RMM:   5    -0.231927634331E+04    0.67863E-03   -0.20095E-03  5745   0.247E-02    0.282E-01
RMM:   6    -0.231927574329E+04    0.60003E-03   -0.25025E-03  5177   0.287E-02    0.208E-01
RMM:   7    -0.231927524660E+04    0.49668E-03   -0.12085E-03  5021   0.236E-02    0.774E-02
RMM:   8    -0.231927516529E+04    0.81317E-04   -0.14256E-04  3659   0.842E-03    0.270E-02
RMM:   9    -0.231927515735E+04    0.79352E-05   -0.32466E-05  3004   0.556E-03
  39 F= -.23406741E+04 E0= -.23406741E+04  d E =-.408502E-01  mag=     3.0000
       N       E                     dE             d eps       ncg     rms          rms(c)
DAV:   1    -0.231906485705E+04    0.21031E+00   -0.43369E+01  4504   0.580E+00    0.128E+00
RMM:   2    -0.231932168448E+04   -0.25683E+00   -0.26278E+00  6435   0.109E+00    0.135E+00
RMM:   3    -0.231932689791E+04   -0.52134E-02   -0.24606E-01  6216   0.342E-01    0.114E+00
RMM:   4    -0.231931586851E+04    0.11029E-01   -0.23803E-02  6426   0.873E-02    0.651E-01
RMM:   5    -0.231931440424E+04    0.14643E-02   -0.76394E-03  6058   0.466E-02    0.604E-01
RMM:   6    -0.231931157474E+04    0.28295E-02   -0.94724E-03  5541   0.545E-02    0.414E-01
RMM:   7    -0.231930988494E+04    0.16898E-02   -0.51143E-03  5688   0.439E-02    0.193E-01
RMM:   8    -0.231930939915E+04    0.48579E-03   -0.72126E-04  5069   0.177E-02    0.599E-02
RMM:   9    -0.231930937911E+04    0.20040E-04   -0.17885E-04  3705   0.940E-03    0.320E-02
RMM:  10    -0.231930939581E+04   -0.16698E-04   -0.72974E-05  3495   0.690E-03    0.136E-02
RMM:  11    -0.231930941769E+04   -0.21877E-04   -0.27693E-05  3175   0.542E-03    0.704E-03
RMM:  12    -0.231930943138E+04   -0.13694E-04   -0.10726E-05  2865   0.423E-03    0.467E-03
RMM:  13    -0.231930944430E+04   -0.12914E-04   -0.94001E-06  2850   0.344E-03    0.255E-03
RMM:  14    -0.231930945154E+04   -0.72404E-05   -0.59263E-06  2834   0.317E-03
  40 F= -.23407067E+04 E0= -.23407067E+04  d E =-.734005E-01  mag=     3.0000
       N       E                     dE             d eps       ncg     rms          rms(c)
DAV:   1    -0.231931358222E+04   -0.41379E-02   -0.85740E+00  4528   0.252E+00    0.558E-01
RMM:   2    -0.231935532928E+04   -0.41747E-01   -0.44321E-01  6336   0.486E-01    0.478E-01
RMM:   3    -0.231935634390E+04   -0.10146E-02   -0.35432E-02  6198   0.146E-01    0.445E-01
RMM:   4    -0.231935451740E+04    0.18265E-02   -0.40827E-03  6201   0.388E-02    0.302E-01
RMM:   5    -0.231935461294E+04   -0.95543E-04   -0.22932E-03  5248   0.244E-02    0.356E-01
RMM:   6    -0.231935347322E+04    0.11397E-02   -0.20616E-03  5361   0.265E-02    0.159E-01
RMM:   7    -0.231935332285E+04    0.15037E-03   -0.83334E-04  4661   0.188E-02    0.109E-01
RMM:   8    -0.231935315408E+04    0.16876E-03   -0.17252E-04  3626   0.866E-03    0.223E-02
RMM:   9    -0.231935314832E+04    0.57653E-05   -0.27196E-05  2978   0.469E-03
  41 F= -.23407492E+04 E0= -.23407492E+04  d E =-.425177E-01  mag=     3.0000
       N       E                     dE             d eps       ncg     rms          rms(c)
DAV:   1    -0.231934849223E+04    0.46619E-02   -0.24569E+00  4560   0.138E+00    0.300E-01
RMM:   2    -0.231936067384E+04   -0.12182E-01   -0.12918E-01  6323   0.261E-01    0.260E-01
RMM:   3    -0.231936091670E+04   -0.24285E-03   -0.10021E-02  6052   0.783E-02    0.240E-01
RMM:   4    -0.231936038853E+04    0.52816E-03   -0.11690E-03  5297   0.211E-02    0.163E-01
RMM:   5    -0.231936042631E+04   -0.37777E-04   -0.71012E-04  4343   0.147E-02    0.198E-01
RMM:   6    -0.231936007389E+04    0.35242E-03   -0.63548E-04  5071   0.154E-02    0.876E-02
RMM:   7    -0.231936003155E+04    0.42332E-04   -0.25308E-04  3528   0.108E-02    0.609E-02
RMM:   8    -0.231935997954E+04    0.52010E-04   -0.50710E-05  3047   0.583E-03    0.123E-02
RMM:   9    -0.231935997871E+04    0.83641E-06   -0.97281E-06  2900   0.326E-03
  42 F= -.23407554E+04 E0= -.23407554E+04  d E =-.487107E-01  mag=     3.0000
       N       E                     dE             d eps       ncg     rms          rms(c)
DAV:   1    -0.231936654713E+04   -0.65676E-02   -0.54179E+00  4504   0.210E+00    0.467E-01
RMM:   2    -0.231939946947E+04   -0.32922E-01   -0.34454E-01  6373   0.396E-01    0.379E-01
RMM:   3    -0.231940209736E+04   -0.26279E-02   -0.29939E-02  6137   0.127E-01    0.493E-01
RMM:   4    -0.231939995727E+04    0.21401E-02   -0.32698E-03  6085   0.322E-02    0.213E-01
RMM:   5    -0.231939982101E+04    0.13626E-03   -0.13688E-03  5501   0.201E-02    0.199E-01
RMM:   6    -0.231939927188E+04    0.54913E-03   -0.13481E-03  5595   0.222E-02    0.717E-02
RMM:   7    -0.231939926108E+04    0.10794E-04   -0.23424E-04  3774   0.113E-02    0.635E-02
RMM:   8    -0.231939922098E+04    0.40108E-04   -0.78613E-05  3031   0.627E-03    0.296E-02
RMM:   9    -0.231939921469E+04    0.62818E-05   -0.18077E-05  2934   0.411E-03
  43 F= -.23407936E+04 E0= -.23407936E+04  d E =-.382200E-01  mag=     3.0000
       N       E                     dE             d eps       ncg     rms          rms(c)
DAV:   1    -0.231915026897E+04    0.24895E+00   -0.48385E+01  4504   0.627E+00    0.143E+00
RMM:   2    -0.231945959267E+04   -0.30932E+00   -0.32376E+00  6363   0.120E+00    0.116E+00
RMM:   3    -0.231948485574E+04   -0.25263E-01   -0.30301E-01  6177   0.397E-01    0.147E+00
RMM:   4    -0.231946538485E+04    0.19471E-01   -0.30609E-02  6629   0.984E-02    0.650E-01
RMM:   5    -0.231946327162E+04    0.21132E-02   -0.12408E-02  6161   0.581E-02    0.560E-01
RMM:   6    -0.231945939577E+04    0.38759E-02   -0.12392E-02  5952   0.630E-02    0.275E-01
RMM:   7    -0.231945869274E+04    0.70302E-03   -0.24159E-03  5471   0.324E-02    0.175E-01
RMM:   8    -0.231945853607E+04    0.15668E-03   -0.86138E-04  5165   0.172E-02    0.129E-01
RMM:   9    -0.231945841432E+04    0.12175E-03   -0.28052E-04  4157   0.106E-02    0.439E-02
RMM:  10    -0.231945849228E+04   -0.77959E-04   -0.11784E-04  3450   0.775E-03    0.197E-02
RMM:  11    -0.231945858430E+04   -0.92025E-04   -0.57538E-05  3560   0.596E-03    0.825E-03
RMM:  12    -0.231945862351E+04   -0.39205E-04   -0.16689E-05  2926   0.503E-03    0.569E-03
RMM:  13    -0.231945864542E+04   -0.21913E-04   -0.12963E-05  2880   0.371E-03    0.347E-03
RMM:  14    -0.231945865701E+04   -0.11586E-04   -0.82127E-06  2847   0.360E-03    0.192E-03
RMM:  15    -0.231945866162E+04   -0.46162E-05   -0.51339E-06  2789   0.280E-03
  44 F= -.23408500E+04 E0= -.23408500E+04  d E =-.946387E-01  mag=     3.0000
       N       E                     dE             d eps       ncg     rms          rms(c)
DAV:   1    -0.231943880521E+04    0.19852E-01   -0.10442E+01  4516   0.296E+00    0.741E-01
RMM:   2    -0.231951056361E+04   -0.71758E-01   -0.72985E-01  6311   0.574E-01    0.758E-01
RMM:   3    -0.231951516337E+04   -0.45998E-02   -0.71737E-02  6147   0.196E-01    0.814E-01
RMM:   4    -0.231950884735E+04    0.63160E-02   -0.71176E-03  6226   0.502E-02    0.269E-01
RMM:   5    -0.231950874024E+04    0.10711E-03   -0.33926E-03  5890   0.331E-02    0.289E-01
RMM:   6    -0.231950765105E+04    0.10892E-02   -0.25642E-03  5838   0.298E-02    0.124E-01
RMM:   7    -0.231950760969E+04    0.41353E-04   -0.57267E-04  4796   0.153E-02    0.109E-01
RMM:   8    -0.231950746880E+04    0.14090E-03   -0.18635E-04  3518   0.827E-03    0.366E-02
RMM:   9    -0.231950746754E+04    0.12595E-05   -0.44059E-05  3040   0.526E-03
  45 F= -.23408981E+04 E0= -.23408981E+04  d E =-.481061E-01  mag=     3.0000
       N       E                     dE             d eps       ncg     rms          rms(c)
DAV:   1    -0.231934378491E+04    0.16368E+00   -0.29139E+01  4504   0.492E+00    0.125E+00
RMM:   2    -0.231954739271E+04   -0.20361E+00   -0.20706E+00  6324   0.959E-01    0.129E+00
RMM:   3    -0.231955984435E+04   -0.12452E-01   -0.20855E-01  6167   0.330E-01    0.136E+00
RMM:   4    -0.231954206226E+04    0.17782E-01   -0.20221E-02  6382   0.842E-02    0.450E-01
RMM:   5    -0.231954134728E+04    0.71498E-03   -0.95339E-03  6053   0.552E-02    0.455E-01
RMM:   6    -0.231953883659E+04    0.25107E-02   -0.68932E-03  5979   0.476E-02    0.230E-01
RMM:   7    -0.231953853399E+04    0.30260E-03   -0.15113E-03  5493   0.248E-02    0.171E-01
RMM:   8    -0.231953822709E+04    0.30690E-03   -0.52563E-04  4794   0.131E-02    0.730E-02
RMM:   9    -0.231953823630E+04   -0.92057E-05   -0.13972E-04  3814   0.789E-03    0.306E-02
RMM:  10    -0.231953830719E+04   -0.70894E-04   -0.63949E-05  3448   0.677E-03    0.127E-02
RMM:  11    -0.231953836712E+04   -0.59932E-04   -0.39555E-05  3459   0.560E-03    0.749E-03
RMM:  12    -0.231953839495E+04   -0.27823E-04   -0.13852E-05  2877   0.484E-03    0.478E-03
RMM:  13    -0.231953841311E+04   -0.18169E-04   -0.11908E-05  2853   0.382E-03    0.267E-03
RMM:  14    -0.231953842227E+04   -0.91604E-05   -0.68471E-06  2839   0.354E-03
  46 F= -.23409279E+04 E0= -.23409279E+04  d E =-.778651E-01  mag=     3.0000
       N       E                     dE             d eps       ncg     rms          rms(c)
DAV:   1    -0.231949575010E+04    0.42663E-01   -0.10403E+01  4516   0.287E+00    0.687E-01
RMM:   2    -0.231958192657E+04   -0.86176E-01   -0.84094E-01  6482   0.583E-01    0.991E-01
RMM:   3    -0.231958052975E+04    0.13968E-02   -0.80814E-02  6343   0.184E-01    0.647E-01
RMM:   4    -0.231957691260E+04    0.36172E-02   -0.80462E-03  5972   0.455E-02    0.295E-01
RMM:   5    -0.231957714085E+04   -0.22826E-03   -0.28177E-03  5611   0.291E-02    0.360E-01
RMM:   6    -0.231957567864E+04    0.14622E-02   -0.24151E-03  5695   0.277E-02    0.152E-01
RMM:   7    -0.231957559559E+04    0.83054E-04   -0.87606E-04  4979   0.175E-02    0.109E-01
RMM:   8    -0.231957544584E+04    0.14975E-03   -0.23797E-04  3457   0.913E-03    0.362E-02
RMM:   9    -0.231957544246E+04    0.33845E-05   -0.39983E-05  3001   0.489E-03
  47 F= -.23409647E+04 E0= -.23409647E+04  d E =-.368560E-01  mag=     3.0000
       N       E                     dE             d eps       ncg     rms          rms(c)
DAV:   1    -0.231945777165E+04    0.11767E+00   -0.17611E+01  4504   0.374E+00    0.898E-01
RMM:   2    -0.231960537688E+04   -0.14761E+00   -0.14371E+00  6494   0.743E-01    0.131E+00
RMM:   3    -0.231960281305E+04    0.25638E-02   -0.13990E-01  6357   0.238E-01    0.838E-01
RMM:   4    -0.231959663105E+04    0.61820E-02   -0.13688E-02  6054   0.589E-02    0.384E-01
RMM:   5    -0.231959685895E+04   -0.22790E-03   -0.50485E-03  5764   0.389E-02    0.465E-01
RMM:   6    -0.231959459020E+04    0.22688E-02   -0.40391E-03  5841   0.348E-02    0.209E-01
RMM:   7    -0.231959435127E+04    0.23893E-03   -0.12474E-03  5164   0.208E-02    0.121E-01
RMM:   8    -0.231959418930E+04    0.16197E-03   -0.34628E-04  3662   0.109E-02    0.541E-02
RMM:   9    -0.231959417868E+04    0.10624E-04   -0.65825E-05  3100   0.591E-03    0.244E-02
RMM:  10    -0.231959420499E+04   -0.26308E-04   -0.30887E-05  2950   0.462E-03    0.812E-03
RMM:  11    -0.231959422104E+04   -0.16056E-04   -0.84998E-06  2915   0.348E-03    0.448E-03
RMM:  12    -0.231959423143E+04   -0.10385E-04   -0.43800E-06  2811   0.245E-03    0.264E-03
RMM:  13    -0.231959423802E+04   -0.65916E-05   -0.26634E-06  2723   0.216E-03
  48 F= -.23409833E+04 E0= -.23409833E+04  d E =-.554121E-01  mag=     3.0000
       N       E                     dE             d eps       ncg     rms          rms(c)
DAV:   1    -0.231951708664E+04    0.77145E-01   -0.14106E+01  4536   0.348E+00    0.950E-01
RMM:   2    -0.231964299757E+04   -0.12591E+00   -0.12662E+00  6409   0.708E-01    0.108E+00
RMM:   3    -0.231964793318E+04   -0.49356E-02   -0.12673E-01  6219   0.243E-01    0.979E-01
RMM:   4    -0.231963836106E+04    0.95721E-02   -0.13062E-02  6252   0.627E-02    0.333E-01
RMM:   5    -0.231963905087E+04   -0.68981E-03   -0.50988E-03  5847   0.386E-02    0.482E-01
RMM:   6    -0.231963638381E+04    0.26671E-02   -0.36500E-03  5755   0.339E-02    0.157E-01
RMM:   7    -0.231963620750E+04    0.17631E-03   -0.97180E-04  5384   0.199E-02    0.109E-01
RMM:   8    -0.231963606502E+04    0.14248E-03   -0.31430E-04  3971   0.104E-02    0.495E-02
RMM:   9    -0.231963604492E+04    0.20094E-04   -0.76840E-05  3340   0.686E-03    0.208E-02
RMM:  10    -0.231963605876E+04   -0.13831E-04   -0.38980E-05  3240   0.555E-03    0.874E-03
RMM:  11    -0.231963607003E+04   -0.11272E-04   -0.18462E-05  3006   0.471E-03    0.554E-03
RMM:  12    -0.231963607736E+04   -0.73363E-05   -0.11266E-05  2849   0.412E-03
  49 F= -.23410253E+04 E0= -.23410253E+04  d E =-.420448E-01  mag=     3.0000
       N       E                     dE             d eps       ncg     rms          rms(c)
DAV:   1    -0.231960878925E+04    0.27281E-01   -0.39061E+00  4560   0.183E+00    0.494E-01
RMM:   2    -0.231964367853E+04   -0.34889E-01   -0.35059E-01  6410   0.371E-01    0.559E-01
RMM:   3    -0.231964492012E+04   -0.12416E-02   -0.33531E-02  6188   0.127E-01    0.515E-01
RMM:   4    -0.231964230692E+04    0.26132E-02   -0.36155E-03  5888   0.328E-02    0.176E-01
RMM:   5    -0.231964248959E+04   -0.18268E-03   -0.13816E-03  5360   0.207E-02    0.253E-01
RMM:   6    -0.231964174464E+04    0.74495E-03   -0.10967E-03  5481   0.193E-02    0.855E-02
RMM:   7    -0.231964171472E+04    0.29923E-04   -0.32419E-04  4392   0.117E-02    0.691E-02
RMM:   8    -0.231964164955E+04    0.65173E-04   -0.89857E-05  3114   0.634E-03    0.224E-02
RMM:   9    -0.231964164515E+04    0.44027E-05   -0.22148E-05  2957   0.431E-03
  50 F= -.23410310E+04 E0= -.23410310E+04  d E =-.477108E-01  mag=     3.0000
       N       E                     dE             d eps       ncg     rms          rms(c)
DAV:   1    -0.231961775184E+04    0.23898E-01   -0.32912E+00  4516   0.167E+00    0.468E-01
RMM:   2    -0.231966332246E+04   -0.45571E-01   -0.47005E-01  6566   0.381E-01    0.494E-01
RMM:   3    -0.231966637821E+04   -0.30557E-02   -0.48072E-02  6275   0.131E-01    0.452E-01
RMM:   4    -0.231966444563E+04    0.19326E-02   -0.50171E-03  5976   0.330E-02    0.188E-01
RMM:   5    -0.231966457228E+04   -0.12665E-03   -0.10843E-03  5040   0.166E-02    0.256E-01
RMM:   6    -0.231966389808E+04    0.67420E-03   -0.88662E-04  5226   0.167E-02    0.774E-02
RMM:   7    -0.231966387154E+04    0.26536E-04   -0.33518E-04  4632   0.117E-02    0.539E-02
RMM:   8    -0.231966384497E+04    0.26573E-04   -0.88907E-05  3018   0.655E-03    0.271E-02
RMM:   9    -0.231966384218E+04    0.27872E-05   -0.18174E-05  2908   0.430E-03
  51 F= -.23410535E+04 E0= -.23410535E+04  d E =-.224463E-01  mag=     3.0000
       N       E                     dE             d eps       ncg     rms          rms(c)
DAV:   1    -0.231939590926E+04    0.26794E+00   -0.20526E+01  4504   0.417E+00    0.118E+00
RMM:   2    -0.231968211830E+04   -0.28621E+00   -0.29556E+00  6588   0.954E-01    0.129E+00
RMM:   3    -0.231970362359E+04   -0.21505E-01   -0.33425E-01  6362   0.340E-01    0.118E+00
RMM:   4    -0.231969017025E+04    0.13453E-01   -0.31686E-02  6441   0.846E-02    0.460E-01
RMM:   5    -0.231969005818E+04    0.11207E-03   -0.67017E-03  5986   0.421E-02    0.565E-01
RMM:   6    -0.231968718875E+04    0.28694E-02   -0.46764E-03  5799   0.347E-02    0.270E-01
RMM:   7    -0.231968649170E+04    0.69705E-03   -0.22836E-03  5286   0.276E-02    0.110E-01
RMM:   8    -0.231968646347E+04    0.28234E-04   -0.56939E-04  4500   0.167E-02    0.932E-02
RMM:   9    -0.231968638104E+04    0.82426E-04   -0.17093E-04  3616   0.817E-03    0.410E-02
RMM:  10    -0.231968640867E+04   -0.27633E-04   -0.81667E-05  3078   0.645E-03    0.154E-02
RMM:  11    -0.231968643942E+04   -0.30746E-04   -0.23373E-05  2985   0.459E-03    0.711E-03
RMM:  12    -0.231968645705E+04   -0.17632E-04   -0.92024E-06  2876   0.390E-03    0.425E-03
RMM:  13    -0.231968646686E+04   -0.98118E-05   -0.61171E-06  2828   0.303E-03
  52 F= -.23410767E+04 E0= -.23410767E+04  d E =-.457014E-01  mag=     3.0000
       N       E                     dE             d eps       ncg     rms          rms(c)
DAV:   1    -0.231960419262E+04    0.82264E-01   -0.68170E+00  4504   0.242E+00    0.711E-01
RMM:   2    -0.231970729760E+04   -0.10310E+00   -0.10881E+00  6578   0.546E-01    0.654E-01
RMM:   3    -0.231971735242E+04   -0.10055E-01   -0.11917E-01  6277   0.199E-01    0.674E-01
RMM:   4    -0.231971305598E+04    0.42964E-02   -0.12337E-02  6347   0.500E-02    0.268E-01
RMM:   5    -0.231971216858E+04    0.88740E-03   -0.22459E-03  5458   0.245E-02    0.154E-01
RMM:   6    -0.231971240682E+04   -0.23823E-03   -0.13859E-03  5594   0.209E-02    0.243E-01
RMM:   7    -0.231971187781E+04    0.52901E-03   -0.52416E-04  4835   0.134E-02    0.600E-02
RMM:   8    -0.231971187001E+04    0.77929E-05   -0.10714E-04  3190   0.655E-03    0.436E-02
RMM:   9    -0.231971186177E+04    0.82454E-05   -0.53914E-05  2967   0.554E-03
  53 F= -.23411015E+04 E0= -.23411015E+04  d E =-.248287E-01  mag=     3.0000
       N       E                     dE             d eps       ncg     rms          rms(c)
DAV:   1    -0.231959740129E+04    0.11447E+00   -0.78741E+00  4504   0.261E+00    0.766E-01
RMM:   2    -0.231971648527E+04   -0.11908E+00   -0.12577E+00  6558   0.588E-01    0.708E-01
RMM:   3    -0.231972803900E+04   -0.11554E-01   -0.13948E-01  6261   0.217E-01    0.727E-01
RMM:   4    -0.231972305178E+04    0.49872E-02   -0.14389E-02  6421   0.540E-02    0.288E-01
RMM:   5    -0.231972205589E+04    0.99590E-03   -0.24677E-03  5508   0.260E-02    0.175E-01
RMM:   6    -0.231972237984E+04   -0.32395E-03   -0.16682E-03  5659   0.224E-02    0.277E-01
RMM:   7    -0.231972168884E+04    0.69100E-03   -0.66000E-04  5219   0.150E-02    0.634E-02
RMM:   8    -0.231972169702E+04   -0.81734E-05   -0.15819E-04  3312   0.763E-03    0.575E-02
RMM:   9    -0.231972167243E+04    0.24589E-04   -0.72237E-05  3024   0.620E-03    0.286E-02
RMM:  10    -0.231972168235E+04   -0.99259E-05   -0.27172E-05  2918   0.418E-03
  54 F= -.23411108E+04 E0= -.23411107E+04  d E =-.340353E-01  mag=     3.0000
       N       E                     dE             d eps       ncg     rms          rms(c)
DAV:   1    -0.231964183605E+04    0.79836E-01   -0.60333E+00  4504   0.229E+00    0.657E-01
RMM:   2    -0.231973701620E+04   -0.95180E-01   -0.10124E+00  6585   0.512E-01    0.594E-01
RMM:   3    -0.231974662219E+04   -0.96060E-02   -0.11292E-01  6206   0.190E-01    0.598E-01
RMM:   4    -0.231974354811E+04    0.30741E-02   -0.11562E-02  6156   0.463E-02    0.279E-01
RMM:   5    -0.231974300456E+04    0.54356E-03   -0.16760E-03  5306   0.209E-02    0.231E-01
RMM:   6    -0.231974267390E+04    0.33066E-03   -0.11009E-03  5433   0.172E-02    0.185E-01
RMM:   7    -0.231974237641E+04    0.29749E-03   -0.72824E-04  4881   0.151E-02    0.822E-02
RMM:   8    -0.231974234133E+04    0.35076E-04   -0.23554E-04  3352   0.110E-02    0.569E-02
RMM:   9    -0.231974233134E+04    0.99923E-05   -0.58346E-05  3180   0.578E-03
  55 F= -.23411303E+04 E0= -.23411303E+04  d E =-.195962E-01  mag=     3.0000
       N       E                     dE             d eps       ncg     rms          rms(c)
DAV:   1    -0.231967452653E+04    0.67815E-01   -0.44271E+00  4516   0.196E+00    0.566E-01
RMM:   2    -0.231974447122E+04   -0.69945E-01   -0.74487E-01  6585   0.436E-01    0.509E-01
RMM:   3    -0.231975148745E+04   -0.70162E-02   -0.82647E-02  6196   0.162E-01    0.510E-01
RMM:   4    -0.231974922995E+04    0.22575E-02   -0.84877E-03  5983   0.397E-02    0.235E-01
RMM:   5    -0.231974883735E+04    0.39260E-03   -0.12212E-03  5103   0.181E-02    0.194E-01
RMM:   6    -0.231974861387E+04    0.22349E-03   -0.79787E-04  5214   0.150E-02    0.159E-01
RMM:   7    -0.231974842006E+04    0.19380E-03   -0.54893E-04  4754   0.132E-02    0.788E-02
RMM:   8    -0.231974837697E+04    0.43092E-04   -0.17714E-04  3227   0.958E-03    0.445E-02
RMM:   9    -0.231974838171E+04   -0.47340E-05   -0.42112E-05  3116   0.517E-03
  56 F= -.23411355E+04 E0= -.23411355E+04  d E =-.247554E-01  mag=     3.0000
       N       E                     dE             d eps       ncg     rms          rms(c)
DAV:   1    -0.231964860386E+04    0.99773E-01   -0.65646E+00  4504   0.240E+00    0.716E-01
RMM:   2    -0.231976286497E+04   -0.11426E+00   -0.11986E+00  6532   0.548E-01    0.720E-01
RMM:   3    -0.231977259542E+04   -0.97304E-02   -0.13695E-01  6242   0.212E-01    0.619E-01
RMM:   4    -0.231976919055E+04    0.34049E-02   -0.12940E-02  6184   0.489E-02    0.290E-01
RMM:   5    -0.231976891492E+04    0.27563E-03   -0.18595E-03  5403   0.210E-02    0.289E-01
RMM:   6    -0.231976811128E+04    0.80363E-03   -0.12544E-03  5586   0.182E-02    0.153E-01
RMM:   7    -0.231976796056E+04    0.15072E-03   -0.94954E-04  5057   0.169E-02    0.993E-02
RMM:   8    -0.231976787308E+04    0.87478E-04   -0.28303E-04  3477   0.114E-02    0.524E-02
RMM:   9    -0.231976786045E+04    0.12631E-04   -0.46439E-05  3062   0.553E-03    0.283E-02
RMM:  10    -0.231976786980E+04   -0.93466E-05   -0.28099E-05  2901   0.474E-03
  57 F= -.23411536E+04 E0= -.23411536E+04  d E =-.181423E-01  mag=     3.0000
       N       E                     dE             d eps       ncg     rms          rms(c)
DAV:   1    -0.231969443095E+04    0.73430E-01   -0.43973E+00  4528   0.197E+00    0.582E-01
RMM:   2    -0.231977036283E+04   -0.75932E-01   -0.80062E-01  6534   0.447E-01    0.552E-01
RMM:   3    -0.231977724882E+04   -0.68860E-02   -0.89627E-02  6221   0.170E-01    0.505E-01
RMM:   4    -0.231977499422E+04    0.22546E-02   -0.86223E-03  5940   0.398E-02    0.237E-01
RMM:   5    -0.231977480469E+04    0.18952E-03   -0.12505E-03  5150   0.174E-02    0.235E-01
RMM:   6    -0.231977426264E+04    0.54205E-03   -0.83956E-04  5339   0.152E-02    0.124E-01
RMM:   7    -0.231977416445E+04    0.98190E-04   -0.65511E-04  4869   0.142E-02    0.831E-02
RMM:   8    -0.231977409696E+04    0.67491E-04   -0.18689E-04  3193   0.965E-03    0.403E-02
RMM:   9    -0.231977408839E+04    0.85651E-05   -0.29643E-05  2977   0.475E-03
  58 F= -.23411588E+04 E0= -.23411588E+04  d E =-.232798E-01  mag=     3.0000
       N       E                     dE             d eps       ncg     rms          rms(c)
DAV:   1    -0.231970789976E+04    0.66197E-01   -0.40315E+00  4528   0.191E+00    0.589E-01
RMM:   2    -0.231978776804E+04   -0.79868E-01   -0.82881E-01  6533   0.459E-01    0.633E-01
RMM:   3    -0.231979346952E+04   -0.57015E-02   -0.93503E-02  6260   0.177E-01    0.495E-01
RMM:   4    -0.231979134891E+04    0.21206E-02   -0.86313E-03  5958   0.403E-02    0.244E-01
RMM:   5    -0.231979119769E+04    0.15122E-03   -0.12116E-03  5161   0.174E-02    0.245E-01
RMM:   6    -0.231979053567E+04    0.66202E-03   -0.89067E-04  5328   0.161E-02    0.114E-01
RMM:   7    -0.231979049390E+04    0.41765E-04   -0.72218E-04  5309   0.148E-02    0.102E-01
RMM:   8    -0.231979037788E+04    0.11603E-03   -0.20491E-04  3225   0.912E-03    0.332E-02
RMM:   9    -0.231979037464E+04    0.32395E-05   -0.35340E-05  3000   0.529E-03
  59 F= -.23411740E+04 E0= -.23411740E+04  d E =-.152057E-01  mag=     3.0000
       N       E                     dE             d eps       ncg     rms          rms(c)
DAV:   1    -0.231946599640E+04    0.32438E+00   -0.16116E+01  4504   0.383E+00    0.119E+00
RMM:   2    -0.231979029798E+04   -0.32430E+00   -0.33554E+00  6542   0.929E-01    0.131E+00
RMM:   3    -0.231981079191E+04   -0.20494E-01   -0.39730E-01  6308   0.363E-01    0.947E-01
RMM:   4    -0.231980325963E+04    0.75323E-02   -0.34894E-02  6396   0.807E-02    0.519E-01
RMM:   5    -0.231980230976E+04    0.94987E-03   -0.46752E-03  5910   0.323E-02    0.485E-01
RMM:   6    -0.231979959406E+04    0.27157E-02   -0.36390E-03  5910   0.314E-02    0.214E-01
RMM:   7    -0.231979929060E+04    0.30346E-03   -0.27095E-03  5592   0.278E-02    0.170E-01
RMM:   8    -0.231979899704E+04    0.29356E-03   -0.77617E-04  4911   0.176E-02    0.829E-02
RMM:   9    -0.231979894243E+04    0.54611E-04   -0.15116E-04  3966   0.796E-03    0.502E-02
RMM:  10    -0.231979892975E+04    0.12685E-04   -0.77055E-05  2970   0.748E-03    0.170E-02
RMM:  11    -0.231979894722E+04   -0.17470E-04   -0.36455E-05  2990   0.446E-03    0.701E-03
RMM:  12    -0.231979896291E+04   -0.15689E-04   -0.86166E-06  2884   0.377E-03    0.414E-03
RMM:  13    -0.231979897403E+04   -0.11119E-04   -0.67049E-06  2837   0.278E-03    0.272E-03
RMM:  14    -0.231979897953E+04   -0.55029E-05   -0.37824E-06  2820   0.274E-03
  60 F= -.23411805E+04 E0= -.23411805E+04  d E =-.217347E-01  mag=     3.0000
       N       E                     dE             d eps       ncg     rms          rms(c)
DAV:   1    -0.231976963372E+04    0.29340E-01   -0.14687E+00  4560   0.116E+00    0.351E-01
RMM:   2    -0.231979846719E+04   -0.28833E-01   -0.30298E-01  6528   0.276E-01    0.334E-01
RMM:   3    -0.231980108198E+04   -0.26148E-02   -0.32376E-02  6105   0.104E-01    0.324E-01
RMM:   4    -0.231980014061E+04    0.94137E-03   -0.31166E-03  5042   0.246E-02    0.142E-01
RMM:   5    -0.231980008863E+04    0.51977E-04   -0.43789E-04  3975   0.107E-02    0.146E-01
RMM:   6    -0.231979984740E+04    0.24123E-03   -0.35924E-04  4485   0.115E-02    0.718E-02
RMM:   7    -0.231979983008E+04    0.17319E-04   -0.27785E-04  4321   0.973E-03    0.623E-02
RMM:   8    -0.231979978381E+04    0.46272E-04   -0.70684E-05  2963   0.647E-03    0.169E-02
RMM:   9    -0.231979978060E+04    0.32081E-05   -0.12531E-05  2921   0.386E-03
  61 F= -.23411819E+04 E0= -.23411819E+04  d E =-.231505E-01  mag=     3.0000
       N       E                     dE             d eps       ncg     rms          rms(c)
DAV:   1    -0.231973469754E+04    0.65086E-01   -0.40094E+00  4528   0.197E+00    0.565E-01
RMM:   2    -0.231981033153E+04   -0.75634E-01   -0.77699E-01  6543   0.468E-01    0.606E-01
RMM:   3    -0.231981501837E+04   -0.46868E-02   -0.81892E-02  6288   0.170E-01    0.456E-01
RMM:   4    -0.231981305279E+04    0.19656E-02   -0.76686E-03  5927   0.388E-02    0.219E-01
RMM:   5    -0.231981301681E+04    0.35985E-04   -0.11077E-03  5015   0.174E-02    0.249E-01
RMM:   6    -0.231981233352E+04    0.68329E-03   -0.86176E-04  5403   0.162E-02    0.113E-01
RMM:   7    -0.231981228343E+04    0.50090E-04   -0.58193E-04  5154   0.136E-02    0.956E-02
RMM:   8    -0.231981217085E+04    0.11258E-03   -0.17240E-04  3185   0.863E-03    0.276E-02
RMM:   9    -0.231981216522E+04    0.56300E-05   -0.33633E-05  3021   0.511E-03
  62 F= -.23411934E+04 E0= -.23411934E+04  d E =-.114788E-01  mag=     3.0000
       N       E                     dE             d eps       ncg     rms          rms(c)
DAV:   1    -0.231971578891E+04    0.96382E-01   -0.52206E+00  4504   0.225E+00    0.650E-01
RMM:   2    -0.231981478589E+04   -0.98997E-01   -0.10183E+00  6552   0.535E-01    0.690E-01
RMM:   3    -0.231982090878E+04   -0.61229E-02   -0.10819E-01  6313   0.196E-01    0.515E-01
RMM:   4    -0.231981840205E+04    0.25067E-02   -0.10064E-02  6073   0.443E-02    0.250E-01
RMM:   5    -0.231981835182E+04    0.50230E-04   -0.14080E-03  5226   0.194E-02    0.285E-01
RMM:   6    -0.231981746457E+04    0.88725E-03   -0.10964E-03  5531   0.180E-02    0.126E-01
RMM:   7    -0.231981740550E+04    0.59070E-04   -0.73145E-04  5306   0.152E-02    0.108E-01
RMM:   8    -0.231981726726E+04    0.13824E-03   -0.22807E-04  3339   0.970E-03    0.333E-02
RMM:   9    -0.231981726265E+04    0.46100E-05   -0.45400E-05  3098   0.551E-03
  63 F= -.23411975E+04 E0= -.23411975E+04  d E =-.155752E-01  mag=     3.0000
       N       E                     dE             d eps       ncg     rms          rms(c)
DAV:   1    -0.231979106166E+04    0.26206E-01   -0.18404E+00  4560   0.133E+00    0.368E-01
RMM:   2    -0.231982509079E+04   -0.34029E-01   -0.34786E-01  6593   0.316E-01    0.409E-01
RMM:   3    -0.231982676562E+04   -0.16748E-02   -0.34526E-02  6206   0.111E-01    0.278E-01
RMM:   4    -0.231982600858E+04    0.75705E-03   -0.33094E-03  5092   0.252E-02    0.135E-01
RMM:   5    -0.231982593174E+04    0.76839E-04   -0.46913E-04  4258   0.128E-02    0.143E-01
RMM:   6    -0.231982574706E+04    0.18468E-03   -0.34786E-04  4603   0.110E-02    0.925E-02
RMM:   7    -0.231982570961E+04    0.37451E-04   -0.22185E-04  3902   0.900E-03    0.601E-02
RMM:   8    -0.231982566822E+04    0.41385E-04   -0.67770E-05  2962   0.660E-03    0.172E-02
RMM:   9    -0.231982566838E+04   -0.16249E-06   -0.11469E-05  2917   0.338E-03
  64 F= -.23412053E+04 E0= -.23412053E+04  d E =-.777289E-02  mag=     3.0000
       N       E                     dE             d eps       ncg     rms          rms(c)
DAV:   1    -0.231969930156E+04    0.12637E+00   -0.70898E+00  4504   0.261E+00    0.718E-01
[...]
DAV:   1    -0.232024984432E+04   -0.49817E-06   -0.12256E-04  5032   0.115E-02    0.726E-03
RMM:   2    -0.232024984621E+04   -0.18849E-05   -0.15684E-05  2549   0.278E-03
 249 F= -.23415932E+04 E0= -.23415932E+04  d E =-.145791E-04  mag=     3.0000
       N       E                     dE             d eps       ncg     rms          rms(c)
DAV:   1    -0.232024983116E+04    0.13162E-04   -0.37238E-03  4512   0.593E-02    0.193E-02
RMM:   2    -0.232024987720E+04   -0.46042E-04   -0.46780E-04  4845   0.141E-02    0.170E-02
RMM:   3    -0.232024988183E+04   -0.46265E-05   -0.51331E-05  2841   0.631E-03
 250 F= -.23415932E+04 E0= -.23415932E+04  d E =-.184214E-04  mag=     3.0000
       N       E                     dE             d eps       ncg     rms          rms(c)
DAV:   1    -0.232024987817E+04   -0.96721E-06   -0.76199E-06  3584   0.441E-03    0.630E-03
RMM:   2    -0.232024987943E+04   -0.12611E-05   -0.37723E-06  2284   0.175E-03
 251 F= -.23415932E+04 E0= -.23415932E+04  d E =-.158284E-04  mag=     3.0000
       N       E                     dE             d eps       ncg     rms          rms(c)
DAV:   1    -0.232024987985E+04   -0.16780E-05   -0.28895E-03  4464   0.533E-02    0.175E-02
RMM:   2    -0.232024991493E+04   -0.35084E-04   -0.37174E-04  4554   0.129E-02    0.120E-02
RMM:   3    -0.232024991983E+04   -0.49009E-05   -0.41294E-05  2813   0.600E-03
 252 F= -.23415932E+04 E0= -.23415932E+04  d E =-.155816E-04  mag=     3.0000
       N       E                     dE             d eps       ncg     rms          rms(c)
DAV:   1    -0.232024991364E+04    0.12933E-05   -0.35656E-05  4328   0.698E-03    0.543E-03
RMM:   2    -0.232024991425E+04   -0.61328E-06   -0.53563E-06  2309   0.234E-03
 253 F= -.23415932E+04 E0= -.23415932E+04  d E =-.124854E-04  mag=     3.0000
       N       E                     dE             d eps       ncg     rms          rms(c)
DAV:   1    -0.232024991786E+04   -0.42220E-05   -0.18304E-03  4448   0.427E-02    0.139E-02
RMM:   2    -0.232024993938E+04   -0.21525E-04   -0.21264E-04  3935   0.102E-02    0.153E-02
RMM:   3    -0.232024994053E+04   -0.11444E-05   -0.25201E-05  2531   0.535E-03
 254 F= -.23415933E+04 E0= -.23415933E+04  d E =-.109741E-04  mag=     3.0000
       N       E                     dE             d eps       ncg     rms          rms(c)
DAV:   1    -0.232024993726E+04    0.21264E-05   -0.15515E-05  3280   0.484E-03    0.420E-03
RMM:   2    -0.232024993743E+04   -0.16845E-06   -0.28122E-06  2180   0.204E-03
 255 F= -.23415933E+04 E0= -.23415933E+04  d E =-.910315E-05  mag=     3.0000
       N       E                     dE             d eps       ncg     rms          rms(c)
DAV:   1    -0.232024993919E+04   -0.19329E-05   -0.17371E-03  4384   0.410E-02    0.131E-02
RMM:   2    -0.232024995610E+04   -0.16907E-04   -0.17564E-04  3796   0.937E-03    0.997E-03
RMM:   3    -0.232024995809E+04   -0.19891E-05   -0.19755E-05  2470   0.497E-03
 256 F= -.23415933E+04 E0= -.23415933E+04  d E =-.130965E-04  mag=     3.0000
       N       E                     dE             d eps       ncg     rms          rms(c)
DAV:   1    -0.232024995728E+04   -0.11836E-05   -0.58962E-05  4712   0.809E-03    0.562E-03
RMM:   2    -0.232024995921E+04   -0.19263E-05   -0.99252E-06  2424   0.247E-03
 257 F= -.23415933E+04 E0= -.23415933E+04  d E =-.128447E-04  mag=     3.0000
       N       E                     dE             d eps       ncg     rms          rms(c)
DAV:   1    -0.232024996120E+04   -0.39177E-05   -0.17432E-03  4392   0.399E-02    0.123E-02
RMM:   2    -0.232024997960E+04   -0.18400E-04   -0.19461E-04  3744   0.946E-03    0.829E-03
RMM:   3    -0.232024998220E+04   -0.26035E-05   -0.23371E-05  2418   0.514E-03
 258 F= -.23415933E+04 E0= -.23415933E+04  d E =-.882042E-05  mag=     3.0000
       N       E                     dE             d eps       ncg     rms          rms(c)
DAV:   1    -0.232024998209E+04   -0.24943E-05   -0.27103E-05  3936   0.564E-03    0.443E-03
RMM:   2    -0.232024998269E+04   -0.60027E-06   -0.47390E-06  2337   0.222E-03
 259 F= -.23415933E+04 E0= -.23415933E+04  d E =-.761496E-05  mag=     3.0000
       N       E                     dE             d eps       ncg     rms          rms(c)
DAV:   1    -0.232024999239E+04   -0.10300E-04   -0.11920E-03  4352   0.334E-02    0.110E-02
RMM:   2    -0.232025000674E+04   -0.14348E-04   -0.14492E-04  3414   0.799E-03    0.107E-02
RMM:   3    -0.232025000814E+04   -0.13992E-05   -0.17744E-05  2330   0.463E-03
 260 F= -.23415933E+04 E0= -.23415933E+04  d E =-.120537E-04  mag=     3.0000
       N       E                     dE             d eps       ncg     rms          rms(c)
DAV:   1    -0.232025001154E+04   -0.48012E-05   -0.17796E-04  4616   0.131E-02    0.576E-03
RMM:   2    -0.232025001394E+04   -0.23964E-05   -0.24557E-05  2579   0.349E-03
 261 F= -.23415933E+04 E0= -.23415933E+04  d E =-.126491E-04  mag=     3.0000
       N       E                     dE             d eps       ncg     rms          rms(c)
DAV:   1    -0.232025002699E+04   -0.15444E-04   -0.62085E-04  4272   0.252E-02    0.946E-03
RMM:   2    -0.232025003555E+04   -0.85585E-05   -0.79854E-05  3083   0.659E-03
 262 F= -.23415933E+04 E0= -.23415933E+04  d E =-.117234E-04  mag=     3.0000
       N       E                     dE             d eps       ncg     rms          rms(c)
DAV:   1    -0.232025003730E+04   -0.10317E-04   -0.43810E-05  4176   0.807E-03    0.853E-03
RMM:   2    -0.232025004534E+04   -0.80380E-05   -0.20204E-05  2429   0.413E-03
 263 F= -.23415933E+04 E0= -.23415933E+04  d E =-.192380E-04  mag=     3.0000
       N       E                     dE             d eps       ncg     rms          rms(c)
DAV:   1    -0.232025004023E+04   -0.29251E-05   -0.52169E-04  4272   0.224E-02    0.791E-03
RMM:   2    -0.232025004831E+04   -0.80825E-05   -0.83126E-05  3026   0.600E-03
 264 F= -.23415933E+04 E0= -.23415933E+04  d E =0.221529E-05  mag=     3.0000
       N       E                     dE             d eps       ncg     rms          rms(c)
DAV:   1    -0.232025004962E+04   -0.93928E-05   -0.19684E-05  2768   0.587E-03    0.827E-03
RMM:   2    -0.232025005809E+04   -0.84706E-05   -0.17114E-05  2383   0.323E-03
 265 F= -.23415933E+04 E0= -.23415933E+04  d E =-.682126E-05  mag=     3.0000
       N       E                     dE             d eps       ncg     rms          rms(c)
DAV:   1    -0.232025005753E+04   -0.79062E-05   -0.49283E-04  4280   0.210E-02    0.739E-03
RMM:   2    -0.232025006531E+04   -0.77842E-05   -0.81902E-05  3061   0.564E-03
 266 F= -.23415933E+04 E0= -.23415933E+04  d E =0.312722E-05  mag=     3.0000
       N       E                     dE             d eps       ncg     rms          rms(c)
DAV:   1    -0.232025006620E+04   -0.86678E-05   -0.97389E-06  2664   0.421E-03    0.479E-03
RMM:   2    -0.232025006762E+04   -0.14205E-05   -0.45149E-06  1921   0.162E-03
 267 F= -.23415933E+04 E0= -.23415933E+04  d E =0.115187E-05  mag=     3.0000
       N       E                     dE             d eps       ncg     rms          rms(c)
DAV:   1    -0.232025007576E+04   -0.95652E-05   -0.28149E-04  4192   0.161E-02    0.547E-03
RMM:   2    -0.232025008005E+04   -0.42934E-05   -0.44391E-05  2698   0.428E-03
 268 F= -.23415933E+04 E0= -.23415933E+04  d E =-.349117E-05  mag=     3.0000
       N       E                     dE             d eps       ncg     rms          rms(c)
DAV:   1    -0.232025008279E+04   -0.70282E-05   -0.23064E-05  2936   0.537E-03    0.604E-03
RMM:   2    -0.232025008747E+04   -0.46822E-05   -0.10406E-05  2299   0.285E-03
 269 F= -.23415933E+04 E0= -.23415933E+04  d E =-.868359E-05  mag=     3.0000
       N       E                     dE             d eps       ncg     rms          rms(c)
DAV:   1    -0.232025008800E+04   -0.52154E-05   -0.16484E-04  4312   0.122E-02    0.440E-03
RMM:   2    -0.232025009111E+04   -0.31036E-05   -0.31606E-05  2497   0.344E-03
 270 F= -.23415933E+04 E0= -.23415933E+04  d E =0.522592E-06  mag=     3.0000
       N       E                     dE             d eps       ncg     rms          rms(c)
DAV:   1    -0.232025009361E+04   -0.56041E-05   -0.50564E-05  3296   0.693E-03    0.505E-03
RMM:   2    -0.232025009715E+04   -0.35386E-05   -0.14938E-05  2348   0.313E-03
 271 F= -.23415933E+04 E0= -.23415933E+04  d E =-.325719E-05  mag=     3.0000
       N       E                     dE             d eps       ncg     rms          rms(c)
DAV:   1    -0.232025009836E+04   -0.47470E-05   -0.10239E-04  3704   0.963E-03    0.353E-03
RMM:   2    -0.232025010035E+04   -0.19941E-05   -0.21199E-05  2374   0.323E-03
 272 F= -.23415933E+04 E0= -.23415933E+04  d E =-.120012E-05  mag=     3.0000
       N       E                     dE             d eps       ncg     rms          rms(c)
DAV:   1    -0.232025010143E+04   -0.30764E-05   -0.15378E-05  2664   0.409E-03    0.208E-03
RMM:   2    -0.232025010188E+04   -0.44733E-06   -0.40503E-06  2199   0.213E-03
 273 F= -.23415933E+04 E0= -.23415933E+04  d E =-.200399E-05  mag=     3.0000
       N       E                     dE             d eps       ncg     rms          rms(c)
DAV:   1    -0.232025010306E+04   -0.16276E-05   -0.53549E-05  3456   0.685E-03    0.297E-03
RMM:   2    -0.232025010417E+04   -0.11102E-05   -0.10748E-05  2317   0.237E-03
 274 F= -.23415933E+04 E0= -.23415933E+04  d E =-.284445E-05  mag=     3.0000
       N       E                     dE             d eps       ncg     rms          rms(c)
DAV:   1    -0.232025010784E+04   -0.47852E-05   -0.13518E-04  3888   0.106E-02    0.430E-03
RMM:   2    -0.232025011079E+04   -0.29414E-05   -0.26617E-05  2449   0.338E-03
 275 F= -.23415933E+04 E0= -.23415933E+04  d E =-.464134E-05  mag=     3.0000
       N       E                     dE             d eps       ncg     rms          rms(c)
DAV:   1    -0.232025011142E+04   -0.35749E-05   -0.12411E-04  3784   0.104E-02    0.468E-03
RMM:   2    -0.232025011466E+04   -0.32368E-05   -0.27376E-05  2482   0.366E-03
 276 F= -.23415933E+04 E0= -.23415933E+04  d E =-.664071E-05  mag=     3.0000
       N       E                     dE             d eps       ncg     rms          rms(c)
DAV:   1    -0.232025011818E+04   -0.67638E-05   -0.13231E-04  3760   0.105E-02    0.438E-03
RMM:   2    -0.232025012124E+04   -0.30549E-05   -0.28650E-05  2457   0.362E-03
 277 F= -.23415933E+04 E0= -.23415933E+04  d E =-.275688E-05  mag=     3.0000
       N       E                     dE             d eps       ncg     rms          rms(c)
DAV:   1    -0.232025012250E+04   -0.43197E-05   -0.19321E-05  2842   0.464E-03    0.360E-03
RMM:   2    -0.232025012384E+04   -0.13409E-05   -0.63213E-06  2213   0.240E-03
 278 F= -.23415933E+04 E0= -.23415933E+04  d E =-.402502E-05  mag=     3.0000
       N       E                     dE             d eps       ncg     rms          rms(c)
DAV:   1    -0.232025012555E+04   -0.30477E-05   -0.66507E-05  3664   0.747E-03    0.316E-03
RMM:   2    -0.232025012678E+04   -0.12310E-05   -0.13266E-05  2301   0.257E-03
 279 F= -.23415933E+04 E0= -.23415933E+04  d E =-.428816E-05  mag=     3.0000
       N       E                     dE             d eps       ncg     rms          rms(c)
DAV:   1    -0.232025013475E+04   -0.91968E-05   -0.15677E-04  3888   0.112E-02    0.419E-03
RMM:   2    -0.232025013774E+04   -0.29893E-05   -0.29366E-05  2457   0.344E-03
 280 F= -.23415933E+04 E0= -.23415933E+04  d E =-.484272E-05  mag=     3.0000
       N       E                     dE             d eps       ncg     rms          rms(c)
DAV:   1    -0.232025014370E+04   -0.89483E-05   -0.21262E-04  4120   0.131E-02    0.603E-03
RMM:   2    -0.232025014936E+04   -0.56674E-05   -0.43593E-05  2646   0.403E-03
 281 F= -.23415933E+04 E0= -.23415933E+04  d E =-.940497E-05  mag=     3.0000
       N       E                     dE             d eps       ncg     rms          rms(c)
DAV:   1    -0.232025015039E+04   -0.66948E-05   -0.57376E-05  3552   0.752E-03    0.425E-03
RMM:   2    -0.232025015245E+04   -0.20558E-05   -0.14479E-05  2359   0.324E-03
 282 F= -.23415933E+04 E0= -.23415933E+04  d E =-.896028E-05  mag=     3.0000
       N       E                     dE             d eps       ncg     rms          rms(c)
DAV:   1    -0.232025015919E+04   -0.88006E-05   -0.16399E-04  3904   0.113E-02    0.451E-03
RMM:   2    -0.232025016240E+04   -0.32076E-05   -0.32115E-05  2476   0.349E-03
 283 F= -.23415934E+04 E0= -.23415934E+04  d E =-.380897E-05  mag=     3.0000
       N       E                     dE             d eps       ncg     rms          rms(c)
DAV:   1    -0.232025016957E+04   -0.10376E-04   -0.48400E-04  4216   0.189E-02    0.808E-03
RMM:   2    -0.232025018035E+04   -0.10780E-04   -0.92758E-05  3028   0.562E-03    0.146E-02
RMM:   3    -0.232025017906E+04    0.12857E-05   -0.11959E-05  2273   0.361E-03
 284 F= -.23415934E+04 E0= -.23415934E+04  d E =-.982982E-05  mag=     3.0000
       N       E                     dE             d eps       ncg     rms          rms(c)
DAV:   1    -0.232025016811E+04    0.12236E-04   -0.19126E-03  4292   0.372E-02    0.139E-02
RMM:   2    -0.232025020049E+04   -0.32374E-04   -0.33477E-04  3891   0.100E-02    0.101E-02
RMM:   3    -0.232025020298E+04   -0.24949E-05   -0.37289E-05  2585   0.517E-03
 285 F= -.23415934E+04 E0= -.23415934E+04  d E =-.124790E-04  mag=     3.0000
       N       E                     dE             d eps       ncg     rms          rms(c)
DAV:   1    -0.232025018369E+04    0.16794E-04   -0.50240E-04  4208   0.191E-02    0.808E-03
RMM:   2    -0.232025019138E+04   -0.76861E-05   -0.80395E-05  2919   0.487E-03
 286 F= -.23415934E+04 E0= -.23415934E+04  d E =-.116825E-04  mag=     3.0000
       N       E                     dE             d eps       ncg     rms          rms(c)
DAV:   1    -0.232025019595E+04   -0.12263E-04   -0.14727E-04  3840   0.110E-02    0.918E-03
RMM:   2    -0.232025020788E+04   -0.11925E-04   -0.34870E-05  2582   0.361E-03    0.311E-02
RMM:   3    -0.232025019757E+04    0.10307E-04   -0.61589E-06  2083   0.224E-03    0.223E-03
RMM:   4    -0.232025019756E+04    0.16356E-07   -0.52625E-07  1167   0.791E-04
 287 F= -.23415934E+04 E0= -.23415934E+04  d E =-.119931E-04  mag=     3.0000
       N       E                     dE             d eps       ncg     rms          rms(c)
DAV:   1    -0.232025020364E+04   -0.60658E-05   -0.22405E-04  3768   0.123E-02    0.435E-03
RMM:   2    -0.232025020745E+04   -0.38145E-05   -0.39886E-05  2510   0.345E-03
 288 F= -.23415934E+04 E0= -.23415934E+04  d E =-.440559E-05  mag=     3.0000
       N       E                     dE             d eps       ncg     rms          rms(c)
DAV:   1    -0.232025021014E+04   -0.64973E-05   -0.73473E-04  4176   0.221E-02    0.853E-03
RMM:   2    -0.232025022407E+04   -0.13934E-04   -0.13826E-04  3181   0.606E-03    0.898E-03
RMM:   3    -0.232025022474E+04   -0.66604E-06   -0.16477E-05  2291   0.387E-03
 289 F= -.23415934E+04 E0= -.23415934E+04  d E =-.117815E-04  mag=     3.0000
       N       E                     dE             d eps       ncg     rms          rms(c)
DAV:   1    -0.232025019791E+04    0.26162E-04   -0.29040E-03  4284   0.438E-02    0.163E-02
RMM:   2    -0.232025024917E+04   -0.51262E-04   -0.52187E-04  4246   0.116E-02    0.141E-02
RMM:   3    -0.232025025378E+04   -0.46093E-05   -0.57966E-05  2610   0.558E-03
 290 F= -.23415934E+04 E0= -.23415934E+04  d E =-.210414E-04  mag=     3.0000
       N       E                     dE             d eps       ncg     rms          rms(c)
DAV:   1    -0.232025025990E+04   -0.10725E-04   -0.72805E-04  4224   0.241E-02    0.100E-02
RMM:   2    -0.232025027442E+04   -0.14523E-04   -0.13326E-04  3284   0.661E-03    0.136E-02
RMM:   3    -0.232025027373E+04    0.69334E-06   -0.17296E-05  2370   0.405E-03
 291 F= -.23415934E+04 E0= -.23415934E+04  d E =-.125851E-04  mag=     3.0000
       N       E                     dE             d eps       ncg     rms          rms(c)
DAV:   1    -0.232025020271E+04    0.71712E-04   -0.65381E-03  4468   0.712E-02    0.262E-02
RMM:   2    -0.232025031110E+04   -0.10840E-03   -0.10854E-03  5425   0.182E-02    0.268E-02
RMM:   3    -0.232025031812E+04   -0.70123E-05   -0.11795E-04  2912   0.751E-03    0.261E-02
RMM:   4    -0.232025031262E+04    0.54918E-05   -0.14154E-05  2792   0.273E-03
 292 F= -.23415934E+04 E0= -.23415934E+04  d E =-.294462E-04  mag=     3.0000
       N       E                     dE             d eps       ncg     rms          rms(c)
DAV:   1    -0.232025031176E+04    0.63603E-05   -0.17165E-03  4276   0.348E-02    0.135E-02
RMM:   2    -0.232025034156E+04   -0.29802E-04   -0.29104E-04  3828   0.892E-03    0.159E-02
RMM:   3    -0.232025034228E+04   -0.71849E-06   -0.33554E-05  2619   0.489E-03
 293 F= -.23415934E+04 E0= -.23415934E+04  d E =-.115859E-04  mag=     3.0000
       N       E                     dE             d eps       ncg     rms          rms(c)
DAV:   1    -0.232025034396E+04   -0.24049E-05   -0.61315E-04  4400   0.209E-02    0.881E-03
RMM:   2    -0.232025035524E+04   -0.11273E-04   -0.11031E-04  3233   0.577E-03    0.103E-02
RMM:   3    -0.232025035571E+04   -0.47052E-06   -0.14659E-05  2380   0.374E-03
 294 F= -.23415934E+04 E0= -.23415934E+04  d E =-.142362E-04  mag=     3.0000
       N       E                     dE             d eps       ncg     rms          rms(c)
DAV:   1    -0.232025037226E+04   -0.17023E-04   -0.12040E-03  4320   0.324E-02    0.114E-02
RMM:   2    -0.232025039143E+04   -0.19167E-04   -0.19609E-04  3562   0.839E-03    0.983E-03
RMM:   3    -0.232025039363E+04   -0.22093E-05   -0.23968E-05  2370   0.475E-03
 295 F= -.23415934E+04 E0= -.23415934E+04  d E =-.166432E-04  mag=     3.0000
       N       E                     dE             d eps       ncg     rms          rms(c)
DAV:   1    -0.232025039574E+04   -0.43128E-05   -0.15970E-03  4356   0.373E-02    0.137E-02
RMM:   2    -0.232025042031E+04   -0.24568E-04   -0.26045E-04  3781   0.973E-03    0.836E-03
RMM:   3    -0.232025042310E+04   -0.27959E-05   -0.30707E-05  2647   0.534E-03
 296 F= -.23415934E+04 E0= -.23415934E+04  d E =-.215906E-04  mag=     3.0000
       N       E                     dE             d eps       ncg     rms          rms(c)
DAV:   1    -0.232025041413E+04    0.61774E-05   -0.12159E-04  4448   0.105E-02    0.623E-03
RMM:   2    -0.232025041707E+04   -0.29369E-05   -0.18428E-05  2481   0.262E-03
 297 F= -.23415934E+04 E0= -.23415934E+04  d E =-.221217E-04  mag=     3.0000
       N       E                     dE             d eps       ncg     rms          rms(c)
DAV:   1    -0.232025041827E+04   -0.41365E-05   -0.26406E-05  3136   0.540E-03    0.364E-03
RMM:   2    -0.232025042015E+04   -0.18876E-05   -0.59142E-06  2002   0.223E-03
 298 F= -.23415934E+04 E0= -.23415934E+04  d E =-.221062E-04  mag=     3.0000
       N       E                     dE             d eps       ncg     rms          rms(c)
DAV:   1    -0.232025041697E+04    0.12945E-05   -0.57102E-06  2488   0.311E-03    0.149E-03
RMM:   2    -0.232025041711E+04   -0.13999E-06   -0.15127E-06  1752   0.126E-03
 299 F= -.23415934E+04 E0= -.23415934E+04  d E =-.205844E-04  mag=     3.0000
       N       E                     dE             d eps       ncg     rms          rms(c)
DAV:   1    -0.232025041321E+04    0.37588E-05   -0.15721E-03  4320   0.365E-02    0.125E-02
RMM:   2    -0.232025043675E+04   -0.23536E-04   -0.24822E-04  3743   0.906E-03    0.708E-03
RMM:   3    -0.232025043977E+04   -0.30244E-05   -0.27044E-05  2283   0.479E-03
 300 F= -.23415935E+04 E0= -.23415935E+04  d E =-.990881E-05  mag=     3.0000
       N       E                     dE             d eps       ncg     rms          rms(c)
DAV:   1    -0.232025044086E+04   -0.41150E-05   -0.82345E-05  4248   0.869E-03    0.427E-03
RMM:   2    -0.232025044243E+04   -0.15644E-05   -0.15570E-05  2343   0.267E-03
 301 F= -.23415935E+04 E0= -.23415935E+04  d E =-.969770E-05  mag=     3.0000
