       N       E                     dE             d eps       ncg     rms          rms(c)
DAV:   1     0.132241160430E+05    0.13224E+05   -0.84713E+05  4528   0.145E+03
DAV:   2    -0.100285085312E+04   -0.14227E+05   -0.13598E+05  4944   0.332E+02
DAV:   3    -0.248739102991E+04   -0.14845E+04   -0.14660E+04  5560   0.116E+02
DAV:   4    -0.253338600084E+04   -0.45995E+02   -0.45741E+02  6696   0.291E+01
DAV:   5    -0.253428374026E+04   -0.89774E+00   -0.89573E+00  6320   0.350E+00    0.171E+02
RMM:   6    -0.150139078963E+04    0.10329E+04   -0.19617E+03  4479   0.385E+01    0.775E+01
RMM:   7    -0.168634068092E+04   -0.18495E+03   -0.40559E+02  5225   0.149E+01    0.596E+01
RMM:   8    -0.171437577036E+04   -0.28035E+02   -0.79932E+01  5377   0.838E+00    0.448E+01
RMM:   9    -0.175991748286E+04   -0.45542E+02   -0.54723E+01  5307   0.612E+00    0.376E+01
RMM:  10    -0.189945964808E+04   -0.13954E+03   -0.64239E+01  4896   0.769E+00    0.407E+01
RMM:  11    -0.195866813290E+04   -0.59208E+02   -0.32446E+01  5078   0.548E+00    0.245E+01
RMM:  12    -0.202456943457E+04   -0.65901E+02   -0.25816E+01  5250   0.444E+00    0.210E+01
RMM:  13    -0.208433480030E+04   -0.59765E+02   -0.22652E+01  5152   0.398E+00    0.156E+01
RMM:  14    -0.218633696472E+04   -0.10200E+03   -0.61201E+01  4823   0.589E+00    0.133E+01
RMM:  15    -0.225473188528E+04   -0.68395E+02   -0.51168E+01  4827   0.521E+00    0.859E+00
RMM:  16    -0.230569998752E+04   -0.50968E+02   -0.46881E+01  4647   0.479E+00    0.449E+00
RMM:  17    -0.231624898999E+04   -0.10549E+02   -0.11363E+01  4838   0.293E+00    0.385E+00
RMM:  18    -0.232016260478E+04   -0.39136E+01   -0.45261E+00  4905   0.124E+00    0.188E+00
RMM:  19    -0.232245711084E+04   -0.22945E+01   -0.14219E+00  4913   0.932E-01    0.150E+00
RMM:  20    -0.232274550714E+04   -0.28840E+00   -0.25213E-01  5502   0.378E-01    0.162E+00
RMM:  21    -0.232280054402E+04   -0.55037E-01   -0.28117E-02  5969   0.105E-01    0.198E+00
RMM:  22    -0.232284466092E+04   -0.44117E-01   -0.23577E-02  4673   0.110E-01    0.839E-01
RMM:  23    -0.232296201649E+04   -0.11736E+00   -0.34133E-02  4512   0.136E-01    0.648E-01
RMM:  24    -0.232298471761E+04   -0.22701E-01   -0.12078E-02  4552   0.100E-01    0.748E-01
RMM:  25    -0.232298652893E+04   -0.18113E-02   -0.61973E-03  4785   0.556E-02    0.101E+00
RMM:  26    -0.232298466157E+04    0.18674E-02   -0.95153E-04  4656   0.265E-02    0.109E+00
RMM:  27    -0.232300004228E+04   -0.15381E-01   -0.54520E-03  4729   0.361E-02    0.657E-01
RMM:  28    -0.232301888630E+04   -0.18844E-01   -0.49639E-03  4534   0.486E-02    0.508E-01
RMM:  29    -0.232303542065E+04   -0.16534E-01   -0.58380E-03  4543   0.543E-02    0.472E-01
RMM:  30    -0.232304821832E+04   -0.12798E-01   -0.82391E-03  4791   0.576E-02    0.863E-01
RMM:  31    -0.232305336768E+04   -0.51494E-02   -0.24730E-03  4657   0.354E-02    0.127E+00
RMM:  32    -0.232304785849E+04    0.55092E-02   -0.28670E-03  4427   0.276E-02    0.733E-01
RMM:  33    -0.232304774004E+04    0.11844E-03   -0.16724E-03  4319   0.233E-02    0.558E-01
RMM:  34    -0.232304620802E+04    0.15320E-02   -0.36976E-03  4758   0.316E-02    0.489E-01
RMM:  35    -0.232304438398E+04    0.18240E-02   -0.19481E-03  4506   0.248E-02    0.590E-01
RMM:  36    -0.232304101595E+04    0.33680E-02   -0.21403E-03  4959   0.225E-02    0.810E-01
RMM:  37    -0.232304047473E+04    0.54122E-03   -0.21249E-04  3402   0.942E-03    0.841E-01
RMM:  38    -0.232304070830E+04   -0.23357E-03   -0.18622E-05  2934   0.313E-03    0.829E-01
RMM:  39    -0.232304382233E+04   -0.31140E-02   -0.73712E-04  4077   0.122E-02    0.658E-01
RMM:  40    -0.232305002423E+04   -0.62019E-02   -0.59830E-03  4875   0.356E-02    0.484E-01
RMM:  41    -0.232305369811E+04   -0.36739E-02   -0.32056E-03  4561   0.286E-02    0.685E-01
RMM:  42    -0.232305508192E+04   -0.13838E-02   -0.70725E-04  4291   0.134E-02    0.808E-01
RMM:  43    -0.232305412537E+04    0.95655E-03   -0.79021E-05  2968   0.670E-03    0.750E-01
RMM:  44    -0.232304926593E+04    0.48594E-02   -0.39459E-03  4745   0.281E-02    0.504E-01
RMM:  45    -0.232304553415E+04    0.37318E-02   -0.39231E-03  4680   0.311E-02    0.626E-01
RMM:  46    -0.232304094093E+04    0.45932E-02   -0.31622E-03  5099   0.261E-02    0.898E-01
RMM:  47    -0.232303475344E+04    0.61875E-02   -0.24372E-03  4744   0.234E-02    0.122E+00
RMM:  48    -0.232303613509E+04   -0.13817E-02   -0.11873E-04  3068   0.814E-03    0.115E+00
RMM:  49    -0.232303576975E+04    0.36534E-03   -0.18804E-05  2886   0.284E-03    0.116E+00
RMM:  50    -0.232303648269E+04   -0.71294E-03   -0.21592E-05  2767   0.286E-03    0.113E+00
RMM:  51    -0.232304044724E+04   -0.39645E-02   -0.84988E-04  4228   0.133E-02    0.910E-01
RMM:  52    -0.232304452622E+04   -0.40790E-02   -0.16123E-03  4490   0.193E-02    0.667E-01
RMM:  53    -0.232304685728E+04   -0.23311E-02   -0.11265E-03  4394   0.159E-02    0.533E-01
RMM:  54    -0.232304896324E+04   -0.21060E-02   -0.12801E-03  4513   0.166E-02    0.450E-01
RMM:  55    -0.232305050726E+04   -0.15440E-02   -0.86886E-04  4189   0.142E-02    0.450E-01
RMM:  56    -0.232305136386E+04   -0.85660E-03   -0.32863E-04  3601   0.931E-03    0.480E-01
RMM:  57    -0.232305124259E+04    0.12128E-03   -0.22465E-05  2886   0.454E-03    0.481E-01
RMM:  58    -0.232305125707E+04   -0.14482E-04   -0.45501E-06  2679   0.196E-03    0.482E-01
RMM:  59    -0.232305127543E+04   -0.18360E-04   -0.10539E-06  2468   0.152E-03    0.483E-01
RMM:  60    -0.232305129359E+04   -0.18164E-04   -0.67340E-07  2138   0.965E-04    0.483E-01
RMM:  61    -0.232305203271E+04   -0.73912E-03   -0.11904E-04  3070   0.509E-03    0.513E-01
RMM:  62    -0.232305220837E+04   -0.17565E-03   -0.20292E-05  2798   0.310E-03    0.526E-01
RMM:  63    -0.232305162892E+04    0.57945E-03   -0.50269E-05  2797   0.347E-03    0.501E-01
RMM:  64    -0.232305077190E+04    0.85703E-03   -0.19296E-04  3171   0.624E-03    0.471E-01
RMM:  65    -0.232304794371E+04    0.28282E-02   -0.21098E-03  4728   0.201E-02    0.504E-01
RMM:  66    -0.232304423286E+04    0.37109E-02   -0.28189E-03  4637   0.254E-02    0.714E-01
RMM:  67    -0.232303886821E+04    0.53646E-02   -0.29760E-03  5034   0.255E-02    0.103E+00
RMM:  68    -0.232303151508E+04    0.73531E-02   -0.27980E-03  4837   0.251E-02    0.139E+00
RMM:  69    -0.232302304419E+04    0.84709E-02   -0.23936E-03  4755   0.235E-02    0.173E+00
RMM:  70    -0.232301996803E+04    0.30762E-02   -0.49657E-04  3903   0.119E-02    0.184E+00
RMM:  71    -0.232302152719E+04   -0.15592E-02   -0.41088E-05  2933   0.461E-03    0.178E+00
RMM:  72    -0.232302363437E+04   -0.21072E-02   -0.93030E-05  2930   0.478E-03    0.170E+00
RMM:  73    -0.232302866864E+04   -0.50343E-02   -0.62588E-04  4027   0.112E-02    0.150E+00
RMM:  74    -0.232303468583E+04   -0.60172E-02   -0.13036E-03  4475   0.168E-02    0.123E+00
RMM:  75    -0.232303929298E+04   -0.46071E-02   -0.12968E-03  4510   0.169E-02    0.996E-01
RMM:  76    -0.232304451387E+04   -0.52209E-02   -0.26339E-03  4862   0.236E-02    0.687E-01
RMM:  77    -0.232304803871E+04   -0.35248E-02   -0.26007E-03  4710   0.244E-02    0.491E-01
RMM:  78    -0.232304949503E+04   -0.14563E-02   -0.10217E-03  4401   0.156E-02    0.456E-01
RMM:  79    -0.232305018215E+04   -0.68711E-03   -0.30430E-04  3516   0.859E-03    0.461E-01
RMM:  80    -0.232305075165E+04   -0.56950E-03   -0.13058E-04  3180   0.647E-03    0.473E-01
RMM:  81    -0.232305050795E+04    0.24370E-03   -0.16393E-05  2864   0.403E-03    0.473E-01
RMM:  82    -0.232305061518E+04   -0.10723E-03   -0.34593E-06  2620   0.160E-03    0.476E-01
RMM:  83    -0.232305050871E+04    0.10647E-03   -0.27958E-06  2542   0.161E-03    0.475E-01
RMM:  84    -0.232305039778E+04    0.11092E-03   -0.42604E-06  2232   0.119E-03    0.474E-01
RMM:  85    -0.232305022228E+04    0.17551E-03   -0.11389E-05  2671   0.179E-03    0.474E-01
RMM:  86    -0.232305024678E+04   -0.24504E-04   -0.71933E-07  2075   0.110E-03    0.475E-01
RMM:  87    -0.232305003409E+04    0.21269E-03   -0.11683E-05  2447   0.168E-03    0.472E-01
RMM:  88    -0.232304976357E+04    0.27051E-03   -0.20642E-05  2742   0.221E-03    0.471E-01
RMM:  89    -0.232304939564E+04    0.36793E-03   -0.38003E-05  2847   0.296E-03    0.471E-01
RMM:  90    -0.232304883615E+04    0.55949E-03   -0.86121E-05  3032   0.422E-03    0.479E-01
RMM:  91    -0.232304824485E+04    0.59130E-03   -0.96905E-05  2978   0.468E-03    0.493E-01
RMM:  92    -0.232304736906E+04    0.87578E-03   -0.19375E-04  3416   0.641E-03    0.530E-01
RMM:  93    -0.232304728877E+04    0.80293E-04   -0.17985E-05  2783   0.350E-03    0.533E-01
RMM:  94    -0.232304764748E+04   -0.35871E-03   -0.19174E-05  2500   0.238E-03    0.517E-01
RMM:  95    -0.232304794133E+04   -0.29385E-03   -0.22972E-05  2593   0.245E-03    0.504E-01
RMM:  96    -0.232304796355E+04   -0.22217E-04   -0.15198E-06  2105   0.117E-03    0.506E-01
RMM:  97    -0.232305030899E+04   -0.23454E-02   -0.13232E-03  4509   0.161E-02    0.467E-01
RMM:  98    -0.232305171067E+04   -0.14017E-02   -0.67960E-04  3933   0.135E-02    0.515E-01
RMM:  99    -0.232305470402E+04   -0.29933E-02   -0.16593E-03  4716   0.182E-02    0.718E-01
RMM: 100    -0.232306662591E+04   -0.11922E-01   -0.67586E-03  5038   0.375E-02    0.153E+00
RMM: 101    -0.232307857016E+04   -0.11944E-01   -0.33591E-03  4695   0.305E-02    0.205E+00
RMM: 102    -0.232306199262E+04    0.16578E-01   -0.38820E-03  4696   0.311E-02    0.144E+00
RMM: 103    -0.232306383336E+04   -0.18407E-02   -0.19843E-04  3150   0.111E-02    0.146E+00
RMM: 104    -0.232308215492E+04   -0.18322E-01   -0.50434E-03  4954   0.328E-02    0.214E+00
RMM: 105    -0.232307617898E+04    0.59759E-02   -0.49797E-04  3682   0.173E-02    0.205E+00
RMM: 106    -0.232309443092E+04   -0.18252E-01   -0.31357E-03  4965   0.254E-02    0.235E+00
RMM: 107    -0.232309550159E+04   -0.10707E-02   -0.27477E-04  3249   0.116E-02    0.238E+00
RMM: 108    -0.232309169517E+04    0.38064E-02   -0.92904E-05  2960   0.643E-03    0.237E+00
RMM: 109    -0.232309804190E+04   -0.63467E-02   -0.29431E-04  3374   0.817E-03    0.240E+00
RMM: 110    -0.232310352207E+04   -0.54802E-02   -0.34666E-04  3844   0.914E-03    0.239E+00
RMM: 111    -0.232310925098E+04   -0.57289E-02   -0.38872E-04  3596   0.939E-03    0.236E+00
RMM: 112    -0.232310159997E+04    0.76510E-02   -0.41344E-04  3587   0.102E-02    0.241E+00
RMM: 113    -0.232310171247E+04   -0.11250E-03   -0.17506E-05  2781   0.364E-03    0.241E+00
RMM: 114    -0.232310201752E+04   -0.30505E-03   -0.13618E-06  2250   0.110E-03    0.240E+00
RMM: 115    -0.232310339150E+04   -0.13740E-02   -0.14372E-05  2345   0.174E-03    0.240E+00
RMM: 116    -0.232311625871E+04   -0.12867E-01   -0.13600E-03  4473   0.161E-02    0.231E+00
RMM: 117    -0.232310821130E+04    0.80474E-02   -0.41705E-04  3814   0.103E-02    0.239E+00
RMM: 118    -0.232310176117E+04    0.64501E-02   -0.42251E-04  3687   0.968E-03    0.242E+00
RMM: 119    -0.232309531520E+04    0.64460E-02   -0.42613E-04  3805   0.977E-03    0.241E+00
RMM: 120    -0.232309267928E+04    0.26359E-02   -0.11573E-04  3039   0.607E-03    0.238E+00
RMM: 121    -0.232309806861E+04   -0.53893E-02   -0.23070E-04  3156   0.761E-03    0.239E+00
RMM: 122    -0.232308719222E+04    0.10876E-01   -0.87217E-04  4062   0.134E-02    0.232E+00
RMM: 123    -0.232308554908E+04    0.16431E-02   -0.98740E-05  2971   0.660E-03    0.227E+00
RMM: 124    -0.232308660861E+04   -0.10595E-02   -0.14227E-05  2797   0.342E-03    0.227E+00
RMM: 125    -0.232308948271E+04   -0.28741E-02   -0.96784E-05  2976   0.479E-03    0.230E+00
RMM: 126    -0.232306541091E+04    0.24072E-01   -0.68075E-03  5015   0.374E-02    0.168E+00
RMM: 127    -0.232306286251E+04    0.25484E-02   -0.10440E-03  4016   0.213E-02    0.142E+00
RMM: 128    -0.232306340394E+04   -0.54143E-03   -0.19509E-04  3174   0.858E-03    0.140E+00
RMM: 129    -0.232305897565E+04    0.44283E-02   -0.67812E-04  4378   0.122E-02    0.112E+00
RMM: 130    -0.232305630437E+04    0.26713E-02   -0.55303E-04  3909   0.119E-02    0.891E-01
RMM: 131    -0.232305602627E+04    0.27810E-03   -0.89992E-05  2976   0.696E-03    0.832E-01
RMM: 132    -0.232305646398E+04   -0.43771E-03   -0.18356E-05  2859   0.412E-03    0.851E-01
RMM: 133    -0.232305637515E+04    0.88826E-04   -0.28030E-06  2711   0.185E-03    0.846E-01
RMM: 134    -0.232305635903E+04    0.16122E-04   -0.76552E-07  2338   0.111E-03    0.845E-01
RMM: 135    -0.232305642213E+04   -0.63097E-04   -0.35456E-07  1924   0.823E-04    0.849E-01
RMM: 136    -0.232305421319E+04    0.22089E-02   -0.42749E-04  3775   0.933E-03    0.693E-01
RMM: 137    -0.232305275746E+04    0.14557E-02   -0.41991E-04  3657   0.991E-03    0.581E-01
RMM: 138    -0.232305172763E+04    0.10298E-02   -0.32740E-04  3670   0.871E-03    0.513E-01
RMM: 139    -0.232305062569E+04    0.11019E-02   -0.37684E-04  3856   0.930E-03    0.469E-01
RMM: 140    -0.232304949834E+04    0.11273E-02   -0.44031E-04  3809   0.103E-02    0.458E-01
RMM: 141    -0.232304759263E+04    0.19057E-02   -0.10461E-03  4629   0.150E-02    0.515E-01
RMM: 142    -0.232304681864E+04    0.77400E-03   -0.25617E-04  3402   0.870E-03    0.552E-01
RMM: 143    -0.232304662630E+04    0.19234E-03   -0.39780E-05  2960   0.403E-03    0.561E-01
RMM: 144    -0.232304679461E+04   -0.16831E-03   -0.51963E-06  2621   0.264E-03    0.552E-01
RMM: 145    -0.232304751421E+04   -0.71960E-03   -0.97334E-05  2941   0.467E-03    0.515E-01
RMM: 146    -0.232304888481E+04   -0.13706E-02   -0.46410E-04  3830   0.954E-03    0.464E-01
RMM: 147    -0.232305089874E+04   -0.20139E-02   -0.11581E-03  4409   0.155E-02    0.468E-01
RMM: 148    -0.232305405984E+04   -0.31611E-02   -0.21504E-03  4736   0.213E-02    0.651E-01
RMM: 149    -0.232306023215E+04   -0.61723E-02   -0.33057E-03  4946   0.265E-02    0.112E+00
RMM: 150    -0.232307291728E+04   -0.12685E-01   -0.47251E-03  5039   0.320E-02    0.182E+00
RMM: 151    -0.232309786854E+04   -0.24951E-01   -0.79009E-03  5222   0.410E-02    0.235E+00
RMM: 152    -0.232310156180E+04   -0.36933E-02   -0.90043E-04  4047   0.208E-02    0.240E+00
RMM: 153    -0.232310040990E+04    0.11519E-02   -0.15480E-04  3099   0.707E-03    0.242E+00
RMM: 154    -0.232310515889E+04   -0.47490E-02   -0.19724E-04  3319   0.748E-03    0.240E+00
RMM: 155    -0.232310552642E+04   -0.36753E-03   -0.19502E-05  2909   0.413E-03    0.240E+00
RMM: 156    -0.232310482184E+04    0.70458E-03   -0.54882E-06  2725   0.215E-03    0.241E+00
RMM: 157    -0.232310336392E+04    0.14579E-02   -0.18708E-05  2763   0.244E-03    0.241E+00
RMM: 158    -0.232309857516E+04    0.47888E-02   -0.19784E-04  3272   0.637E-03    0.242E+00
RMM: 159    -0.232309871031E+04   -0.13515E-03   -0.10350E-05  2612   0.295E-03    0.241E+00
RMM: 160    -0.232309766817E+04    0.10421E-02   -0.14657E-05  2574   0.192E-03    0.241E+00
RMM: 161    -0.232310866315E+04   -0.10995E-01   -0.93332E-04  4137   0.139E-02    0.238E+00
RMM: 162    -0.232310844185E+04    0.22130E-03   -0.46577E-05  2853   0.558E-03    0.239E+00
RMM: 163    -0.232310689974E+04    0.15421E-02   -0.14999E-05  2561   0.256E-03    0.240E+00
RMM: 164    -0.232310809214E+04   -0.11924E-02   -0.88226E-06  2415   0.183E-03    0.239E+00
RMM: 165    -0.232310683604E+04    0.12561E-02   -0.11831E-05  2410   0.197E-03    0.240E+00
RMM: 166    -0.232310610681E+04    0.72923E-03   -0.12042E-05  2565   0.176E-03    0.241E+00
RMM: 167    -0.232310325345E+04    0.28534E-02   -0.72182E-05  2940   0.393E-03    0.242E+00
RMM: 168    -0.232310297797E+04    0.27548E-03   -0.58496E-06  2448   0.225E-03    0.242E+00
RMM: 169    -0.232310234295E+04    0.63502E-03   -0.57444E-06  2326   0.143E-03    0.242E+00
RMM: 170    -0.232310256247E+04   -0.21951E-03   -0.54354E-07  1999   0.119E-03    0.242E+00
RMM: 171    -0.232311848318E+04   -0.15921E-01   -0.20412E-03  4579   0.201E-02    0.229E+00
RMM: 172    -0.232310937773E+04    0.91054E-02   -0.52508E-04  3994   0.114E-02    0.239E+00
RMM: 173    -0.232311391907E+04   -0.45413E-02   -0.11912E-04  3029   0.636E-03    0.235E+00
RMM: 174    -0.232311458662E+04   -0.66755E-03   -0.24156E-05  2644   0.312E-03    0.234E+00
RMM: 175    -0.232311532290E+04   -0.73628E-03   -0.12055E-05  2594   0.215E-03    0.233E+00
RMM: 176    -0.232311968310E+04   -0.43602E-02   -0.19295E-04  3371   0.641E-03    0.226E+00
RMM: 177    -0.232311437007E+04    0.53130E-02   -0.20428E-04  3274   0.738E-03    0.233E+00
RMM: 178    -0.232311454212E+04   -0.17204E-03   -0.78191E-06  2619   0.299E-03    0.233E+00
RMM: 179    -0.232311461755E+04   -0.75435E-04   -0.81989E-07  1696   0.850E-04    0.233E+00
RMM: 180    -0.232311434644E+04    0.27111E-03   -0.87408E-07  1489   0.812E-04    0.233E+00
RMM: 181    -0.232314687415E+04   -0.32528E-01   -0.10673E-02  5060   0.468E-02    0.166E+00
RMM: 182    -0.232309842390E+04    0.48450E-01   -0.19611E-02  5077   0.597E-02    0.242E+00
RMM: 183    -0.232312746619E+04   -0.29042E-01   -0.55991E-03  5119   0.367E-02    0.210E+00
RMM: 184    -0.232312479469E+04    0.26715E-02   -0.17690E-04  3319   0.112E-02    0.214E+00
RMM: 185    -0.232312613849E+04   -0.13438E-02   -0.46477E-05  2887   0.369E-03    0.212E+00
RMM: 186    -0.232304014857E+04    0.85990E-01   -0.14196E-01  5177   0.165E-01    0.641E-01
RMM: 187    -0.232304508638E+04   -0.49378E-02   -0.99056E-03  4563   0.773E-02    0.600E-01
RMM: 188    -0.232304741901E+04   -0.23326E-02   -0.13307E-03  4286   0.202E-02    0.470E-01
RMM: 189    -0.232304793883E+04   -0.51982E-03   -0.91838E-05  3015   0.715E-03    0.456E-01
RMM: 190    -0.232304729421E+04    0.64462E-03   -0.10842E-04  3079   0.541E-03    0.494E-01
RMM: 191    -0.232304643935E+04    0.85486E-03   -0.17224E-04  3352   0.632E-03    0.544E-01
RMM: 192    -0.232304601317E+04    0.42618E-03   -0.53205E-05  2945   0.456E-03    0.569E-01
RMM: 193    -0.232304639549E+04   -0.38232E-03   -0.16388E-05  2758   0.302E-03    0.546E-01
RMM: 194    -0.232304730913E+04   -0.91365E-03   -0.15576E-04  3132   0.570E-03    0.497E-01
RMM: 195    -0.232304848252E+04   -0.11734E-02   -0.33467E-04  3562   0.817E-03    0.448E-01
RMM: 196    -0.232305114466E+04   -0.26621E-02   -0.18600E-03  4712   0.191E-02    0.449E-01
RMM: 197    -0.232305167964E+04   -0.53498E-03   -0.23857E-04  3247   0.955E-03    0.482E-01
RMM: 198    -0.232305165781E+04    0.21830E-04   -0.31309E-05  2892   0.343E-03    0.487E-01
RMM: 199    -0.232305163080E+04    0.27012E-04   -0.24603E-06  2638   0.197E-03    0.485E-01
RMM: 200    -0.232305161613E+04    0.14663E-04   -0.68807E-07  2171   0.104E-03    0.484E-01
RMM: 201    -0.232305150977E+04    0.10636E-03   -0.23627E-06  2226   0.115E-03    0.479E-01
RMM: 202    -0.232305194184E+04   -0.43207E-03   -0.34583E-05  2742   0.274E-03    0.498E-01
RMM: 203    -0.232305167633E+04    0.26551E-03   -0.11029E-05  2555   0.238E-03    0.489E-01
RMM: 204    -0.232305156518E+04    0.11115E-03   -0.54659E-06  2176   0.140E-03    0.486E-01
RMM: 205    -0.232305158844E+04   -0.23264E-04   -0.29179E-07  1312   0.772E-04    0.486E-01
RMM: 206    -0.232305249346E+04   -0.90501E-03   -0.15796E-04  3107   0.563E-03    0.528E-01
RMM: 207    -0.232305188696E+04    0.60650E-03   -0.52572E-05  2848   0.454E-03    0.501E-01
RMM: 208    -0.232305075918E+04    0.11278E-02   -0.29702E-04  3539   0.770E-03    0.455E-01
RMM: 209    -0.232304856237E+04    0.21968E-02   -0.12852E-03  4572   0.161E-02    0.457E-01
RMM: 210    -0.232304736076E+04    0.12016E-02   -0.53887E-04  3762   0.116E-02    0.501E-01
RMM: 211    -0.232304739463E+04   -0.33865E-04   -0.40739E-05  2894   0.408E-03    0.495E-01
RMM: 212    -0.232304724325E+04    0.15137E-03   -0.98620E-06  2732   0.249E-03    0.502E-01
RMM: 213    -0.232304688357E+04    0.35969E-03   -0.27987E-05  2847   0.305E-03    0.521E-01
RMM: 214    -0.232304688590E+04   -0.23285E-05   -0.21877E-06  2460   0.195E-03
   1 F= -.23444402E+04 E0= -.23444369E+04  d E =-.234444E+04  mag=     4.1029
       N       E                     dE             d eps       ncg     rms          rms(c)
DAV:   1    -0.232256325611E+04    0.48363E+00   -0.87744E+01  4536   0.603E+00    0.304E+00
RMM:   2    -0.232440747042E+04   -0.18442E+01   -0.15630E+01  6407   0.197E+00    0.704E+00
RMM:   3    -0.232378146224E+04    0.62601E+00   -0.97838E-01  6028   0.553E-01    0.157E+00
RMM:   4    -0.232376795295E+04    0.13509E-01   -0.16943E-01  6304   0.168E-01    0.117E+00
RMM:   5    -0.232375308960E+04    0.14863E-01   -0.33434E-02  6423   0.961E-02    0.782E-01
RMM:   6    -0.232374504811E+04    0.80415E-02   -0.21118E-02  5935   0.770E-02    0.623E-01
RMM:   7    -0.232374028498E+04    0.47631E-02   -0.13405E-02  6097   0.607E-02    0.289E-01
RMM:   8    -0.232373961022E+04    0.67476E-03   -0.31045E-03  6047   0.290E-02    0.198E-01
RMM:   9    -0.232373890913E+04    0.70109E-03   -0.82388E-04  5388   0.164E-02    0.883E-02
RMM:  10    -0.232373866457E+04    0.24456E-03   -0.42847E-04  4891   0.137E-02    0.394E-02
RMM:  11    -0.232373860615E+04    0.58422E-04   -0.16250E-04  4388   0.103E-02    0.242E-02
RMM:  12    -0.232373859480E+04    0.11351E-04   -0.11148E-04  4270   0.765E-03    0.136E-02
RMM:  13    -0.232373861240E+04   -0.17602E-04   -0.35368E-05  3344   0.654E-03    0.784E-03
RMM:  14    -0.232373863159E+04   -0.19193E-04   -0.17386E-05  2941   0.441E-03    0.457E-03
RMM:  15    -0.232373864598E+04   -0.14391E-04   -0.78469E-06  2855   0.386E-03    0.342E-03
RMM:  16    -0.232373865351E+04   -0.75341E-05   -0.43055E-06  2832   0.267E-03
   2 F= -.23451372E+04 E0= -.23451370E+04  d E =-.697012E+00  mag=     3.9986
       N       E                     dE             d eps       ncg     rms          rms(c)
DAV:   1    -0.232371083444E+04    0.27812E-01   -0.36872E+00  4816   0.131E+00    0.600E-01
RMM:   2    -0.232377773379E+04   -0.66899E-01   -0.57528E-01  6186   0.368E-01    0.138E+00
RMM:   3    -0.232376261441E+04    0.15119E-01   -0.64975E-02  5767   0.179E-01    0.335E-01
RMM:   4    -0.232376210310E+04    0.51132E-03   -0.87094E-03  5949   0.368E-02    0.243E-01
RMM:   5    -0.232376154250E+04    0.56060E-03   -0.16657E-03  5670   0.214E-02    0.186E-01
RMM:   6    -0.232376120013E+04    0.34237E-03   -0.10809E-03  5705   0.178E-02    0.149E-01
RMM:   7    -0.232376089297E+04    0.30716E-03   -0.65758E-04  4986   0.137E-02    0.558E-02
RMM:   8    -0.232376086760E+04    0.25365E-04   -0.13366E-04  3312   0.765E-03    0.408E-02
RMM:   9    -0.232376083427E+04    0.33329E-04   -0.45654E-05  3036   0.547E-03    0.206E-02
RMM:  10    -0.232376082329E+04    0.10985E-04   -0.24265E-05  3033   0.454E-03    0.814E-03
RMM:  11    -0.232376082323E+04    0.57567E-07   -0.11120E-05  2880   0.405E-03
   3 F= -.23451606E+04 E0= -.23451605E+04  d E =-.720429E+00  mag=     3.9985
       N       E                     dE             d eps       ncg     rms          rms(c)
DAV:   1    -0.232364166958E+04    0.11915E+00   -0.22029E+01  4544   0.437E+00    0.155E+00
RMM:   2    -0.232379620873E+04   -0.15454E+00   -0.16367E+00  6128   0.101E+00    0.149E+00
RMM:   3    -0.232379426799E+04    0.19407E-02   -0.14766E-01  6020   0.345E-01    0.142E+00
RMM:   4    -0.232377360493E+04    0.20663E-01   -0.25459E-02  5983   0.109E-01    0.487E-01
RMM:   5    -0.232377250249E+04    0.11024E-02   -0.10904E-02  5999   0.726E-02    0.558E-01
RMM:   6    -0.232376848376E+04    0.40187E-02   -0.73594E-03  6072   0.534E-02    0.248E-01
RMM:   7    -0.232376757214E+04    0.91162E-03   -0.19569E-03  5619   0.318E-02    0.864E-02
RMM:   8    -0.232376751733E+04    0.54808E-04   -0.37006E-04  4792   0.132E-02    0.610E-02
RMM:   9    -0.232376752533E+04   -0.79998E-05   -0.16555E-04  4141   0.985E-03    0.523E-02
RMM:  10    -0.232376755239E+04   -0.27063E-04   -0.12426E-04  4377   0.839E-03    0.149E-02
RMM:  11    -0.232376762824E+04   -0.75848E-04   -0.45086E-05  3437   0.675E-03    0.107E-02
RMM:  12    -0.232376769187E+04   -0.63629E-04   -0.32751E-05  3285   0.492E-03    0.591E-03
RMM:  13    -0.232376772177E+04   -0.29897E-04   -0.15748E-05  2927   0.464E-03    0.309E-03
RMM:  14    -0.232376773144E+04   -0.96708E-05   -0.85922E-06  2846   0.349E-03
   4 F= -.23451685E+04 E0= -.23451684E+04  d E =-.787469E-02  mag=     3.9991
       N       E                     dE             d eps       ncg     rms          rms(c)
DAV:   1    -0.232378198732E+04   -0.14266E-01   -0.50547E+00  4576   0.212E+00    0.742E-01
RMM:   2    -0.232381908089E+04   -0.37094E-01   -0.39630E-01  6143   0.483E-01    0.681E-01
RMM:   3    -0.232381894442E+04    0.13647E-03   -0.29751E-02  6081   0.148E-01    0.713E-01
RMM:   4    -0.232381399767E+04    0.49467E-02   -0.57076E-03  5782   0.513E-02    0.238E-01
RMM:   5    -0.232381380457E+04    0.19310E-03   -0.26283E-03  5825   0.354E-02    0.278E-01
RMM:   6    -0.232381279365E+04    0.10109E-02   -0.17841E-03  5848   0.265E-02    0.118E-01
RMM:   7    -0.232381258664E+04    0.20701E-03   -0.47632E-04  5092   0.159E-02    0.410E-02
RMM:   8    -0.232381255372E+04    0.32918E-04   -0.77906E-05  3408   0.719E-03    0.241E-02
RMM:   9    -0.232381254874E+04    0.49826E-05   -0.44809E-05  3167   0.574E-03
   5 F= -.23452128E+04 E0= -.23452127E+04  d E =-.522262E-01  mag=     3.9989
       N       E                     dE             d eps       ncg     rms          rms(c)
DAV:   1    -0.232375872849E+04    0.53825E-01   -0.49494E+00  4544   0.235E+00    0.839E-01
RMM:   2    -0.232385060094E+04   -0.91872E-01   -0.97855E-01  6299   0.622E-01    0.754E-01
RMM:   3    -0.232385884347E+04   -0.82425E-02   -0.11679E-01  6070   0.265E-01    0.794E-01
RMM:   4    -0.232385269642E+04    0.61471E-02   -0.11126E-02  6232   0.582E-02    0.255E-01
RMM:   5    -0.232385208896E+04    0.60746E-03   -0.28464E-03  5952   0.335E-02    0.229E-01
RMM:   6    -0.232385154294E+04    0.54601E-03   -0.20983E-03  5930   0.276E-02    0.136E-01
RMM:   7    -0.232385130571E+04    0.23724E-03   -0.52123E-04  5433   0.148E-02    0.540E-02
RMM:   8    -0.232385124832E+04    0.57383E-04   -0.98339E-05  3364   0.743E-03    0.300E-02
RMM:   9    -0.232385123708E+04    0.11245E-04   -0.39273E-05  2973   0.565E-03    0.257E-02
RMM:  10    -0.232385122270E+04    0.14382E-04   -0.24810E-05  2993   0.438E-03    0.127E-02
RMM:  11    -0.232385121980E+04    0.29007E-05   -0.14692E-05  2919   0.417E-03
   6 F= -.23452498E+04 E0= -.23452496E+04  d E =-.369858E-01  mag=     3.9971
       N       E                     dE             d eps       ncg     rms          rms(c)
DAV:   1    -0.232385037770E+04    0.84500E-03   -0.83740E-02  4960   0.306E-01    0.109E-01
RMM:   2    -0.232385192529E+04   -0.15476E-02   -0.16559E-02  6345   0.818E-02    0.979E-02
RMM:   3    -0.232385207087E+04   -0.14558E-03   -0.20221E-03  4451   0.340E-02    0.105E-01
RMM:   4    -0.232385196211E+04    0.10876E-03   -0.18540E-04  3205   0.859E-03    0.320E-02
RMM:   5    -0.232385195100E+04    0.11106E-04   -0.54854E-05  3183   0.607E-03    0.287E-02
RMM:   6    -0.232385194381E+04    0.71953E-05   -0.39938E-05  2982   0.576E-03
   7 F= -.23452503E+04 E0= -.23452501E+04  d E =-.374940E-01  mag=     3.9966
       N       E                     dE             d eps       ncg     rms          rms(c)
DAV:   1    -0.232378673655E+04    0.65214E-01   -0.41450E+00  4544   0.200E+00    0.711E-01
RMM:   2    -0.232387920683E+04   -0.92470E-01   -0.97909E-01  6536   0.571E-01    0.626E-01
RMM:   3    -0.232388773214E+04   -0.85253E-02   -0.11777E-01  6239   0.233E-01    0.644E-01
RMM:   4    -0.232388410202E+04    0.36301E-02   -0.10692E-02  6158   0.471E-02    0.238E-01
RMM:   5    -0.232388370003E+04    0.40199E-03   -0.15038E-03  5691   0.202E-02    0.207E-01
RMM:   6    -0.232388322738E+04    0.47265E-03   -0.13192E-03  5591   0.215E-02    0.112E-01
RMM:   7    -0.232388307370E+04    0.15368E-03   -0.58088E-04  5217   0.137E-02    0.492E-02
RMM:   8    -0.232388303782E+04    0.35873E-04   -0.89750E-05  3252   0.885E-03    0.213E-02
RMM:   9    -0.232388302904E+04    0.87887E-05   -0.21212E-05  2983   0.428E-03
   8 F= -.23452796E+04 E0= -.23452791E+04  d E =-.292956E-01  mag=     3.9921
       N       E                     dE             d eps       ncg     rms          rms(c)
DAV:   1    -0.232385141800E+04    0.31620E-01   -0.16157E+00  4544   0.125E+00    0.445E-01
RMM:   2    -0.232388742397E+04   -0.36006E-01   -0.38178E-01  6524   0.358E-01    0.385E-01
RMM:   3    -0.232389078529E+04   -0.33613E-02   -0.46460E-02  6156   0.145E-01    0.393E-01
RMM:   4    -0.232388941519E+04    0.13701E-02   -0.41752E-03  5677   0.294E-02    0.148E-01
RMM:   5    -0.232388925624E+04    0.15895E-03   -0.58980E-04  5002   0.131E-02    0.130E-01
RMM:   6    -0.232388906369E+04    0.19255E-03   -0.53407E-04  4933   0.144E-02    0.684E-02
RMM:   7    -0.232388900921E+04    0.54484E-04   -0.24142E-04  4760   0.943E-03    0.320E-02
RMM:   8    -0.232388899378E+04    0.15428E-04   -0.37544E-05  3054   0.639E-03    0.141E-02
RMM:   9    -0.232388899189E+04    0.18919E-05   -0.10996E-05  2913   0.329E-03
   9 F= -.23452845E+04 E0= -.23452836E+04  d E =-.341664E-01  mag=     3.9855
       N       E                     dE             d eps       ncg     rms          rms(c)
DAV:   1    -0.232385663962E+04    0.32354E-01   -0.43344E+00  4528   0.189E+00    0.558E-01
RMM:   2    -0.232390992439E+04   -0.53285E-01   -0.54963E-01  6521   0.467E-01    0.552E-01
RMM:   3    -0.232391030796E+04   -0.38357E-03   -0.54455E-02  6341   0.150E-01    0.346E-01
RMM:   4    -0.232390917466E+04    0.11333E-02   -0.55718E-03  5876   0.361E-02    0.193E-01
RMM:   5    -0.232390900309E+04    0.17158E-03   -0.10020E-03  5374   0.177E-02    0.197E-01
RMM:   6    -0.232390853680E+04    0.46629E-03   -0.92235E-04  5326   0.194E-02    0.108E-01
RMM:   7    -0.232390836382E+04    0.17298E-03   -0.56764E-04  4947   0.147E-02    0.352E-02
RMM:   8    -0.232390833422E+04    0.29597E-04   -0.42640E-05  3152   0.664E-03    0.194E-02
RMM:   9    -0.232390832853E+04    0.56901E-05   -0.22943E-05  2937   0.456E-03
  10 F= -.23453032E+04 E0= -.23453023E+04  d E =-.187273E-01  mag=     3.9831
       N       E                     dE             d eps       ncg     rms          rms(c)
DAV:   1    -0.232390038949E+04    0.79447E-02   -0.83278E-01  4720   0.834E-01    0.245E-01
RMM:   2    -0.232391066099E+04   -0.10272E-01   -0.10594E-01  6551   0.205E-01    0.247E-01
RMM:   3    -0.232391067995E+04   -0.18967E-04   -0.10169E-02  6001   0.648E-02    0.152E-01
RMM:   4    -0.232391045899E+04    0.22096E-03   -0.10693E-03  4679   0.160E-02    0.849E-02
RMM:   5    -0.232391042377E+04    0.35222E-04   -0.19358E-04  3645   0.871E-03    0.873E-02
RMM:   6    -0.232391032793E+04    0.95836E-04   -0.18704E-04  4136   0.994E-03    0.475E-02
RMM:   7    -0.232391029098E+04    0.36957E-04   -0.12241E-04  3785   0.773E-03    0.153E-02
RMM:   8    -0.232391028549E+04    0.54821E-05   -0.13955E-05  2926   0.508E-03
  11 F= -.23453049E+04 E0= -.23453040E+04  d E =-.204226E-01  mag=     3.9822
       N       E                     dE             d eps       ncg     rms          rms(c)
DAV:   1    -0.232385863937E+04    0.51652E-01   -0.43467E+00  4528   0.198E+00    0.620E-01
RMM:   2    -0.232392616846E+04   -0.67529E-01   -0.69164E-01  6518   0.508E-01    0.644E-01
RMM:   3    -0.232392685511E+04   -0.68665E-03   -0.69881E-02  6330   0.170E-01    0.381E-01
RMM:   4    -0.232392540712E+04    0.14480E-02   -0.67079E-03  6011   0.388E-02    0.197E-01
RMM:   5    -0.232392528664E+04    0.12048E-03   -0.11069E-03  5370   0.188E-02    0.214E-01
RMM:   6    -0.232392470310E+04    0.58354E-03   -0.11264E-03  5546   0.210E-02    0.944E-02
RMM:   7    -0.232392460113E+04    0.10197E-03   -0.47792E-04  4700   0.140E-02    0.378E-02
RMM:   8    -0.232392458062E+04    0.20510E-04   -0.49802E-05  3130   0.681E-03    0.210E-02
RMM:   9    -0.232392457806E+04    0.25592E-05   -0.18632E-05  2937   0.427E-03
  12 F= -.23453190E+04 E0= -.23453184E+04  d E =-.141504E-01  mag=     3.9857
       N       E                     dE             d eps       ncg     rms          rms(c)
DAV:   1    -0.232392209602E+04    0.24846E-02   -0.19295E-01  4752   0.417E-01    0.132E-01
RMM:   2    -0.232392514323E+04   -0.30472E-02   -0.31087E-02  6523   0.108E-01    0.141E-01
RMM:   3    -0.232392512920E+04    0.14024E-04   -0.30084E-03  5039   0.355E-02    0.763E-02
RMM:   4    -0.232392507204E+04    0.57157E-04   -0.30001E-04  3316   0.884E-03    0.417E-02
RMM:   5    -0.232392506682E+04    0.52238E-05   -0.50179E-05  3072   0.533E-03
  13 F= -.23453195E+04 E0= -.23453189E+04  d E =-.146127E-01  mag=     3.9868
       N       E                     dE             d eps       ncg     rms          rms(c)
DAV:   1    -0.232387255207E+04    0.52520E-01   -0.30252E+00  4544   0.169E+00    0.550E-01
RMM:   2    -0.232393436462E+04   -0.61813E-01   -0.65385E-01  6598   0.469E-01    0.430E-01
RMM:   3    -0.232393879616E+04   -0.44315E-02   -0.71676E-02  6349   0.171E-01    0.372E-01
RMM:   4    -0.232393742988E+04    0.13663E-02   -0.63178E-03  6146   0.365E-02    0.192E-01
RMM:   5    -0.232393724728E+04    0.18261E-03   -0.85234E-04  4918   0.145E-02    0.180E-01
RMM:   6    -0.232393683827E+04    0.40901E-03   -0.77650E-04  5184   0.176E-02    0.724E-02
RMM:   7    -0.232393677882E+04    0.59452E-04   -0.31693E-04  4602   0.121E-02    0.332E-02
RMM:   8    -0.232393676699E+04    0.11830E-04   -0.48452E-05  3040   0.652E-03    0.240E-02
RMM:   9    -0.232393675701E+04    0.99768E-05   -0.14904E-05  2919   0.389E-03
  14 F= -.23453307E+04 E0= -.23453303E+04  d E =-.112376E-01  mag=     3.9898
       N       E                     dE             d eps       ncg     rms          rms(c)
DAV:   1    -0.232393152219E+04    0.52448E-02   -0.28145E-01  4608   0.515E-01    0.170E-01
RMM:   2    -0.232393733325E+04   -0.58111E-02   -0.61149E-02  6571   0.143E-01    0.140E-01
RMM:   3    -0.232393764036E+04   -0.30711E-03   -0.62574E-03  5602   0.494E-02    0.112E-01
RMM:   4    -0.232393751872E+04    0.12164E-03   -0.58621E-04  3474   0.113E-02    0.613E-02
RMM:   5    -0.232393749631E+04    0.22413E-04   -0.76707E-05  3022   0.598E-03    0.524E-02
RMM:   6    -0.232393745861E+04    0.37694E-04   -0.71442E-05  3078   0.618E-03    0.234E-02
RMM:   7    -0.232393745103E+04    0.75792E-05   -0.36362E-05  3090   0.524E-03
  15 F= -.23453313E+04 E0= -.23453309E+04  d E =-.117986E-01  mag=     3.9911
       N       E                     dE             d eps       ncg     rms          rms(c)
DAV:   1    -0.232390350179E+04    0.33957E-01   -0.24460E+00  4544   0.156E+00    0.511E-01
RMM:   2    -0.232394373147E+04   -0.40230E-01   -0.42670E-01  6452   0.391E-01    0.372E-01
RMM:   3    -0.232394657463E+04   -0.28432E-02   -0.44679E-02  6257   0.142E-01    0.383E-01
RMM:   4    -0.232394496167E+04    0.16130E-02   -0.42834E-03  6148   0.333E-02    0.168E-01
RMM:   5    -0.232394482481E+04    0.13686E-03   -0.79796E-04  5059   0.150E-02    0.155E-01
RMM:   6    -0.232394451496E+04    0.30985E-03   -0.66945E-04  5388   0.167E-02    0.621E-02
RMM:   7    -0.232394448546E+04    0.29506E-04   -0.21064E-04  4404   0.106E-02    0.388E-02
RMM:   8    -0.232394446769E+04    0.17763E-04   -0.52824E-05  3027   0.613E-03    0.209E-02
RMM:   9    -0.232394446210E+04    0.55957E-05   -0.12067E-05  2925   0.400E-03
  16 F= -.23453379E+04 E0= -.23453376E+04  d E =-.662996E-02  mag=     3.9930
       N       E                     dE             d eps       ncg     rms          rms(c)
DAV:   1    -0.232394399835E+04    0.46934E-03   -0.33473E-02  4944   0.182E-01    0.612E-02
RMM:   2    -0.232394456834E+04   -0.56999E-03   -0.59495E-03  6377   0.467E-02    0.531E-02
RMM:   3    -0.232394459082E+04   -0.22482E-04   -0.60000E-04  3399   0.168E-02    0.478E-02
RMM:   4    -0.232394456784E+04    0.22982E-04   -0.63111E-05  3023   0.537E-03    0.220E-02
RMM:   5    -0.232394456473E+04    0.31088E-05   -0.12260E-05  2859   0.254E-03
  17 F= -.23453380E+04 E0= -.23453377E+04  d E =-.668844E-02  mag=     3.9934
       N       E                     dE             d eps       ncg     rms          rms(c)
DAV:   1    -0.232393390644E+04    0.10661E-01   -0.11595E+00  4544   0.101E+00    0.302E-01
RMM:   2    -0.232394904136E+04   -0.15135E-01   -0.15985E-01  6542   0.254E-01    0.225E-01
RMM:   3    -0.232394997599E+04   -0.93462E-03   -0.15556E-02  6227   0.818E-02    0.219E-01
RMM:   4    -0.232394948864E+04    0.48735E-03   -0.15599E-03  5087   0.201E-02    0.104E-01
RMM:   5    -0.232394942700E+04    0.61638E-04   -0.28094E-04  3849   0.100E-02    0.927E-02
RMM:   6    -0.232394935740E+04    0.69601E-04   -0.26972E-04  4625   0.104E-02    0.742E-02
RMM:   7    -0.232394930365E+04    0.53753E-04   -0.12640E-04  3585   0.832E-03    0.206E-02
RMM:   8    -0.232394929793E+04    0.57189E-05   -0.15061E-05  2958   0.464E-03
  18 F= -.23453427E+04 E0= -.23453424E+04  d E =-.471397E-02  mag=     3.9942
       N       E                     dE             d eps       ncg     rms          rms(c)
DAV:   1    -0.232394469302E+04    0.46106E-02   -0.39832E-01  4544   0.596E-01    0.180E-01
RMM:   2    -0.232394992716E+04   -0.52341E-02   -0.55254E-02  6509   0.149E-01    0.137E-01
RMM:   3    -0.232395023620E+04   -0.30904E-03   -0.53285E-03  5785   0.471E-02    0.132E-01
RMM:   4    -0.232395005930E+04    0.17690E-03   -0.54214E-04  3590   0.120E-02    0.616E-02
RMM:   5    -0.232395003881E+04    0.20494E-04   -0.96500E-05  3136   0.688E-03    0.543E-02
RMM:   6    -0.232395001270E+04    0.26102E-04   -0.92773E-05  3308   0.672E-03    0.416E-02
RMM:   7    -0.232394999508E+04    0.17627E-04   -0.46024E-05  3111   0.611E-03    0.125E-02
RMM:   8    -0.232394999321E+04    0.18652E-05   -0.75650E-06  2882   0.357E-03
  19 F= -.23453434E+04 E0= -.23453431E+04  d E =-.539976E-02  mag=     3.9946
       N       E                     dE             d eps       ncg     rms          rms(c)
DAV:   1    -0.232394244175E+04    0.75533E-02   -0.98793E-01  4544   0.936E-01    0.274E-01
RMM:   2    -0.232395439492E+04   -0.11953E-01   -0.12006E-01  6517   0.223E-01    0.305E-01
RMM:   3    -0.232395444777E+04   -0.52852E-04   -0.11429E-02  6081   0.708E-02    0.214E-01
RMM:   4    -0.232395398192E+04    0.46585E-03   -0.11555E-03  5042   0.171E-02    0.787E-02
RMM:   5    -0.232395393138E+04    0.50542E-04   -0.23080E-04  4384   0.102E-02    0.701E-02
RMM:   6    -0.232395388689E+04    0.44491E-04   -0.18380E-04  4208   0.944E-03    0.514E-02
RMM:   7    -0.232395386201E+04    0.24877E-04   -0.58251E-05  3121   0.682E-03    0.179E-02
RMM:   8    -0.232395385787E+04    0.41433E-05   -0.13105E-05  2956   0.409E-03
  20 F= -.23453472E+04 E0= -.23453468E+04  d E =-.376113E-02  mag=     3.9944
       N       E                     dE             d eps       ncg     rms          rms(c)
DAV:   1    -0.232394795388E+04    0.59081E-02   -0.58656E-01  4544   0.724E-01    0.212E-01
RMM:   2    -0.232395511722E+04   -0.71633E-02   -0.71672E-02  6529   0.173E-01    0.242E-01
RMM:   3    -0.232395509429E+04    0.22929E-04   -0.67843E-03  5832   0.535E-02    0.162E-01
RMM:   4    -0.232395482480E+04    0.26949E-03   -0.68613E-04  4303   0.132E-02    0.604E-02
RMM:   5    -0.232395479314E+04    0.31657E-04   -0.13745E-04  3845   0.833E-03    0.544E-02
RMM:   6    -0.232395476541E+04    0.27738E-04   -0.11316E-04  3649   0.789E-03    0.399E-02
RMM:   7    -0.232395475006E+04    0.15344E-04   -0.37570E-05  3011   0.610E-03    0.140E-02
RMM:   8    -0.232395474758E+04    0.24865E-05   -0.92201E-06  2907   0.365E-03
  21 F= -.23453480E+04 E0= -.23453476E+04  d E =-.457423E-02  mag=     3.9940
       N       E                     dE             d eps       ncg     rms          rms(c)
DAV:   1    -0.232394373447E+04    0.11016E-01   -0.11698E+00  4528   0.104E+00    0.311E-01
RMM:   2    -0.232396010496E+04   -0.16370E-01   -0.15947E-01  6516   0.259E-01    0.438E-01
RMM:   3    -0.232395903448E+04    0.10705E-02   -0.14067E-02  6188   0.777E-02    0.205E-01
RMM:   4    -0.232395862949E+04    0.40499E-03   -0.14238E-03  5150   0.184E-02    0.890E-02
RMM:   5    -0.232395856920E+04    0.60292E-04   -0.28830E-04  4600   0.120E-02    0.811E-02
RMM:   6    -0.232395851528E+04    0.53924E-04   -0.18452E-04  3832   0.922E-03    0.498E-02
RMM:   7    -0.232395848646E+04    0.28815E-04   -0.59206E-05  3233   0.701E-03    0.180E-02
RMM:   8    -0.232395848377E+04    0.26965E-05   -0.13041E-05  2917   0.432E-03
  22 F= -.23453513E+04 E0= -.23453508E+04  d E =-.329059E-02  mag=     3.9926
       N       E                     dE             d eps       ncg     rms          rms(c)
DAV:   1    -0.232395681513E+04    0.16713E-02   -0.16006E-01  4592   0.384E-01    0.117E-01
RMM:   2    -0.232395908991E+04   -0.22748E-02   -0.22057E-02  6508   0.968E-02    0.168E-01
RMM:   3    -0.232395891641E+04    0.17350E-03   -0.19344E-03  4671   0.283E-02    0.764E-02
RMM:   4    -0.232395885969E+04    0.56716E-04   -0.19773E-04  3256   0.770E-03    0.331E-02
RMM:   5    -0.232395885101E+04    0.86841E-05   -0.41759E-05  3054   0.537E-03
  23 F= -.23453515E+04 E0= -.23453510E+04  d E =-.349500E-02  mag=     3.9919
       N       E                     dE             d eps       ncg     rms          rms(c)
DAV:   1    -0.232394971247E+04    0.91472E-02   -0.12671E+00  4544   0.105E+00    0.291E-01
RMM:   2    -0.232396226815E+04   -0.12556E-01   -0.13106E-01  6485   0.240E-01    0.231E-01
RMM:   3    -0.232396306025E+04   -0.79209E-03   -0.12835E-02  6072   0.771E-02    0.253E-01
RMM:   4    -0.232396242422E+04    0.63602E-03   -0.12108E-03  4987   0.190E-02    0.920E-02
RMM:   5    -0.232396230791E+04    0.11631E-03   -0.32789E-04  4699   0.125E-02    0.482E-02
RMM:   6    -0.232396229887E+04    0.90417E-05   -0.16976E-04  3987   0.962E-03    0.408E-02
RMM:   7    -0.232396227698E+04    0.21894E-04   -0.44865E-05  2991   0.642E-03    0.178E-02
RMM:   8    -0.232396227334E+04    0.36346E-05   -0.12064E-05  2937   0.375E-03
  24 F= -.23453544E+04 E0= -.23453539E+04  d E =-.293970E-02  mag=     3.9906
       N       E                     dE             d eps       ncg     rms          rms(c)
DAV:   1    -0.232395903598E+04    0.32410E-02   -0.38426E-01  4544   0.579E-01    0.163E-01
RMM:   2    -0.232396293398E+04   -0.38980E-02   -0.40089E-02  6416   0.131E-01    0.149E-01
RMM:   3    -0.232396309863E+04   -0.16466E-03   -0.38225E-03  5401   0.417E-02    0.140E-01
RMM:   4    -0.232396288976E+04    0.20887E-03   -0.36344E-04  3533   0.107E-02    0.484E-02
RMM:   5    -0.232396285643E+04    0.33334E-04   -0.10042E-04  3556   0.767E-03    0.289E-02
RMM:   6    -0.232396285572E+04    0.70702E-06   -0.60088E-05  3162   0.658E-03
  25 F= -.23453547E+04 E0= -.23453542E+04  d E =-.325837E-02  mag=     3.9899
       N       E                     dE             d eps       ncg     rms          rms(c)
DAV:   1    -0.232395552958E+04    0.73268E-02   -0.11071E+00  4528   0.937E-01    0.244E-01
RMM:   2    -0.232396562410E+04   -0.10095E-01   -0.10716E-01  6500   0.209E-01    0.148E-01
RMM:   3    -0.232396633625E+04   -0.71215E-03   -0.11203E-02  5906   0.650E-02    0.115E-01
RMM:   4    -0.232396626339E+04    0.72859E-04   -0.96495E-04  4008   0.150E-02    0.842E-02
RMM:   5    -0.232396619952E+04    0.63874E-04   -0.22589E-04  3818   0.101E-02    0.587E-02
RMM:   6    -0.232396616216E+04    0.37359E-04   -0.15422E-04  3979   0.819E-03    0.329E-02
RMM:   7    -0.232396615641E+04    0.57508E-05   -0.38297E-05  2962   0.638E-03
  26 F= -.23453577E+04 E0= -.23453571E+04  d E =-.294367E-02  mag=     3.9897
       N       E                     dE             d eps       ncg     rms          rms(c)
DAV:   1    -0.232394942000E+04    0.16742E-01   -0.19326E+00  4512   0.124E+00    0.322E-01
RMM:   2    -0.232396718602E+04   -0.17766E-01   -0.18838E-01  6542   0.280E-01    0.201E-01
RMM:   3    -0.232396844773E+04   -0.12617E-02   -0.19424E-02  6099   0.856E-02    0.169E-01
RMM:   4    -0.232396825475E+04    0.19298E-03   -0.16963E-03  4838   0.202E-02    0.113E-01
RMM:   5    -0.232396812965E+04    0.12510E-03   -0.40394E-04  4524   0.127E-02    0.748E-02
RMM:   6    -0.232396806721E+04    0.62439E-04   -0.27532E-04  4417   0.104E-02    0.361E-02
RMM:   7    -0.232396806107E+04    0.61412E-05   -0.49057E-05  3029   0.732E-03
  27 F= -.23453591E+04 E0= -.23453586E+04  d E =-.438189E-02  mag=     3.9898
       N       E                     dE             d eps       ncg     rms          rms(c)
DAV:   1    -0.232395579869E+04    0.12269E-01   -0.16773E+00  4512   0.119E+00    0.323E-01
RMM:   2    -0.232397160952E+04   -0.15811E-01   -0.16644E-01  6472   0.267E-01    0.196E-01
RMM:   3    -0.232397270040E+04   -0.10909E-02   -0.15908E-02  6093   0.834E-02    0.195E-01
RMM:   4    -0.232397234219E+04    0.35821E-03   -0.15605E-03  5196   0.205E-02    0.109E-01
RMM:   5    -0.232397226939E+04    0.72804E-04   -0.35976E-04  4446   0.120E-02    0.977E-02
RMM:   6    -0.232397219681E+04    0.72584E-04   -0.29136E-04  4590   0.112E-02    0.663E-02
RMM:   7    -0.232397215431E+04    0.42492E-04   -0.75788E-05  3318   0.744E-03    0.170E-02
RMM:   8    -0.232397215344E+04    0.86860E-06   -0.18552E-05  2984   0.502E-03
  28 F= -.23453626E+04 E0= -.23453621E+04  d E =-.349005E-02  mag=     3.9901
       N       E                     dE             d eps       ncg     rms          rms(c)
DAV:   1    -0.232396038734E+04    0.11767E-01   -0.13659E+00  4512   0.108E+00    0.291E-01
RMM:   2    -0.232397327804E+04   -0.12891E-01   -0.13502E-01  6463   0.240E-01    0.190E-01
RMM:   3    -0.232397422072E+04   -0.94268E-03   -0.13025E-02  6008   0.738E-02    0.204E-01
RMM:   4    -0.232397380136E+04    0.41935E-03   -0.12914E-03  4847   0.188E-02    0.101E-01
RMM:   5    -0.232397375364E+04    0.47719E-04   -0.28367E-04  4109   0.106E-02    0.932E-02
RMM:   6    -0.232397366334E+04    0.90305E-04   -0.27626E-04  4667   0.111E-02    0.484E-02
RMM:   7    -0.232397363969E+04    0.23652E-04   -0.59324E-05  3213   0.683E-03    0.157E-02
RMM:   8    -0.232397363965E+04    0.34954E-07   -0.15917E-05  2955   0.461E-03
  29 F= -.23453635E+04 E0= -.23453631E+04  d E =-.443706E-02  mag=     3.9905
       N       E                     dE             d eps       ncg     rms          rms(c)
DAV:   1    -0.232395873970E+04    0.14900E-01   -0.17362E+00  4512   0.118E+00    0.315E-01
RMM:   2    -0.232397725061E+04   -0.18511E-01   -0.19190E-01  6539   0.278E-01    0.236E-01
RMM:   3    -0.232397864484E+04   -0.13942E-02   -0.19089E-02  6120   0.859E-02    0.257E-01
RMM:   4    -0.232397804369E+04    0.60115E-03   -0.18861E-03  4705   0.211E-02    0.110E-01
RMM:   5    -0.232397799456E+04    0.49131E-04   -0.32075E-04  3941   0.105E-02    0.101E-01
RMM:   6    -0.232397788745E+04    0.10712E-03   -0.29981E-04  4506   0.112E-02    0.503E-02
RMM:   7    -0.232397786822E+04    0.19228E-04   -0.77173E-05  3352   0.688E-03    0.172E-02
RMM:   8    -0.232397786969E+04   -0.14750E-05   -0.17167E-05  2907   0.489E-03
  30 F= -.23453668E+04 E0= -.23453664E+04  d E =-.330980E-02  mag=     3.9909
       N       E                     dE             d eps       ncg     rms          rms(c)
DAV:   1    -0.232394380701E+04    0.34061E-01   -0.33561E+00  4512   0.164E+00    0.439E-01
RMM:   2    -0.232397954793E+04   -0.35741E-01   -0.37059E-01  6538   0.385E-01    0.328E-01
RMM:   3    -0.232398233077E+04   -0.27828E-02   -0.38108E-02  6242   0.121E-01    0.357E-01
RMM:   4    -0.232398117492E+04    0.11558E-02   -0.36782E-03  5619   0.291E-02    0.154E-01
RMM:   5    -0.232398107352E+04    0.10140E-03   -0.61676E-04  4702   0.137E-02    0.140E-01
RMM:   6    -0.232398087122E+04    0.20230E-03   -0.57739E-04  5089   0.146E-02    0.724E-02
RMM:   7    -0.232398082728E+04    0.43944E-04   -0.15337E-04  3981   0.884E-03    0.253E-02
RMM:   8    -0.232398082816E+04   -0.88569E-06   -0.32684E-05  2976   0.588E-03
  31 F= -.23453685E+04 E0= -.23453681E+04  d E =-.500083E-02  mag=     3.9915
       N       E                     dE             d eps       ncg     rms          rms(c)
DAV:   1    -0.232396956466E+04    0.11263E-01   -0.15021E+00  4528   0.105E+00    0.288E-01
RMM:   2    -0.232398421780E+04   -0.14653E-01   -0.15286E-01  6557   0.241E-01    0.192E-01
RMM:   3    -0.232398538683E+04   -0.11690E-02   -0.15502E-02  6012   0.755E-02    0.208E-01
RMM:   4    -0.232398500801E+04    0.37882E-03   -0.15059E-03  4414   0.185E-02    0.101E-01
RMM:   5    -0.232398496528E+04    0.42731E-04   -0.27433E-04  3901   0.990E-03    0.954E-02
RMM:   6    -0.232398487587E+04    0.89407E-04   -0.25527E-04  4269   0.103E-02    0.485E-02
RMM:   7    -0.232398485622E+04    0.19653E-04   -0.63563E-05  3276   0.655E-03    0.144E-02
RMM:   8    -0.232398485643E+04   -0.21112E-06   -0.11195E-05  2938   0.417E-03
  32 F= -.23453718E+04 E0= -.23453714E+04  d E =-.322504E-02  mag=     3.9924
       N       E                     dE             d eps       ncg     rms          rms(c)
DAV:   1    -0.232394110912E+04    0.43747E-01   -0.46294E+00  4512   0.185E+00    0.505E-01
RMM:   2    -0.232398643877E+04   -0.45330E-01   -0.47290E-01  6557   0.427E-01    0.337E-01
RMM:   3    -0.232399001062E+04   -0.35718E-02   -0.48303E-02  6289   0.134E-01    0.361E-01
RMM:   4    -0.232398886284E+04    0.11478E-02   -0.46457E-03  5863   0.322E-02    0.178E-01
RMM:   5    -0.232398870086E+04    0.16198E-03   -0.82944E-04  5045   0.157E-02    0.162E-01
RMM:   6    -0.232398845440E+04    0.24646E-03   -0.75188E-04  5266   0.163E-02    0.935E-02
RMM:   7    -0.232398837209E+04    0.82307E-04   -0.21183E-04  4357   0.101E-02    0.285E-02
RMM:   8    -0.232398836833E+04    0.37649E-05   -0.37349E-05  3130   0.570E-03
  33 F= -.23453739E+04 E0= -.23453736E+04  d E =-.534151E-02  mag=     3.9936
       N       E                     dE             d eps       ncg     rms          rms(c)
DAV:   1    -0.232396990459E+04    0.18468E-01   -0.24777E+00  4512   0.131E+00    0.362E-01
RMM:   2    -0.232399157225E+04   -0.21668E-01   -0.22888E-01  6561   0.299E-01    0.208E-01
RMM:   3    -0.232399330079E+04   -0.17285E-02   -0.23950E-02  6141   0.910E-02    0.195E-01
RMM:   4    -0.232399310134E+04    0.19945E-03   -0.23045E-03  4876   0.216E-02    0.130E-01
RMM:   5    -0.232399299746E+04    0.10388E-03   -0.41039E-04  4360   0.119E-02    0.104E-01
RMM:   6    -0.232399295506E+04    0.42401E-04   -0.35697E-04  4510   0.116E-02    0.896E-02
RMM:   7    -0.232399288101E+04    0.74044E-04   -0.12510E-04  3451   0.820E-03    0.236E-02
RMM:   8    -0.232399287897E+04    0.20436E-05   -0.21950E-05  2961   0.453E-03
  34 F= -.23453774E+04 E0= -.23453772E+04  d E =-.355025E-02  mag=     3.9947
       N       E                     dE             d eps       ncg     rms          rms(c)
DAV:   1    -0.232397568290E+04    0.17198E-01   -0.20634E+00  4512   0.120E+00    0.331E-01
RMM:   2    -0.232399369839E+04   -0.18015E-01   -0.19003E-01  6545   0.273E-01    0.191E-01
RMM:   3    -0.232399512070E+04   -0.14223E-02   -0.19847E-02  6117   0.833E-02    0.176E-01
RMM:   4    -0.232399493436E+04    0.18635E-03   -0.19015E-03  4624   0.197E-02    0.116E-01
RMM:   5    -0.232399487075E+04    0.63606E-04   -0.35853E-04  4164   0.112E-02    0.992E-02
RMM:   6    -0.232399481601E+04    0.54736E-04   -0.28426E-04  4186   0.107E-02    0.763E-02
RMM:   7    -0.232399476334E+04    0.52670E-04   -0.96269E-05  3215   0.772E-03    0.236E-02
RMM:   8    -0.232399476167E+04    0.16743E-05   -0.22719E-05  2924   0.459E-03
  35 F= -.23453784E+04 E0= -.23453782E+04  d E =-.456488E-02  mag=     3.9956
       N       E                     dE             d eps       ncg     rms          rms(c)
DAV:   1    -0.232397719785E+04    0.17565E-01   -0.25344E+00  4512   0.134E+00    0.381E-01
RMM:   2    -0.232399833590E+04   -0.21138E-01   -0.22257E-01  6511   0.300E-01    0.208E-01
RMM:   3    -0.232399975556E+04   -0.14197E-02   -0.21344E-02  6103   0.897E-02    0.221E-01
RMM:   4    -0.232399949163E+04    0.26394E-03   -0.21545E-03  4768   0.214E-02    0.135E-01
RMM:   5    -0.232399938147E+04    0.11016E-03   -0.45364E-04  4657   0.132E-02    0.935E-02
RMM:   6    -0.232399932859E+04    0.52881E-04   -0.34459E-04  4426   0.119E-02    0.673E-02
RMM:   7    -0.232399927401E+04    0.54581E-04   -0.88659E-05  3221   0.771E-03    0.202E-02
RMM:   8    -0.232399927724E+04   -0.32291E-05   -0.22571E-05  2959   0.459E-03
  36 F= -.23453819E+04 E0= -.23453817E+04  d E =-.348508E-02  mag=     3.9962
       N       E                     dE             d eps       ncg     rms          rms(c)
DAV:   1    -0.232396472904E+04    0.34545E-01   -0.42049E+00  4512   0.172E+00    0.492E-01
RMM:   2    -0.232399987738E+04   -0.35148E-01   -0.37004E-01  6518   0.386E-01    0.269E-01
RMM:   3    -0.232400225439E+04   -0.23770E-02   -0.35644E-02  6138   0.116E-01    0.288E-01
RMM:   4    -0.232400179851E+04    0.45589E-03   -0.35717E-03  5481   0.277E-02    0.175E-01
RMM:   5    -0.232400159244E+04    0.20607E-03   -0.75751E-04  5160   0.164E-02    0.117E-01
RMM:   6    -0.232400151195E+04    0.80490E-04   -0.56896E-04  4866   0.148E-02    0.859E-02
RMM:   7    -0.232400141848E+04    0.93471E-04   -0.14489E-04  3498   0.924E-03    0.241E-02
RMM:   8    -0.232400142059E+04   -0.21135E-05   -0.31549E-05  3045   0.485E-03
  37 F= -.23453828E+04 E0= -.23453826E+04  d E =-.431301E-02  mag=     3.9967
       N       E                     dE             d eps       ncg     rms          rms(c)
DAV:   1    -0.232399838756E+04    0.30309E-02   -0.33081E-01  4544   0.483E-01    0.135E-01
RMM:   2    -0.232400111364E+04   -0.27261E-02   -0.28471E-02  6508   0.107E-01    0.775E-02
RMM:   3    -0.232400131658E+04   -0.20295E-03   -0.28502E-03  4863   0.330E-02    0.844E-02
RMM:   4    -0.232400126898E+04    0.47602E-04   -0.27924E-04  3179   0.881E-03    0.445E-02
RMM:   5    -0.232400125876E+04    0.10223E-04   -0.60071E-05  3280   0.557E-03    0.358E-02
RMM:   6    -0.232400125120E+04    0.75560E-05   -0.42951E-05  3048   0.536E-03
  38 F= -.23453830E+04 E0= -.23453828E+04  d E =-.451087E-02  mag=     3.9968
       N       E                     dE             d eps       ncg     rms          rms(c)
DAV:   1    -0.232397523051E+04    0.26028E-01   -0.31080E+00  4512   0.149E+00    0.434E-01
RMM:   2    -0.232400481361E+04   -0.29583E-01   -0.30939E-01  6536   0.352E-01    0.278E-01
RMM:   3    -0.232400712665E+04   -0.23130E-02   -0.31627E-02  6233   0.109E-01    0.320E-01
RMM:   4    -0.232400634736E+04    0.77929E-03   -0.30263E-03  5335   0.262E-02    0.143E-01
RMM:   5    -0.232400627730E+04    0.70056E-04   -0.57558E-04  4715   0.141E-02    0.122E-01
RMM:   6    -0.232400615973E+04    0.11757E-03   -0.43071E-04  4723   0.127E-02    0.820E-02
RMM:   7    -0.232400610230E+04    0.57428E-04   -0.14739E-04  3611   0.882E-03    0.353E-02
RMM:   8    -0.232400609212E+04    0.10182E-04   -0.35690E-05  2943   0.557E-03    0.206E-02
RMM:   9    -0.232400608923E+04    0.28905E-05   -0.10673E-05  2910   0.292E-03
  39 F= -.23453865E+04 E0= -.23453863E+04  d E =-.354819E-02  mag=     3.9970
       N       E                     dE             d eps       ncg     rms          rms(c)
DAV:   1    -0.232399864627E+04    0.74458E-02   -0.90182E-01  4528   0.798E-01    0.235E-01
RMM:   2    -0.232400715527E+04   -0.85090E-02   -0.88903E-02  6531   0.188E-01    0.154E-01
RMM:   3    -0.232400782575E+04   -0.67048E-03   -0.91008E-03  5867   0.585E-02    0.177E-01
RMM:   4    -0.232400758722E+04    0.23853E-03   -0.88254E-04  3726   0.144E-02    0.777E-02
RMM:   5    -0.232400757452E+04    0.12700E-04   -0.17085E-04  3545   0.845E-03    0.690E-02
RMM:   6    -0.232400752968E+04    0.44835E-04   -0.13494E-04  3566   0.801E-03    0.387E-02
RMM:   7    -0.232400752044E+04    0.92448E-05   -0.43474E-05  3067   0.588E-03
  40 F= -.23453872E+04 E0= -.23453871E+04  d E =-.428953E-02  mag=     3.9970
       N       E                     dE             d eps       ncg     rms          rms(c)
DAV:   1    -0.232397246005E+04    0.35070E-01   -0.36005E+00  4512   0.160E+00    0.468E-01
RMM:   2    -0.232400641982E+04   -0.33960E-01   -0.35579E-01  6553   0.374E-01    0.297E-01
RMM:   3    -0.232400911189E+04   -0.26921E-02   -0.36788E-02  6260   0.118E-01    0.340E-01
RMM:   4    -0.232400824543E+04    0.86646E-03   -0.35289E-03  5509   0.282E-02    0.155E-01
RMM:   5    -0.232400817032E+04    0.75107E-04   -0.66727E-04  4832   0.148E-02    0.132E-01
RMM:   6    -0.232400803285E+04    0.13747E-03   -0.50489E-04  4811   0.135E-02    0.876E-02
RMM:   7    -0.232400796973E+04    0.63118E-04   -0.17229E-04  3780   0.926E-03    0.395E-02
RMM:   8    -0.232400795710E+04    0.12627E-04   -0.42275E-05  2957   0.576E-03    0.223E-02
RMM:   9    -0.232400795448E+04    0.26233E-05   -0.13514E-05  2933   0.313E-03
  41 F= -.23453863E+04 E0= -.23453862E+04  d E =-.335375E-02  mag=     3.9972
       N       E                     dE             d eps       ncg     rms          rms(c)
DAV:   1    -0.232398813526E+04    0.19822E-01   -0.20001E+00  4512   0.119E+00    0.349E-01
RMM:   2    -0.232400717531E+04   -0.19040E-01   -0.19831E-01  6523   0.279E-01    0.229E-01
RMM:   3    -0.232400857367E+04   -0.13984E-02   -0.19771E-02  6149   0.856E-02    0.248E-01
RMM:   4    -0.232400811990E+04    0.45377E-03   -0.19553E-03  4747   0.208E-02    0.118E-01
RMM:   5    -0.232400809383E+04    0.26070E-04   -0.34780E-04  4188   0.112E-02    0.108E-01
RMM:   6    -0.232400797017E+04    0.12366E-03   -0.30201E-04  4320   0.110E-02    0.528E-02
RMM:   7    -0.232400796240E+04    0.77690E-05   -0.94894E-05  3329   0.749E-03
  42 F= -.23453873E+04 E0= -.23453872E+04  d E =-.438109E-02  mag=     3.9971
       N       E                     dE             d eps       ncg     rms          rms(c)
DAV:   1    -0.232398085484E+04    0.27115E-01   -0.29003E+00  4512   0.146E+00    0.449E-01
RMM:   2    -0.232401020265E+04   -0.29348E-01   -0.30853E-01  6483   0.345E-01    0.234E-01
RMM:   3    -0.232401242814E+04   -0.22255E-02   -0.31398E-02  6125   0.107E-01    0.237E-01
RMM:   4    -0.232401210131E+04    0.32683E-03   -0.29932E-03  5311   0.249E-02    0.148E-01
RMM:   5    -0.232401197858E+04    0.12274E-03   -0.55134E-04  4932   0.140E-02    0.111E-01
RMM:   6    -0.232401189499E+04    0.83583E-04   -0.41196E-04  4681   0.126E-02    0.829E-02
RMM:   7    -0.232401182171E+04    0.73287E-04   -0.13240E-04  3623   0.876E-03    0.297E-02
RMM:   8    -0.232401181851E+04    0.31933E-05   -0.33792E-05  2967   0.542E-03
  43 F= -.23453901E+04 E0= -.23453899E+04  d E =-.274487E-02  mag=     3.9973
       N       E                     dE             d eps       ncg     rms          rms(c)
DAV:   1    -0.232400895011E+04    0.28716E-02   -0.31831E-01  4544   0.485E-01    0.151E-01
RMM:   2    -0.232401216360E+04   -0.32135E-02   -0.33816E-02  6486   0.114E-01    0.764E-02
RMM:   3    -0.232401240251E+04   -0.23891E-03   -0.34155E-03  4916   0.354E-02    0.701E-02
RMM:   4    -0.232401237637E+04    0.26147E-04   -0.32909E-04  3226   0.876E-03    0.479E-02
RMM:   5    -0.232401236767E+04    0.86998E-05   -0.65319E-05  3128   0.571E-03
  44 F= -.23453903E+04 E0= -.23453901E+04  d E =-.292828E-02  mag=     3.9974
       N       E                     dE             d eps       ncg     rms          rms(c)
DAV:   1    -0.232399517970E+04    0.17197E-01   -0.14860E+00  4512   0.105E+00    0.338E-01
RMM:   2    -0.232401418610E+04   -0.19006E-01   -0.19881E-01  6514   0.264E-01    0.181E-01
RMM:   3    -0.232401573174E+04   -0.15456E-02   -0.20873E-02  6120   0.845E-02    0.157E-01
RMM:   4    -0.232401556904E+04    0.16270E-03   -0.19780E-03  4390   0.198E-02    0.971E-02
RMM:   5    -0.232401552684E+04    0.42206E-04   -0.27202E-04  4173   0.104E-02    0.973E-02
RMM:   6    -0.232401547412E+04    0.52714E-04   -0.24763E-04  3585   0.993E-03    0.615E-02
RMM:   7    -0.232401543530E+04    0.38825E-04   -0.73859E-05  3270   0.710E-03    0.161E-02
RMM:   8    -0.232401543353E+04    0.17690E-05   -0.12714E-05  2957   0.436E-03
  45 F= -.23453925E+04 E0= -.23453924E+04  d E =-.223675E-02  mag=     3.9977
       N       E                     dE             d eps       ncg     rms          rms(c)
DAV:   1    -0.232399095067E+04    0.24485E-01   -0.18818E+00  4512   0.119E+00    0.381E-01
RMM:   2    -0.232401492156E+04   -0.23971E-01   -0.25133E-01  6496   0.296E-01    0.194E-01
RMM:   3    -0.232401683681E+04   -0.19153E-02   -0.25862E-02  6164   0.927E-02    0.160E-01
RMM:   4    -0.232401673197E+04    0.10484E-03   -0.24643E-03  4879   0.210E-02    0.120E-01
RMM:   5    -0.232401665258E+04    0.79392E-04   -0.33854E-04  4020   0.108E-02    0.953E-02
RMM:   6    -0.232401659828E+04    0.54298E-04   -0.26526E-04  4187   0.105E-02    0.732E-02
RMM:   7    -0.232401654351E+04    0.54768E-04   -0.92773E-05  3265   0.784E-03    0.184E-02
RMM:   8    -0.232401654309E+04    0.41889E-06   -0.20077E-05  2961   0.457E-03
  46 F= -.23453927E+04 E0= -.23453926E+04  d E =-.242533E-02  mag=     3.9980
       N       E                     dE             d eps       ncg     rms          rms(c)
DAV:   1    -0.232401190621E+04    0.46373E-02   -0.33072E-01  4544   0.498E-01    0.158E-01
RMM:   2    -0.232401610664E+04   -0.42004E-02   -0.43913E-02  6523   0.123E-01    0.817E-02
RMM:   3    -0.232401643845E+04   -0.33182E-03   -0.44866E-03  5192   0.396E-02    0.677E-02
RMM:   4    -0.232401642182E+04    0.16630E-04   -0.42816E-04  3280   0.958E-03    0.494E-02
RMM:   5    -0.232401640194E+04    0.19887E-04   -0.55505E-05  3107   0.557E-03    0.359E-02
RMM:   6    -0.232401639662E+04    0.53210E-05   -0.46769E-05  3055   0.525E-03
  47 F= -.23453929E+04 E0= -.23453928E+04  d E =-.266349E-02  mag=     3.9980
       N       E                     dE             d eps       ncg     rms          rms(c)
DAV:   1    -0.232400582404E+04    0.10578E-01   -0.81022E-01  4544   0.781E-01    0.254E-01
RMM:   2    -0.232401820180E+04   -0.12378E-01   -0.12815E-01  6624   0.204E-01    0.149E-01
RMM:   3    -0.232401922269E+04   -0.10209E-02   -0.12792E-02  5894   0.646E-02    0.163E-01
RMM:   4    -0.232401900375E+04    0.21894E-03   -0.12477E-03  3880   0.154E-02    0.798E-02
RMM:   5    -0.232401896839E+04    0.35358E-04   -0.14276E-04  3464   0.761E-03    0.649E-02
RMM:   6    -0.232401892960E+04    0.38792E-04   -0.12530E-04  3442   0.742E-03    0.418E-02
RMM:   7    -0.232401891428E+04    0.15313E-04   -0.46982E-05  3112   0.584E-03    0.163E-02
RMM:   8    -0.232401891343E+04    0.85233E-06   -0.12447E-05  2872   0.394E-03
  48 F= -.23453947E+04 E0= -.23453946E+04  d E =-.180451E-02  mag=     3.9981
       N       E                     dE             d eps       ncg     rms          rms(c)
DAV:   1    -0.232390456686E+04    0.11435E+00   -0.72563E+00  4512   0.234E+00    0.773E-01
RMM:   2    -0.232401733007E+04   -0.11276E+00   -0.11647E+00  6614   0.613E-01    0.499E-01
RMM:   3    -0.232402661822E+04   -0.92882E-02   -0.11782E-01  6401   0.193E-01    0.561E-01
RMM:   4    -0.232402393366E+04    0.26846E-02   -0.11497E-02  6193   0.464E-02    0.249E-01
RMM:   5    -0.232402356585E+04    0.36781E-03   -0.13751E-03  5189   0.190E-02    0.194E-01
RMM:   6    -0.232402322129E+04    0.34456E-03   -0.11474E-03  5325   0.197E-02    0.125E-01
RMM:   7    -0.232402307087E+04    0.15042E-03   -0.42971E-04  4995   0.129E-02    0.509E-02
RMM:   8    -0.232402306932E+04    0.15527E-05   -0.11071E-04  3227   0.794E-03    0.430E-02
RMM:   9    -0.232402304911E+04    0.20203E-04   -0.34257E-05  2976   0.481E-03    0.181E-02
RMM:  10    -0.232402305037E+04   -0.12546E-05   -0.12752E-05  2918   0.319E-03
  49 F= -.23453968E+04 E0= -.23453967E+04  d E =-.383976E-02  mag=     3.9984
       N       E                     dE             d eps       ncg     rms          rms(c)
DAV:   1    -0.232401377439E+04    0.92747E-02   -0.64251E-01  4544   0.691E-01    0.234E-01
RMM:   2    -0.232402471489E+04   -0.10940E-01   -0.11299E-01  6620   0.186E-01    0.154E-01
RMM:   3    -0.232402565157E+04   -0.93668E-03   -0.11535E-02  5811   0.589E-02    0.173E-01
RMM:   4    -0.232402540433E+04    0.24724E-03   -0.11401E-03  3581   0.142E-02    0.738E-02
RMM:   5    -0.232402537660E+04    0.27735E-04   -0.11648E-04  3300   0.664E-03    0.588E-02
RMM:   6    -0.232402534190E+04    0.34697E-04   -0.94721E-05  3187   0.649E-03    0.343E-02
RMM:   7    -0.232402533595E+04    0.59452E-05   -0.43534E-05  3126   0.525E-03
  50 F= -.23453984E+04 E0= -.23453983E+04  d E =-.162463E-02  mag=     3.9985
       N       E                     dE             d eps       ncg     rms          rms(c)
DAV:   1    -0.232392536639E+04    0.99976E-01   -0.57705E+00  4512   0.207E+00    0.705E-01
RMM:   2    -0.232402448433E+04   -0.99118E-01   -0.10231E+00  6640   0.562E-01    0.475E-01
RMM:   3    -0.232403275048E+04   -0.82661E-02   -0.10581E-01  6394   0.179E-01    0.518E-01
RMM:   4    -0.232403053762E+04    0.22129E-02   -0.10201E-02  6002   0.425E-02    0.227E-01
RMM:   5    -0.232403024558E+04    0.29204E-03   -0.10725E-03  4811   0.165E-02    0.175E-01
RMM:   6    -0.232402996942E+04    0.27616E-03   -0.86391E-04  4972   0.170E-02    0.113E-01
RMM:   7    -0.232402985992E+04    0.10950E-03   -0.38808E-04  4821   0.120E-02    0.549E-02
RMM:   8    -0.232402984316E+04    0.16760E-04   -0.98750E-05  3107   0.753E-03    0.371E-02
RMM:   9    -0.232402982887E+04    0.14290E-04   -0.26839E-05  2975   0.429E-03    0.165E-02
RMM:  10    -0.232402982932E+04   -0.44872E-06   -0.10274E-05  2900   0.283E-03
  51 F= -.23454009E+04 E0= -.23454009E+04  d E =-.416546E-02  mag=     3.9987
       N       E                     dE             d eps       ncg     rms          rms(c)
DAV:   1    -0.232402574438E+04    0.40845E-02   -0.25533E-01  4608   0.435E-01    0.148E-01
RMM:   2    -0.232403008936E+04   -0.43450E-02   -0.44909E-02  6607   0.117E-01    0.963E-02
RMM:   3    -0.232403046277E+04   -0.37341E-03   -0.45688E-03  4897   0.371E-02    0.109E-01
RMM:   4    -0.232403036584E+04    0.96931E-04   -0.45351E-04  3175   0.960E-03    0.463E-02
RMM:   5    -0.232403035518E+04    0.10654E-04   -0.47019E-05  3028   0.447E-03    0.371E-02
RMM:   6    -0.232403034141E+04    0.13776E-04   -0.38253E-05  2970   0.428E-03    0.216E-02
RMM:   7    -0.232403033917E+04    0.22386E-05   -0.17824E-05  2932   0.357E-03
  52 F= -.23454010E+04 E0= -.23454010E+04  d E =-.427094E-02  mag=     3.9988
       N       E                     dE             d eps       ncg     rms          rms(c)
DAV:   1    -0.232402172292E+04    0.86185E-02   -0.61884E-01  4528   0.688E-01    0.240E-01
RMM:   2    -0.232403211857E+04   -0.10396E-01   -0.10834E-01  6545   0.180E-01    0.131E-01
RMM:   3    -0.232403291261E+04   -0.79404E-03   -0.10832E-02  5903   0.597E-02    0.122E-01
RMM:   4    -0.232403279954E+04    0.11307E-03   -0.10691E-03  3749   0.139E-02    0.724E-02
RMM:   5    -0.232403276739E+04    0.32149E-04   -0.11989E-04  3340   0.735E-03    0.604E-02
RMM:   6    -0.232403273201E+04    0.35383E-04   -0.11001E-04  3306   0.718E-03    0.392E-02
RMM:   7    -0.232403272093E+04    0.11082E-04   -0.47922E-05  3052   0.600E-03    0.207E-02
RMM:   8    -0.232403271758E+04    0.33525E-05   -0.12558E-05  2878   0.398E-03
  53 F= -.23454029E+04 E0= -.23454028E+04  d E =-.182928E-02  mag=     3.9989
       N       E                     dE             d eps       ncg     rms          rms(c)
DAV:   1    -0.232400847441E+04    0.24247E-01   -0.14715E+00  4512   0.106E+00    0.370E-01
RMM:   2    -0.232403323929E+04   -0.24765E-01   -0.25772E-01  6513   0.277E-01    0.209E-01
RMM:   3    -0.232403514323E+04   -0.19039E-02   -0.25924E-02  6227   0.913E-02    0.200E-01
RMM:   4    -0.232403482129E+04    0.32194E-03   -0.25720E-03  4937   0.211E-02    0.115E-01
RMM:   5    -0.232403474267E+04    0.78613E-04   -0.28086E-04  3793   0.979E-03    0.940E-02
RMM:   6    -0.232403464731E+04    0.95368E-04   -0.26156E-04  3995   0.104E-02    0.556E-02
RMM:   7    -0.232403462318E+04    0.24123E-04   -0.10720E-04  3549   0.777E-03    0.302E-02
RMM:   8    -0.232403461599E+04    0.71901E-05   -0.27948E-05  2927   0.527E-03
  54 F= -.23454039E+04 E0= -.23454039E+04  d E =-.288960E-02  mag=     3.9990
       N       E                     dE             d eps       ncg     rms          rms(c)
DAV:   1    -0.232402827687E+04    0.63463E-02   -0.42274E-01  4544   0.556E-01    0.201E-01
RMM:   2    -0.232403612455E+04   -0.78477E-02   -0.82053E-02  6547   0.150E-01    0.116E-01
RMM:   3    -0.232403668387E+04   -0.55932E-03   -0.83350E-03  5577   0.505E-02    0.876E-02
RMM:   4    -0.232403662400E+04    0.59875E-04   -0.80475E-04  3384   0.115E-02    0.545E-02
RMM:   5    -0.232403660083E+04    0.23172E-04   -0.72553E-05  3037   0.603E-03    0.447E-02
RMM:   6    -0.232403659110E+04    0.97214E-05   -0.60961E-05  3082   0.524E-03
  55 F= -.23454055E+04 E0= -.23454054E+04  d E =-.153433E-02  mag=     3.9991
       N       E                     dE             d eps       ncg     rms          rms(c)
DAV:   1    -0.232398549715E+04    0.51104E-01   -0.27214E+00  4512   0.141E+00    0.507E-01
RMM:   2    -0.232403600308E+04   -0.50506E-01   -0.52865E-01  6571   0.381E-01    0.290E-01
RMM:   3    -0.232403969208E+04   -0.36890E-02   -0.54451E-02  6280   0.129E-01    0.224E-01
RMM:   4    -0.232403935829E+04    0.33378E-03   -0.51960E-03  5571   0.282E-02    0.148E-01
RMM:   5    -0.232403921893E+04    0.13937E-03   -0.47924E-04  4096   0.118E-02    0.124E-01
RMM:   6    -0.232403909245E+04    0.12647E-03   -0.41014E-04  4299   0.120E-02    0.953E-02
RMM:   7    -0.232403900529E+04    0.87165E-04   -0.21582E-04  3856   0.986E-03    0.286E-02
RMM:   8    -0.232403900024E+04    0.50470E-05   -0.36272E-05  3008   0.568E-03
  56 F= -.23454068E+04 E0= -.23454067E+04  d E =-.283479E-02  mag=     3.9992
       N       E                     dE             d eps       ncg     rms          rms(c)
DAV:   1    -0.232403507015E+04    0.39351E-02   -0.26107E-01  4560   0.450E-01    0.160E-01
RMM:   2    -0.232404014802E+04   -0.50779E-02   -0.52946E-02  6585   0.122E-01    0.957E-02
RMM:   3    -0.232404053499E+04   -0.38697E-03   -0.53833E-03  5027   0.413E-02    0.958E-02
RMM:   4    -0.232404047449E+04    0.60496E-04   -0.53118E-04  3207   0.976E-03    0.497E-02
RMM:   5    -0.232404046034E+04    0.14154E-04   -0.45887E-05  2990   0.455E-03    0.384E-02
RMM:   6    -0.232404044327E+04    0.17072E-04   -0.37683E-05  2971   0.439E-03    0.205E-02
RMM:   7    -0.232404044352E+04   -0.25299E-06   -0.25237E-05  2967   0.400E-03
  57 F= -.23454078E+04 E0= -.23454078E+04  d E =-.105194E-02  mag=     3.9992
       N       E                     dE             d eps       ncg     rms          rms(c)
DAV:   1    -0.232399546670E+04    0.44977E-01   -0.23477E+00  4512   0.135E+00    0.473E-01
RMM:   2    -0.232404109304E+04   -0.45626E-01   -0.47539E-01  6634   0.365E-01    0.271E-01
RMM:   3    -0.232404460901E+04   -0.35160E-02   -0.48369E-02  6261   0.125E-01    0.274E-01
RMM:   4    -0.232404415631E+04    0.45270E-03   -0.47090E-03  5085   0.267E-02    0.149E-01
RMM:   5    -0.232404399562E+04    0.16069E-03   -0.36384E-04  3934   0.105E-02    0.109E-01
RMM:   6    -0.232404385027E+04    0.14535E-03   -0.35897E-04  3958   0.116E-02    0.623E-02
RMM:   7    -0.232404380719E+04    0.43089E-04   -0.16992E-04  3897   0.866E-03    0.210E-02
RMM:   8    -0.232404380651E+04    0.67503E-06   -0.22369E-05  3005   0.525E-03
  58 F= -.23454100E+04 E0= -.23454100E+04  d E =-.324870E-02  mag=     3.9992
       N       E                     dE             d eps       ncg     rms          rms(c)
DAV:   1    -0.232385157526E+04    0.19223E+00   -0.93914E+00  4512   0.269E+00    0.953E-01
RMM:   2    -0.232403536228E+04   -0.18379E+00   -0.19126E+00  6628   0.734E-01    0.579E-01
RMM:   3    -0.232405012043E+04   -0.14758E-01   -0.20201E-01  6345   0.258E-01    0.604E-01
RMM:   4    -0.232404765839E+04    0.24620E-02   -0.19054E-02  6297   0.550E-02    0.304E-01
RMM:   5    -0.232404695740E+04    0.70098E-03   -0.15726E-03  5226   0.199E-02    0.219E-01
RMM:   6    -0.232404640746E+04    0.54995E-03   -0.14738E-03  5090   0.214E-02    0.133E-01
RMM:   7    -0.232404620147E+04    0.20599E-03   -0.72246E-04  5153   0.155E-02    0.548E-02
RMM:   8    -0.232404619983E+04    0.16367E-05   -0.13762E-04  3383   0.918E-03    0.506E-02
RMM:   9    -0.232404618207E+04    0.17760E-04   -0.50551E-05  2989   0.552E-03    0.264E-02
RMM:  10    -0.232404618531E+04   -0.32408E-05   -0.19508E-05  2950   0.370E-03
  59 F= -.23454101E+04 E0= -.23454100E+04  d E =-.333029E-02  mag=     3.9992
       N       E                     dE             d eps       ncg     rms          rms(c)
DAV:   1    -0.232400072860E+04    0.45453E-01   -0.21887E+00  4512   0.130E+00    0.455E-01
RMM:   2    -0.232404335198E+04   -0.42623E-01   -0.44343E-01  6628   0.351E-01    0.251E-01
RMM:   3    -0.232404644910E+04   -0.30971E-02   -0.44077E-02  6253   0.117E-01    0.235E-01
RMM:   4    -0.232404616751E+04    0.28158E-03   -0.42869E-03  4869   0.248E-02    0.147E-01
RMM:   5    -0.232404601393E+04    0.15358E-03   -0.32262E-04  3701   0.997E-03    0.107E-01
RMM:   6    -0.232404587693E+04    0.13700E-03   -0.33381E-04  3912   0.114E-02    0.601E-02
RMM:   7    -0.232404583379E+04    0.43136E-04   -0.18357E-04  4113   0.896E-03    0.164E-02
RMM:   8    -0.232404583040E+04    0.33975E-05   -0.13683E-05  2909   0.501E-03
  60 F= -.23454108E+04 E0= -.23454108E+04  d E =-.407819E-02  mag=     3.9992
       N       E                     dE             d eps       ncg     rms          rms(c)
DAV:   1    -0.232402737842E+04    0.18455E-01   -0.10231E+00  4512   0.912E-01    0.322E-01
RMM:   2    -0.232404799757E+04   -0.20619E-01   -0.21372E-01  6563   0.251E-01    0.204E-01
RMM:   3    -0.232404962350E+04   -0.16259E-02   -0.21615E-02  6152   0.855E-02    0.229E-01
RMM:   4    -0.232404923840E+04    0.38510E-03   -0.21472E-03  4062   0.191E-02    0.969E-02
RMM:   5    -0.232404916847E+04    0.69928E-04   -0.18681E-04  3425   0.822E-03    0.729E-02
RMM:   6    -0.232404909627E+04    0.72201E-04   -0.15478E-04  3399   0.848E-03    0.375E-02
RMM:   7    -0.232404907842E+04    0.17852E-04   -0.76388E-05  3384   0.683E-03    0.117E-02
RMM:   8    -0.232404907745E+04    0.96504E-06   -0.10202E-05  2927   0.446E-03
  61 F= -.23454133E+04 E0= -.23454132E+04  d E =-.241541E-02  mag=     3.9992
       N       E                     dE             d eps       ncg     rms          rms(c)
DAV:   1    -0.232397244262E+04    0.76636E-01   -0.37570E+00  4512   0.174E+00    0.623E-01
RMM:   2    -0.232404853961E+04   -0.76097E-01   -0.78836E-01  6559   0.481E-01    0.410E-01
RMM:   3    -0.232405443246E+04   -0.58928E-02   -0.79996E-02  6331   0.162E-01    0.448E-01
RMM:   4    -0.232405290716E+04    0.15253E-02   -0.79403E-03  5845   0.366E-02    0.191E-01
RMM:   5    -0.232405263541E+04    0.27175E-03   -0.72179E-04  4514   0.139E-02    0.140E-01
RMM:   6    -0.232405238190E+04    0.25351E-03   -0.56501E-04  4531   0.144E-02    0.743E-02
RMM:   7    -0.232405231902E+04    0.62872E-04   -0.27397E-04  4504   0.109E-02    0.314E-02
RMM:   8    -0.232405231705E+04    0.19760E-05   -0.50990E-05  3030   0.670E-03
  62 F= -.23454149E+04 E0= -.23454149E+04  d E =-.407902E-02  mag=     3.9992
       N       E                     dE             d eps       ncg     rms          rms(c)
DAV:   1    -0.232402669962E+04    0.25619E-01   -0.14482E+00  4512   0.107E+00    0.375E-01
RMM:   2    -0.232405426100E+04   -0.27561E-01   -0.28495E-01  6579   0.289E-01    0.237E-01
RMM:   3    -0.232405630208E+04   -0.20411E-02   -0.28787E-02  6225   0.959E-02    0.247E-01
RMM:   4    -0.232405582333E+04    0.47875E-03   -0.28714E-03  4698   0.217E-02    0.116E-01
RMM:   5    -0.232405572925E+04    0.94081E-04   -0.25145E-04  3609   0.887E-03    0.869E-02
RMM:   6    -0.232405563666E+04    0.92587E-04   -0.20618E-04  3633   0.957E-03    0.460E-02
RMM:   7    -0.232405562689E+04    0.97752E-05   -0.12326E-04  3712   0.774E-03    0.306E-02
RMM:   8    -0.232405561923E+04    0.76562E-05   -0.28485E-05  2937   0.532E-03
  63 F= -.23454173E+04 E0= -.23454173E+04  d E =-.242580E-02  mag=     3.9992
       N       E                     dE             d eps       ncg     rms          rms(c)
DAV:   1    -0.232393665980E+04    0.11897E+00   -0.61108E+00  4512   0.219E+00    0.770E-01
RMM:   2    -0.232405370290E+04   -0.11704E+00   -0.12083E+00  6582   0.598E-01    0.501E-01
RMM:   3    -0.232406224327E+04   -0.85404E-02   -0.12326E-01  6392   0.201E-01    0.518E-01
RMM:   4    -0.232406007953E+04    0.21637E-02   -0.12039E-02  6164   0.452E-02    0.239E-01
RMM:   5    -0.232405966303E+04    0.41650E-03   -0.10819E-03  4957   0.165E-02    0.177E-01
RMM:   6    -0.232405929080E+04    0.37222E-03   -0.88919E-04  5007   0.176E-02    0.101E-01
RMM:   7    -0.232405921865E+04    0.72154E-04   -0.50151E-04  4941   0.137E-02    0.668E-02
RMM:   8    -0.232405918194E+04    0.36711E-04   -0.12509E-04  3218   0.814E-03    0.371E-02
RMM:   9    -0.232405917121E+04    0.10722E-04   -0.29047E-05  2998   0.469E-03    0.179E-02
RMM:  10    -0.232405917326E+04   -0.20458E-05   -0.11174E-05  2944   0.303E-03
  64 F= -.23454191E+04 E0= -.23454191E+04  d E =-.421124E-02  mag=     3.9993
       N       E                     dE             d eps       ncg     rms          rms(c)
DAV:   1    -0.232403299637E+04    0.26175E-01   -0.14801E+00  4544   0.107E+00    0.380E-01
RMM:   2    -0.232406108827E+04   -0.28092E-01   -0.29034E-01  6590   0.291E-01    0.239E-01
RMM:   3    -0.232406304057E+04   -0.19523E-02   -0.29570E-02  6252   0.968E-02    0.222E-01
RMM:   4    -0.232406265172E+04    0.38885E-03   -0.29176E-03  4775   0.216E-02    0.119E-01
RMM:   5    -0.232406255438E+04    0.97339E-04   -0.24223E-04  3457   0.867E-03    0.878E-02
RMM:   6    -0.232406246806E+04    0.86322E-04   -0.20239E-04  3476   0.929E-03    0.519E-02
RMM:   7    -0.232406245078E+04    0.17275E-04   -0.13890E-04  3711   0.802E-03    0.312E-02
RMM:   8    -0.232406244355E+04    0.72337E-05   -0.29523E-05  2958   0.520E-03
  65 F= -.23454216E+04 E0= -.23454216E+04  d E =-.245809E-02  mag=     3.9993
       N       E                     dE             d eps       ncg     rms          rms(c)
DAV:   1    -0.232393894991E+04    0.12350E+00   -0.63641E+00  4512   0.222E+00    0.791E-01
RMM:   2    -0.232406033836E+04   -0.12139E+00   -0.12546E+00  6580   0.606E-01    0.505E-01
RMM:   3    -0.232406868749E+04   -0.83491E-02   -0.12882E-01  6384   0.203E-01    0.469E-01
RMM:   4    -0.232406692624E+04    0.17613E-02   -0.12575E-02  6209   0.452E-02    0.246E-01
RMM:   5    -0.232406650137E+04    0.42486E-03   -0.10510E-03  4851   0.160E-02    0.182E-01
RMM:   6    -0.232406613668E+04    0.36470E-03   -0.88047E-04  4897   0.172E-02    0.109E-01
RMM:   7    -0.232406604519E+04    0.91485E-04   -0.54822E-04  4971   0.141E-02    0.636E-02
RMM:   8    -0.232406601452E+04    0.30669E-04   -0.12200E-04  3211   0.805E-03    0.398E-02
RMM:   9    -0.232406599870E+04    0.15821E-04   -0.30494E-05  2978   0.472E-03    0.186E-02
RMM:  10    -0.232406599852E+04    0.18229E-06   -0.11875E-05  2922   0.298E-03
  66 F= -.23454235E+04 E0= -.23454235E+04  d E =-.436130E-02  mag=     3.9995
       N       E                     dE             d eps       ncg     rms          rms(c)
DAV:   1    -0.232403256051E+04    0.33438E-01   -0.18956E+00  4512   0.123E+00    0.434E-01
RMM:   2    -0.232406803192E+04   -0.35471E-01   -0.36665E-01  6562   0.330E-01    0.255E-01
RMM:   3    -0.232407050086E+04   -0.24689E-02   -0.36676E-02  6270   0.109E-01    0.250E-01
RMM:   4    -0.232407003011E+04    0.47075E-03   -0.36398E-03  5220   0.242E-02    0.134E-01
RMM:   5    -0.232406990874E+04    0.12137E-03   -0.32396E-04  3818   0.992E-03    0.998E-02
[...]
DAV:   1    -0.232413182129E+04    0.13323E-03   -0.11752E-02  4512   0.986E-02    0.265E-02
RMM:   2    -0.232413193417E+04   -0.11288E-03   -0.11332E-03  5994   0.216E-02    0.286E-02
RMM:   3    -0.232413193682E+04   -0.26536E-05   -0.11455E-04  2993   0.765E-03    0.220E-02
RMM:   4    -0.232413193257E+04    0.42471E-05   -0.11109E-05  2911   0.265E-03
 155 F= -.23454755E+04 E0= -.23454755E+04  d E =-.377812E-04  mag=     3.9997
       N       E                     dE             d eps       ncg     rms          rms(c)
DAV:   1    -0.232413184130E+04    0.95520E-04   -0.15500E-02  4512   0.117E-01    0.341E-02
RMM:   2    -0.232413196336E+04   -0.12206E-03   -0.12991E-03  6165   0.247E-02    0.185E-02
RMM:   3    -0.232413197086E+04   -0.75033E-05   -0.12875E-04  2997   0.923E-03    0.205E-02
RMM:   4    -0.232413196692E+04    0.39464E-05   -0.14441E-05  2936   0.317E-03
 156 F= -.23454756E+04 E0= -.23454755E+04  d E =-.509978E-04  mag=     3.9997
       N       E                     dE             d eps       ncg     rms          rms(c)
DAV:   1    -0.232413192501E+04    0.45857E-04   -0.40667E-03  4632   0.598E-02    0.209E-02
RMM:   2    -0.232413196587E+04   -0.40866E-04   -0.35583E-04  4849   0.127E-02    0.321E-02
RMM:   3    -0.232413195854E+04    0.73296E-05   -0.42719E-05  2939   0.577E-03
 157 F= -.23454756E+04 E0= -.23454755E+04  d E =-.512540E-04  mag=     3.9997
       N       E                     dE             d eps       ncg     rms          rms(c)
DAV:   1    -0.232413179726E+04    0.16861E-03   -0.18940E-02  4512   0.125E-01    0.345E-02
RMM:   2    -0.232413195748E+04   -0.16022E-03   -0.16593E-03  6140   0.268E-02    0.242E-02
RMM:   3    -0.232413196324E+04   -0.57645E-05   -0.15628E-04  3014   0.931E-03    0.192E-02
RMM:   4    -0.232413195872E+04    0.45221E-05   -0.16516E-05  2941   0.324E-03
 158 F= -.23454756E+04 E0= -.23454756E+04  d E =-.295392E-04  mag=     3.9997
       N       E                     dE             d eps       ncg     rms          rms(c)
DAV:   1    -0.232413190824E+04    0.55002E-04   -0.40700E-03  4648   0.581E-02    0.198E-02
RMM:   2    -0.232413195547E+04   -0.47223E-04   -0.37145E-04  4696   0.126E-02    0.377E-02
RMM:   3    -0.232413194234E+04    0.13128E-04   -0.43858E-05  2936   0.555E-03    0.993E-03
RMM:   4    -0.232413194135E+04    0.98580E-06   -0.46076E-06  2816   0.182E-03
 159 F= -.23454756E+04 E0= -.23454756E+04  d E =-.259682E-04  mag=     3.9997
       N       E                     dE             d eps       ncg     rms          rms(c)
DAV:   1    -0.232413178651E+04    0.15583E-03   -0.18970E-02  4512   0.127E-01    0.354E-02
RMM:   2    -0.232413194934E+04   -0.16282E-03   -0.16927E-03  6181   0.269E-02    0.261E-02
RMM:   3    -0.232413195848E+04   -0.91395E-05   -0.16082E-04  3025   0.962E-03    0.287E-02
RMM:   4    -0.232413195113E+04    0.73470E-05   -0.17609E-05  2925   0.339E-03
 160 F= -.23454756E+04 E0= -.23454756E+04  d E =-.446965E-04  mag=     3.9997
       N       E                     dE             d eps       ncg     rms          rms(c)
DAV:   1    -0.232413189355E+04    0.64928E-04   -0.45988E-03  4600   0.625E-02    0.196E-02
RMM:   2    -0.232413193699E+04   -0.43441E-04   -0.42092E-04  4886   0.132E-02    0.233E-02
RMM:   3    -0.232413193389E+04    0.30941E-05   -0.43757E-05  2929   0.578E-03
 161 F= -.23454756E+04 E0= -.23454756E+04  d E =-.448333E-04  mag=     3.9997
       N       E                     dE             d eps       ncg     rms          rms(c)
DAV:   1    -0.232413179523E+04    0.14176E-03   -0.14663E-02  4512   0.112E-01    0.314E-02
RMM:   2    -0.232413192954E+04   -0.13431E-03   -0.14086E-03  6082   0.249E-02    0.188E-02
RMM:   3    -0.232413193561E+04   -0.60684E-05   -0.12306E-04  3015   0.870E-03    0.195E-02
RMM:   4    -0.232413193223E+04    0.33825E-05   -0.14394E-05  2928   0.298E-03
 162 F= -.23454757E+04 E0= -.23454756E+04  d E =-.366851E-04  mag=     3.9997
       N       E                     dE             d eps       ncg     rms          rms(c)
DAV:   1    -0.232413187256E+04    0.63045E-04   -0.41130E-03  4624   0.596E-02    0.192E-02
RMM:   2    -0.232413191724E+04   -0.44676E-04   -0.40182E-04  4758   0.132E-02    0.307E-02
RMM:   3    -0.232413191097E+04    0.62724E-05   -0.45553E-05  2944   0.578E-03
 163 F= -.23454757E+04 E0= -.23454756E+04  d E =-.359895E-04  mag=     3.9997
       N       E                     dE             d eps       ncg     rms          rms(c)
DAV:   1    -0.232413179529E+04    0.12195E-03   -0.11835E-02  4512   0.992E-02    0.278E-02
RMM:   2    -0.232413190578E+04   -0.11049E-03   -0.11459E-03  5956   0.220E-02    0.203E-02
RMM:   3    -0.232413191047E+04   -0.46854E-05   -0.10418E-04  2979   0.775E-03    0.195E-02
RMM:   4    -0.232413190727E+04    0.31924E-05   -0.11937E-05  2905   0.275E-03
 164 F= -.23454757E+04 E0= -.23454757E+04  d E =-.303362E-04  mag=     3.9997
       N       E                     dE             d eps       ncg     rms          rms(c)
DAV:   1    -0.232413183467E+04    0.75797E-04   -0.52604E-03  4520   0.662E-02    0.204E-02
RMM:   2    -0.232413188914E+04   -0.54466E-04   -0.51447E-04  5128   0.143E-02    0.280E-02
RMM:   3    -0.232413188421E+04    0.49214E-05   -0.51574E-05  2936   0.587E-03
 165 F= -.23454757E+04 E0= -.23454757E+04  d E =-.301360E-04  mag=     3.9997
       N       E                     dE             d eps       ncg     rms          rms(c)
DAV:   1    -0.232413173999E+04    0.14914E-03   -0.14200E-02  4512   0.108E-01    0.301E-02
RMM:   2    -0.232413187270E+04   -0.13271E-03   -0.13992E-03  6094   0.244E-02    0.172E-02
RMM:   3    -0.232413187918E+04   -0.64801E-05   -0.12561E-04  2979   0.842E-03    0.156E-02
RMM:   4    -0.232413187822E+04    0.95910E-06   -0.14512E-05  2936   0.266E-03
 166 F= -.23454757E+04 E0= -.23454757E+04  d E =-.361517E-04  mag=     3.9997
       N       E                     dE             d eps       ncg     rms          rms(c)
DAV:   1    -0.232413181521E+04    0.63975E-04   -0.38862E-03  4560   0.567E-02    0.170E-02
RMM:   2    -0.232413185379E+04   -0.38578E-04   -0.38482E-04  4695   0.127E-02    0.198E-02
RMM:   3    -0.232413185384E+04   -0.51805E-07   -0.41736E-05  2927   0.553E-03
 167 F= -.23454757E+04 E0= -.23454757E+04  d E =-.340592E-04  mag=     3.9997
       N       E                     dE             d eps       ncg     rms          rms(c)
DAV:   1    -0.232413168024E+04    0.17354E-03   -0.16349E-02  4512   0.115E-01    0.332E-02
RMM:   2    -0.232413184305E+04   -0.16281E-03   -0.17002E-03  6143   0.265E-02    0.225E-02
RMM:   3    -0.232413185111E+04   -0.80526E-05   -0.15589E-04  3006   0.912E-03    0.206E-02
RMM:   4    -0.232413184794E+04    0.31626E-05   -0.17850E-05  2936   0.310E-03
 168 F= -.23454758E+04 E0= -.23454757E+04  d E =-.290351E-04  mag=     3.9997
       N       E                     dE             d eps       ncg     rms          rms(c)
DAV:   1    -0.232413181968E+04    0.31423E-04   -0.15118E-03  4600   0.353E-02    0.144E-02
RMM:   2    -0.232413184040E+04   -0.20713E-04   -0.16459E-04  3711   0.810E-03    0.259E-02
RMM:   3    -0.232413183415E+04    0.62462E-05   -0.20443E-05  2827   0.447E-03
 169 F= -.23454757E+04 E0= -.23454757E+04  d E =-.260260E-04  mag=     3.9997
       N       E                     dE             d eps       ncg     rms          rms(c)
DAV:   1    -0.232413171117E+04    0.12923E-03   -0.12722E-02  4512   0.103E-01    0.299E-02
RMM:   2    -0.232413183981E+04   -0.12864E-03   -0.13467E-03  6123   0.237E-02    0.187E-02
RMM:   3    -0.232413184710E+04   -0.72847E-05   -0.12123E-04  2983   0.840E-03    0.206E-02
RMM:   4    -0.232413184426E+04    0.28320E-05   -0.14310E-05  2933   0.280E-03
 170 F= -.23454758E+04 E0= -.23454758E+04  d E =-.348359E-04  mag=     3.9997
       N       E                     dE             d eps       ncg     rms          rms(c)
DAV:   1    -0.232413183690E+04    0.10194E-04   -0.17903E-04  5064   0.126E-02    0.732E-03
RMM:   2    -0.232413184047E+04   -0.35719E-05   -0.25094E-05  2783   0.325E-03
 171 F= -.23454758E+04 E0= -.23454758E+04  d E =-.341212E-04  mag=     3.9997
       N       E                     dE             d eps       ncg     rms          rms(c)
DAV:   1    -0.232413176163E+04    0.75275E-04   -0.81562E-03  4512   0.853E-02    0.273E-02
RMM:   2    -0.232413184746E+04   -0.85834E-04   -0.87898E-04  5798   0.201E-02    0.234E-02
RMM:   3    -0.232413185127E+04   -0.38115E-05   -0.91058E-05  2964   0.783E-03
 172 F= -.23454758E+04 E0= -.23454758E+04  d E =-.291238E-04  mag=     3.9997
       N       E                     dE             d eps       ncg     rms          rms(c)
DAV:   1    -0.232413184167E+04    0.57942E-05   -0.13701E-04  5288   0.117E-02    0.989E-03
RMM:   2    -0.232413184504E+04   -0.33762E-05   -0.23733E-05  2695   0.328E-03
 173 F= -.23454758E+04 E0= -.23454758E+04  d E =-.251640E-04  mag=     3.9997
       N       E                     dE             d eps       ncg     rms          rms(c)
DAV:   1    -0.232413173357E+04    0.10810E-03   -0.71874E-03  4512   0.798E-02    0.242E-02
RMM:   2    -0.232413180973E+04   -0.76163E-04   -0.80546E-04  5707   0.190E-02    0.135E-02
RMM:   3    -0.232413181289E+04   -0.31578E-05   -0.72321E-05  2944   0.706E-03
 174 F= -.23454758E+04 E0= -.23454758E+04  d E =-.146029E-04  mag=     3.9997
       N       E                     dE             d eps       ncg     rms          rms(c)
DAV:   1    -0.232413180737E+04    0.23613E-05   -0.49346E-05  4680   0.726E-03    0.932E-03
RMM:   2    -0.232413181074E+04   -0.33686E-05   -0.13228E-05  2503   0.299E-03
 175 F= -.23454758E+04 E0= -.23454758E+04  d E =-.160219E-04  mag=     3.9997
       N       E                     dE             d eps       ncg     rms          rms(c)
DAV:   1    -0.232413170764E+04    0.99730E-04   -0.60865E-03  4512   0.736E-02    0.223E-02
RMM:   2    -0.232413177381E+04   -0.66176E-04   -0.69033E-04  5615   0.174E-02    0.160E-02
RMM:   3    -0.232413177625E+04   -0.24316E-05   -0.61390E-05  2930   0.659E-03
 176 F= -.23454758E+04 E0= -.23454758E+04  d E =-.168335E-04  mag=     3.9997
       N       E                     dE             d eps       ncg     rms          rms(c)
DAV:   1    -0.232413177665E+04   -0.28376E-05   -0.24636E-05  4184   0.551E-03    0.879E-03
RMM:   2    -0.232413177902E+04   -0.23675E-05   -0.80319E-06  2375   0.292E-03
 177 F= -.23454758E+04 E0= -.23454758E+04  d E =-.173531E-04  mag=     3.9997
       N       E                     dE             d eps       ncg     rms          rms(c)
DAV:   1    -0.232413171813E+04    0.58522E-04   -0.57722E-03  4512   0.737E-02    0.221E-02
RMM:   2    -0.232413177204E+04   -0.53913E-04   -0.57096E-04  5548   0.165E-02    0.123E-02
RMM:   3    -0.232413177465E+04   -0.26033E-05   -0.50112E-05  2913   0.647E-03
 178 F= -.23454759E+04 E0= -.23454758E+04  d E =-.110003E-04  mag=     3.9997
       N       E                     dE             d eps       ncg     rms          rms(c)
DAV:   1    -0.232413177294E+04   -0.89666E-06   -0.10597E-05  3864   0.401E-03    0.778E-03
RMM:   2    -0.232413177476E+04   -0.18216E-05   -0.53451E-06  2307   0.189E-03
 179 F= -.23454759E+04 E0= -.23454758E+04  d E =-.112263E-04  mag=     3.9997
       N       E                     dE             d eps       ncg     rms          rms(c)
DAV:   1    -0.232413173580E+04    0.37143E-04   -0.46131E-03  4512   0.644E-02    0.184E-02
RMM:   2    -0.232413178116E+04   -0.45362E-04   -0.47518E-04  5133   0.146E-02    0.113E-02
RMM:   3    -0.232413178340E+04   -0.22388E-05   -0.41898E-05  2749   0.589E-03
 180 F= -.23454759E+04 E0= -.23454758E+04  d E =-.165044E-04  mag=     3.9997
       N       E                     dE             d eps       ncg     rms          rms(c)
DAV:   1    -0.232413177376E+04    0.73944E-05   -0.46583E-04  4496   0.207E-02    0.858E-03
RMM:   2    -0.232413177902E+04   -0.52611E-05   -0.54004E-05  3127   0.515E-03
 181 F= -.23454759E+04 E0= -.23454758E+04  d E =-.146492E-04  mag=     3.9997
       N       E                     dE             d eps       ncg     rms          rms(c)
DAV:   1    -0.232413173137E+04    0.42395E-04   -0.45430E-03  4512   0.629E-02    0.180E-02
RMM:   2    -0.232413177796E+04   -0.46590E-04   -0.48663E-04  4925   0.151E-02    0.124E-02
RMM:   3    -0.232413178124E+04   -0.32852E-05   -0.51733E-05  2879   0.644E-03
 182 F= -.23454759E+04 E0= -.23454759E+04  d E =-.165459E-04  mag=     3.9997
       N       E                     dE             d eps       ncg     rms          rms(c)
DAV:   1    -0.232413176584E+04    0.12113E-04   -0.75210E-04  4560   0.258E-02    0.103E-02
RMM:   2    -0.232413177545E+04   -0.96099E-05   -0.88605E-05  3344   0.622E-03
 183 F= -.23454759E+04 E0= -.23454759E+04  d E =-.166026E-04  mag=     3.9997
       N       E                     dE             d eps       ncg     rms          rms(c)
DAV:   1    -0.232413172317E+04    0.42671E-04   -0.42524E-03  4504   0.608E-02    0.179E-02
RMM:   2    -0.232413176610E+04   -0.42923E-04   -0.43350E-04  4715   0.145E-02    0.182E-02
RMM:   3    -0.232413176725E+04   -0.11559E-05   -0.47430E-05  2885   0.633E-03
 184 F= -.23454759E+04 E0= -.23454759E+04  d E =-.162250E-04  mag=     3.9997
       N       E                     dE             d eps       ncg     rms          rms(c)
DAV:   1    -0.232413175628E+04    0.98153E-05   -0.25963E-04  4848   0.153E-02    0.787E-03
RMM:   2    -0.232413175939E+04   -0.31071E-05   -0.31054E-05  2743   0.389E-03
 185 F= -.23454759E+04 E0= -.23454759E+04  d E =-.144398E-04  mag=     3.9997
       N       E                     dE             d eps       ncg     rms          rms(c)
DAV:   1    -0.232413170625E+04    0.50033E-04   -0.47126E-03  4512   0.643E-02    0.183E-02
RMM:   2    -0.232413175084E+04   -0.44589E-04   -0.46846E-04  4818   0.149E-02    0.116E-02
RMM:   3    -0.232413175273E+04   -0.18950E-05   -0.42464E-05  2842   0.619E-03
 186 F= -.23454759E+04 E0= -.23454759E+04  d E =-.174751E-04  mag=     3.9997
       N       E                     dE             d eps       ncg     rms          rms(c)
DAV:   1    -0.232413173800E+04    0.12840E-04   -0.55975E-04  4512   0.224E-02    0.877E-03
RMM:   2    -0.232413174386E+04   -0.58594E-05   -0.61968E-05  3176   0.548E-03
 187 F= -.23454759E+04 E0= -.23454759E+04  d E =-.169885E-04  mag=     3.9997
       N       E                     dE             d eps       ncg     rms          rms(c)
DAV:   1    -0.232413169922E+04    0.38778E-04   -0.34400E-03  4480   0.548E-02    0.160E-02
RMM:   2    -0.232413173420E+04   -0.34981E-04   -0.35363E-04  4493   0.131E-02    0.162E-02
RMM:   3    -0.232413173458E+04   -0.37608E-06   -0.33076E-05  2768   0.570E-03
 188 F= -.23454759E+04 E0= -.23454759E+04  d E =-.157933E-04  mag=     3.9997
       N       E                     dE             d eps       ncg     rms          rms(c)
DAV:   1    -0.232413171751E+04    0.16688E-04   -0.62514E-04  4488   0.235E-02    0.855E-03
RMM:   2    -0.232413172354E+04   -0.60260E-05   -0.65192E-05  3193   0.575E-03
 189 F= -.23454759E+04 E0= -.23454759E+04  d E =-.155222E-04  mag=     3.9997
       N       E                     dE             d eps       ncg     rms          rms(c)
DAV:   1    -0.232413168552E+04    0.31996E-04   -0.32749E-03  4512   0.542E-02    0.168E-02
RMM:   2    -0.232413171680E+04   -0.31284E-04   -0.32054E-04  4496   0.130E-02    0.134E-02
RMM:   3    -0.232413171726E+04   -0.46098E-06   -0.32691E-05  2752   0.590E-03
 190 F= -.23454759E+04 E0= -.23454759E+04  d E =-.129652E-04  mag=     3.9997
       N       E                     dE             d eps       ncg     rms          rms(c)
DAV:   1    -0.232413170818E+04    0.86162E-05   -0.21327E-04  4824   0.142E-02    0.774E-03
RMM:   2    -0.232413171154E+04   -0.33588E-05   -0.26582E-05  2689   0.367E-03
 191 F= -.23454759E+04 E0= -.23454759E+04  d E =-.122047E-04  mag=     3.9997
       N       E                     dE             d eps       ncg     rms          rms(c)
DAV:   1    -0.232413168001E+04    0.28179E-04   -0.28692E-03  4448   0.489E-02    0.139E-02
RMM:   2    -0.232413170690E+04   -0.26894E-04   -0.27570E-04  4183   0.115E-02    0.127E-02
RMM:   3    -0.232413170810E+04   -0.12048E-05   -0.28999E-05  2552   0.541E-03
 192 F= -.23454759E+04 E0= -.23454759E+04  d E =-.664809E-05  mag=     3.9997
       N       E                     dE             d eps       ncg     rms          rms(c)
DAV:   1    -0.232413170662E+04    0.28139E-06   -0.71208E-06  3352   0.328E-03    0.552E-03
RMM:   2    -0.232413170715E+04   -0.52848E-06   -0.23201E-06  2226   0.168E-03
 193 F= -.23454759E+04 E0= -.23454759E+04  d E =-.589696E-05  mag=     3.9997
       N       E                     dE             d eps       ncg     rms          rms(c)
DAV:   1    -0.232413168274E+04    0.23882E-04   -0.25143E-03  4368   0.462E-02    0.130E-02
RMM:   2    -0.232413170510E+04   -0.22367E-04   -0.23574E-04  4124   0.104E-02    0.765E-03
RMM:   3    -0.232413170641E+04   -0.13032E-05   -0.23269E-05  2393   0.492E-03
 194 F= -.23454760E+04 E0= -.23454759E+04  d E =-.149246E-04  mag=     3.9997
       N       E                     dE             d eps       ncg     rms          rms(c)
DAV:   1    -0.232413166159E+04    0.43516E-04   -0.29237E-03  4416   0.498E-02    0.149E-02
RMM:   2    -0.232413168816E+04   -0.26574E-04   -0.28480E-04  4328   0.113E-02    0.939E-03
RMM:   3    -0.232413168950E+04   -0.13432E-05   -0.28537E-05  2826   0.524E-03
 195 F= -.23454760E+04 E0= -.23454759E+04  d E =-.150136E-04  mag=     3.9997
       N       E                     dE             d eps       ncg     rms          rms(c)
DAV:   1    -0.232413164549E+04    0.42669E-04   -0.30031E-03  4368   0.489E-02    0.138E-02
RMM:   2    -0.232413167515E+04   -0.29662E-04   -0.30521E-04  4277   0.114E-02    0.116E-02
RMM:   3    -0.232413167629E+04   -0.11383E-05   -0.31860E-05  2769   0.518E-03
 196 F= -.23454760E+04 E0= -.23454760E+04  d E =-.105351E-04  mag=     3.9997
       N       E                     dE             d eps       ncg     rms          rms(c)
DAV:   1    -0.232413165859E+04    0.16563E-04   -0.63135E-04  4576   0.226E-02    0.807E-03
RMM:   2    -0.232413166542E+04   -0.68260E-05   -0.69714E-05  3216   0.563E-03
 197 F= -.23454760E+04 E0= -.23454760E+04  d E =-.105888E-04  mag=     3.9997
       N       E                     dE             d eps       ncg     rms          rms(c)
DAV:   1    -0.232413164961E+04    0.89804E-05   -0.22844E-03  4376   0.442E-02    0.138E-02
RMM:   2    -0.232413167257E+04   -0.22956E-04   -0.22330E-04  4107   0.107E-02    0.169E-02
RMM:   3    -0.232413167144E+04    0.11230E-05   -0.21975E-05  2456   0.505E-03
 198 F= -.23454760E+04 E0= -.23454760E+04  d E =-.171860E-04  mag=     3.9997
       N       E                     dE             d eps       ncg     rms          rms(c)
DAV:   1    -0.232413165861E+04    0.13955E-04   -0.79397E-04  4288   0.260E-02    0.949E-03
RMM:   2    -0.232413166570E+04   -0.70834E-05   -0.74853E-05  3267   0.618E-03
 199 F= -.23454760E+04 E0= -.23454760E+04  d E =-.180661E-04  mag=     3.9997
       N       E                     dE             d eps       ncg     rms          rms(c)
DAV:   1    -0.232413164432E+04    0.14289E-04   -0.19136E-03  4400   0.400E-02    0.134E-02
RMM:   2    -0.232413166318E+04   -0.18860E-04   -0.18441E-04  3851   0.985E-03    0.155E-02
RMM:   3    -0.232413166137E+04    0.18128E-05   -0.17015E-05  2671   0.475E-03
 200 F= -.23454760E+04 E0= -.23454760E+04  d E =-.796215E-05  mag=     3.9997
       N       E                     dE             d eps       ncg     rms          rms(c)
DAV:   1    -0.232413166085E+04    0.23336E-05   -0.48728E-06  3424   0.303E-03    0.604E-03
RMM:   2    -0.232413166204E+04   -0.11915E-05   -0.40414E-06  2242   0.199E-03
 201 F= -.23454760E+04 E0= -.23454760E+04  d E =-.841371E-05  mag=     3.9997
