       N       E                     dE             d eps       ncg     rms          rms(c)
DAV:   1     0.131615407695E+05    0.13162E+05   -0.84609E+05  4544   0.145E+03
DAV:   2    -0.100883244394E+04   -0.14170E+05   -0.13542E+05  4968   0.331E+02
DAV:   3    -0.248527370524E+04   -0.14764E+04   -0.14577E+04  5528   0.115E+02
DAV:   4    -0.253270023948E+04   -0.47427E+02   -0.47167E+02  6768   0.302E+01
DAV:   5    -0.253357688284E+04   -0.87664E+00   -0.87490E+00  6360   0.351E+00    0.171E+02
RMM:   6    -0.149325128592E+04    0.10403E+04   -0.19934E+03  4485   0.386E+01    0.728E+01
RMM:   7    -0.167661997859E+04   -0.18337E+03   -0.29720E+02  5246   0.148E+01    0.540E+01
RMM:   8    -0.171986713297E+04   -0.43247E+02   -0.86256E+01  5423   0.827E+00    0.434E+01
RMM:   9    -0.178987654885E+04   -0.70009E+02   -0.56915E+01  5186   0.734E+00    0.397E+01
RMM:  10    -0.187145140289E+04   -0.81575E+02   -0.57901E+01  5133   0.728E+00    0.309E+01
RMM:  11    -0.197533257664E+04   -0.10388E+03   -0.45000E+01  5242   0.611E+00    0.267E+01
RMM:  12    -0.202873340003E+04   -0.53401E+02   -0.20345E+01  5214   0.383E+00    0.198E+01
RMM:  13    -0.211164951012E+04   -0.82916E+02   -0.37466E+01  5019   0.467E+00    0.160E+01
RMM:  14    -0.218139929067E+04   -0.69750E+02   -0.35250E+01  5092   0.469E+00    0.115E+01
RMM:  15    -0.227312295969E+04   -0.91724E+02   -0.81722E+01  4551   0.619E+00    0.922E+00
RMM:  16    -0.231173969227E+04   -0.38617E+02   -0.34844E+01  4559   0.459E+00    0.588E+00
RMM:  17    -0.232185685842E+04   -0.10117E+02   -0.11761E+01  4879   0.251E+00    0.354E+00
RMM:  18    -0.232576416916E+04   -0.39073E+01   -0.31638E+00  5130   0.124E+00    0.212E+00
RMM:  19    -0.232722803278E+04   -0.14639E+01   -0.75813E-01  5102   0.697E-01    0.210E+00
RMM:  20    -0.232747213971E+04   -0.24411E+00   -0.14392E-01  5359   0.285E-01    0.281E+00
RMM:  21    -0.232745021030E+04    0.21929E-01   -0.25262E-02  5561   0.120E-01    0.215E+00
RMM:  22    -0.232754992671E+04   -0.99716E-01   -0.58682E-02  4563   0.166E-01    0.163E+00
RMM:  23    -0.232762616777E+04   -0.76241E-01   -0.10323E-01  4525   0.209E-01    0.217E+00
RMM:  24    -0.232759832383E+04    0.27844E-01   -0.17578E-02  4643   0.108E-01    0.267E+00
RMM:  25    -0.232772993330E+04   -0.13161E+00   -0.81971E-02  4744   0.170E-01    0.137E+00
RMM:  26    -0.232777403052E+04   -0.44097E-01   -0.21714E-02  4553   0.116E-01    0.179E+00
RMM:  27    -0.232781868360E+04   -0.44653E-01   -0.23379E-02  5172   0.919E-02    0.261E+00
RMM:  28    -0.232781206807E+04    0.66155E-02   -0.15569E-03  5007   0.316E-02    0.253E+00
RMM:  29    -0.232781616301E+04   -0.40949E-02   -0.56644E-04  4474   0.122E-02    0.261E+00
RMM:  30    -0.232780848156E+04    0.76815E-02   -0.96785E-04  4504   0.166E-02    0.252E+00
RMM:  31    -0.232778278515E+04    0.25696E-01   -0.19488E-02  4925   0.687E-02    0.174E+00
RMM:  32    -0.232776666209E+04    0.16123E-01   -0.34514E-02  4811   0.970E-02    0.174E+00
RMM:  33    -0.232772500689E+04    0.41655E-01   -0.39855E-02  5148   0.104E-01    0.290E+00
RMM:  34    -0.232777418972E+04   -0.49183E-01   -0.22129E-02  4966   0.709E-02    0.175E+00
RMM:  35    -0.232781079701E+04   -0.36607E-01   -0.33259E-02  4862   0.976E-02    0.160E+00
RMM:  36    -0.232788217546E+04   -0.71378E-01   -0.54883E-02  5119   0.118E-01    0.266E+00
RMM:  37    -0.232792588058E+04   -0.43705E-01   -0.22406E-02  5172   0.807E-02    0.223E+00
RMM:  38    -0.232794235610E+04   -0.16476E-01   -0.60540E-03  5391   0.371E-02    0.196E+00
RMM:  39    -0.232796075741E+04   -0.18401E-01   -0.56276E-03  5032   0.365E-02    0.148E+00
RMM:  40    -0.232796416976E+04   -0.34124E-02   -0.10521E-03  4458   0.192E-02    0.137E+00
RMM:  41    -0.232796401238E+04    0.15738E-03   -0.16031E-04  3245   0.561E-03    0.138E+00
RMM:  42    -0.232796869563E+04   -0.46832E-02   -0.82206E-04  4542   0.147E-02    0.129E+00
RMM:  43    -0.232798908462E+04   -0.20389E-01   -0.14642E-02  4981   0.547E-02    0.487E-01
RMM:  44    -0.232799437154E+04   -0.52869E-02   -0.34973E-03  4473   0.345E-02    0.284E-01
RMM:  45    -0.232799847631E+04   -0.41048E-02   -0.24353E-03  4382   0.272E-02    0.288E-01
RMM:  46    -0.232800065886E+04   -0.21825E-02   -0.97588E-04  4307   0.214E-02    0.134E-01
RMM:  47    -0.232800135904E+04   -0.70019E-03   -0.66741E-04  4470   0.137E-02    0.621E-02
RMM:  48    -0.232800154623E+04   -0.18718E-03   -0.29355E-04  4329   0.107E-02    0.909E-02
RMM:  49    -0.232800164192E+04   -0.95693E-04   -0.57983E-05  3178   0.572E-03    0.789E-02
RMM:  50    -0.232800173031E+04   -0.88393E-04   -0.41921E-05  3021   0.445E-03    0.391E-02
RMM:  51    -0.232800176440E+04   -0.34086E-04   -0.16055E-05  2933   0.346E-03    0.181E-02
RMM:  52    -0.232800177707E+04   -0.12672E-04   -0.80188E-06  2703   0.262E-03    0.677E-03
RMM:  53    -0.232800178084E+04   -0.37682E-05   -0.28639E-06  2529   0.190E-03
   1 F= -.23495232E+04 E0= -.23495232E+04  d E =-.234952E+04  mag=     2.0012
       N       E                     dE             d eps       ncg     rms          rms(c)
DAV:   1    -0.232517180634E+04    0.28300E+01   -0.18766E+02  4624   0.103E+01    0.377E+00
RMM:   2    -0.232812780938E+04   -0.29560E+01   -0.31644E+01  6379   0.303E+00    0.463E+00
RMM:   3    -0.232859541151E+04   -0.46760E+00   -0.30409E+00  6182   0.885E-01    0.587E+00
RMM:   4    -0.232819923225E+04    0.39618E+00   -0.26604E-01  6409   0.221E-01    0.247E+00
RMM:   5    -0.232818717346E+04    0.12059E-01   -0.66468E-02  6287   0.961E-02    0.256E+00
RMM:   6    -0.232813682787E+04    0.50346E-01   -0.44011E-02  6227   0.856E-02    0.139E+00
RMM:   7    -0.232813918076E+04   -0.23529E-02   -0.76693E-02  6157   0.111E-01    0.161E+00
RMM:   8    -0.232811151347E+04    0.27667E-01   -0.35293E-02  6122   0.828E-02    0.466E-01
RMM:   9    -0.232810979446E+04    0.17190E-02   -0.40334E-03  4756   0.287E-02    0.203E-01
RMM:  10    -0.232810990595E+04   -0.11149E-03   -0.85007E-04  4375   0.185E-02    0.774E-02
RMM:  11    -0.232811032200E+04   -0.41605E-03   -0.52900E-04  4415   0.129E-02    0.356E-02
RMM:  12    -0.232811056724E+04   -0.24524E-03   -0.79077E-05  3830   0.782E-03    0.203E-02
RMM:  13    -0.232811073496E+04   -0.16772E-03   -0.46660E-05  3447   0.549E-03    0.115E-02
RMM:  14    -0.232811083102E+04   -0.96060E-04   -0.23620E-05  3022   0.512E-03    0.798E-03
RMM:  15    -0.232811088605E+04   -0.55035E-04   -0.19891E-05  2997   0.429E-03    0.511E-03
RMM:  16    -0.232811090806E+04   -0.22013E-04   -0.91870E-06  2863   0.397E-03    0.364E-03
RMM:  17    -0.232811091477E+04   -0.67041E-05   -0.48243E-06  2809   0.277E-03
   2 F= -.23496396E+04 E0= -.23496396E+04  d E =-.116352E+00  mag=     1.9999
       N       E                     dE             d eps       ncg     rms          rms(c)
DAV:   1    -0.232798419294E+04    0.12672E+00   -0.42749E+01  4656   0.369E+00    0.269E+00
RMM:   2    -0.232910039728E+04   -0.11162E+01   -0.76593E+00  6672   0.131E+00    0.624E+00
RMM:   3    -0.232857773077E+04    0.52267E+00   -0.75793E-01  6019   0.432E-01    0.192E+00
RMM:   4    -0.232854252405E+04    0.35207E-01   -0.12958E-01  6382   0.135E-01    0.129E+00
RMM:   5    -0.232853192704E+04    0.10597E-01   -0.23936E-02  6138   0.676E-02    0.924E-01
RMM:   6    -0.232853142967E+04    0.49737E-03   -0.19566E-02  6168   0.540E-02    0.917E-01
RMM:   7    -0.232852256529E+04    0.88644E-02   -0.16751E-02  6193   0.551E-02    0.368E-01
RMM:   8    -0.232852139489E+04    0.11704E-02   -0.42816E-03  5278   0.294E-02    0.121E-01
RMM:   9    -0.232852148140E+04   -0.86511E-04   -0.40630E-04  3909   0.120E-02    0.848E-02
RMM:  10    -0.232852157256E+04   -0.91154E-04   -0.20854E-04  3783   0.907E-03    0.490E-02
RMM:  11    -0.232852164301E+04   -0.70459E-04   -0.10387E-04  3303   0.714E-03    0.384E-02
RMM:  12    -0.232852170502E+04   -0.62002E-04   -0.10858E-04  3353   0.667E-03    0.301E-02
RMM:  13    -0.232852175220E+04   -0.47187E-04   -0.13947E-04  3491   0.734E-03    0.131E-02
RMM:  14    -0.232852176771E+04   -0.15510E-04   -0.37460E-05  2995   0.502E-03    0.576E-03
RMM:  15    -0.232852177340E+04   -0.56823E-05   -0.11870E-05  2915   0.315E-03
   3 F= -.23500469E+04 E0= -.23500469E+04  d E =-.523721E+00  mag=     2.0000
       N       E                     dE             d eps       ncg     rms          rms(c)
DAV:   1    -0.232821489191E+04    0.30688E+00   -0.26462E+01  4640   0.367E+00    0.208E+00
RMM:   2    -0.232876774077E+04   -0.55285E+00   -0.61185E+00  6705   0.108E+00    0.160E+00
RMM:   3    -0.232883643807E+04   -0.68697E-01   -0.70286E-01  6311   0.410E-01    0.230E+00
RMM:   4    -0.232878625410E+04    0.50184E-01   -0.72189E-02  6401   0.108E-01    0.761E-01
RMM:   5    -0.232878255761E+04    0.36965E-02   -0.10752E-02  5723   0.422E-02    0.615E-01
RMM:   6    -0.232878038576E+04    0.21718E-02   -0.87774E-03  6105   0.396E-02    0.466E-01
RMM:   7    -0.232878117314E+04   -0.78738E-03   -0.77212E-03  5865   0.348E-02    0.544E-01
RMM:   8    -0.232877801249E+04    0.31606E-02   -0.30408E-03  5249   0.274E-02    0.118E-01
RMM:   9    -0.232877788213E+04    0.13037E-03   -0.36226E-04  3278   0.892E-03    0.540E-02
RMM:  10    -0.232877786511E+04    0.17021E-04   -0.13892E-04  3232   0.672E-03    0.285E-02
RMM:  11    -0.232877788193E+04   -0.16827E-04   -0.51486E-05  3026   0.483E-03    0.231E-02
RMM:  12    -0.232877789545E+04   -0.13513E-04   -0.25575E-05  2983   0.388E-03    0.151E-02
RMM:  13    -0.232877790584E+04   -0.10397E-04   -0.22588E-05  2929   0.356E-03    0.872E-03
RMM:  14    -0.232877790950E+04   -0.36534E-05   -0.82172E-06  2830   0.281E-03
   4 F= -.23503064E+04 E0= -.23503064E+04  d E =-.259489E+00  mag=     2.0000
       N       E                     dE             d eps       ncg     rms          rms(c)
DAV:   1    -0.232876632129E+04    0.11585E-01   -0.77584E-01  4864   0.611E-01    0.325E-01
RMM:   2    -0.232878198847E+04   -0.15667E-01   -0.16738E-01  6682   0.179E-01    0.300E-01
RMM:   3    -0.232878394998E+04   -0.19615E-02   -0.20444E-02  5649   0.716E-02    0.393E-01
RMM:   4    -0.232878237602E+04    0.15740E-02   -0.20262E-03  3956   0.181E-02    0.119E-01
RMM:   5    -0.232878229623E+04    0.79794E-04   -0.31938E-04  3016   0.845E-03    0.968E-02
RMM:   6    -0.232878223125E+04    0.64974E-04   -0.26444E-04  3505   0.790E-03    0.787E-02
RMM:   7    -0.232878227726E+04   -0.46005E-04   -0.20198E-04  3220   0.778E-03    0.972E-02
RMM:   8    -0.232878217001E+04    0.10725E-03   -0.75413E-05  2892   0.565E-03    0.107E-02
RMM:   9    -0.232878216834E+04    0.16654E-05   -0.93414E-06  2742   0.234E-03
   5 F= -.23503112E+04 E0= -.23503112E+04  d E =-.264288E+00  mag=     2.0000
       N       E                     dE             d eps       ncg     rms          rms(c)
DAV:   1    -0.232872069428E+04    0.61476E-01   -0.15334E+01  4544   0.267E+00    0.913E-01
RMM:   2    -0.232888180806E+04   -0.16111E+00   -0.17049E+00  6636   0.653E-01    0.796E-01
RMM:   3    -0.232890032197E+04   -0.18514E-01   -0.19242E-01  6402   0.237E-01    0.109E+00
RMM:   4    -0.232888838843E+04    0.11934E-01   -0.17572E-02  6116   0.600E-02    0.326E-01
RMM:   5    -0.232888716080E+04    0.12276E-02   -0.51537E-03  5804   0.328E-02    0.247E-01
RMM:   6    -0.232888732524E+04   -0.16444E-03   -0.32285E-03  5253   0.279E-02    0.255E-01
RMM:   7    -0.232888666166E+04    0.66359E-03   -0.95471E-04  5303   0.151E-02    0.110E-01
RMM:   8    -0.232888660786E+04    0.53802E-04   -0.26111E-04  3045   0.906E-03    0.939E-02
RMM:   9    -0.232888651323E+04    0.94631E-04   -0.79323E-05  2946   0.577E-03    0.268E-02
RMM:  10    -0.232888650500E+04    0.82227E-05   -0.67013E-05  3014   0.456E-03
   6 F= -.23504176E+04 E0= -.23504176E+04  d E =-.106357E+00  mag=     2.0000
       N       E                     dE             d eps       ncg     rms          rms(c)
DAV:   1    -0.232839672481E+04    0.48979E+00   -0.50806E+01  4512   0.490E+00    0.172E+00
RMM:   2    -0.232894034780E+04   -0.54362E+00   -0.58225E+00  6627   0.124E+00    0.117E+00
RMM:   3    -0.232900018881E+04   -0.59841E-01   -0.62713E-01  6375   0.435E-01    0.183E+00
RMM:   4    -0.232896799405E+04    0.32195E-01   -0.58226E-02  6426   0.107E-01    0.628E-01
RMM:   5    -0.232896288542E+04    0.51086E-02   -0.14378E-02  5604   0.590E-02    0.377E-01
RMM:   6    -0.232896357852E+04   -0.69311E-03   -0.10214E-02  5935   0.465E-02    0.448E-01
RMM:   7    -0.232896158899E+04    0.19895E-02   -0.34234E-03  5213   0.341E-02    0.193E-01
RMM:   8    -0.232896146378E+04    0.12521E-03   -0.97954E-04  4322   0.138E-02    0.157E-01
RMM:   9    -0.232896120604E+04    0.25774E-03   -0.40359E-04  3611   0.102E-02    0.843E-02
RMM:  10    -0.232896111365E+04    0.92393E-04   -0.20745E-04  3268   0.839E-03    0.286E-02
RMM:  11    -0.232896111568E+04   -0.20332E-05   -0.11208E-04  3222   0.655E-03    0.145E-02
RMM:  12    -0.232896112016E+04   -0.44819E-05   -0.15437E-05  2950   0.431E-03
   7 F= -.23504954E+04 E0= -.23504954E+04  d E =-.184177E+00  mag=     2.0000
       N       E                     dE             d eps       ncg     rms          rms(c)
DAV:   1    -0.232897506114E+04   -0.13945E-01   -0.11173E+01  4544   0.229E+00    0.852E-01
RMM:   2    -0.232907644521E+04   -0.10138E+00   -0.97690E-01  6577   0.494E-01    0.114E+00
RMM:   3    -0.232907266237E+04    0.37828E-02   -0.10348E-01  6313   0.174E-01    0.749E-01
RMM:   4    -0.232906671253E+04    0.59498E-02   -0.11293E-02  6035   0.465E-02    0.319E-01
RMM:   5    -0.232906636593E+04    0.34660E-03   -0.23115E-03  5160   0.212E-02    0.291E-01
RMM:   6    -0.232906589585E+04    0.47008E-03   -0.17293E-03  5379   0.215E-02    0.223E-01
RMM:   7    -0.232906581080E+04    0.85054E-04   -0.15638E-03  5135   0.200E-02    0.190E-01
RMM:   8    -0.232906540870E+04    0.40210E-03   -0.40746E-04  4658   0.108E-02    0.331E-02
RMM:   9    -0.232906539783E+04    0.10869E-04   -0.45264E-05  3029   0.508E-03    0.276E-02
RMM:  10    -0.232906539691E+04    0.91808E-06   -0.37218E-05  2960   0.401E-03
   8 F= -.23506002E+04 E0= -.23506002E+04  d E =-.104809E+00  mag=     2.0000
       N       E                     dE             d eps       ncg     rms          rms(c)
DAV:   1    -0.232856327530E+04    0.50212E+00   -0.74706E+01  4512   0.599E+00    0.245E+00
RMM:   2    -0.232934340705E+04   -0.78013E+00   -0.74383E+00  6564   0.138E+00    0.332E+00
RMM:   3    -0.232927612673E+04    0.67280E-01   -0.72614E-01  6319   0.471E-01    0.209E+00
RMM:   4    -0.232922730701E+04    0.48820E-01   -0.80542E-02  6347   0.132E-01    0.864E-01
RMM:   5    -0.232922500358E+04    0.23034E-02   -0.16437E-02  6010   0.555E-02    0.763E-01
RMM:   6    -0.232922103268E+04    0.39709E-02   -0.11040E-02  5916   0.510E-02    0.517E-01
RMM:   7    -0.232922234865E+04   -0.13160E-02   -0.11430E-02  6119   0.505E-02    0.578E-01
RMM:   8    -0.232921841882E+04    0.39298E-02   -0.34971E-03  5919   0.296E-02    0.832E-02
RMM:   9    -0.232921833813E+04    0.80685E-04   -0.35958E-04  3832   0.101E-02    0.713E-02
RMM:  10    -0.232921828332E+04    0.54818E-04   -0.18332E-04  3502   0.887E-03    0.209E-02
RMM:  11    -0.232921828309E+04    0.22234E-06   -0.40185E-05  3045   0.533E-03
   9 F= -.23507539E+04 E0= -.23507539E+04  d E =-.258481E+00  mag=     2.0000
       N       E                     dE             d eps       ncg     rms          rms(c)
DAV:   1    -0.232916376061E+04    0.54523E-01   -0.16191E+01  4528   0.282E+00    0.117E+00
RMM:   2    -0.232943377348E+04   -0.27001E+00   -0.23774E+00  6645   0.758E-01    0.211E+00
RMM:   3    -0.232938614718E+04    0.47626E-01   -0.22674E-01  6264   0.249E-01    0.744E-01
RMM:   4    -0.232938355422E+04    0.25930E-02   -0.29705E-02  5736   0.607E-02    0.600E-01
RMM:   5    -0.232938060526E+04    0.29490E-02   -0.44370E-03  5456   0.284E-02    0.338E-01
RMM:   6    -0.232938150045E+04   -0.89518E-03   -0.35764E-03  5588   0.269E-02    0.466E-01
RMM:   7    -0.232937942920E+04    0.20712E-02   -0.32305E-03  5848   0.285E-02    0.138E-01
RMM:   8    -0.232937924532E+04    0.18387E-03   -0.56078E-04  4593   0.119E-02    0.499E-02
RMM:   9    -0.232937921739E+04    0.27930E-04   -0.65988E-05  3008   0.643E-03    0.298E-02
RMM:  10    -0.232937921360E+04    0.37933E-05   -0.62495E-05  3042   0.479E-03
  10 F= -.23509147E+04 E0= -.23509147E+04  d E =-.160775E+00  mag=     2.0000
       N       E                     dE             d eps       ncg     rms          rms(c)
DAV:   1    -0.232756370631E+04    0.18155E+01   -0.14267E+02  4512   0.847E+00    0.396E+00
RMM:   2    -0.233094423829E+04   -0.33805E+01   -0.26992E+01  6651   0.254E+00    0.839E+00
RMM:   3    -0.232974675816E+04    0.11975E+01   -0.20393E+00  6043   0.784E-01    0.241E+00
RMM:   4    -0.232973064494E+04    0.16113E-01   -0.34123E-01  6474   0.221E-01    0.248E+00
RMM:   5    -0.232968688667E+04    0.43758E-01   -0.50214E-02  6348   0.984E-02    0.121E+00
RMM:   6    -0.232969604398E+04   -0.91573E-02   -0.34533E-02  6165   0.759E-02    0.156E+00
RMM:   7    -0.232967205030E+04    0.23994E-01   -0.36118E-02  6161   0.905E-02    0.335E-01
RMM:   8    -0.232967139483E+04    0.65546E-03   -0.56776E-03  5266   0.394E-02    0.141E-01
RMM:   9    -0.232967149656E+04   -0.10173E-03   -0.60634E-04  4395   0.174E-02    0.742E-02
RMM:  10    -0.232967174739E+04   -0.25082E-03   -0.33832E-04  4132   0.114E-02    0.653E-02
RMM:  11    -0.232967193434E+04   -0.18695E-03   -0.12127E-04  3653   0.773E-03    0.428E-02
RMM:  12    -0.232967208127E+04   -0.14693E-03   -0.84301E-05  3411   0.655E-03    0.347E-02
RMM:  13    -0.232967219542E+04   -0.11415E-03   -0.11715E-04  3548   0.712E-03    0.202E-02
RMM:  14    -0.232967224633E+04   -0.50904E-04   -0.58308E-05  3034   0.566E-03    0.107E-02
RMM:  15    -0.232967227100E+04   -0.24675E-04   -0.32085E-05  2955   0.454E-03    0.726E-03
RMM:  16    -0.232967228310E+04   -0.12100E-04   -0.21945E-05  2955   0.380E-03    0.434E-03
RMM:  17    -0.232967228735E+04   -0.42507E-05   -0.92812E-06  2796   0.280E-03
  11 F= -.23512072E+04 E0= -.23512072E+04  d E =-.453281E+00  mag=     2.0000
       N       E                     dE             d eps       ncg     rms          rms(c)
DAV:   1    -0.232015042205E+04    0.95219E+01   -0.53772E+02  4504   0.169E+01    0.116E+01
RMM:   2    -0.235104447151E+04   -0.30894E+02   -0.20886E+02  6632   0.852E+00    0.254E+01
RMM:   3    -0.233244860810E+04    0.18596E+02   -0.16441E+01  5564   0.252E+00    0.145E+01
RMM:   4    -0.233016745588E+04    0.22812E+01   -0.35254E+00  6617   0.781E-01    0.827E+00
RMM:   5    -0.232984363806E+04    0.32382E+00   -0.79392E-01  6367   0.404E-01    0.572E+00
RMM:   6    -0.232959805651E+04    0.24558E+00   -0.24471E-01  6239   0.232E-01    0.333E+00
RMM:   7    -0.232957422662E+04    0.23830E-01   -0.85230E-02  5578   0.125E-01    0.256E+00
RMM:   8    -0.232950102397E+04    0.73203E-01   -0.11701E-01  5675   0.173E-01    0.888E-01
RMM:   9    -0.232950185336E+04   -0.82939E-03   -0.23227E-02  5720   0.929E-02    0.545E-01
RMM:  10    -0.232950267136E+04   -0.81799E-03   -0.71082E-03  5365   0.471E-02    0.432E-01
RMM:  11    -0.232950322786E+04   -0.55650E-03   -0.39988E-03  5008   0.355E-02    0.201E-01
RMM:  12    -0.232950377907E+04   -0.55122E-03   -0.62288E-04  4832   0.156E-02    0.158E-01
RMM:  13    -0.232950454866E+04   -0.76958E-03   -0.44339E-04  4331   0.123E-02    0.915E-02
RMM:  14    -0.232950534229E+04   -0.79363E-03   -0.36516E-04  4243   0.118E-02    0.416E-02
RMM:  15    -0.232950584693E+04   -0.50464E-03   -0.13663E-04  3862   0.850E-03    0.244E-02
RMM:  16    -0.232950612150E+04   -0.27457E-03   -0.48710E-05  3336   0.578E-03    0.173E-02
RMM:  17    -0.232950637545E+04   -0.25395E-03   -0.56702E-05  3537   0.562E-03    0.102E-02
RMM:  18    -0.232950647427E+04   -0.98816E-04   -0.20640E-05  2980   0.470E-03    0.625E-03
RMM:  19    -0.232950651920E+04   -0.44935E-04   -0.10612E-05  2899   0.340E-03    0.371E-03
RMM:  20    -0.232950654004E+04   -0.20839E-04   -0.52472E-06  2747   0.279E-03    0.234E-03
RMM:  21    -0.232950654842E+04   -0.83782E-05   -0.33360E-06  2569   0.217E-03
  12 F= -.23510415E+04 E0= -.23510415E+04  d E =-.287649E+00  mag=     2.0000
       N       E                     dE             d eps       ncg     rms          rms(c)
DAV:   1    -0.232527719743E+04    0.42293E+01   -0.27344E+02  4504   0.125E+01    0.509E+00
RMM:   2    -0.233081528723E+04   -0.55381E+01   -0.48704E+01  6660   0.327E+00    0.104E+01
RMM:   3    -0.232989454849E+04    0.92074E+00   -0.56797E+00  6212   0.132E+00    0.339E+00
RMM:   4    -0.232978051717E+04    0.11403E+00   -0.55634E-01  6296   0.295E-01    0.206E+00
RMM:   5    -0.232979428984E+04   -0.13773E-01   -0.87891E-02  5955   0.134E-01    0.223E+00
RMM:   6    -0.232974422935E+04    0.50060E-01   -0.41562E-02  5838   0.973E-02    0.109E+00
RMM:   7    -0.232973381204E+04    0.10417E-01   -0.43704E-02  5874   0.109E-01    0.456E-01
RMM:   8    -0.232973338484E+04    0.42721E-03   -0.59806E-03  5716   0.540E-02    0.407E-01
RMM:   9    -0.232973266825E+04    0.71659E-03   -0.23467E-03  5344   0.237E-02    0.246E-01
RMM:  10    -0.232973230595E+04    0.36230E-03   -0.10479E-03  4681   0.173E-02    0.794E-02
RMM:  11    -0.232973234378E+04   -0.37827E-04   -0.29383E-04  4037   0.108E-02    0.414E-02
RMM:  12    -0.232973242728E+04   -0.83500E-04   -0.94401E-05  3708   0.699E-03    0.171E-02
RMM:  13    -0.232973248693E+04   -0.59649E-04   -0.26747E-05  3049   0.542E-03    0.878E-03
RMM:  14    -0.232973252151E+04   -0.34587E-04   -0.17145E-05  2940   0.437E-03    0.648E-03
RMM:  15    -0.232973253784E+04   -0.16330E-04   -0.88539E-06  2862   0.392E-03    0.454E-03
RMM:  16    -0.232973255053E+04   -0.12686E-04   -0.80681E-06  2863   0.305E-03    0.262E-03
RMM:  17    -0.232973255540E+04   -0.48691E-05   -0.39013E-06  2783   0.282E-03
  13 F= -.23512672E+04 E0= -.23512672E+04  d E =-.513363E+00  mag=     2.0000
       N       E                     dE             d eps       ncg     rms          rms(c)
DAV:   1    -0.232949780719E+04    0.23474E+00   -0.31731E+01  4512   0.453E+00    0.185E+00
RMM:   2    -0.232994157058E+04   -0.44376E+00   -0.41269E+00  6228   0.118E+00    0.251E+00
RMM:   3    -0.232990750478E+04    0.34066E-01   -0.40704E-01  5773   0.427E-01    0.178E+00
RMM:   4    -0.232987960043E+04    0.27904E-01   -0.48950E-02  6136   0.111E-01    0.983E-01
RMM:   5    -0.232987244436E+04    0.71561E-02   -0.12701E-02  5880   0.618E-02    0.563E-01
RMM:   6    -0.232987045332E+04    0.19910E-02   -0.11401E-02  5528   0.587E-02    0.464E-01
RMM:   7    -0.232986860279E+04    0.18505E-02   -0.55984E-03  5730   0.454E-02    0.237E-01
RMM:   8    -0.232986786087E+04    0.74192E-03   -0.86461E-04  5209   0.179E-02    0.745E-02
RMM:   9    -0.232986779424E+04    0.66628E-04   -0.22116E-04  4157   0.113E-02    0.431E-02
RMM:  10    -0.232986778689E+04    0.73511E-05   -0.93489E-05  3868   0.741E-03
  14 F= -.23514022E+04 E0= -.23514022E+04  d E =-.134908E+00  mag=     2.0000
       N       E                     dE             d eps       ncg     rms          rms(c)
DAV:   1    -0.232978701408E+04    0.80780E-01   -0.86753E+00  4544   0.237E+00    0.961E-01
RMM:   2    -0.232990689546E+04   -0.11988E+00   -0.10990E+00  6253   0.610E-01    0.139E+00
RMM:   3    -0.232989657789E+04    0.10318E-01   -0.10908E-01  5926   0.218E-01    0.882E-01
RMM:   4    -0.232988927877E+04    0.72991E-02   -0.12815E-02  5864   0.567E-02    0.469E-01
RMM:   5    -0.232988768945E+04    0.15893E-02   -0.32544E-03  5494   0.326E-02    0.291E-01
RMM:   6    -0.232988675857E+04    0.93088E-03   -0.31561E-03  5179   0.325E-02    0.172E-01
RMM:   7    -0.232988660367E+04    0.15490E-03   -0.11120E-03  4731   0.236E-02    0.123E-01
RMM:   8    -0.232988639044E+04    0.21323E-03   -0.22577E-04  4096   0.918E-03    0.352E-02
RMM:   9    -0.232988636700E+04    0.23441E-04   -0.57519E-05  3082   0.679E-03    0.204E-02
RMM:  10    -0.232988636173E+04    0.52744E-05   -0.33718E-05  3170   0.501E-03
  15 F= -.23514205E+04 E0= -.23514205E+04  d E =-.153274E+00  mag=     2.0000
       N       E                     dE             d eps       ncg     rms          rms(c)
DAV:   1    -0.232982698904E+04    0.59378E-01   -0.13151E+01  4528   0.252E+00    0.104E+00
RMM:   2    -0.233000765231E+04   -0.18066E+00   -0.16340E+00  6654   0.667E-01    0.170E+00
RMM:   3    -0.232998999906E+04    0.17653E-01   -0.15148E-01  6239   0.217E-01    0.874E-01
RMM:   4    -0.232998218211E+04    0.78170E-02   -0.15498E-02  5792   0.535E-02    0.355E-01
RMM:   5    -0.232998217001E+04    0.12102E-04   -0.30376E-03  5281   0.269E-02    0.356E-01
RMM:   6    -0.232998070962E+04    0.14604E-02   -0.31178E-03  5630   0.286E-02    0.146E-01
RMM:   7    -0.232998077866E+04   -0.69045E-04   -0.92152E-04  4734   0.176E-02    0.130E-01
RMM:   8    -0.232998056545E+04    0.21321E-03   -0.27481E-04  3225   0.854E-03    0.380E-02
RMM:   9    -0.232998054973E+04    0.15718E-04   -0.46515E-05  2965   0.504E-03    0.198E-02
RMM:  10    -0.232998055193E+04   -0.21929E-05   -0.20372E-05  2935   0.353E-03
  16 F= -.23515147E+04 E0= -.23515147E+04  d E =-.942326E-01  mag=     2.0000
       N       E                     dE             d eps       ncg     rms          rms(c)
DAV:   1    -0.232868703071E+04    0.12935E+01   -0.11597E+02  4512   0.758E+00    0.327E+00
RMM:   2    -0.233045481036E+04   -0.17678E+01   -0.16202E+01  6655   0.226E+00    0.493E+00
RMM:   3    -0.233024990831E+04    0.20490E+00   -0.15227E+00  6053   0.723E-01    0.251E+00
RMM:   4    -0.233017856717E+04    0.71341E-01   -0.15459E-01  6100   0.178E-01    0.108E+00
RMM:   5    -0.233017654469E+04    0.20225E-02   -0.27351E-02  5888   0.849E-02    0.992E-01
RMM:   6    -0.233016874762E+04    0.77971E-02   -0.26193E-02  6033   0.816E-02    0.695E-01
RMM:   7    -0.233016823756E+04    0.51006E-03   -0.15162E-02  5951   0.621E-02    0.557E-01
RMM:   8    -0.233016407728E+04    0.41603E-02   -0.43070E-03  5619   0.336E-02    0.123E-01
RMM:   9    -0.233016392409E+04    0.15319E-03   -0.59921E-04  4275   0.135E-02    0.628E-02
RMM:  10    -0.233016394139E+04   -0.17294E-04   -0.16218E-04  3823   0.932E-03    0.246E-02
RMM:  11    -0.233016398740E+04   -0.46019E-04   -0.54703E-05  3209   0.599E-03    0.119E-02
RMM:  12    -0.233016402359E+04   -0.36190E-04   -0.16271E-05  2946   0.458E-03    0.740E-03
RMM:  13    -0.233016405348E+04   -0.29890E-04   -0.11972E-05  2873   0.385E-03    0.561E-03
RMM:  14    -0.233016407217E+04   -0.18684E-04   -0.81972E-06  2851   0.354E-03    0.312E-03
RMM:  15    -0.233016408080E+04   -0.86303E-05   -0.57907E-06  2835   0.286E-03
  17 F= -.23516979E+04 E0= -.23516979E+04  d E =-.277414E+00  mag=     2.0000
       N       E                     dE             d eps       ncg     rms          rms(c)
DAV:   1    -0.232317054087E+04    0.69935E+01   -0.43534E+02  4504   0.157E+01    0.719E+00
RMM:   2    -0.233299698284E+04   -0.98264E+01   -0.83418E+01  6665   0.528E+00    0.151E+01
RMM:   3    -0.233040970290E+04    0.25873E+01   -0.65910E+00  5922   0.153E+00    0.565E+00
RMM:   4    -0.233002177682E+04    0.38793E+00   -0.89137E-01  6397   0.454E-01    0.319E+00
RMM:   5    -0.232998932865E+04    0.32448E-01   -0.17398E-01  6298   0.210E-01    0.226E+00
RMM:   6    -0.232996925171E+04    0.20077E-01   -0.75598E-02  6066   0.137E-01    0.170E+00
RMM:   7    -0.232996214773E+04    0.71040E-02   -0.77653E-02  6232   0.138E-01    0.145E+00
RMM:   8    -0.232993609829E+04    0.26049E-01   -0.40022E-02  6082   0.106E-01    0.436E-01
RMM:   9    -0.232993617820E+04   -0.79906E-04   -0.94846E-03  5023   0.546E-02    0.209E-01
RMM:  10    -0.232993696521E+04   -0.78701E-03   -0.11998E-03  4569   0.278E-02    0.912E-02
RMM:  11    -0.232993757879E+04   -0.61359E-03   -0.45468E-04  4426   0.135E-02    0.513E-02
RMM:  12    -0.232993801112E+04   -0.43233E-03   -0.18555E-04  4185   0.105E-02    0.218E-02
RMM:  13    -0.232993822340E+04   -0.21228E-03   -0.50134E-05  3480   0.615E-03    0.142E-02
RMM:  14    -0.232993837628E+04   -0.15288E-03   -0.31003E-05  3175   0.523E-03    0.947E-03
RMM:  15    -0.232993845095E+04   -0.74673E-04   -0.18214E-05  2967   0.437E-03    0.682E-03
RMM:  16    -0.232993849706E+04   -0.46107E-04   -0.13439E-05  2877   0.399E-03    0.394E-03
RMM:  17    -0.232993851558E+04   -0.18521E-04   -0.80717E-06  2845   0.350E-03    0.234E-03
RMM:  18    -0.232993852138E+04   -0.57988E-05   -0.38908E-06  2734   0.258E-03
  18 F= -.23514696E+04 E0= -.23514696E+04  d E =-.491297E-01  mag=     1.9997
       N       E                     dE             d eps       ncg     rms          rms(c)
DAV:   1    -0.232636629037E+04    0.35722E+01   -0.27350E+02  4512   0.131E+01    0.472E+00
RMM:   2    -0.233059382844E+04   -0.42275E+01   -0.40424E+01  6632   0.334E+00    0.786E+00
RMM:   3    -0.233039750585E+04    0.19632E+00   -0.38931E+00  6045   0.113E+00    0.401E+00
RMM:   4    -0.233022470295E+04    0.17280E+00   -0.41575E-01  6328   0.301E-01    0.197E+00
RMM:   5    -0.233021418399E+04    0.10519E-01   -0.82976E-02  6151   0.139E-01    0.151E+00
RMM:   6    -0.233019454640E+04    0.19638E-01   -0.45799E-02  5357   0.110E-01    0.852E-01
RMM:   7    -0.233019956628E+04   -0.50199E-02   -0.34047E-02  6198   0.953E-02    0.105E+00
RMM:   8    -0.233018884592E+04    0.10720E-01   -0.12036E-02  6064   0.595E-02    0.410E-01
RMM:   9    -0.233018786591E+04    0.98001E-03   -0.27674E-03  4873   0.281E-02    0.175E-01
RMM:  10    -0.233018829150E+04   -0.42558E-03   -0.71523E-04  4521   0.179E-02    0.493E-02
RMM:  11    -0.233018851119E+04   -0.21969E-03   -0.16328E-04  4031   0.927E-03    0.287E-02
RMM:  12    -0.233018862315E+04   -0.11197E-03   -0.66559E-05  3609   0.707E-03    0.149E-02
RMM:  13    -0.233018869209E+04   -0.68933E-04   -0.38183E-05  3377   0.558E-03    0.921E-03
RMM:  14    -0.233018873908E+04   -0.46991E-04   -0.15208E-05  2889   0.479E-03    0.663E-03
RMM:  15    -0.233018877333E+04   -0.34254E-04   -0.11579E-05  2860   0.389E-03    0.380E-03
RMM:  16    -0.233018879546E+04   -0.22131E-04   -0.83852E-06  2843   0.354E-03    0.201E-03
RMM:  17    -0.233018880140E+04   -0.59404E-05   -0.42460E-06  2794   0.284E-03
  19 F= -.23517223E+04 E0= -.23517223E+04  d E =-.301757E+00  mag=     1.9994
       N       E                     dE             d eps       ncg     rms          rms(c)
DAV:   1    -0.233003624465E+04    0.15255E+00   -0.21785E+01  4512   0.372E+00    0.131E+00
RMM:   2    -0.233033871585E+04   -0.30247E+00   -0.31035E+00  6618   0.955E-01    0.136E+00
RMM:   3    -0.233035676276E+04   -0.18047E-01   -0.29552E-01  6432   0.305E-01    0.133E+00
RMM:   4    -0.233033919960E+04    0.17563E-01   -0.30136E-02  6303   0.825E-02    0.473E-01
RMM:   5    -0.233033829914E+04    0.90047E-03   -0.63960E-03  5817   0.411E-02    0.401E-01
RMM:   6    -0.233033644104E+04    0.18581E-02   -0.66279E-03  5740   0.431E-02    0.206E-01
RMM:   7    -0.233033661889E+04   -0.17785E-03   -0.17967E-03  5316   0.262E-02    0.222E-01
RMM:   8    -0.233033596162E+04    0.65727E-03   -0.51799E-04  4010   0.128E-02    0.473E-02
RMM:   9    -0.233033591941E+04    0.42206E-04   -0.10869E-04  3361   0.720E-03    0.251E-02
RMM:  10    -0.233033591986E+04   -0.44264E-06   -0.43393E-05  3053   0.569E-03
  20 F= -.23518695E+04 E0= -.23518695E+04  d E =-.147187E+00  mag=     1.9999
       N       E                     dE             d eps       ncg     rms          rms(c)
DAV:   1    -0.232996191502E+04    0.37400E+00   -0.31453E+01  4512   0.446E+00    0.156E+00
RMM:   2    -0.233040370493E+04   -0.44179E+00   -0.45383E+00  6616   0.115E+00    0.165E+00
RMM:   3    -0.233043010523E+04   -0.26400E-01   -0.44234E-01  6435   0.369E-01    0.158E+00
RMM:   4    -0.233040577429E+04    0.24331E-01   -0.45234E-02  6312   0.988E-02    0.587E-01
RMM:   5    -0.233040398098E+04    0.17933E-02   -0.92387E-03  5889   0.478E-02    0.472E-01
RMM:   6    -0.233040114953E+04    0.28315E-02   -0.99286E-03  5652   0.532E-02    0.216E-01
RMM:   7    -0.233040138515E+04   -0.23562E-03   -0.23452E-03  5381   0.312E-02    0.243E-01
RMM:   8    -0.233040064773E+04    0.73742E-03   -0.68672E-04  4425   0.146E-02    0.658E-02
RMM:   9    -0.233040056356E+04    0.84175E-04   -0.16764E-04  3788   0.870E-03    0.319E-02
RMM:  10    -0.233040056169E+04    0.18629E-05   -0.69244E-05  3219   0.680E-03
  21 F= -.23519340E+04 E0= -.23519340E+04  d E =-.211687E+00  mag=     2.0000
       N       E                     dE             d eps       ncg     rms          rms(c)
DAV:   1    -0.232997926376E+04    0.42130E+00   -0.32705E+01  4512   0.490E+00    0.183E+00
RMM:   2    -0.233053242795E+04   -0.55316E+00   -0.56574E+00  6585   0.129E+00    0.200E+00
RMM:   3    -0.233056617037E+04   -0.33742E-01   -0.59334E-01  6384   0.450E-01    0.187E+00
RMM:   4    -0.233052951126E+04    0.36659E-01   -0.57435E-02  6336   0.115E-01    0.558E-01
RMM:   5    -0.233052757598E+04    0.19353E-02   -0.10458E-02  5946   0.543E-02    0.455E-01
RMM:   6    -0.233052616170E+04    0.14143E-02   -0.89320E-03  5950   0.487E-02    0.340E-01
RMM:   7    -0.233052503564E+04    0.11261E-02   -0.31620E-03  5898   0.340E-02    0.190E-01
RMM:   8    -0.233052467530E+04    0.36034E-03   -0.76702E-04  4507   0.161E-02    0.101E-01
RMM:   9    -0.233052454175E+04    0.13355E-03   -0.16835E-04  3606   0.874E-03    0.385E-02
RMM:  10    -0.233052455383E+04   -0.12087E-04   -0.11117E-04  3496   0.755E-03    0.146E-02
RMM:  11    -0.233052457479E+04   -0.20957E-04   -0.21818E-05  2970   0.493E-03    0.891E-03
RMM:  12    -0.233052459401E+04   -0.19225E-04   -0.11263E-05  2881   0.389E-03    0.547E-03
RMM:  13    -0.233052460940E+04   -0.15388E-04   -0.85746E-06  2855   0.352E-03    0.357E-03
RMM:  14    -0.233052461786E+04   -0.84582E-05   -0.56672E-06  2838   0.303E-03
  22 F= -.23520569E+04 E0= -.23520569E+04  d E =-.122897E+00  mag=     2.0000
       N       E                     dE             d eps       ncg     rms          rms(c)
DAV:   1    -0.233043469405E+04    0.89915E-01   -0.64386E+00  4528   0.217E+00    0.802E-01
RMM:   2    -0.233054079401E+04   -0.10610E+00   -0.10698E+00  6567   0.556E-01    0.959E-01
RMM:   3    -0.233054593200E+04   -0.51380E-02   -0.11909E-01  6361   0.208E-01    0.781E-01
RMM:   4    -0.233053956582E+04    0.63662E-02   -0.10873E-02  6087   0.496E-02    0.223E-01
RMM:   5    -0.233053900290E+04    0.56292E-03   -0.19283E-03  5592   0.252E-02    0.140E-01
RMM:   6    -0.233053924478E+04   -0.24187E-03   -0.13881E-03  5391   0.209E-02    0.190E-01
RMM:   7    -0.233053878743E+04    0.45734E-03   -0.46327E-04  4789   0.133E-02    0.528E-02
RMM:   8    -0.233053877269E+04    0.14738E-04   -0.10949E-04  3015   0.675E-03    0.461E-02
RMM:   9    -0.233053874268E+04    0.30014E-04   -0.32469E-05  2971   0.452E-03    0.167E-02
RMM:  10    -0.233053874374E+04   -0.10563E-05   -0.24609E-05  2975   0.376E-03
  23 F= -.23520704E+04 E0= -.23520704E+04  d E =-.136431E+00  mag=     2.0000
       N       E                     dE             d eps       ncg     rms          rms(c)
DAV:   1    -0.233028381370E+04    0.25493E+00   -0.18986E+01  4512   0.370E+00    0.137E+00
RMM:   2    -0.233068352106E+04   -0.39971E+00   -0.36338E+00  6636   0.100E+00    0.245E+00
RMM:   3    -0.233064687266E+04    0.36648E-01   -0.42943E-01  6334   0.404E-01    0.854E-01
RMM:   4    -0.233064186063E+04    0.50120E-02   -0.37974E-02  5782   0.790E-02    0.450E-01
RMM:   5    -0.233064104217E+04    0.81846E-03   -0.50978E-03  5733   0.371E-02    0.410E-01
RMM:   6    -0.233063954234E+04    0.14998E-02   -0.44004E-03  5710   0.382E-02    0.279E-01
RMM:   7    -0.233063926336E+04    0.27898E-03   -0.23056E-03  5284   0.288E-02    0.218E-01
RMM:   8    -0.233063867833E+04    0.58504E-03   -0.56672E-04  4949   0.134E-02    0.461E-02
RMM:   9    -0.233063864905E+04    0.29274E-04   -0.71549E-05  3047   0.717E-03    0.298E-02
RMM:  10    -0.233063864848E+04    0.57291E-06   -0.62976E-05  3138   0.560E-03
  24 F= -.23521688E+04 E0= -.23521688E+04  d E =-.984174E-01  mag=     2.0000
       N       E                     dE             d eps       ncg     rms          rms(c)
DAV:   1    -0.232998533523E+04    0.65331E+00   -0.37129E+01  4512   0.524E+00    0.193E+00
RMM:   2    -0.233078998120E+04   -0.80465E+00   -0.73532E+00  6642   0.145E+00    0.342E+00
RMM:   3    -0.233070899165E+04    0.80990E-01   -0.82468E-01  6275   0.579E-01    0.117E+00
RMM:   4    -0.233069840738E+04    0.10584E-01   -0.71769E-02  5772   0.112E-01    0.598E-01
RMM:   5    -0.233069757151E+04    0.83587E-03   -0.95908E-03  5830   0.533E-02    0.583E-01
RMM:   6    -0.233069415383E+04    0.34177E-02   -0.86686E-03  5807   0.536E-02    0.362E-01
RMM:   7    -0.233069410179E+04    0.52042E-04   -0.45336E-03  5621   0.397E-02    0.328E-01
RMM:   8    -0.233069275264E+04    0.13491E-02   -0.12405E-03  5376   0.188E-02    0.708E-02
RMM:   9    -0.233069268394E+04    0.68704E-04   -0.15621E-04  3300   0.927E-03    0.434E-02
RMM:  10    -0.233069267223E+04    0.11709E-04   -0.11541E-04  3627   0.751E-03    0.178E-02
RMM:  11    -0.233069267352E+04   -0.12938E-05   -0.17700E-05  2960   0.462E-03
  25 F= -.23522208E+04 E0= -.23522208E+04  d E =-.150372E+00  mag=     2.0000
       N       E                     dE             d eps       ncg     rms          rms(c)
DAV:   1    -0.233038917757E+04    0.30349E+00   -0.25238E+01  4512   0.461E+00    0.153E+00
RMM:   2    -0.233082027124E+04   -0.43109E+00   -0.40758E+00  6535   0.117E+00    0.233E+00
RMM:   3    -0.233078376117E+04    0.36510E-01   -0.40613E-01  6331   0.409E-01    0.112E+00
RMM:   4    -0.233077378769E+04    0.99735E-02   -0.41523E-02  5856   0.943E-02    0.569E-01
RMM:   5    -0.233077139855E+04    0.23891E-02   -0.84894E-03  6124   0.501E-02    0.448E-01
RMM:   6    -0.233076845541E+04    0.29431E-02   -0.70061E-03  5470   0.515E-02    0.167E-01
RMM:   7    -0.233076849807E+04   -0.42661E-04   -0.15622E-03  5176   0.323E-02    0.156E-01
RMM:   8    -0.233076822565E+04    0.27242E-03   -0.39021E-04  4164   0.118E-02    0.555E-02
RMM:   9    -0.233076816319E+04    0.62460E-04   -0.75600E-05  3255   0.710E-03    0.286E-02
RMM:  10    -0.233076814541E+04    0.17779E-04   -0.76093E-05  3628   0.688E-03    0.111E-02
RMM:  11    -0.233076814275E+04    0.26572E-05   -0.10664E-05  2912   0.446E-03
  26 F= -.23522949E+04 E0= -.23522949E+04  d E =-.741433E-01  mag=     2.0000
       N       E                     dE             d eps       ncg     rms          rms(c)
DAV:   1    -0.233076670591E+04    0.14395E-02   -0.12333E-01  5120   0.320E-01    0.105E-01
RMM:   2    -0.233076870564E+04   -0.19997E-02   -0.19455E-02  6525   0.816E-02    0.148E-01
RMM:   3    -0.233076863099E+04    0.74646E-04   -0.18655E-03  4280   0.267E-02    0.876E-02
RMM:   4    -0.233076856486E+04    0.66129E-04   -0.18905E-04  3070   0.765E-03    0.372E-02
RMM:   5    -0.233076855751E+04    0.73569E-05   -0.43202E-05  2977   0.460E-03
  27 F= -.23522952E+04 E0= -.23522952E+04  d E =-.744664E-01  mag=     2.0000
       N       E                     dE             d eps       ncg     rms          rms(c)
DAV:   1    -0.233070814094E+04    0.60424E-01   -0.76749E+00  4528   0.268E+00    0.856E-01
RMM:   2    -0.233080474997E+04   -0.96609E-01   -0.10064E+00  6457   0.646E-01    0.781E-01
RMM:   3    -0.233080901305E+04   -0.42631E-02   -0.99828E-02  6280   0.211E-01    0.810E-01
RMM:   4    -0.233080198932E+04    0.70237E-02   -0.10197E-02  6279   0.569E-02    0.298E-01
RMM:   5    -0.233080181986E+04    0.16946E-03   -0.33408E-03  5747   0.307E-02    0.302E-01
RMM:   6    -0.233080091650E+04    0.90336E-03   -0.24447E-03  5496   0.297E-02    0.170E-01
RMM:   7    -0.233080082719E+04    0.89311E-04   -0.96647E-04  4997   0.206E-02    0.140E-01
RMM:   8    -0.233080054336E+04    0.28383E-03   -0.24670E-04  4404   0.101E-02    0.268E-02
RMM:   9    -0.233080052356E+04    0.19800E-04   -0.44203E-05  3102   0.523E-03    0.157E-02
RMM:  10    -0.233080052158E+04    0.19797E-05   -0.21464E-05  2982   0.430E-03
  28 F= -.23523272E+04 E0= -.23523272E+04  d E =-.319961E-01  mag=     2.0000
       N       E                     dE             d eps       ncg     rms          rms(c)
DAV:   1    -0.233079734535E+04    0.31782E-02   -0.35276E-01  4832   0.576E-01    0.183E-01
RMM:   2    -0.233080175572E+04   -0.44104E-02   -0.46080E-02  6472   0.141E-01    0.164E-01
RMM:   3    -0.233080196692E+04   -0.21120E-03   -0.45183E-03  5763   0.444E-02    0.176E-01
RMM:   4    -0.233080163318E+04    0.33374E-03   -0.46300E-04  3833   0.125E-02    0.618E-02
RMM:   5    -0.233080163311E+04    0.64188E-07   -0.16024E-04  3224   0.822E-03    0.687E-02
RMM:   6    -0.233080158407E+04    0.49045E-04   -0.12636E-04  3855   0.839E-03    0.354E-02
RMM:   7    -0.233080157950E+04    0.45718E-05   -0.46574E-05  3020   0.616E-03
  29 F= -.23523283E+04 E0= -.23523283E+04  d E =-.330593E-01  mag=     2.0000
       N       E                     dE             d eps       ncg     rms          rms(c)
DAV:   1    -0.233074321886E+04    0.58365E-01   -0.56466E+00  4528   0.243E+00    0.724E-01
RMM:   2    -0.233082432034E+04   -0.81101E-01   -0.86857E-01  6514   0.590E-01    0.505E-01
RMM:   3    -0.233083322382E+04   -0.89035E-02   -0.89979E-02  6283   0.191E-01    0.653E-01
RMM:   4    -0.233082834547E+04    0.48783E-02   -0.84937E-03  6187   0.477E-02    0.226E-01
RMM:   5    -0.233082801692E+04    0.32856E-03   -0.20961E-03  5187   0.273E-02    0.181E-01
RMM:   6    -0.233082782699E+04    0.18992E-03   -0.14512E-03  5500   0.236E-02    0.125E-01
RMM:   7    -0.233082763718E+04    0.18981E-03   -0.30619E-04  4918   0.116E-02    0.445E-02
RMM:   8    -0.233082763411E+04    0.30740E-05   -0.63066E-05  2987   0.679E-03
  30 F= -.23523548E+04 E0= -.23523548E+04  d E =-.265063E-01  mag=     2.0000
       N       E                     dE             d eps       ncg     rms          rms(c)
DAV:   1    -0.233081336195E+04    0.14275E-01   -0.11223E+00  4576   0.108E+00    0.328E-01
RMM:   2    -0.233082968271E+04   -0.16321E-01   -0.17359E-01  6506   0.265E-01    0.247E-01
RMM:   3    -0.233083136572E+04   -0.16830E-02   -0.18021E-02  6155   0.852E-02    0.299E-01
RMM:   4    -0.233083031754E+04    0.10482E-02   -0.17214E-03  5198   0.215E-02    0.999E-02
RMM:   5    -0.233083025610E+04    0.61443E-04   -0.44937E-04  4491   0.133E-02    0.861E-02
RMM:   6    -0.233083024057E+04    0.15531E-04   -0.25952E-04  3459   0.114E-02    0.773E-02
RMM:   7    -0.233083019533E+04    0.45237E-04   -0.79672E-05  3192   0.690E-03    0.332E-02
RMM:   8    -0.233083018096E+04    0.14369E-04   -0.24418E-05  2925   0.546E-03    0.134E-02
RMM:   9    -0.233083017877E+04    0.21881E-05   -0.59927E-06  2898   0.243E-03
  31 F= -.23523575E+04 E0= -.23523575E+04  d E =-.292566E-01  mag=     2.0000
       N       E                     dE             d eps       ncg     rms          rms(c)
DAV:   1    -0.233078663971E+04    0.43541E-01   -0.42330E+00  4528   0.207E+00    0.594E-01
RMM:   2    -0.233084800309E+04   -0.61363E-01   -0.66268E-01  6522   0.499E-01    0.335E-01
RMM:   3    -0.233085348121E+04   -0.54781E-02   -0.65638E-02  5956   0.161E-01    0.373E-01
RMM:   4    -0.233085257177E+04    0.90943E-03   -0.60730E-03  5817   0.359E-02    0.219E-01
RMM:   5    -0.233085225944E+04    0.31234E-03   -0.13836E-03  4761   0.215E-02    0.186E-01
RMM:   6    -0.233085213131E+04    0.12813E-03   -0.10800E-03  4888   0.198E-02    0.148E-01
RMM:   7    -0.233085198725E+04    0.14406E-03   -0.33462E-04  4911   0.111E-02    0.675E-02
RMM:   8    -0.233085192558E+04    0.61666E-04   -0.85401E-05  3035   0.704E-03    0.257E-02
RMM:   9    -0.233085191266E+04    0.12919E-04   -0.17756E-05  2943   0.355E-03    0.990E-03
RMM:  10    -0.233085191048E+04    0.21859E-05   -0.12839E-05  2964   0.309E-03
  32 F= -.23523800E+04 E0= -.23523800E+04  d E =-.225036E-01  mag=     2.0000
       N       E                     dE             d eps       ncg     rms          rms(c)
DAV:   1    -0.233081304776E+04    0.38865E-01   -0.28962E+00  4544   0.171E+00    0.491E-01
RMM:   2    -0.233085481422E+04   -0.41766E-01   -0.45063E-01  6517   0.410E-01    0.283E-01
RMM:   3    -0.233085863964E+04   -0.38254E-02   -0.44956E-02  5938   0.133E-01    0.323E-01
RMM:   4    -0.233085785383E+04    0.78581E-03   -0.41726E-03  5553   0.298E-02    0.178E-01
RMM:   5    -0.233085769175E+04    0.16208E-03   -0.97185E-04  4691   0.182E-02    0.165E-01
RMM:   6    -0.233085754550E+04    0.14625E-03   -0.76102E-04  4719   0.168E-02    0.115E-01
RMM:   7    -0.233085747410E+04    0.71395E-04   -0.24382E-04  4429   0.960E-03    0.621E-02
RMM:   8    -0.233085742022E+04    0.53887E-04   -0.64170E-05  2992   0.637E-03    0.199E-02
RMM:   9    -0.233085741181E+04    0.84061E-05   -0.12766E-05  2944   0.319E-03
  33 F= -.23523862E+04 E0= -.23523862E+04  d E =-.286565E-01  mag=     2.0000
       N       E                     dE             d eps       ncg     rms          rms(c)
DAV:   1    -0.233082877117E+04    0.28649E-01   -0.31535E+00  4528   0.178E+00    0.534E-01
RMM:   2    -0.233087030857E+04   -0.41537E-01   -0.44650E-01  6377   0.414E-01    0.298E-01
RMM:   3    -0.233087368219E+04   -0.33736E-02   -0.47286E-02  6096   0.151E-01    0.315E-01
RMM:   4    -0.233087292638E+04    0.75580E-03   -0.45325E-03  6084   0.339E-02    0.199E-01
RMM:   5    -0.233087284294E+04    0.83442E-04   -0.11845E-03  5102   0.189E-02    0.206E-01
RMM:   6    -0.233087245581E+04    0.38713E-03   -0.97836E-04  5401   0.186E-02    0.909E-02
RMM:   7    -0.233087247091E+04   -0.15102E-04   -0.26337E-04  4166   0.108E-02    0.869E-02
RMM:   8    -0.233087236759E+04    0.10332E-03   -0.81986E-05  2983   0.663E-03    0.180E-02
RMM:   9    -0.233087235865E+04    0.89461E-05   -0.16728E-05  2993   0.384E-03
  34 F= -.23524020E+04 E0= -.23524020E+04  d E =-.157800E-01  mag=     2.0000
       N       E                     dE             d eps       ncg     rms          rms(c)
DAV:   1    -0.233085602333E+04    0.16344E-01   -0.13529E+00  4576   0.117E+00    0.350E-01
RMM:   2    -0.233087389856E+04   -0.17875E-01   -0.19209E-01  6367   0.271E-01    0.198E-01
RMM:   3    -0.233087535778E+04   -0.14592E-02   -0.20151E-02  6059   0.985E-02    0.216E-01
RMM:   4    -0.233087497841E+04    0.37937E-03   -0.19482E-03  5349   0.223E-02    0.131E-01
RMM:   5    -0.233087495154E+04    0.26866E-04   -0.52133E-04  4557   0.131E-02    0.137E-01
RMM:   6    -0.233087477431E+04    0.17723E-03   -0.43002E-04  4768   0.130E-02    0.596E-02
RMM:   7    -0.233087478123E+04   -0.69197E-05   -0.12026E-04  3225   0.815E-03    0.578E-02
RMM:   8    -0.233087473487E+04    0.46357E-04   -0.37642E-05  2939   0.564E-03    0.115E-02
RMM:   9    -0.233087473107E+04    0.38077E-05   -0.87050E-06  2932   0.299E-03
  35 F= -.23524049E+04 E0= -.23524049E+04  d E =-.186890E-01  mag=     2.0000
       N       E                     dE             d eps       ncg     rms          rms(c)
DAV:   1    -0.233086063795E+04    0.14097E-01   -0.22376E+00  4528   0.142E+00    0.403E-01
RMM:   2    -0.233088654496E+04   -0.25907E-01   -0.27688E-01  6455   0.309E-01    0.253E-01
RMM:   3    -0.233088913171E+04   -0.25867E-02   -0.29352E-02  6086   0.110E-01    0.313E-01
RMM:   4    -0.233088811204E+04    0.10197E-02   -0.28950E-03  5364   0.265E-02    0.130E-01
RMM:   5    -0.233088804435E+04    0.67687E-04   -0.68978E-04  4686   0.157E-02    0.115E-01
RMM:   6    -0.233088792667E+04    0.11768E-03   -0.47618E-04  4799   0.139E-02    0.587E-02
RMM:   7    -0.233088789788E+04    0.28781E-04   -0.85872E-05  3317   0.717E-03    0.405E-02
RMM:   8    -0.233088788503E+04    0.12852E-04   -0.24732E-05  2926   0.518E-03    0.181E-02
RMM:   9    -0.233088788117E+04    0.38619E-05   -0.65239E-06  2938   0.230E-03
  36 F= -.23524186E+04 E0= -.23524186E+04  d E =-.136707E-01  mag=     2.0000
       N       E                     dE             d eps       ncg     rms          rms(c)
DAV:   1    -0.233082598055E+04    0.61904E-01   -0.58265E+00  4512   0.230E+00    0.652E-01
RMM:   2    -0.233089359061E+04   -0.67610E-01   -0.72318E-01  6459   0.500E-01    0.411E-01
RMM:   3    -0.233090037424E+04   -0.67836E-02   -0.77622E-02  6114   0.179E-01    0.510E-01
RMM:   4    -0.233089772275E+04    0.26515E-02   -0.75563E-03  6116   0.428E-02    0.211E-01
RMM:   5    -0.233089755943E+04    0.16331E-03   -0.17139E-03  5171   0.239E-02    0.193E-01
RMM:   6    -0.233089724790E+04    0.31153E-03   -0.12084E-03  5518   0.211E-02    0.114E-01
RMM:   7    -0.233089721333E+04    0.34579E-04   -0.37519E-04  4733   0.117E-02    0.111E-01
RMM:   8    -0.233089709321E+04    0.12011E-03   -0.97548E-05  2979   0.748E-03    0.224E-02
RMM:   9    -0.233089708483E+04    0.83866E-05   -0.21965E-05  2993   0.361E-03
  37 F= -.23524286E+04 E0= -.23524286E+04  d E =-.236614E-01  mag=     2.0000
       N       E                     dE             d eps       ncg     rms          rms(c)
DAV:   1    -0.233088567355E+04    0.11420E-01   -0.24766E+00  4528   0.145E+00    0.424E-01
RMM:   2    -0.233091030183E+04   -0.24628E-01   -0.26543E-01  6332   0.296E-01    0.226E-01
RMM:   3    -0.233091240872E+04   -0.21069E-02   -0.27507E-02  5822   0.110E-01    0.233E-01
RMM:   4    -0.233091210173E+04    0.30699E-03   -0.28661E-03  5385   0.260E-02    0.163E-01
RMM:   5    -0.233091199245E+04    0.10928E-03   -0.84970E-04  4695   0.173E-02    0.146E-01
RMM:   6    -0.233091182835E+04    0.16411E-03   -0.45459E-04  4152   0.141E-02    0.747E-02
RMM:   7    -0.233091181963E+04    0.87148E-05   -0.12334E-04  3389   0.773E-03    0.562E-02
RMM:   8    -0.233091178055E+04    0.39081E-04   -0.44330E-05  2955   0.586E-03    0.145E-02
RMM:   9    -0.233091177756E+04    0.29890E-05   -0.87322E-06  2937   0.273E-03
  38 F= -.23524437E+04 E0= -.23524437E+04  d E =-.151834E-01  mag=     2.0000
       N       E                     dE             d eps       ncg     rms          rms(c)
DAV:   1    -0.233086673732E+04    0.45043E-01   -0.49766E+00  4512   0.206E+00    0.601E-01
RMM:   2    -0.233091611467E+04   -0.49377E-01   -0.53246E-01  6322   0.420E-01    0.319E-01
RMM:   3    -0.233092035868E+04   -0.42440E-02   -0.55486E-02  5851   0.156E-01    0.329E-01
RMM:   4    -0.233091977877E+04    0.57991E-03   -0.57399E-03  5917   0.367E-02    0.233E-01
RMM:   5    -0.233091952633E+04    0.25245E-03   -0.16691E-03  5055   0.238E-02    0.203E-01
RMM:   6    -0.233091921481E+04    0.31152E-03   -0.92278E-04  4795   0.191E-02    0.107E-01
RMM:   7    -0.233091918532E+04    0.29483E-04   -0.25293E-04  4267   0.101E-02    0.770E-02
RMM:   8    -0.233091911198E+04    0.73341E-04   -0.83716E-05  3015   0.714E-03    0.212E-02
RMM:   9    -0.233091910500E+04    0.69873E-05   -0.17329E-05  2972   0.348E-03
  39 F= -.23524517E+04 E0= -.23524517E+04  d E =-.231438E-01  mag=     2.0000
       N       E                     dE             d eps       ncg     rms          rms(c)
DAV:   1    -0.233090739251E+04    0.11719E-01   -0.22449E+00  4512   0.136E+00    0.395E-01
RMM:   2    -0.233092859998E+04   -0.21207E-01   -0.22747E-01  6251   0.275E-01    0.211E-01
RMM:   3    -0.233093028180E+04   -0.16818E-02   -0.22629E-02  5822   0.101E-01    0.232E-01
RMM:   4    -0.233092999995E+04    0.28185E-03   -0.23651E-03  5179   0.232E-02    0.152E-01
RMM:   5    -0.233092997891E+04    0.21038E-04   -0.68609E-04  5000   0.159E-02    0.133E-01
RMM:   6    -0.233092980361E+04    0.17530E-03   -0.39974E-04  4374   0.129E-02    0.645E-02
RMM:   7    -0.233092978979E+04    0.13816E-04   -0.94379E-05  3090   0.706E-03    0.467E-02
RMM:   8    -0.233092976186E+04    0.27924E-04   -0.35962E-05  2928   0.521E-03    0.171E-02
RMM:   9    -0.233092975855E+04    0.33128E-05   -0.76779E-06  2925   0.263E-03
  40 F= -.23524629E+04 E0= -.23524629E+04  d E =-.111829E-01  mag=     2.0000
       N       E                     dE             d eps       ncg     rms          rms(c)
DAV:   1    -0.233089515506E+04    0.34607E-01   -0.40411E+00  4512   0.182E+00    0.530E-01
RMM:   2    -0.233093325757E+04   -0.38103E-01   -0.40883E-01  6266   0.370E-01    0.279E-01
RMM:   3    -0.233093623743E+04   -0.29799E-02   -0.40907E-02  5850   0.136E-01    0.301E-01
RMM:   4    -0.233093581949E+04    0.41794E-03   -0.42329E-03  5807   0.309E-02    0.204E-01
RMM:   5    -0.233093574308E+04    0.76411E-04   -0.12016E-03  5259   0.204E-02    0.173E-01
RMM:   6    -0.233093546013E+04    0.28295E-03   -0.70434E-04  4977   0.164E-02    0.883E-02
RMM:   7    -0.233093542342E+04    0.36702E-04   -0.16246E-04  3467   0.845E-03    0.603E-02
RMM:   8    -0.233093537742E+04    0.46002E-04   -0.61284E-05  2964   0.616E-03    0.239E-02
RMM:   9    -0.233093537021E+04    0.72158E-05   -0.14125E-05  2944   0.323E-03
  41 F= -.23524691E+04 E0= -.23524691E+04  d E =-.174502E-01  mag=     2.0000
       N       E                     dE             d eps       ncg     rms          rms(c)
DAV:   1    -0.233093509393E+04    0.28349E-03   -0.12458E+00  4544   0.103E+00    0.320E-01
RMM:   2    -0.233094351171E+04   -0.84178E-02   -0.87020E-02  6101   0.205E-01    0.238E-01
RMM:   3    -0.233094417612E+04   -0.66441E-03   -0.73144E-03  5889   0.721E-02    0.304E-01
RMM:   4    -0.233094311490E+04    0.10612E-02   -0.10743E-03  5568   0.218E-02    0.989E-02
RMM:   5    -0.233094326470E+04   -0.14981E-03   -0.54422E-04  4724   0.150E-02    0.152E-01
RMM:   6    -0.233094302165E+04    0.24306E-03   -0.34839E-04  4666   0.126E-02    0.464E-02
RMM:   7    -0.233094301280E+04    0.88431E-05   -0.92054E-05  3038   0.793E-03
  42 F= -.23524773E+04 E0= -.23524773E+04  d E =-.816057E-02  mag=     2.0000
       N       E                     dE             d eps       ncg     rms          rms(c)
DAV:   1    -0.233093994550E+04    0.30762E-02   -0.68682E-01  4576   0.762E-01    0.240E-01
RMM:   2    -0.233094457700E+04   -0.46315E-02   -0.47941E-02  6074   0.153E-01    0.176E-01
RMM:   3    -0.233094497232E+04   -0.39531E-03   -0.42480E-03  5799   0.543E-02    0.224E-01
RMM:   4    -0.233094438896E+04    0.58336E-03   -0.60121E-04  5152   0.163E-02    0.748E-02
RMM:   5    -0.233094445895E+04   -0.69985E-04   -0.30173E-04  4201   0.115E-02    0.110E-01
RMM:   6    -0.233094433623E+04    0.12272E-03   -0.19736E-04  4090   0.979E-03    0.384E-02
RMM:   7    -0.233094432929E+04    0.69376E-05   -0.56990E-05  2970   0.671E-03
  43 F= -.23524790E+04 E0= -.23524790E+04  d E =-.984851E-02  mag=     2.0000
       N       E                     dE             d eps       ncg     rms          rms(c)
DAV:   1    -0.233093565076E+04    0.86855E-02   -0.16702E+00  4512   0.116E+00    0.348E-01
RMM:   2    -0.233095145749E+04   -0.15807E-01   -0.16105E-01  6372   0.247E-01    0.292E-01
RMM:   3    -0.233095241582E+04   -0.95833E-03   -0.16431E-02  6107   0.919E-02    0.300E-01
RMM:   4    -0.233095143988E+04    0.97594E-03   -0.17000E-03  5430   0.225E-02    0.127E-01
RMM:   5    -0.233095142821E+04    0.11672E-04   -0.49441E-04  3926   0.119E-02    0.129E-01
RMM:   6    -0.233095135137E+04    0.76840E-04   -0.41719E-04  4605   0.132E-02    0.876E-02
RMM:   7    -0.233095127660E+04    0.74769E-04   -0.16179E-04  3205   0.946E-03    0.377E-02
RMM:   8    -0.233095125718E+04    0.19421E-04   -0.21934E-05  2956   0.460E-03    0.939E-03
RMM:   9    -0.233095125571E+04    0.14763E-05   -0.48423E-06  2901   0.276E-03
  44 F= -.23524868E+04 E0= -.23524868E+04  d E =-.776899E-02  mag=     2.0000
       N       E                     dE             d eps       ncg     rms          rms(c)
DAV:   1    -0.233085988502E+04    0.91372E-01   -0.98569E+00  4512   0.281E+00    0.851E-01
RMM:   2    -0.233095498308E+04   -0.95098E-01   -0.96150E-01  6377   0.605E-01    0.756E-01
RMM:   3    -0.233095897076E+04   -0.39877E-02   -0.96670E-02  6146   0.223E-01    0.730E-01
RMM:   4    -0.233095352175E+04    0.54490E-02   -0.10254E-02  6157   0.542E-02    0.325E-01
RMM:   5    -0.233095327315E+04    0.24860E-03   -0.27606E-03  5582   0.266E-02    0.305E-01
RMM:   6    -0.233095292021E+04    0.35294E-03   -0.23869E-03  5394   0.299E-02    0.223E-01
RMM:   7    -0.233095241238E+04    0.50783E-03   -0.10528E-03  5086   0.205E-02    0.933E-02
RMM:   8    -0.233095229011E+04    0.12227E-03   -0.13456E-04  3535   0.785E-03    0.240E-02
RMM:   9    -0.233095228016E+04    0.99513E-05   -0.23250E-05  2975   0.506E-03
  45 F= -.23524897E+04 E0= -.23524897E+04  d E =-.107392E-01  mag=     2.0000
       N       E                     dE             d eps       ncg     rms          rms(c)
DAV:   1    -0.233094201932E+04    0.10271E-01   -0.13534E+00  4528   0.104E+00    0.309E-01
RMM:   2    -0.233095465305E+04   -0.12634E-01   -0.12931E-01  6428   0.221E-01    0.256E-01
RMM:   3    -0.233095552445E+04   -0.87140E-03   -0.12761E-02  6123   0.769E-02    0.277E-01
RMM:   4    -0.233095467052E+04    0.85393E-03   -0.13213E-03  5106   0.202E-02    0.111E-01
RMM:   5    -0.233095466896E+04    0.15611E-05   -0.40304E-04  3644   0.109E-02    0.119E-01
RMM:   6    -0.233095460027E+04    0.68689E-04   -0.35196E-04  4464   0.123E-02    0.768E-02
RMM:   7    -0.233095453650E+04    0.63776E-04   -0.11894E-04  3091   0.853E-03    0.292E-02
RMM:   8    -0.233095452499E+04    0.11504E-04   -0.15039E-05  2946   0.392E-03    0.836E-03
RMM:   9    -0.233095452402E+04    0.97280E-06   -0.38532E-06  2893   0.237E-03
  46 F= -.23524913E+04 E0= -.23524913E+04  d E =-.122786E-01  mag=     2.0000
       N       E                     dE             d eps       ncg     rms          rms(c)
DAV:   1    -0.233094580669E+04    0.87183E-02   -0.18133E+00  4512   0.120E+00    0.367E-01
RMM:   2    -0.233096123235E+04   -0.15426E-01   -0.16161E-01  6221   0.248E-01    0.238E-01
RMM:   3    -0.233096269874E+04   -0.14664E-02   -0.15862E-02  5993   0.899E-02    0.292E-01
RMM:   4    -0.233096163822E+04    0.10605E-02   -0.17098E-03  5533   0.240E-02    0.116E-01
RMM:   5    -0.233096170273E+04   -0.64508E-04   -0.66250E-04  5109   0.158E-02    0.128E-01
RMM:   6    -0.233096149985E+04    0.20288E-03   -0.37462E-04  4890   0.124E-02    0.517E-02
RMM:   7    -0.233096151545E+04   -0.15606E-04   -0.11106E-04  3022   0.741E-03    0.656E-02
RMM:   8    -0.233096147321E+04    0.42242E-04   -0.32791E-05  2938   0.468E-03    0.103E-02
RMM:   9    -0.233096147189E+04    0.13217E-05   -0.61600E-06  2915   0.242E-03
  47 F= -.23524990E+04 E0= -.23524990E+04  d E =-.772614E-02  mag=     2.0000
       N       E                     dE             d eps       ncg     rms          rms(c)
DAV:   1    -0.233095037284E+04    0.11100E-01   -0.14697E+00  4512   0.108E+00    0.331E-01
RMM:   2    -0.233096290691E+04   -0.12534E-01   -0.13111E-01  6218   0.224E-01    0.216E-01
RMM:   3    -0.233096409058E+04   -0.11837E-02   -0.12795E-02  5974   0.805E-02    0.264E-01
RMM:   4    -0.233096322167E+04    0.86891E-03   -0.13787E-03  5333   0.217E-02    0.105E-01
RMM:   5    -0.233096328059E+04   -0.58921E-04   -0.54595E-04  4899   0.145E-02    0.117E-01
RMM:   6    -0.233096311458E+04    0.16601E-03   -0.30799E-04  4756   0.114E-02    0.521E-02
RMM:   7    -0.233096312171E+04   -0.71257E-05   -0.99029E-05  2993   0.710E-03
  48 F= -.23525013E+04 E0= -.23525013E+04  d E =-.100550E-01  mag=     2.0000
       N       E                     dE             d eps       ncg     rms          rms(c)
DAV:   1    -0.233095504288E+04    0.80717E-02   -0.11975E+00  4512   0.951E-01    0.305E-01
RMM:   2    -0.233096764738E+04   -0.12604E-01   -0.13172E-01  6229   0.200E-01    0.237E-01
RMM:   3    -0.233096913968E+04   -0.14923E-02   -0.13600E-02  5951   0.761E-02    0.336E-01
RMM:   4    -0.233096804368E+04    0.10960E-02   -0.13943E-03  5046   0.195E-02    0.869E-02
RMM:   5    -0.233096799680E+04    0.46879E-04   -0.39198E-04  4410   0.122E-02    0.690E-02
RMM:   6    -0.233096798152E+04    0.15284E-04   -0.22513E-04  3610   0.100E-02    0.554E-02
RMM:   7    -0.233096795125E+04    0.30267E-04   -0.45700E-05  2989   0.640E-03    0.217E-02
RMM:   8    -0.233096794949E+04    0.17619E-05   -0.16032E-05  2905   0.429E-03
  49 F= -.23525067E+04 E0= -.23525067E+04  d E =-.539615E-02  mag=     2.0000
       N       E                     dE             d eps       ncg     rms          rms(c)
DAV:   1    -0.233095420869E+04    0.13743E-01   -0.14167E+00  4512   0.103E+00    0.330E-01
RMM:   2    -0.233096909407E+04   -0.14885E-01   -0.15532E-01  6224   0.216E-01    0.264E-01
RMM:   3    -0.233097085624E+04   -0.17622E-02   -0.16460E-02  5987   0.809E-02    0.371E-01
RMM:   4    -0.233096952965E+04    0.13266E-02   -0.16638E-03  5249   0.212E-02    0.935E-02
RMM:   5    -0.233096949152E+04    0.38121E-04   -0.48404E-04  4555   0.132E-02    0.838E-02
RMM:   6    -0.233096944801E+04    0.43515E-04   -0.28653E-04  3950   0.109E-02    0.588E-02
RMM:   7    -0.233096942102E+04    0.26992E-04   -0.54467E-05  3004   0.657E-03    0.310E-02
RMM:   8    -0.233096941067E+04    0.10351E-04   -0.20549E-05  2912   0.461E-03    0.152E-02
RMM:   9    -0.233096940798E+04    0.26904E-05   -0.50420E-06  2887   0.247E-03
  50 F= -.23525088E+04 E0= -.23525088E+04  d E =-.745370E-02  mag=     2.0000
       N       E                     dE             d eps       ncg     rms          rms(c)
DAV:   1    -0.233095595088E+04    0.13460E-01   -0.13347E+00  4512   0.101E+00    0.321E-01
RMM:   2    -0.233097322128E+04   -0.17270E-01   -0.18267E-01  6479   0.226E-01    0.223E-01
RMM:   3    -0.233097522514E+04   -0.20039E-02   -0.19590E-02  6149   0.839E-02    0.322E-01
RMM:   4    -0.233097427452E+04    0.95062E-03   -0.19433E-03  4703   0.207E-02    0.107E-01
RMM:   5    -0.233097426528E+04    0.92441E-05   -0.44099E-04  4328   0.115E-02    0.108E-01
RMM:   6    -0.233097412061E+04    0.14467E-03   -0.35131E-04  4732   0.115E-02    0.382E-02
RMM:   7    -0.233097411560E+04    0.50104E-05   -0.59453E-05  3111   0.660E-03
  51 F= -.23525140E+04 E0= -.23525140E+04  d E =-.517761E-02  mag=     2.0000
       N       E                     dE             d eps       ncg     rms          rms(c)
DAV:   1    -0.233090205490E+04    0.72066E-01   -0.52863E+00  4512   0.202E+00    0.643E-01
RMM:   2    -0.233097039964E+04   -0.68345E-01   -0.72522E-01  6502   0.451E-01    0.434E-01
RMM:   3    -0.233097810012E+04   -0.77005E-02   -0.78988E-02  6326   0.168E-01    0.608E-01
RMM:   4    -0.233097473355E+04    0.33666E-02   -0.76929E-03  6108   0.408E-02    0.218E-01
RMM:   5    -0.233097469249E+04    0.41061E-04   -0.17136E-03  5436   0.206E-02    0.221E-01
RMM:   6    -0.233097416264E+04    0.52986E-03   -0.13079E-03  5432   0.206E-02    0.102E-01
RMM:   7    -0.233097420134E+04   -0.38703E-04   -0.42504E-04  4389   0.136E-02    0.103E-01
RMM:   8    -0.233097406523E+04    0.13611E-03   -0.12702E-04  3129   0.734E-03    0.250E-02
RMM:   9    -0.233097405237E+04    0.12863E-04   -0.22534E-05  3009   0.446E-03    0.118E-02
RMM:  10    -0.233097404955E+04    0.28176E-05   -0.11100E-05  2944   0.315E-03
  52 F= -.23525148E+04 E0= -.23525148E+04  d E =-.600409E-02  mag=     2.0000
       N       E                     dE             d eps       ncg     rms          rms(c)
DAV:   1    -0.233096297946E+04    0.11073E-01   -0.93126E-01  4528   0.849E-01    0.268E-01
RMM:   2    -0.233097496682E+04   -0.11987E-01   -0.12676E-01  6454   0.190E-01    0.187E-01
RMM:   3    -0.233097636278E+04   -0.13960E-02   -0.13901E-02  6044   0.705E-02    0.266E-01
RMM:   4    -0.233097570954E+04    0.65324E-03   -0.13574E-03  3993   0.173E-02    0.911E-02
RMM:   5    -0.233097569039E+04    0.19150E-04   -0.29252E-04  3757   0.983E-03    0.894E-02
RMM:   6    -0.233097560147E+04    0.88929E-04   -0.25020E-04  4086   0.103E-02    0.387E-02
RMM:   7    -0.233097560487E+04   -0.34019E-05   -0.64318E-05  3100   0.638E-03
  53 F= -.23525160E+04 E0= -.23525160E+04  d E =-.719193E-02  mag=     2.0000
       N       E                     dE             d eps       ncg     rms          rms(c)
DAV:   1    -0.233094939137E+04    0.26210E-01   -0.19802E+00  4512   0.127E+00    0.396E-01
RMM:   2    -0.233097859961E+04   -0.29208E-01   -0.31108E-01  6542   0.300E-01    0.220E-01
RMM:   3    -0.233098085544E+04   -0.22558E-02   -0.29756E-02  6204   0.102E-01    0.197E-01
RMM:   4    -0.233098059936E+04    0.25607E-03   -0.29993E-03  5191   0.239E-02    0.136E-01
RMM:   5    -0.233098050695E+04    0.92412E-04   -0.59727E-04  4819   0.149E-02    0.117E-01
RMM:   6    -0.233098037631E+04    0.13064E-03   -0.35617E-04  4042   0.116E-02    0.659E-02
RMM:   7    -0.233098035026E+04    0.26046E-04   -0.87885E-05  3170   0.708E-03    0.411E-02
RMM:   8    -0.233098033617E+04    0.14098E-04   -0.28782E-05  2922   0.541E-03    0.195E-02
RMM:   9    -0.233098033090E+04    0.52694E-05   -0.60264E-06  2889   0.251E-03
  54 F= -.23525212E+04 E0= -.23525212E+04  d E =-.517839E-02  mag=     2.0000
       N       E                     dE             d eps       ncg     rms          rms(c)
DAV:   1    -0.233094987939E+04    0.30457E-01   -0.20263E+00  4512   0.129E+00    0.405E-01
RMM:   2    -0.233097979463E+04   -0.29915E-01   -0.31846E-01  6567   0.304E-01    0.233E-01
RMM:   3    -0.233098231217E+04   -0.25175E-02   -0.30958E-02  6212   0.106E-01    0.231E-01
RMM:   4    -0.233098187133E+04    0.44084E-03   -0.31516E-03  5149   0.248E-02    0.138E-01
RMM:   5    -0.233098181230E+04    0.59027E-04   -0.60017E-04  4898   0.144E-02    0.123E-01
RMM:   6    -0.233098163644E+04    0.17586E-03   -0.41441E-04  4394   0.127E-02    0.522E-02
RMM:   7    -0.233098161118E+04    0.25268E-04   -0.80964E-05  3325   0.691E-03    0.146E-02
RMM:   8    -0.233098161040E+04    0.77015E-06   -0.11528E-05  2920   0.466E-03
  55 F= -.23525229E+04 E0= -.23525229E+04  d E =-.690242E-02  mag=     2.0000
       N       E                     dE             d eps       ncg     rms          rms(c)
DAV:   1    -0.233095202956E+04    0.29582E-01   -0.20895E+00  4512   0.131E+00    0.409E-01
RMM:   2    -0.233098442343E+04   -0.32394E-01   -0.34444E-01  6617   0.317E-01    0.269E-01
RMM:   3    -0.233098745913E+04   -0.30357E-02   -0.34589E-02  6223   0.109E-01    0.317E-01
RMM:   4    -0.233098651695E+04    0.94218E-03   -0.34435E-03  5145   0.260E-02    0.134E-01
RMM:   5    -0.233098655407E+04   -0.37124E-04   -0.64580E-04  5098   0.143E-02    0.149E-01
RMM:   6    -0.233098631878E+04    0.23529E-03   -0.42321E-04  4377   0.127E-02    0.694E-02
RMM:   7    -0.233098632919E+04   -0.10414E-04   -0.18083E-04  3301   0.851E-03    0.650E-02
RMM:   8    -0.233098627607E+04    0.53117E-04   -0.51514E-05  2948   0.623E-03    0.138E-02
RMM:   9    -0.233098627282E+04    0.32534E-05   -0.81588E-06  2930   0.284E-03
  56 F= -.23525280E+04 E0= -.23525280E+04  d E =-.515221E-02  mag=     2.0000
       N       E                     dE             d eps       ncg     rms          rms(c)
DAV:   1    -0.233094881208E+04    0.37464E-01   -0.23319E+00  4512   0.138E+00    0.431E-01
RMM:   2    -0.233098506171E+04   -0.36250E-01   -0.38410E-01  6611   0.335E-01    0.302E-01
RMM:   3    -0.233098855877E+04   -0.34971E-02   -0.38921E-02  6258   0.117E-01    0.371E-01
RMM:   4    -0.233098729832E+04    0.12604E-02   -0.38579E-03  5334   0.277E-02    0.143E-01
RMM:   5    -0.233098740123E+04   -0.10291E-03   -0.74747E-04  5189   0.148E-02    0.174E-01
RMM:   6    -0.233098705886E+04    0.34238E-03   -0.52535E-04  4714   0.139E-02    0.691E-02
RMM:   7    -0.233098707185E+04   -0.12999E-04   -0.22808E-04  3455   0.951E-03    0.654E-02
RMM:   8    -0.233098701469E+04    0.57163E-04   -0.60120E-05  2983   0.638E-03    0.142E-02
RMM:   9    -0.233098701087E+04    0.38223E-05   -0.97971E-06  2934   0.318E-03
  57 F= -.23525293E+04 E0= -.23525293E+04  d E =-.639931E-02  mag=     2.0000
       N       E                     dE             d eps       ncg     rms          rms(c)
DAV:   1    -0.233095747392E+04    0.29541E-01   -0.24675E+00  4512   0.144E+00    0.424E-01
RMM:   2    -0.233098827055E+04   -0.30797E-01   -0.33012E-01  6581   0.326E-01    0.237E-01
RMM:   3    -0.233099105325E+04   -0.27827E-02   -0.33505E-02  6145   0.113E-01    0.264E-01
RMM:   4    -0.233099047285E+04    0.58040E-03   -0.32634E-03  5264   0.262E-02    0.143E-01
RMM:   5    -0.233099036135E+04    0.11150E-03   -0.70390E-04  4812   0.159E-02    0.113E-01
RMM:   6    -0.233099024503E+04    0.11632E-03   -0.40244E-04  4234   0.135E-02    0.627E-02
RMM:   7    -0.233099022153E+04    0.23507E-04   -0.89041E-05  3190   0.701E-03    0.446E-02
RMM:   8    -0.233099020274E+04    0.18788E-04   -0.29330E-05  2921   0.525E-03    0.200E-02
RMM:   9    -0.233099019782E+04    0.49185E-05   -0.61406E-06  2901   0.234E-03
  58 F= -.23525328E+04 E0= -.23525328E+04  d E =-.354287E-02  mag=     2.0000
       N       E                     dE             d eps       ncg     rms          rms(c)
DAV:   1    -0.233098383489E+04    0.63678E-02   -0.49538E-01  4576   0.645E-01    0.190E-01
RMM:   2    -0.233099002700E+04   -0.61921E-02   -0.66245E-02  6558   0.146E-01    0.109E-01
RMM:   3    -0.233099057937E+04   -0.55238E-03   -0.66673E-03  5591   0.509E-02    0.121E-01
RMM:   4    -0.233099045188E+04    0.12749E-03   -0.65386E-04  3286   0.121E-02    0.647E-02
RMM:   5    -0.233099043669E+04    0.15197E-04   -0.14298E-04  3399   0.826E-03    0.560E-02
RMM:   6    -0.233099040478E+04    0.31908E-04   -0.92240E-05  3115   0.742E-03    0.296E-02
RMM:   7    -0.233099040338E+04    0.14036E-05   -0.26373E-05  2945   0.506E-03
  59 F= -.23525332E+04 E0= -.23525332E+04  d E =-.390480E-02  mag=     2.0000
       N       E                     dE             d eps       ncg     rms          rms(c)
DAV:   1    -0.233098730421E+04    0.31006E-02   -0.79183E-01  4512   0.850E-01    0.244E-01
RMM:   2    -0.233099402020E+04   -0.67160E-02   -0.68886E-02  6197   0.173E-01    0.232E-01
RMM:   3    -0.233099453014E+04   -0.50995E-03   -0.70046E-03  5878   0.650E-02    0.271E-01
RMM:   4    -0.233099380813E+04    0.72201E-03   -0.71617E-04  4840   0.170E-02    0.671E-02
RMM:   5    -0.233099383324E+04   -0.25108E-04   -0.36309E-04  4612   0.132E-02    0.868E-02
RMM:   6    -0.233099374772E+04    0.85514E-04   -0.13909E-04  3450   0.917E-03    0.334E-02
RMM:   7    -0.233099373434E+04    0.13383E-04   -0.18781E-05  2952   0.506E-03    0.957E-03
RMM:   8    -0.233099373256E+04    0.17857E-05   -0.67369E-06  2909   0.324E-03
  60 F= -.23525364E+04 E0= -.23525364E+04  d E =-.324970E-02  mag=     2.0000
       N       E                     dE             d eps       ncg     rms          rms(c)
DAV:   1    -0.233099170083E+04    0.20335E-02   -0.29996E-01  4560   0.523E-01    0.150E-01
RMM:   2    -0.233099424593E+04   -0.25451E-02   -0.26150E-02  6141   0.107E-01    0.140E-01
RMM:   3    -0.233099443243E+04   -0.18650E-03   -0.25936E-03  5169   0.381E-02    0.165E-01
RMM:   4    -0.233099416229E+04    0.27014E-03   -0.26761E-04  3422   0.107E-02    0.418E-02
RMM:   5    -0.233099417041E+04   -0.81186E-05   -0.13731E-04  3824   0.869E-03    0.534E-02
RMM:   6    -0.233099413776E+04    0.32649E-04   -0.55696E-05  3058   0.665E-03    0.218E-02
RMM:   7    -0.233099413293E+04    0.48333E-05   -0.11548E-05  2923   0.399E-03
  61 F= -.23525368E+04 E0= -.23525368E+04  d E =-.360107E-02  mag=     2.0000
       N       E                     dE             d eps       ncg     rms          rms(c)
DAV:   1    -0.233099311549E+04    0.10223E-02   -0.45578E-01  4544   0.645E-01    0.173E-01
RMM:   2    -0.233099681968E+04   -0.37042E-02   -0.37476E-02  6228   0.128E-01    0.179E-01
RMM:   3    -0.233099697856E+04   -0.15888E-03   -0.36246E-03  5514   0.452E-02    0.183E-01
RMM:   4    -0.233099666132E+04    0.31724E-03   -0.34865E-04  3484   0.118E-02    0.504E-02
RMM:   5    -0.233099669101E+04   -0.29689E-04   -0.16660E-04  3574   0.885E-03    0.687E-02
RMM:   6    -0.233099663441E+04    0.56599E-04   -0.10037E-04  3401   0.778E-03    0.251E-02
RMM:   7    -0.233099663507E+04   -0.65440E-06   -0.28979E-05  2940   0.539E-03
  62 F= -.23525392E+04 E0= -.23525392E+04  d E =-.240360E-02  mag=     2.0000
       N       E                     dE             d eps       ncg     rms          rms(c)
DAV:   1    -0.233097899255E+04    0.17642E-01   -0.25812E+00  4512   0.153E+00    0.410E-01
RMM:   2    -0.233099978766E+04   -0.20795E-01   -0.21121E-01  6187   0.304E-01    0.412E-01
RMM:   3    -0.233100090927E+04   -0.11216E-02   -0.20738E-02  5979   0.108E-01    0.441E-01
RMM:   4    -0.233099903872E+04    0.18706E-02   -0.19825E-03  5521   0.274E-02    0.118E-01
RMM:   5    -0.233099922351E+04   -0.18479E-03   -0.97075E-04  5283   0.189E-02    0.168E-01
RMM:   6    -0.233099888174E+04    0.34178E-03   -0.51541E-04  5013   0.142E-02    0.563E-02
RMM:   7    -0.233099887689E+04    0.48428E-05   -0.11917E-04  3123   0.799E-03    0.461E-02
RMM:   8    -0.233099884761E+04    0.29279E-04   -0.34438E-05  2935   0.507E-03    0.134E-02
RMM:   9    -0.233099884482E+04    0.27953E-05   -0.84065E-06  2931   0.261E-03
  63 F= -.23525412E+04 E0= -.23525412E+04  d E =-.438050E-02  mag=     2.0000
       N       E                     dE             d eps       ncg     rms          rms(c)
DAV:   1    -0.233099825613E+04    0.59148E-03   -0.85773E-01  4512   0.860E-01    0.227E-01
RMM:   2    -0.233100250182E+04   -0.42457E-02   -0.45361E-02  6062   0.164E-01    0.125E-01
RMM:   3    -0.233100274719E+04   -0.24537E-03   -0.34881E-03  5499   0.543E-02    0.180E-01
RMM:   4    -0.233100244328E+04    0.30391E-03   -0.48109E-04  4064   0.145E-02    0.792E-02
RMM:   5    -0.233100246743E+04   -0.24151E-04   -0.29537E-04  4565   0.126E-02    0.861E-02
RMM:   6    -0.233100238112E+04    0.86309E-04   -0.13475E-04  3499   0.917E-03    0.318E-02
RMM:   7    -0.233100237429E+04    0.68369E-05   -0.26180E-05  2947   0.496E-03
  64 F= -.23525445E+04 E0= -.23525445E+04  d E =-.335647E-02  mag=     2.0000
       N       E                     dE             d eps       ncg     rms          rms(c)
DAV:   1    -0.233099952059E+04    0.28605E-02   -0.82657E-01  4512   0.844E-01    0.224E-01
RMM:   2    -0.233100363503E+04   -0.41144E-02   -0.43872E-02  6112   0.162E-01    0.123E-01
RMM:   3    -0.233100387825E+04   -0.24322E-03   -0.34312E-03  5538   0.547E-02    0.173E-01
RMM:   4    -0.233100358508E+04    0.29317E-03   -0.45218E-04  4084   0.144E-02    0.777E-02
RMM:   5    -0.233100360858E+04   -0.23498E-04   -0.27947E-04  4502   0.123E-02    0.890E-02
RMM:   6    -0.233100352452E+04    0.84052E-04   -0.12387E-04  3308   0.913E-03    0.310E-02
RMM:   7    -0.233100351646E+04    0.80637E-05   -0.21312E-05  2949   0.466E-03
  65 F= -.23525455E+04 E0= -.23525455E+04  d E =-.432912E-02  mag=     2.0000
       N       E                     dE             d eps       ncg     rms          rms(c)
DAV:   1    -0.233099985446E+04    0.36701E-02   -0.11141E+00  4512   0.948E-01    0.257E-01
RMM:   2    -0.233100796149E+04   -0.81070E-02   -0.82753E-02  6438   0.200E-01    0.244E-01
RMM:   3    -0.233100811577E+04   -0.15428E-03   -0.71224E-03  6069   0.601E-02    0.256E-01
RMM:   4    -0.233100748103E+04    0.63474E-03   -0.78330E-04  4742   0.172E-02    0.817E-02
RMM:   5    -0.233100763119E+04   -0.15016E-03   -0.39687E-04  4500   0.121E-02    0.134E-01
RMM:   6    -0.233100741058E+04    0.22061E-03   -0.25733E-04  4480   0.108E-02    0.275E-02
RMM:   7    -0.233100741052E+04    0.57960E-07   -0.45584E-05  2987   0.645E-03
  66 F= -.23525492E+04 E0= -.23525492E+04  d E =-.371583E-02  mag=     2.0000
       N       E                     dE             d eps       ncg     rms          rms(c)
DAV:   1    -0.233097975297E+04    0.27658E-01   -0.41254E+00  4512   0.182E+00    0.494E-01
RMM:   2    -0.233100946116E+04   -0.29708E-01   -0.30482E-01  6384   0.385E-01    0.454E-01
RMM:   3    -0.233101056394E+04   -0.11028E-02   -0.27574E-02  6220   0.118E-01    0.511E-01
RMM:   4    -0.233100802733E+04    0.25366E-02   -0.29271E-03  5819   0.329E-02    0.155E-01
RMM:   5    -0.233100861507E+04   -0.58774E-03   -0.14723E-03  5465   0.219E-02    0.262E-01
RMM:   6    -0.233100775782E+04    0.85725E-03   -0.90359E-04  5291   0.188E-02    0.430E-02
RMM:   7    -0.233100774585E+04    0.11963E-04   -0.10733E-04  3228   0.898E-03    0.295E-02
RMM:   8    -0.233100773868E+04    0.71752E-05   -0.32298E-05  2929   0.448E-03
  67 F= -.23525492E+04 E0= -.23525492E+04  d E =-.369688E-02  mag=     2.0000
       N       E                     dE             d eps       ncg     rms          rms(c)
DAV:   1    -0.233100205153E+04    0.56943E-02   -0.10028E+00  4512   0.897E-01    0.239E-01
RMM:   2    -0.233100918307E+04   -0.71315E-02   -0.73220E-02  6411   0.189E-01    0.223E-01
RMM:   3    -0.233100940331E+04   -0.22024E-03   -0.65129E-03  6058   0.556E-02    0.245E-01
RMM:   4    -0.233100881902E+04    0.58430E-03   -0.68433E-04  4567   0.160E-02    0.754E-02
RMM:   5    -0.233100894534E+04   -0.12633E-03   -0.36603E-04  4527   0.118E-02    0.124E-01
RMM:   6    -0.233100875586E+04    0.18949E-03   -0.21574E-04  4057   0.100E-02    0.264E-02
RMM:   7    -0.233100875374E+04    0.21115E-05   -0.37380E-05  2993   0.593E-03
  68 F= -.23525504E+04 E0= -.23525504E+04  d E =-.488373E-02  mag=     2.0000
       N       E                     dE             d eps       ncg     rms          rms(c)
DAV:   1    -0.233100182313E+04    0.69327E-02   -0.13684E+00  4512   0.108E+00    0.316E-01
RMM:   2    -0.233101236047E+04   -0.10537E-01   -0.10933E-01  6245   0.233E-01    0.271E-01
RMM:   3    -0.233101297505E+04   -0.61458E-03   -0.98467E-03  6020   0.756E-02    0.335E-01
RMM:   4    -0.233101187841E+04    0.10966E-02   -0.11888E-03  5374   0.213E-02    0.947E-02
RMM:   5    -0.233101202115E+04   -0.14273E-03   -0.57644E-04  5218   0.151E-02    0.139E-01
RMM:   6    -0.233101176692E+04    0.25422E-03   -0.32951E-04  4732   0.123E-02    0.422E-02
RMM:   7    -0.233101175948E+04    0.74384E-05   -0.78928E-05  3022   0.747E-03
  69 F= -.23525532E+04 E0= -.23525532E+04  d E =-.284479E-02  mag=     2.0000
       N       E                     dE             d eps       ncg     rms          rms(c)
DAV:   1    -0.233101159777E+04    0.16916E-03   -0.24571E-02  5136   0.145E-01    0.461E-02
RMM:   2    -0.233101179342E+04   -0.19566E-03   -0.20598E-03  6196   0.335E-02    0.348E-02
RMM:   3    -0.233101181301E+04   -0.19584E-04   -0.20552E-04  3025   0.107E-02    0.500E-02
RMM:   4    -0.233101178927E+04    0.23733E-04   -0.24734E-05  2922   0.418E-03    0.139E-02
RMM:   5    -0.233101179126E+04   -0.19909E-05   -0.11314E-05  2930   0.259E-03
  70 F= -.23525532E+04 E0= -.23525532E+04  d E =-.285467E-02  mag=     2.0000
       N       E                     dE             d eps       ncg     rms          rms(c)
DAV:   1    -0.233100918551E+04    0.26038E-02   -0.59075E-01  4512   0.712E-01    0.209E-01
RMM:   2    -0.233101379290E+04   -0.46074E-02   -0.49802E-02  6177   0.151E-01    0.110E-01
RMM:   3    -0.233101407037E+04   -0.27746E-03   -0.45013E-03  5582   0.509E-02    0.132E-01
RMM:   4    -0.233101393605E+04    0.13432E-03   -0.49816E-04  3772   0.126E-02    0.796E-02
RMM:   5    -0.233101394741E+04   -0.11363E-04   -0.21096E-04  3762   0.964E-03    0.862E-02
RMM:   6    -0.233101387249E+04    0.74923E-04   -0.15470E-04  3658   0.902E-03    0.317E-02
RMM:   7    -0.233101387217E+04    0.31809E-06   -0.35332E-05  2970   0.575E-03
  71 F= -.23525552E+04 E0= -.23525552E+04  d E =-.192514E-02  mag=     2.0000
       N       E                     dE             d eps       ncg     rms          rms(c)
DAV:   1    -0.233101291863E+04    0.95385E-03   -0.15357E-01  4576   0.363E-01    0.108E-01
RMM:   2    -0.233101413581E+04   -0.12172E-02   -0.13097E-02  6238   0.788E-02    0.597E-02
[...]
       N       E                     dE             d eps       ncg     rms          rms(c)
DAV:   1    -0.233112057586E+04    0.75258E-03   -0.11791E-01  4544   0.346E-01    0.993E-02
RMM:   2    -0.233112179060E+04   -0.12147E-02   -0.12896E-02  6182   0.752E-02    0.555E-02
RMM:   3    -0.233112187167E+04   -0.81070E-04   -0.12176E-03  4329   0.268E-02    0.637E-02
RMM:   4    -0.233112182602E+04    0.45655E-04   -0.12673E-04  3021   0.742E-03    0.354E-02
RMM:   5    -0.233112182102E+04    0.49988E-05   -0.55799E-05  2976   0.568E-03
 168 F= -.23526210E+04 E0= -.23526210E+04  d E =-.319376E-03  mag=     2.0000
       N       E                     dE             d eps       ncg     rms          rms(c)
DAV:   1    -0.233112170407E+04    0.12195E-03   -0.16520E-02  4720   0.130E-01    0.412E-02
RMM:   2    -0.233112189699E+04   -0.19293E-03   -0.18721E-03  6179   0.298E-02    0.496E-02
RMM:   3    -0.233112189230E+04    0.46946E-05   -0.21913E-04  3001   0.109E-02    0.363E-02
RMM:   4    -0.233112188102E+04    0.11275E-04   -0.22252E-05  2937   0.418E-03    0.181E-02
RMM:   5    -0.233112187928E+04    0.17427E-05   -0.77797E-06  2833   0.217E-03
 169 F= -.23526210E+04 E0= -.23526210E+04  d E =-.310434E-03  mag=     2.0000
       N       E                     dE             d eps       ncg     rms          rms(c)
DAV:   1    -0.233112110598E+04    0.77504E-03   -0.11273E-01  4544   0.341E-01    0.948E-02
RMM:   2    -0.233112235093E+04   -0.12449E-02   -0.13185E-02  6150   0.746E-02    0.551E-02
RMM:   3    -0.233112245321E+04   -0.10228E-03   -0.12607E-03  4180   0.260E-02    0.751E-02
RMM:   4    -0.233112239275E+04    0.60461E-04   -0.12561E-04  2998   0.729E-03    0.321E-02
RMM:   5    -0.233112239442E+04   -0.16701E-05   -0.44259E-05  2960   0.495E-03
 170 F= -.23526213E+04 E0= -.23526213E+04  d E =-.315160E-03  mag=     2.0000
       N       E                     dE             d eps       ncg     rms          rms(c)
DAV:   1    -0.233112200601E+04    0.38673E-03   -0.46726E-02  4544   0.220E-01    0.628E-02
RMM:   2    -0.233112254062E+04   -0.53460E-03   -0.55555E-03  6393   0.501E-02    0.486E-02
RMM:   3    -0.233112258166E+04   -0.41039E-04   -0.57222E-04  3340   0.168E-02    0.556E-02
RMM:   4    -0.233112254096E+04    0.40695E-04   -0.54612E-05  2972   0.628E-03    0.180E-02
RMM:   5    -0.233112253556E+04    0.53971E-05   -0.25479E-05  2968   0.396E-03
 171 F= -.23526213E+04 E0= -.23526213E+04  d E =-.326913E-03  mag=     2.0000
       N       E                     dE             d eps       ncg     rms          rms(c)
DAV:   1    -0.233112143871E+04    0.11023E-02   -0.13513E-01  4528   0.380E-01    0.109E-01
RMM:   2    -0.233112311892E+04   -0.16802E-02   -0.17629E-02  6225   0.861E-02    0.734E-02
RMM:   3    -0.233112327294E+04   -0.15402E-03   -0.16566E-03  4697   0.306E-02    0.103E-01
RMM:   4    -0.233112315760E+04    0.11534E-03   -0.17155E-04  3037   0.843E-03    0.357E-02
RMM:   5    -0.233112315940E+04   -0.18001E-05   -0.57670E-05  3003   0.554E-03
 172 F= -.23526217E+04 E0= -.23526217E+04  d E =-.352028E-03  mag=     2.0000
       N       E                     dE             d eps       ncg     rms          rms(c)
DAV:   1    -0.233112294101E+04    0.21658E-03   -0.25610E-02  4712   0.166E-01    0.496E-02
RMM:   2    -0.233112327645E+04   -0.33543E-03   -0.34120E-03  6342   0.391E-02    0.461E-02
RMM:   3    -0.233112329285E+04   -0.16402E-04   -0.35638E-04  3121   0.136E-02    0.437E-02
RMM:   4    -0.233112326792E+04    0.24925E-04   -0.33942E-05  2956   0.518E-03    0.153E-02
RMM:   5    -0.233112326894E+04   -0.10189E-05   -0.17629E-05  2919   0.326E-03
 173 F= -.23526217E+04 E0= -.23526217E+04  d E =-.341960E-03  mag=     2.0000
       N       E                     dE             d eps       ncg     rms          rms(c)
DAV:   1    -0.233112187432E+04    0.13936E-02   -0.14645E-01  4528   0.395E-01    0.115E-01
RMM:   2    -0.233112382145E+04   -0.19471E-02   -0.20360E-02  6213   0.911E-02    0.783E-02
RMM:   3    -0.233112399719E+04   -0.17574E-03   -0.19572E-03  4847   0.326E-02    0.105E-01
RMM:   4    -0.233112387473E+04    0.12246E-03   -0.19411E-04  3039   0.863E-03    0.373E-02
RMM:   5    -0.233112387383E+04    0.89996E-06   -0.63056E-05  3006   0.593E-03
 174 F= -.23526220E+04 E0= -.23526220E+04  d E =-.288480E-03  mag=     2.0000
       N       E                     dE             d eps       ncg     rms          rms(c)
DAV:   1    -0.233112382007E+04    0.54651E-04   -0.76765E-03  5224   0.912E-02    0.312E-02
RMM:   2    -0.233112394278E+04   -0.12271E-03   -0.11099E-03  5874   0.224E-02    0.425E-02
RMM:   3    -0.233112393073E+04    0.12050E-04   -0.12865E-04  2951   0.867E-03    0.213E-02
RMM:   4    -0.233112392513E+04    0.55994E-05   -0.11618E-05  2949   0.322E-03
 175 F= -.23526219E+04 E0= -.23526219E+04  d E =-.266175E-03  mag=     2.0000
       N       E                     dE             d eps       ncg     rms          rms(c)
DAV:   1    -0.233112311370E+04    0.81703E-03   -0.10124E-01  4544   0.327E-01    0.101E-01
RMM:   2    -0.233112442713E+04   -0.13134E-02   -0.13456E-02  6181   0.747E-02    0.844E-02
RMM:   3    -0.233112453668E+04   -0.10955E-03   -0.13353E-03  4287   0.273E-02    0.104E-01
RMM:   4    -0.233112441784E+04    0.11884E-03   -0.13678E-04  3001   0.807E-03    0.296E-02
RMM:   5    -0.233112442118E+04   -0.33329E-05   -0.51038E-05  2996   0.531E-03
 176 F= -.23526222E+04 E0= -.23526222E+04  d E =-.244374E-03  mag=     2.0000
       N       E                     dE             d eps       ncg     rms          rms(c)
DAV:   1    -0.233112441279E+04    0.50591E-05   -0.71602E-04  5392   0.287E-02    0.149E-02
RMM:   2    -0.233112443334E+04   -0.20555E-04   -0.11741E-04  3495   0.731E-03    0.304E-02
RMM:   3    -0.233112442119E+04    0.12155E-04   -0.18767E-05  2734   0.459E-03    0.749E-03
RMM:   4    -0.233112442055E+04    0.63544E-06   -0.24388E-06  2454   0.140E-03
 177 F= -.23526222E+04 E0= -.23526222E+04  d E =-.222050E-03  mag=     2.0000
       N       E                     dE             d eps       ncg     rms          rms(c)
DAV:   1    -0.233112392928E+04    0.49191E-03   -0.72784E-02  4576   0.271E-01    0.866E-02
RMM:   2    -0.233112487390E+04   -0.94462E-03   -0.92815E-03  6124   0.608E-02    0.939E-02
RMM:   3    -0.233112489435E+04   -0.20458E-04   -0.92520E-04  3806   0.223E-02    0.831E-02
RMM:   4    -0.233112481866E+04    0.75693E-04   -0.93932E-05  2981   0.706E-03    0.260E-02
RMM:   5    -0.233112482211E+04   -0.34519E-05   -0.33913E-05  2938   0.436E-03
 178 F= -.23526224E+04 E0= -.23526224E+04  d E =-.201340E-03  mag=     2.0000
       N       E                     dE             d eps       ncg     rms          rms(c)
DAV:   1    -0.233112481615E+04    0.25159E-05   -0.18815E-03  5384   0.443E-02    0.163E-02
RMM:   2    -0.233112484330E+04   -0.27160E-04   -0.25938E-04  4325   0.107E-02    0.191E-02
RMM:   3    -0.233112484162E+04    0.16850E-05   -0.30606E-05  2834   0.547E-03
 179 F= -.23526223E+04 E0= -.23526223E+04  d E =-.187475E-03  mag=     2.0000
       N       E                     dE             d eps       ncg     rms          rms(c)
DAV:   1    -0.233112442925E+04    0.41406E-03   -0.71128E-02  4576   0.271E-01    0.847E-02
RMM:   2    -0.233112521623E+04   -0.78699E-03   -0.80737E-03  6126   0.590E-02    0.674E-02
RMM:   3    -0.233112528816E+04   -0.71923E-04   -0.80128E-04  3752   0.220E-02    0.854E-02
RMM:   4    -0.233112520664E+04    0.81520E-04   -0.86479E-05  2971   0.704E-03    0.263E-02
RMM:   5    -0.233112521041E+04   -0.37724E-05   -0.34863E-05  2965   0.446E-03
 180 F= -.23526225E+04 E0= -.23526225E+04  d E =-.191768E-03  mag=     2.0000
       N       E                     dE             d eps       ncg     rms          rms(c)
DAV:   1    -0.233112519775E+04    0.88870E-05   -0.30509E-03  5392   0.567E-02    0.198E-02
RMM:   2    -0.233112523607E+04   -0.38325E-04   -0.36506E-04  4790   0.133E-02    0.227E-02
RMM:   3    -0.233112523462E+04    0.14582E-05   -0.45720E-05  2906   0.637E-03
 181 F= -.23526225E+04 E0= -.23526225E+04  d E =-.178284E-03  mag=     2.0000
       N       E                     dE             d eps       ncg     rms          rms(c)
DAV:   1    -0.233112477732E+04    0.45876E-03   -0.67390E-02  4544   0.262E-01    0.795E-02
RMM:   2    -0.233112555486E+04   -0.77755E-03   -0.80957E-03  6203   0.582E-02    0.539E-02
RMM:   3    -0.233112561874E+04   -0.63875E-04   -0.75609E-04  3728   0.210E-02    0.658E-02
RMM:   4    -0.233112556323E+04    0.55510E-04   -0.83327E-05  2986   0.691E-03    0.280E-02
RMM:   5    -0.233112556487E+04   -0.16430E-05   -0.32429E-05  2938   0.418E-03
 182 F= -.23526227E+04 E0= -.23526227E+04  d E =-.168603E-03  mag=     2.0000
       N       E                     dE             d eps       ncg     rms          rms(c)
DAV:   1    -0.233112554397E+04    0.19262E-04   -0.40502E-03  5304   0.647E-02    0.224E-02
RMM:   2    -0.233112559902E+04   -0.55048E-04   -0.50901E-04  5261   0.153E-02    0.289E-02
RMM:   3    -0.233112559418E+04    0.48362E-05   -0.60244E-05  2929   0.664E-03
 183 F= -.23526227E+04 E0= -.23526227E+04  d E =-.157346E-03  mag=     2.0000
       N       E                     dE             d eps       ncg     rms          rms(c)
DAV:   1    -0.233112527904E+04    0.31998E-03   -0.46742E-02  4544   0.217E-01    0.665E-02
RMM:   2    -0.233112590450E+04   -0.62547E-03   -0.62238E-03  6291   0.498E-02    0.661E-02
RMM:   3    -0.233112593138E+04   -0.26881E-04   -0.60264E-04  3348   0.173E-02    0.616E-02
RMM:   4    -0.233112588982E+04    0.41566E-04   -0.64667E-05  2979   0.590E-03    0.253E-02
RMM:   5    -0.233112588934E+04    0.47509E-06   -0.19267E-05  2933   0.323E-03
 184 F= -.23526228E+04 E0= -.23526228E+04  d E =-.159080E-03  mag=     2.0000
       N       E                     dE             d eps       ncg     rms          rms(c)
DAV:   1    -0.233112553904E+04    0.35078E-03   -0.38098E-02  4544   0.196E-01    0.591E-02
RMM:   2    -0.233112602569E+04   -0.48665E-03   -0.50428E-03  6302   0.449E-02    0.426E-02
RMM:   3    -0.233112606612E+04   -0.40434E-04   -0.48780E-04  3226   0.157E-02    0.501E-02
RMM:   4    -0.233112603366E+04    0.32461E-04   -0.51339E-05  2965   0.559E-03    0.196E-02
RMM:   5    -0.233112603519E+04   -0.15345E-05   -0.18793E-05  2917   0.304E-03
 185 F= -.23526229E+04 E0= -.23526229E+04  d E =-.181075E-03  mag=     2.0000
       N       E                     dE             d eps       ncg     rms          rms(c)
DAV:   1    -0.233112571624E+04    0.31742E-03   -0.43203E-02  4576   0.207E-01    0.627E-02
RMM:   2    -0.233112630363E+04   -0.58738E-03   -0.60381E-03  6307   0.484E-02    0.475E-02
RMM:   3    -0.233112634573E+04   -0.42109E-04   -0.57067E-04  3312   0.169E-02    0.513E-02
RMM:   4    -0.233112630973E+04    0.36001E-04   -0.58992E-05  2985   0.586E-03    0.185E-02
RMM:   5    -0.233112630913E+04    0.60536E-06   -0.20155E-05  2916   0.351E-03
 186 F= -.23526230E+04 E0= -.23526230E+04  d E =-.145014E-03  mag=     2.0000
       N       E                     dE             d eps       ncg     rms          rms(c)
DAV:   1    -0.233112595231E+04    0.35743E-03   -0.37107E-02  4576   0.192E-01    0.581E-02
RMM:   2    -0.233112644894E+04   -0.49663E-03   -0.51717E-03  6353   0.450E-02    0.400E-02
RMM:   3    -0.233112649325E+04   -0.44310E-04   -0.53214E-04  3225   0.164E-02    0.503E-02
RMM:   4    -0.233112646465E+04    0.28599E-04   -0.53228E-05  2977   0.553E-03    0.186E-02
RMM:   5    -0.233112646791E+04   -0.32617E-05   -0.15090E-05  2930   0.271E-03
 187 F= -.23526230E+04 E0= -.23526230E+04  d E =-.184254E-03  mag=     2.0000
       N       E                     dE             d eps       ncg     rms          rms(c)
DAV:   1    -0.233112627628E+04    0.18837E-03   -0.40064E-02  4576   0.202E-01    0.642E-02
RMM:   2    -0.233112678033E+04   -0.50405E-03   -0.51229E-03  6225   0.462E-02    0.563E-02
RMM:   3    -0.233112682383E+04   -0.43506E-04   -0.53774E-04  3348   0.172E-02    0.668E-02
RMM:   4    -0.233112677466E+04    0.49169E-04   -0.54838E-05  2955   0.582E-03    0.203E-02
RMM:   5    -0.233112677786E+04   -0.31927E-05   -0.21315E-05  2936   0.338E-03
 188 F= -.23526232E+04 E0= -.23526232E+04  d E =-.173448E-03  mag=     2.0000
       N       E                     dE             d eps       ncg     rms          rms(c)
DAV:   1    -0.233112669226E+04    0.82405E-04   -0.14340E-02  4640   0.121E-01    0.386E-02
RMM:   2    -0.233112687246E+04   -0.18020E-03   -0.18606E-03  6150   0.284E-02    0.303E-02
RMM:   3    -0.233112689047E+04   -0.18003E-04   -0.18753E-04  2994   0.105E-02    0.388E-02
RMM:   4    -0.233112687306E+04    0.17404E-04   -0.20225E-05  2938   0.384E-03    0.119E-02
RMM:   5    -0.233112687394E+04   -0.88180E-06   -0.88298E-06  2853   0.221E-03
 189 F= -.23526232E+04 E0= -.23526232E+04  d E =-.187153E-03  mag=     2.0000
       N       E                     dE             d eps       ncg     rms          rms(c)
DAV:   1    -0.233112671891E+04    0.15415E-03   -0.37005E-02  4544   0.191E-01    0.616E-02
RMM:   2    -0.233112718053E+04   -0.46162E-03   -0.46218E-03  6191   0.436E-02    0.590E-02
RMM:   3    -0.233112720531E+04   -0.24773E-04   -0.44428E-04  3253   0.157E-02    0.604E-02
RMM:   4    -0.233112716412E+04    0.41189E-04   -0.47405E-05  2957   0.548E-03    0.179E-02
RMM:   5    -0.233112716653E+04   -0.24105E-05   -0.18237E-05  2905   0.325E-03
 190 F= -.23526234E+04 E0= -.23526234E+04  d E =-.150635E-03  mag=     2.0000
       N       E                     dE             d eps       ncg     rms          rms(c)
DAV:   1    -0.233112708981E+04    0.74309E-04   -0.14395E-02  4592   0.120E-01    0.388E-02
RMM:   2    -0.233112726861E+04   -0.17880E-03   -0.18052E-03  6120   0.279E-02    0.355E-02
RMM:   3    -0.233112728100E+04   -0.12392E-04   -0.18525E-04  2989   0.102E-02    0.380E-02
RMM:   4    -0.233112726421E+04    0.16788E-04   -0.19310E-05  2938   0.379E-03    0.120E-02
RMM:   5    -0.233112726508E+04   -0.86782E-06   -0.82769E-06  2838   0.213E-03
 191 F= -.23526234E+04 E0= -.23526234E+04  d E =-.159912E-03  mag=     2.0000
       N       E                     dE             d eps       ncg     rms          rms(c)
DAV:   1    -0.233112709971E+04    0.16450E-03   -0.36722E-02  4576   0.188E-01    0.577E-02
RMM:   2    -0.233112755935E+04   -0.45963E-03   -0.45766E-03  6203   0.427E-02    0.600E-02
RMM:   3    -0.233112757334E+04   -0.13993E-04   -0.42195E-04  3168   0.149E-02    0.543E-02
RMM:   4    -0.233112754074E+04    0.32596E-04   -0.44922E-05  2968   0.518E-03    0.179E-02
RMM:   5    -0.233112754218E+04   -0.14370E-05   -0.15742E-05  2873   0.302E-03
 192 F= -.23526235E+04 E0= -.23526235E+04  d E =-.150212E-03  mag=     2.0000
       N       E                     dE             d eps       ncg     rms          rms(c)
DAV:   1    -0.233112739198E+04    0.14876E-03   -0.22486E-02  4576   0.147E-01    0.457E-02
RMM:   2    -0.233112767428E+04   -0.28230E-03   -0.28015E-03  6205   0.339E-02    0.473E-02
RMM:   3    -0.233112768319E+04   -0.89092E-05   -0.27525E-04  3042   0.120E-02    0.423E-02
RMM:   4    -0.233112766264E+04    0.20546E-04   -0.28155E-05  2944   0.432E-03    0.150E-02
RMM:   5    -0.233112766340E+04   -0.76182E-06   -0.10733E-05  2843   0.238E-03
 193 F= -.23526236E+04 E0= -.23526236E+04  d E =-.171504E-03  mag=     2.0000
       N       E                     dE             d eps       ncg     rms          rms(c)
DAV:   1    -0.233112738576E+04    0.27688E-03   -0.49055E-02  4576   0.221E-01    0.696E-02
RMM:   2    -0.233112795463E+04   -0.56886E-03   -0.57909E-03  6187   0.496E-02    0.592E-02
RMM:   3    -0.233112799603E+04   -0.41405E-04   -0.55390E-04  3445   0.177E-02    0.679E-02
RMM:   4    -0.233112794308E+04    0.52957E-04   -0.60436E-05  2963   0.608E-03    0.218E-02
RMM:   5    -0.233112794439E+04   -0.13149E-05   -0.22479E-05  2900   0.364E-03
 194 F= -.23526237E+04 E0= -.23526237E+04  d E =-.161791E-03  mag=     2.0000
       N       E                     dE             d eps       ncg     rms          rms(c)
DAV:   1    -0.233112786658E+04    0.76499E-04   -0.12434E-02  4640   0.111E-01    0.362E-02
RMM:   2    -0.233112801678E+04   -0.15020E-03   -0.14872E-03  6074   0.258E-02    0.352E-02
RMM:   3    -0.233112802149E+04   -0.47080E-05   -0.15793E-04  2981   0.952E-03    0.311E-02
RMM:   4    -0.233112800910E+04    0.12384E-04   -0.16177E-05  2934   0.359E-03    0.123E-02
RMM:   5    -0.233112800922E+04   -0.11675E-06   -0.67077E-06  2784   0.192E-03
 195 F= -.23526237E+04 E0= -.23526237E+04  d E =-.165893E-03  mag=     2.0000
       N       E                     dE             d eps       ncg     rms          rms(c)
DAV:   1    -0.233112768176E+04    0.32735E-03   -0.48040E-02  4544   0.218E-01    0.667E-02
RMM:   2    -0.233112826767E+04   -0.58591E-03   -0.60242E-03  6144   0.498E-02    0.508E-02
RMM:   3    -0.233112830983E+04   -0.42159E-04   -0.55928E-04  3396   0.177E-02    0.585E-02
RMM:   4    -0.233112826687E+04    0.42953E-04   -0.60059E-05  2965   0.598E-03    0.220E-02
RMM:   5    -0.233112826864E+04   -0.17697E-05   -0.22334E-05  2904   0.348E-03
 196 F= -.23526239E+04 E0= -.23526239E+04  d E =-.148243E-03  mag=     2.0000
       N       E                     dE             d eps       ncg     rms          rms(c)
DAV:   1    -0.233112821914E+04    0.47731E-04   -0.74047E-03  4768   0.857E-02    0.282E-02
RMM:   2    -0.233112831627E+04   -0.97127E-04   -0.94871E-04  5826   0.204E-02    0.302E-02
RMM:   3    -0.233112831607E+04    0.19760E-06   -0.10491E-04  2950   0.793E-03    0.221E-02
RMM:   4    -0.233112831038E+04    0.56886E-05   -0.10591E-05  2919   0.292E-03
 197 F= -.23526239E+04 E0= -.23526239E+04  d E =-.145697E-03  mag=     2.0000
       N       E                     dE             d eps       ncg     rms          rms(c)
DAV:   1    -0.233112787990E+04    0.43618E-03   -0.55978E-02  4576   0.236E-01    0.741E-02
RMM:   2    -0.233112856191E+04   -0.68201E-03   -0.70975E-03  6236   0.543E-02    0.469E-02
RMM:   3    -0.233112861523E+04   -0.53317E-04   -0.67324E-04  3607   0.189E-02    0.574E-02
RMM:   4    -0.233112857066E+04    0.44565E-04   -0.71660E-05  2979   0.631E-03    0.214E-02
RMM:   5    -0.233112856988E+04    0.77879E-06   -0.29814E-05  2930   0.422E-03
 198 F= -.23526240E+04 E0= -.23526240E+04  d E =-.131558E-03  mag=     2.0000
       N       E                     dE             d eps       ncg     rms          rms(c)
DAV:   1    -0.233112855539E+04    0.15276E-04   -0.28193E-03  5304   0.538E-02    0.189E-02
RMM:   2    -0.233112859685E+04   -0.41467E-04   -0.37726E-04  4984   0.132E-02    0.272E-02
RMM:   3    -0.233112859385E+04    0.30086E-05   -0.49001E-05  2899   0.637E-03
 199 F= -.23526240E+04 E0= -.23526240E+04  d E =-.126183E-03  mag=     2.0000
       N       E                     dE             d eps       ncg     rms          rms(c)
DAV:   1    -0.233112814309E+04    0.45376E-03   -0.55710E-02  4576   0.235E-01    0.737E-02
RMM:   2    -0.233112888538E+04   -0.74228E-03   -0.74196E-03  6242   0.546E-02    0.680E-02
RMM:   3    -0.233112891753E+04   -0.32150E-04   -0.70609E-04  3555   0.192E-02    0.642E-02
RMM:   4    -0.233112886573E+04    0.51792E-04   -0.74174E-05  2972   0.644E-03    0.266E-02
RMM:   5    -0.233112886646E+04   -0.72517E-06   -0.24139E-05  2930   0.365E-03
 200 F= -.23526241E+04 E0= -.23526241E+04  d E =-.140859E-03  mag=     2.0000
       N       E                     dE             d eps       ncg     rms          rms(c)
DAV:   1    -0.233112884187E+04    0.23863E-04   -0.38553E-03  5088   0.622E-02    0.211E-02
RMM:   2    -0.233112889542E+04   -0.53547E-04   -0.52921E-04  5218   0.152E-02    0.226E-02
RMM:   3    -0.233112889542E+04    0.19645E-08   -0.63412E-05  2922   0.656E-03
 201 F= -.23526241E+04 E0= -.23526241E+04  d E =-.134179E-03  mag=     2.0000
