       N       E                     dE             d eps       ncg     rms          rms(c)
DAV:   1     0.131741823942E+05    0.13174E+05   -0.84447E+05  4536   0.145E+03
DAV:   2    -0.992712913956E+03   -0.14167E+05   -0.13521E+05  4944   0.332E+02
DAV:   3    -0.247578164667E+04   -0.14831E+04   -0.14640E+04  5528   0.116E+02
DAV:   4    -0.252388885948E+04   -0.48107E+02   -0.47848E+02  6760   0.302E+01
DAV:   5    -0.252471565478E+04   -0.82680E+00   -0.82505E+00  6344   0.349E+00    0.170E+02
RMM:   6    -0.149387081423E+04    0.10308E+04   -0.19464E+03  4472   0.383E+01    0.728E+01
RMM:   7    -0.166233706009E+04   -0.16847E+03   -0.30248E+02  5121   0.146E+01    0.495E+01
RMM:   8    -0.171106366716E+04   -0.48727E+02   -0.46451E+01  5419   0.721E+00    0.409E+01
RMM:   9    -0.180727349514E+04   -0.96210E+02   -0.73183E+01  5004   0.796E+00    0.373E+01
RMM:  10    -0.191768732891E+04   -0.11041E+03   -0.60675E+01  5260   0.767E+00    0.299E+01
RMM:  11    -0.197801536196E+04   -0.60328E+02   -0.27192E+01  5501   0.457E+00    0.202E+01
RMM:  12    -0.206115038288E+04   -0.83135E+02   -0.32784E+01  4787   0.438E+00    0.155E+01
RMM:  13    -0.212509322656E+04   -0.63943E+02   -0.26925E+01  4999   0.411E+00    0.141E+01
RMM:  14    -0.219387896182E+04   -0.68786E+02   -0.36865E+01  5042   0.482E+00    0.125E+01
RMM:  15    -0.227320713885E+04   -0.79328E+02   -0.65321E+01  4503   0.577E+00    0.708E+00
RMM:  16    -0.230047946711E+04   -0.27272E+02   -0.25586E+01  4547   0.398E+00    0.570E+00
RMM:  17    -0.230978046988E+04   -0.93010E+01   -0.10039E+01  4715   0.219E+00    0.295E+00
RMM:  18    -0.231374131543E+04   -0.39608E+01   -0.32437E+00  5083   0.132E+00    0.213E+00
RMM:  19    -0.231463297440E+04   -0.89166E+00   -0.11486E+00  5150   0.614E-01    0.120E+00
RMM:  20    -0.231507736332E+04   -0.44439E+00   -0.52204E-01  4822   0.381E-01    0.102E+00
RMM:  21    -0.231522292158E+04   -0.14556E+00   -0.13750E-01  4865   0.238E-01    0.604E-01
RMM:  22    -0.231532125502E+04   -0.98333E-01   -0.56758E-02  4764   0.136E-01    0.522E-01
RMM:  23    -0.231537991905E+04   -0.58664E-01   -0.26633E-02  4576   0.109E-01    0.705E-01
RMM:  24    -0.231538259908E+04   -0.26800E-02   -0.39920E-03  4905   0.512E-02    0.690E-01
RMM:  25    -0.231539200404E+04   -0.94050E-02   -0.52574E-03  4568   0.390E-02    0.126E+00
RMM:  26    -0.231540462192E+04   -0.12618E-01   -0.15580E-02  4716   0.581E-02    0.187E-01
RMM:  27    -0.231542012782E+04   -0.15506E-01   -0.42192E-03  4474   0.460E-02    0.390E-01
RMM:  28    -0.231543119596E+04   -0.11068E-01   -0.46175E-03  4777   0.396E-02    0.241E-01
RMM:  29    -0.231544143399E+04   -0.10238E-01   -0.39902E-03  4482   0.387E-02    0.306E-01
RMM:  30    -0.231544588291E+04   -0.44489E-02   -0.50765E-03  4677   0.437E-02    0.474E-01
RMM:  31    -0.231544473924E+04    0.11437E-02   -0.13146E-03  4425   0.250E-02    0.574E-01
RMM:  32    -0.231545021458E+04   -0.54753E-02   -0.33137E-03  4300   0.268E-02    0.379E-01
RMM:  33    -0.231545257055E+04   -0.23560E-02   -0.15938E-03  4192   0.231E-02    0.300E-01
RMM:  34    -0.231545565562E+04   -0.30851E-02   -0.40061E-03  4891   0.297E-02    0.348E-01
RMM:  35    -0.231545808685E+04   -0.24312E-02   -0.32227E-03  4601   0.276E-02    0.530E-01
RMM:  36    -0.231545672818E+04    0.13587E-02   -0.62383E-04  3989   0.121E-02    0.304E-01
RMM:  37    -0.231545574669E+04    0.98149E-03   -0.14068E-03  4336   0.169E-02    0.277E-01
RMM:  38    -0.231545497088E+04    0.77581E-03   -0.13847E-03  4269   0.180E-02    0.283E-01
RMM:  39    -0.231545419962E+04    0.77126E-03   -0.10883E-03  4326   0.156E-02    0.326E-01
RMM:  40    -0.231545308423E+04    0.11154E-02   -0.10786E-03  4286   0.158E-02    0.408E-01
RMM:  41    -0.231545265022E+04    0.43402E-03   -0.28332E-04  3290   0.881E-03    0.446E-01
RMM:  42    -0.231545304687E+04   -0.39666E-03   -0.46042E-05  2851   0.455E-03    0.420E-01
RMM:  43    -0.231545496820E+04   -0.19213E-02   -0.21537E-03  4413   0.201E-02    0.320E-01
RMM:  44    -0.231545667780E+04   -0.17096E-02   -0.31248E-03  4573   0.260E-02    0.357E-01
RMM:  45    -0.231545894167E+04   -0.22639E-02   -0.35690E-03  4976   0.264E-02    0.552E-01
RMM:  46    -0.231545972642E+04   -0.78475E-03   -0.83202E-04  3996   0.135E-02    0.586E-01
RMM:  47    -0.231545981233E+04   -0.85912E-04   -0.11200E-04  3033   0.506E-03    0.579E-01
RMM:  48    -0.231545957879E+04    0.23354E-03   -0.14661E-05  2710   0.331E-03    0.554E-01
RMM:  49    -0.231545843088E+04    0.11479E-02   -0.46137E-04  3640   0.917E-03    0.432E-01
RMM:  50    -0.231545655120E+04    0.18797E-02   -0.25003E-03  4540   0.217E-02    0.278E-01
RMM:  51    -0.231545524529E+04    0.13059E-02   -0.21728E-03  4446   0.213E-02    0.284E-01
RMM:  52    -0.231545452067E+04    0.72461E-03   -0.93163E-04  4179   0.135E-02    0.319E-01
RMM:  53    -0.231545359675E+04    0.92393E-03   -0.72881E-04  4130   0.128E-02    0.379E-01
RMM:  54    -0.231545265054E+04    0.94621E-03   -0.59156E-04  3883   0.119E-02    0.452E-01
RMM:  55    -0.231545226779E+04    0.38274E-03   -0.18102E-04  3076   0.704E-03    0.483E-01
RMM:  56    -0.231545244926E+04   -0.18147E-03   -0.14149E-05  2799   0.353E-03    0.469E-01
RMM:  57    -0.231545239128E+04    0.57981E-04   -0.34529E-06  2603   0.161E-03    0.473E-01
RMM:  58    -0.231545237318E+04    0.18101E-04   -0.10927E-06  2470   0.145E-03    0.475E-01
RMM:  59    -0.231545237173E+04    0.14481E-05   -0.34461E-07  1890   0.786E-04
   1 F= -.23368175E+04 E0= -.23368153E+04  d E =-.233682E+04  mag=     5.1356
       N       E                     dE             d eps       ncg     rms          rms(c)
DAV:   1    -0.231480554748E+04    0.64683E+00   -0.14771E+02  4632   0.100E+01    0.340E+00
RMM:   2    -0.231668185707E+04   -0.18763E+01   -0.20472E+01  6665   0.264E+00    0.215E+00
RMM:   3    -0.231677110083E+04   -0.89244E-01   -0.21566E+00  6397   0.872E-01    0.170E+00
RMM:   4    -0.231676409748E+04    0.70033E-02   -0.18509E-01  6713   0.207E-01    0.132E+00
RMM:   5    -0.231675030543E+04    0.13792E-01   -0.45001E-02  6220   0.961E-02    0.954E-01
RMM:   6    -0.231674056414E+04    0.97413E-02   -0.20446E-02  6008   0.745E-02    0.493E-01
RMM:   7    -0.231673988329E+04    0.68085E-03   -0.97555E-03  5852   0.536E-02    0.365E-01
RMM:   8    -0.231673869737E+04    0.11859E-02   -0.28976E-03  5330   0.280E-02    0.177E-01
RMM:   9    -0.231673868361E+04    0.13757E-04   -0.94841E-04  4139   0.192E-02    0.129E-01
RMM:  10    -0.231673871932E+04   -0.35710E-04   -0.37485E-04  4479   0.967E-03    0.504E-02
RMM:  11    -0.231673896938E+04   -0.25006E-03   -0.22607E-04  3719   0.945E-03    0.196E-02
RMM:  12    -0.231673909053E+04   -0.12115E-03   -0.40448E-05  3118   0.490E-03    0.118E-02
RMM:  13    -0.231673917579E+04   -0.85255E-04   -0.20549E-05  2955   0.423E-03    0.764E-03
RMM:  14    -0.231673925592E+04   -0.80134E-04   -0.20606E-05  2971   0.351E-03    0.468E-03
RMM:  15    -0.231673928906E+04   -0.33140E-04   -0.10441E-05  2859   0.331E-03    0.327E-03
RMM:  16    -0.231673930137E+04   -0.12309E-04   -0.57869E-06  2701   0.254E-03    0.188E-03
RMM:  17    -0.231673930473E+04   -0.33615E-05   -0.25552E-06  2558   0.213E-03
   2 F= -.23381110E+04 E0= -.23381103E+04  d E =-.129349E+01  mag=     4.9887
       N       E                     dE             d eps       ncg     rms          rms(c)
DAV:   1    -0.231668638553E+04    0.52916E-01   -0.71355E+00  4736   0.213E+00    0.699E-01
RMM:   2    -0.231676604036E+04   -0.79655E-01   -0.86101E-01  6654   0.521E-01    0.490E-01
RMM:   3    -0.231677085212E+04   -0.48118E-02   -0.93609E-02  6182   0.179E-01    0.417E-01
RMM:   4    -0.231676953459E+04    0.13175E-02   -0.82890E-03  6172   0.418E-02    0.261E-01
RMM:   5    -0.231676922630E+04    0.30828E-03   -0.18326E-03  5223   0.201E-02    0.233E-01
RMM:   6    -0.231676888998E+04    0.33632E-03   -0.15717E-03  5024   0.192E-02    0.168E-01
RMM:   7    -0.231676853276E+04    0.35722E-03   -0.51746E-04  4476   0.124E-02    0.735E-02
RMM:   8    -0.231676850357E+04    0.29190E-04   -0.15775E-04  3124   0.815E-03    0.498E-02
RMM:   9    -0.231676848077E+04    0.22808E-04   -0.40210E-05  3004   0.515E-03    0.142E-02
RMM:  10    -0.231676847810E+04    0.26701E-05   -0.18358E-05  2925   0.341E-03
   3 F= -.23381418E+04 E0= -.23381415E+04  d E =-.132434E+01  mag=     4.9914
       N       E                     dE             d eps       ncg     rms          rms(c)
DAV:   1    -0.231681397582E+04   -0.45495E-01   -0.10731E+02  4528   0.801E+00    0.199E+00
RMM:   2    -0.231736846217E+04   -0.55449E+00   -0.59179E+00  6521   0.161E+00    0.206E+00
RMM:   3    -0.231737326163E+04   -0.47995E-02   -0.57667E-01  6184   0.546E-01    0.157E+00
RMM:   4    -0.231735722659E+04    0.16035E-01   -0.65247E-02  6479   0.140E-01    0.114E+00
RMM:   5    -0.231735112465E+04    0.61019E-02   -0.28443E-02  5284   0.877E-02    0.968E-01
RMM:   6    -0.231734260571E+04    0.85189E-02   -0.29778E-02  6096   0.952E-02    0.641E-01
RMM:   7    -0.231733766966E+04    0.49360E-02   -0.10368E-02  5364   0.644E-02    0.247E-01
RMM:   8    -0.231733745207E+04    0.21759E-03   -0.24741E-03  5024   0.317E-02    0.194E-01
RMM:   9    -0.231733707042E+04    0.38165E-03   -0.66772E-04  4649   0.145E-02    0.688E-02
RMM:  10    -0.231733703158E+04    0.38835E-04   -0.31073E-04  4062   0.108E-02    0.253E-02
RMM:  11    -0.231733703697E+04   -0.53832E-05   -0.34099E-05  3042   0.609E-03
   4 F= -.23387152E+04 E0= -.23387133E+04  d E =-.573324E+00  mag=     4.9614
       N       E                     dE             d eps       ncg     rms          rms(c)
DAV:   1    -0.231733681339E+04    0.21819E-03   -0.22933E+00  4896   0.125E+00    0.294E-01
RMM:   2    -0.231734749294E+04   -0.10680E-01   -0.11531E-01  6506   0.222E-01    0.287E-01
RMM:   3    -0.231734725560E+04    0.23734E-03   -0.96344E-03  5830   0.742E-02    0.209E-01
RMM:   4    -0.231734699764E+04    0.25796E-03   -0.14071E-03  4620   0.205E-02    0.166E-01
RMM:   5    -0.231734691553E+04    0.82111E-04   -0.76418E-04  4534   0.158E-02    0.159E-01
RMM:   6    -0.231734668397E+04    0.23156E-03   -0.63771E-04  4500   0.149E-02    0.934E-02
RMM:   7    -0.231734662545E+04    0.58522E-04   -0.19959E-04  3567   0.950E-03    0.591E-02
RMM:   8    -0.231734659556E+04    0.29889E-04   -0.50024E-05  2921   0.600E-03    0.191E-02
RMM:   9    -0.231734659691E+04   -0.13518E-05   -0.15608E-05  2906   0.307E-03
   5 F= -.23387254E+04 E0= -.23387231E+04  d E =-.583590E+00  mag=     4.9475
       N       E                     dE             d eps       ncg     rms          rms(c)
DAV:   1    -0.231756558865E+04   -0.21899E+00   -0.57609E+01  4504   0.614E+00    0.132E+00
RMM:   2    -0.231776645335E+04   -0.20086E+00   -0.21626E+00  5914   0.959E-01    0.101E+00
RMM:   3    -0.231776925716E+04   -0.28038E-02   -0.18162E-01  5638   0.388E-01    0.109E+00
RMM:   4    -0.231776124049E+04    0.80167E-02   -0.25450E-02  6070   0.884E-02    0.687E-01
RMM:   5    -0.231775760090E+04    0.36396E-02   -0.15615E-02  4895   0.729E-02    0.529E-01
RMM:   6    -0.231775444948E+04    0.31514E-02   -0.89203E-03  6061   0.568E-02    0.255E-01
RMM:   7    -0.231775375908E+04    0.69040E-03   -0.11105E-03  5280   0.209E-02    0.955E-02
RMM:   8    -0.231775387987E+04   -0.12080E-03   -0.36340E-04  3834   0.117E-02    0.911E-02
RMM:   9    -0.231775393581E+04   -0.55939E-04   -0.14620E-04  3202   0.803E-03    0.609E-02
RMM:  10    -0.231775410443E+04   -0.16862E-03   -0.11374E-04  3364   0.720E-03    0.820E-02
RMM:  11    -0.231775414290E+04   -0.38469E-04   -0.22761E-05  2961   0.492E-03    0.851E-02
RMM:  12    -0.231775405970E+04    0.83207E-04   -0.57744E-05  2855   0.390E-03    0.724E-02
RMM:  13    -0.231775403442E+04    0.25281E-04   -0.12848E-04  2938   0.525E-03    0.325E-02
RMM:  14    -0.231775413789E+04   -0.10348E-03   -0.10820E-04  2982   0.517E-03    0.304E-02
RMM:  15    -0.231775428762E+04   -0.14973E-03   -0.22964E-04  3356   0.692E-03    0.394E-02
RMM:  16    -0.231775430271E+04   -0.15083E-04   -0.48254E-05  2863   0.464E-03    0.463E-02
RMM:  17    -0.231775431789E+04   -0.15183E-04   -0.13172E-05  2600   0.242E-03    0.452E-02
RMM:  18    -0.231775446115E+04   -0.14326E-03   -0.76179E-05  2989   0.429E-03    0.324E-02
RMM:  19    -0.231775464624E+04   -0.18509E-03   -0.33431E-04  3524   0.774E-03    0.476E-02
RMM:  20    -0.231775470483E+04   -0.58587E-04   -0.15747E-04  2982   0.645E-03    0.605E-02
RMM:  21    -0.231775465164E+04    0.53191E-04   -0.28572E-04  3094   0.765E-03    0.233E-02
RMM:  22    -0.231775461643E+04    0.35207E-04   -0.41088E-04  3667   0.903E-03    0.407E-02
RMM:  23    -0.231775453870E+04    0.77728E-04   -0.35311E-04  3252   0.870E-03    0.693E-02
RMM:  24    -0.231775448847E+04    0.50230E-04   -0.95208E-05  2916   0.534E-03    0.858E-02
RMM:  25    -0.231775459581E+04   -0.10734E-03   -0.11815E-04  2807   0.535E-03    0.625E-02
RMM:  26    -0.231775467963E+04   -0.83817E-04   -0.25024E-04  3250   0.696E-03    0.443E-02
RMM:  27    -0.231775474914E+04   -0.69513E-04   -0.31706E-04  3245   0.752E-03    0.449E-02
RMM:  28    -0.231775484006E+04   -0.90913E-04   -0.36281E-04  3325   0.832E-03    0.670E-02
RMM:  29    -0.231775494495E+04   -0.10490E-03   -0.26057E-04  3149   0.757E-03    0.962E-02
RMM:  30    -0.231775489824E+04    0.46709E-04   -0.19288E-05  2787   0.399E-03    0.694E-02
RMM:  31    -0.231775486552E+04    0.32727E-04   -0.15074E-05  2470   0.201E-03    0.639E-02
RMM:  32    -0.231775484124E+04    0.24273E-04   -0.14306E-05  2568   0.194E-03    0.577E-02
RMM:  33    -0.231775479230E+04    0.48945E-04   -0.81875E-05  2863   0.392E-03    0.418E-02
RMM:  34    -0.231775473361E+04    0.58684E-04   -0.21646E-04  3170   0.603E-03    0.314E-02
RMM:  35    -0.231775470876E+04    0.24853E-04   -0.65071E-05  2782   0.388E-03    0.370E-02
RMM:  36    -0.231775469583E+04    0.12931E-04   -0.27917E-05  2756   0.272E-03    0.385E-02
RMM:  37    -0.231775468436E+04    0.11471E-04   -0.12784E-05  2693   0.230E-03    0.403E-02
RMM:  38    -0.231775468145E+04    0.29079E-05   -0.26177E-06  2481   0.157E-03
   6 F= -.23391361E+04 E0= -.23391310E+04  d E =-.410681E+00  mag=     4.8616
       N       E                     dE             d eps       ncg     rms          rms(c)
DAV:   1    -0.231776887837E+04   -0.14194E-01   -0.22191E+01  4504   0.371E+00    0.806E-01
RMM:   2    -0.231783672529E+04   -0.67847E-01   -0.73999E-01  5981   0.550E-01    0.609E-01
RMM:   3    -0.231783723530E+04   -0.51001E-03   -0.62338E-02  5643   0.206E-01    0.585E-01
RMM:   4    -0.231783632487E+04    0.91043E-03   -0.92535E-03  5792   0.485E-02    0.586E-01
RMM:   5    -0.231783511355E+04    0.12113E-02   -0.34931E-03  4910   0.316E-02    0.532E-01
RMM:   6    -0.231783493281E+04    0.18074E-03   -0.87756E-04  4551   0.171E-02    0.666E-01
RMM:   7    -0.231783394178E+04    0.99103E-03   -0.42823E-03  5565   0.314E-02    0.442E-01
RMM:   8    -0.231783340932E+04    0.53246E-03   -0.29147E-03  4681   0.272E-02    0.250E-01
RMM:   9    -0.231783272940E+04    0.67993E-03   -0.10547E-03  4671   0.186E-02    0.184E-01
RMM:  10    -0.231783269610E+04    0.33295E-04   -0.54826E-04  3982   0.105E-02    0.138E-01
RMM:  11    -0.231783259017E+04    0.10593E-03   -0.24933E-04  3559   0.926E-03    0.139E-01
RMM:  12    -0.231783239193E+04    0.19824E-03   -0.19264E-04  3508   0.768E-03    0.148E-01
RMM:  13    -0.231783226635E+04    0.12559E-03   -0.77193E-05  2965   0.581E-03    0.156E-01
RMM:  14    -0.231783270834E+04   -0.44199E-03   -0.41251E-04  3404   0.907E-03    0.162E-01
RMM:  15    -0.231783294659E+04   -0.23825E-03   -0.53632E-04  3844   0.106E-02    0.169E-01
RMM:  16    -0.231783266291E+04    0.28367E-03   -0.34474E-04  3557   0.861E-03    0.126E-01
RMM:  17    -0.231783224035E+04    0.42257E-03   -0.83189E-04  4083   0.128E-02    0.165E-01
RMM:  18    -0.231783171481E+04    0.52554E-03   -0.90703E-04  3904   0.136E-02    0.243E-01
RMM:  19    -0.231783287386E+04   -0.11590E-02   -0.28451E-03  4390   0.223E-02    0.167E-01
RMM:  20    -0.231783364605E+04   -0.77220E-03   -0.24932E-03  4366   0.231E-02    0.250E-01
RMM:  21    -0.231783585625E+04   -0.22102E-02   -0.36439E-03  4910   0.248E-02    0.561E-01
RMM:  22    -0.231783463497E+04    0.12213E-02   -0.36454E-04  3473   0.109E-02    0.286E-01
RMM:  23    -0.231783339494E+04    0.12400E-02   -0.16877E-03  4296   0.171E-02    0.136E-01
RMM:  24    -0.231783291456E+04    0.48038E-03   -0.93221E-04  3869   0.149E-02    0.127E-01
RMM:  25    -0.231783262898E+04    0.28559E-03   -0.83211E-04  4209   0.120E-02    0.131E-01
RMM:  26    -0.231783241791E+04    0.21107E-03   -0.29221E-04  3312   0.860E-03    0.148E-01
RMM:  27    -0.231783234809E+04    0.69823E-04   -0.66812E-05  2946   0.465E-03    0.154E-01
RMM:  28    -0.231783230005E+04    0.48036E-04   -0.15076E-05  2786   0.319E-03    0.156E-01
RMM:  29    -0.231783221479E+04    0.85264E-04   -0.22670E-05  2820   0.295E-03    0.164E-01
RMM:  30    -0.231783207772E+04    0.13707E-03   -0.48630E-05  2876   0.377E-03    0.180E-01
RMM:  31    -0.231783198480E+04    0.92921E-04   -0.30196E-05  2760   0.301E-03    0.193E-01
RMM:  32    -0.231783193133E+04    0.53472E-04   -0.11650E-05  2677   0.231E-03    0.200E-01
RMM:  33    -0.231783194393E+04   -0.12603E-04   -0.10345E-06  2317   0.129E-03    0.199E-01
RMM:  34    -0.231783198572E+04   -0.41787E-04   -0.27809E-06  2000   0.104E-03    0.193E-01
RMM:  35    -0.231783220701E+04   -0.22129E-03   -0.10198E-04  2804   0.435E-03    0.165E-01
RMM:  36    -0.231783266154E+04   -0.45453E-03   -0.71413E-04  3936   0.109E-02    0.129E-01
RMM:  37    -0.231783304132E+04   -0.37978E-03   -0.79223E-04  3722   0.124E-02    0.143E-01
RMM:  38    -0.231783312852E+04   -0.87200E-04   -0.16058E-04  3012   0.568E-03    0.143E-01
RMM:  39    -0.231783313400E+04   -0.54800E-05   -0.16661E-05  2719   0.287E-03
   7 F= -.23392163E+04 E0= -.23392089E+04  d E =-.490817E+00  mag=     4.7923
       N       E                     dE             d eps       ncg     rms          rms(c)
DAV:   1    -0.231787029003E+04   -0.37162E-01   -0.17476E+01  4504   0.346E+00    0.116E+00
RMM:   2    -0.231799653008E+04   -0.12624E+00   -0.11939E+00  6556   0.704E-01    0.162E+00
RMM:   3    -0.231800434337E+04   -0.78133E-02   -0.11507E-01  6225   0.217E-01    0.201E+00
RMM:   4    -0.231800376019E+04    0.58318E-03   -0.31421E-02  5815   0.747E-02    0.167E+00
RMM:   5    -0.231798915199E+04    0.14608E-01   -0.23017E-02  5500   0.606E-02    0.918E-01
RMM:   6    -0.231798073003E+04    0.84220E-02   -0.80653E-03  5540   0.426E-02    0.626E-01
RMM:   7    -0.231797609393E+04    0.46361E-02   -0.74672E-03  5696   0.457E-02    0.578E-01
RMM:   8    -0.231796967379E+04    0.64201E-02   -0.75193E-03  4695   0.425E-02    0.706E-01
RMM:   9    -0.231796479879E+04    0.48750E-02   -0.18422E-03  4227   0.318E-02    0.800E-01
RMM:  10    -0.231796162112E+04    0.31777E-02   -0.10109E-03  4618   0.149E-02    0.937E-01
RMM:  11    -0.231797461543E+04   -0.12994E-01   -0.92977E-03  4550   0.439E-02    0.565E-01
RMM:  12    -0.231797854639E+04   -0.39310E-02   -0.60319E-03  4545   0.387E-02    0.502E-01
RMM:  13    -0.231798904140E+04   -0.10495E-01   -0.13678E-02  5183   0.495E-02    0.129E+00
RMM:  14    -0.231798481226E+04    0.42291E-02   -0.10921E-03  4164   0.218E-02    0.744E-01
RMM:  15    -0.231798331419E+04    0.14981E-02   -0.51976E-04  3707   0.107E-02    0.790E-01
RMM:  16    -0.231797968738E+04    0.36268E-02   -0.26025E-03  4512   0.219E-02    0.512E-01
RMM:  17    -0.231797781204E+04    0.18753E-02   -0.13116E-03  4099   0.177E-02    0.496E-01
RMM:  18    -0.231797667477E+04    0.11373E-02   -0.75156E-04  4174   0.116E-02    0.485E-01
RMM:  19    -0.231797563020E+04    0.10446E-02   -0.41813E-04  3607   0.104E-02    0.498E-01
RMM:  20    -0.231797423405E+04    0.13962E-02   -0.64704E-04  4061   0.120E-02    0.557E-01
RMM:  21    -0.231797286617E+04    0.13679E-02   -0.54169E-04  3650   0.113E-02    0.633E-01
RMM:  22    -0.231797465615E+04   -0.17900E-02   -0.44541E-04  3483   0.939E-03    0.546E-01
RMM:  23    -0.231797763551E+04   -0.29794E-02   -0.26692E-03  4506   0.227E-02    0.490E-01
RMM:  24    -0.231798474393E+04   -0.71084E-02   -0.92304E-03  4851   0.415E-02    0.972E-01
RMM:  25    -0.231798636873E+04   -0.16248E-02   -0.17796E-03  4282   0.210E-02    0.100E+00
RMM:  26    -0.231798612069E+04    0.24803E-03   -0.22364E-04  3118   0.549E-03    0.972E-01
RMM:  27    -0.231798606356E+04    0.57131E-04   -0.10463E-05  2794   0.329E-03    0.981E-01
RMM:  28    -0.231798596583E+04    0.97735E-04   -0.39652E-06  2650   0.160E-03    0.964E-01
RMM:  29    -0.231798676040E+04   -0.79458E-03   -0.13020E-04  3011   0.518E-03    0.101E+00
RMM:  30    -0.231798603148E+04    0.72892E-03   -0.42079E-05  2773   0.435E-03    0.939E-01
RMM:  31    -0.231798466784E+04    0.13636E-02   -0.25493E-04  3379   0.688E-03    0.858E-01
RMM:  32    -0.231798546543E+04   -0.79759E-03   -0.15118E-04  2916   0.605E-03    0.994E-01
RMM:  33    -0.231798573291E+04   -0.26748E-03   -0.25109E-05  2650   0.329E-03    0.100E+00
RMM:  34    -0.231798572424E+04    0.86704E-05   -0.19715E-06  2272   0.147E-03
   8 F= -.23393686E+04 E0= -.23393557E+04  d E =-.152387E+00  mag=     4.6800
       N       E                     dE             d eps       ncg     rms          rms(c)
DAV:   1    -0.231791501247E+04    0.70720E-01   -0.26072E+01  4504   0.429E+00    0.239E+00
RMM:   2    -0.231817711219E+04   -0.26210E+00   -0.19499E+00  6556   0.910E-01    0.294E+00
RMM:   3    -0.231817033708E+04    0.67751E-02   -0.16054E-01  6089   0.263E-01    0.235E+00
RMM:   4    -0.231819723794E+04   -0.26901E-01   -0.53320E-02  5343   0.994E-02    0.266E+00
RMM:   5    -0.231816449408E+04    0.32744E-01   -0.90038E-02  5300   0.132E-01    0.220E+00
RMM:   6    -0.231814487266E+04    0.19621E-01   -0.71059E-02  5767   0.134E-01    0.125E+00
RMM:   7    -0.231812839985E+04    0.16473E-01   -0.21566E-02  5202   0.732E-02    0.727E-01
RMM:   8    -0.231812958799E+04   -0.11881E-02   -0.68701E-03  5745   0.467E-02    0.444E-01
RMM:   9    -0.231815712794E+04   -0.27540E-01   -0.51057E-03  4476   0.376E-02    0.255E-01
RMM:  10    -0.231817900264E+04   -0.21875E-01   -0.31699E-03  4421   0.344E-02    0.140E-01
RMM:  11    -0.231819623420E+04   -0.17232E-01   -0.23997E-03  4499   0.301E-02    0.103E-01
RMM:  12    -0.231820819634E+04   -0.11962E-01   -0.22809E-03  4450   0.294E-02    0.634E-02
RMM:  13    -0.231821273329E+04   -0.45370E-02   -0.10439E-03  4477   0.222E-02    0.327E-02
RMM:  14    -0.231821471970E+04   -0.19864E-02   -0.45353E-04  4273   0.132E-02    0.212E-02
RMM:  15    -0.231821529996E+04   -0.58026E-03   -0.11014E-04  3818   0.799E-03    0.114E-02
RMM:  16    -0.231821553049E+04   -0.23053E-03   -0.37271E-05  3286   0.475E-03    0.556E-03
RMM:  17    -0.231821562043E+04   -0.89941E-04   -0.17177E-05  3003   0.417E-03    0.242E-03
RMM:  18    -0.231821563292E+04   -0.12489E-04   -0.64610E-06  2787   0.310E-03    0.147E-03
RMM:  19    -0.231821563507E+04   -0.21473E-05   -0.30643E-06  2599   0.216E-03
   9 F= -.23395982E+04 E0= -.23395982E+04  d E =-.381993E+00  mag=     3.0005
       N       E                     dE             d eps       ncg     rms          rms(c)
DAV:   1    -0.231745796834E+04    0.75766E+00   -0.10334E+02  4504   0.882E+00    0.215E+00
RMM:   2    -0.231823692278E+04   -0.77895E+00   -0.77214E+00  6580   0.190E+00    0.244E+00
RMM:   3    -0.231820230294E+04    0.34620E-01   -0.66484E-01  6168   0.566E-01    0.176E+00
RMM:   4    -0.231819109544E+04    0.11208E-01   -0.89741E-02  6267   0.138E-01    0.152E+00
RMM:   5    -0.231817550365E+04    0.15592E-01   -0.24739E-02  6127   0.726E-02    0.919E-01
RMM:   6    -0.231817556158E+04   -0.57934E-04   -0.22437E-02  5481   0.703E-02    0.978E-01
RMM:   7    -0.231816469668E+04    0.10865E-01   -0.18475E-02  6036   0.824E-02    0.162E-01
RMM:   8    -0.231816455366E+04    0.14302E-03   -0.17371E-03  5297   0.241E-02    0.847E-02
RMM:   9    -0.231816457302E+04   -0.19359E-04   -0.23026E-04  3902   0.121E-02    0.468E-02
RMM:  10    -0.231816463452E+04   -0.61494E-04   -0.12127E-04  3654   0.803E-03    0.151E-02
RMM:  11    -0.231816467269E+04   -0.38173E-04   -0.25386E-05  3043   0.596E-03    0.783E-03
RMM:  12    -0.231816469545E+04   -0.22758E-04   -0.12743E-05  2893   0.385E-03    0.449E-03
RMM:  13    -0.231816470910E+04   -0.13654E-04   -0.72661E-06  2860   0.326E-03    0.309E-03
RMM:  14    -0.231816471699E+04   -0.78892E-05   -0.59394E-06  2837   0.274E-03
  10 F= -.23395463E+04 E0= -.23395463E+04  d E =-.330058E+00  mag=     3.0000
       N       E                     dE             d eps       ncg     rms          rms(c)
DAV:   1    -0.231796330352E+04    0.20141E+00   -0.42039E+01  4504   0.552E+00    0.134E+00
RMM:   2    -0.231823827737E+04   -0.27497E+00   -0.29007E+00  6530   0.112E+00    0.120E+00
RMM:   3    -0.231826423535E+04   -0.25958E-01   -0.30115E-01  6279   0.403E-01    0.146E+00
RMM:   4    -0.231824730384E+04    0.16932E-01   -0.29371E-02  6566   0.951E-02    0.818E-01
RMM:   5    -0.231824451058E+04    0.27933E-02   -0.95084E-03  5910   0.458E-02    0.622E-01
RMM:   6    -0.231824232707E+04    0.21835E-02   -0.85501E-03  5339   0.490E-02    0.480E-01
RMM:   7    -0.231824032859E+04    0.19985E-02   -0.58026E-03  5815   0.454E-02    0.229E-01
RMM:   8    -0.231823973097E+04    0.59762E-03   -0.11400E-03  5112   0.202E-02    0.583E-02
RMM:   9    -0.231823966767E+04    0.63305E-04   -0.19305E-04  3494   0.120E-02    0.324E-02
RMM:  10    -0.231823966591E+04    0.17580E-05   -0.10073E-04  3545   0.684E-03    0.150E-02
RMM:  11    -0.231823967102E+04   -0.51135E-05   -0.14970E-05  2945   0.482E-03
  11 F= -.23396220E+04 E0= -.23396220E+04  d E =-.405738E+00  mag=     3.0000
       N       E                     dE             d eps       ncg     rms          rms(c)
DAV:   1    -0.231812567134E+04    0.11399E+00   -0.22755E+01  4504   0.450E+00    0.133E+00
RMM:   2    -0.231834516891E+04   -0.21950E+00   -0.22579E+00  6410   0.932E-01    0.133E+00
RMM:   3    -0.231836620382E+04   -0.21035E-01   -0.22511E-01  6216   0.326E-01    0.183E+00
RMM:   4    -0.231833905484E+04    0.27149E-01   -0.28029E-02  6152   0.869E-02    0.592E-01
RMM:   5    -0.231833645116E+04    0.26037E-02   -0.10438E-02  6116   0.543E-02    0.475E-01
RMM:   6    -0.231833373639E+04    0.27148E-02   -0.94375E-03  5654   0.566E-02    0.298E-01
RMM:   7    -0.231833328946E+04    0.44693E-03   -0.27710E-03  5540   0.334E-02    0.215E-01
RMM:   8    -0.231833276258E+04    0.52688E-03   -0.57094E-04  4990   0.139E-02    0.472E-02
RMM:   9    -0.231833272659E+04    0.35992E-04   -0.10021E-04  3293   0.837E-03    0.348E-02
RMM:  10    -0.231833272564E+04    0.94273E-06   -0.68351E-05  3414   0.604E-03
  12 F= -.23397142E+04 E0= -.23397142E+04  d E =-.922493E-01  mag=     3.0000
       N       E                     dE             d eps       ncg     rms          rms(c)
DAV:   1    -0.231833256293E+04    0.16365E-03   -0.28224E-02  5504   0.156E-01    0.480E-02
RMM:   2    -0.231833283177E+04   -0.26884E-03   -0.28337E-03  6337   0.334E-02    0.376E-02
RMM:   3    -0.231833287227E+04   -0.40497E-04   -0.28576E-04  2998   0.119E-02    0.657E-02
RMM:   4    -0.231833283747E+04    0.34800E-04   -0.33201E-05  2908   0.433E-03    0.199E-02
RMM:   5    -0.231833283963E+04   -0.21658E-05   -0.15795E-05  2824   0.264E-03
  13 F= -.23397144E+04 E0= -.23397144E+04  d E =-.923909E-01  mag=     3.0000
       N       E                     dE             d eps       ncg     rms          rms(c)
DAV:   1    -0.231829079723E+04    0.42040E-01   -0.96711E+00  4528   0.288E+00    0.734E-01
RMM:   2    -0.231839537322E+04   -0.10458E+00   -0.10524E+00  6527   0.612E-01    0.110E+00
RMM:   3    -0.231839682429E+04   -0.14511E-02   -0.11315E-01  6282   0.222E-01    0.890E-01
RMM:   4    -0.231838998874E+04    0.68355E-02   -0.11886E-02  5995   0.545E-02    0.351E-01
RMM:   5    -0.231838892202E+04    0.10667E-02   -0.28848E-03  5770   0.289E-02    0.285E-01
RMM:   6    -0.231838759625E+04    0.13258E-02   -0.26431E-03  5562   0.288E-02    0.176E-01
RMM:   7    -0.231838749759E+04    0.98665E-04   -0.15655E-03  5014   0.229E-02    0.173E-01
RMM:   8    -0.231838716870E+04    0.32889E-03   -0.51891E-04  4713   0.137E-02    0.364E-02
RMM:   9    -0.231838716057E+04    0.81287E-05   -0.55554E-05  3133   0.676E-03
  14 F= -.23397691E+04 E0= -.23397691E+04  d E =-.547161E-01  mag=     3.0000
       N       E                     dE             d eps       ncg     rms          rms(c)
DAV:   1    -0.231837995444E+04    0.72143E-02   -0.10668E+00  4608   0.948E-01    0.243E-01
RMM:   2    -0.231839151461E+04   -0.11560E-01   -0.11687E-01  6524   0.202E-01    0.362E-01
RMM:   3    -0.231839169609E+04   -0.18148E-03   -0.12353E-02  5923   0.715E-02    0.289E-01
RMM:   4    -0.231839094368E+04    0.75240E-03   -0.12557E-03  4368   0.181E-02    0.112E-01
RMM:   5    -0.231839084254E+04    0.10115E-03   -0.32029E-04  3945   0.110E-02    0.950E-02
RMM:   6    -0.231839070184E+04    0.14070E-03   -0.31801E-04  4528   0.111E-02    0.562E-02
RMM:   7    -0.231839070334E+04   -0.15076E-05   -0.18301E-04  3521   0.887E-03    0.568E-02
RMM:   8    -0.231839067491E+04    0.28437E-04   -0.55477E-05  3038   0.617E-03    0.127E-02
RMM:   9    -0.231839068209E+04   -0.71829E-05   -0.10875E-05  2905   0.367E-03
  15 F= -.23397728E+04 E0= -.23397728E+04  d E =-.583796E-01  mag=     3.0000
       N       E                     dE             d eps       ncg     rms          rms(c)
DAV:   1    -0.231837875259E+04    0.11922E-01   -0.70071E+00  4516   0.247E+00    0.642E-01
RMM:   2    -0.231844466529E+04   -0.65913E-01   -0.64006E-01  6468   0.504E-01    0.904E-01
RMM:   3    -0.231844638082E+04   -0.17155E-02   -0.69410E-02  6286   0.174E-01    0.747E-01
RMM:   4    -0.231844110877E+04    0.52721E-02   -0.63034E-03  5549   0.429E-02    0.215E-01
RMM:   5    -0.231844114303E+04   -0.34264E-04   -0.20906E-03  5779   0.263E-02    0.248E-01
RMM:   6    -0.231844029101E+04    0.85202E-03   -0.16714E-03  5311   0.242E-02    0.104E-01
RMM:   7    -0.231844025995E+04    0.31055E-04   -0.46700E-04  4389   0.158E-02    0.848E-02
RMM:   8    -0.231844017913E+04    0.80821E-04   -0.11280E-04  3509   0.690E-03    0.234E-02
RMM:   9    -0.231844017037E+04    0.87566E-05   -0.22595E-05  2969   0.445E-03
  16 F= -.23398232E+04 E0= -.23398232E+04  d E =-.504818E-01  mag=     3.0000
       N       E                     dE             d eps       ncg     rms          rms(c)
DAV:   1    -0.231819719418E+04    0.24298E+00   -0.32620E+01  4504   0.536E+00    0.138E+00
RMM:   2    -0.231850027367E+04   -0.30308E+00   -0.29860E+00  6431   0.107E+00    0.181E+00
RMM:   3    -0.231851282955E+04   -0.12556E-01   -0.33354E-01  6191   0.396E-01    0.163E+00
RMM:   4    -0.231848816988E+04    0.24660E-01   -0.31367E-02  5990   0.949E-02    0.500E-01
RMM:   5    -0.231848739025E+04    0.77963E-03   -0.87935E-03  6136   0.527E-02    0.509E-01
RMM:   6    -0.231848388653E+04    0.35037E-02   -0.77669E-03  5327   0.518E-02    0.252E-01
RMM:   7    -0.231848355964E+04    0.32689E-03   -0.26017E-03  5208   0.362E-02    0.184E-01
RMM:   8    -0.231848317351E+04    0.38613E-03   -0.64018E-04  5056   0.154E-02    0.509E-02
RMM:   9    -0.231848312863E+04    0.44877E-04   -0.10782E-04  3580   0.899E-03    0.289E-02
RMM:  10    -0.231848311175E+04    0.16888E-04   -0.73512E-05  3566   0.635E-03    0.111E-02
RMM:  11    -0.231848310956E+04    0.21878E-05   -0.12158E-05  2934   0.479E-03
  17 F= -.23398683E+04 E0= -.23398683E+04  d E =-.955175E-01  mag=     3.0000
       N       E                     dE             d eps       ncg     rms          rms(c)
DAV:   1    -0.231842157808E+04    0.61534E-01   -0.11922E+01  4552   0.326E+00    0.845E-01
RMM:   2    -0.231853561484E+04   -0.11404E+00   -0.12001E+00  6543   0.666E-01    0.701E-01
RMM:   3    -0.231855015400E+04   -0.14539E-01   -0.13238E-01  6376   0.226E-01    0.108E+00
RMM:   4    -0.231854040130E+04    0.97527E-02   -0.12451E-02  6214   0.551E-02    0.358E-01
RMM:   5    -0.231853998927E+04    0.41203E-03   -0.33788E-03  5661   0.278E-02    0.333E-01
RMM:   6    -0.231853851107E+04    0.14782E-02   -0.29452E-03  5321   0.304E-02    0.116E-01
RMM:   7    -0.231853837918E+04    0.13189E-03   -0.91187E-04  5114   0.203E-02    0.468E-02
RMM:   8    -0.231853836292E+04    0.16263E-04   -0.95011E-05  3456   0.888E-03    0.338E-02
RMM:   9    -0.231853835136E+04    0.11562E-04   -0.47219E-05  3037   0.554E-03    0.238E-02
RMM:  10    -0.231853834399E+04    0.73615E-05   -0.28560E-05  2931   0.434E-03
  18 F= -.23399259E+04 E0= -.23399259E+04  d E =-.576260E-01  mag=     3.0000
       N       E                     dE             d eps       ncg     rms          rms(c)
DAV:   1    -0.231836149596E+04    0.17686E+00   -0.20802E+01  4504   0.427E+00    0.112E+00
RMM:   2    -0.231856164629E+04   -0.20015E+00   -0.21055E+00  6547   0.868E-01    0.949E-01
RMM:   3    -0.231858866226E+04   -0.27016E-01   -0.24326E-01  6380   0.305E-01    0.148E+00
RMM:   4    -0.231857075187E+04    0.17910E-01   -0.22201E-02  6259   0.729E-02    0.494E-01
RMM:   5    -0.231856978650E+04    0.96537E-03   -0.60049E-03  5828   0.366E-02    0.441E-01
RMM:   6    -0.231856727926E+04    0.25072E-02   -0.51427E-03  5500   0.390E-02    0.173E-01
RMM:   7    -0.231856696725E+04    0.31200E-03   -0.21327E-03  5401   0.282E-02    0.764E-02
RMM:   8    -0.231856693233E+04    0.34926E-04   -0.23760E-04  4044   0.134E-02    0.610E-02
RMM:   9    -0.231856688422E+04    0.48109E-04   -0.10037E-04  3426   0.680E-03    0.318E-02
RMM:  10    -0.231856687040E+04    0.13814E-04   -0.66049E-05  3012   0.591E-03    0.109E-02
RMM:  11    -0.231856687183E+04   -0.14273E-05   -0.16127E-05  2944   0.381E-03
  19 F= -.23399575E+04 E0= -.23399575E+04  d E =-.892137E-01  mag=     3.0000
       N       E                     dE             d eps       ncg     rms          rms(c)
DAV:   1    -0.231855852130E+04    0.83491E-02   -0.41381E+00  4580   0.192E+00    0.569E-01
RMM:   2    -0.231859126664E+04   -0.32745E-01   -0.35168E-01  6322   0.370E-01    0.409E-01
RMM:   3    -0.231859411172E+04   -0.28451E-02   -0.37884E-02  6215   0.142E-01    0.466E-01
RMM:   4    -0.231859158420E+04    0.25275E-02   -0.41607E-03  6227   0.366E-02    0.208E-01
RMM:   5    -0.231859209805E+04   -0.51385E-03   -0.16750E-03  4943   0.203E-02    0.323E-01
RMM:   6    -0.231859105714E+04    0.10409E-02   -0.10831E-03  5372   0.190E-02    0.889E-02
RMM:   7    -0.231859101904E+04    0.38103E-04   -0.29178E-04  4557   0.123E-02    0.547E-02
RMM:   8    -0.231859098779E+04    0.31253E-04   -0.72538E-05  3075   0.667E-03    0.240E-02
RMM:   9    -0.231859098576E+04    0.20243E-05   -0.25224E-05  2964   0.430E-03
  20 F= -.23399830E+04 E0= -.23399830E+04  d E =-.255275E-01  mag=     3.0000
       N       E                     dE             d eps       ncg     rms          rms(c)
DAV:   1    -0.231858193287E+04    0.90549E-02   -0.16406E+00  4624   0.122E+00    0.359E-01
RMM:   2    -0.231859493001E+04   -0.12997E-01   -0.13923E-01  6307   0.230E-01    0.268E-01
RMM:   3    -0.231859614017E+04   -0.12102E-02   -0.14842E-02  6120   0.871E-02    0.324E-01
RMM:   4    -0.231859511101E+04    0.10292E-02   -0.17098E-03  5703   0.228E-02    0.174E-01
RMM:   5    -0.231859507710E+04    0.33910E-04   -0.62346E-04  3841   0.128E-02    0.158E-01
RMM:   6    -0.231859477339E+04    0.30371E-03   -0.46479E-04  4704   0.134E-02    0.471E-02
RMM:   7    -0.231859477131E+04    0.20827E-05   -0.13833E-04  3797   0.101E-02    0.394E-02
RMM:   8    -0.231859475471E+04    0.16603E-04   -0.38910E-05  2991   0.503E-03    0.148E-02
RMM:   9    -0.231859475453E+04    0.17259E-06   -0.11789E-05  2919   0.344E-03
  21 F= -.23399877E+04 E0= -.23399877E+04  d E =-.301750E-01  mag=     3.0000
       N       E                     dE             d eps       ncg     rms          rms(c)
DAV:   1    -0.231859312552E+04    0.16292E-02   -0.25858E+00  4528   0.143E+00    0.356E-01
RMM:   2    -0.231861316335E+04   -0.20038E-01   -0.20685E-01  6518   0.282E-01    0.316E-01
RMM:   3    -0.231861460476E+04   -0.14414E-02   -0.19856E-02  6176   0.959E-02    0.346E-01
RMM:   4    -0.231861370017E+04    0.90459E-03   -0.21467E-03  5511   0.239E-02    0.210E-01
RMM:   5    -0.231861349090E+04    0.20927E-03   -0.63691E-04  3768   0.124E-02    0.144E-01
RMM:   6    -0.231861324724E+04    0.24366E-03   -0.60757E-04  4437   0.159E-02    0.416E-02
RMM:   7    -0.231861324782E+04   -0.57823E-06   -0.11477E-04  3414   0.109E-02    0.283E-02
RMM:   8    -0.231861324287E+04    0.49557E-05   -0.31538E-05  2974   0.457E-03
  22 F= -.23400068E+04 E0= -.23400068E+04  d E =-.191633E-01  mag=     3.0000
       N       E                     dE             d eps       ncg     rms          rms(c)
DAV:   1    -0.231846148782E+04    0.15176E+00   -0.21971E+01  4504   0.426E+00    0.104E+00
RMM:   2    -0.231863338477E+04   -0.17190E+00   -0.17796E+00  6514   0.802E-01    0.900E-01
RMM:   3    -0.231864408490E+04   -0.10700E-01   -0.17339E-01  6379   0.264E-01    0.903E-01
RMM:   4    -0.231863759661E+04    0.64883E-02   -0.17922E-02  6160   0.671E-02    0.590E-01
RMM:   5    -0.231863651930E+04    0.10773E-02   -0.52875E-03  5447   0.325E-02    0.462E-01
RMM:   6    -0.231863418568E+04    0.23336E-02   -0.53783E-03  4974   0.434E-02    0.151E-01
RMM:   7    -0.231863407019E+04    0.11548E-03   -0.12217E-03  4818   0.284E-02    0.795E-02
RMM:   8    -0.231863404971E+04    0.20480E-04   -0.28745E-04  4151   0.105E-02    0.668E-02
RMM:   9    -0.231863398347E+04    0.66245E-04   -0.10231E-04  3382   0.718E-03    0.323E-02
RMM:  10    -0.231863397803E+04    0.54428E-05   -0.71393E-05  3143   0.601E-03
  23 F= -.23400294E+04 E0= -.23400294E+04  d E =-.417584E-01  mag=     3.0000
       N       E                     dE             d eps       ncg     rms          rms(c)
DAV:   1    -0.231863405931E+04   -0.75844E-04   -0.20012E+00  4560   0.126E+00    0.327E-01
RMM:   2    -0.231864908935E+04   -0.15030E-01   -0.15207E-01  6409   0.233E-01    0.348E-01
RMM:   3    -0.231865021317E+04   -0.11238E-02   -0.15004E-02  5955   0.812E-02    0.385E-01
RMM:   4    -0.231864908425E+04    0.11289E-02   -0.17820E-03  4931   0.216E-02    0.180E-01
RMM:   5    -0.231864885796E+04    0.22629E-03   -0.52251E-04  3839   0.125E-02    0.116E-01
RMM:   6    -0.231864870087E+04    0.15709E-03   -0.42863E-04  4242   0.136E-02    0.404E-02
RMM:   7    -0.231864871359E+04   -0.12718E-04   -0.12176E-04  3287   0.105E-02    0.413E-02
RMM:   8    -0.231864869376E+04    0.19832E-04   -0.35289E-05  2950   0.478E-03    0.123E-02
RMM:   9    -0.231864869296E+04    0.80004E-06   -0.74402E-06  2878   0.289E-03
  24 F= -.23400445E+04 E0= -.23400445E+04  d E =-.150384E-01  mag=     3.0000
       N       E                     dE             d eps       ncg     rms          rms(c)
DAV:   1    -0.231858717412E+04    0.61520E-01   -0.11158E+01  4504   0.295E+00    0.773E-01
RMM:   2    -0.231867149726E+04   -0.84323E-01   -0.85830E-01  6411   0.567E-01    0.791E-01
RMM:   3    -0.231867796387E+04   -0.64666E-02   -0.84140E-02  6144   0.197E-01    0.907E-01
RMM:   4    -0.231867184778E+04    0.61161E-02   -0.99615E-03  5844   0.511E-02    0.432E-01
RMM:   5    -0.231867050361E+04    0.13442E-02   -0.29102E-03  5470   0.275E-02    0.273E-01
RMM:   6    -0.231866961548E+04    0.88814E-03   -0.23466E-03  4778   0.297E-02    0.100E-01
RMM:   7    -0.231866968246E+04   -0.66981E-04   -0.72013E-04  4333   0.230E-02    0.101E-01
RMM:   8    -0.231866956522E+04    0.11724E-03   -0.20929E-04  3901   0.864E-03    0.310E-02
RMM:   9    -0.231866956253E+04    0.26840E-05   -0.41789E-05  2981   0.531E-03
  25 F= -.23400661E+04 E0= -.23400661E+04  d E =-.366356E-01  mag=     3.0000
       N       E                     dE             d eps       ncg     rms          rms(c)
DAV:   1    -0.231831776103E+04    0.35180E+00   -0.44435E+01  4504   0.593E+00    0.155E+00
RMM:   2    -0.231866017656E+04   -0.34242E+00   -0.35001E+00  6426   0.111E+00    0.152E+00
RMM:   3    -0.231868422376E+04   -0.24047E-01   -0.33817E-01  6203   0.381E-01    0.174E+00
RMM:   4    -0.231866235006E+04    0.21874E-01   -0.40136E-02  6094   0.990E-02    0.899E-01
RMM:   5    -0.231865630382E+04    0.60462E-02   -0.11559E-02  5976   0.526E-02    0.534E-01
RMM:   6    -0.231865290171E+04    0.34021E-02   -0.95130E-03  4933   0.577E-02    0.208E-01
RMM:   7    -0.231865313155E+04   -0.22984E-03   -0.29860E-03  4871   0.436E-02    0.202E-01
RMM:   8    -0.231865267558E+04    0.45598E-03   -0.86891E-04  5162   0.165E-02    0.679E-02
RMM:   9    -0.231865267001E+04    0.55655E-05   -0.19234E-04  3518   0.933E-03    0.337E-02
RMM:  10    -0.231865274317E+04   -0.73158E-04   -0.93573E-05  3417   0.695E-03    0.140E-02
RMM:  11    -0.231865278302E+04   -0.39855E-04   -0.19084E-05  2972   0.481E-03    0.688E-03
RMM:  12    -0.231865281197E+04   -0.28940E-04   -0.11106E-05  2900   0.333E-03    0.359E-03
RMM:  13    -0.231865282565E+04   -0.13685E-04   -0.55950E-06  2844   0.293E-03    0.259E-03
RMM:  14    -0.231865283380E+04   -0.81472E-05   -0.45536E-06  2778   0.230E-03
  26 F= -.23400507E+04 E0= -.23400507E+04  d E =-.212320E-01  mag=     3.0000
       N       E                     dE             d eps       ncg     rms          rms(c)
DAV:   1    -0.231851027559E+04    0.14255E+00   -0.21780E+01  4504   0.402E+00    0.109E+00
RMM:   2    -0.231868171716E+04   -0.17144E+00   -0.16955E+00  6402   0.793E-01    0.137E+00
RMM:   3    -0.231868900107E+04   -0.72839E-02   -0.16854E-01  6111   0.286E-01    0.122E+00
RMM:   4    -0.231867582622E+04    0.13175E-01   -0.17730E-02  5629   0.730E-02    0.479E-01
RMM:   5    -0.231867489783E+04    0.92839E-03   -0.54727E-03  5717   0.400E-02    0.409E-01
RMM:   6    -0.231867289842E+04    0.19994E-02   -0.41288E-03  4934   0.389E-02    0.128E-01
RMM:   7    -0.231867282964E+04    0.68779E-04   -0.98101E-04  4611   0.273E-02    0.609E-02
RMM:   8    -0.231867281827E+04    0.11373E-04   -0.19356E-04  3967   0.956E-03    0.542E-02
RMM:   9    -0.231867277710E+04    0.41174E-04   -0.61678E-05  2949   0.636E-03    0.267E-02
RMM:  10    -0.231867277424E+04    0.28595E-05   -0.49393E-05  3041   0.513E-03
  27 F= -.23400697E+04 E0= -.23400697E+04  d E =-.402617E-01  mag=     3.0000
       N       E                     dE             d eps       ncg     rms          rms(c)
DAV:   1    -0.231867798282E+04   -0.52057E-02   -0.85102E-01  4560   0.828E-01    0.217E-01
RMM:   2    -0.231868458785E+04   -0.66050E-02   -0.58369E-02  6291   0.153E-01    0.383E-01
RMM:   3    -0.231868384329E+04    0.74457E-03   -0.62538E-03  5562   0.564E-02    0.189E-01
RMM:   4    -0.231868349875E+04    0.34454E-03   -0.59134E-04  4168   0.143E-02    0.727E-02
RMM:   5    -0.231868354973E+04   -0.50980E-04   -0.24608E-04  3587   0.104E-02    0.104E-01
RMM:   6    -0.231868341806E+04    0.13167E-03   -0.20893E-04  4268   0.101E-02    0.240E-02
RMM:   7    -0.231868341481E+04    0.32519E-05   -0.25826E-05  2977   0.626E-03
  28 F= -.23400801E+04 E0= -.23400801E+04  d E =-.104476E-01  mag=     3.0000
       N       E                     dE             d eps       ncg     rms          rms(c)
DAV:   1    -0.231865331838E+04    0.30100E-01   -0.76473E+00  4516   0.248E+00    0.659E-01
RMM:   2    -0.231871374968E+04   -0.60431E-01   -0.53196E-01  6230   0.449E-01    0.115E+00
RMM:   3    -0.231870647270E+04    0.72770E-02   -0.57156E-02  5960   0.171E-01    0.559E-01
RMM:   4    -0.231870343558E+04    0.30371E-02   -0.55268E-03  5211   0.419E-02    0.226E-01
RMM:   5    -0.231870374485E+04   -0.30926E-03   -0.21010E-03  5538   0.273E-02    0.297E-01
RMM:   6    -0.231870263977E+04    0.11051E-02   -0.16839E-03  5217   0.254E-02    0.681E-02
RMM:   7    -0.231870261904E+04    0.20730E-04   -0.22617E-04  3838   0.143E-02    0.340E-02
RMM:   8    -0.231870261439E+04    0.46506E-05   -0.53972E-05  3050   0.516E-03
  29 F= -.23400987E+04 E0= -.23400987E+04  d E =-.290603E-01  mag=     3.0000
       N       E                     dE             d eps       ncg     rms          rms(c)
DAV:   1    -0.231869406052E+04    0.85585E-02   -0.17136E+00  4560   0.115E+00    0.313E-01
RMM:   2    -0.231870770352E+04   -0.13643E-01   -0.11931E-01  6260   0.213E-01    0.556E-01
RMM:   3    -0.231870595210E+04    0.17514E-02   -0.12789E-02  5813   0.781E-02    0.262E-01
RMM:   4    -0.231870528608E+04    0.66602E-03   -0.12260E-03  4724   0.198E-02    0.106E-01
RMM:   5    -0.231870536584E+04   -0.79764E-04   -0.47298E-04  4350   0.136E-02    0.143E-01
RMM:   6    -0.231870512036E+04    0.24548E-03   -0.39869E-04  4649   0.130E-02    0.354E-02
RMM:   7    -0.231870511819E+04    0.21696E-05   -0.61387E-05  3090   0.846E-03
  30 F= -.23401010E+04 E0= -.23401010E+04  d E =-.312832E-01  mag=     3.0000
       N       E                     dE             d eps       ncg     rms          rms(c)
DAV:   1    -0.231870882532E+04   -0.37050E-02   -0.15617E+00  4528   0.110E+00    0.272E-01
RMM:   2    -0.231871864417E+04   -0.98189E-02   -0.89908E-02  6256   0.199E-01    0.425E-01
RMM:   3    -0.231871794175E+04    0.70242E-03   -0.91454E-03  5692   0.776E-02    0.266E-01
RMM:   4    -0.231871730498E+04    0.63677E-03   -0.96518E-04  4532   0.190E-02    0.102E-01
RMM:   5    -0.231871736512E+04   -0.60140E-04   -0.39741E-04  4003   0.131E-02    0.129E-01
RMM:   6    -0.231871716414E+04    0.20098E-03   -0.30080E-04  4350   0.118E-02    0.340E-02
RMM:   7    -0.231871715582E+04    0.83216E-05   -0.59958E-05  3215   0.811E-03
  31 F= -.23401127E+04 E0= -.23401127E+04  d E =-.117550E-01  mag=     3.0000
       N       E                     dE             d eps       ncg     rms          rms(c)
DAV:   1    -0.231865986982E+04    0.57294E-01   -0.14029E+01  4504   0.335E+00    0.818E-01
RMM:   2    -0.231874876037E+04   -0.88891E-01   -0.82052E-01  6247   0.570E-01    0.125E+00
RMM:   3    -0.231874319698E+04    0.55634E-02   -0.83432E-02  5873   0.227E-01    0.811E-01
RMM:   4    -0.231873707907E+04    0.61179E-02   -0.86636E-03  5265   0.551E-02    0.303E-01
RMM:   5    -0.231873764317E+04   -0.56410E-03   -0.35760E-03  5659   0.368E-02    0.390E-01
RMM:   6    -0.231873581385E+04    0.18293E-02   -0.27791E-03  5566   0.310E-02    0.112E-01
RMM:   7    -0.231873569621E+04    0.11764E-03   -0.55362E-04  4598   0.181E-02    0.391E-02
RMM:   8    -0.231873567686E+04    0.19348E-04   -0.50585E-05  3182   0.705E-03    0.218E-02
RMM:   9    -0.231873567732E+04   -0.46025E-06   -0.30967E-05  2918   0.476E-03
  32 F= -.23401304E+04 E0= -.23401304E+04  d E =-.294108E-01  mag=     3.0000
       N       E                     dE             d eps       ncg     rms          rms(c)
DAV:   1    -0.231873557906E+04    0.97809E-04   -0.35233E+00  4516   0.161E+00    0.373E-01
RMM:   2    -0.231875342584E+04   -0.17847E-01   -0.18267E-01  6288   0.290E-01    0.379E-01
RMM:   3    -0.231875453615E+04   -0.11103E-02   -0.17714E-02  6001   0.106E-01    0.431E-01
RMM:   4    -0.231875298712E+04    0.15490E-02   -0.19799E-03  5259   0.260E-02    0.188E-01
RMM:   5    -0.231875286908E+04    0.11804E-03   -0.81524E-04  4434   0.162E-02    0.164E-01
RMM:   6    -0.231875254182E+04    0.32726E-03   -0.77918E-04  4470   0.180E-02    0.698E-02
RMM:   7    -0.231875252126E+04    0.20562E-04   -0.23401E-04  3410   0.140E-02    0.532E-02
RMM:   8    -0.231875248637E+04    0.34890E-04   -0.41202E-05  3012   0.494E-03    0.132E-02
RMM:   9    -0.231875248675E+04   -0.37614E-06   -0.10577E-05  2929   0.323E-03
  33 F= -.23401470E+04 E0= -.23401470E+04  d E =-.166279E-01  mag=     3.0000
       N       E                     dE             d eps       ncg     rms          rms(c)
DAV:   1    -0.231873269869E+04    0.19788E-01   -0.63387E+00  4504   0.223E+00    0.495E-01
RMM:   2    -0.231876450027E+04   -0.31802E-01   -0.32496E-01  6241   0.366E-01    0.511E-01
RMM:   3    -0.231876630922E+04   -0.18090E-02   -0.32467E-02  6010   0.139E-01    0.577E-01
RMM:   4    -0.231876359320E+04    0.27160E-02   -0.36498E-03  5482   0.332E-02    0.254E-01
RMM:   5    -0.231876334160E+04    0.25159E-03   -0.14134E-03  5019   0.209E-02    0.218E-01
RMM:   6    -0.231876277130E+04    0.57030E-03   -0.13762E-03  4560   0.228E-02    0.103E-01
RMM:   7    -0.231876271294E+04    0.58361E-04   -0.46400E-04  3719   0.184E-02    0.709E-02
RMM:   8    -0.231876265772E+04    0.55226E-04   -0.83275E-05  3247   0.625E-03    0.183E-02
RMM:   9    -0.231876266615E+04   -0.84335E-05   -0.18719E-05  2965   0.409E-03
  34 F= -.23401569E+04 E0= -.23401569E+04  d E =-.265657E-01  mag=     3.0000
       N       E                     dE             d eps       ncg     rms          rms(c)
DAV:   1    -0.231875459691E+04    0.80608E-02   -0.52614E+00  4520   0.199E+00    0.438E-01
RMM:   2    -0.231878071975E+04   -0.26123E-01   -0.27769E-01  6147   0.342E-01    0.314E-01
RMM:   3    -0.231878220585E+04   -0.14861E-02   -0.28124E-02  5680   0.142E-01    0.337E-01
RMM:   4    -0.231878106804E+04    0.11378E-02   -0.25913E-03  5980   0.298E-02    0.184E-01
RMM:   5    -0.231878152045E+04   -0.45242E-03   -0.12855E-03  4877   0.193E-02    0.306E-01
RMM:   6    -0.231878074040E+04    0.78006E-03   -0.10329E-03  4998   0.185E-02    0.120E-01
RMM:   7    -0.231878066367E+04    0.76728E-04   -0.40008E-04  3976   0.121E-02    0.698E-02
RMM:   8    -0.231878060133E+04    0.62338E-04   -0.66487E-05  3066   0.644E-03    0.163E-02
RMM:   9    -0.231878059973E+04    0.15967E-05   -0.16400E-05  2957   0.362E-03
  35 F= -.23401746E+04 E0= -.23401746E+04  d E =-.176716E-01  mag=     3.0000
       N       E                     dE             d eps       ncg     rms          rms(c)
DAV:   1    -0.231873719819E+04    0.43403E-01   -0.11252E+01  4536   0.293E+00    0.642E-01
RMM:   2    -0.231879298890E+04   -0.55791E-01   -0.59331E-01  6152   0.502E-01    0.465E-01
RMM:   3    -0.231879628526E+04   -0.32964E-02   -0.60372E-02  5731   0.210E-01    0.506E-01
RMM:   4    -0.231879376488E+04    0.25204E-02   -0.55849E-03  6345   0.445E-02    0.281E-01
RMM:   5    -0.231879464890E+04   -0.88401E-03   -0.26654E-03  5226   0.264E-02    0.446E-01
RMM:   6    -0.231879300502E+04    0.16439E-02   -0.22748E-03  5542   0.268E-02    0.176E-01
RMM:   7    -0.231879284132E+04    0.16370E-03   -0.94481E-04  4957   0.179E-02    0.108E-01
RMM:   8    -0.231879268679E+04    0.15453E-03   -0.16319E-04  3469   0.861E-03    0.256E-02
RMM:   9    -0.231879267738E+04    0.94017E-05   -0.40986E-05  2983   0.493E-03
  36 F= -.23401863E+04 E0= -.23401863E+04  d E =-.293822E-01  mag=     3.0000
       N       E                     dE             d eps       ncg     rms          rms(c)
DAV:   1    -0.231879066008E+04    0.20267E-02   -0.51067E-01  4768   0.632E-01    0.137E-01
RMM:   2    -0.231879318295E+04   -0.25229E-02   -0.26808E-02  6222   0.107E-01    0.990E-02
RMM:   3    -0.231879333246E+04   -0.14951E-03   -0.26292E-03  4820   0.424E-02    0.109E-01
RMM:   4    -0.231879321603E+04    0.11643E-03   -0.24848E-04  3262   0.983E-03    0.615E-02
RMM:   5    -0.231879325985E+04   -0.43822E-04   -0.12203E-04  3116   0.724E-03    0.982E-02
RMM:   6    -0.231879317960E+04    0.80252E-04   -0.11690E-04  3252   0.748E-03    0.359E-02
RMM:   7    -0.231879317243E+04    0.71724E-05   -0.45447E-05  2929   0.575E-03
  37 F= -.23401868E+04 E0= -.23401868E+04  d E =-.298023E-01  mag=     3.0000
       N       E                     dE             d eps       ncg     rms          rms(c)
DAV:   1    -0.231877329495E+04    0.19885E-01   -0.87260E+00  4504   0.255E+00    0.540E-01
RMM:   2    -0.231881062003E+04   -0.37325E-01   -0.39761E-01  6103   0.421E-01    0.341E-01
RMM:   3    -0.231881213371E+04   -0.15137E-02   -0.35790E-02  5483   0.174E-01    0.367E-01
RMM:   4    -0.231881158038E+04    0.55333E-03   -0.37408E-03  5957   0.356E-02    0.309E-01
RMM:   5    -0.231881155403E+04    0.26354E-04   -0.18919E-03  5310   0.232E-02    0.288E-01
RMM:   6    -0.231881069563E+04    0.85840E-03   -0.16052E-03  5675   0.247E-02    0.108E-01
RMM:   7    -0.231881064109E+04    0.54538E-04   -0.33512E-04  3461   0.118E-02    0.773E-02
RMM:   8    -0.231881057085E+04    0.70240E-04   -0.65220E-05  2924   0.575E-03    0.224E-02
RMM:   9    -0.231881057005E+04    0.80036E-06   -0.18921E-05  2956   0.334E-03
  38 F= -.23402034E+04 E0= -.23402034E+04  d E =-.166017E-01  mag=     3.0000
       N       E                     dE             d eps       ncg     rms          rms(c)
DAV:   1    -0.231868613405E+04    0.12444E+00   -0.30711E+01  4504   0.480E+00    0.102E+00
RMM:   2    -0.231882161351E+04   -0.13548E+00   -0.14400E+00  6084   0.805E-01    0.660E-01
RMM:   3    -0.231882793155E+04   -0.63180E-02   -0.12828E-01  5490   0.333E-01    0.745E-01
RMM:   4    -0.231882510380E+04    0.28277E-02   -0.13482E-02  6498   0.679E-02    0.576E-01
RMM:   5    -0.231882468610E+04    0.41771E-03   -0.64532E-03  5671   0.410E-02    0.517E-01
RMM:   6    -0.231882201597E+04    0.26701E-02   -0.57457E-03  5988   0.460E-02    0.225E-01
RMM:   7    -0.231882175839E+04    0.25758E-03   -0.14307E-03  5362   0.219E-02    0.158E-01
RMM:   8    -0.231882146230E+04    0.29609E-03   -0.29827E-04  3338   0.992E-03    0.473E-02
RMM:   9    -0.231882146318E+04   -0.88214E-06   -0.85413E-05  3181   0.623E-03
  39 F= -.23402128E+04 E0= -.23402128E+04  d E =-.260493E-01  mag=     3.0000
       N       E                     dE             d eps       ncg     rms          rms(c)
DAV:   1    -0.231878865154E+04    0.32811E-01   -0.10138E+01  4504   0.272E+00    0.592E-01
RMM:   2    -0.231883575314E+04   -0.47102E-01   -0.49650E-01  6156   0.469E-01    0.455E-01
RMM:   3    -0.231884109012E+04   -0.53370E-02   -0.49217E-02  5658   0.183E-01    0.731E-01
RMM:   4    -0.231883636671E+04    0.47234E-02   -0.48578E-03  6025   0.405E-02    0.256E-01
RMM:   5    -0.231883666876E+04   -0.30205E-03   -0.26377E-03  5273   0.265E-02    0.306E-01
RMM:   6    -0.231883570858E+04    0.96018E-03   -0.17309E-03  5457   0.245E-02    0.903E-02
RMM:   7    -0.231883572584E+04   -0.17256E-04   -0.42603E-04  3913   0.140E-02    0.835E-02
RMM:   8    -0.231883563238E+04    0.93457E-04   -0.10066E-04  3023   0.669E-03    0.212E-02
RMM:   9    -0.231883564095E+04   -0.85673E-05   -0.22757E-05  2974   0.373E-03
  40 F= -.23402265E+04 E0= -.23402265E+04  d E =-.136876E-01  mag=     3.0000
       N       E                     dE             d eps       ncg     rms          rms(c)
DAV:   1    -0.231879133827E+04    0.44294E-01   -0.11115E+01  4504   0.284E+00    0.619E-01
RMM:   2    -0.231884289004E+04   -0.51552E-01   -0.54233E-01  6159   0.469E-01    0.490E-01
RMM:   3    -0.231884881377E+04   -0.59237E-02   -0.54617E-02  5639   0.187E-01    0.773E-01
RMM:   4    -0.231884342618E+04    0.53876E-02   -0.53666E-03  5980   0.414E-02    0.263E-01
RMM:   5    -0.231884374290E+04   -0.31672E-03   -0.28679E-03  5305   0.277E-02    0.316E-01
RMM:   6    -0.231884269156E+04    0.10513E-02   -0.18647E-03  5484   0.252E-02    0.921E-02
RMM:   7    -0.231884270934E+04   -0.17780E-04   -0.45168E-04  3922   0.142E-02    0.862E-02
RMM:   8    -0.231884260700E+04    0.10234E-03   -0.11111E-04  3041   0.685E-03    0.223E-02
RMM:   9    -0.231884261142E+04   -0.44277E-05   -0.24530E-05  2976   0.383E-03
  41 F= -.23402330E+04 E0= -.23402330E+04  d E =-.201766E-01  mag=     3.0000
       N       E                     dE             d eps       ncg     rms          rms(c)
DAV:   1    -0.231883293743E+04    0.96696E-02   -0.49569E+00  4536   0.189E+00    0.479E-01
RMM:   2    -0.231886127959E+04   -0.28342E-01   -0.27926E-01  6338   0.329E-01    0.600E-01
RMM:   3    -0.231886186208E+04   -0.58249E-03   -0.27069E-02  5741   0.117E-01    0.555E-01
RMM:   4    -0.231885904818E+04    0.28139E-02   -0.30733E-03  5275   0.330E-02    0.185E-01
RMM:   5    -0.231885909435E+04   -0.46171E-04   -0.13768E-03  5316   0.243E-02    0.185E-01
RMM:   6    -0.231885875692E+04    0.33743E-03   -0.10272E-03  5569   0.184E-02    0.102E-01
RMM:   7    -0.231885868963E+04    0.67285E-04   -0.27401E-04  3671   0.105E-02    0.744E-02
RMM:   8    -0.231885862219E+04    0.67446E-04   -0.74422E-05  2942   0.645E-03    0.193E-02
RMM:   9    -0.231885861758E+04    0.46127E-05   -0.13745E-05  2941   0.306E-03
  42 F= -.23402494E+04 E0= -.23402494E+04  d E =-.164474E-01  mag=     3.0000
       N       E                     dE             d eps       ncg     rms          rms(c)
DAV:   1    -0.231884981430E+04    0.88079E-02   -0.24063E+00  4576   0.132E+00    0.334E-01
RMM:   2    -0.231886354190E+04   -0.13728E-01   -0.13537E-01  6324   0.228E-01    0.418E-01
RMM:   3    -0.231886373847E+04   -0.19657E-03   -0.13424E-02  5617   0.819E-02    0.384E-01
RMM:   4    -0.231886239080E+04    0.13477E-02   -0.15106E-03  4819   0.229E-02    0.130E-01
RMM:   5    -0.231886242872E+04   -0.37922E-04   -0.71258E-04  4802   0.174E-02    0.134E-01
RMM:   6    -0.231886223348E+04    0.19524E-03   -0.51017E-04  5011   0.134E-02    0.681E-02
RMM:   7    -0.231886221053E+04    0.22949E-04   -0.13874E-04  3149   0.828E-03    0.546E-02
RMM:   8    -0.231886217427E+04    0.36264E-04   -0.39628E-05  2915   0.525E-03    0.133E-02
RMM:   9    -0.231886217173E+04    0.25373E-05   -0.79107E-06  2921   0.246E-03
  43 F= -.23402533E+04 E0= -.23402533E+04  d E =-.203156E-01  mag=     3.0000
       N       E                     dE             d eps       ncg     rms          rms(c)
DAV:   1    -0.231885930518E+04    0.28691E-02   -0.31210E+00  4504   0.147E+00    0.371E-01
RMM:   2    -0.231887452352E+04   -0.15218E-01   -0.15264E-01  6236   0.253E-01    0.413E-01
RMM:   3    -0.231887530984E+04   -0.78631E-03   -0.13820E-02  5783   0.857E-02    0.449E-01
RMM:   4    -0.231887347694E+04    0.18329E-02   -0.16273E-03  5036   0.242E-02    0.138E-01
RMM:   5    -0.231887362891E+04   -0.15197E-03   -0.84864E-04  4725   0.170E-02    0.179E-01
RMM:   6    -0.231887327587E+04    0.35304E-03   -0.60624E-04  4890   0.150E-02    0.488E-02
RMM:   7    -0.231887328047E+04   -0.46008E-05   -0.13294E-04  3256   0.899E-03    0.480E-02
RMM:   8    -0.231887324758E+04    0.32886E-04   -0.39775E-05  2919   0.459E-03    0.133E-02
RMM:   9    -0.231887324685E+04    0.73400E-06   -0.76480E-06  2920   0.258E-03
  44 F= -.23402649E+04 E0= -.23402649E+04  d E =-.116201E-01  mag=     3.0000
       N       E                     dE             d eps       ncg     rms          rms(c)
DAV:   1    -0.231885369746E+04    0.19550E-01   -0.55538E+00  4504   0.199E+00    0.497E-01
RMM:   2    -0.231888069803E+04   -0.27001E-01   -0.27079E-01  6207   0.344E-01    0.552E-01
RMM:   3    -0.231888212732E+04   -0.14293E-02   -0.24762E-02  5866   0.117E-01    0.601E-01
RMM:   4    -0.231887884622E+04    0.32811E-02   -0.28977E-03  5407   0.325E-02    0.184E-01
RMM:   5    -0.231887909290E+04   -0.24668E-03   -0.14719E-03  5200   0.220E-02    0.236E-01
RMM:   6    -0.231887848679E+04    0.60610E-03   -0.10653E-03  5218   0.195E-02    0.670E-02
RMM:   7    -0.231887849493E+04   -0.81352E-05   -0.24096E-04  3595   0.115E-02    0.649E-02
RMM:   8    -0.231887843667E+04    0.58258E-04   -0.72133E-05  2963   0.573E-03    0.181E-02
RMM:   9    -0.231887843762E+04   -0.95041E-06   -0.13569E-05  2941   0.330E-03
  45 F= -.23402708E+04 E0= -.23402708E+04  d E =-.175496E-01  mag=     3.0000
       N       E                     dE             d eps       ncg     rms          rms(c)
DAV:   1    -0.231887706417E+04    0.13725E-02   -0.20337E+00  4548   0.126E+00    0.304E-01
RMM:   2    -0.231888698815E+04   -0.99240E-02   -0.10414E-01  6091   0.216E-01    0.225E-01
RMM:   3    -0.231888757775E+04   -0.58961E-03   -0.10152E-02  5631   0.837E-02    0.241E-01
RMM:   4    -0.231888693948E+04    0.63827E-03   -0.10640E-03  5432   0.205E-02    0.101E-01
RMM:   5    -0.231888710449E+04   -0.16500E-03   -0.54317E-04  4592   0.143E-02    0.165E-01
RMM:   6    -0.231888687942E+04    0.22507E-03   -0.28053E-04  3530   0.102E-02    0.700E-02
RMM:   7    -0.231888685450E+04    0.24923E-04   -0.10834E-04  3149   0.768E-03    0.391E-02
RMM:   8    -0.231888683322E+04    0.21285E-04   -0.28290E-05  2909   0.495E-03    0.113E-02
RMM:   9    -0.231888683251E+04    0.70457E-06   -0.66450E-06  2921   0.234E-03
  46 F= -.23402796E+04 E0= -.23402796E+04  d E =-.870901E-02  mag=     3.0000
       N       E                     dE             d eps       ncg     rms          rms(c)
DAV:   1    -0.231886877514E+04    0.18058E-01   -0.51483E+00  4504   0.200E+00    0.482E-01
RMM:   2    -0.231889376840E+04   -0.24993E-01   -0.26231E-01  6061   0.345E-01    0.359E-01
RMM:   3    -0.231889521604E+04   -0.14476E-02   -0.25723E-02  5692   0.136E-01    0.383E-01
RMM:   4    -0.231889355845E+04    0.16576E-02   -0.26674E-03  6022   0.330E-02    0.153E-01
RMM:   5    -0.231889355880E+04   -0.34843E-06   -0.12268E-03  5243   0.221E-02    0.152E-01
RMM:   6    -0.231889353153E+04    0.27267E-04   -0.62252E-04  4626   0.147E-02    0.155E-01
RMM:   7    -0.231889336434E+04    0.16720E-03   -0.23885E-04  3392   0.899E-03    0.701E-02
RMM:   8    -0.231889330344E+04    0.60892E-04   -0.68802E-05  2924   0.617E-03    0.186E-02
RMM:   9    -0.231889329960E+04    0.38452E-05   -0.15618E-05  2953   0.293E-03
  47 F= -.23402865E+04 E0= -.23402865E+04  d E =-.156856E-01  mag=     3.0000
       N       E                     dE             d eps       ncg     rms          rms(c)
DAV:   1    -0.231889067575E+04    0.26277E-02   -0.61232E-01  4608   0.692E-01    0.167E-01
RMM:   2    -0.231889369427E+04   -0.30185E-02   -0.31569E-02  6092   0.119E-01    0.126E-01
RMM:   3    -0.231889385622E+04   -0.16195E-03   -0.29711E-03  5217   0.443E-02    0.132E-01
RMM:   4    -0.231889365482E+04    0.20139E-03   -0.30848E-04  3679   0.115E-02    0.527E-02
RMM:   5    -0.231889364152E+04    0.13308E-04   -0.14624E-04  3709   0.903E-03    0.374E-02
RMM:   6    -0.231889363488E+04    0.66309E-05   -0.69409E-05  3022   0.688E-03
  48 F= -.23402870E+04 E0= -.23402870E+04  d E =-.161992E-01  mag=     3.0000
       N       E                     dE             d eps       ncg     rms          rms(c)
DAV:   1    -0.231888626517E+04    0.73763E-02   -0.28104E+00  4504   0.153E+00    0.374E-01
RMM:   2    -0.231890161455E+04   -0.15349E-01   -0.16108E-01  6082   0.270E-01    0.271E-01
RMM:   3    -0.231890358867E+04   -0.19741E-02   -0.16196E-02  5571   0.103E-01    0.438E-01
RMM:   4    -0.231890185270E+04    0.17360E-02   -0.18600E-03  5355   0.250E-02    0.180E-01
RMM:   5    -0.231890175284E+04    0.99858E-04   -0.68592E-04  4405   0.148E-02    0.152E-01
RMM:   6    -0.231890152890E+04    0.22395E-03   -0.61547E-04  4552   0.166E-02    0.468E-02
RMM:   7    -0.231890152595E+04    0.29459E-05   -0.13074E-04  3324   0.112E-02    0.398E-02
RMM:   8    -0.231890150433E+04    0.21623E-04   -0.36035E-05  2914   0.416E-03    0.136E-02
RMM:   9    -0.231890150269E+04    0.16321E-05   -0.86656E-06  2920   0.288E-03
  49 F= -.23402951E+04 E0= -.23402951E+04  d E =-.809550E-02  mag=     3.0000
       N       E                     dE             d eps       ncg     rms          rms(c)
DAV:   1    -0.231888881066E+04    0.12694E-01   -0.27372E+00  4504   0.150E+00    0.368E-01
RMM:   2    -0.231890370240E+04   -0.14892E-01   -0.15661E-01  6143   0.264E-01    0.262E-01
RMM:   3    -0.231890544744E+04   -0.17450E-02   -0.15357E-02  5569   0.100E-01    0.407E-01
RMM:   4    -0.231890393198E+04    0.15155E-02   -0.17992E-03  5330   0.244E-02    0.181E-01
RMM:   5    -0.231890382260E+04    0.10939E-03   -0.64047E-04  4310   0.144E-02    0.152E-01
RMM:   6    -0.231890359495E+04    0.22764E-03   -0.60161E-04  4513   0.165E-02    0.441E-02
RMM:   7    -0.231890359341E+04    0.15434E-05   -0.12485E-04  3309   0.111E-02    0.387E-02
RMM:   8    -0.231890357263E+04    0.20777E-04   -0.35214E-05  2912   0.408E-03    0.133E-02
RMM:   9    -0.231890357087E+04    0.17608E-05   -0.87564E-06  2921   0.289E-03
  50 F= -.23402974E+04 E0= -.23402974E+04  d E =-.103914E-01  mag=     3.0000
       N       E                     dE             d eps       ncg     rms          rms(c)
DAV:   1    -0.231889117467E+04    0.12398E-01   -0.36272E+00  4504   0.169E+00    0.392E-01
RMM:   2    -0.231890971052E+04   -0.18536E-01   -0.20134E-01  6069   0.288E-01    0.216E-01
RMM:   3    -0.231891060156E+04   -0.89103E-03   -0.18322E-02  5362   0.122E-01    0.192E-01
RMM:   4    -0.231891072505E+04   -0.12349E-03   -0.20512E-03  5433   0.245E-02    0.214E-01
RMM:   5    -0.231891057501E+04    0.15003E-03   -0.93166E-04  4702   0.181E-02    0.175E-01
RMM:   6    -0.231891033331E+04    0.24170E-03   -0.44620E-04  4021   0.132E-02    0.833E-02
RMM:   7    -0.231891026408E+04    0.69232E-04   -0.98315E-05  3255   0.781E-03    0.285E-02
RMM:   8    -0.231891026051E+04    0.35762E-05   -0.30982E-05  2956   0.511E-03
  51 F= -.23403043E+04 E0= -.23403043E+04  d E =-.688106E-02  mag=     3.0000
       N       E                     dE             d eps       ncg     rms          rms(c)
DAV:   1    -0.231890685081E+04    0.34133E-02   -0.76877E-01  4592   0.772E-01    0.181E-01
RMM:   2    -0.231891079549E+04   -0.39447E-02   -0.42773E-02  6169   0.132E-01    0.101E-01
RMM:   3    -0.231891099708E+04   -0.20159E-03   -0.38364E-03  4952   0.525E-02    0.982E-02
RMM:   4    -0.231891101842E+04   -0.21342E-04   -0.42979E-04  3348   0.114E-02    0.104E-01
RMM:   5    -0.231891096438E+04    0.54036E-04   -0.19080E-04  3432   0.935E-03    0.689E-02
RMM:   6    -0.231891092996E+04    0.34426E-04   -0.10501E-04  3036   0.769E-03    0.380E-02
RMM:   7    -0.231891091870E+04    0.11259E-04   -0.26031E-05  2952   0.521E-03    0.158E-02
RMM:   8    -0.231891091727E+04    0.14284E-05   -0.83100E-06  2886   0.330E-03
  52 F= -.23403051E+04 E0= -.23403051E+04  d E =-.762792E-02  mag=     3.0000
       N       E                     dE             d eps       ncg     rms          rms(c)
DAV:   1    -0.231889893191E+04    0.11987E-01   -0.38351E+00  4504   0.172E+00    0.422E-01
RMM:   2    -0.231891850611E+04   -0.19574E-01   -0.20013E-01  6051   0.297E-01    0.376E-01
RMM:   3    -0.231891998092E+04   -0.14748E-02   -0.18736E-02  5617   0.117E-01    0.479E-01
RMM:   4    -0.231891792840E+04    0.20525E-02   -0.23114E-03  5365   0.289E-02    0.207E-01
RMM:   5    -0.231891781022E+04    0.11818E-03   -0.96315E-04  4920   0.193E-02    0.185E-01
RMM:   6    -0.231891743467E+04    0.37554E-03   -0.83075E-04  4552   0.184E-02    0.664E-02
RMM:   7    -0.231891742485E+04    0.98206E-05   -0.24228E-04  3619   0.138E-02    0.572E-02
RMM:   8    -0.231891738244E+04    0.42417E-04   -0.59985E-05  3050   0.531E-03    0.143E-02
RMM:   9    -0.231891737838E+04    0.40565E-05   -0.10606E-05  2935   0.338E-03
  53 F= -.23403116E+04 E0= -.23403116E+04  d E =-.652127E-02  mag=     3.0000
       N       E                     dE             d eps       ncg     rms          rms(c)
DAV:   1    -0.231891696148E+04    0.42095E-03   -0.12322E-01  4848   0.313E-01    0.760E-02
RMM:   2    -0.231891759518E+04   -0.63369E-03   -0.64172E-03  6066   0.536E-02    0.731E-02
RMM:   3    -0.231891763642E+04   -0.41245E-04   -0.59646E-04  3507   0.212E-02    0.889E-02
RMM:   4    -0.231891756672E+04    0.69701E-04   -0.76341E-05  2998   0.634E-03    0.369E-02
RMM:   5    -0.231891756240E+04    0.43240E-05   -0.32396E-05  2928   0.432E-03
  54 F= -.23403118E+04 E0= -.23403118E+04  d E =-.671652E-02  mag=     3.0000
       N       E                     dE             d eps       ncg     rms          rms(c)
DAV:   1    -0.231890354336E+04    0.14023E-01   -0.40098E+00  4504   0.174E+00    0.410E-01
RMM:   2    -0.231892824886E+04   -0.24706E-01   -0.23743E-01  6415   0.309E-01    0.531E-01
RMM:   3    -0.231892802810E+04    0.22077E-03   -0.22476E-02  5925   0.107E-01    0.438E-01
RMM:   4    -0.231892666000E+04    0.13681E-02   -0.26546E-03  5210   0.280E-02    0.229E-01
RMM:   5    -0.231892628209E+04    0.37791E-03   -0.82570E-04  4857   0.161E-02    0.153E-01
RMM:   6    -0.231892601876E+04    0.26333E-03   -0.68251E-04  4395   0.178E-02    0.348E-02
RMM:   7    -0.231892601754E+04    0.12190E-05   -0.91162E-05  3348   0.119E-02
  55 F= -.23403202E+04 E0= -.23403202E+04  d E =-.845891E-02  mag=     3.0000
       N       E                     dE             d eps       ncg     rms          rms(c)
DAV:   1    -0.231883847160E+04    0.87547E-01   -0.16548E+01  4504   0.354E+00    0.841E-01
RMM:   2    -0.231894127151E+04   -0.10280E+00   -0.98784E-01  6380   0.644E-01    0.109E+00
RMM:   3    -0.231894067331E+04    0.59820E-03   -0.94808E-02  5999   0.225E-01    0.897E-01
RMM:   4    -0.231893486392E+04    0.58094E-02   -0.11063E-02  5836   0.579E-02    0.462E-01
RMM:   5    -0.231893330785E+04    0.15561E-02   -0.34467E-03  5798   0.314E-02    0.314E-01
RMM:   6    -0.231893220745E+04    0.11004E-02   -0.26098E-03  4601   0.339E-02    0.821E-02
RMM:   7    -0.231893222050E+04   -0.13050E-04   -0.49394E-04  4289   0.223E-02    0.562E-02
RMM:   8    -0.231893220882E+04    0.11684E-04   -0.12449E-04  3468   0.705E-03    0.396E-02
RMM:   9    -0.231893219528E+04    0.13536E-04   -0.26317E-05  2926   0.511E-03    0.180E-02
RMM:  10    -0.231893220033E+04   -0.50488E-05   -0.24618E-05  2960   0.383E-03
  56 F= -.23403264E+04 E0= -.23403264E+04  d E =-.146675E-01  mag=     3.0000
       N       E                     dE             d eps       ncg     rms          rms(c)
DAV:   1    -0.231892473612E+04    0.74592E-02   -0.25049E+00  4528   0.136E+00    0.311E-01
RMM:   2    -0.231893806970E+04   -0.13334E-01   -0.13756E-01  6352   0.236E-01    0.258E-01
RMM:   3    -0.231893915033E+04   -0.10806E-02   -0.12312E-02  5718   0.803E-02    0.342E-01
RMM:   4    -0.231893811379E+04    0.10365E-02   -0.13736E-03  4636   0.208E-02    0.153E-01
RMM:   5    -0.231893809007E+04    0.23727E-04   -0.52120E-04  3917   0.128E-02    0.146E-01
RMM:   6    -0.231893786498E+04    0.22509E-03   -0.43179E-04  4321   0.142E-02    0.345E-02
RMM:   7    -0.231893786644E+04   -0.14594E-05   -0.78714E-05  3157   0.886E-03
  57 F= -.23403320E+04 E0= -.23403320E+04  d E =-.554548E-02  mag=     3.0000
       N       E                     dE             d eps       ncg     rms          rms(c)
DAV:   1    -0.231882256545E+04    0.11530E+00   -0.22430E+01  4504   0.406E+00    0.950E-01
RMM:   2    -0.231894646514E+04   -0.12390E+00   -0.12726E+00  6334   0.697E-01    0.833E-01
RMM:   3    -0.231895627534E+04   -0.98102E-02   -0.11568E-01  5932   0.254E-01    0.105E+00
RMM:   4    -0.231894653742E+04    0.97379E-02   -0.12794E-02  6100   0.631E-02    0.468E-01
RMM:   5    -0.231894626517E+04    0.27225E-03   -0.47208E-03  5753   0.342E-02    0.448E-01
RMM:   6    -0.231894425165E+04    0.20135E-02   -0.35446E-03  5063   0.363E-02    0.123E-01
RMM:   7    -0.231894417622E+04    0.75430E-04   -0.81812E-04  4517   0.226E-02    0.449E-02
RMM:   8    -0.231894417184E+04    0.43808E-05   -0.10409E-04  3407   0.815E-03    0.378E-02
RMM:   9    -0.231894416347E+04    0.83652E-05   -0.44674E-05  2950   0.556E-03
  58 F= -.23403379E+04 E0= -.23403379E+04  d E =-.115004E-01  mag=     3.0000
       N       E                     dE             d eps       ncg     rms          rms(c)
DAV:   1    -0.231893248106E+04    0.11691E-01   -0.37850E+00  4528   0.164E+00    0.391E-01
RMM:   2    -0.231895088743E+04   -0.18406E-01   -0.19630E-01  6010   0.279E-01    0.226E-01
RMM:   3    -0.231895215341E+04   -0.12660E-02   -0.18021E-02  5467   0.111E-01    0.331E-01
RMM:   4    -0.231895140323E+04    0.75018E-03   -0.18549E-03  5222   0.238E-02    0.171E-01
RMM:   5    -0.231895145069E+04   -0.47463E-04   -0.86791E-04  4640   0.172E-02    0.173E-01
RMM:   6    -0.231895114801E+04    0.30268E-03   -0.61797E-04  4701   0.150E-02    0.620E-02
RMM:   7    -0.231895110808E+04    0.39930E-04   -0.60106E-05  3024   0.628E-03    0.174E-02
RMM:   8    -0.231895110959E+04   -0.15070E-05   -0.15211E-05  2950   0.383E-03
  59 F= -.23403445E+04 E0= -.23403445E+04  d E =-.658632E-02  mag=     3.0000
       N       E                     dE             d eps       ncg     rms          rms(c)
DAV:   1    -0.231892610370E+04    0.25004E-01   -0.59008E+00  4504   0.205E+00    0.490E-01
RMM:   2    -0.231895520586E+04   -0.29102E-01   -0.30990E-01  6023   0.342E-01    0.290E-01
RMM:   3    -0.231895746850E+04   -0.22626E-02   -0.28422E-02  5474   0.134E-01    0.458E-01
RMM:   4    -0.231895589555E+04    0.15730E-02   -0.29376E-03  5737   0.295E-02    0.203E-01
RMM:   5    -0.231895597753E+04   -0.81976E-04   -0.13607E-03  4726   0.206E-02    0.214E-01
RMM:   6    -0.231895553952E+04    0.43801E-03   -0.10090E-03  5176   0.184E-02    0.821E-02
RMM:   7    -0.231895547260E+04    0.66919E-04   -0.11880E-04  3197   0.760E-03    0.313E-02
RMM:   8    -0.231895546810E+04    0.45042E-05   -0.37939E-05  2937   0.508E-03
  60 F= -.23403484E+04 E0= -.23403484E+04  d E =-.104967E-01  mag=     3.0000
       N       E                     dE             d eps       ncg     rms          rms(c)
DAV:   1    -0.231895024697E+04    0.52256E-02   -0.26901E+00  4516   0.139E+00    0.349E-01
RMM:   2    -0.231896382150E+04   -0.13575E-01   -0.14538E-01  6161   0.248E-01    0.202E-01
RMM:   3    -0.231896513075E+04   -0.13093E-02   -0.13849E-02  5566   0.977E-02    0.329E-01
RMM:   4    -0.231896430911E+04    0.82164E-03   -0.14373E-03  4829   0.216E-02    0.140E-01
RMM:   5    -0.231896428818E+04    0.20932E-04   -0.69752E-04  4628   0.163E-02    0.119E-01
RMM:   6    -0.231896416315E+04    0.12503E-03   -0.37430E-04  4127   0.130E-02    0.641E-02
RMM:   7    -0.231896411875E+04    0.44398E-04   -0.63495E-05  3006   0.632E-03    0.240E-02
RMM:   8    -0.231896411658E+04    0.21721E-05   -0.21468E-05  2904   0.438E-03
  61 F= -.23403566E+04 E0= -.23403566E+04  d E =-.816247E-02  mag=     3.0000
       N       E                     dE             d eps       ncg     rms          rms(c)
DAV:   1    -0.231894406624E+04    0.20053E-01   -0.48065E+00  4504   0.187E+00    0.469E-01
RMM:   2    -0.231896847462E+04   -0.24408E-01   -0.26158E-01  6151   0.326E-01    0.269E-01
RMM:   3    -0.231897068798E+04   -0.22134E-02   -0.24084E-02  5704   0.123E-01    0.433E-01
RMM:   4    -0.231896928381E+04    0.14042E-02   -0.25339E-03  5555   0.278E-02    0.189E-01
RMM:   5    -0.231896922574E+04    0.58069E-04   -0.12578E-03  4843   0.212E-02    0.157E-01
RMM:   6    -0.231896900226E+04    0.22348E-03   -0.66303E-04  4940   0.167E-02    0.862E-02
RMM:   7    -0.231896892052E+04    0.81737E-04   -0.11675E-04  3185   0.718E-03    0.356E-02
RMM:   8    -0.231896891113E+04    0.93917E-05   -0.39494E-05  2921   0.527E-03
  62 F= -.23403608E+04 E0= -.23403608E+04  d E =-.123108E-01  mag=     3.0000
       N       E                     dE             d eps       ncg     rms          rms(c)
DAV:   1    -0.231896298446E+04    0.59361E-02   -0.27402E+00  4516   0.134E+00    0.337E-01
RMM:   2    -0.231897493664E+04   -0.11952E-01   -0.12550E-01  6208   0.231E-01    0.240E-01
RMM:   3    -0.231897648776E+04   -0.15511E-02   -0.10674E-02  5581   0.824E-02    0.414E-01
RMM:   4    -0.231897492256E+04    0.15652E-02   -0.13537E-03  4911   0.216E-02    0.131E-01
RMM:   5    -0.231897509809E+04   -0.17553E-03   -0.70368E-04  4611   0.147E-02    0.176E-01
RMM:   6    -0.231897475335E+04    0.34474E-03   -0.50258E-04  4659   0.138E-02    0.341E-02
RMM:   7    -0.231897475006E+04    0.32915E-05   -0.54599E-05  3059   0.791E-03
  63 F= -.23403661E+04 E0= -.23403661E+04  d E =-.531332E-02  mag=     3.0000
       N       E                     dE             d eps       ncg     rms          rms(c)
DAV:   1    -0.231896234950E+04    0.12404E-01   -0.32400E+00  4504   0.146E+00    0.367E-01
RMM:   2    -0.231897660235E+04   -0.14253E-01   -0.14925E-01  6225   0.240E-01    0.269E-01
RMM:   3    -0.231897850828E+04   -0.19059E-02   -0.12913E-02  5628   0.862E-02    0.462E-01
RMM:   4    -0.231897654128E+04    0.19670E-02   -0.16162E-03  5063   0.229E-02    0.143E-01
RMM:   5    -0.231897670055E+04   -0.15927E-03   -0.82280E-04  4607   0.153E-02    0.186E-01
RMM:   6    -0.231897634418E+04    0.35638E-03   -0.59787E-04  4669   0.149E-02    0.430E-02
RMM:   7    -0.231897634662E+04   -0.24463E-05   -0.10086E-04  3073   0.926E-03    0.332E-02
RMM:   8    -0.231897633391E+04    0.12708E-04   -0.32128E-05  2942   0.396E-03    0.156E-02
RMM:   9    -0.231897633390E+04    0.10157E-07   -0.73494E-06  2897   0.265E-03
  64 F= -.23403671E+04 E0= -.23403671E+04  d E =-.632888E-02  mag=     3.0000
       N       E                     dE             d eps       ncg     rms          rms(c)
DAV:   1    -0.231897514194E+04    0.11920E-02   -0.28672E-01  4624   0.425E-01    0.108E-01
RMM:   2    -0.231897639426E+04   -0.12523E-02   -0.13235E-02  6190   0.715E-02    0.698E-02
RMM:   3    -0.231897653471E+04   -0.14045E-03   -0.11228E-03  3896   0.257E-02    0.119E-01
RMM:   4    -0.231897640694E+04    0.12777E-03   -0.13276E-04  2997   0.755E-03    0.428E-02
RMM:   5    -0.231897642539E+04   -0.18453E-04   -0.74505E-05  3019   0.547E-03    0.583E-02
RMM:   6    -0.231897638699E+04    0.38407E-04   -0.52399E-05  3009   0.564E-03    0.107E-02
RMM:   7    -0.231897638700E+04   -0.15396E-07   -0.76166E-06  2907   0.353E-03
  65 F= -.23403673E+04 E0= -.23403673E+04  d E =-.655081E-02  mag=     3.0000
       N       E                     dE             d eps       ncg     rms          rms(c)
DAV:   1    -0.231896814655E+04    0.82404E-02   -0.35217E+00  4528   0.148E+00    0.379E-01
RMM:   2    -0.231898403969E+04   -0.15893E-01   -0.15663E-01  6139   0.259E-01    0.398E-01
RMM:   3    -0.231898459217E+04   -0.55248E-03   -0.14589E-02  5739   0.994E-02    0.424E-01
RMM:   4    -0.231898311401E+04    0.14782E-02   -0.18079E-03  5128   0.255E-02    0.199E-01
RMM:   5    -0.231898292921E+04    0.18479E-03   -0.77141E-04  4605   0.166E-02    0.160E-01
RMM:   6    -0.231898271510E+04    0.21411E-03   -0.61086E-04  4481   0.154E-02    0.754E-02
RMM:   7    -0.231898268715E+04    0.27950E-04   -0.23466E-04  3324   0.125E-02    0.535E-02
RMM:   8    -0.231898265034E+04    0.36811E-04   -0.53404E-05  3004   0.537E-03    0.131E-02
RMM:   9    -0.231898264732E+04    0.30130E-05   -0.97280E-06  2926   0.318E-03
  66 F= -.23403730E+04 E0= -.23403730E+04  d E =-.565285E-02  mag=     3.0000
       N       E                     dE             d eps       ncg     rms          rms(c)
DAV:   1    -0.231897974398E+04    0.29064E-02   -0.10609E+00  4528   0.827E-01    0.208E-01
RMM:   2    -0.231898448108E+04   -0.47371E-02   -0.46631E-02  6201   0.141E-01    0.219E-01
RMM:   3    -0.231898465272E+04   -0.17164E-03   -0.42993E-03  5372   0.526E-02    0.236E-01
RMM:   4    -0.231898419524E+04    0.45748E-03   -0.54274E-04  3748   0.143E-02    0.109E-01
RMM:   5    -0.231898413965E+04    0.55593E-04   -0.23261E-04  3329   0.100E-02    0.876E-02
RMM:   6    -0.231898407344E+04    0.66210E-04   -0.19087E-04  3851   0.968E-03    0.395E-02
RMM:   7    -0.231898406609E+04    0.73501E-05   -0.68498E-05  2985   0.749E-03
  67 F= -.23403740E+04 E0= -.23403740E+04  d E =-.674004E-02  mag=     3.0000
       N       E                     dE             d eps       ncg     rms          rms(c)
DAV:   1    -0.231898012990E+04    0.39435E-02   -0.21007E+00  4528   0.119E+00    0.334E-01
RMM:   2    -0.231898999325E+04   -0.98633E-02   -0.99844E-02  6150   0.210E-01    0.296E-01
RMM:   3    -0.231899077729E+04   -0.78405E-03   -0.10321E-02  5706   0.831E-02    0.375E-01
RMM:   4    -0.231898956520E+04    0.12121E-02   -0.13076E-03  5122   0.216E-02    0.179E-01
[...]
RMM:   3    -0.231922672309E+04   -0.76994E-05   -0.12871E-04  3440   0.139E-02    0.539E-02
RMM:   4    -0.231922669083E+04    0.32256E-04   -0.31622E-05  2938   0.507E-03    0.175E-02
RMM:   5    -0.231922669705E+04   -0.62192E-05   -0.22045E-05  2938   0.384E-03
 262 F= -.23405561E+04 E0= -.23405561E+04  d E =-.212450E-03  mag=     3.0000
       N       E                     dE             d eps       ncg     rms          rms(c)
DAV:   1    -0.231922666502E+04    0.25815E-04   -0.30415E-02  4608   0.140E-01    0.457E-02
RMM:   2    -0.231922676058E+04   -0.95559E-04   -0.85211E-04  5419   0.238E-02    0.526E-02
RMM:   3    -0.231922675596E+04    0.46169E-05   -0.91622E-05  3081   0.989E-03
 263 F= -.23405561E+04 E0= -.23405561E+04  d E =-.255545E-03  mag=     3.0000
       N       E                     dE             d eps       ncg     rms          rms(c)
DAV:   1    -0.231922669496E+04    0.65616E-04   -0.58563E-02  4548   0.198E-01    0.659E-02
RMM:   2    -0.231922693399E+04   -0.23903E-03   -0.22782E-03  5882   0.346E-02    0.714E-02
RMM:   3    -0.231922691262E+04    0.21366E-04   -0.22672E-04  3169   0.133E-02    0.682E-02
RMM:   4    -0.231922687958E+04    0.33041E-04   -0.50137E-05  2956   0.537E-03    0.417E-02
RMM:   5    -0.231922686331E+04    0.16275E-04   -0.26375E-05  2915   0.372E-03    0.216E-02
RMM:   6    -0.231922686465E+04   -0.13454E-05   -0.20300E-05  2921   0.357E-03
 264 F= -.23405562E+04 E0= -.23405562E+04  d E =-.119859E-03  mag=     3.0000
       N       E                     dE             d eps       ncg     rms          rms(c)
DAV:   1    -0.231922683097E+04    0.32340E-04   -0.68573E-03  5064   0.677E-02    0.211E-02
RMM:   2    -0.231922685652E+04   -0.25557E-04   -0.27029E-04  4253   0.130E-02    0.176E-02
RMM:   3    -0.231922686204E+04   -0.55182E-05   -0.32503E-05  2924   0.668E-03
 265 F= -.23405562E+04 E0= -.23405562E+04  d E =-.121181E-03  mag=     3.0000
       N       E                     dE             d eps       ncg     rms          rms(c)
DAV:   1    -0.231922689472E+04   -0.38192E-04   -0.46669E-02  4548   0.186E-01    0.644E-02
RMM:   2    -0.231922707522E+04   -0.18050E-03   -0.17677E-03  5782   0.320E-02    0.646E-02
RMM:   3    -0.231922709171E+04   -0.16489E-04   -0.18369E-04  3274   0.133E-02    0.822E-02
RMM:   4    -0.231922702630E+04    0.65406E-04   -0.39604E-05  2940   0.513E-03    0.223E-02
RMM:   5    -0.231922702500E+04    0.13029E-05   -0.21622E-05  2926   0.373E-03
 266 F= -.23405564E+04 E0= -.23405564E+04  d E =-.142124E-03  mag=     3.0000
       N       E                     dE             d eps       ncg     rms          rms(c)
DAV:   1    -0.231922701415E+04    0.12153E-04   -0.24120E-03  5360   0.426E-02    0.156E-02
RMM:   2    -0.231922702398E+04   -0.98328E-05   -0.93898E-05  3294   0.861E-03
 267 F= -.23405564E+04 E0= -.23405564E+04  d E =-.136223E-03  mag=     3.0000
       N       E                     dE             d eps       ncg     rms          rms(c)
DAV:   1    -0.231922702107E+04   -0.69214E-05   -0.56589E-04  4568   0.218E-02    0.131E-02
RMM:   2    -0.231922703845E+04   -0.17380E-04   -0.47245E-05  2909   0.531E-03    0.371E-02
RMM:   3    -0.231922702168E+04    0.16773E-04   -0.11136E-05  2510   0.349E-03    0.332E-03
RMM:   4    -0.231922702214E+04   -0.46525E-06   -0.16436E-06  2148   0.116E-03
 268 F= -.23405564E+04 E0= -.23405564E+04  d E =-.136646E-03  mag=     3.0000
       N       E                     dE             d eps       ncg     rms          rms(c)
DAV:   1    -0.231922710143E+04   -0.79750E-04   -0.19131E-02  4528   0.123E-01    0.422E-02
RMM:   2    -0.231922715145E+04   -0.50024E-04   -0.58914E-04  5371   0.201E-02    0.242E-02
RMM:   3    -0.231922717464E+04   -0.23184E-04   -0.71575E-05  2992   0.105E-02    0.585E-02
RMM:   4    -0.231922714253E+04    0.32103E-04   -0.15408E-05  2906   0.334E-03    0.101E-02
RMM:   5    -0.231922714148E+04    0.10490E-05   -0.81304E-06  2907   0.271E-03
 269 F= -.23405565E+04 E0= -.23405565E+04  d E =-.907057E-04  mag=     3.0000
       N       E                     dE             d eps       ncg     rms          rms(c)
DAV:   1    -0.231922714445E+04   -0.19227E-05   -0.59981E-04  5184   0.222E-02    0.841E-03
RMM:   2    -0.231922714662E+04   -0.21609E-05   -0.21283E-05  2759   0.479E-03
 270 F= -.23405565E+04 E0= -.23405565E+04  d E =-.906550E-04  mag=     3.0000
       N       E                     dE             d eps       ncg     rms          rms(c)
DAV:   1    -0.231922716324E+04   -0.18781E-04   -0.17188E-02  4560   0.116E-01    0.383E-02
RMM:   2    -0.231922726996E+04   -0.10672E-03   -0.85746E-04  5867   0.222E-02    0.616E-02
RMM:   3    -0.231922724525E+04    0.24705E-04   -0.96967E-05  2964   0.905E-03    0.348E-02
RMM:   4    -0.231922723407E+04    0.11179E-04   -0.12892E-05  2914   0.344E-03    0.144E-02
RMM:   5    -0.231922723340E+04    0.67669E-06   -0.82173E-06  2848   0.253E-03
 271 F= -.23405565E+04 E0= -.23405565E+04  d E =-.828917E-04  mag=     3.0000
       N       E                     dE             d eps       ncg     rms          rms(c)
DAV:   1    -0.231922721211E+04    0.21967E-04   -0.57142E-03  4752   0.667E-02    0.216E-02
RMM:   2    -0.231922724025E+04   -0.28148E-04   -0.27671E-04  4673   0.126E-02    0.229E-02
RMM:   3    -0.231922724186E+04   -0.16073E-05   -0.32045E-05  2905   0.635E-03
 272 F= -.23405565E+04 E0= -.23405565E+04  d E =-.891204E-04  mag=     3.0000
       N       E                     dE             d eps       ncg     rms          rms(c)
DAV:   1    -0.231922723966E+04    0.59334E-06   -0.13753E-02  4528   0.100E-01    0.302E-02
RMM:   2    -0.231922730960E+04   -0.69938E-04   -0.66291E-04  5714   0.183E-02    0.371E-02
RMM:   3    -0.231922730473E+04    0.48652E-05   -0.63210E-05  2939   0.704E-03
 273 F= -.23405566E+04 E0= -.23405566E+04  d E =-.710753E-04  mag=     3.0000
       N       E                     dE             d eps       ncg     rms          rms(c)
DAV:   1    -0.231922723844E+04    0.71162E-04   -0.17843E-02  4560   0.114E-01    0.376E-02
RMM:   2    -0.231922732377E+04   -0.85336E-04   -0.84757E-04  5835   0.205E-02    0.416E-02
RMM:   3    -0.231922731505E+04    0.87170E-05   -0.88104E-05  2949   0.783E-03
 274 F= -.23405566E+04 E0= -.23405566E+04  d E =-.908776E-04  mag=     3.0000
       N       E                     dE             d eps       ncg     rms          rms(c)
DAV:   1    -0.231922736291E+04   -0.39136E-04   -0.17225E-02  4528   0.110E-01    0.385E-02
RMM:   2    -0.231922742650E+04   -0.63592E-04   -0.54287E-04  5243   0.188E-02    0.518E-02
RMM:   3    -0.231922741181E+04    0.14693E-04   -0.59996E-05  2958   0.824E-03    0.405E-02
RMM:   4    -0.231922739904E+04    0.12763E-04   -0.17796E-05  2913   0.346E-03    0.216E-02
RMM:   5    -0.231922739490E+04    0.41455E-05   -0.96106E-06  2771   0.246E-03
 275 F= -.23405567E+04 E0= -.23405567E+04  d E =-.776375E-04  mag=     3.0000
       N       E                     dE             d eps       ncg     rms          rms(c)
DAV:   1    -0.231922738652E+04    0.12527E-04   -0.92756E-03  4608   0.804E-02    0.272E-02
RMM:   2    -0.231922742752E+04   -0.40998E-04   -0.29981E-04  4684   0.138E-02    0.394E-02
RMM:   3    -0.231922741078E+04    0.16733E-04   -0.38153E-05  2939   0.710E-03    0.218E-02
RMM:   4    -0.231922740955E+04    0.12344E-05   -0.84312E-06  2864   0.243E-03
 276 F= -.23405567E+04 E0= -.23405567E+04  d E =-.907281E-04  mag=     3.0000
       N       E                     dE             d eps       ncg     rms          rms(c)
DAV:   1    -0.231922743115E+04   -0.20370E-04   -0.20490E-02  4528   0.118E-01    0.356E-02
RMM:   2    -0.231922749682E+04   -0.65672E-04   -0.75397E-04  5666   0.200E-02    0.211E-02
RMM:   3    -0.231922750198E+04   -0.51596E-05   -0.67771E-05  2937   0.874E-03
 277 F= -.23405568E+04 E0= -.23405568E+04  d E =-.914506E-04  mag=     3.0000
       N       E                     dE             d eps       ncg     rms          rms(c)
DAV:   1    -0.231922747070E+04    0.26120E-04   -0.13041E-02  4528   0.944E-02    0.329E-02
RMM:   2    -0.231922751288E+04   -0.42176E-04   -0.48823E-04  5319   0.165E-02    0.267E-02
RMM:   3    -0.231922752486E+04   -0.11980E-04   -0.55012E-05  2935   0.754E-03    0.461E-02
RMM:   4    -0.231922750456E+04    0.20298E-04   -0.12729E-05  2909   0.305E-03    0.104E-02
RMM:   5    -0.231922750387E+04    0.68988E-06   -0.75737E-06  2894   0.236E-03
 278 F= -.23405568E+04 E0= -.23405568E+04  d E =-.926480E-04  mag=     3.0000
       N       E                     dE             d eps       ncg     rms          rms(c)
DAV:   1    -0.231922749534E+04    0.92191E-05   -0.26450E-02  4548   0.134E-01    0.411E-02
RMM:   2    -0.231922761633E+04   -0.12098E-03   -0.11407E-03  5757   0.236E-02    0.503E-02
RMM:   3    -0.231922761208E+04    0.42424E-05   -0.11852E-04  2989   0.105E-02    0.476E-02
RMM:   4    -0.231922758965E+04    0.22439E-04   -0.13528E-05  2921   0.333E-03    0.120E-02
RMM:   5    -0.231922759056E+04   -0.91459E-06   -0.10240E-05  2890   0.260E-03
 279 F= -.23405569E+04 E0= -.23405569E+04  d E =-.111905E-03  mag=     3.0000
       N       E                     dE             d eps       ncg     rms          rms(c)
DAV:   1    -0.231922753285E+04    0.56792E-04   -0.14539E-02  4560   0.992E-02    0.305E-02
RMM:   2    -0.231922759447E+04   -0.61618E-04   -0.62712E-04  5410   0.178E-02    0.302E-02
RMM:   3    -0.231922760043E+04   -0.59606E-05   -0.70018E-05  2951   0.828E-03
 280 F= -.23405570E+04 E0= -.23405570E+04  d E =-.140665E-03  mag=     3.0000
       N       E                     dE             d eps       ncg     rms          rms(c)
DAV:   1    -0.231922757165E+04    0.22817E-04   -0.22934E-02  4516   0.125E-01    0.415E-02
RMM:   2    -0.231922765643E+04   -0.84777E-04   -0.89225E-04  5545   0.221E-02    0.365E-02
RMM:   3    -0.231922766736E+04   -0.10926E-04   -0.81700E-05  2955   0.887E-03    0.522E-02
RMM:   4    -0.231922764200E+04    0.25356E-04   -0.17330E-05  2914   0.361E-03    0.186E-02
RMM:   5    -0.231922764118E+04    0.81744E-06   -0.11776E-05  2835   0.257E-03
 281 F= -.23405570E+04 E0= -.23405570E+04  d E =-.718622E-04  mag=     3.0000
       N       E                     dE             d eps       ncg     rms          rms(c)
DAV:   1    -0.231922760881E+04    0.33194E-04   -0.52947E-03  4840   0.600E-02    0.200E-02
RMM:   2    -0.231922763004E+04   -0.21237E-04   -0.20129E-04  3888   0.111E-02    0.204E-02
RMM:   3    -0.231922762852E+04    0.15249E-05   -0.24522E-05  2912   0.634E-03
 282 F= -.23405570E+04 E0= -.23405570E+04  d E =-.744168E-04  mag=     3.0000
       N       E                     dE             d eps       ncg     rms          rms(c)
DAV:   1    -0.231922763892E+04   -0.88759E-05   -0.27819E-02  4548   0.132E-01    0.449E-02
RMM:   2    -0.231922773958E+04   -0.10066E-03   -0.89033E-04  5536   0.221E-02    0.563E-02
RMM:   3    -0.231922773179E+04    0.77923E-05   -0.10139E-04  2978   0.981E-03    0.515E-02
RMM:   4    -0.231922770567E+04    0.26121E-04   -0.14942E-05  2918   0.361E-03    0.130E-02
RMM:   5    -0.231922770930E+04   -0.36376E-05   -0.14205E-05  2917   0.293E-03
 283 F= -.23405571E+04 E0= -.23405571E+04  d E =-.804880E-04  mag=     3.0000
       N       E                     dE             d eps       ncg     rms          rms(c)
DAV:   1    -0.231922768579E+04    0.19881E-04   -0.63666E-03  4704   0.637E-02    0.212E-02
RMM:   2    -0.231922770643E+04   -0.20640E-04   -0.21244E-04  3869   0.120E-02    0.181E-02
RMM:   3    -0.231922770872E+04   -0.22997E-05   -0.23043E-05  2910   0.627E-03
 284 F= -.23405571E+04 E0= -.23405571E+04  d E =-.798202E-04  mag=     3.0000
       N       E                     dE             d eps       ncg     rms          rms(c)
DAV:   1    -0.231922774018E+04   -0.33753E-04   -0.14778E-02  4528   0.926E-02    0.292E-02
RMM:   2    -0.231922779665E+04   -0.56471E-04   -0.60450E-04  5325   0.167E-02    0.248E-02
RMM:   3    -0.231922779568E+04    0.97029E-06   -0.58921E-05  2928   0.698E-03
 285 F= -.23405572E+04 E0= -.23405572E+04  d E =-.711352E-04  mag=     3.0000
       N       E                     dE             d eps       ncg     rms          rms(c)
DAV:   1    -0.231922775293E+04    0.43721E-04   -0.28750E-02  4528   0.129E-01    0.429E-02
RMM:   2    -0.231922791169E+04   -0.15876E-03   -0.12108E-03  5779   0.226E-02    0.795E-02
RMM:   3    -0.231922786009E+04    0.51591E-04   -0.13560E-04  2949   0.894E-03    0.341E-02
RMM:   4    -0.231922785140E+04    0.86898E-05   -0.19854E-05  2966   0.334E-03
 286 F= -.23405572E+04 E0= -.23405572E+04  d E =-.104915E-03  mag=     3.0000
       N       E                     dE             d eps       ncg     rms          rms(c)
DAV:   1    -0.231922789930E+04   -0.39201E-04   -0.15605E-02  4528   0.103E-01    0.408E-02
RMM:   2    -0.231922799781E+04   -0.98517E-04   -0.60266E-04  5373   0.186E-02    0.732E-02
RMM:   3    -0.231922794765E+04    0.50167E-04   -0.77156E-05  2977   0.876E-03    0.341E-02
RMM:   4    -0.231922794502E+04    0.26299E-05   -0.21438E-05  2929   0.324E-03
 287 F= -.23405573E+04 E0= -.23405573E+04  d E =-.115142E-03  mag=     3.0000
       N       E                     dE             d eps       ncg     rms          rms(c)
DAV:   1    -0.231922791411E+04    0.33540E-04   -0.11382E-02  4584   0.877E-02    0.350E-02
RMM:   2    -0.231922797125E+04   -0.57144E-04   -0.41635E-04  4923   0.156E-02    0.548E-02
RMM:   3    -0.231922794865E+04    0.22600E-04   -0.55749E-05  2934   0.795E-03    0.314E-02
RMM:   4    -0.231922794199E+04    0.66604E-05   -0.12859E-05  2913   0.301E-03
 288 F= -.23405574E+04 E0= -.23405573E+04  d E =-.130609E-03  mag=     3.0000
       N       E                     dE             d eps       ncg     rms          rms(c)
DAV:   1    -0.231922793565E+04    0.12995E-04   -0.10203E-02  4528   0.796E-02    0.292E-02
RMM:   2    -0.231922796893E+04   -0.33272E-04   -0.30444E-04  4336   0.141E-02    0.335E-02
RMM:   3    -0.231922796615E+04    0.27718E-05   -0.36515E-05  2947   0.729E-03
 289 F= -.23405574E+04 E0= -.23405574E+04  d E =-.626985E-04  mag=     3.0000
       N       E                     dE             d eps       ncg     rms          rms(c)
DAV:   1    -0.231922794149E+04    0.27438E-04   -0.26716E-03  5016   0.411E-02    0.241E-02
RMM:   2    -0.231922798857E+04   -0.47081E-04   -0.11447E-04  3160   0.835E-03    0.670E-02
RMM:   3    -0.231922794402E+04    0.44550E-04   -0.30118E-05  2911   0.479E-03    0.154E-02
RMM:   4    -0.231922794484E+04   -0.81665E-06   -0.85841E-06  2796   0.212E-03
 290 F= -.23405574E+04 E0= -.23405574E+04  d E =-.612377E-04  mag=     3.0000
       N       E                     dE             d eps       ncg     rms          rms(c)
DAV:   1    -0.231922796711E+04   -0.23095E-04   -0.11975E-02  4528   0.893E-02    0.314E-02
RMM:   2    -0.231922800401E+04   -0.36898E-04   -0.41077E-04  4912   0.155E-02    0.231E-02
RMM:   3    -0.231922801795E+04   -0.13934E-04   -0.52256E-05  2931   0.814E-03    0.469E-02
RMM:   4    -0.231922799685E+04    0.21099E-04   -0.99073E-06  2887   0.283E-03    0.811E-03
RMM:   5    -0.231922799600E+04    0.84468E-06   -0.55319E-06  2847   0.213E-03
 291 F= -.23405575E+04 E0= -.23405575E+04  d E =-.591695E-04  mag=     3.0000
       N       E                     dE             d eps       ncg     rms          rms(c)
DAV:   1    -0.231922799167E+04    0.51752E-05   -0.19994E-03  4976   0.365E-02    0.132E-02
RMM:   2    -0.231922799896E+04   -0.72846E-05   -0.71578E-05  3169   0.724E-03
 292 F= -.23405575E+04 E0= -.23405575E+04  d E =-.654033E-04  mag=     3.0000
       N       E                     dE             d eps       ncg     rms          rms(c)
DAV:   1    -0.231922803938E+04   -0.47704E-04   -0.95111E-03  4516   0.785E-02    0.283E-02
RMM:   2    -0.231922808181E+04   -0.42431E-04   -0.37309E-04  4542   0.161E-02    0.353E-02
RMM:   3    -0.231922807351E+04    0.82962E-05   -0.45138E-05  2949   0.730E-03
 293 F= -.23405575E+04 E0= -.23405575E+04  d E =-.601086E-04  mag=     3.0000
       N       E                     dE             d eps       ncg     rms          rms(c)
DAV:   1    -0.231922807751E+04    0.42946E-05   -0.35235E-03  4616   0.480E-02    0.271E-02
RMM:   2    -0.231922813852E+04   -0.61004E-04   -0.17048E-04  3380   0.102E-02    0.765E-02
RMM:   3    -0.231922808429E+04    0.54222E-04   -0.42604E-05  2922   0.591E-03    0.169E-02
RMM:   4    -0.231922808502E+04   -0.72827E-06   -0.10870E-05  2884   0.246E-03
 294 F= -.23405575E+04 E0= -.23405575E+04  d E =-.627801E-04  mag=     3.0000
       N       E                     dE             d eps       ncg     rms          rms(c)
DAV:   1    -0.231922809413E+04   -0.98318E-05   -0.10878E-02  4528   0.835E-02    0.282E-02
RMM:   2    -0.231922812399E+04   -0.29866E-04   -0.35255E-04  4671   0.149E-02    0.145E-02
RMM:   3    -0.231922812395E+04    0.43714E-07   -0.30307E-05  2918   0.713E-03
 295 F= -.23405576E+04 E0= -.23405576E+04  d E =-.489978E-04  mag=     3.0000
       N       E                     dE             d eps       ncg     rms          rms(c)
DAV:   1    -0.231922811252E+04    0.11469E-04   -0.46046E-03  4712   0.544E-02    0.247E-02
RMM:   2    -0.231922816033E+04   -0.47809E-04   -0.18197E-04  3631   0.105E-02    0.638E-02
RMM:   3    -0.231922812306E+04    0.37277E-04   -0.33811E-05  2919   0.579E-03    0.146E-02
RMM:   4    -0.231922812223E+04    0.82084E-06   -0.72331E-06  2878   0.231E-03
 296 F= -.23405576E+04 E0= -.23405576E+04  d E =-.538853E-04  mag=     3.0000
       N       E                     dE             d eps       ncg     rms          rms(c)
DAV:   1    -0.231922813935E+04   -0.16295E-04   -0.89100E-03  4528   0.719E-02    0.243E-02
RMM:   2    -0.231922816497E+04   -0.25615E-04   -0.27386E-04  4203   0.128E-02    0.188E-02
RMM:   3    -0.231922816754E+04   -0.25785E-05   -0.30758E-05  2913   0.659E-03
 297 F= -.23405576E+04 E0= -.23405576E+04  d E =-.540226E-04  mag=     3.0000
       N       E                     dE             d eps       ncg     rms          rms(c)
DAV:   1    -0.231922813162E+04    0.33351E-04   -0.16156E-02  4516   0.965E-02    0.334E-02
RMM:   2    -0.231922817438E+04   -0.42760E-04   -0.51044E-04  4906   0.171E-02    0.197E-02
RMM:   3    -0.231922817551E+04   -0.11352E-05   -0.44690E-05  2939   0.735E-03
 298 F= -.23405577E+04 E0= -.23405577E+04  d E =-.738247E-04  mag=     3.0000
       N       E                     dE             d eps       ncg     rms          rms(c)
DAV:   1    -0.231922821296E+04   -0.38585E-04   -0.86833E-03  4576   0.680E-02    0.295E-02
RMM:   2    -0.231922828977E+04   -0.76814E-04   -0.32006E-04  4172   0.125E-02    0.779E-02
RMM:   3    -0.231922823367E+04    0.56101E-04   -0.50821E-05  2921   0.651E-03    0.182E-02
RMM:   4    -0.231922823228E+04    0.13965E-05   -0.98247E-06  2920   0.243E-03
 299 F= -.23405577E+04 E0= -.23405577E+04  d E =-.531310E-04  mag=     3.0000
       N       E                     dE             d eps       ncg     rms          rms(c)
DAV:   1    -0.231922820310E+04    0.30576E-04   -0.27562E-02  4504   0.120E-01    0.413E-02
RMM:   2    -0.231922829652E+04   -0.93419E-04   -0.86853E-04  5394   0.207E-02    0.499E-02
RMM:   3    -0.231922828791E+04    0.86113E-05   -0.82433E-05  2974   0.873E-03
 300 F= -.23405578E+04 E0= -.23405578E+04  d E =-.102444E-03  mag=     3.0000
       N       E                     dE             d eps       ncg     rms          rms(c)
DAV:   1    -0.231922831873E+04   -0.22209E-04   -0.12953E-02  4528   0.841E-02    0.363E-02
RMM:   2    -0.231922839109E+04   -0.72367E-04   -0.52036E-04  5038   0.155E-02    0.599E-02
RMM:   3    -0.231922835545E+04    0.35646E-04   -0.63010E-05  2957   0.676E-03    0.260E-02
RMM:   4    -0.231922835736E+04   -0.19118E-05   -0.17248E-05  2905   0.288E-03
 301 F= -.23405578E+04 E0= -.23405578E+04  d E =-.615196E-04  mag=     3.0000
