       N       E                     dE             d eps       ncg     rms          rms(c)
DAV:   1     0.132568970106E+05    0.13257E+05   -0.85263E+05  4560   0.145E+03
DAV:   2    -0.101135239016E+04   -0.14268E+05   -0.13634E+05  4984   0.332E+02
DAV:   3    -0.249583533843E+04   -0.14845E+04   -0.14655E+04  5552   0.116E+02
DAV:   4    -0.254337095260E+04   -0.47536E+02   -0.47281E+02  6824   0.301E+01
DAV:   5    -0.254417775234E+04   -0.80680E+00   -0.80513E+00  6376   0.344E+00    0.171E+02
RMM:   6    -0.150162425667E+04    0.10426E+04   -0.19811E+03  4507   0.384E+01    0.733E+01
RMM:   7    -0.168420018551E+04   -0.18258E+03   -0.30712E+02  5333   0.150E+01    0.570E+01
RMM:   8    -0.171823787765E+04   -0.34038E+02   -0.80360E+01  5299   0.848E+00    0.443E+01
RMM:   9    -0.178838506957E+04   -0.70147E+02   -0.51952E+01  5129   0.716E+00    0.341E+01
RMM:  10    -0.193016025464E+04   -0.14178E+03   -0.63616E+01  5322   0.777E+00    0.240E+01
RMM:  11    -0.201328076505E+04   -0.83121E+02   -0.31547E+01  5230   0.495E+00    0.216E+01
RMM:  12    -0.207478602699E+04   -0.61505E+02   -0.22452E+01  5207   0.382E+00    0.182E+01
RMM:  13    -0.214565218455E+04   -0.70866E+02   -0.30732E+01  5066   0.436E+00    0.158E+01
RMM:  14    -0.224575652352E+04   -0.10010E+03   -0.71174E+01  4519   0.630E+00    0.101E+01
RMM:  15    -0.230697527401E+04   -0.61219E+02   -0.53596E+01  4825   0.539E+00    0.567E+00
RMM:  16    -0.232863244049E+04   -0.21657E+02   -0.23150E+01  4818   0.361E+00    0.346E+00
RMM:  17    -0.233329099550E+04   -0.46586E+01   -0.58012E+00  5227   0.169E+00    0.272E+00
RMM:  18    -0.233532489583E+04   -0.20339E+01   -0.14388E+00  5061   0.785E-01    0.305E+00
RMM:  19    -0.233579736199E+04   -0.47247E+00   -0.20617E-01  5317   0.363E-01    0.329E+00
RMM:  20    -0.233578560928E+04    0.11753E-01   -0.24481E-02  5998   0.937E-02    0.332E+00
RMM:  21    -0.233596216552E+04   -0.17656E+00   -0.48369E-02  4557   0.158E-01    0.308E+00
RMM:  22    -0.233643957668E+04   -0.47741E+00   -0.32918E-01  4537   0.320E-01    0.253E+00
RMM:  23    -0.233677960541E+04   -0.34003E+00   -0.36207E-01  4620   0.361E-01    0.188E+00
RMM:  24    -0.233696890772E+04   -0.18930E+00   -0.24938E-01  4756   0.287E-01    0.145E+00
RMM:  25    -0.233706577940E+04   -0.96872E-01   -0.77428E-02  4642   0.189E-01    0.771E-01
RMM:  26    -0.233711189976E+04   -0.46120E-01   -0.27602E-02  4723   0.106E-01    0.799E-01
RMM:  27    -0.233716588887E+04   -0.53989E-01   -0.12841E-02  4710   0.836E-02    0.722E-01
RMM:  28    -0.233721716468E+04   -0.51276E-01   -0.15216E-02  4562   0.787E-02    0.610E-01
RMM:  29    -0.233725274588E+04   -0.35581E-01   -0.14218E-02  4963   0.816E-02    0.313E-01
RMM:  30    -0.233726941471E+04   -0.16669E-01   -0.71386E-03  5088   0.611E-02    0.141E-01
RMM:  31    -0.233727966075E+04   -0.10246E-01   -0.25993E-03  4810   0.331E-02    0.164E-01
RMM:  32    -0.233728396094E+04   -0.43002E-02   -0.68669E-04  4503   0.188E-02    0.127E-01
RMM:  33    -0.233728711787E+04   -0.31569E-02   -0.41684E-04  4151   0.136E-02    0.714E-02
RMM:  34    -0.233729112834E+04   -0.40105E-02   -0.67657E-04  4094   0.160E-02    0.264E-02
RMM:  35    -0.233729256572E+04   -0.14374E-02   -0.31279E-04  4056   0.130E-02    0.206E-02
RMM:  36    -0.233729312024E+04   -0.55452E-03   -0.13966E-04  4037   0.770E-03    0.113E-02
RMM:  37    -0.233729329678E+04   -0.17653E-03   -0.35931E-05  3326   0.569E-03    0.655E-03
RMM:  38    -0.233729334076E+04   -0.43986E-04   -0.10949E-05  2944   0.322E-03    0.422E-03
RMM:  39    -0.233729335965E+04   -0.18884E-04   -0.48276E-06  2796   0.268E-03    0.215E-03
RMM:  40    -0.233729336732E+04   -0.76753E-05   -0.26909E-06  2565   0.198E-03
   1 F= -.23588762E+04 E0= -.23588762E+04  d E =-.235888E+04  mag=     1.9997
       N       E                     dE             d eps       ncg     rms          rms(c)
DAV:   1    -0.233683250747E+04    0.46085E+00   -0.49222E+01  4784   0.439E+00    0.242E+00
RMM:   2    -0.233796283505E+04   -0.11303E+01   -0.92854E+00  6595   0.145E+00    0.571E+00
RMM:   3    -0.233767334139E+04    0.28949E+00   -0.95370E-01  6257   0.507E-01    0.167E+00
RMM:   4    -0.233765048847E+04    0.22853E-01   -0.13999E-01  6489   0.144E-01    0.106E+00
RMM:   5    -0.233763864300E+04    0.11845E-01   -0.20715E-02  6236   0.643E-02    0.657E-01
RMM:   6    -0.233764015744E+04   -0.15144E-02   -0.14844E-02  6181   0.560E-02    0.820E-01
RMM:   7    -0.233763221112E+04    0.79463E-02   -0.11657E-02  6201   0.536E-02    0.357E-01
RMM:   8    -0.233763071676E+04    0.14944E-02   -0.36067E-03  5646   0.302E-02    0.158E-01
RMM:   9    -0.233763080117E+04   -0.84413E-04   -0.39893E-04  4098   0.126E-02    0.746E-02
RMM:  10    -0.233763089458E+04   -0.93409E-04   -0.20672E-04  3973   0.932E-03    0.342E-02
RMM:  11    -0.233763097611E+04   -0.81535E-04   -0.10640E-04  3690   0.815E-03    0.149E-02
RMM:  12    -0.233763103303E+04   -0.56920E-04   -0.44085E-05  3383   0.578E-03    0.890E-03
RMM:  13    -0.233763108565E+04   -0.52615E-04   -0.22414E-05  3055   0.518E-03    0.567E-03
RMM:  14    -0.233763112248E+04   -0.36834E-04   -0.15123E-05  2922   0.421E-03    0.291E-03
RMM:  15    -0.233763114433E+04   -0.21845E-04   -0.83855E-06  2863   0.367E-03    0.169E-03
RMM:  16    -0.233763115552E+04   -0.11193E-04   -0.51281E-06  2774   0.270E-03    0.976E-04
RMM:  17    -0.233763116041E+04   -0.48875E-05   -0.26804E-06  2568   0.214E-03
   2 F= -.23592090E+04 E0= -.23592090E+04  d E =-.332831E+00  mag=     1.9999
       N       E                     dE             d eps       ncg     rms          rms(c)
DAV:   1    -0.233762377855E+04    0.73770E-02   -0.74921E-01  4896   0.586E-01    0.268E-01
RMM:   2    -0.233763824095E+04   -0.14462E-01   -0.12515E-01  6563   0.161E-01    0.550E-01
RMM:   3    -0.233763553727E+04    0.27037E-02   -0.11309E-02  5668   0.524E-02    0.147E-01
RMM:   4    -0.233763534880E+04    0.18847E-03   -0.12547E-03  3921   0.137E-02    0.957E-02
RMM:   5    -0.233763527444E+04    0.74360E-04   -0.22465E-04  3235   0.824E-03    0.798E-02
RMM:   6    -0.233763523768E+04    0.36756E-04   -0.23710E-04  3859   0.827E-03    0.751E-02
RMM:   7    -0.233763518450E+04    0.53179E-04   -0.11396E-04  3180   0.725E-03    0.392E-02
RMM:   8    -0.233763516738E+04    0.17120E-04   -0.29999E-05  2938   0.437E-03    0.819E-03
RMM:   9    -0.233763516766E+04   -0.27999E-06   -0.62042E-06  2840   0.300E-03
   3 F= -.23592124E+04 E0= -.23592124E+04  d E =-.336284E+00  mag=     2.0000
       N       E                     dE             d eps       ncg     rms          rms(c)
DAV:   1    -0.233758497978E+04    0.50188E-01   -0.14358E+01  4592   0.298E+00    0.103E+00
RMM:   2    -0.233773873823E+04   -0.15376E+00   -0.15527E+00  6538   0.716E-01    0.112E+00
RMM:   3    -0.233774325093E+04   -0.45127E-02   -0.13876E-01  6401   0.228E-01    0.901E-01
RMM:   4    -0.233773316494E+04    0.10086E-01   -0.15947E-02  6272   0.628E-02    0.328E-01
RMM:   5    -0.233773241927E+04    0.74567E-03   -0.46677E-03  6046   0.381E-02    0.280E-01
RMM:   6    -0.233773172066E+04    0.69862E-03   -0.34552E-03  6019   0.305E-02    0.170E-01
RMM:   7    -0.233773151214E+04    0.20852E-03   -0.75297E-04  5232   0.164E-02    0.116E-01
RMM:   8    -0.233773134140E+04    0.17074E-03   -0.18587E-04  3229   0.815E-03    0.407E-02
RMM:   9    -0.233773130588E+04    0.35518E-04   -0.58353E-05  3048   0.569E-03    0.206E-02
RMM:  10    -0.233773129998E+04    0.59011E-05   -0.47373E-05  3102   0.535E-03
   4 F= -.23593070E+04 E0= -.23593070E+04  d E =-.946031E-01  mag=     2.0000
       N       E                     dE             d eps       ncg     rms          rms(c)
DAV:   1    -0.233771782475E+04    0.13481E-01   -0.22386E+00  4680   0.119E+00    0.415E-01
RMM:   2    -0.233774183606E+04   -0.24011E-01   -0.24356E-01  6551   0.279E-01    0.444E-01
RMM:   3    -0.233774235319E+04   -0.51713E-03   -0.20736E-02  6276   0.886E-02    0.364E-01
RMM:   4    -0.233774077640E+04    0.15768E-02   -0.24849E-03  5682   0.249E-02    0.132E-01
RMM:   5    -0.233774070285E+04    0.73545E-04   -0.76749E-04  5075   0.157E-02    0.129E-01
RMM:   6    -0.233774050836E+04    0.19449E-03   -0.60543E-04  4951   0.139E-02    0.567E-02
RMM:   7    -0.233774050754E+04    0.82364E-06   -0.13415E-04  3299   0.859E-03    0.575E-02
RMM:   8    -0.233774046524E+04    0.42300E-04   -0.38533E-05  2969   0.523E-03    0.140E-02
RMM:   9    -0.233774046120E+04    0.40398E-05   -0.11773E-05  2937   0.300E-03
   5 F= -.23593156E+04 E0= -.23593156E+04  d E =-.103188E+00  mag=     2.0000
       N       E                     dE             d eps       ncg     rms          rms(c)
DAV:   1    -0.233765453378E+04    0.85931E-01   -0.10294E+01  4576   0.245E+00    0.846E-01
RMM:   2    -0.233780090641E+04   -0.14637E+00   -0.15696E+00  6716   0.617E-01    0.583E-01
RMM:   3    -0.233781235060E+04   -0.11444E-01   -0.14751E-01  6476   0.204E-01    0.686E-01
RMM:   4    -0.233780756328E+04    0.47873E-02   -0.14679E-02  6114   0.498E-02    0.347E-01
RMM:   5    -0.233780644968E+04    0.11136E-02   -0.28085E-03  5208   0.250E-02    0.214E-01
RMM:   6    -0.233780633353E+04    0.11614E-03   -0.31298E-03  5820   0.270E-02    0.214E-01
RMM:   7    -0.233780586034E+04    0.47319E-03   -0.94882E-04  5020   0.160E-02    0.931E-02
RMM:   8    -0.233780580146E+04    0.58883E-04   -0.22467E-04  3273   0.881E-03    0.664E-02
RMM:   9    -0.233780573582E+04    0.65639E-04   -0.72193E-05  3097   0.599E-03    0.286E-02
RMM:  10    -0.233780573209E+04    0.37306E-05   -0.80825E-05  3010   0.554E-03
   6 F= -.23593797E+04 E0= -.23593797E+04  d E =-.640629E-01  mag=     2.0000
       N       E                     dE             d eps       ncg     rms          rms(c)
DAV:   1    -0.233768432831E+04    0.12141E+00   -0.98553E+00  4560   0.242E+00    0.822E-01
RMM:   2    -0.233782255300E+04   -0.13822E+00   -0.14831E+00  6723   0.597E-01    0.570E-01
RMM:   3    -0.233783368898E+04   -0.11136E-01   -0.14199E-01  6474   0.201E-01    0.671E-01
RMM:   4    -0.233782916240E+04    0.45266E-02   -0.14072E-02  6098   0.488E-02    0.335E-01
RMM:   5    -0.233782817980E+04    0.98260E-03   -0.26244E-03  5215   0.242E-02    0.224E-01
RMM:   6    -0.233782808062E+04    0.99180E-04   -0.28943E-03  5750   0.256E-02    0.229E-01
RMM:   7    -0.233782755252E+04    0.52810E-03   -0.10556E-03  5219   0.166E-02    0.105E-01
RMM:   8    -0.233782744511E+04    0.10741E-03   -0.25049E-04  3409   0.926E-03    0.566E-02
RMM:   9    -0.233782739407E+04    0.51040E-04   -0.69489E-05  3110   0.590E-03    0.274E-02
RMM:  10    -0.233782739242E+04    0.16503E-05   -0.78511E-05  3016   0.565E-03
   7 F= -.23594003E+04 E0= -.23594003E+04  d E =-.846558E-01  mag=     2.0000
       N       E                     dE             d eps       ncg     rms          rms(c)
DAV:   1    -0.233768353611E+04    0.14386E+00   -0.11807E+01  4548   0.276E+00    0.101E+00
RMM:   2    -0.233786643714E+04   -0.18290E+00   -0.19125E+00  6706   0.678E-01    0.807E-01
RMM:   3    -0.233788114213E+04   -0.14705E-01   -0.19608E-01  6521   0.241E-01    0.788E-01
RMM:   4    -0.233787381451E+04    0.73276E-02   -0.20432E-02  6260   0.611E-02    0.422E-01
RMM:   5    -0.233787273858E+04    0.10759E-02   -0.36601E-03  5538   0.262E-02    0.320E-01
RMM:   6    -0.233787157329E+04    0.11653E-02   -0.36446E-03  5695   0.305E-02    0.175E-01
RMM:   7    -0.233787182465E+04   -0.25136E-03   -0.18979E-03  5240   0.226E-02    0.224E-01
RMM:   8    -0.233787127450E+04    0.55016E-03   -0.46336E-04  4366   0.117E-02    0.449E-02
RMM:   9    -0.233787122708E+04    0.47420E-04   -0.80540E-05  3152   0.627E-03    0.310E-02
RMM:  10    -0.233787121472E+04    0.12356E-04   -0.71467E-05  2987   0.549E-03    0.115E-02
RMM:  11    -0.233787121763E+04   -0.29100E-05   -0.19209E-05  2983   0.397E-03
   8 F= -.23594443E+04 E0= -.23594443E+04  d E =-.440636E-01  mag=     2.0000
       N       E                     dE             d eps       ncg     rms          rms(c)
DAV:   1    -0.233786476937E+04    0.64454E-02   -0.48646E-01  4752   0.565E-01    0.203E-01
RMM:   2    -0.233787224933E+04   -0.74800E-02   -0.78270E-02  6679   0.137E-01    0.161E-01
RMM:   3    -0.233787284926E+04   -0.59993E-03   -0.77104E-03  5397   0.483E-02    0.160E-01
RMM:   4    -0.233787255091E+04    0.29835E-03   -0.83343E-04  3747   0.128E-02    0.842E-02
RMM:   5    -0.233787251542E+04    0.35493E-04   -0.14771E-04  3088   0.675E-03    0.690E-02
RMM:   6    -0.233787246251E+04    0.52913E-04   -0.15925E-04  3320   0.715E-03    0.350E-02
RMM:   7    -0.233787247458E+04   -0.12072E-04   -0.73662E-05  2979   0.604E-03    0.438E-02
RMM:   8    -0.233787245168E+04    0.22901E-04   -0.19285E-05  2891   0.377E-03    0.813E-03
RMM:   9    -0.233787245075E+04    0.92306E-06   -0.41287E-06  2674   0.236E-03
   9 F= -.23594456E+04 E0= -.23594456E+04  d E =-.453558E-01  mag=     2.0000
       N       E                     dE             d eps       ncg     rms          rms(c)
DAV:   1    -0.233773936295E+04    0.13309E+00   -0.84238E+00  4548   0.239E+00    0.951E-01
RMM:   2    -0.233790943871E+04   -0.17008E+00   -0.17245E+00  6734   0.638E-01    0.863E-01
RMM:   3    -0.233791891220E+04   -0.94735E-02   -0.18158E-01  6540   0.230E-01    0.661E-01
RMM:   4    -0.233791442890E+04    0.44833E-02   -0.18997E-02  6217   0.568E-02    0.426E-01
RMM:   5    -0.233791298637E+04    0.14425E-02   -0.27780E-03  5332   0.229E-02    0.249E-01
RMM:   6    -0.233791228340E+04    0.70297E-03   -0.20231E-03  5323   0.249E-02    0.140E-01
RMM:   7    -0.233791270890E+04   -0.42551E-03   -0.14049E-03  5025   0.208E-02    0.224E-01
RMM:   8    -0.233791217929E+04    0.52961E-03   -0.38957E-04  4343   0.107E-02    0.319E-02
RMM:   9    -0.233791215897E+04    0.20323E-04   -0.52142E-05  3044   0.564E-03    0.245E-02
RMM:  10    -0.233791215185E+04    0.71194E-05   -0.33510E-05  2929   0.408E-03
  10 F= -.23594843E+04 E0= -.23594843E+04  d E =-.386992E-01  mag=     2.0000
       N       E                     dE             d eps       ncg     rms          rms(c)
DAV:   1    -0.233783293159E+04    0.79227E-01   -0.43374E+00  4560   0.174E+00    0.680E-01
RMM:   2    -0.233791976263E+04   -0.86831E-01   -0.88271E-01  6731   0.451E-01    0.600E-01
RMM:   3    -0.233792494781E+04   -0.51852E-02   -0.92541E-02  6517   0.162E-01    0.467E-01
RMM:   4    -0.233792267221E+04    0.22756E-02   -0.97701E-03  6029   0.402E-02    0.299E-01
RMM:   5    -0.233792196553E+04    0.70668E-03   -0.13783E-03  4580   0.162E-02    0.179E-01
RMM:   6    -0.233792161016E+04    0.35537E-03   -0.10561E-03  4960   0.184E-02    0.991E-02
RMM:   7    -0.233792182662E+04   -0.21646E-03   -0.71113E-04  4471   0.152E-02    0.159E-01
RMM:   8    -0.233792155950E+04    0.26711E-03   -0.19427E-04  3695   0.805E-03    0.225E-02
RMM:   9    -0.233792154942E+04    0.10081E-04   -0.27177E-05  2989   0.464E-03    0.172E-02
RMM:  10    -0.233792154656E+04    0.28623E-05   -0.18961E-05  2915   0.317E-03
  11 F= -.23594931E+04 E0= -.23594931E+04  d E =-.474658E-01  mag=     2.0000
       N       E                     dE             d eps       ncg     rms          rms(c)
DAV:   1    -0.233780277871E+04    0.11877E+00   -0.69737E+00  4548   0.230E+00    0.931E-01
RMM:   2    -0.233795262764E+04   -0.14985E+00   -0.15211E+00  6668   0.621E-01    0.820E-01
RMM:   3    -0.233796217281E+04   -0.95452E-02   -0.16651E-01  6503   0.228E-01    0.687E-01
RMM:   4    -0.233795756995E+04    0.46029E-02   -0.18188E-02  6148   0.553E-02    0.442E-01
RMM:   5    -0.233795599709E+04    0.15729E-02   -0.28806E-03  5487   0.235E-02    0.235E-01
RMM:   6    -0.233795556087E+04    0.43622E-03   -0.17465E-03  5305   0.233E-02    0.162E-01
RMM:   7    -0.233795577821E+04   -0.21734E-03   -0.12747E-03  5167   0.198E-02    0.192E-01
RMM:   8    -0.233795534277E+04    0.43544E-03   -0.36808E-04  4474   0.111E-02    0.285E-02
RMM:   9    -0.233795532518E+04    0.17587E-04   -0.46623E-05  3027   0.563E-03    0.206E-02
RMM:  10    -0.233795531885E+04    0.63281E-05   -0.23581E-05  2932   0.363E-03
  12 F= -.23595259E+04 E0= -.23595259E+04  d E =-.328395E-01  mag=     2.0000
       N       E                     dE             d eps       ncg     rms          rms(c)
DAV:   1    -0.233793197138E+04    0.23354E-01   -0.12477E+00  4624   0.978E-01    0.392E-01
RMM:   2    -0.233795879578E+04   -0.26824E-01   -0.27207E-01  6654   0.261E-01    0.350E-01
RMM:   3    -0.233796042239E+04   -0.16266E-02   -0.28646E-02  6349   0.943E-02    0.295E-01
RMM:   4    -0.233795955193E+04    0.87046E-03   -0.31668E-03  5048   0.233E-02    0.181E-01
RMM:   5    -0.233795929854E+04    0.25339E-03   -0.49569E-04  3509   0.107E-02    0.101E-01
RMM:   6    -0.233795921728E+04    0.81263E-04   -0.34043E-04  3995   0.116E-02    0.675E-02
RMM:   7    -0.233795925567E+04   -0.38397E-04   -0.22800E-04  3478   0.935E-03    0.791E-02
RMM:   8    -0.233795918130E+04    0.74373E-04   -0.60995E-05  3064   0.619E-03    0.120E-02
RMM:   9    -0.233795917829E+04    0.30094E-05   -0.94918E-06  2910   0.347E-03
  13 F= -.23595295E+04 E0= -.23595295E+04  d E =-.363459E-01  mag=     2.0000
       N       E                     dE             d eps       ncg     rms          rms(c)
DAV:   1    -0.233791693163E+04    0.42250E-01   -0.37198E+00  4548   0.172E+00    0.628E-01
RMM:   2    -0.233798198337E+04   -0.65052E-01   -0.62793E-01  6590   0.418E-01    0.808E-01
RMM:   3    -0.233798208518E+04   -0.10182E-03   -0.64500E-02  6432   0.148E-01    0.536E-01
RMM:   4    -0.233797940044E+04    0.26847E-02   -0.70868E-03  5719   0.375E-02    0.219E-01
RMM:   5    -0.233797925469E+04    0.14574E-03   -0.16711E-03  5389   0.206E-02    0.217E-01
RMM:   6    -0.233797880178E+04    0.45291E-03   -0.14130E-03  5439   0.218E-02    0.120E-01
RMM:   7    -0.233797876737E+04    0.34414E-04   -0.51111E-04  3970   0.145E-02    0.101E-01
RMM:   8    -0.233797863781E+04    0.12956E-03   -0.11084E-04  3277   0.703E-03    0.201E-02
RMM:   9    -0.233797862851E+04    0.93008E-05   -0.21117E-05  2970   0.430E-03
  14 F= -.23595489E+04 E0= -.23595489E+04  d E =-.194072E-01  mag=     2.0000
       N       E                     dE             d eps       ncg     rms          rms(c)
DAV:   1    -0.233797499042E+04    0.36474E-02   -0.27908E-01  4768   0.471E-01    0.173E-01
RMM:   2    -0.233797993590E+04   -0.49455E-02   -0.47314E-02  6562   0.115E-01    0.231E-01
RMM:   3    -0.233797984973E+04    0.86176E-04   -0.47519E-03  5481   0.409E-02    0.141E-01
RMM:   4    -0.233797966659E+04    0.18314E-03   -0.53585E-04  3428   0.107E-02    0.614E-02
RMM:   5    -0.233797965219E+04    0.14399E-04   -0.12817E-04  3074   0.685E-03    0.599E-02
RMM:   6    -0.233797961628E+04    0.35908E-04   -0.11689E-04  3345   0.747E-03    0.343E-02
RMM:   7    -0.233797961300E+04    0.32805E-05   -0.44797E-05  2941   0.578E-03
  15 F= -.23595498E+04 E0= -.23595498E+04  d E =-.203908E-01  mag=     2.0000
       N       E                     dE             d eps       ncg     rms          rms(c)
DAV:   1    -0.233797844494E+04    0.11713E-02   -0.94653E-01  4560   0.871E-01    0.315E-01
RMM:   2    -0.233799518161E+04   -0.16737E-01   -0.15768E-01  6645   0.204E-01    0.470E-01
RMM:   3    -0.233799439624E+04    0.78537E-03   -0.15881E-02  6250   0.725E-02    0.240E-01
RMM:   4    -0.233799388857E+04    0.50768E-03   -0.15713E-03  4449   0.175E-02    0.921E-02
RMM:   5    -0.233799394765E+04   -0.59083E-04   -0.32918E-04  3840   0.104E-02    0.112E-01
RMM:   6    -0.233799382715E+04    0.12050E-03   -0.27049E-04  3844   0.101E-02    0.527E-02
RMM:   7    -0.233799383674E+04   -0.95828E-05   -0.11335E-04  3061   0.726E-03    0.549E-02
RMM:   8    -0.233799379867E+04    0.38072E-04   -0.33902E-05  2952   0.505E-03    0.923E-03
RMM:   9    -0.233799379681E+04    0.18549E-05   -0.65795E-06  2877   0.258E-03
  16 F= -.23595637E+04 E0= -.23595637E+04  d E =-.138156E-01  mag=     2.0000
       N       E                     dE             d eps       ncg     rms          rms(c)
DAV:   1    -0.233787771573E+04    0.11608E+00   -0.80899E+00  4536   0.254E+00    0.912E-01
RMM:   2    -0.233801928231E+04   -0.14157E+00   -0.13575E+00  6638   0.599E-01    0.129E+00
RMM:   3    -0.233801647346E+04    0.28088E-02   -0.13783E-01  6487   0.210E-01    0.752E-01
RMM:   4    -0.233801125797E+04    0.52155E-02   -0.13369E-02  6074   0.518E-02    0.275E-01
RMM:   5    -0.233801203389E+04   -0.77592E-03   -0.28847E-03  5873   0.266E-02    0.368E-01
RMM:   6    -0.233801065867E+04    0.13752E-02   -0.23026E-03  5820   0.251E-02    0.146E-01
RMM:   7    -0.233801070061E+04   -0.41941E-04   -0.97867E-04  5008   0.167E-02    0.139E-01
RMM:   8    -0.233801045655E+04    0.24407E-03   -0.26598E-04  3594   0.906E-03    0.286E-02
RMM:   9    -0.233801043777E+04    0.18778E-04   -0.43741E-05  3024   0.499E-03    0.189E-02
RMM:  10    -0.233801043233E+04    0.54427E-05   -0.25093E-05  2972   0.393E-03
  17 F= -.23595793E+04 E0= -.23595793E+04  d E =-.294704E-01  mag=     2.0000
       N       E                     dE             d eps       ncg     rms          rms(c)
DAV:   1    -0.233801037191E+04    0.65864E-04   -0.12200E+00  4608   0.102E+00    0.353E-01
RMM:   2    -0.233802301628E+04   -0.12644E-01   -0.12392E-01  6292   0.208E-01    0.387E-01
RMM:   3    -0.233802342489E+04   -0.40861E-03   -0.13282E-02  6097   0.829E-02    0.317E-01
RMM:   4    -0.233802235510E+04    0.10698E-02   -0.14609E-03  5506   0.216E-02    0.984E-02
RMM:   5    -0.233802243629E+04   -0.81193E-04   -0.50571E-04  4875   0.142E-02    0.129E-01
RMM:   6    -0.233802225347E+04    0.18282E-03   -0.33158E-04  4826   0.114E-02    0.516E-02
RMM:   7    -0.233802224898E+04    0.44953E-05   -0.10025E-04  3074   0.778E-03    0.456E-02
RMM:   8    -0.233802221723E+04    0.31742E-04   -0.33067E-05  2944   0.501E-03    0.112E-02
RMM:   9    -0.233802221378E+04    0.34567E-05   -0.95984E-06  2943   0.299E-03
  18 F= -.23595909E+04 E0= -.23595909E+04  d E =-.115602E-01  mag=     2.0000
       N       E                     dE             d eps       ncg     rms          rms(c)
DAV:   1    -0.233799613388E+04    0.26083E-01   -0.33223E+00  4536   0.169E+00    0.581E-01
RMM:   2    -0.233803080956E+04   -0.34676E-01   -0.33913E-01  6252   0.342E-01    0.644E-01
RMM:   3    -0.233803186452E+04   -0.10550E-02   -0.36903E-02  6072   0.142E-01    0.523E-01
RMM:   4    -0.233802899585E+04    0.28687E-02   -0.39830E-03  5876   0.355E-02    0.166E-01
RMM:   5    -0.233802924227E+04   -0.24642E-03   -0.13558E-03  5609   0.221E-02    0.219E-01
RMM:   6    -0.233802870932E+04    0.53296E-03   -0.91780E-04  5517   0.179E-02    0.855E-02
RMM:   7    -0.233802869691E+04    0.12403E-04   -0.27868E-04  3968   0.115E-02    0.741E-02
RMM:   8    -0.233802861126E+04    0.85652E-04   -0.87047E-05  3048   0.639E-03    0.189E-02
RMM:   9    -0.233802860033E+04    0.10932E-04   -0.21721E-05  2994   0.428E-03    0.980E-03
RMM:  10    -0.233802859670E+04    0.36264E-05   -0.14305E-05  2937   0.375E-03
  19 F= -.23595969E+04 E0= -.23595969E+04  d E =-.176155E-01  mag=     2.0000
       N       E                     dE             d eps       ncg     rms          rms(c)
DAV:   1    -0.233801984264E+04    0.87577E-02   -0.26475E+00  4580   0.139E+00    0.451E-01
RMM:   2    -0.233804298985E+04   -0.23147E-01   -0.24327E-01  6380   0.280E-01    0.377E-01
RMM:   3    -0.233804499386E+04   -0.20040E-02   -0.24859E-02  6039   0.113E-01    0.410E-01
RMM:   4    -0.233804339879E+04    0.15951E-02   -0.28907E-03  5808   0.275E-02    0.177E-01
RMM:   5    -0.233804342680E+04   -0.28010E-04   -0.10772E-03  5030   0.178E-02    0.167E-01
RMM:   6    -0.233804311194E+04    0.31486E-03   -0.68728E-04  5196   0.152E-02    0.762E-02
RMM:   7    -0.233804312063E+04   -0.86921E-05   -0.22837E-04  3417   0.989E-03    0.741E-02
RMM:   8    -0.233804304766E+04    0.72974E-04   -0.64856E-05  2989   0.590E-03    0.165E-02
RMM:   9    -0.233804304343E+04    0.42260E-05   -0.14722E-05  2969   0.339E-03
  20 F= -.23596115E+04 E0= -.23596115E+04  d E =-.145890E-01  mag=     2.0000
       N       E                     dE             d eps       ncg     rms          rms(c)
DAV:   1    -0.233803757782E+04    0.54698E-02   -0.88666E-01  4640   0.800E-01    0.260E-01
RMM:   2    -0.233804533686E+04   -0.77590E-02   -0.81325E-02  6343   0.161E-01    0.221E-01
RMM:   3    -0.233804599674E+04   -0.65988E-03   -0.83914E-03  5776   0.648E-02    0.237E-01
RMM:   4    -0.233804546746E+04    0.52928E-03   -0.96491E-04  4723   0.160E-02    0.103E-01
RMM:   5    -0.233804547188E+04   -0.44142E-05   -0.35516E-04  3792   0.111E-02    0.961E-02
RMM:   6    -0.233804536418E+04    0.10770E-03   -0.23959E-04  4119   0.101E-02    0.422E-02
RMM:   7    -0.233804537073E+04   -0.65519E-05   -0.80395E-05  3062   0.694E-03
  21 F= -.23596139E+04 E0= -.23596139E+04  d E =-.170180E-01  mag=     2.0000
       N       E                     dE             d eps       ncg     rms          rms(c)
DAV:   1    -0.233803851786E+04    0.68463E-02   -0.19885E+00  4548   0.125E+00    0.379E-01
RMM:   2    -0.233805578178E+04   -0.17264E-01   -0.18647E-01  6333   0.251E-01    0.239E-01
RMM:   3    -0.233805684179E+04   -0.10600E-02   -0.18433E-02  5974   0.101E-01    0.227E-01
RMM:   4    -0.233805658655E+04    0.25524E-03   -0.21534E-03  5282   0.224E-02    0.181E-01
RMM:   5    -0.233805652371E+04    0.62836E-04   -0.82987E-04  5195   0.167E-02    0.146E-01
RMM:   6    -0.233805627493E+04    0.24878E-03   -0.50421E-04  4747   0.132E-02    0.564E-02
RMM:   7    -0.233805625825E+04    0.16684E-04   -0.11010E-04  3351   0.781E-03    0.432E-02
RMM:   8    -0.233805624174E+04    0.16511E-04   -0.34901E-05  2953   0.511E-03    0.231E-02
RMM:   9    -0.233805623546E+04    0.62783E-05   -0.94990E-06  2955   0.271E-03
  22 F= -.23596243E+04 E0= -.23596243E+04  d E =-.103320E-01  mag=     2.0000
       N       E                     dE             d eps       ncg     rms          rms(c)
DAV:   1    -0.233805546464E+04    0.77710E-03   -0.16402E-01  4752   0.357E-01    0.109E-01
RMM:   2    -0.233805689501E+04   -0.14304E-02   -0.15358E-02  6311   0.723E-02    0.725E-02
RMM:   3    -0.233805698640E+04   -0.91388E-04   -0.15084E-03  4076   0.285E-02    0.728E-02
RMM:   4    -0.233805695214E+04    0.34258E-04   -0.17647E-04  3101   0.759E-03    0.510E-02
RMM:   5    -0.233805695057E+04    0.15722E-05   -0.72415E-05  3072   0.567E-03
  23 F= -.23596248E+04 E0= -.23596248E+04  d E =-.108994E-01  mag=     2.0000
       N       E                     dE             d eps       ncg     rms          rms(c)
DAV:   1    -0.233805661567E+04    0.33647E-03   -0.12662E+00  4548   0.100E+00    0.298E-01
RMM:   2    -0.233806363059E+04   -0.70149E-02   -0.77440E-02  6336   0.187E-01    0.171E-01
RMM:   3    -0.233806424834E+04   -0.61775E-03   -0.73968E-03  5930   0.681E-02    0.221E-01
RMM:   4    -0.233806379942E+04    0.44892E-03   -0.90227E-04  4629   0.185E-02    0.108E-01
RMM:   5    -0.233806381523E+04   -0.15810E-04   -0.53031E-04  4885   0.151E-02    0.104E-01
RMM:   6    -0.233806367476E+04    0.14046E-03   -0.22194E-04  4270   0.104E-02    0.362E-02
RMM:   7    -0.233806367682E+04   -0.20554E-05   -0.60599E-05  3034   0.613E-03
  24 F= -.23596316E+04 E0= -.23596316E+04  d E =-.671354E-02  mag=     2.0000
       N       E                     dE             d eps       ncg     rms          rms(c)
DAV:   1    -0.233806187802E+04    0.17967E-02   -0.46674E-01  4608   0.609E-01    0.184E-01
RMM:   2    -0.233806452646E+04   -0.26484E-02   -0.29423E-02  6299   0.115E-01    0.987E-02
RMM:   3    -0.233806473849E+04   -0.21203E-03   -0.28200E-03  5670   0.426E-02    0.124E-01
RMM:   4    -0.233806461099E+04    0.12750E-03   -0.33134E-04  3373   0.112E-02    0.673E-02
RMM:   5    -0.233806456805E+04    0.42940E-04   -0.15911E-04  3920   0.935E-03    0.395E-02
RMM:   6    -0.233806456061E+04    0.74406E-05   -0.71885E-05  3055   0.738E-03
  25 F= -.23596324E+04 E0= -.23596324E+04  d E =-.759539E-02  mag=     2.0000
       N       E                     dE             d eps       ncg     rms          rms(c)
DAV:   1    -0.233806357586E+04    0.99218E-03   -0.12946E+00  4536   0.962E-01    0.283E-01
RMM:   2    -0.233806944125E+04   -0.58654E-02   -0.64684E-02  6206   0.169E-01    0.194E-01
RMM:   3    -0.233807030638E+04   -0.86513E-03   -0.69110E-03  5790   0.676E-02    0.306E-01
RMM:   4    -0.233806940238E+04    0.90399E-03   -0.81816E-04  5085   0.180E-02    0.843E-02
RMM:   5    -0.233806931051E+04    0.91878E-04   -0.39072E-04  4342   0.129E-02    0.380E-02
RMM:   6    -0.233806932396E+04   -0.13452E-04   -0.10267E-04  3187   0.958E-03    0.447E-02
RMM:   7    -0.233806930111E+04    0.22852E-04   -0.33898E-05  2980   0.531E-03    0.155E-02
RMM:   8    -0.233806930104E+04    0.68670E-07   -0.10843E-05  2924   0.350E-03
  26 F= -.23596373E+04 E0= -.23596373E+04  d E =-.489801E-02  mag=     2.0000
       N       E                     dE             d eps       ncg     rms          rms(c)
DAV:   1    -0.233806740583E+04    0.18953E-02   -0.54063E-01  4624   0.622E-01    0.181E-01
RMM:   2    -0.233806985192E+04   -0.24461E-02   -0.27135E-02  6189   0.109E-01    0.112E-01
RMM:   3    -0.233807013785E+04   -0.28593E-03   -0.27402E-03  5116   0.424E-02    0.174E-01
RMM:   4    -0.233806984820E+04    0.28965E-03   -0.31719E-04  3608   0.114E-02    0.578E-02
RMM:   5    -0.233806982397E+04    0.24229E-04   -0.17702E-04  3857   0.899E-03    0.444E-02
RMM:   6    -0.233806981370E+04    0.10276E-04   -0.77472E-05  3030   0.735E-03    0.330E-02
RMM:   7    -0.233806980365E+04    0.10041E-04   -0.20325E-05  2967   0.419E-03    0.162E-02
RMM:   8    -0.233806980120E+04    0.24563E-05   -0.67841E-06  2864   0.318E-03
  27 F= -.23596379E+04 E0= -.23596379E+04  d E =-.550201E-02  mag=     2.0000
       N       E                     dE             d eps       ncg     rms          rms(c)
DAV:   1    -0.233806351436E+04    0.62893E-02   -0.14610E+00  4536   0.103E+00    0.283E-01
RMM:   2    -0.233807305103E+04   -0.95367E-02   -0.10291E-01  6289   0.189E-01    0.181E-01
RMM:   3    -0.233807394928E+04   -0.89825E-03   -0.10124E-02  5860   0.723E-02    0.274E-01
RMM:   4    -0.233807330907E+04    0.64021E-03   -0.11205E-03  4218   0.176E-02    0.982E-02
RMM:   5    -0.233807324085E+04    0.68223E-04   -0.54557E-04  4663   0.138E-02    0.906E-02
RMM:   6    -0.233807316299E+04    0.77858E-04   -0.28224E-04  3601   0.116E-02    0.452E-02
RMM:   7    -0.233807313932E+04    0.23674E-04   -0.45643E-05  3059   0.592E-03    0.144E-02
RMM:   8    -0.233807314259E+04   -0.32726E-05   -0.13920E-05  2968   0.402E-03
  28 F= -.23596412E+04 E0= -.23596412E+04  d E =-.320761E-02  mag=     2.0000
       N       E                     dE             d eps       ncg     rms          rms(c)
DAV:   1    -0.233807311909E+04    0.20232E-04   -0.31390E-03  5088   0.477E-02    0.137E-02
RMM:   2    -0.233807313999E+04   -0.20899E-04   -0.21126E-04  3649   0.937E-03    0.992E-03
RMM:   3    -0.233807314263E+04   -0.26405E-05   -0.22753E-05  2925   0.502E-03
  29 F= -.23596412E+04 E0= -.23596412E+04  d E =-.321364E-02  mag=     2.0000
       N       E                     dE             d eps       ncg     rms          rms(c)
DAV:   1    -0.233806864694E+04    0.44930E-02   -0.56061E-01  4560   0.702E-01    0.223E-01
RMM:   2    -0.233807545162E+04   -0.68047E-02   -0.73788E-02  6265   0.144E-01    0.107E-01
RMM:   3    -0.233807591980E+04   -0.46819E-03   -0.72168E-03  5651   0.586E-02    0.821E-02
RMM:   4    -0.233807595982E+04   -0.40017E-04   -0.73866E-04  3750   0.131E-02    0.897E-02
RMM:   5    -0.233807586995E+04    0.89869E-04   -0.17792E-04  3706   0.958E-03    0.569E-02
RMM:   6    -0.233807585662E+04    0.13329E-04   -0.11774E-04  3086   0.755E-03    0.442E-02
RMM:   7    -0.233807584007E+04    0.16549E-04   -0.30894E-05  3021   0.570E-03    0.189E-02
RMM:   8    -0.233807583774E+04    0.23335E-05   -0.10820E-05  2909   0.365E-03
  30 F= -.23596440E+04 E0= -.23596440E+04  d E =-.282549E-02  mag=     2.0000
       N       E                     dE             d eps       ncg     rms          rms(c)
DAV:   1    -0.233807397979E+04    0.18603E-02   -0.16527E-01  4608   0.382E-01    0.122E-01
RMM:   2    -0.233807600336E+04   -0.20236E-02   -0.21978E-02  6326   0.796E-02    0.585E-02
RMM:   3    -0.233807613796E+04   -0.13460E-03   -0.21449E-03  4140   0.306E-02    0.424E-02
RMM:   4    -0.233807614738E+04   -0.94165E-05   -0.22324E-04  3122   0.792E-03    0.435E-02
RMM:   5    -0.233807612502E+04    0.22357E-04   -0.53484E-05  3046   0.572E-03    0.288E-02
RMM:   6    -0.233807612561E+04   -0.59222E-06   -0.33909E-05  2943   0.490E-03
  31 F= -.23596443E+04 E0= -.23596443E+04  d E =-.318560E-02  mag=     2.0000
       N       E                     dE             d eps       ncg     rms          rms(c)
DAV:   1    -0.233806766806E+04    0.84570E-02   -0.64195E-01  4548   0.733E-01    0.241E-01
RMM:   2    -0.233807835710E+04   -0.10689E-01   -0.11291E-01  6505   0.164E-01    0.170E-01
RMM:   3    -0.233807953614E+04   -0.11790E-02   -0.11753E-02  5971   0.640E-02    0.212E-01
RMM:   4    -0.233807912538E+04    0.41076E-03   -0.12090E-03  3798   0.151E-02    0.837E-02
RMM:   5    -0.233807905679E+04    0.68588E-04   -0.15026E-04  3205   0.857E-03    0.513E-02
RMM:   6    -0.233807906926E+04   -0.12464E-04   -0.15835E-04  3422   0.800E-03    0.612E-02
RMM:   7    -0.233807902791E+04    0.41347E-04   -0.62242E-05  3061   0.665E-03    0.217E-02
RMM:   8    -0.233807902332E+04    0.45948E-05   -0.17793E-05  2937   0.453E-03
  32 F= -.23596472E+04 E0= -.23596472E+04  d E =-.283828E-02  mag=     2.0000
       N       E                     dE             d eps       ncg     rms          rms(c)
DAV:   1    -0.233805687087E+04    0.22157E-01   -0.13381E+00  4536   0.106E+00    0.348E-01
RMM:   2    -0.233807926112E+04   -0.22390E-01   -0.23563E-01  6500   0.237E-01    0.263E-01
RMM:   3    -0.233808171677E+04   -0.24557E-02   -0.24486E-02  6220   0.907E-02    0.320E-01
RMM:   4    -0.233808072454E+04    0.99224E-03   -0.25313E-03  5238   0.219E-02    0.118E-01
RMM:   5    -0.233808061001E+04    0.11453E-03   -0.33751E-04  3840   0.107E-02    0.845E-02
RMM:   6    -0.233808059674E+04    0.13274E-04   -0.29134E-04  3677   0.102E-02    0.834E-02
RMM:   7    -0.233808052228E+04    0.74454E-04   -0.13591E-04  3736   0.833E-03    0.300E-02
RMM:   8    -0.233808051230E+04    0.99858E-05   -0.32955E-05  2949   0.578E-03
  33 F= -.23596486E+04 E0= -.23596486E+04  d E =-.425241E-02  mag=     2.0000
       N       E                     dE             d eps       ncg     rms          rms(c)
DAV:   1    -0.233806959166E+04    0.10931E-01   -0.73825E-01  4560   0.765E-01    0.263E-01
RMM:   2    -0.233808280173E+04   -0.13210E-01   -0.13444E-01  6596   0.179E-01    0.286E-01
RMM:   3    -0.233808371427E+04   -0.91253E-03   -0.14244E-02  6067   0.672E-02    0.242E-01
RMM:   4    -0.233808311607E+04    0.59819E-03   -0.14979E-03  4330   0.163E-02    0.835E-02
RMM:   5    -0.233808309657E+04    0.19503E-04   -0.19651E-04  3411   0.833E-03    0.884E-02
RMM:   6    -0.233808301380E+04    0.82774E-04   -0.17875E-04  3275   0.828E-03    0.457E-02
RMM:   7    -0.233808300091E+04    0.12890E-04   -0.91607E-05  3312   0.728E-03    0.283E-02
RMM:   8    -0.233808299273E+04    0.81815E-05   -0.21300E-05  2939   0.509E-03
  34 F= -.23596508E+04 E0= -.23596508E+04  d E =-.215575E-02  mag=     2.0000
       N       E                     dE             d eps       ncg     rms          rms(c)
DAV:   1    -0.233808130348E+04    0.16974E-02   -0.10453E-01  4736   0.286E-01    0.101E-01
RMM:   2    -0.233808320235E+04   -0.18989E-02   -0.19157E-02  6530   0.673E-02    0.117E-01
RMM:   3    -0.233808330090E+04   -0.98548E-04   -0.20134E-03  3888   0.249E-02    0.894E-02
RMM:   4    -0.233808322000E+04    0.80904E-04   -0.20773E-04  3083   0.743E-03    0.306E-02
RMM:   5    -0.233808321831E+04    0.16929E-05   -0.30619E-05  2966   0.384E-03
  35 F= -.23596509E+04 E0= -.23596509E+04  d E =-.226067E-02  mag=     2.0000
       N       E                     dE             d eps       ncg     rms          rms(c)
DAV:   1    -0.233807249511E+04    0.10725E-01   -0.61487E-01  4560   0.734E-01    0.265E-01
RMM:   2    -0.233808553906E+04   -0.13044E-01   -0.12836E-01  6530   0.176E-01    0.325E-01
RMM:   3    -0.233808597486E+04   -0.43580E-03   -0.13689E-02  6182   0.667E-02    0.226E-01
RMM:   4    -0.233808544509E+04    0.52977E-03   -0.14001E-03  4476   0.160E-02    0.779E-02
RMM:   5    -0.233808543445E+04    0.10645E-04   -0.17543E-04  3250   0.822E-03    0.826E-02
RMM:   6    -0.233808536506E+04    0.69390E-04   -0.15617E-04  3360   0.821E-03    0.455E-02
RMM:   7    -0.233808536986E+04   -0.48041E-05   -0.94441E-05  3085   0.727E-03
  36 F= -.23596530E+04 E0= -.23596530E+04  d E =-.209503E-02  mag=     2.0000
       N       E                     dE             d eps       ncg     rms          rms(c)
DAV:   1    -0.233807358502E+04    0.11780E-01   -0.58823E-01  4548   0.717E-01    0.263E-01
RMM:   2    -0.233808600527E+04   -0.12420E-01   -0.12333E-01  6553   0.173E-01    0.308E-01
RMM:   3    -0.233808655614E+04   -0.55086E-03   -0.13018E-02  6161   0.665E-02    0.234E-01
RMM:   4    -0.233808600447E+04    0.55167E-03   -0.13718E-03  4288   0.161E-02    0.772E-02
RMM:   5    -0.233808598755E+04    0.16918E-04   -0.17700E-04  3181   0.800E-03    0.769E-02
RMM:   6    -0.233808592636E+04    0.61189E-04   -0.13763E-04  3222   0.783E-03    0.436E-02
RMM:   7    -0.233808593525E+04   -0.88888E-05   -0.96545E-05  3091   0.711E-03
  37 F= -.23596535E+04 E0= -.23596535E+04  d E =-.260810E-02  mag=     2.0000
       N       E                     dE             d eps       ncg     rms          rms(c)
DAV:   1    -0.233807800498E+04    0.79214E-02   -0.45467E-01  4560   0.612E-01    0.226E-01
RMM:   2    -0.233808805994E+04   -0.10055E-01   -0.99838E-02  6651   0.151E-01    0.268E-01
RMM:   3    -0.233808852130E+04   -0.46136E-03   -0.10540E-02  6049   0.574E-02    0.199E-01
RMM:   4    -0.233808811545E+04    0.40584E-03   -0.10725E-03  3575   0.137E-02    0.683E-02
RMM:   5    -0.233808809512E+04    0.20337E-04   -0.12510E-04  3088   0.670E-03    0.621E-02
RMM:   6    -0.233808805565E+04    0.39464E-04   -0.93452E-05  3045   0.622E-03    0.381E-02
RMM:   7    -0.233808806248E+04   -0.68238E-05   -0.70159E-05  3009   0.589E-03
  38 F= -.23596555E+04 E0= -.23596555E+04  d E =-.204888E-02  mag=     2.0000
       N       E                     dE             d eps       ncg     rms          rms(c)
DAV:   1    -0.233801004901E+04    0.78007E-01   -0.36281E+00  4536   0.173E+00    0.632E-01
RMM:   2    -0.233808997528E+04   -0.79926E-01   -0.79534E-01  6637   0.424E-01    0.742E-01
RMM:   3    -0.233809435676E+04   -0.43815E-02   -0.86242E-02  6445   0.162E-01    0.573E-01
RMM:   4    -0.233809097004E+04    0.33867E-02   -0.86324E-03  5983   0.380E-02    0.198E-01
RMM:   5    -0.233809080916E+04    0.16088E-03   -0.97240E-04  4485   0.146E-02    0.184E-01
RMM:   6    -0.233809045378E+04    0.35538E-03   -0.76769E-04  4864   0.149E-02    0.106E-01
RMM:   7    -0.233809046478E+04   -0.10998E-04   -0.56426E-04  4672   0.136E-02    0.102E-01
RMM:   8    -0.233809033189E+04    0.13289E-03   -0.16487E-04  3370   0.802E-03    0.209E-02
RMM:   9    -0.233809032472E+04    0.71676E-05   -0.22044E-05  2984   0.484E-03
  39 F= -.23596576E+04 E0= -.23596576E+04  d E =-.410934E-02  mag=     2.0000
       N       E                     dE             d eps       ncg     rms          rms(c)
DAV:   1    -0.233807686842E+04    0.13463E-01   -0.74232E-01  4536   0.753E-01    0.280E-01
RMM:   2    -0.233809271689E+04   -0.15848E-01   -0.15784E-01  6663   0.186E-01    0.319E-01
RMM:   3    -0.233809362136E+04   -0.90447E-03   -0.17090E-02  6185   0.713E-02    0.246E-01
RMM:   4    -0.233809298180E+04    0.63956E-03   -0.17121E-03  4143   0.168E-02    0.880E-02
RMM:   5    -0.233809295493E+04    0.26873E-04   -0.18009E-04  3157   0.739E-03    0.836E-02
RMM:   6    -0.233809287748E+04    0.77449E-04   -0.15011E-04  3100   0.738E-03    0.453E-02
RMM:   7    -0.233809288337E+04   -0.58874E-05   -0.12155E-04  3188   0.720E-03    0.438E-02
RMM:   8    -0.233809285949E+04    0.23884E-04   -0.32582E-05  2954   0.496E-03    0.950E-03
RMM:   9    -0.233809285849E+04    0.99406E-06   -0.56458E-06  2895   0.257E-03
  40 F= -.23596599E+04 E0= -.23596599E+04  d E =-.229115E-02  mag=     2.0000
       N       E                     dE             d eps       ncg     rms          rms(c)
DAV:   1    -0.233804902340E+04    0.43836E-01   -0.21189E+00  4536   0.127E+00    0.471E-01
RMM:   2    -0.233809403854E+04   -0.45015E-01   -0.44940E-01  6666   0.314E-01    0.528E-01
RMM:   3    -0.233809688559E+04   -0.28470E-02   -0.49677E-02  6388   0.122E-01    0.420E-01
RMM:   4    -0.233809502417E+04    0.18614E-02   -0.50232E-03  5613   0.285E-02    0.151E-01
RMM:   5    -0.233809493787E+04    0.86304E-04   -0.52039E-04  3679   0.108E-02    0.141E-01
RMM:   6    -0.233809471039E+04    0.22748E-03   -0.42510E-04  3975   0.115E-02    0.746E-02
RMM:   7    -0.233809472175E+04   -0.11365E-04   -0.33620E-04  4012   0.108E-02    0.716E-02
RMM:   8    -0.233809465672E+04    0.65033E-04   -0.86603E-05  3097   0.666E-03    0.160E-02
RMM:   9    -0.233809465282E+04    0.39062E-05   -0.13060E-05  2966   0.356E-03
  41 F= -.23596613E+04 E0= -.23596613E+04  d E =-.369046E-02  mag=     2.0000
       N       E                     dE             d eps       ncg     rms          rms(c)
DAV:   1    -0.233807010374E+04    0.24553E-01   -0.13490E+00  4536   0.992E-01    0.378E-01
RMM:   2    -0.233809727314E+04   -0.27169E-01   -0.27307E-01  6614   0.245E-01    0.399E-01
RMM:   3    -0.233809914727E+04   -0.18741E-02   -0.29944E-02  6322   0.945E-02    0.332E-01
RMM:   4    -0.233809793708E+04    0.12102E-02   -0.29936E-03  5054   0.226E-02    0.120E-01
RMM:   5    -0.233809790692E+04    0.30162E-04   -0.33455E-04  3288   0.907E-03    0.115E-01
RMM:   6    -0.233809775676E+04    0.15016E-03   -0.23807E-04  3311   0.920E-03    0.557E-02
RMM:   7    -0.233809774965E+04    0.71112E-05   -0.17931E-04  3619   0.877E-03    0.397E-02
RMM:   8    -0.233809773135E+04    0.18295E-04   -0.36232E-05  2964   0.554E-03    0.129E-02
RMM:   9    -0.233809772836E+04    0.29877E-05   -0.61458E-06  2905   0.258E-03
  42 F= -.23596643E+04 E0= -.23596643E+04  d E =-.299084E-02  mag=     2.0000
       N       E                     dE             d eps       ncg     rms          rms(c)
DAV:   1    -0.233808255287E+04    0.15178E-01   -0.77473E-01  4536   0.750E-01    0.287E-01
RMM:   2    -0.233809820869E+04   -0.15656E-01   -0.15713E-01  6616   0.186E-01    0.308E-01
RMM:   3    -0.233809924776E+04   -0.10391E-02   -0.17150E-02  6194   0.720E-02    0.252E-01
RMM:   4    -0.233809855493E+04    0.69283E-03   -0.17131E-03  4167   0.172E-02    0.902E-02
RMM:   5    -0.233809853858E+04    0.16348E-04   -0.19580E-04  3117   0.764E-03    0.870E-02
RMM:   6    -0.233809845227E+04    0.86312E-04   -0.13880E-04  3054   0.726E-03    0.427E-02
RMM:   7    -0.233809844832E+04    0.39479E-05   -0.10420E-04  3188   0.710E-03    0.317E-02
RMM:   8    -0.233809843663E+04    0.11697E-04   -0.23067E-05  2943   0.488E-03    0.957E-03
RMM:   9    -0.233809843490E+04    0.17280E-05   -0.42116E-06  2832   0.221E-03
  43 F= -.23596649E+04 E0= -.23596649E+04  d E =-.364001E-02  mag=     2.0000
       N       E                     dE             d eps       ncg     rms          rms(c)
DAV:   1    -0.233808243896E+04    0.15998E-01   -0.96934E-01  4536   0.834E-01    0.317E-01
RMM:   2    -0.233810078711E+04   -0.18348E-01   -0.18347E-01  6609   0.203E-01    0.341E-01
RMM:   3    -0.233810198004E+04   -0.11929E-02   -0.20174E-02  6210   0.783E-02    0.269E-01
RMM:   4    -0.233810118328E+04    0.79676E-03   -0.20333E-03  4742   0.186E-02    0.101E-01
RMM:   5    -0.233810116114E+04    0.22139E-04   -0.23795E-04  3144   0.821E-03    0.932E-02
RMM:   6    -0.233810105886E+04    0.10228E-03   -0.17721E-04  3153   0.813E-03    0.458E-02
RMM:   7    -0.233810104598E+04    0.12886E-04   -0.10885E-04  3410   0.744E-03    0.160E-02
RMM:   8    -0.233810104463E+04    0.13486E-05   -0.16531E-05  2955   0.499E-03
  44 F= -.23596674E+04 E0= -.23596674E+04  d E =-.247843E-02  mag=     2.0000
       N       E                     dE             d eps       ncg     rms          rms(c)
DAV:   1    -0.233807154464E+04    0.29501E-01   -0.16029E+00  4536   0.107E+00    0.409E-01
RMM:   2    -0.233810189913E+04   -0.30354E-01   -0.30341E-01  6582   0.260E-01    0.443E-01
RMM:   3    -0.233810381878E+04   -0.19197E-02   -0.33515E-02  6320   0.993E-02    0.347E-01
RMM:   4    -0.233810250605E+04    0.13127E-02   -0.34009E-03  5492   0.238E-02    0.131E-01
RMM:   5    -0.233810246811E+04    0.37937E-04   -0.39510E-04  3348   0.985E-03    0.120E-01
RMM:   6    -0.233810229809E+04    0.17002E-03   -0.29083E-04  3636   0.100E-02    0.578E-02
RMM:   7    -0.233810227802E+04    0.20069E-04   -0.17870E-04  3780   0.881E-03    0.213E-02
RMM:   8    -0.233810227518E+04    0.28421E-05   -0.26576E-05  2963   0.581E-03
  45 F= -.23596685E+04 E0= -.23596685E+04  d E =-.354972E-02  mag=     2.0000
       N       E                     dE             d eps       ncg     rms          rms(c)
DAV:   1    -0.233808286603E+04    0.19412E-01   -0.12346E+00  4536   0.938E-01    0.355E-01
RMM:   2    -0.233810554729E+04   -0.22681E-01   -0.22004E-01  6623   0.226E-01    0.466E-01
RMM:   3    -0.233810592444E+04   -0.37715E-03   -0.23627E-02  6258   0.828E-02    0.274E-01
RMM:   4    -0.233810516149E+04    0.76295E-03   -0.24326E-03  5097   0.196E-02    0.108E-01
RMM:   5    -0.233810514313E+04    0.18356E-04   -0.27092E-04  3254   0.872E-03    0.105E-01
RMM:   6    -0.233810501676E+04    0.12637E-03   -0.21792E-04  3364   0.917E-03    0.495E-02
RMM:   7    -0.233810502130E+04   -0.45330E-05   -0.13320E-04  3480   0.784E-03    0.362E-02
RMM:   8    -0.233810500386E+04    0.17435E-04   -0.34689E-05  2945   0.548E-03    0.138E-02
RMM:   9    -0.233810500115E+04    0.27118E-05   -0.56480E-06  2873   0.256E-03
  46 F= -.23596710E+04 E0= -.23596710E+04  d E =-.253846E-02  mag=     2.0000
       N       E                     dE             d eps       ncg     rms          rms(c)
DAV:   1    -0.233808731890E+04    0.17685E-01   -0.10429E+00  4536   0.864E-01    0.323E-01
RMM:   2    -0.233810631970E+04   -0.19001E-01   -0.18431E-01  6599   0.209E-01    0.423E-01
RMM:   3    -0.233810668782E+04   -0.36812E-03   -0.19931E-02  6191   0.782E-02    0.249E-01
RMM:   4    -0.233810605536E+04    0.63246E-03   -0.20369E-03  4846   0.182E-02    0.982E-02
RMM:   5    -0.233810603737E+04    0.17992E-04   -0.21985E-04  3169   0.825E-03    0.950E-02
RMM:   6    -0.233810593263E+04    0.10474E-03   -0.18364E-04  3220   0.855E-03    0.465E-02
RMM:   7    -0.233810593653E+04   -0.39006E-05   -0.11625E-04  3346   0.749E-03    0.356E-02
RMM:   8    -0.233810591938E+04    0.17149E-04   -0.32157E-05  2938   0.533E-03    0.125E-02
RMM:   9    -0.233810591705E+04    0.23282E-05   -0.53193E-06  2868   0.253E-03
  47 F= -.23596717E+04 E0= -.23596717E+04  d E =-.328774E-02  mag=     2.0000
       N       E                     dE             d eps       ncg     rms          rms(c)
DAV:   1    -0.233808188967E+04    0.24030E-01   -0.16211E+00  4536   0.110E+00    0.403E-01
RMM:   2    -0.233811082569E+04   -0.28936E-01   -0.26728E-01  6609   0.262E-01    0.648E-01
RMM:   3    -0.233810922646E+04    0.15992E-02   -0.27914E-02  6321   0.930E-02    0.260E-01
RMM:   4    -0.233810859601E+04    0.63045E-03   -0.29220E-03  5340   0.213E-02    0.111E-01
RMM:   5    -0.233810861304E+04   -0.17038E-04   -0.36313E-04  3637   0.104E-02    0.127E-01
RMM:   6    -0.233810843593E+04    0.17711E-03   -0.28699E-04  3991   0.108E-02    0.629E-02
RMM:   7    -0.233810844510E+04   -0.91671E-05   -0.17036E-04  3322   0.863E-03    0.514E-02
RMM:   8    -0.233810840707E+04    0.38024E-04   -0.49586E-05  2990   0.591E-03    0.135E-02
RMM:   9    -0.233810840407E+04    0.30027E-05   -0.72172E-06  2904   0.302E-03
  48 F= -.23596743E+04 E0= -.23596743E+04  d E =-.256346E-02  mag=     2.0000
       N       E                     dE             d eps       ncg     rms          rms(c)
DAV:   1    -0.233810259214E+04    0.58149E-02   -0.37005E-01  4592   0.527E-01    0.193E-01
RMM:   2    -0.233810924880E+04   -0.66567E-02   -0.61172E-02  6583   0.125E-01    0.316E-01
RMM:   3    -0.233810883385E+04    0.41495E-03   -0.64200E-03  5673   0.456E-02    0.122E-01
RMM:   4    -0.233810869320E+04    0.14066E-03   -0.66354E-04  3347   0.105E-02    0.510E-02
RMM:   5    -0.233810869808E+04   -0.48879E-05   -0.81406E-05  3011   0.609E-03
  49 F= -.23596746E+04 E0= -.23596746E+04  d E =-.289749E-02  mag=     2.0000
       N       E                     dE             d eps       ncg     rms          rms(c)
DAV:   1    -0.233808285203E+04    0.25841E-01   -0.17485E+00  4536   0.117E+00    0.414E-01
RMM:   2    -0.233811392382E+04   -0.31072E-01   -0.28475E-01  6652   0.276E-01    0.691E-01
RMM:   3    -0.233811176800E+04    0.21558E-02   -0.29472E-02  6320   0.998E-02    0.260E-01
RMM:   4    -0.233811111665E+04    0.65134E-03   -0.30149E-03  5398   0.220E-02    0.108E-01
RMM:   5    -0.233811106222E+04    0.54433E-04   -0.36517E-04  4661   0.126E-02    0.105E-01
RMM:   6    -0.233811103854E+04    0.23679E-04   -0.31172E-04  3766   0.107E-02    0.869E-02
RMM:   7    -0.233811096515E+04    0.73393E-04   -0.12250E-04  3148   0.796E-03    0.298E-02
RMM:   8    -0.233811095446E+04    0.10684E-04   -0.28132E-05  2957   0.508E-03    0.167E-02
RMM:   9    -0.233811095107E+04    0.33931E-05   -0.58675E-06  2879   0.249E-03
  50 F= -.23596768E+04 E0= -.23596768E+04  d E =-.218239E-02  mag=     2.0000
       N       E                     dE             d eps       ncg     rms          rms(c)
DAV:   1    -0.233810976732E+04    0.11871E-02   -0.78618E-02  4736   0.247E-01    0.908E-02
RMM:   2    -0.233811122941E+04   -0.14621E-02   -0.12955E-02  6531   0.588E-02    0.166E-01
RMM:   3    -0.233811106016E+04    0.16926E-03   -0.13290E-03  3544   0.217E-02    0.507E-02
RMM:   4    -0.233811103626E+04    0.23896E-04   -0.13884E-04  3078   0.611E-03    0.224E-02
RMM:   5    -0.233811103501E+04    0.12461E-05   -0.19822E-05  2955   0.340E-03
  51 F= -.23596769E+04 E0= -.23596769E+04  d E =-.225221E-02  mag=     2.0000
       N       E                     dE             d eps       ncg     rms          rms(c)
DAV:   1    -0.233809978113E+04    0.11255E-01   -0.84197E-01  4548   0.853E-01    0.292E-01
RMM:   2    -0.233811402480E+04   -0.14244E-01   -0.13049E-01  6504   0.197E-01    0.477E-01
RMM:   3    -0.233811296087E+04    0.10639E-02   -0.13217E-02  6167   0.703E-02    0.188E-01
RMM:   4    -0.233811260976E+04    0.35111E-03   -0.13216E-03  4892   0.158E-02    0.719E-02
RMM:   5    -0.233811259422E+04    0.15538E-04   -0.19691E-04  3936   0.998E-03    0.732E-02
RMM:   6    -0.233811256527E+04    0.28954E-04   -0.14740E-04  3236   0.848E-03    0.493E-02
RMM:   7    -0.233811254992E+04    0.15351E-04   -0.54805E-05  2993   0.670E-03    0.286E-02
RMM:   8    -0.233811253958E+04    0.10344E-04   -0.16511E-05  2936   0.425E-03    0.104E-02
RMM:   9    -0.233811253828E+04    0.12951E-05   -0.31728E-06  2848   0.230E-03
  52 F= -.23596784E+04 E0= -.23596784E+04  d E =-.155203E-02  mag=     2.0000
       N       E                     dE             d eps       ncg     rms          rms(c)
DAV:   1    -0.233811174547E+04    0.79410E-03   -0.56139E-02  4720   0.221E-01    0.771E-02
RMM:   2    -0.233811273182E+04   -0.98635E-03   -0.87542E-03  6433   0.512E-02    0.136E-01
RMM:   3    -0.233811261972E+04    0.11210E-03   -0.89635E-04  3365   0.188E-02    0.449E-02
RMM:   4    -0.233811260027E+04    0.19455E-04   -0.92073E-05  3035   0.553E-03    0.182E-02
RMM:   5    -0.233811259845E+04    0.18226E-05   -0.13977E-05  2944   0.322E-03
  53 F= -.23596785E+04 E0= -.23596785E+04  d E =-.162543E-02  mag=     2.0000
       N       E                     dE             d eps       ncg     rms          rms(c)
DAV:   1    -0.233810482339E+04    0.77769E-02   -0.72327E-01  4548   0.811E-01    0.251E-01
RMM:   2    -0.233811453183E+04   -0.97084E-02   -0.94355E-02  6532   0.177E-01    0.324E-01
RMM:   3    -0.233811460443E+04   -0.72597E-04   -0.96865E-03  6052   0.635E-02    0.207E-01
RMM:   4    -0.233811416450E+04    0.43992E-03   -0.96084E-04  4547   0.154E-02    0.664E-02
RMM:   5    -0.233811414205E+04    0.22454E-04   -0.18504E-04  3687   0.958E-03    0.582E-02
RMM:   6    -0.233811411967E+04    0.22383E-04   -0.12111E-04  3246   0.819E-03    0.362E-02
RMM:   7    -0.233811410713E+04    0.12537E-04   -0.35522E-05  2966   0.622E-03    0.162E-02
RMM:   8    -0.233811410533E+04    0.17974E-05   -0.10177E-05  2921   0.384E-03
  54 F= -.23596801E+04 E0= -.23596801E+04  d E =-.159034E-02  mag=     2.0000
       N       E                     dE             d eps       ncg     rms          rms(c)
DAV:   1    -0.233811095833E+04    0.31488E-02   -0.25771E-01  4560   0.485E-01    0.153E-01
RMM:   2    -0.233811450411E+04   -0.35458E-02   -0.33827E-02  6507   0.106E-01    0.210E-01
RMM:   3    -0.233811443597E+04    0.68137E-04   -0.34680E-03  5254   0.373E-02    0.119E-01
RMM:   4    -0.233811428841E+04    0.14757E-03   -0.34361E-04  3185   0.944E-03    0.379E-02
RMM:   5    -0.233811427351E+04    0.14891E-04   -0.50407E-05  3033   0.626E-03    0.261E-02
RMM:   6    -0.233811428297E+04   -0.94584E-05   -0.39840E-05  2953   0.561E-03
  55 F= -.23596803E+04 E0= -.23596803E+04  d E =-.181950E-02  mag=     2.0000
       N       E                     dE             d eps       ncg     rms          rms(c)
DAV:   1    -0.233811057614E+04    0.36974E-02   -0.41107E-01  4548   0.608E-01    0.175E-01
RMM:   2    -0.233811554552E+04   -0.49694E-02   -0.49962E-02  6477   0.126E-01    0.189E-01
RMM:   3    -0.233811585430E+04   -0.30878E-03   -0.52192E-03  5551   0.473E-02    0.163E-01
RMM:   4    -0.233811558662E+04    0.26768E-03   -0.51819E-04  3388   0.115E-02    0.503E-02
RMM:   5    -0.233811557213E+04    0.14492E-04   -0.10328E-04  3119   0.750E-03    0.406E-02
RMM:   6    -0.233811556698E+04    0.51505E-05   -0.69865E-05  3035   0.638E-03
  56 F= -.23596816E+04 E0= -.23596816E+04  d E =-.122830E-02  mag=     2.0000
       N       E                     dE             d eps       ncg     rms          rms(c)
DAV:   1    -0.233810356595E+04    0.12006E-01   -0.10495E+00  4536   0.969E-01    0.279E-01
RMM:   2    -0.233811623257E+04   -0.12667E-01   -0.12740E-01  6519   0.202E-01    0.304E-01
RMM:   3    -0.233811699676E+04   -0.76419E-03   -0.13289E-02  5976   0.727E-02    0.257E-01
RMM:   4    -0.233811633729E+04    0.65947E-03   -0.13277E-03  4699   0.178E-02    0.820E-02
RMM:   5    -0.233811631124E+04    0.26045E-04   -0.28141E-04  3638   0.105E-02    0.719E-02
RMM:   6    -0.233811626486E+04    0.46383E-04   -0.18960E-04  3720   0.926E-03    0.383E-02
RMM:   7    -0.233811625182E+04    0.13040E-04   -0.44647E-05  3003   0.651E-03    0.137E-02
RMM:   8    -0.233811625356E+04   -0.17345E-05   -0.11613E-05  2940   0.402E-03
  57 F= -.23596822E+04 E0= -.23596822E+04  d E =-.183045E-02  mag=     2.0000
       N       E                     dE             d eps       ncg     rms          rms(c)
DAV:   1    -0.233811107399E+04    0.51778E-02   -0.55569E-01  4548   0.718E-01    0.206E-01
RMM:   2    -0.233811736057E+04   -0.62866E-02   -0.64405E-02  6460   0.149E-01    0.188E-01
RMM:   3    -0.233811794235E+04   -0.58178E-03   -0.66672E-03  5827   0.542E-02    0.205E-01
RMM:   4    -0.233811751375E+04    0.42860E-03   -0.67775E-04  3648   0.138E-02    0.581E-02
RMM:   5    -0.233811750355E+04    0.10199E-04   -0.13936E-04  3237   0.855E-03    0.527E-02
RMM:   6    -0.233811749125E+04    0.12304E-04   -0.89140E-05  3002   0.737E-03    0.391E-02
RMM:   7    -0.233811747631E+04    0.14940E-04   -0.29087E-05  2970   0.564E-03    0.120E-02
RMM:   8    -0.233811747613E+04    0.17801E-06   -0.84622E-06  2905   0.401E-03
  58 F= -.23596834E+04 E0= -.23596834E+04  d E =-.127889E-02  mag=     2.0000
       N       E                     dE             d eps       ncg     rms          rms(c)
DAV:   1    -0.233811090419E+04    0.65721E-02   -0.60176E-01  4536   0.747E-01    0.214E-01
RMM:   2    -0.233811771905E+04   -0.68149E-02   -0.69713E-02  6426   0.155E-01    0.196E-01
RMM:   3    -0.233811834245E+04   -0.62341E-03   -0.72305E-03  5874   0.569E-02    0.212E-01
RMM:   4    -0.233811788048E+04    0.46197E-03   -0.72901E-04  3771   0.143E-02    0.606E-02
RMM:   5    -0.233811786711E+04    0.13376E-04   -0.15081E-04  3318   0.885E-03    0.534E-02
RMM:   6    -0.233811785669E+04    0.10420E-04   -0.95454E-05  3016   0.752E-03    0.419E-02
RMM:   7    -0.233811783834E+04    0.18344E-04   -0.30816E-05  2976   0.577E-03    0.116E-02
RMM:   8    -0.233811783831E+04    0.28696E-07   -0.87522E-06  2909   0.405E-03
  59 F= -.23596839E+04 E0= -.23596839E+04  d E =-.170243E-02  mag=     2.0000
       N       E                     dE             d eps       ncg     rms          rms(c)
DAV:   1    -0.233811622837E+04    0.16100E-02   -0.27760E-01  4560   0.516E-01    0.147E-01
RMM:   2    -0.233811893042E+04   -0.27020E-02   -0.27440E-02  6284   0.104E-01    0.134E-01
RMM:   3    -0.233811914081E+04   -0.21039E-03   -0.28057E-03  5163   0.390E-02    0.138E-01
RMM:   4    -0.233811893552E+04    0.20529E-03   -0.30319E-04  3241   0.103E-02    0.451E-02
RMM:   5    -0.233811895045E+04   -0.14929E-04   -0.84098E-05  3004   0.671E-03    0.558E-02
RMM:   6    -0.233811891652E+04    0.33931E-04   -0.55879E-05  2985   0.597E-03    0.200E-02
RMM:   7    -0.233811891710E+04   -0.58525E-06   -0.21789E-05  2962   0.491E-03
  60 F= -.23596850E+04 E0= -.23596850E+04  d E =-.116448E-02  mag=     2.0000
       N       E                     dE             d eps       ncg     rms          rms(c)
DAV:   1    -0.233811371638E+04    0.52001E-02   -0.58085E-01  4536   0.747E-01    0.211E-01
RMM:   2    -0.233811931033E+04   -0.55939E-02   -0.57254E-02  6422   0.152E-01    0.182E-01
RMM:   3    -0.233811981433E+04   -0.50400E-03   -0.58372E-03  5778   0.578E-02    0.201E-01
RMM:   4    -0.233811937910E+04    0.43523E-03   -0.63407E-04  4091   0.145E-02    0.648E-02
RMM:   5    -0.233811940281E+04   -0.23714E-04   -0.17178E-04  3232   0.907E-03    0.772E-02
RMM:   6    -0.233811934124E+04    0.61572E-04   -0.11262E-04  3127   0.802E-03    0.322E-02
RMM:   7    -0.233811933833E+04    0.29135E-05   -0.42617E-05  2981   0.650E-03
  61 F= -.23596856E+04 E0= -.23596856E+04  d E =-.171121E-02  mag=     2.0000
       N       E                     dE             d eps       ncg     rms          rms(c)
DAV:   1    -0.233811826806E+04    0.10732E-02   -0.24122E-01  4576   0.471E-01    0.125E-01
RMM:   2    -0.233812034240E+04   -0.20743E-02   -0.20640E-02  6456   0.920E-02    0.128E-01
RMM:   3    -0.233812042628E+04   -0.83880E-04   -0.19687E-03  4736   0.329E-02    0.112E-01
RMM:   4    -0.233812029175E+04    0.13453E-03   -0.21109E-04  3181   0.914E-03    0.390E-02
RMM:   5    -0.233812030644E+04   -0.14690E-04   -0.67031E-05  2997   0.596E-03    0.518E-02
RMM:   6    -0.233812027731E+04    0.29128E-04   -0.46584E-05  3031   0.548E-03    0.174E-02
RMM:   7    -0.233812027730E+04    0.11787E-07   -0.14460E-05  2935   0.423E-03
  62 F= -.23596866E+04 E0= -.23596866E+04  d E =-.971513E-03  mag=     2.0000
       N       E                     dE             d eps       ncg     rms          rms(c)
DAV:   1    -0.233811095357E+04    0.93237E-02   -0.12100E+00  4536   0.105E+00    0.277E-01
RMM:   2    -0.233812138319E+04   -0.10430E-01   -0.10297E-01  6400   0.205E-01    0.297E-01
RMM:   3    -0.233812170517E+04   -0.32198E-03   -0.99325E-03  5892   0.757E-02    0.245E-01
RMM:   4    -0.233812106920E+04    0.63597E-03   -0.10668E-03  5071   0.184E-02    0.884E-02
RMM:   5    -0.233812114112E+04   -0.71919E-04   -0.30883E-04  3768   0.109E-02    0.117E-01
RMM:   6    -0.233812098328E+04    0.15784E-03   -0.23311E-04  4323   0.106E-02    0.344E-02
RMM:   7    -0.233812098129E+04    0.19982E-05   -0.52793E-05  3039   0.672E-03
  63 F= -.23596873E+04 E0= -.23596873E+04  d E =-.175194E-02  mag=     2.0000
       N       E                     dE             d eps       ncg     rms          rms(c)
DAV:   1    -0.233811902060E+04    0.19627E-02   -0.38658E-01  4548   0.607E-01    0.168E-01
RMM:   2    -0.233812219131E+04   -0.31707E-02   -0.31372E-02  6346   0.118E-01    0.176E-01
RMM:   3    -0.233812228485E+04   -0.93536E-04   -0.29400E-03  5564   0.418E-02    0.154E-01
RMM:   4    -0.233812204598E+04    0.23887E-03   -0.32272E-04  3483   0.112E-02    0.488E-02
RMM:   5    -0.233812207486E+04   -0.28880E-04   -0.11083E-04  3058   0.760E-03    0.665E-02
RMM:   6    -0.233812202410E+04    0.50757E-04   -0.71259E-05  3094   0.683E-03    0.209E-02
RMM:   7    -0.233812202560E+04   -0.14983E-05   -0.22791E-05  2971   0.536E-03
  64 F= -.23596885E+04 E0= -.23596885E+04  d E =-.121702E-02  mag=     2.0000
       N       E                     dE             d eps       ncg     rms          rms(c)
DAV:   1    -0.233811684573E+04    0.51784E-02   -0.71230E-01  4536   0.824E-01    0.226E-01
RMM:   2    -0.233812271404E+04   -0.58683E-02   -0.57551E-02  6385   0.159E-01    0.245E-01
RMM:   3    -0.233812283388E+04   -0.11984E-03   -0.54266E-03  5835   0.579E-02    0.205E-01
RMM:   4    -0.233812240112E+04    0.43276E-03   -0.58569E-04  4487   0.149E-02    0.659E-02
RMM:   5    -0.233812245547E+04   -0.54344E-04   -0.19783E-04  3340   0.945E-03    0.924E-02
RMM:   6    -0.233812235324E+04    0.10223E-03   -0.13019E-04  3656   0.881E-03    0.244E-02
RMM:   7    -0.233812235138E+04    0.18618E-05   -0.30457E-05  3000   0.601E-03
  65 F= -.23596891E+04 E0= -.23596891E+04  d E =-.177783E-02  mag=     2.0000
       N       E                     dE             d eps       ncg     rms          rms(c)
DAV:   1    -0.233812174385E+04    0.60939E-03   -0.16079E-01  4640   0.393E-01    0.112E-01
RMM:   2    -0.233812314942E+04   -0.14056E-02   -0.13846E-02  6454   0.785E-02    0.120E-01
RMM:   3    -0.233812319471E+04   -0.45291E-04   -0.13566E-03  4641   0.271E-02    0.105E-01
RMM:   4    -0.233812308405E+04    0.11066E-03   -0.14368E-04  3067   0.834E-03    0.323E-02
RMM:   5    -0.233812309424E+04   -0.10193E-04   -0.54456E-05  3026   0.578E-03    0.434E-02
RMM:   6    -0.233812307381E+04    0.20434E-04   -0.38382E-05  2964   0.543E-03    0.159E-02
RMM:   7    -0.233812307518E+04   -0.13673E-05   -0.15527E-05  2927   0.429E-03
  66 F= -.23596899E+04 E0= -.23596899E+04  d E =-.819684E-03  mag=     2.0000
       N       E                     dE             d eps       ncg     rms          rms(c)
DAV:   1    -0.233812016872E+04    0.29051E-02   -0.38693E-01  4560   0.610E-01    0.173E-01
RMM:   2    -0.233812355249E+04   -0.33838E-02   -0.33257E-02  6414   0.120E-01    0.191E-01
RMM:   3    -0.233812362717E+04   -0.74680E-04   -0.32371E-03  5631   0.425E-02    0.156E-01
RMM:   4    -0.233812338957E+04    0.23760E-03   -0.35032E-04  3854   0.117E-02    0.546E-02
RMM:   5    -0.233812339486E+04   -0.52904E-05   -0.12127E-04  3134   0.789E-03    0.598E-02
RMM:   6    -0.233812335774E+04    0.37115E-04   -0.91368E-05  3490   0.763E-03    0.296E-02
RMM:   7    -0.233812335673E+04    0.10102E-05   -0.35299E-05  2953   0.588E-03
  67 F= -.23596904E+04 E0= -.23596904E+04  d E =-.125057E-02  mag=     2.0000
       N       E                     dE             d eps       ncg     rms          rms(c)
DAV:   1    -0.233812221355E+04    0.11442E-02   -0.22411E-01  4576   0.451E-01    0.119E-01
RMM:   2    -0.233812417716E+04   -0.19636E-02   -0.19495E-02  6458   0.877E-02    0.131E-01
RMM:   3    -0.233812424298E+04   -0.65814E-04   -0.19195E-03  4713   0.318E-02    0.104E-01
RMM:   4    -0.233812414195E+04    0.10102E-03   -0.20978E-04  3163   0.879E-03    0.434E-02
RMM:   5    -0.233812413459E+04    0.73644E-05   -0.59059E-05  3009   0.576E-03
  68 F= -.23596911E+04 E0= -.23596911E+04  d E =-.757945E-03  mag=     2.0000
       N       E                     dE             d eps       ncg     rms          rms(c)
DAV:   1    -0.233812215477E+04    0.19872E-02   -0.25863E-01  4560   0.484E-01    0.128E-01
RMM:   2    -0.233812442521E+04   -0.22704E-02   -0.22310E-02  6517   0.939E-02    0.149E-01
RMM:   3    -0.233812445925E+04   -0.34035E-04   -0.22272E-03  4900   0.340E-02    0.103E-01
RMM:   4    -0.233812434973E+04    0.10952E-03   -0.23399E-04  3260   0.913E-03    0.453E-02
RMM:   5    -0.233812435519E+04   -0.54621E-05   -0.82084E-05  3047   0.659E-03
  69 F= -.23596913E+04 E0= -.23596913E+04  d E =-.958256E-03  mag=     2.0000
       N       E                     dE             d eps       ncg     rms          rms(c)
DAV:   1    -0.233812274464E+04    0.16051E-02   -0.29129E-01  4560   0.530E-01    0.144E-01
RMM:   2    -0.233812510517E+04   -0.23605E-02   -0.24029E-02  6416   0.102E-01    0.120E-01
RMM:   3    -0.233812531064E+04   -0.20547E-03   -0.25230E-03  5245   0.389E-02    0.128E-01
RMM:   4    -0.233812511479E+04    0.19585E-03   -0.25459E-04  3285   0.102E-02    0.423E-02
RMM:   5    -0.233812510230E+04    0.12495E-04   -0.85002E-05  3175   0.769E-03    0.321E-02
RMM:   6    -0.233812510327E+04   -0.97165E-06   -0.44608E-05  3001   0.623E-03
  70 F= -.23596921E+04 E0= -.23596921E+04  d E =-.789384E-03  mag=     2.0000
       N       E                     dE             d eps       ncg     rms          rms(c)
DAV:   1    -0.233812331722E+04    0.17851E-02   -0.23934E-01  4592   0.480E-01    0.134E-01
RMM:   2    -0.233812534215E+04   -0.20249E-02   -0.20064E-02  6285   0.922E-02    0.143E-01
RMM:   3    -0.233812541694E+04   -0.74787E-04   -0.20486E-03  4969   0.307E-02    0.121E-01
RMM:   4    -0.233812528087E+04    0.13606E-03   -0.22183E-04  3178   0.920E-03    0.475E-02
RMM:   5    -0.233812526866E+04    0.12218E-04   -0.72183E-05  3039   0.624E-03    0.396E-02
RMM:   6    -0.233812525141E+04    0.17248E-04   -0.57099E-05  3139   0.609E-03    0.204E-02
RMM:   7    -0.233812525292E+04   -0.15092E-05   -0.20887E-05  2949   0.492E-03
  71 F= -.23596923E+04 E0= -.23596923E+04  d E =-.977124E-03  mag=     2.0000
       N       E                     dE             d eps       ncg     rms          rms(c)
DAV:   1    -0.233812395274E+04    0.12987E-02   -0.25336E-01  4560   0.491E-01    0.134E-01
RMM:   2    -0.233812603006E+04   -0.20773E-02   -0.21322E-02  6225   0.937E-02    0.111E-01
RMM:   3    -0.233812621005E+04   -0.17999E-03   -0.21567E-03  4898   0.356E-02    0.124E-01
RMM:   4    -0.233812603779E+04    0.17226E-03   -0.22160E-04  3150   0.959E-03    0.422E-02
RMM:   5    -0.233812604735E+04   -0.95596E-05   -0.82303E-05  3024   0.694E-03
  72 F= -.23596931E+04 E0= -.23596931E+04  d E =-.835128E-03  mag=     2.0000
       N       E                     dE             d eps       ncg     rms          rms(c)
DAV:   1    -0.233812461828E+04    0.14195E-02   -0.18619E-01  4560   0.420E-01    0.116E-01
RMM:   2    -0.233812618066E+04   -0.15624E-02   -0.15709E-02  6402   0.816E-02    0.109E-01
RMM:   3    -0.233812627246E+04   -0.91801E-04   -0.17247E-03  4680   0.310E-02    0.100E-01
RMM:   4    -0.233812614415E+04    0.12831E-03   -0.16089E-04  3104   0.896E-03    0.342E-02
RMM:   5    -0.233812613429E+04    0.98553E-05   -0.66642E-05  3341   0.670E-03
  73 F= -.23596933E+04 E0= -.23596933E+04  d E =-.957797E-03  mag=     2.0000
       N       E                     dE             d eps       ncg     rms          rms(c)
DAV:   1    -0.233812419104E+04    0.19531E-02   -0.32210E-01  4560   0.541E-01    0.147E-01
RMM:   2    -0.233812708525E+04   -0.28942E-02   -0.27986E-02  6477   0.105E-01    0.179E-01
RMM:   3    -0.233812708393E+04    0.13220E-05   -0.28862E-03  5227   0.384E-02    0.126E-01
RMM:   4    -0.233812692164E+04    0.16229E-03   -0.30092E-04  3362   0.101E-02    0.574E-02
RMM:   5    -0.233812691822E+04    0.34155E-05   -0.88759E-05  2990   0.648E-03
  74 F= -.23596940E+04 E0= -.23596940E+04  d E =-.708283E-03  mag=     2.0000
       N       E                     dE             d eps       ncg     rms          rms(c)
DAV:   1    -0.233812659954E+04    0.32209E-03   -0.39874E-02  4888   0.191E-01    0.561E-02
RMM:   2    -0.233812698939E+04   -0.38985E-03   -0.35117E-03  6364   0.378E-02    0.783E-02
RMM:   3    -0.233812694913E+04    0.40260E-04   -0.42543E-04  3193   0.144E-02    0.405E-02
RMM:   4    -0.233812693623E+04    0.12907E-04   -0.47284E-05  2990   0.525E-03    0.274E-02
RMM:   5    -0.233812693155E+04    0.46763E-05   -0.16385E-05  2938   0.288E-03
  75 F= -.23596939E+04 E0= -.23596939E+04  d E =-.694699E-03  mag=     2.0000
       N       E                     dE             d eps       ncg     rms          rms(c)
DAV:   1    -0.233812488776E+04    0.20485E-02   -0.31329E-01  4560   0.548E-01    0.158E-01
RMM:   2    -0.233812804031E+04   -0.31526E-02   -0.29785E-02  6278   0.108E-01    0.193E-01
RMM:   3    -0.233812790117E+04    0.13914E-03   -0.29833E-03  5513   0.391E-02    0.122E-01
RMM:   4    -0.233812775331E+04    0.14786E-03   -0.35549E-04  3331   0.102E-02    0.708E-02
RMM:   5    -0.233812771943E+04    0.33886E-04   -0.91107E-05  2969   0.666E-03    0.479E-02
RMM:   6    -0.233812772265E+04   -0.32222E-05   -0.10432E-04  3588   0.710E-03    0.494E-02
RMM:   7    -0.233812769298E+04    0.29669E-04   -0.44276E-05  2956   0.610E-03    0.129E-02
RMM:   8    -0.233812769141E+04    0.15656E-05   -0.66854E-06  2914   0.302E-03
  76 F= -.23596947E+04 E0= -.23596947E+04  d E =-.777430E-03  mag=     2.0000
       N       E                     dE             d eps       ncg     rms          rms(c)
DAV:   1    -0.233812724529E+04    0.44769E-03   -0.55511E-02  4656   0.231E-01    0.645E-02
RMM:   2    -0.233812776967E+04   -0.52438E-03   -0.52862E-03  6301   0.459E-02    0.586E-02
RMM:   3    -0.233812779452E+04   -0.24850E-04   -0.51770E-04  3247   0.159E-02    0.528E-02
RMM:   4    -0.233812775943E+04    0.35087E-04   -0.57049E-05  2976   0.567E-03    0.233E-02
RMM:   5    -0.233812775820E+04    0.12375E-05   -0.17911E-05  2928   0.309E-03
  77 F= -.23596948E+04 E0= -.23596948E+04  d E =-.851976E-03  mag=     2.0000
       N       E                     dE             d eps       ncg     rms          rms(c)
DAV:   1    -0.233812672436E+04    0.10351E-02   -0.17050E-01  4560   0.416E-01    0.118E-01
RMM:   2    -0.233812829338E+04   -0.15690E-02   -0.16362E-02  6241   0.821E-02    0.868E-02
RMM:   3    -0.233812842868E+04   -0.13530E-03   -0.16023E-03  4703   0.308E-02    0.995E-02
RMM:   4    -0.233812830146E+04    0.12723E-03   -0.17916E-04  3105   0.875E-03    0.385E-02
RMM:   5    -0.233812830116E+04    0.29885E-06   -0.68788E-05  3042   0.623E-03
  78 F= -.23596954E+04 E0= -.23596954E+04  d E =-.565685E-03  mag=     2.0000
       N       E                     dE             d eps       ncg     rms          rms(c)
DAV:   1    -0.233812812753E+04    0.17393E-03   -0.16857E-02  4912   0.131E-01    0.404E-02
RMM:   2    -0.233812829338E+04   -0.16586E-03   -0.16730E-03  6258   0.282E-02    0.392E-02
RMM:   3    -0.233812830143E+04   -0.80427E-05   -0.18995E-04  2974   0.102E-02    0.346E-02
RMM:   4    -0.233812828884E+04    0.12590E-04   -0.20339E-05  2950   0.403E-03    0.166E-02
RMM:   5    -0.233812828954E+04   -0.70498E-06   -0.93404E-06  2904   0.232E-03
  79 F= -.23596954E+04 E0= -.23596954E+04  d E =-.561460E-03  mag=     2.0000
       N       E                     dE             d eps       ncg     rms          rms(c)
DAV:   1    -0.233812732115E+04    0.96768E-03   -0.16586E-01  4560   0.410E-01    0.114E-01
RMM:   2    -0.233812882724E+04   -0.15061E-02   -0.15234E-02  6203   0.783E-02    0.108E-01
RMM:   3    -0.233812892077E+04   -0.93530E-04   -0.15528E-03  4535   0.298E-02    0.112E-01
RMM:   4    -0.233812878972E+04    0.13105E-03   -0.17503E-04  3119   0.849E-03    0.376E-02
RMM:   5    -0.233812879644E+04   -0.67188E-05   -0.59465E-05  2996   0.552E-03
  80 F= -.23596958E+04 E0= -.23596958E+04  d E =-.405287E-03  mag=     2.0000
       N       E                     dE             d eps       ncg     rms          rms(c)
DAV:   1    -0.233812874761E+04    0.42117E-04   -0.43619E-03  5336   0.676E-02    0.266E-02
RMM:   2    -0.233812881854E+04   -0.70932E-04   -0.45027E-04  5158   0.148E-02    0.507E-02
RMM:   3    -0.233812878710E+04    0.31440E-04   -0.58388E-05  2943   0.618E-03    0.153E-02
RMM:   4    -0.233812878673E+04    0.37163E-06   -0.10738E-05  2918   0.275E-03
  81 F= -.23596957E+04 E0= -.23596957E+04  d E =-.378557E-03  mag=     2.0000
       N       E                     dE             d eps       ncg     rms          rms(c)
DAV:   1    -0.233812857245E+04    0.21464E-03   -0.75358E-02  4560   0.285E-01    0.826E-02
RMM:   2    -0.233812911610E+04   -0.54365E-03   -0.57494E-03  6065   0.533E-02    0.524E-02
RMM:   3    -0.233812918845E+04   -0.72345E-04   -0.57576E-04  3687   0.216E-02    0.811E-02
RMM:   4    -0.233812912001E+04    0.68434E-04   -0.73400E-05  2977   0.682E-03    0.243E-02
RMM:   5    -0.233812912134E+04   -0.13321E-05   -0.33129E-05  2972   0.483E-03
  82 F= -.23596961E+04 E0= -.23596961E+04  d E =-.335828E-03  mag=     2.0000
       N       E                     dE             d eps       ncg     rms          rms(c)
DAV:   1    -0.233812900742E+04    0.11259E-03   -0.17323E-02  4816   0.137E-01    0.423E-02
RMM:   2    -0.233812915278E+04   -0.14536E-03   -0.13737E-03  6193   0.282E-02    0.464E-02
RMM:   3    -0.233812914964E+04    0.31387E-05   -0.16284E-04  3027   0.106E-02    0.348E-02
RMM:   4    -0.233812913385E+04    0.15787E-04   -0.15924E-05  2942   0.415E-03    0.108E-02
RMM:   5    -0.233812913484E+04   -0.98477E-06   -0.11582E-05  2923   0.299E-03
  83 F= -.23596961E+04 E0= -.23596961E+04  d E =-.349910E-03  mag=     2.0000
       N       E                     dE             d eps       ncg     rms          rms(c)
DAV:   1    -0.233812869776E+04    0.43609E-03   -0.89946E-02  4560   0.305E-01    0.798E-02
RMM:   2    -0.233812933981E+04   -0.64204E-03   -0.67544E-03  6208   0.570E-02    0.569E-02
RMM:   3    -0.233812940198E+04   -0.62176E-04   -0.66424E-04  3695   0.215E-02    0.724E-02
RMM:   4    -0.233812934740E+04    0.54578E-04   -0.79843E-05  3003   0.683E-03    0.262E-02
RMM:   5    -0.233812934656E+04    0.84769E-06   -0.30941E-05  2970   0.461E-03
  84 F= -.23596964E+04 E0= -.23596964E+04  d E =-.297703E-03  mag=     2.0000
       N       E                     dE             d eps       ncg     rms          rms(c)
DAV:   1    -0.233812922519E+04    0.12222E-03   -0.12323E-02  4792   0.113E-01    0.333E-02
RMM:   2    -0.233812933630E+04   -0.11112E-03   -0.96231E-04  5860   0.230E-02    0.457E-02
RMM:   3    -0.233812932012E+04    0.16181E-04   -0.10868E-04  2980   0.867E-03    0.229E-02
RMM:   4    -0.233812931387E+04    0.62558E-05   -0.12772E-05  2956   0.357E-03
  85 F= -.23596964E+04 E0= -.23596964E+04  d E =-.297168E-03  mag=     2.0000
       N       E                     dE             d eps       ncg     rms          rms(c)
DAV:   1    -0.233812909925E+04    0.22088E-03   -0.74937E-02  4560   0.282E-01    0.757E-02
RMM:   2    -0.233812960536E+04   -0.50612E-03   -0.53307E-03  6131   0.514E-02    0.455E-02
RMM:   3    -0.233812967154E+04   -0.66173E-04   -0.59532E-04  3593   0.211E-02    0.740E-02
RMM:   4    -0.233812961603E+04    0.55511E-04   -0.66691E-05  2982   0.633E-03    0.246E-02
RMM:   5    -0.233812961710E+04   -0.10701E-05   -0.27204E-05  2999   0.385E-03
  86 F= -.23596967E+04 E0= -.23596967E+04  d E =-.284333E-03  mag=     2.0000
       N       E                     dE             d eps       ncg     rms          rms(c)
DAV:   1    -0.233812943166E+04    0.18437E-03   -0.34558E-02  4576   0.192E-01    0.543E-02
RMM:   2    -0.233812970303E+04   -0.27138E-03   -0.25096E-03  6269   0.363E-02    0.669E-02
RMM:   3    -0.233812968802E+04    0.15010E-04   -0.30082E-04  3167   0.135E-02    0.425E-02
RMM:   4    -0.233812966573E+04    0.22287E-04   -0.27837E-05  2969   0.489E-03    0.162E-02
RMM:   5    -0.233812967068E+04   -0.49480E-05   -0.16598E-05  2927   0.336E-03
  87 F= -.23596967E+04 E0= -.23596967E+04  d E =-.325102E-03  mag=     2.0000
       N       E                     dE             d eps       ncg     rms          rms(c)
DAV:   1    -0.233812966189E+04    0.38440E-05   -0.49934E-02  4560   0.230E-01    0.648E-02
RMM:   2    -0.233812998431E+04   -0.32242E-03   -0.33811E-03  6168   0.426E-02    0.431E-02
RMM:   3    -0.233813002214E+04   -0.37833E-04   -0.35874E-04  3400   0.168E-02    0.573E-02
RMM:   4    -0.233812998174E+04    0.40404E-04   -0.43688E-05  2967   0.579E-03    0.182E-02
RMM:   5    -0.233812998042E+04    0.13125E-05   -0.19846E-05  2957   0.396E-03
  88 F= -.23596970E+04 E0= -.23596970E+04  d E =-.247455E-03  mag=     2.0000
       N       E                     dE             d eps       ncg     rms          rms(c)
DAV:   1    -0.233812993221E+04    0.49531E-04   -0.17186E-02  4688   0.135E-01    0.395E-02
RMM:   2    -0.233813005077E+04   -0.11856E-03   -0.11987E-03  6061   0.264E-02    0.333E-02
RMM:   3    -0.233813005387E+04   -0.30996E-05   -0.12802E-04  3041   0.101E-02    0.292E-02
RMM:   4    -0.233813004377E+04    0.10096E-04   -0.14859E-05  2945   0.390E-03    0.132E-02
RMM:   5    -0.233813004429E+04   -0.51723E-06   -0.82251E-06  2900   0.237E-03
  89 F= -.23596970E+04 E0= -.23596970E+04  d E =-.274632E-03  mag=     2.0000
       N       E                     dE             d eps       ncg     rms          rms(c)
DAV:   1    -0.233812993479E+04    0.10899E-03   -0.52889E-02  4560   0.232E-01    0.634E-02
RMM:   2    -0.233813027146E+04   -0.33668E-03   -0.34901E-03  6133   0.428E-02    0.446E-02
RMM:   3    -0.233813030137E+04   -0.29913E-04   -0.32870E-04  3389   0.162E-02    0.530E-02
RMM:   4    -0.233813026596E+04    0.35417E-04   -0.42477E-05  2973   0.563E-03    0.192E-02
RMM:   5    -0.233813026675E+04   -0.78886E-06   -0.21649E-05  2944   0.399E-03
  90 F= -.23596972E+04 E0= -.23596972E+04  d E =-.214228E-03  mag=     2.0000
       N       E                     dE             d eps       ncg     rms          rms(c)
DAV:   1    -0.233813019526E+04    0.70702E-04   -0.14214E-02  4720   0.121E-01    0.346E-02
RMM:   2    -0.233813029693E+04   -0.10167E-03   -0.96682E-04  5980   0.239E-02    0.361E-02
RMM:   3    -0.233813029808E+04   -0.11529E-05   -0.11383E-04  2990   0.917E-03    0.326E-02
RMM:   4    -0.233813028759E+04    0.10488E-04   -0.13985E-05  2932   0.367E-03    0.152E-02
RMM:   5    -0.233813028660E+04    0.99358E-06   -0.59419E-06  2848   0.201E-03
  91 F= -.23596972E+04 E0= -.23596972E+04  d E =-.229823E-03  mag=     2.0000
       N       E                     dE             d eps       ncg     rms          rms(c)
DAV:   1    -0.233813019659E+04    0.91006E-04   -0.57650E-02  4560   0.241E-01    0.680E-02
RMM:   2    -0.233813055354E+04   -0.35696E-03   -0.35602E-03  6066   0.432E-02    0.584E-02
RMM:   3    -0.233813057424E+04   -0.20700E-04   -0.34631E-04  3497   0.170E-02    0.601E-02
RMM:   4    -0.233813052561E+04    0.48633E-04   -0.42806E-05  2981   0.583E-03    0.193E-02
RMM:   5    -0.233813053097E+04   -0.53585E-05   -0.23746E-05  2956   0.400E-03
  92 F= -.23596974E+04 E0= -.23596974E+04  d E =-.230725E-03  mag=     2.0000
       N       E                     dE             d eps       ncg     rms          rms(c)
DAV:   1    -0.233813038527E+04    0.14034E-03   -0.28959E-02  4560   0.171E-01    0.488E-02
RMM:   2    -0.233813057001E+04   -0.18474E-03   -0.18283E-03  6232   0.323E-02    0.435E-02
[...]
RMM:   2    -0.233813501642E+04   -0.60802E-04   -0.55701E-04  5540   0.208E-02    0.355E-02
RMM:   3    -0.233813501759E+04   -0.11621E-05   -0.66500E-05  2997   0.839E-03
 152 F= -.23597020E+04 E0= -.23597020E+04  d E =-.720685E-04  mag=     2.0000
       N       E                     dE             d eps       ncg     rms          rms(c)
DAV:   1    -0.233813501514E+04    0.12886E-05   -0.25829E-03  4616   0.461E-02    0.210E-02
RMM:   2    -0.233813502881E+04   -0.13678E-04   -0.11061E-04  3473   0.952E-03    0.242E-02
RMM:   3    -0.233813502572E+04    0.30974E-05   -0.18222E-05  2964   0.515E-03
 153 F= -.23597020E+04 E0= -.23597020E+04  d E =-.623502E-04  mag=     2.0000
       N       E                     dE             d eps       ncg     rms          rms(c)
DAV:   1    -0.233813506835E+04   -0.39536E-04   -0.12256E-02  4560   0.962E-02    0.345E-02
RMM:   2    -0.233813511458E+04   -0.46232E-04   -0.45350E-04  5311   0.178E-02    0.290E-02
RMM:   3    -0.233813511845E+04   -0.38720E-05   -0.49990E-05  2990   0.789E-03
 154 F= -.23597021E+04 E0= -.23597021E+04  d E =-.623353E-04  mag=     2.0000
       N       E                     dE             d eps       ncg     rms          rms(c)
DAV:   1    -0.233813511371E+04    0.87285E-06   -0.13734E-03  4904   0.334E-02    0.184E-02
RMM:   2    -0.233813512929E+04   -0.15577E-04   -0.66144E-05  3158   0.681E-03    0.350E-02
RMM:   3    -0.233813511680E+04    0.12485E-04   -0.15027E-05  2888   0.397E-03    0.119E-02
RMM:   4    -0.233813511709E+04   -0.29286E-06   -0.55805E-06  2788   0.186E-03
 155 F= -.23597020E+04 E0= -.23597020E+04  d E =-.507120E-04  mag=     2.0000
       N       E                     dE             d eps       ncg     rms          rms(c)
DAV:   1    -0.233813512337E+04   -0.65675E-05   -0.13130E-02  4560   0.998E-02    0.348E-02
RMM:   2    -0.233813516608E+04   -0.42713E-04   -0.47513E-04  5404   0.183E-02    0.177E-02
RMM:   3    -0.233813517061E+04   -0.45282E-05   -0.39089E-05  2993   0.838E-03
 156 F= -.23597021E+04 E0= -.23597021E+04  d E =-.516818E-04  mag=     2.0000
       N       E                     dE             d eps       ncg     rms          rms(c)
DAV:   1    -0.233813516022E+04    0.58639E-05   -0.45573E-04  5208   0.203E-02    0.138E-02
RMM:   2    -0.233813516689E+04   -0.66722E-05   -0.24180E-05  2940   0.439E-03
 157 F= -.23597021E+04 E0= -.23597021E+04  d E =-.476239E-04  mag=     2.0000
       N       E                     dE             d eps       ncg     rms          rms(c)
DAV:   1    -0.233813518389E+04   -0.23675E-04   -0.11972E-02  4560   0.983E-02    0.350E-02
RMM:   2    -0.233813522522E+04   -0.41328E-04   -0.45699E-04  5470   0.188E-02    0.186E-02
RMM:   3    -0.233813523102E+04   -0.58042E-05   -0.45966E-05  2976   0.844E-03
 158 F= -.23597021E+04 E0= -.23597021E+04  d E =-.451757E-04  mag=     2.0000
       N       E                     dE             d eps       ncg     rms          rms(c)
DAV:   1    -0.233813522607E+04   -0.85346E-06   -0.11186E-03  4944   0.311E-02    0.177E-02
RMM:   2    -0.233813524132E+04   -0.15244E-04   -0.59296E-05  3129   0.662E-03    0.359E-02
RMM:   3    -0.233813522939E+04    0.11924E-04   -0.14193E-05  2845   0.400E-03    0.103E-02
RMM:   4    -0.233813522893E+04    0.46262E-06   -0.32613E-06  2727   0.172E-03
 159 F= -.23597021E+04 E0= -.23597021E+04  d E =-.372501E-04  mag=     2.0000
       N       E                     dE             d eps       ncg     rms          rms(c)
DAV:   1    -0.233813529452E+04   -0.65129E-04   -0.10067E-02  4560   0.871E-02    0.293E-02
RMM:   2    -0.233813532925E+04   -0.34724E-04   -0.36910E-04  5234   0.163E-02    0.177E-02
RMM:   3    -0.233813533627E+04   -0.70241E-05   -0.40910E-05  2975   0.757E-03
 160 F= -.23597022E+04 E0= -.23597022E+04  d E =-.576984E-04  mag=     2.0000
       N       E                     dE             d eps       ncg     rms          rms(c)
DAV:   1    -0.233813534487E+04   -0.15626E-04   -0.20299E-03  4624   0.400E-02    0.176E-02
RMM:   2    -0.233813535275E+04   -0.78793E-05   -0.77876E-05  3275   0.798E-03
 161 F= -.23597022E+04 E0= -.23597022E+04  d E =-.518154E-04  mag=     2.0000
       N       E                     dE             d eps       ncg     rms          rms(c)
DAV:   1    -0.233813538072E+04   -0.35851E-04   -0.96788E-03  4560   0.850E-02    0.360E-02
RMM:   2    -0.233813544912E+04   -0.68400E-04   -0.40119E-04  5105   0.180E-02    0.644E-02
RMM:   3    -0.233813541269E+04    0.36438E-04   -0.59792E-05  3001   0.780E-03    0.240E-02
RMM:   4    -0.233813540678E+04    0.59032E-05   -0.68157E-06  2914   0.334E-03
 162 F= -.23597022E+04 E0= -.23597022E+04  d E =-.390959E-04  mag=     2.0000
       N       E                     dE             d eps       ncg     rms          rms(c)
DAV:   1    -0.233813540874E+04    0.39418E-05   -0.11626E-03  4880   0.294E-02    0.141E-02
RMM:   2    -0.233813542356E+04   -0.14818E-04   -0.55315E-05  3140   0.653E-03    0.307E-02
RMM:   3    -0.233813541161E+04    0.11948E-04   -0.13463E-05  2815   0.414E-03    0.630E-03
RMM:   4    -0.233813541156E+04    0.54191E-07   -0.21938E-06  2520   0.153E-03
 163 F= -.23597022E+04 E0= -.23597022E+04  d E =-.385252E-04  mag=     2.0000
       N       E                     dE             d eps       ncg     rms          rms(c)
DAV:   1    -0.233813540623E+04    0.53810E-05   -0.10397E-02  4560   0.851E-02    0.299E-02
RMM:   2    -0.233813544039E+04   -0.34163E-04   -0.38286E-04  5287   0.156E-02    0.148E-02
RMM:   3    -0.233813544088E+04   -0.48430E-06   -0.36167E-05  2973   0.782E-03
 164 F= -.23597023E+04 E0= -.23597023E+04  d E =-.393357E-04  mag=     2.0000
       N       E                     dE             d eps       ncg     rms          rms(c)
DAV:   1    -0.233813543341E+04    0.69823E-05   -0.85962E-04  4832   0.254E-02    0.148E-02
RMM:   2    -0.233813544512E+04   -0.11707E-04   -0.45635E-05  3087   0.545E-03    0.298E-02
RMM:   3    -0.233813543550E+04    0.96163E-05   -0.10729E-05  2724   0.342E-03
 165 F= -.23597023E+04 E0= -.23597023E+04  d E =-.368815E-04  mag=     2.0000
       N       E                     dE             d eps       ncg     rms          rms(c)
DAV:   1    -0.233813546121E+04   -0.16092E-04   -0.69872E-03  4560   0.736E-02    0.278E-02
RMM:   2    -0.233813549263E+04   -0.31420E-04   -0.30294E-04  5149   0.139E-02    0.232E-02
RMM:   3    -0.233813549315E+04   -0.51734E-06   -0.38272E-05  2973   0.726E-03
 166 F= -.23597023E+04 E0= -.23597023E+04  d E =-.490814E-04  mag=     2.0000
       N       E                     dE             d eps       ncg     rms          rms(c)
DAV:   1    -0.233813548750E+04    0.51281E-05   -0.13173E-03  4696   0.324E-02    0.162E-02
RMM:   2    -0.233813549605E+04   -0.85514E-05   -0.62711E-05  3150   0.666E-03
 167 F= -.23597023E+04 E0= -.23597023E+04  d E =-.482494E-04  mag=     2.0000
       N       E                     dE             d eps       ncg     rms          rms(c)
DAV:   1    -0.233813552461E+04   -0.37103E-04   -0.63345E-03  4560   0.710E-02    0.282E-02
RMM:   2    -0.233813555761E+04   -0.33008E-04   -0.30261E-04  4989   0.156E-02    0.283E-02
RMM:   3    -0.233813555744E+04    0.17392E-06   -0.38037E-05  2957   0.693E-03
 168 F= -.23597023E+04 E0= -.23597023E+04  d E =-.293188E-04  mag=     2.0000
       N       E                     dE             d eps       ncg     rms          rms(c)
DAV:   1    -0.233813555067E+04    0.69463E-05   -0.14862E-05  4152   0.592E-03    0.877E-03
RMM:   2    -0.233813555419E+04   -0.35229E-05   -0.77816E-06  2478   0.250E-03
 169 F= -.23597023E+04 E0= -.23597023E+04  d E =-.250219E-04  mag=     2.0000
       N       E                     dE             d eps       ncg     rms          rms(c)
DAV:   1    -0.233813558624E+04   -0.35570E-04   -0.40378E-03  4560   0.564E-02    0.208E-02
RMM:   2    -0.233813560478E+04   -0.18538E-04   -0.19774E-04  4262   0.118E-02    0.140E-02
RMM:   3    -0.233813560853E+04   -0.37538E-05   -0.22341E-05  2925   0.637E-03
 170 F= -.23597024E+04 E0= -.23597024E+04  d E =-.258483E-04  mag=     2.0000
       N       E                     dE             d eps       ncg     rms          rms(c)
DAV:   1    -0.233813560913E+04   -0.43496E-05   -0.18789E-04  5152   0.130E-02    0.928E-03
RMM:   2    -0.233813561277E+04   -0.36451E-05   -0.15009E-05  2653   0.318E-03
 171 F= -.23597024E+04 E0= -.23597024E+04  d E =-.238614E-04  mag=     2.0000
       N       E                     dE             d eps       ncg     rms          rms(c)
DAV:   1    -0.233813561945E+04   -0.10328E-04   -0.33721E-03  4560   0.533E-02    0.204E-02
RMM:   2    -0.233813563410E+04   -0.14651E-04   -0.16734E-04  4003   0.114E-02    0.106E-02
RMM:   3    -0.233813563601E+04   -0.19025E-05   -0.17925E-05  2911   0.635E-03
 172 F= -.23597024E+04 E0= -.23597024E+04  d E =-.223742E-04  mag=     2.0000
       N       E                     dE             d eps       ncg     rms          rms(c)
DAV:   1    -0.233813563398E+04    0.12337E-06   -0.14603E-04  5232   0.119E-02    0.982E-03
RMM:   2    -0.233813564102E+04   -0.70361E-05   -0.15348E-05  2690   0.316E-03
 173 F= -.23597024E+04 E0= -.23597024E+04  d E =-.272005E-04  mag=     2.0000
       N       E                     dE             d eps       ncg     rms          rms(c)
DAV:   1    -0.233813563699E+04   -0.30110E-05   -0.30637E-03  4560   0.499E-02    0.189E-02
RMM:   2    -0.233813565048E+04   -0.13488E-04   -0.14808E-04  3722   0.106E-02    0.117E-02
RMM:   3    -0.233813565420E+04   -0.37197E-05   -0.18040E-05  2886   0.604E-03
 174 F= -.23597024E+04 E0= -.23597024E+04  d E =-.183141E-04  mag=     2.0000
       N       E                     dE             d eps       ncg     rms          rms(c)
DAV:   1    -0.233813564793E+04    0.25519E-05   -0.21308E-04  5064   0.138E-02    0.823E-03
RMM:   2    -0.233813565045E+04   -0.25254E-05   -0.13667E-05  2677   0.332E-03
 175 F= -.23597024E+04 E0= -.23597024E+04  d E =-.159421E-04  mag=     2.0000
       N       E                     dE             d eps       ncg     rms          rms(c)
DAV:   1    -0.233813565351E+04   -0.55809E-05   -0.25026E-03  4560   0.441E-02    0.168E-02
RMM:   2    -0.233813566501E+04   -0.11505E-04   -0.12404E-04  3459   0.962E-03    0.116E-02
RMM:   3    -0.233813566856E+04   -0.35420E-05   -0.17023E-05  2799   0.553E-03
 176 F= -.23597024E+04 E0= -.23597024E+04  d E =-.204451E-04  mag=     2.0000
       N       E                     dE             d eps       ncg     rms          rms(c)
DAV:   1    -0.233813566431E+04    0.70686E-06   -0.51596E-05  4648   0.749E-03    0.597E-03
RMM:   2    -0.233813566552E+04   -0.12171E-05   -0.48775E-06  2432   0.267E-03
 177 F= -.23597024E+04 E0= -.23597024E+04  d E =-.177351E-04  mag=     2.0000
       N       E                     dE             d eps       ncg     rms          rms(c)
DAV:   1    -0.233813568624E+04   -0.21937E-04   -0.21806E-03  4560   0.408E-02    0.153E-02
RMM:   2    -0.233813569576E+04   -0.95158E-05   -0.10098E-04  3355   0.837E-03    0.112E-02
RMM:   3    -0.233813569860E+04   -0.28381E-05   -0.15065E-05  2570   0.519E-03
 178 F= -.23597024E+04 E0= -.23597024E+04  d E =-.202435E-04  mag=     2.0000
       N       E                     dE             d eps       ncg     rms          rms(c)
DAV:   1    -0.233813569918E+04   -0.34203E-05   -0.22095E-04  4608   0.135E-02    0.700E-03
RMM:   2    -0.233813570007E+04   -0.89336E-06   -0.11395E-05  2631   0.317E-03
 179 F= -.23597024E+04 E0= -.23597024E+04  d E =-.175890E-04  mag=     2.0000
       N       E                     dE             d eps       ncg     rms          rms(c)
DAV:   1    -0.233813572175E+04   -0.22569E-04   -0.14318E-03  4544   0.335E-02    0.149E-02
RMM:   2    -0.233813573515E+04   -0.13405E-04   -0.71405E-05  3205   0.758E-03    0.290E-02
RMM:   3    -0.233813572727E+04    0.78841E-05   -0.12026E-05  2684   0.451E-03
 180 F= -.23597024E+04 E0= -.23597024E+04  d E =-.168995E-04  mag=     2.0000
       N       E                     dE             d eps       ncg     rms          rms(c)
DAV:   1    -0.233813573082E+04    0.43335E-05   -0.15623E-04  5008   0.112E-02    0.747E-03
RMM:   2    -0.233813573365E+04   -0.28334E-05   -0.99741E-06  2534   0.292E-03
 181 F= -.23597025E+04 E0= -.23597025E+04  d E =-.198138E-04  mag=     2.0000
       N       E                     dE             d eps       ncg     rms          rms(c)
DAV:   1    -0.233813574407E+04   -0.13247E-04   -0.10402E-03  4504   0.292E-02    0.118E-02
RMM:   2    -0.233813574787E+04   -0.38041E-05   -0.43518E-05  2987   0.660E-03
 182 F= -.23597025E+04 E0= -.23597025E+04  d E =-.119857E-04  mag=     2.0000
       N       E                     dE             d eps       ncg     rms          rms(c)
DAV:   1    -0.233813575156E+04   -0.74894E-05   -0.15626E-04  4888   0.124E-02    0.135E-02
RMM:   2    -0.233813577079E+04   -0.19232E-04   -0.32174E-05  2864   0.420E-03    0.420E-02
RMM:   3    -0.233813575067E+04    0.20123E-04   -0.98907E-06  2407   0.294E-03    0.453E-03
RMM:   4    -0.233813575083E+04   -0.16752E-06   -0.14534E-06  1679   0.106E-03
 183 F= -.23597025E+04 E0= -.23597025E+04  d E =-.140937E-04  mag=     2.0000
       N       E                     dE             d eps       ncg     rms          rms(c)
DAV:   1    -0.233813576310E+04   -0.12435E-04   -0.11513E-03  4488   0.294E-02    0.107E-02
RMM:   2    -0.233813576738E+04   -0.42752E-05   -0.49330E-05  3012   0.599E-03
 184 F= -.23597025E+04 E0= -.23597025E+04  d E =-.825309E-05  mag=     2.0000
       N       E                     dE             d eps       ncg     rms          rms(c)
DAV:   1    -0.233813576806E+04   -0.49605E-05   -0.67421E-06  3672   0.462E-03    0.671E-03
RMM:   2    -0.233813577211E+04   -0.40445E-05   -0.84689E-06  2362   0.206E-03
 185 F= -.23597025E+04 E0= -.23597025E+04  d E =-.126681E-04  mag=     2.0000
       N       E                     dE             d eps       ncg     rms          rms(c)
DAV:   1    -0.233813578502E+04   -0.16962E-04   -0.83359E-04  4432   0.253E-02    0.975E-03
RMM:   2    -0.233813578833E+04   -0.33033E-05   -0.33125E-05  2652   0.541E-03
 186 F= -.23597025E+04 E0= -.23597025E+04  d E =-.813403E-05  mag=     2.0000
       N       E                     dE             d eps       ncg     rms          rms(c)
DAV:   1    -0.233813579379E+04   -0.87626E-05   -0.20449E-04  4520   0.132E-02    0.115E-02
RMM:   2    -0.233813580719E+04   -0.13409E-04   -0.26232E-05  2832   0.411E-03    0.341E-02
RMM:   3    -0.233813579356E+04    0.13637E-04   -0.72829E-06  2372   0.284E-03    0.478E-03
RMM:   4    -0.233813579367E+04   -0.11403E-06   -0.14201E-06  1674   0.106E-03
 187 F= -.23597025E+04 E0= -.23597025E+04  d E =-.953443E-05  mag=     2.0000
       N       E                     dE             d eps       ncg     rms          rms(c)
DAV:   1    -0.233813580398E+04   -0.10419E-04   -0.71588E-04  4392   0.231E-02    0.839E-03
RMM:   2    -0.233813580694E+04   -0.29592E-05   -0.29038E-05  2699   0.471E-03
 188 F= -.23597025E+04 E0= -.23597025E+04  d E =-.918706E-05  mag=     2.0000
       N       E                     dE             d eps       ncg     rms          rms(c)
DAV:   1    -0.233813580991E+04   -0.59322E-05   -0.12761E-04  4952   0.106E-02    0.103E-02
RMM:   2    -0.233813582115E+04   -0.11237E-04   -0.20252E-05  2671   0.347E-03    0.337E-02
RMM:   3    -0.233813580972E+04    0.11422E-04   -0.56927E-06  2309   0.239E-03    0.334E-03
RMM:   4    -0.233813580963E+04    0.90891E-07   -0.72855E-07  1473   0.908E-04
 189 F= -.23597025E+04 E0= -.23597025E+04  d E =-.102042E-04  mag=     2.0000
       N       E                     dE             d eps       ncg     rms          rms(c)
DAV:   1    -0.233813582352E+04   -0.13793E-04   -0.68828E-04  4392   0.232E-02    0.855E-03
RMM:   2    -0.233813582662E+04   -0.31036E-05   -0.29018E-05  2600   0.469E-03
 190 F= -.23597025E+04 E0= -.23597025E+04  d E =-.108974E-04  mag=     2.0000
       N       E                     dE             d eps       ncg     rms          rms(c)
DAV:   1    -0.233813582918E+04   -0.56604E-05   -0.70597E-05  4744   0.844E-03    0.859E-03
RMM:   2    -0.233813583620E+04   -0.70243E-05   -0.14165E-05  2508   0.313E-03
 191 F= -.23597025E+04 E0= -.23597025E+04  d E =-.186099E-04  mag=     2.0000
       N       E                     dE             d eps       ncg     rms          rms(c)
DAV:   1    -0.233813583713E+04   -0.79489E-05   -0.46478E-04  4400   0.201E-02    0.796E-03
RMM:   2    -0.233813583891E+04   -0.17852E-05   -0.21150E-05  2495   0.444E-03
 192 F= -.23597025E+04 E0= -.23597025E+04  d E =-.155467E-06  mag=     2.0000
       N       E                     dE             d eps       ncg     rms          rms(c)
DAV:   1    -0.233813584146E+04   -0.43331E-05   -0.92999E-05  4816   0.938E-03    0.866E-03
RMM:   2    -0.233813584918E+04   -0.77162E-05   -0.15029E-05  2541   0.304E-03
 193 F= -.23597025E+04 E0= -.23597025E+04  d E =-.927682E-05  mag=     2.0000
       N       E                     dE             d eps       ncg     rms          rms(c)
DAV:   1    -0.233813584676E+04   -0.53050E-05   -0.40483E-04  4360   0.187E-02    0.765E-03
RMM:   2    -0.233813584917E+04   -0.24102E-05   -0.24240E-05  2493   0.448E-03
 194 F= -.23597025E+04 E0= -.23597025E+04  d E =-.623157E-06  mag=     2.0000
       N       E                     dE             d eps       ncg     rms          rms(c)
DAV:   1    -0.233813584920E+04   -0.24341E-05   -0.62469E-05  4396   0.803E-03    0.631E-03
RMM:   2    -0.233813585148E+04   -0.22847E-05   -0.87537E-06  2377   0.312E-03
 195 F= -.23597025E+04 E0= -.23597025E+04  d E =-.317660E-05  mag=     2.0000
       N       E                     dE             d eps       ncg     rms          rms(c)
DAV:   1    -0.233813586263E+04   -0.13430E-04   -0.41876E-04  4272   0.173E-02    0.727E-03
RMM:   2    -0.233813586482E+04   -0.21947E-05   -0.17318E-05  2445   0.400E-03
 196 F= -.23597025E+04 E0= -.23597025E+04  d E =-.681429E-05  mag=     2.0000
       N       E                     dE             d eps       ncg     rms          rms(c)
DAV:   1    -0.233813587001E+04   -0.73835E-05   -0.22550E-04  4290   0.129E-02    0.813E-03
RMM:   2    -0.233813587404E+04   -0.40245E-05   -0.13302E-05  2509   0.359E-03
 197 F= -.23597025E+04 E0= -.23597025E+04  d E =-.112622E-04  mag=     2.0000
       N       E                     dE             d eps       ncg     rms          rms(c)
DAV:   1    -0.233813588543E+04   -0.15420E-04   -0.53050E-04  4384   0.193E-02    0.844E-03
RMM:   2    -0.233813588745E+04   -0.20215E-05   -0.21828E-05  2584   0.457E-03
 198 F= -.23597025E+04 E0= -.23597025E+04  d E =-.548823E-05  mag=     2.0000
       N       E                     dE             d eps       ncg     rms          rms(c)
DAV:   1    -0.233813589420E+04   -0.87647E-05   -0.18844E-04  4528   0.119E-02    0.108E-02
RMM:   2    -0.233813590557E+04   -0.11373E-04   -0.20709E-05  2724   0.375E-03    0.340E-02
RMM:   3    -0.233813589423E+04    0.11341E-04   -0.61821E-06  2312   0.248E-03    0.372E-03
RMM:   4    -0.233813589408E+04    0.14462E-06   -0.69406E-07  1492   0.950E-04
 199 F= -.23597025E+04 E0= -.23597025E+04  d E =-.740982E-05  mag=     2.0000
       N       E                     dE             d eps       ncg     rms          rms(c)
DAV:   1    -0.233813589933E+04   -0.51029E-05   -0.72981E-04  4368   0.218E-02    0.836E-03
RMM:   2    -0.233813590226E+04   -0.29311E-05   -0.28370E-05  2767   0.442E-03
 200 F= -.23597025E+04 E0= -.23597025E+04  d E =-.618559E-05  mag=     2.0000
       N       E                     dE             d eps       ncg     rms          rms(c)
DAV:   1    -0.233813589870E+04    0.62985E-06   -0.20686E-04  4252   0.123E-02    0.787E-03
RMM:   2    -0.233813590559E+04   -0.68911E-05   -0.15735E-05  2520   0.323E-03
 201 F= -.23597026E+04 E0= -.23597026E+04  d E =-.144558E-04  mag=     2.0000
