       N       E                     dE             d eps       ncg     rms          rms(c)
DAV:   1     0.121227675161E+05    0.12123E+05   -0.83350E+05  4640   0.140E+03
DAV:   2    -0.129210740470E+04   -0.13415E+05   -0.12909E+05  5040   0.318E+02
DAV:   3    -0.248870182959E+04   -0.11966E+04   -0.11870E+04  5440   0.102E+02
DAV:   4    -0.251378724125E+04   -0.25085E+02   -0.24949E+02  5680   0.176E+01
DAV:   5    -0.251447074026E+04   -0.68350E+00   -0.68234E+00  5840   0.253E+00    0.171E+02
RMM:   6    -0.147412735653E+04    0.10403E+04   -0.19079E+03  4496   0.377E+01    0.744E+01
RMM:   7    -0.166268423496E+04   -0.18856E+03   -0.30377E+02  5133   0.141E+01    0.601E+01
RMM:   8    -0.169463758903E+04   -0.31953E+02   -0.92940E+01  5179   0.806E+00    0.448E+01
RMM:   9    -0.175347447989E+04   -0.58837E+02   -0.48912E+01  4992   0.628E+00    0.382E+01
RMM:  10    -0.186864564292E+04   -0.11517E+03   -0.61983E+01  5185   0.731E+00    0.266E+01
RMM:  11    -0.198032702584E+04   -0.11168E+03   -0.45637E+01  5207   0.575E+00    0.189E+01
RMM:  12    -0.205505030294E+04   -0.74723E+02   -0.28185E+01  4877   0.412E+00    0.143E+01
RMM:  13    -0.219834669014E+04   -0.14330E+03   -0.11235E+02  4661   0.765E+00    0.101E+01
RMM:  14    -0.226235961580E+04   -0.64013E+02   -0.51985E+01  4670   0.510E+00    0.706E+00
RMM:  15    -0.229043699405E+04   -0.28077E+02   -0.23302E+01  4760   0.371E+00    0.455E+00
RMM:  16    -0.230172702909E+04   -0.11290E+02   -0.10508E+01  4730   0.237E+00    0.464E+00
RMM:  17    -0.230466132231E+04   -0.29343E+01   -0.22654E+00  5068   0.118E+00    0.173E+00
RMM:  18    -0.230575109167E+04   -0.10898E+01   -0.61923E-01  5211   0.538E-01    0.960E-01
RMM:  19    -0.230621560131E+04   -0.46451E+00   -0.17426E-01  4814   0.306E-01    0.646E-01
RMM:  20    -0.230639288379E+04   -0.17728E+00   -0.58631E-02  4750   0.192E-01    0.162E+00
RMM:  21    -0.230639579032E+04   -0.29065E-02   -0.14548E-02  5189   0.837E-02    0.128E+00
RMM:  22    -0.230642633586E+04   -0.30546E-01   -0.15927E-02  4613   0.732E-02    0.147E+00
RMM:  23    -0.230642584179E+04    0.49408E-03   -0.13418E-02  4601   0.638E-02    0.128E+00
RMM:  24    -0.230635899415E+04    0.66848E-01   -0.80240E-02  4583   0.106E-01    0.158E+00
RMM:  25    -0.230634492714E+04    0.14067E-01   -0.65923E-03  4308   0.388E-02    0.167E+00
RMM:  26    -0.230644216616E+04   -0.97239E-01   -0.81425E-02  4467   0.857E-02    0.110E+00
RMM:  27    -0.230647063986E+04   -0.28474E-01   -0.37735E-02  4509   0.876E-02    0.149E+00
RMM:  28    -0.230651184386E+04   -0.41204E-01   -0.95700E-02  4918   0.134E-01    0.275E+00
RMM:  29    -0.230651267223E+04   -0.82837E-03   -0.11615E-02  4730   0.643E-02    0.264E+00
RMM:  30    -0.230651307962E+04   -0.40739E-03   -0.14340E-03  4252   0.196E-02    0.273E+00
RMM:  31    -0.230651994708E+04   -0.68675E-02   -0.79390E-04  4277   0.186E-02    0.307E+00
RMM:  32    -0.230653541605E+04   -0.15469E-01   -0.19986E-03  4614   0.238E-02    0.350E+00
RMM:  33    -0.230656936445E+04   -0.33948E-01   -0.77961E-03  4698   0.446E-02    0.384E+00
RMM:  34    -0.230654903362E+04    0.20331E-01   -0.14745E-02  4567   0.537E-02    0.417E+00
RMM:  35    -0.230654769093E+04    0.13427E-02   -0.77370E-04  3885   0.211E-02    0.410E+00
RMM:  36    -0.230652591408E+04    0.21777E-01   -0.10622E-02  4572   0.413E-02    0.378E+00
RMM:  37    -0.230647900863E+04    0.46905E-01   -0.67137E-02  4653   0.104E-01    0.150E+00
RMM:  38    -0.230646983944E+04    0.91692E-02   -0.43859E-02  4615   0.101E-01    0.334E+00
RMM:  39    -0.230646835563E+04    0.14838E-02   -0.45673E-03  4532   0.336E-02    0.328E+00
RMM:  40    -0.230641348821E+04    0.54867E-01   -0.31684E-02  4225   0.448E-02    0.296E+00
RMM:  41    -0.230641698739E+04   -0.34992E-02   -0.34403E-03  3836   0.207E-02    0.232E+00
RMM:  42    -0.230633361499E+04    0.83372E-01   -0.67940E-02  4544   0.775E-02    0.191E+00
RMM:  43    -0.230622964972E+04    0.10397E+00   -0.38218E-02  4369   0.674E-02    0.219E+00
RMM:  44    -0.230629996868E+04   -0.70319E-01   -0.91671E-03  4033   0.302E-02    0.197E+00
RMM:  45    -0.230641721185E+04   -0.11724E+00   -0.71083E-02  4561   0.902E-02    0.175E+00
RMM:  46    -0.230653384680E+04   -0.11663E+00   -0.14099E-01  4591   0.129E-01    0.417E+00
RMM:  47    -0.230648818556E+04    0.45661E-01   -0.30829E-02  4330   0.804E-02    0.298E+00
RMM:  48    -0.230646257876E+04    0.25607E-01   -0.11843E-02  4463   0.357E-02    0.237E+00
RMM:  49    -0.230646213166E+04    0.44710E-03   -0.13665E-03  4019   0.186E-02    0.231E+00
RMM:  50    -0.230646334201E+04   -0.12103E-02   -0.16856E-04  3150   0.579E-03    0.233E+00
RMM:  51    -0.230647016603E+04   -0.68240E-02   -0.37538E-04  3348   0.766E-03    0.244E+00
RMM:  52    -0.230646515193E+04    0.50141E-02   -0.29939E-04  3287   0.732E-03    0.251E+00
RMM:  53    -0.230649179616E+04   -0.26644E-01   -0.10508E-02  4137   0.246E-02    0.333E+00
RMM:  54    -0.230648762884E+04    0.41673E-02   -0.64961E-04  3685   0.148E-02    0.328E+00
RMM:  55    -0.230648237184E+04    0.52570E-02   -0.16817E-03  4184   0.165E-02    0.375E+00
RMM:  56    -0.230648004054E+04    0.23313E-02   -0.39044E-03  3993   0.228E-02    0.259E+00
RMM:  57    -0.230650533282E+04   -0.25292E-01   -0.16063E-02  4493   0.502E-02    0.242E+00
RMM:  58    -0.230650294332E+04    0.23895E-02   -0.57684E-03  4316   0.347E-02    0.202E+00
RMM:  59    -0.230651537403E+04   -0.12431E-01   -0.17588E-02  4702   0.533E-02    0.171E+00
RMM:  60    -0.230651725423E+04   -0.18802E-02   -0.68406E-03  4619   0.422E-02    0.157E+00
RMM:  61    -0.230651652284E+04    0.73140E-03   -0.14602E-03  4585   0.162E-02    0.151E+00
RMM:  62    -0.230651732494E+04   -0.80211E-03   -0.17975E-04  3263   0.729E-03    0.166E+00
RMM:  63    -0.230652025041E+04   -0.29255E-02   -0.21233E-03  4181   0.196E-02    0.241E+00
RMM:  64    -0.230652125830E+04   -0.10079E-02   -0.10048E-03  3957   0.176E-02    0.271E+00
RMM:  65    -0.230651598509E+04    0.52732E-02   -0.46148E-03  4272   0.255E-02    0.285E+00
RMM:  66    -0.230652151309E+04   -0.55280E-02   -0.15245E-03  3518   0.143E-02    0.310E+00
RMM:  67    -0.230652172524E+04   -0.21215E-03   -0.14004E-04  3032   0.619E-03    0.305E+00
RMM:  68    -0.230652263183E+04   -0.90659E-03   -0.72737E-05  2940   0.425E-03    0.320E+00
RMM:  69    -0.230652491731E+04   -0.22855E-02   -0.11042E-03  3799   0.129E-02    0.316E+00
RMM:  70    -0.230652448752E+04    0.42980E-03   -0.84298E-04  3979   0.133E-02    0.293E+00
RMM:  71    -0.230652064117E+04    0.38463E-02   -0.16283E-03  4170   0.176E-02    0.242E+00
RMM:  72    -0.230652064226E+04   -0.10855E-05   -0.20682E-03  4416   0.212E-02    0.210E+00
RMM:  73    -0.230652091456E+04   -0.27230E-03   -0.21247E-04  3134   0.769E-03    0.215E+00
RMM:  74    -0.230652136508E+04   -0.45052E-03   -0.33834E-05  2887   0.323E-03    0.218E+00
RMM:  75    -0.230651868465E+04    0.26804E-02   -0.35615E-04  3291   0.792E-03    0.176E+00
RMM:  76    -0.230651399947E+04    0.46852E-02   -0.22625E-03  3900   0.198E-02    0.783E-01
RMM:  77    -0.230651355735E+04    0.44212E-03   -0.11897E-03  3812   0.189E-02    0.583E-01
RMM:  78    -0.230651319599E+04    0.36136E-03   -0.98379E-04  3929   0.127E-02    0.311E-01
RMM:  79    -0.230651371364E+04   -0.51765E-03   -0.10648E-03  4162   0.144E-02    0.323E-01
RMM:  80    -0.230651439978E+04   -0.68614E-03   -0.21252E-03  4422   0.194E-02    0.421E-01
RMM:  81    -0.230651369086E+04    0.70892E-03   -0.65119E-04  3954   0.136E-02    0.299E-01
RMM:  82    -0.230651337857E+04    0.31229E-03   -0.36928E-04  3589   0.937E-03    0.196E-01
RMM:  83    -0.230651341402E+04   -0.35446E-04   -0.18492E-04  3346   0.720E-03    0.189E-01
RMM:  84    -0.230651329937E+04    0.11464E-03   -0.29887E-04  3635   0.812E-03    0.144E-01
RMM:  85    -0.230651322360E+04    0.75777E-04   -0.29148E-04  3617   0.850E-03    0.162E-01
RMM:  86    -0.230651327872E+04   -0.55129E-04   -0.78667E-05  3021   0.548E-03    0.177E-01
RMM:  87    -0.230651327751E+04    0.12102E-05   -0.14860E-05  2792   0.323E-03
   1 F= -.23269347E+04 E0= -.23269189E+04  d E =-.316113E-01  mag=     5.2951
       N       E                     dE             d eps       ncg     rms          rms(c)
DAV:   1    -0.230650608962E+04    0.71891E-02   -0.48939E+00  4480   0.941E-01    0.108E+00
RMM:   2    -0.230657464325E+04   -0.68554E-01   -0.90828E-02  5086   0.116E-01    0.577E+00
RMM:   3    -0.230651793775E+04    0.56706E-01   -0.42477E-02  5448   0.885E-02    0.162E+00
RMM:   4    -0.230651776175E+04    0.17600E-03   -0.50591E-03  4152   0.421E-02    0.132E+00
RMM:   5    -0.230651713139E+04    0.63035E-03   -0.64874E-04  3799   0.158E-02    0.934E-01
RMM:   6    -0.230651229153E+04    0.48399E-02   -0.19365E-03  4310   0.214E-02    0.698E-01
RMM:   7    -0.230651067704E+04    0.16145E-02   -0.26900E-03  4522   0.227E-02    0.542E-01
RMM:   8    -0.230650786126E+04    0.28158E-02   -0.25891E-03  4443   0.252E-02    0.689E-01
RMM:   9    -0.230650836415E+04   -0.50288E-03   -0.16053E-03  4211   0.203E-02    0.836E-01
RMM:  10    -0.230650869231E+04   -0.32816E-03   -0.27944E-04  3248   0.108E-02    0.883E-01
RMM:  11    -0.230650601552E+04    0.26768E-02   -0.11635E-03  3956   0.157E-02    0.564E-01
RMM:  12    -0.230650628298E+04   -0.26746E-03   -0.47236E-04  3637   0.115E-02    0.797E-01
RMM:  13    -0.230650671906E+04   -0.43608E-03   -0.72944E-04  3872   0.124E-02    0.402E-01
RMM:  14    -0.230650742075E+04   -0.70169E-03   -0.98489E-04  4021   0.147E-02    0.142E-01
RMM:  15    -0.230650769169E+04   -0.27094E-03   -0.36314E-04  3865   0.104E-02    0.110E-01
RMM:  16    -0.230650778825E+04   -0.96556E-04   -0.22243E-04  3642   0.749E-03    0.343E-02
RMM:  17    -0.230650778622E+04    0.20316E-05   -0.94449E-05  3060   0.585E-03
   2 F= -.23269298E+04 E0= -.23269180E+04  d E =-.236384E-01  mag=     5.4488
       N       E                     dE             d eps       ncg     rms          rms(c)
DAV:   1    -0.230649760779E+04    0.10180E-01   -0.19793E+01  4480   0.185E+00    0.274E+00
RMM:   2    -0.230673863644E+04   -0.24103E+00   -0.55249E-01  5130   0.296E-01    0.740E+00
RMM:   3    -0.230658422290E+04    0.15441E+00   -0.26617E-01  5368   0.211E-01    0.449E+00
RMM:   4    -0.230657445298E+04    0.97699E-02   -0.24030E-02  4855   0.754E-02    0.444E+00
RMM:   5    -0.230656300654E+04    0.11446E-01   -0.30072E-03  4367   0.295E-02    0.429E+00
RMM:   6    -0.230651083422E+04    0.52172E-01   -0.21297E-02  4610   0.614E-02    0.281E+00
RMM:   7    -0.230650533925E+04    0.54950E-02   -0.29786E-03  4034   0.317E-02    0.251E+00
RMM:   8    -0.230648624348E+04    0.19096E-01   -0.26142E-02  5008   0.706E-02    0.200E+00
RMM:   9    -0.230641782975E+04    0.68414E-01   -0.10745E-01  4598   0.147E-01    0.162E+00
RMM:  10    -0.230644367352E+04   -0.25844E-01   -0.40289E-02  5352   0.853E-02    0.196E+00
RMM:  11    -0.230645496008E+04   -0.11287E-01   -0.12630E-02  4819   0.505E-02    0.158E+00
RMM:  12    -0.230645167837E+04    0.32817E-02   -0.44056E-03  4315   0.298E-02    0.157E+00
RMM:  13    -0.230645619496E+04   -0.45166E-02   -0.18999E-03  4095   0.193E-02    0.148E+00
RMM:  14    -0.230646735602E+04   -0.11161E-01   -0.15173E-02  4568   0.548E-02    0.132E+00
RMM:  15    -0.230647113583E+04   -0.37798E-02   -0.27053E-02  4511   0.702E-02    0.283E+00
RMM:  16    -0.230647825695E+04   -0.71211E-02   -0.19598E-02  4318   0.617E-02    0.106E+00
RMM:  17    -0.230648537505E+04   -0.71181E-02   -0.83952E-03  4276   0.410E-02    0.922E-01
RMM:  18    -0.230648982818E+04   -0.44531E-02   -0.43184E-03  4369   0.307E-02    0.899E-01
RMM:  19    -0.230648938172E+04    0.44646E-03   -0.49229E-04  3754   0.106E-02    0.938E-01
RMM:  20    -0.230649482401E+04   -0.54423E-02   -0.38885E-03  4561   0.264E-02    0.111E+00
RMM:  21    -0.230649480853E+04    0.15481E-04   -0.16612E-03  4284   0.209E-02    0.994E-01
RMM:  22    -0.230649503873E+04   -0.23020E-03   -0.67784E-03  4787   0.397E-02    0.888E-01
RMM:  23    -0.230649572700E+04   -0.68827E-03   -0.30879E-03  4555   0.281E-02    0.954E-01
RMM:  24    -0.230649570934E+04    0.17662E-04   -0.69218E-04  4264   0.111E-02    0.882E-01
RMM:  25    -0.230649767285E+04   -0.19635E-02   -0.59710E-04  4011   0.122E-02    0.107E+00
RMM:  26    -0.230649757825E+04    0.94599E-04   -0.39807E-04  3639   0.104E-02    0.102E+00
RMM:  27    -0.230650078865E+04   -0.32104E-02   -0.36649E-04  3477   0.904E-03    0.132E+00
RMM:  28    -0.230650001988E+04    0.76877E-03   -0.28199E-04  3207   0.914E-03    0.123E+00
RMM:  29    -0.230650010468E+04   -0.84803E-04   -0.53441E-05  2900   0.410E-03    0.127E+00
RMM:  30    -0.230650009053E+04    0.14154E-04   -0.92847E-06  2696   0.227E-03    0.126E+00
RMM:  31    -0.230649957712E+04    0.51340E-03   -0.16100E-04  3303   0.580E-03    0.123E+00
RMM:  32    -0.230649818294E+04    0.13942E-02   -0.86239E-04  4125   0.124E-02    0.118E+00
RMM:  33    -0.230649758090E+04    0.60205E-03   -0.86669E-04  3962   0.132E-02    0.122E+00
RMM:  34    -0.230649753032E+04    0.50582E-04   -0.49474E-05  2995   0.507E-03    0.119E+00
RMM:  35    -0.230649614636E+04    0.13840E-02   -0.49588E-05  2875   0.368E-03    0.101E+00
RMM:  36    -0.230649663388E+04   -0.48752E-03   -0.85907E-03  4715   0.402E-02    0.603E-01
RMM:  37    -0.230649948856E+04   -0.28547E-02   -0.11168E-02  4829   0.508E-02    0.604E-01
RMM:  38    -0.230649949700E+04   -0.84411E-05   -0.12640E-03  4298   0.179E-02    0.570E-01
RMM:  39    -0.230649926012E+04    0.23688E-03   -0.93201E-05  3160   0.546E-03    0.563E-01
RMM:  40    -0.230649899124E+04    0.26888E-03   -0.45223E-05  2943   0.406E-03    0.536E-01
RMM:  41    -0.230649760997E+04    0.13813E-02   -0.15373E-03  4261   0.171E-02    0.406E-01
RMM:  42    -0.230649802279E+04   -0.41282E-03   -0.36495E-04  3933   0.120E-02    0.270E-01
RMM:  43    -0.230649829886E+04   -0.27607E-03   -0.19563E-04  3409   0.753E-03    0.217E-01
RMM:  44    -0.230649852348E+04   -0.22462E-03   -0.72542E-05  3073   0.554E-03    0.268E-01
RMM:  45    -0.230649973208E+04   -0.12086E-02   -0.14713E-03  4643   0.174E-02    0.257E-01
RMM:  46    -0.230650000350E+04   -0.27141E-03   -0.26623E-04  3466   0.981E-03    0.304E-01
RMM:  47    -0.230650039574E+04   -0.39225E-03   -0.25591E-04  3863   0.727E-03    0.354E-01
RMM:  48    -0.230650079873E+04   -0.40299E-03   -0.16866E-04  3280   0.718E-03    0.384E-01
RMM:  49    -0.230650179612E+04   -0.99739E-03   -0.83871E-04  4334   0.129E-02    0.379E-01
RMM:  50    -0.230650149659E+04    0.29954E-03   -0.49261E-05  3017   0.624E-03    0.379E-01
RMM:  51    -0.230650131526E+04    0.18133E-03   -0.29938E-05  2792   0.342E-03    0.343E-01
RMM:  52    -0.230650169899E+04   -0.38373E-03   -0.84851E-05  2888   0.431E-03    0.348E-01
RMM:  53    -0.230650198839E+04   -0.28940E-03   -0.84910E-05  3091   0.433E-03    0.352E-01
RMM:  54    -0.230650216832E+04   -0.17994E-03   -0.49379E-05  2899   0.350E-03    0.346E-01
RMM:  55    -0.230650216664E+04    0.16848E-05   -0.45323E-06  2602   0.199E-03
   3 F= -.23269229E+04 E0= -.23269046E+04  d E =-.366312E-01  mag=     4.8326
       N       E                     dE             d eps       ncg     rms          rms(c)
DAV:   1    -0.230651510381E+04   -0.12935E-01   -0.99403E+00  4640   0.132E+00    0.145E+00
RMM:   2    -0.230669591767E+04   -0.18081E+00   -0.15417E-01  5124   0.163E-01    0.695E+00
RMM:   3    -0.230654518056E+04    0.15074E+00   -0.67450E-02  5715   0.111E-01    0.193E+00
RMM:   4    -0.230655706683E+04   -0.11886E-01   -0.65226E-03  4179   0.332E-02    0.297E+00
RMM:   5    -0.230655882492E+04   -0.17581E-02   -0.61971E-04  3890   0.126E-02    0.303E+00
RMM:   6    -0.230652574751E+04    0.33077E-01   -0.22008E-02  4692   0.641E-02    0.234E+00
RMM:   7    -0.230651849601E+04    0.72515E-02   -0.14416E-02  4629   0.630E-02    0.336E+00
RMM:   8    -0.230652091297E+04   -0.24170E-02   -0.20010E-03  4179   0.228E-02    0.333E+00
RMM:   9    -0.230651352156E+04    0.73914E-02   -0.31690E-03  4642   0.252E-02    0.334E+00
RMM:  10    -0.230649117501E+04    0.22347E-01   -0.79501E-03  4397   0.433E-02    0.966E-01
RMM:  11    -0.230649985917E+04   -0.86842E-02   -0.45152E-03  4398   0.438E-02    0.603E-01
RMM:  12    -0.230650595831E+04   -0.60991E-02   -0.51554E-03  4563   0.345E-02    0.457E-01
RMM:  13    -0.230650988986E+04   -0.39315E-02   -0.46004E-03  4625   0.346E-02    0.331E-01
RMM:  14    -0.230651179670E+04   -0.19068E-02   -0.36336E-03  4778   0.276E-02    0.374E-01
RMM:  15    -0.230651320644E+04   -0.14097E-02   -0.36301E-03  4734   0.266E-02    0.404E-01
RMM:  16    -0.230651313013E+04    0.76313E-04   -0.27019E-04  3655   0.128E-02    0.386E-01
RMM:  17    -0.230651309993E+04    0.30200E-04   -0.55218E-05  3144   0.441E-03    0.340E-01
RMM:  18    -0.230651358191E+04   -0.48198E-03   -0.12746E-03  4569   0.161E-02    0.198E-01
RMM:  19    -0.230651451963E+04   -0.93772E-03   -0.35586E-03  4802   0.273E-02    0.288E-01
RMM:  20    -0.230651516867E+04   -0.64905E-03   -0.22805E-03  4716   0.207E-02    0.314E-01
RMM:  21    -0.230651541182E+04   -0.24315E-03   -0.51213E-04  3972   0.103E-02    0.288E-01
RMM:  22    -0.230651570408E+04   -0.29226E-03   -0.30741E-04  3623   0.817E-03    0.314E-01
RMM:  23    -0.230651532372E+04    0.38036E-03   -0.25908E-04  3431   0.826E-03    0.299E-01
RMM:  24    -0.230651477282E+04    0.55090E-03   -0.86307E-04  4150   0.129E-02    0.262E-01
RMM:  25    -0.230651286210E+04    0.19107E-02   -0.13037E-02  4924   0.486E-02    0.148E-01
RMM:  26    -0.230651332658E+04   -0.46448E-03   -0.67385E-04  4006   0.201E-02    0.136E-01
RMM:  27    -0.230651349787E+04   -0.17129E-03   -0.27475E-04  3381   0.825E-03    0.140E-01
RMM:  28    -0.230651398016E+04   -0.48229E-03   -0.11326E-03  4240   0.151E-02    0.121E-01
RMM:  29    -0.230651550711E+04   -0.15270E-02   -0.76688E-03  4865   0.380E-02    0.136E-01
RMM:  30    -0.230651546275E+04    0.44362E-04   -0.44163E-04  3739   0.152E-02    0.162E-01
RMM:  31    -0.230651529164E+04    0.17112E-03   -0.79689E-05  3078   0.572E-03    0.162E-01
RMM:  32    -0.230651515532E+04    0.13631E-03   -0.51926E-05  2942   0.390E-03    0.177E-01
RMM:  33    -0.230651463188E+04    0.52344E-03   -0.10139E-03  4200   0.136E-02    0.268E-01
RMM:  34    -0.230651423140E+04    0.40049E-03   -0.12157E-03  4144   0.160E-02    0.375E-01
RMM:  35    -0.230651437790E+04   -0.14650E-03   -0.74365E-05  3060   0.677E-03    0.408E-01
RMM:  36    -0.230651475530E+04   -0.37740E-03   -0.31489E-04  3555   0.919E-03    0.445E-01
RMM:  37    -0.230651621933E+04   -0.14640E-02   -0.50138E-03  4727   0.309E-02    0.508E-01
RMM:  38    -0.230651522663E+04    0.99270E-03   -0.19425E-03  4607   0.212E-02    0.494E-01
RMM:  39    -0.230651338231E+04    0.18443E-02   -0.10259E-02  4828   0.426E-02    0.346E-01
RMM:  40    -0.230651100351E+04    0.23788E-02   -0.20017E-02  4972   0.611E-02    0.192E-01
RMM:  41    -0.230651096764E+04    0.35870E-04   -0.28072E-03  4711   0.251E-02    0.215E-01
RMM:  42    -0.230651115512E+04   -0.18747E-03   -0.22431E-04  3464   0.746E-03    0.190E-01
RMM:  43    -0.230651136723E+04   -0.21211E-03   -0.14861E-04  3197   0.619E-03    0.179E-01
RMM:  44    -0.230651110591E+04    0.26132E-03   -0.25821E-04  3431   0.737E-03    0.249E-01
RMM:  45    -0.230651109574E+04    0.10176E-04   -0.26054E-05  2783   0.352E-03    0.256E-01
RMM:  46    -0.230651080601E+04    0.28973E-03   -0.37463E-04  3851   0.849E-03    0.290E-01
RMM:  47    -0.230651209627E+04   -0.12903E-02   -0.60719E-03  4699   0.325E-02    0.753E-02
RMM:  48    -0.230651220484E+04   -0.10857E-03   -0.68612E-04  3944   0.156E-02    0.986E-02
RMM:  49    -0.230651191016E+04    0.29468E-03   -0.32460E-04  3542   0.934E-03    0.114E-01
RMM:  50    -0.230651139674E+04    0.51342E-03   -0.10983E-03  4143   0.145E-02    0.108E-01
RMM:  51    -0.230651122903E+04    0.16771E-03   -0.26596E-04  3311   0.822E-03    0.107E-01
RMM:  52    -0.230651172284E+04   -0.49381E-03   -0.64933E-04  3780   0.119E-02    0.120E-01
RMM:  53    -0.230651172287E+04   -0.29468E-07   -0.39647E-05  2801   0.474E-03
   4 F= -.23269330E+04 E0= -.23269186E+04  d E =-.288336E-01  mag=     5.3340
       N       E                     dE             d eps       ncg     rms          rms(c)
DAV:   1    -0.230650752585E+04    0.41970E-02   -0.19981E+01  4480   0.168E+00    0.836E-01
RMM:   2    -0.230654775498E+04   -0.40229E-01   -0.96039E-02  4679   0.133E-01    0.410E+00
RMM:   3    -0.230651616510E+04    0.31590E-01   -0.18935E-02  5321   0.677E-02    0.432E-01
RMM:   4    -0.230652134470E+04   -0.51796E-02   -0.35469E-03  4312   0.499E-02    0.141E+00
RMM:   5    -0.230651670343E+04    0.46413E-02   -0.10463E-03  4053   0.235E-02    0.565E-01
RMM:   6    -0.230651677161E+04   -0.68182E-04   -0.22157E-03  4454   0.214E-02    0.113E+00
RMM:   7    -0.230651728685E+04   -0.51524E-03   -0.39336E-04  3333   0.118E-02    0.137E+00
RMM:   8    -0.230651615841E+04    0.11284E-02   -0.25828E-04  3793   0.889E-03    0.118E+00
RMM:   9    -0.230651273716E+04    0.34213E-02   -0.19013E-03  4398   0.193E-02    0.664E-01
RMM:  10    -0.230651237428E+04    0.36287E-03   -0.59078E-04  3779   0.153E-02    0.653E-01
RMM:  11    -0.230651239737E+04   -0.23085E-04   -0.23215E-04  3496   0.859E-03    0.486E-01
RMM:  12    -0.230651259303E+04   -0.19567E-03   -0.36239E-04  3770   0.984E-03    0.108E-01
RMM:  13    -0.230651309467E+04   -0.50164E-03   -0.33608E-04  3712   0.106E-02    0.696E-02
RMM:  14    -0.230651331377E+04   -0.21910E-03   -0.37912E-04  3872   0.944E-03    0.751E-02
RMM:  15    -0.230651333824E+04   -0.24474E-04   -0.29242E-04  3677   0.885E-03    0.690E-02
RMM:  16    -0.230651334336E+04   -0.51138E-05   -0.41652E-05  2970   0.468E-03
   5 F= -.23269349E+04 E0= -.23269223E+04  d E =-.251569E-01  mag=     5.4580
       N       E                     dE             d eps       ncg     rms          rms(c)
DAV:   1    -0.230650205467E+04    0.11284E-01   -0.10089E+01  4480   0.122E+00    0.103E+00
RMM:   2    -0.230655221807E+04   -0.50163E-01   -0.89470E-02  5181   0.123E-01    0.366E+00
RMM:   3    -0.230652439880E+04    0.27819E-01   -0.35798E-02  5229   0.783E-02    0.338E+00
RMM:   4    -0.230651281167E+04    0.11587E-01   -0.54653E-03  4229   0.453E-02    0.217E+00
RMM:   5    -0.230651023614E+04    0.25755E-02   -0.21676E-03  4080   0.306E-02    0.190E+00
RMM:   6    -0.230650540230E+04    0.48338E-02   -0.33577E-03  4440   0.304E-02    0.925E-01
RMM:   7    -0.230650665312E+04   -0.12508E-02   -0.12840E-03  4072   0.192E-02    0.106E+00
RMM:   8    -0.230650575782E+04    0.89530E-03   -0.69042E-04  3659   0.141E-02    0.117E+00
RMM:   9    -0.230650402490E+04    0.17329E-02   -0.31963E-03  4628   0.238E-02    0.124E+00
RMM:  10    -0.230650312204E+04    0.90286E-03   -0.87445E-04  3948   0.155E-02    0.124E+00
RMM:  11    -0.230650363846E+04   -0.51642E-03   -0.65040E-05  3106   0.556E-03    0.123E+00
RMM:  12    -0.230650438741E+04   -0.74895E-03   -0.47127E-03  4719   0.303E-02    0.598E-01
RMM:  13    -0.230650606688E+04   -0.16795E-02   -0.90052E-03  4829   0.443E-02    0.521E-01
RMM:  14    -0.230650654384E+04   -0.47696E-03   -0.30532E-03  4764   0.256E-02    0.520E-01
RMM:  15    -0.230650690800E+04   -0.36416E-03   -0.13683E-03  4550   0.150E-02    0.535E-01
RMM:  16    -0.230650727998E+04   -0.37198E-03   -0.98318E-04  4296   0.148E-02    0.558E-01
RMM:  17    -0.230650551845E+04    0.17615E-02   -0.77536E-03  4658   0.384E-02    0.423E-01
RMM:  18    -0.230650459491E+04    0.92354E-03   -0.38441E-03  4482   0.307E-02    0.574E-01
RMM:  19    -0.230650680106E+04   -0.22061E-02   -0.84021E-03  4660   0.413E-02    0.505E-01
RMM:  20    -0.230650920947E+04   -0.24084E-02   -0.13320E-02  4835   0.528E-02    0.470E-01
RMM:  21    -0.230651377587E+04   -0.45664E-02   -0.30502E-02  5216   0.758E-02    0.562E-01
RMM:  22    -0.230651234051E+04    0.14354E-02   -0.17280E-03  4459   0.309E-02    0.458E-01
RMM:  23    -0.230651154795E+04    0.79256E-03   -0.95133E-04  3958   0.153E-02    0.442E-01
RMM:  24    -0.230651148787E+04    0.60089E-04   -0.70677E-05  3064   0.627E-03    0.447E-01
RMM:  25    -0.230651130500E+04    0.18287E-03   -0.67425E-05  3031   0.389E-03    0.439E-01
RMM:  26    -0.230650915799E+04    0.21470E-02   -0.56944E-03  4829   0.325E-02    0.386E-01
RMM:  27    -0.230650497782E+04    0.41802E-02   -0.29379E-02  5020   0.735E-02    0.447E-01
RMM:  28    -0.230650683689E+04   -0.18591E-02   -0.22378E-03  4387   0.333E-02    0.457E-01
RMM:  29    -0.230650865466E+04   -0.18178E-02   -0.70043E-03  4670   0.361E-02    0.353E-01
RMM:  30    -0.230651462375E+04   -0.59691E-02   -0.46856E-02  5006   0.970E-02    0.401E-01
RMM:  31    -0.230652129282E+04   -0.66691E-02   -0.45437E-02  5190   0.952E-02    0.623E-01
RMM:  32    -0.230652129727E+04   -0.44504E-05   -0.33752E-03  4977   0.283E-02    0.577E-01
RMM:  33    -0.230652064090E+04    0.65637E-03   -0.30193E-04  3673   0.995E-03    0.521E-01
RMM:  34    -0.230652083107E+04   -0.19017E-03   -0.41709E-05  3061   0.418E-03    0.538E-01
RMM:  35    -0.230652256969E+04   -0.17386E-02   -0.19602E-03  4576   0.195E-02    0.728E-01
RMM:  36    -0.230652255615E+04    0.13537E-04   -0.13317E-04  3119   0.793E-03    0.727E-01
RMM:  37    -0.230652248709E+04    0.69063E-04   -0.17626E-05  2828   0.266E-03    0.717E-01
RMM:  38    -0.230652144843E+04    0.10387E-02   -0.77447E-04  4068   0.120E-02    0.594E-01
RMM:  39    -0.230652190613E+04   -0.45770E-03   -0.54412E-05  2959   0.500E-03    0.647E-01
RMM:  40    -0.230652193940E+04   -0.33277E-04   -0.61521E-06  2585   0.235E-03    0.649E-01
RMM:  41    -0.230652158322E+04    0.35619E-03   -0.68449E-05  2819   0.365E-03    0.612E-01
RMM:  42    -0.230652214028E+04   -0.55706E-03   -0.17353E-04  3115   0.636E-03    0.666E-01
RMM:  43    -0.230652301080E+04   -0.87051E-03   -0.64766E-04  3983   0.114E-02    0.778E-01
RMM:  44    -0.230652291846E+04    0.92334E-04   -0.38926E-05  2839   0.390E-03    0.762E-01
RMM:  45    -0.230652292209E+04   -0.36244E-05   -0.48093E-06  2480   0.153E-03
   6 F= -.23269450E+04 E0= -.23269302E+04  d E =-.296146E-01  mag=     3.8969
       N       E                     dE             d eps       ncg     rms          rms(c)
DAV:   1    -0.230651422945E+04    0.86890E-02   -0.20034E+01  4480   0.190E+00    0.149E+00
RMM:   2    -0.230668361333E+04   -0.16938E+00   -0.22054E-01  5046   0.184E-01    0.473E+00
RMM:   3    -0.230657749413E+04    0.10612E+00   -0.44916E-02  5897   0.919E-02    0.227E+00
RMM:   4    -0.230657892182E+04   -0.14277E-02   -0.48660E-03  4239   0.207E-02    0.227E+00
RMM:   5    -0.230659464874E+04   -0.15727E-01   -0.20996E-03  4254   0.210E-02    0.234E+00
RMM:   6    -0.230659561947E+04   -0.97074E-03   -0.60669E-04  3380   0.104E-02    0.233E+00
RMM:   7    -0.230660188363E+04   -0.62642E-02   -0.16452E-03  4638   0.177E-02    0.216E+00
RMM:   8    -0.230663176008E+04   -0.29876E-01   -0.33763E-02  5258   0.848E-02    0.159E+00
RMM:   9    -0.230663330630E+04   -0.15462E-02   -0.26690E-02  4840   0.714E-02    0.126E+00
RMM:  10    -0.230662790929E+04    0.53970E-02   -0.63618E-03  4464   0.405E-02    0.921E-01
RMM:  11    -0.230662018124E+04    0.77280E-02   -0.84620E-03  4549   0.466E-02    0.694E-01
RMM:  12    -0.230660843629E+04    0.11745E-01   -0.12154E-02  4666   0.549E-02    0.616E-01
RMM:  13    -0.230659256511E+04    0.15871E-01   -0.10179E-02  4678   0.434E-02    0.655E-01
RMM:  14    -0.230658370649E+04    0.88586E-02   -0.35549E-03  4155   0.245E-02    0.684E-01
RMM:  15    -0.230659180420E+04   -0.80977E-02   -0.12202E-03  3506   0.139E-02    0.658E-01
RMM:  16    -0.230660072451E+04   -0.89203E-02   -0.37883E-03  3884   0.226E-02    0.618E-01
RMM:  17    -0.230660612262E+04   -0.53981E-02   -0.17206E-03  3587   0.169E-02    0.593E-01
RMM:  18    -0.230662991062E+04   -0.23788E-01   -0.39277E-02  4328   0.704E-02    0.531E-01
RMM:  19    -0.230663863037E+04   -0.87198E-02   -0.79033E-03  3876   0.399E-02    0.455E-01
RMM:  20    -0.230664622030E+04   -0.75899E-02   -0.26999E-02  4301   0.607E-02    0.511E-01
RMM:  21    -0.230664725684E+04   -0.10365E-02   -0.24912E-03  3708   0.268E-02    0.483E-01
RMM:  22    -0.230664817858E+04   -0.92174E-03   -0.53893E-04  3312   0.742E-03    0.477E-01
RMM:  23    -0.230664783870E+04    0.33989E-03   -0.27687E-03  3767   0.209E-02    0.542E-01
RMM:  24    -0.230664386721E+04    0.39715E-02   -0.31899E-02  4384   0.698E-02    0.897E-01
RMM:  25    -0.230666376762E+04   -0.19900E-01   -0.29434E-02  4335   0.634E-02    0.315E-01
RMM:  26    -0.230665993608E+04    0.38315E-02   -0.17167E-02  4239   0.531E-02    0.518E-01
RMM:  27    -0.230666540275E+04   -0.54667E-02   -0.24664E-03  3795   0.236E-02    0.304E-01
RMM:  28    -0.230666665232E+04   -0.12496E-02   -0.26646E-03  3888   0.205E-02    0.272E-01
RMM:  29    -0.230666729143E+04   -0.63911E-03   -0.94894E-04  3636   0.135E-02    0.194E-01
RMM:  30    -0.230666710836E+04    0.18307E-03   -0.17929E-04  3106   0.677E-03    0.199E-01
RMM:  31    -0.230666725372E+04   -0.14536E-03   -0.91461E-04  3548   0.118E-02    0.182E-01
RMM:  32    -0.230666741365E+04   -0.15993E-03   -0.47678E-04  3254   0.899E-03    0.139E-01
RMM:  33    -0.230666769375E+04   -0.28010E-03   -0.38887E-04  3258   0.856E-03    0.100E-01
RMM:  34    -0.230666777959E+04   -0.85837E-04   -0.23828E-04  3099   0.684E-03    0.990E-02
RMM:  35    -0.230666794850E+04   -0.16891E-03   -0.15669E-04  2952   0.566E-03    0.494E-02
RMM:  36    -0.230666804546E+04   -0.96963E-04   -0.11696E-04  2912   0.472E-03    0.348E-02
RMM:  37    -0.230666807927E+04   -0.33814E-04   -0.63353E-05  2786   0.380E-03    0.330E-02
RMM:  38    -0.230666810953E+04   -0.30262E-04   -0.34511E-05  2644   0.281E-03    0.232E-02
RMM:  39    -0.230666812803E+04   -0.18499E-04   -0.23205E-05  2633   0.251E-03    0.185E-02
RMM:  40    -0.230666814429E+04   -0.16261E-04   -0.32264E-05  2705   0.261E-03    0.139E-02
RMM:  41    -0.230666814815E+04   -0.38568E-05   -0.12410E-05  2479   0.195E-03
   7 F= -.23270889E+04 E0= -.23270889E+04  d E =-.286914E-06  mag=     4.0009
       N       E                     dE             d eps       ncg     rms          rms(c)
DAV:   1    -0.230665537431E+04    0.12770E-01   -0.10223E+01  4480   0.158E+00    0.475E-01
RMM:   2    -0.230665899301E+04   -0.36187E-02   -0.40250E-02  4373   0.952E-02    0.448E-01
RMM:   3    -0.230665825058E+04    0.74243E-03   -0.50136E-03  5207   0.361E-02    0.370E-01
RMM:   4    -0.230665687508E+04    0.13755E-02   -0.13071E-03  4131   0.213E-02    0.115E-01
RMM:   5    -0.230665689340E+04   -0.18319E-04   -0.59447E-04  4377   0.132E-02    0.600E-02
RMM:   6    -0.230665687485E+04    0.18554E-04   -0.12268E-04  3517   0.720E-03    0.271E-02
RMM:   7    -0.230665687521E+04   -0.36099E-06   -0.14164E-05  2946   0.328E-03
   8 F= -.23270783E+04 E0= -.23270783E+04  d E =-.234277E-06  mag=     4.0003
       N       E                     dE             d eps       ncg     rms          rms(c)
DAV:   1    -0.230668842964E+04   -0.31555E-01   -0.20854E+01  4480   0.190E+00    0.661E-01
RMM:   2    -0.230668778424E+04    0.64540E-03   -0.68642E-02  4386   0.117E-01    0.362E-01
RMM:   3    -0.230668836329E+04   -0.57905E-03   -0.58807E-03  5452   0.383E-02    0.481E-01
RMM:   4    -0.230668631473E+04    0.20486E-02   -0.32891E-03  4913   0.268E-02    0.197E-01
RMM:   5    -0.230668618588E+04    0.12886E-03   -0.13966E-03  4447   0.179E-02    0.805E-02
RMM:   6    -0.230668612341E+04    0.62466E-04   -0.20017E-04  3673   0.106E-02    0.424E-02
RMM:   7    -0.230668611714E+04    0.62742E-05   -0.52689E-05  3188   0.454E-03
   9 F= -.23271076E+04 E0= -.23271076E+04  d E =-.129740E-06  mag=     4.0001
       N       E                     dE             d eps       ncg     rms          rms(c)
DAV:   1    -0.230663017246E+04    0.55951E-01   -0.10153E+01  4480   0.144E+00    0.550E-01
RMM:   2    -0.230662941879E+04    0.75367E-03   -0.38343E-02  4336   0.960E-02    0.301E-01
RMM:   3    -0.230662919758E+04    0.22121E-03   -0.70456E-03  5047   0.366E-02    0.259E-01
RMM:   4    -0.230662860444E+04    0.59314E-03   -0.16076E-03  4374   0.252E-02    0.124E-01
RMM:   5    -0.230662847870E+04    0.12573E-03   -0.21576E-04  3537   0.939E-03    0.379E-02
RMM:   6    -0.230662846556E+04    0.13143E-04   -0.42366E-05  3205   0.475E-03    0.232E-02
RMM:   7    -0.230662846127E+04    0.42920E-05   -0.32190E-05  3105   0.363E-03
  10 F= -.23270503E+04 E0= -.23270503E+04  d E =-.217586E-06  mag=     4.0000
       N       E                     dE             d eps       ncg     rms          rms(c)
DAV:   1    -0.230668918623E+04   -0.60721E-01   -0.20258E+01  4480   0.209E+00    0.969E-01
RMM:   2    -0.230668328418E+04    0.59020E-02   -0.10587E-01  4380   0.146E-01    0.468E-01
RMM:   3    -0.230668033888E+04    0.29453E-02   -0.97577E-03  5606   0.507E-02    0.255E-01
RMM:   4    -0.230668148949E+04   -0.11506E-02   -0.39572E-03  5154   0.272E-02    0.380E-01
RMM:   5    -0.230668003452E+04    0.14550E-02   -0.11531E-03  4679   0.191E-02    0.611E-02
RMM:   6    -0.230668002832E+04    0.62027E-05   -0.14146E-04  3477   0.748E-03    0.413E-02
RMM:   7    -0.230668002087E+04    0.74470E-05   -0.48662E-05  3259   0.463E-03
  11 F= -.23271011E+04 E0= -.23271011E+04  d E =-.166235E-06  mag=     4.0000
       N       E                     dE             d eps       ncg     rms          rms(c)
DAV:   1    -0.230666109215E+04    0.18936E-01   -0.10162E+01  4480   0.148E+00    0.633E-01
RMM:   2    -0.230665794565E+04    0.31465E-02   -0.39789E-02  4317   0.961E-02    0.345E-01
RMM:   3    -0.230665665506E+04    0.12906E-02   -0.11715E-02  4488   0.405E-02    0.171E-01
RMM:   4    -0.230665641725E+04    0.23781E-03   -0.14175E-03  3994   0.326E-02    0.117E-01
RMM:   5    -0.230665627057E+04    0.14668E-03   -0.14086E-04  3606   0.783E-03    0.379E-02
RMM:   6    -0.230665626549E+04    0.50820E-05   -0.63269E-05  3280   0.490E-03
  12 F= -.23270777E+04 E0= -.23270777E+04  d E =-.180027E-06  mag=     4.0000
       N       E                     dE             d eps       ncg     rms          rms(c)
DAV:   1    -0.230666295001E+04   -0.66794E-02   -0.20244E+01  4480   0.223E+00    0.945E-01
RMM:   2    -0.230665926347E+04    0.36865E-02   -0.11156E-01  4349   0.159E-01    0.431E-01
RMM:   3    -0.230665647235E+04    0.27911E-02   -0.70986E-03  5373   0.468E-02    0.197E-01
RMM:   4    -0.230665629852E+04    0.17383E-03   -0.34798E-03  4615   0.239E-02    0.797E-02
RMM:   5    -0.230665623172E+04    0.66803E-04   -0.37406E-04  3873   0.153E-02    0.424E-02
RMM:   6    -0.230665622843E+04    0.32815E-05   -0.10606E-04  3332   0.555E-03    0.290E-02
RMM:   7    -0.230665624504E+04   -0.16610E-04   -0.43393E-05  3027   0.467E-03    0.361E-02
RMM:   8    -0.230665624264E+04    0.24014E-05   -0.21289E-05  2947   0.341E-03
  13 F= -.23270777E+04 E0= -.23270777E+04  d E =-.196401E-06  mag=     4.0000
       N       E                     dE             d eps       ncg     rms          rms(c)
DAV:   1    -0.230667906743E+04   -0.22822E-01   -0.49510E+00  4480   0.106E+00    0.432E-01
RMM:   2    -0.230667908084E+04   -0.13411E-04   -0.18591E-02  4186   0.697E-02    0.230E-01
RMM:   3    -0.230667873452E+04    0.34631E-03   -0.20060E-03  4720   0.209E-02    0.116E-01
RMM:   4    -0.230667889195E+04   -0.15743E-03   -0.71532E-04  4116   0.146E-02    0.157E-01
RMM:   5    -0.230667862927E+04    0.26268E-03   -0.19887E-04  3448   0.854E-03    0.256E-02
RMM:   6    -0.230667862219E+04    0.70760E-05   -0.26088E-05  3062   0.422E-03
  14 F= -.23271003E+04 E0= -.23271003E+04  d E =-.198362E-06  mag=     4.0000
       N       E                     dE             d eps       ncg     rms          rms(c)
DAV:   1    -0.230666439144E+04    0.14238E-01   -0.10729E+00  4640   0.464E-01    0.377E-01
RMM:   2    -0.230666442429E+04   -0.32847E-04   -0.91642E-03  4227   0.409E-02    0.206E-01
RMM:   3    -0.230666477360E+04   -0.34931E-03   -0.79102E-04  4250   0.163E-02    0.180E-01
RMM:   4    -0.230666480342E+04   -0.29817E-04   -0.79102E-04  3851   0.132E-02    0.152E-01
RMM:   5    -0.230666464569E+04    0.15773E-03   -0.18069E-04  3484   0.891E-03    0.179E-02
RMM:   6    -0.230666464514E+04    0.55865E-06   -0.16151E-05  2975   0.399E-03
  15 F= -.23270858E+04 E0= -.23270858E+04  d E =-.173928E-06  mag=     4.0000
       N       E                     dE             d eps       ncg     rms          rms(c)
DAV:   1    -0.230666979711E+04   -0.51514E-02   -0.53606E-01  4640   0.337E-01    0.270E-01
RMM:   2    -0.230666974207E+04    0.55040E-04   -0.47747E-03  4080   0.303E-02    0.148E-01
RMM:   3    -0.230666983585E+04   -0.93775E-04   -0.42354E-04  4085   0.114E-02    0.123E-01
RMM:   4    -0.230666988515E+04   -0.49305E-04   -0.44005E-04  3609   0.973E-03    0.118E-01
RMM:   5    -0.230666978131E+04    0.10384E-03   -0.13862E-04  3506   0.759E-03    0.283E-02
RMM:   6    -0.230666977197E+04    0.93431E-05   -0.18565E-05  2932   0.391E-03
  16 F= -.23270917E+04 E0= -.23270917E+04  d E =-.184725E-06  mag=     4.0000
       N       E                     dE             d eps       ncg     rms          rms(c)
DAV:   1    -0.230667310109E+04   -0.33198E-02   -0.10737E+00  4480   0.473E-01    0.300E-01
RMM:   2    -0.230667381437E+04   -0.71327E-03   -0.45115E-03  4060   0.326E-02    0.181E-01
RMM:   3    -0.230667421564E+04   -0.40127E-03   -0.89451E-04  4218   0.154E-02    0.914E-02
RMM:   4    -0.230667421417E+04    0.14660E-05   -0.29036E-04  3572   0.105E-02    0.777E-02
RMM:   5    -0.230667416986E+04    0.44309E-04   -0.83161E-05  3176   0.568E-03    0.364E-02
RMM:   6    -0.230667415788E+04    0.11982E-04   -0.15173E-05  2906   0.353E-03    0.134E-02
RMM:   7    -0.230667415956E+04   -0.16796E-05   -0.12419E-05  2933   0.244E-03
  17 F= -.23270951E+04 E0= -.23270951E+04  d E =-.186203E-06  mag=     4.0000
       N       E                     dE             d eps       ncg     rms          rms(c)
DAV:   1    -0.230666355550E+04    0.10602E-01   -0.53533E-01  4960   0.345E-01    0.374E-01
RMM:   2    -0.230666262898E+04    0.92652E-03   -0.12750E-02  4119   0.459E-02    0.177E-01
RMM:   3    -0.230666239657E+04    0.23241E-03   -0.60558E-04  3785   0.156E-02    0.112E-01
RMM:   4    -0.230666271082E+04   -0.31425E-03   -0.71436E-04  3818   0.122E-02    0.180E-01
RMM:   5    -0.230666238086E+04    0.32996E-03   -0.27495E-04  3553   0.100E-02    0.331E-02
RMM:   6    -0.230666237025E+04    0.10604E-04   -0.37169E-05  3048   0.423E-03    0.150E-02
RMM:   7    -0.230666236824E+04    0.20162E-05   -0.92821E-06  2643   0.237E-03
  18 F= -.23270836E+04 E0= -.23270836E+04  d E =-.177713E-06  mag=     4.0000
       N       E                     dE             d eps       ncg     rms          rms(c)
DAV:   1    -0.230665910018E+04    0.32701E-02   -0.11121E+00  4960   0.530E-01    0.621E-01
RMM:   2    -0.230665516906E+04    0.39311E-02   -0.32843E-02  4193   0.720E-02    0.279E-01
RMM:   3    -0.230665449403E+04    0.67503E-03   -0.17148E-03  3811   0.287E-02    0.169E-01
RMM:   4    -0.230665522051E+04   -0.72648E-03   -0.16174E-03  4282   0.189E-02    0.282E-01
RMM:   5    -0.230665438386E+04    0.83664E-03   -0.59225E-04  3986   0.139E-02    0.309E-02
RMM:   6    -0.230665437568E+04    0.81849E-05   -0.49671E-05  3065   0.441E-03
  19 F= -.23270760E+04 E0= -.23270760E+04  d E =-.194118E-06  mag=     4.0000
       N       E                     dE             d eps       ncg     rms          rms(c)
DAV:   1    -0.230668656175E+04   -0.32178E-01   -0.54635E-01  4800   0.348E-01    0.369E-01
RMM:   2    -0.230668560855E+04    0.95320E-03   -0.12162E-02  4128   0.433E-02    0.178E-01
RMM:   3    -0.230668560900E+04   -0.45331E-06   -0.72150E-04  3810   0.174E-02    0.162E-01
RMM:   4    -0.230668560802E+04    0.97766E-06   -0.61155E-04  3591   0.110E-02    0.143E-01
RMM:   5    -0.230668546510E+04    0.14293E-03   -0.21359E-04  3568   0.888E-03    0.327E-02
RMM:   6    -0.230668545509E+04    0.10012E-04   -0.31019E-05  2994   0.467E-03    0.132E-02
RMM:   7    -0.230668545455E+04    0.53967E-06   -0.73272E-06  2533   0.206E-03
  20 F= -.23271067E+04 E0= -.23271067E+04  d E =-.170630E-06  mag=     4.0000
       N       E                     dE             d eps       ncg     rms          rms(c)
DAV:   1    -0.230666165990E+04    0.23795E-01   -0.10734E+00  4480   0.440E-01    0.302E-01
RMM:   2    -0.230666237948E+04   -0.71958E-03   -0.29316E-03  3974   0.268E-02    0.187E-01
RMM:   3    -0.230666359842E+04   -0.12189E-02   -0.12385E-03  4451   0.157E-02    0.283E-01
RMM:   4    -0.230666275478E+04    0.84364E-03   -0.57070E-04  3732   0.123E-02    0.250E-02
RMM:   5    -0.230666276401E+04   -0.92212E-05   -0.72142E-05  3117   0.435E-03
  21 F= -.23270843E+04 E0= -.23270843E+04  d E =-.207952E-06  mag=     4.0000
       N       E                     dE             d eps       ncg     rms          rms(c)
DAV:   1    -0.230667418253E+04   -0.11428E-01   -0.55832E-01  4880   0.342E-01    0.400E-01
RMM:   2    -0.230667286247E+04    0.13201E-02   -0.12447E-02  4081   0.445E-02    0.189E-01
RMM:   3    -0.230667264935E+04    0.21312E-03   -0.69307E-04  3753   0.171E-02    0.112E-01
RMM:   4    -0.230667288692E+04   -0.23757E-03   -0.57899E-04  3815   0.109E-02    0.155E-01
RMM:   5    -0.230667266158E+04    0.22534E-03   -0.27728E-04  3369   0.939E-03    0.569E-02
RMM:   6    -0.230667262951E+04    0.32068E-04   -0.63609E-05  3088   0.487E-03    0.131E-02
RMM:   7    -0.230667262788E+04    0.16303E-05   -0.59618E-06  2498   0.218E-03
  22 F= -.23270939E+04 E0= -.23270939E+04  d E =-.215942E-06  mag=     4.0000
       N       E                     dE             d eps       ncg     rms          rms(c)
DAV:   1    -0.230664671421E+04    0.25915E-01   -0.11080E+00  5040   0.512E-01    0.742E-01
RMM:   2    -0.230664099839E+04    0.57158E-02   -0.52974E-02  4306   0.838E-02    0.325E-01
RMM:   3    -0.230663998581E+04    0.10126E-02   -0.33812E-03  4288   0.418E-02    0.285E-01
RMM:   4    -0.230663997696E+04    0.88490E-05   -0.21855E-03  4470   0.200E-02    0.270E-01
RMM:   5    -0.230663938373E+04    0.59322E-03   -0.96556E-04  4645   0.173E-02    0.891E-02
RMM:   6    -0.230663928872E+04    0.95015E-04   -0.17396E-04  3606   0.851E-03    0.271E-02
RMM:   7    -0.230663928109E+04    0.76304E-05   -0.40818E-05  2994   0.369E-03
  23 F= -.23270609E+04 E0= -.23270609E+04  d E =-.156549E-06  mag=     4.0000
       N       E                     dE             d eps       ncg     rms          rms(c)
DAV:   1    -0.230667333359E+04   -0.34045E-01   -0.53808E-01  4960   0.357E-01    0.367E-01
RMM:   2    -0.230667231902E+04    0.10146E-02   -0.12061E-02  4217   0.412E-02    0.182E-01
RMM:   3    -0.230667226128E+04    0.57738E-04   -0.94430E-04  4147   0.176E-02    0.181E-01
RMM:   4    -0.230667213864E+04    0.12264E-03   -0.68043E-04  3755   0.115E-02    0.132E-01
RMM:   5    -0.230667205304E+04    0.85598E-04   -0.27161E-04  3811   0.942E-03    0.548E-02
RMM:   6    -0.230667202381E+04    0.29235E-04   -0.62110E-05  3141   0.535E-03    0.174E-02
RMM:   7    -0.230667202700E+04   -0.31969E-05   -0.88225E-06  2633   0.230E-03
  24 F= -.23270935E+04 E0= -.23270935E+04  d E =-.168623E-06  mag=     4.0000
       N       E                     dE             d eps       ncg     rms          rms(c)
DAV:   1    -0.230667276364E+04   -0.73984E-03   -0.10745E+00  4480   0.426E-01    0.288E-01
RMM:   2    -0.230667351580E+04   -0.75215E-03   -0.31483E-03  3929   0.287E-02    0.177E-01
RMM:   3    -0.230667429254E+04   -0.77675E-03   -0.10730E-03  4308   0.152E-02    0.202E-01
RMM:   4    -0.230667389343E+04    0.39911E-03   -0.40014E-04  3578   0.112E-02    0.527E-02
RMM:   5    -0.230667389617E+04   -0.27389E-05   -0.85719E-05  3285   0.539E-03
  25 F= -.23270952E+04 E0= -.23270952E+04  d E =-.212297E-06  mag=     4.0000
