       N       E                     dE             d eps       ncg     rms          rms(c)
DAV:   1     0.131490157909E+05    0.13149E+05   -0.84797E+05  4560   0.144E+03
DAV:   2    -0.103985078161E+04   -0.14189E+05   -0.13578E+05  4980   0.330E+02
DAV:   3    -0.248917127653E+04   -0.14493E+04   -0.14327E+04  5480   0.114E+02
DAV:   4    -0.253215207254E+04   -0.42981E+02   -0.42740E+02  6700   0.277E+01
DAV:   5    -0.253296080850E+04   -0.80874E+00   -0.80676E+00  5720   0.317E+00    0.171E+02
RMM:   6    -0.149856417921E+04    0.10344E+04   -0.19407E+03  4514   0.381E+01    0.736E+01
RMM:   7    -0.167191228326E+04   -0.17335E+03   -0.32237E+02  5245   0.148E+01    0.536E+01
RMM:   8    -0.171085649138E+04   -0.38944E+02   -0.69347E+01  5482   0.810E+00    0.418E+01
RMM:   9    -0.178771198785E+04   -0.76855E+02   -0.70939E+01  5131   0.761E+00    0.336E+01
RMM:  10    -0.193057072908E+04   -0.14286E+03   -0.69837E+01  5323   0.807E+00    0.338E+01
RMM:  11    -0.197439985023E+04   -0.43829E+02   -0.22846E+01  5495   0.434E+00    0.201E+01
RMM:  12    -0.205981697227E+04   -0.85417E+02   -0.34660E+01  5095   0.473E+00    0.182E+01
RMM:  13    -0.211820118355E+04   -0.58384E+02   -0.22299E+01  5180   0.378E+00    0.154E+01
RMM:  14    -0.219528026346E+04   -0.77079E+02   -0.43374E+01  4721   0.493E+00    0.104E+01
RMM:  15    -0.229282890112E+04   -0.97549E+02   -0.93094E+01  4519   0.659E+00    0.728E+00
RMM:  16    -0.231285660975E+04   -0.20028E+02   -0.20864E+01  4534   0.403E+00    0.685E+00
RMM:  17    -0.231717140025E+04   -0.43148E+01   -0.61884E+00  5045   0.156E+00    0.508E+00
RMM:  18    -0.232016805637E+04   -0.29967E+01   -0.20635E+00  5041   0.106E+00    0.268E+00
RMM:  19    -0.232275637154E+04   -0.25883E+01   -0.12692E+00  4928   0.713E-01    0.151E+00
RMM:  20    -0.232345297069E+04   -0.69660E+00   -0.51675E-01  4865   0.466E-01    0.100E+00
RMM:  21    -0.232382079682E+04   -0.36783E+00   -0.32641E-01  4776   0.298E-01    0.628E-01
RMM:  22    -0.232392450347E+04   -0.10371E+00   -0.83658E-02  4914   0.198E-01    0.393E-01
RMM:  23    -0.232399463291E+04   -0.70129E-01   -0.41790E-02  4586   0.115E-01    0.294E-01
RMM:  24    -0.232403804787E+04   -0.43415E-01   -0.16195E-02  4581   0.911E-02    0.216E-01
RMM:  25    -0.232407011750E+04   -0.32070E-01   -0.95981E-03  4604   0.662E-02    0.104E-01
RMM:  26    -0.232408725147E+04   -0.17134E-01   -0.41677E-03  4679   0.505E-02    0.772E-02
RMM:  27    -0.232409565141E+04   -0.83999E-02   -0.21203E-03  4721   0.313E-02    0.452E-02
RMM:  28    -0.232410045740E+04   -0.48060E-02   -0.10980E-03  4225   0.249E-02    0.275E-02
RMM:  29    -0.232410236230E+04   -0.19049E-02   -0.59460E-04  4257   0.159E-02    0.176E-02
RMM:  30    -0.232410280699E+04   -0.44468E-03   -0.15088E-04  3987   0.107E-02    0.791E-03
RMM:  31    -0.232410295201E+04   -0.14503E-03   -0.44227E-05  3436   0.507E-03    0.502E-03
RMM:  32    -0.232410301358E+04   -0.61569E-04   -0.12683E-05  2956   0.419E-03    0.274E-03
RMM:  33    -0.232410305088E+04   -0.37299E-04   -0.85228E-06  2903   0.269E-03    0.155E-03
RMM:  34    -0.232410306573E+04   -0.14853E-04   -0.38588E-06  2719   0.236E-03    0.932E-04
RMM:  35    -0.232410307039E+04   -0.46574E-05   -0.23908E-06  2515   0.169E-03
   1 F= -.23455363E+04 E0= -.23455363E+04  d E =-.354361E-09  mag=     3.0000
       N       E                     dE             d eps       ncg     rms          rms(c)
DAV:   1    -0.232410222467E+04    0.84106E-03   -0.18189E+00  4560   0.615E-01    0.329E-01
RMM:   2    -0.232410410718E+04   -0.18825E-02   -0.19841E-02  5323   0.703E-02    0.375E-01
RMM:   3    -0.232410253910E+04    0.15681E-02   -0.38498E-03  4809   0.334E-02    0.185E-01
RMM:   4    -0.232410233607E+04    0.20303E-03   -0.12195E-03  4872   0.158E-02    0.118E-01
RMM:   5    -0.232410219331E+04    0.14276E-03   -0.35036E-04  3955   0.994E-03    0.558E-02
RMM:   6    -0.232410218318E+04    0.10126E-04   -0.99637E-05  2975   0.597E-03    0.463E-02
RMM:   7    -0.232410215671E+04    0.26469E-04   -0.24249E-05  2797   0.349E-03    0.153E-02
RMM:   8    -0.232410216001E+04   -0.32914E-05   -0.11252E-05  2689   0.224E-03
   2 F= -.23455348E+04 E0= -.23455348E+04  d E =-.334851E-09  mag=     3.0000
       N       E                     dE             d eps       ncg     rms          rms(c)
DAV:   1    -0.232409781939E+04    0.43373E-02   -0.72447E+00  4560   0.122E+00    0.659E-01
RMM:   2    -0.232410508205E+04   -0.72627E-02   -0.78083E-02  5643   0.138E-01    0.743E-01
RMM:   3    -0.232409898622E+04    0.60958E-02   -0.14669E-02  5476   0.650E-02    0.363E-01
RMM:   4    -0.232409843617E+04    0.55005E-03   -0.47768E-03  5598   0.314E-02    0.260E-01
RMM:   5    -0.232409795413E+04    0.48204E-03   -0.17526E-03  5194   0.211E-02    0.171E-01
RMM:   6    -0.232409763414E+04    0.31999E-03   -0.48022E-04  3464   0.103E-02    0.757E-02
RMM:   7    -0.232409761697E+04    0.17167E-04   -0.12351E-04  3022   0.611E-03    0.658E-02
RMM:   8    -0.232409757857E+04    0.38407E-04   -0.49411E-05  2911   0.433E-03    0.234E-02
RMM:   9    -0.232409757543E+04    0.31372E-05   -0.14187E-05  2847   0.270E-03
   3 F= -.23455313E+04 E0= -.23455313E+04  d E =-.421690E-09  mag=     3.0000
       N       E                     dE             d eps       ncg     rms          rms(c)
DAV:   1    -0.232408429070E+04    0.13288E-01   -0.37158E+00  4520   0.917E-01    0.439E-01
RMM:   2    -0.232408694750E+04   -0.26568E-02   -0.42389E-02  5125   0.120E-01    0.451E-01
RMM:   3    -0.232408495609E+04    0.19914E-02   -0.73130E-03  5145   0.490E-02    0.269E-01
RMM:   4    -0.232408400424E+04    0.95185E-03   -0.16818E-03  5166   0.208E-02    0.117E-01
RMM:   5    -0.232408410005E+04   -0.95804E-04   -0.74788E-04  4230   0.148E-02    0.171E-01
RMM:   6    -0.232408380552E+04    0.29453E-03   -0.32075E-04  3405   0.932E-03    0.489E-02
RMM:   7    -0.232408378350E+04    0.22019E-04   -0.43008E-05  3036   0.476E-03    0.186E-02
RMM:   8    -0.232408379883E+04   -0.15326E-04   -0.30181E-05  2969   0.386E-03    0.316E-02
RMM:   9    -0.232408378963E+04    0.91939E-05   -0.14910E-05  2860   0.356E-03
   4 F= -.23455170E+04 E0= -.23455170E+04  d E =-.333296E-09  mag=     3.0000
       N       E                     dE             d eps       ncg     rms          rms(c)
DAV:   1    -0.232408816225E+04   -0.43634E-02   -0.77632E+00  4480   0.135E+00    0.752E-01
RMM:   2    -0.232409212986E+04   -0.39676E-02   -0.13789E-01  6014   0.190E-01    0.616E-01
RMM:   3    -0.232408838010E+04    0.37498E-02   -0.13508E-02  5621   0.670E-02    0.407E-01
RMM:   4    -0.232408836976E+04    0.10344E-04   -0.78113E-03  5735   0.411E-02    0.449E-01
RMM:   5    -0.232408586840E+04    0.25014E-02   -0.41191E-03  5763   0.339E-02    0.206E-01
RMM:   6    -0.232408561761E+04    0.25079E-03   -0.12101E-03  4531   0.150E-02    0.165E-01
RMM:   7    -0.232408532278E+04    0.29483E-03   -0.33037E-04  3492   0.960E-03    0.640E-02
RMM:   8    -0.232408531424E+04    0.85417E-05   -0.13495E-04  3222   0.682E-03    0.580E-02
RMM:   9    -0.232408527781E+04    0.36426E-04   -0.85408E-05  3322   0.582E-03    0.283E-02
RMM:  10    -0.232408526776E+04    0.10054E-04   -0.15578E-05  2950   0.388E-03    0.122E-02
RMM:  11    -0.232408526713E+04    0.62550E-06   -0.20748E-05  2959   0.322E-03
   5 F= -.23455184E+04 E0= -.23455184E+04  d E =-.417466E-09  mag=     3.0000
       N       E                     dE             d eps       ncg     rms          rms(c)
DAV:   1    -0.232408724216E+04   -0.19744E-02   -0.38774E+00  4520   0.942E-01    0.512E-01
RMM:   2    -0.232409046385E+04   -0.32217E-02   -0.88955E-02  5849   0.155E-01    0.424E-01
RMM:   3    -0.232409075929E+04   -0.29544E-03   -0.83893E-03  5303   0.581E-02    0.528E-01
RMM:   4    -0.232408777209E+04    0.29872E-02   -0.38254E-03  5281   0.305E-02    0.215E-01
RMM:   5    -0.232408718604E+04    0.58605E-03   -0.17887E-03  4825   0.231E-02    0.131E-01
RMM:   6    -0.232408700613E+04    0.17991E-03   -0.56832E-04  3915   0.140E-02    0.703E-02
RMM:   7    -0.232408695221E+04    0.53918E-04   -0.12011E-04  3340   0.630E-03    0.294E-02
RMM:   8    -0.232408697725E+04   -0.25035E-04   -0.87819E-05  3239   0.562E-03    0.386E-02
RMM:   9    -0.232408696733E+04    0.99160E-05   -0.27228E-05  2954   0.453E-03
   6 F= -.23455194E+04 E0= -.23455194E+04  d E =-.429657E-09  mag=     3.0000
       N       E                     dE             d eps       ncg     rms          rms(c)
DAV:   1    -0.232409644364E+04   -0.94664E-02   -0.72825E+00  4480   0.134E+00    0.614E-01
RMM:   2    -0.232410390107E+04   -0.74574E-02   -0.96732E-02  5710   0.157E-01    0.673E-01
RMM:   3    -0.232410123296E+04    0.26681E-02   -0.12187E-02  5372   0.583E-02    0.540E-01
RMM:   4    -0.232409894255E+04    0.22904E-02   -0.50520E-03  5606   0.328E-02    0.309E-01
RMM:   5    -0.232409796766E+04    0.97488E-03   -0.22937E-03  5013   0.242E-02    0.159E-01
RMM:   6    -0.232409808749E+04   -0.11983E-03   -0.10945E-03  4429   0.180E-02    0.178E-01
RMM:   7    -0.232409766370E+04    0.42379E-03   -0.24319E-04  3472   0.897E-03    0.260E-02
RMM:   8    -0.232409766023E+04    0.34687E-05   -0.67040E-05  3165   0.472E-03
   7 F= -.23455316E+04 E0= -.23455316E+04  d E =-.324159E-09  mag=     3.0000
       N       E                     dE             d eps       ncg     rms          rms(c)
DAV:   1    -0.232407803523E+04    0.19628E-01   -0.66696E+00  4560   0.125E+00    0.433E-01
RMM:   2    -0.232408509019E+04   -0.70550E-02   -0.83120E-02  5045   0.160E-01    0.367E-01
RMM:   3    -0.232408552587E+04   -0.43569E-03   -0.93794E-03  5310   0.508E-02    0.453E-01
RMM:   4    -0.232408353152E+04    0.19944E-02   -0.22353E-03  5205   0.232E-02    0.168E-01
RMM:   5    -0.232408337964E+04    0.15188E-03   -0.10353E-03  4669   0.159E-02    0.116E-01
RMM:   6    -0.232408330867E+04    0.70972E-04   -0.55189E-04  4249   0.115E-02    0.815E-02
RMM:   7    -0.232408320616E+04    0.10251E-03   -0.10408E-04  3167   0.631E-03    0.245E-02
RMM:   8    -0.232408321163E+04   -0.54759E-05   -0.31282E-05  2893   0.414E-03
   8 F= -.23455166E+04 E0= -.23455166E+04  d E =-.726171E-09  mag=     3.0000
       N       E                     dE             d eps       ncg     rms          rms(c)
DAV:   1    -0.232410615104E+04   -0.22945E-01   -0.19805E+01  4540   0.187E+00    0.532E-01
RMM:   2    -0.232411902955E+04   -0.12879E-01   -0.15032E-01  4668   0.224E-01    0.428E-01
RMM:   3    -0.232411875488E+04    0.27467E-03   -0.14720E-02  5114   0.674E-02    0.340E-01
RMM:   4    -0.232411820752E+04    0.54736E-03   -0.43692E-03  5435   0.289E-02    0.298E-01
RMM:   5    -0.232411769453E+04    0.51299E-03   -0.14887E-03  5011   0.190E-02    0.205E-01
RMM:   6    -0.232411725357E+04    0.44097E-03   -0.73669E-04  4586   0.143E-02    0.820E-02
RMM:   7    -0.232411718477E+04    0.68797E-04   -0.12952E-04  3354   0.707E-03    0.394E-02
RMM:   8    -0.232411717765E+04    0.71184E-05   -0.48095E-05  2946   0.493E-03
   9 F= -.23455500E+04 E0= -.23455500E+04  d E =-.184800E-09  mag=     3.0000
       N       E                     dE             d eps       ncg     rms          rms(c)
DAV:   1    -0.232411239918E+04    0.47856E-02   -0.10108E+01  4600   0.137E+00    0.340E-01
RMM:   2    -0.232411998671E+04   -0.75875E-02   -0.79267E-02  4631   0.152E-01    0.236E-01
RMM:   3    -0.232412058174E+04   -0.59503E-03   -0.70227E-03  4947   0.468E-02    0.298E-01
RMM:   4    -0.232411947685E+04    0.11049E-02   -0.15138E-03  4893   0.192E-02    0.982E-02
RMM:   5    -0.232411955130E+04   -0.74444E-04   -0.52136E-04  4400   0.113E-02    0.129E-01
RMM:   6    -0.232411940314E+04    0.14816E-03   -0.23391E-04  3159   0.791E-03    0.537E-02
RMM:   7    -0.232411937995E+04    0.23188E-04   -0.62161E-05  3093   0.485E-03    0.195E-02
RMM:   8    -0.232411937864E+04    0.13144E-05   -0.11969E-05  2812   0.305E-03
  10 F= -.23455524E+04 E0= -.23455524E+04  d E =-.266181E-09  mag=     3.0000
       N       E                     dE             d eps       ncg     rms          rms(c)
DAV:   1    -0.232405769294E+04    0.61687E-01   -0.19590E+01  4500   0.210E+00    0.631E-01
RMM:   2    -0.232407569874E+04   -0.18006E-01   -0.19474E-01  4805   0.237E-01    0.626E-01
RMM:   3    -0.232407432345E+04    0.13753E-02   -0.22618E-02  5439   0.808E-02    0.488E-01
RMM:   4    -0.232407173316E+04    0.25903E-02   -0.54234E-03  5552   0.322E-02    0.187E-01
RMM:   5    -0.232407165932E+04    0.73831E-04   -0.16991E-03  5266   0.194E-02    0.193E-01
RMM:   6    -0.232407132340E+04    0.33592E-03   -0.61879E-04  3494   0.117E-02    0.115E-01
RMM:   7    -0.232407123538E+04    0.88026E-04   -0.24770E-04  3319   0.846E-03    0.703E-02
RMM:   8    -0.232407118734E+04    0.48039E-04   -0.71955E-05  2995   0.577E-03    0.268E-02
RMM:   9    -0.232407117886E+04    0.84807E-05   -0.15112E-05  2917   0.351E-03
  11 F= -.23455045E+04 E0= -.23455045E+04  d E =-.453353E-09  mag=     3.0000
       N       E                     dE             d eps       ncg     rms          rms(c)
DAV:   1    -0.232406631195E+04    0.48754E-02   -0.98689E+00  4580   0.137E+00    0.476E-01
RMM:   2    -0.232408087351E+04   -0.14562E-01   -0.12894E-01  5424   0.190E-01    0.601E-01
RMM:   3    -0.232407735160E+04    0.35219E-02   -0.13726E-02  5554   0.583E-02    0.330E-01
RMM:   4    -0.232407606003E+04    0.12916E-02   -0.27157E-03  5047   0.236E-02    0.129E-01
RMM:   5    -0.232407627967E+04   -0.21964E-03   -0.11113E-03  4958   0.161E-02    0.211E-01
RMM:   6    -0.232407587458E+04    0.40509E-03   -0.44481E-04  3287   0.103E-02    0.794E-02
RMM:   7    -0.232407581194E+04    0.62641E-04   -0.13380E-04  3367   0.698E-03    0.297E-02
RMM:   8    -0.232407580724E+04    0.46994E-05   -0.27110E-05  2893   0.412E-03
  12 F= -.23455095E+04 E0= -.23455095E+04  d E =-.223798E-09  mag=     3.0000
       N       E                     dE             d eps       ncg     rms          rms(c)
DAV:   1    -0.232410638227E+04   -0.30570E-01   -0.19536E+01  4500   0.200E+00    0.610E-01
RMM:   2    -0.232413104686E+04   -0.24665E-01   -0.22099E-01  5005   0.227E-01    0.703E-01
RMM:   3    -0.232412683890E+04    0.42080E-02   -0.25171E-02  5851   0.811E-02    0.456E-01
RMM:   4    -0.232412431350E+04    0.25254E-02   -0.33204E-03  4953   0.246E-02    0.173E-01
RMM:   5    -0.232412469217E+04   -0.37867E-03   -0.16773E-03  4621   0.183E-02    0.254E-01
RMM:   6    -0.232412405660E+04    0.63557E-03   -0.80181E-04  4273   0.134E-02    0.924E-02
RMM:   7    -0.232412397255E+04    0.84056E-04   -0.14171E-04  3279   0.650E-03    0.385E-02
RMM:   8    -0.232412396373E+04    0.88152E-05   -0.39731E-05  2878   0.417E-03
  13 F= -.23455565E+04 E0= -.23455565E+04  d E =-.657936E-09  mag=     3.0000
       N       E                     dE             d eps       ncg     rms          rms(c)
DAV:   1    -0.232409195079E+04    0.32022E-01   -0.99121E+00  4520   0.164E+00    0.589E-01
RMM:   2    -0.232410549569E+04   -0.13545E-01   -0.16073E-01  4747   0.203E-01    0.396E-01
RMM:   3    -0.232410737768E+04   -0.18820E-02   -0.18296E-02  5202   0.939E-02    0.538E-01
RMM:   4    -0.232410371954E+04    0.36581E-02   -0.35799E-03  5151   0.289E-02    0.157E-01
RMM:   5    -0.232410408612E+04   -0.36658E-03   -0.12926E-03  4672   0.169E-02    0.243E-01
RMM:   6    -0.232410351177E+04    0.57435E-03   -0.83005E-04  4345   0.136E-02    0.885E-02
RMM:   7    -0.232410346095E+04    0.50817E-04   -0.19739E-04  3146   0.748E-03    0.553E-02
RMM:   8    -0.232410342450E+04    0.36451E-04   -0.52678E-05  2894   0.463E-03    0.167E-02
RMM:   9    -0.232410342284E+04    0.16656E-05   -0.29579E-05  2847   0.288E-03
  14 F= -.23455362E+04 E0= -.23455362E+04  d E =-.454630E-09  mag=     3.0000
       N       E                     dE             d eps       ncg     rms          rms(c)
DAV:   1    -0.232407937876E+04    0.24046E-01   -0.20478E+01  4480   0.235E+00    0.859E-01
RMM:   2    -0.232408604484E+04   -0.66661E-02   -0.17168E-01  4428   0.217E-01    0.417E-01
RMM:   3    -0.232408678345E+04   -0.73861E-03   -0.15929E-02  4270   0.999E-02    0.511E-01
RMM:   4    -0.232408520139E+04    0.15821E-02   -0.62828E-03  4953   0.370E-02    0.327E-01
RMM:   5    -0.232408459726E+04    0.60414E-03   -0.17577E-03  4589   0.255E-02    0.206E-01
RMM:   6    -0.232408422714E+04    0.37011E-03   -0.11575E-03  4607   0.162E-02    0.988E-02
RMM:   7    -0.232408409098E+04    0.13616E-03   -0.15891E-04  3379   0.760E-03    0.261E-02
RMM:   8    -0.232408408902E+04    0.19605E-05   -0.32396E-05  2921   0.396E-03
  15 F= -.23455177E+04 E0= -.23455177E+04  d E =-.286987E-09  mag=     3.0000
       N       E                     dE             d eps       ncg     rms          rms(c)
DAV:   1    -0.232406690197E+04    0.17189E-01   -0.10276E+01  4480   0.165E+00    0.512E-01
RMM:   2    -0.232407065739E+04   -0.37554E-02   -0.80909E-02  4526   0.156E-01    0.354E-01
RMM:   3    -0.232407251158E+04   -0.18542E-02   -0.10486E-02  4751   0.731E-02    0.574E-01
RMM:   4    -0.232406902454E+04    0.34870E-02   -0.41911E-03  4891   0.314E-02    0.161E-01
RMM:   5    -0.232406873268E+04    0.29187E-03   -0.10840E-03  4580   0.185E-02    0.716E-02
RMM:   6    -0.232406876142E+04   -0.28743E-04   -0.35536E-04  3636   0.102E-02    0.803E-02
RMM:   7    -0.232406866725E+04    0.94169E-04   -0.69584E-05  2982   0.566E-03    0.259E-02
RMM:   8    -0.232406866481E+04    0.24425E-05   -0.24879E-05  2926   0.323E-03
  16 F= -.23455013E+04 E0= -.23455013E+04  d E =-.365957E-09  mag=     3.0000
       N       E                     dE             d eps       ncg     rms          rms(c)
DAV:   1    -0.232410207922E+04   -0.33412E-01   -0.20036E+01  4480   0.219E+00    0.878E-01
RMM:   2    -0.232411700005E+04   -0.14921E-01   -0.24735E-01  4565   0.258E-01    0.562E-01
RMM:   3    -0.232412472023E+04   -0.77202E-02   -0.35510E-02  5033   0.143E-01    0.101E+00
RMM:   4    -0.232411300121E+04    0.11719E-01   -0.12469E-02  5609   0.561E-02    0.262E-01
RMM:   5    -0.232411247740E+04    0.52381E-03   -0.27679E-03  5229   0.293E-02    0.214E-01
RMM:   6    -0.232411203037E+04    0.44704E-03   -0.12428E-03  4764   0.168E-02    0.112E-01
RMM:   7    -0.232411189023E+04    0.14014E-03   -0.27761E-04  3855   0.978E-03    0.457E-02
RMM:   8    -0.232411190192E+04   -0.11693E-04   -0.90385E-05  3214   0.615E-03    0.410E-02
RMM:   9    -0.232411190299E+04   -0.10706E-05   -0.54438E-05  3015   0.549E-03
  17 F= -.23455457E+04 E0= -.23455457E+04  d E =-.363858E-09  mag=     3.0000
       N       E                     dE             d eps       ncg     rms          rms(c)
DAV:   1    -0.232407160428E+04    0.40298E-01   -0.99061E+00  4480   0.161E+00    0.651E-01
RMM:   2    -0.232407820009E+04   -0.65958E-02   -0.13959E-01  4791   0.173E-01    0.455E-01
RMM:   3    -0.232408102793E+04   -0.28278E-02   -0.19311E-02  5330   0.891E-02    0.698E-01
RMM:   4    -0.232407558900E+04    0.54389E-02   -0.78775E-03  5294   0.417E-02    0.274E-01
RMM:   5    -0.232407517725E+04    0.41175E-03   -0.27332E-03  4833   0.272E-02    0.213E-01
RMM:   6    -0.232407456311E+04    0.61414E-03   -0.61729E-04  4020   0.125E-02    0.577E-02
RMM:   7    -0.232407453781E+04    0.25298E-04   -0.11764E-04  3095   0.675E-03    0.428E-02
RMM:   8    -0.232407452668E+04    0.11126E-04   -0.47814E-05  2971   0.469E-03    0.327E-02
RMM:   9    -0.232407451478E+04    0.11901E-04   -0.25023E-05  2983   0.397E-03    0.116E-02
RMM:  10    -0.232407451279E+04    0.19886E-05   -0.93962E-06  2895   0.300E-03
  18 F= -.23455079E+04 E0= -.23455079E+04  d E =-.542939E-09  mag=     3.0000
       N       E                     dE             d eps       ncg     rms          rms(c)
DAV:   1    -0.232408872322E+04   -0.14208E-01   -0.20032E+01  4480   0.209E+00    0.909E-01
RMM:   2    -0.232409394874E+04   -0.52255E-02   -0.20145E-01  4539   0.217E-01    0.546E-01
RMM:   3    -0.232409814726E+04   -0.41985E-02   -0.29224E-02  4985   0.122E-01    0.822E-01
RMM:   4    -0.232409075097E+04    0.73963E-02   -0.12184E-02  5671   0.518E-02    0.359E-01
RMM:   5    -0.232409027484E+04    0.47612E-03   -0.37986E-03  4997   0.295E-02    0.284E-01
RMM:   6    -0.232408936944E+04    0.90540E-03   -0.11570E-03  4419   0.162E-02    0.901E-02
RMM:   7    -0.232408935945E+04    0.99937E-05   -0.25992E-04  3511   0.972E-03    0.796E-02
RMM:   8    -0.232408929270E+04    0.66746E-04   -0.84130E-05  2978   0.598E-03    0.299E-02
RMM:   9    -0.232408930572E+04   -0.13020E-04   -0.42503E-05  3032   0.374E-03    0.139E-02
RMM:  10    -0.232408930938E+04   -0.36591E-05   -0.10359E-05  2851   0.306E-03
  19 F= -.23455223E+04 E0= -.23455223E+04  d E =-.225859E-09  mag=     3.0000
       N       E                     dE             d eps       ncg     rms          rms(c)
DAV:   1    -0.232408161797E+04    0.76878E-02   -0.47078E+00  4480   0.109E+00    0.462E-01
RMM:   2    -0.232408341190E+04   -0.17939E-02   -0.40745E-02  4392   0.104E-01    0.283E-01
RMM:   3    -0.232408423675E+04   -0.82486E-03   -0.65953E-03  4690   0.551E-02    0.362E-01
RMM:   4    -0.232408294389E+04    0.12929E-02   -0.30283E-03  5051   0.263E-02    0.191E-01
RMM:   5    -0.232408268691E+04    0.25699E-03   -0.75139E-04  3958   0.142E-02    0.111E-01
RMM:   6    -0.232408256338E+04    0.12353E-03   -0.19801E-04  3143   0.727E-03    0.531E-02
RMM:   7    -0.232408254031E+04    0.23070E-04   -0.58916E-05  2996   0.502E-03    0.354E-02
RMM:   8    -0.232408253152E+04    0.87865E-05   -0.25166E-05  2848   0.355E-03
  20 F= -.23455154E+04 E0= -.23455154E+04  d E =-.406825E-09  mag=     3.0000
       N       E                     dE             d eps       ncg     rms          rms(c)
DAV:   1    -0.232410924598E+04   -0.26706E-01   -0.10598E+00  4820   0.325E-01    0.503E-01
RMM:   2    -0.232410848801E+04    0.75797E-03   -0.23805E-02  4557   0.586E-02    0.277E-01
RMM:   3    -0.232410993812E+04   -0.14501E-02   -0.44311E-03  4479   0.437E-02    0.381E-01
RMM:   4    -0.232410862983E+04    0.13083E-02   -0.19320E-03  4712   0.217E-02    0.200E-01
RMM:   5    -0.232410860632E+04    0.23510E-04   -0.90697E-04  4175   0.138E-02    0.161E-01
RMM:   6    -0.232410836556E+04    0.24076E-03   -0.40332E-04  3490   0.100E-02    0.568E-02
RMM:   7    -0.232410832347E+04    0.42089E-04   -0.58794E-05  2985   0.546E-03    0.149E-02
RMM:   8    -0.232410832232E+04    0.11478E-05   -0.93343E-06  2768   0.265E-03
  21 F= -.23455418E+04 E0= -.23455418E+04  d E =-.313609E-09  mag=     3.0000
       N       E                     dE             d eps       ncg     rms          rms(c)
DAV:   1    -0.232410502120E+04    0.33023E-02   -0.53051E-01  4560   0.239E-01    0.274E-01
RMM:   2    -0.232410544197E+04   -0.42077E-03   -0.77271E-03  4143   0.358E-02    0.169E-01
RMM:   3    -0.232410608658E+04   -0.64460E-03   -0.15131E-03  4094   0.256E-02    0.235E-01
RMM:   4    -0.232410558526E+04    0.50132E-03   -0.69894E-04  4044   0.140E-02    0.106E-01
RMM:   5    -0.232410559676E+04   -0.11503E-04   -0.30846E-04  3362   0.889E-03    0.993E-02
RMM:   6    -0.232410552709E+04    0.69673E-04   -0.13594E-04  2933   0.623E-03    0.439E-02
RMM:   7    -0.232410550861E+04    0.18480E-04   -0.31669E-05  2806   0.397E-03    0.190E-02
RMM:   8    -0.232410550420E+04    0.44090E-05   -0.65423E-06  2562   0.222E-03
  22 F= -.23455386E+04 E0= -.23455386E+04  d E =-.421188E-09  mag=     3.0000
       N       E                     dE             d eps       ncg     rms          rms(c)
DAV:   1    -0.232409687762E+04    0.86310E-02   -0.10783E+00  4500   0.299E-01    0.302E-01
RMM:   2    -0.232409815763E+04   -0.12800E-02   -0.73626E-03  4001   0.362E-02    0.186E-01
RMM:   3    -0.232409893346E+04   -0.77583E-03   -0.12325E-03  4044   0.226E-02    0.173E-01
RMM:   4    -0.232409874110E+04    0.19236E-03   -0.69251E-04  4024   0.126E-02    0.847E-02
RMM:   5    -0.232409866219E+04    0.78910E-04   -0.12766E-04  3259   0.691E-03    0.259E-02
RMM:   6    -0.232409866017E+04    0.20281E-05   -0.31795E-05  2836   0.387E-03
  23 F= -.23455319E+04 E0= -.23455319E+04  d E =-.285960E-09  mag=     3.0000
       N       E                     dE             d eps       ncg     rms          rms(c)
DAV:   1    -0.232407006622E+04    0.28596E-01   -0.55318E-01  4640   0.234E-01    0.327E-01
RMM:   2    -0.232407010345E+04   -0.37222E-04   -0.11685E-02  4376   0.388E-02    0.195E-01
RMM:   3    -0.232407071675E+04   -0.61331E-03   -0.21361E-03  4276   0.282E-02    0.259E-01
RMM:   4    -0.232407012176E+04    0.59500E-03   -0.97983E-04  4280   0.156E-02    0.139E-01
RMM:   5    -0.232407010451E+04    0.17248E-04   -0.47431E-04  3611   0.105E-02    0.114E-01
RMM:   6    -0.232406999151E+04    0.11300E-03   -0.19407E-04  3063   0.721E-03    0.412E-02
RMM:   7    -0.232406997043E+04    0.21082E-04   -0.30145E-05  2807   0.396E-03    0.932E-03
RMM:   8    -0.232406997002E+04    0.41349E-06   -0.48980E-06  2536   0.193E-03
  24 F= -.23455034E+04 E0= -.23455034E+04  d E =-.370590E-09  mag=     3.0000
       N       E                     dE             d eps       ncg     rms          rms(c)
DAV:   1    -0.232411042269E+04   -0.40452E-01   -0.10718E+00  4960   0.337E-01    0.607E-01
RMM:   2    -0.232410808159E+04    0.23411E-02   -0.36127E-02  4632   0.691E-02    0.327E-01
RMM:   3    -0.232410971972E+04   -0.16381E-02   -0.61140E-03  4649   0.528E-02    0.465E-01
RMM:   4    -0.232410766979E+04    0.20499E-02   -0.26130E-03  4979   0.253E-02    0.232E-01
RMM:   5    -0.232410756546E+04    0.10433E-03   -0.12488E-03  4608   0.162E-02    0.183E-01
RMM:   6    -0.232410727399E+04    0.29146E-03   -0.60366E-04  3794   0.117E-02    0.783E-02
RMM:   7    -0.232410720317E+04    0.70824E-04   -0.11218E-04  3135   0.683E-03    0.252E-02
RMM:   8    -0.232410719841E+04    0.47599E-05   -0.20905E-05  2774   0.342E-03
  25 F= -.23455401E+04 E0= -.23455401E+04  d E =-.343893E-09  mag=     3.0000
