       N       E                     dE             d eps       ncg     rms          rms(c)
DAV:   1     0.131943590918E+05    0.13194E+05   -0.84831E+05  4568   0.144E+03
DAV:   2    -0.100787446392E+04   -0.14202E+05   -0.13580E+05  4968   0.332E+02
DAV:   3    -0.248759745473E+04   -0.14797E+04   -0.14606E+04  5520   0.115E+02
DAV:   4    -0.253461106855E+04   -0.47014E+02   -0.46749E+02  6816   0.297E+01
DAV:   5    -0.253541867008E+04   -0.80760E+00   -0.80561E+00  6160   0.338E+00    0.171E+02
RMM:   6    -0.150018448215E+04    0.10352E+04   -0.19698E+03  4499   0.384E+01    0.739E+01
RMM:   7    -0.168641202196E+04   -0.18623E+03   -0.31442E+02  5432   0.153E+01    0.590E+01
RMM:   8    -0.171949054955E+04   -0.33079E+02   -0.88493E+01  5383   0.899E+00    0.469E+01
RMM:   9    -0.176693277114E+04   -0.47442E+02   -0.51079E+01  5222   0.651E+00    0.377E+01
RMM:  10    -0.189895246409E+04   -0.13202E+03   -0.65431E+01  5111   0.785E+00    0.257E+01
RMM:  11    -0.198916202645E+04   -0.90210E+02   -0.35073E+01  4853   0.552E+00    0.267E+01
RMM:  12    -0.204714941748E+04   -0.57987E+02   -0.22910E+01  5253   0.394E+00    0.171E+01
RMM:  13    -0.215422074647E+04   -0.10707E+03   -0.58929E+01  4864   0.582E+00    0.147E+01
RMM:  14    -0.220974675374E+04   -0.55526E+02   -0.29825E+01  5298   0.441E+00    0.127E+01
RMM:  15    -0.227971582867E+04   -0.69969E+02   -0.52935E+01  4542   0.522E+00    0.942E+00
RMM:  16    -0.231230484489E+04   -0.32589E+02   -0.29781E+01  4724   0.407E+00    0.593E+00
RMM:  17    -0.232175151297E+04   -0.94467E+01   -0.10712E+01  5119   0.237E+00    0.328E+00
RMM:  18    -0.232480563138E+04   -0.30541E+01   -0.25951E+00  5153   0.107E+00    0.174E+00
RMM:  19    -0.232672786348E+04   -0.19222E+01   -0.10750E+00  4923   0.696E-01    0.836E-01
RMM:  20    -0.232710949860E+04   -0.38164E+00   -0.32673E-01  4948   0.396E-01    0.500E-01
RMM:  21    -0.232726130348E+04   -0.15180E+00   -0.14090E-01  4811   0.208E-01    0.354E-01
RMM:  22    -0.232731387999E+04   -0.52577E-01   -0.37662E-02  4754   0.132E-01    0.253E-01
RMM:  23    -0.232734418474E+04   -0.30305E-01   -0.17207E-02  4592   0.893E-02    0.166E-01
RMM:  24    -0.232735877856E+04   -0.14594E-01   -0.73932E-03  4723   0.689E-02    0.945E-02
RMM:  25    -0.232736196354E+04   -0.31850E-02   -0.12593E-03  4660   0.339E-02    0.878E-02
RMM:  26    -0.232736434517E+04   -0.23816E-02   -0.44197E-04  4167   0.149E-02    0.702E-02
RMM:  27    -0.232737058688E+04   -0.62417E-02   -0.12200E-03  4463   0.256E-02    0.422E-02
RMM:  28    -0.232737453730E+04   -0.39504E-02   -0.10135E-03  4151   0.237E-02    0.234E-02
RMM:  29    -0.232737572017E+04   -0.11829E-02   -0.40888E-04  4218   0.178E-02    0.170E-02
RMM:  30    -0.232737610048E+04   -0.38031E-03   -0.14638E-04  3946   0.926E-03    0.946E-03
RMM:  31    -0.232737627481E+04   -0.17433E-03   -0.39302E-05  3432   0.634E-03    0.637E-03
RMM:  32    -0.232737636488E+04   -0.90072E-04   -0.20831E-05  3027   0.380E-03    0.334E-03
RMM:  33    -0.232737639456E+04   -0.29672E-04   -0.67564E-06  2864   0.323E-03    0.202E-03
RMM:  34    -0.232737641294E+04   -0.18380E-04   -0.52901E-06  2673   0.228E-03    0.147E-03
RMM:  35    -0.232737641798E+04   -0.50420E-05   -0.25773E-06  2497   0.205E-03
   1 F= -.23488206E+04 E0= -.23488149E+04  d E =-.234882E+04  mag=     3.8269
       N       E                     dE             d eps       ncg     rms          rms(c)
DAV:   1    -0.232726736099E+04    0.10905E+00   -0.10350E+02  4816   0.729E+00    0.272E+00
RMM:   2    -0.232838220872E+04   -0.11148E+01   -0.10076E+01  6563   0.189E+00    0.447E+00
RMM:   3    -0.232816917049E+04    0.21304E+00   -0.68583E-01  6513   0.522E-01    0.286E+00
RMM:   4    -0.232812815517E+04    0.41015E-01   -0.89056E-02  6249   0.143E-01    0.129E+00
RMM:   5    -0.232812520004E+04    0.29551E-02   -0.32523E-02  6228   0.913E-02    0.106E+00
RMM:   6    -0.232812252632E+04    0.26737E-02   -0.15491E-02  5994   0.680E-02    0.119E+00
RMM:   7    -0.232811935613E+04    0.31702E-02   -0.17301E-02  5901   0.623E-02    0.866E-01
RMM:   8    -0.232811218478E+04    0.71713E-02   -0.10363E-02  6067   0.505E-02    0.238E-01
RMM:   9    -0.232811248869E+04   -0.30391E-03   -0.28658E-03  5116   0.285E-02    0.293E-01
RMM:  10    -0.232811259549E+04   -0.10680E-03   -0.56020E-04  4717   0.173E-02    0.171E-01
RMM:  11    -0.232811266094E+04   -0.65445E-04   -0.28085E-04  4319   0.959E-03    0.108E-01
RMM:  12    -0.232811269241E+04   -0.31472E-04   -0.12310E-04  3622   0.750E-03    0.471E-02
RMM:  13    -0.232811274622E+04   -0.53813E-04   -0.44072E-05  3156   0.527E-03    0.267E-02
RMM:  14    -0.232811278126E+04   -0.35034E-04   -0.15965E-05  2939   0.430E-03    0.224E-02
RMM:  15    -0.232811281625E+04   -0.34988E-04   -0.19513E-05  2964   0.388E-03    0.143E-02
RMM:  16    -0.232811284262E+04   -0.26370E-04   -0.14014E-05  2939   0.383E-03    0.810E-03
RMM:  17    -0.232811284909E+04   -0.64748E-05   -0.42563E-06  2815   0.290E-03
   2 F= -.23495758E+04 E0= -.23495669E+04  d E =-.755185E+00  mag=     3.6751
       N       E                     dE             d eps       ncg     rms          rms(c)
DAV:   1    -0.232799376879E+04    0.11907E+00   -0.35808E+01  4640   0.437E+00    0.140E+00
RMM:   2    -0.232829812369E+04   -0.30435E+00   -0.29896E+00  6551   0.109E+00    0.187E+00
RMM:   3    -0.232828170776E+04    0.16416E-01   -0.23007E-01  6560   0.310E-01    0.162E+00
RMM:   4    -0.232826915375E+04    0.12554E-01   -0.27694E-02  6240   0.853E-02    0.762E-01
RMM:   5    -0.232826761970E+04    0.15341E-02   -0.73487E-03  6016   0.447E-02    0.654E-01
RMM:   6    -0.232826555690E+04    0.20628E-02   -0.68136E-03  5760   0.460E-02    0.553E-01
RMM:   7    -0.232826411732E+04    0.14396E-02   -0.55918E-03  5754   0.399E-02    0.305E-01
RMM:   8    -0.232826333482E+04    0.78251E-03   -0.17314E-03  5465   0.210E-02    0.188E-01
RMM:   9    -0.232826326356E+04    0.71263E-04   -0.29025E-04  4068   0.105E-02    0.102E-01
RMM:  10    -0.232826328647E+04   -0.22915E-04   -0.13118E-04  3546   0.791E-03    0.371E-02
RMM:  11    -0.232826332287E+04   -0.36396E-04   -0.48542E-05  3173   0.529E-03    0.170E-02
RMM:  12    -0.232826334656E+04   -0.23689E-04   -0.17213E-05  2958   0.435E-03    0.933E-03
RMM:  13    -0.232826335789E+04   -0.11339E-04   -0.78543E-06  2893   0.328E-03    0.781E-03
RMM:  14    -0.232826336567E+04   -0.77752E-05   -0.58524E-06  2841   0.279E-03
   3 F= -.23497287E+04 E0= -.23497211E+04  d E =-.908130E+00  mag=     3.7308
       N       E                     dE             d eps       ncg     rms          rms(c)
DAV:   1    -0.232794708618E+04    0.31627E+00   -0.62328E+01  4584   0.648E+00    0.227E+00
RMM:   2    -0.232868533520E+04   -0.73825E+00   -0.78212E+00  6520   0.170E+00    0.148E+00
RMM:   3    -0.232872632696E+04   -0.40992E-01   -0.66714E-01  6265   0.518E-01    0.199E+00
RMM:   4    -0.232867716383E+04    0.49163E-01   -0.73609E-02  6644   0.140E-01    0.732E-01
RMM:   5    -0.232867771187E+04   -0.54804E-03   -0.23529E-02  6160   0.716E-02    0.883E-01
RMM:   6    -0.232867017863E+04    0.75332E-02   -0.20689E-02  6163   0.814E-02    0.532E-01
RMM:   7    -0.232866938060E+04    0.79803E-03   -0.50103E-03  6090   0.408E-02    0.333E-01
RMM:   8    -0.232866885300E+04    0.52760E-03   -0.20822E-03  5545   0.216E-02    0.285E-01
RMM:   9    -0.232866837292E+04    0.48009E-03   -0.75858E-04  5056   0.155E-02    0.874E-02
RMM:  10    -0.232866841157E+04   -0.38654E-04   -0.28728E-04  4432   0.110E-02    0.707E-02
RMM:  11    -0.232866841507E+04   -0.34947E-05   -0.72027E-05  3376   0.622E-03
   4 F= -.23501407E+04 E0= -.23501355E+04  d E =-.412042E+00  mag=     3.8160
       N       E                     dE             d eps       ncg     rms          rms(c)
DAV:   1    -0.232855224742E+04    0.11616E+00   -0.14402E+01  4632   0.312E+00    0.109E+00
RMM:   2    -0.232871827514E+04   -0.16603E+00   -0.17467E+00  6527   0.813E-01    0.817E-01
RMM:   3    -0.232873082861E+04   -0.12553E-01   -0.16108E-01  6263   0.252E-01    0.109E+00
RMM:   4    -0.232871665815E+04    0.14170E-01   -0.17514E-02  6370   0.697E-02    0.349E-01
RMM:   5    -0.232871687759E+04   -0.21944E-03   -0.54117E-03  5993   0.360E-02    0.424E-01
RMM:   6    -0.232871481513E+04    0.20625E-02   -0.46686E-03  5970   0.391E-02    0.185E-01
RMM:   7    -0.232871479490E+04    0.20222E-04   -0.11198E-03  5671   0.200E-02    0.149E-01
RMM:   8    -0.232871469064E+04    0.10426E-03   -0.40045E-04  3735   0.106E-02    0.120E-01
RMM:   9    -0.232871460619E+04    0.84444E-04   -0.14727E-04  3705   0.778E-03    0.431E-02
RMM:  10    -0.232871461863E+04   -0.12431E-04   -0.78736E-05  3271   0.628E-03    0.266E-02
RMM:  11    -0.232871462803E+04   -0.94015E-05   -0.18135E-05  2970   0.445E-03
   5 F= -.23501904E+04 E0= -.23501865E+04  d E =-.461729E+00  mag=     3.8742
       N       E                     dE             d eps       ncg     rms          rms(c)
DAV:   1    -0.232794592892E+04    0.76869E+00   -0.82083E+01  4528   0.757E+00    0.260E+00
RMM:   2    -0.232891533592E+04   -0.96941E+00   -0.10256E+01  6504   0.196E+00    0.158E+00
RMM:   3    -0.232899336539E+04   -0.78029E-01   -0.95297E-01  6221   0.606E-01    0.219E+00
RMM:   4    -0.232893168275E+04    0.61683E-01   -0.97390E-02  6714   0.161E-01    0.767E-01
RMM:   5    -0.232892749772E+04    0.41850E-02   -0.23200E-02  6080   0.737E-02    0.703E-01
RMM:   6    -0.232892441604E+04    0.30817E-02   -0.21649E-02  6239   0.801E-02    0.576E-01
RMM:   7    -0.232892102825E+04    0.33878E-02   -0.72517E-03  6202   0.492E-02    0.183E-01
RMM:   8    -0.232892059150E+04    0.43674E-03   -0.82572E-04  5216   0.197E-02    0.949E-02
RMM:   9    -0.232892053199E+04    0.59511E-04   -0.52827E-04  4466   0.153E-02    0.915E-02
RMM:  10    -0.232892044722E+04    0.84772E-04   -0.18497E-04  4022   0.813E-03    0.465E-02
RMM:  11    -0.232892042134E+04    0.25877E-04   -0.75517E-05  3512   0.667E-03    0.156E-02
RMM:  12    -0.232892041827E+04    0.30751E-05   -0.23788E-05  3005   0.503E-03
   6 F= -.23504023E+04 E0= -.23504003E+04  d E =-.211889E+00  mag=     3.9408
       N       E                     dE             d eps       ncg     rms          rms(c)
DAV:   1    -0.232887045332E+04    0.49968E-01   -0.50159E+00  4624   0.189E+00    0.635E-01
RMM:   2    -0.232892760898E+04   -0.57156E-01   -0.59633E-01  6500   0.485E-01    0.461E-01
RMM:   3    -0.232893209977E+04   -0.44908E-02   -0.54220E-02  6189   0.149E-01    0.589E-01
RMM:   4    -0.232892773318E+04    0.43666E-02   -0.58293E-03  6132   0.409E-02    0.181E-01
RMM:   5    -0.232892760549E+04    0.12769E-03   -0.14623E-03  5418   0.195E-02    0.190E-01
RMM:   6    -0.232892724327E+04    0.36221E-03   -0.12630E-03  5604   0.208E-02    0.107E-01
RMM:   7    -0.232892712329E+04    0.11998E-03   -0.31863E-04  5209   0.117E-02    0.319E-02
RMM:   8    -0.232892711179E+04    0.11497E-04   -0.36051E-05  3273   0.523E-03    0.231E-02
RMM:   9    -0.232892711175E+04    0.47628E-07   -0.26617E-05  2929   0.424E-03
   7 F= -.23504105E+04 E0= -.23504090E+04  d E =-.220088E+00  mag=     3.9574
       N       E                     dE             d eps       ncg     rms          rms(c)
DAV:   1    -0.232869651647E+04    0.23060E+00   -0.40656E+01  4528   0.547E+00    0.169E+00
RMM:   2    -0.232900989524E+04   -0.31338E+00   -0.32987E+00  6440   0.126E+00    0.106E+00
RMM:   3    -0.232903297394E+04   -0.23079E-01   -0.28807E-01  6176   0.390E-01    0.142E+00
RMM:   4    -0.232900664559E+04    0.26328E-01   -0.33508E-02  6533   0.108E-01    0.498E-01
RMM:   5    -0.232900650432E+04    0.14127E-03   -0.12003E-02  5915   0.572E-02    0.559E-01
RMM:   6    -0.232900278111E+04    0.37232E-02   -0.83366E-03  6086   0.558E-02    0.226E-01
RMM:   7    -0.232900222580E+04    0.55531E-03   -0.14378E-03  5830   0.268E-02    0.892E-02
RMM:   8    -0.232900218768E+04    0.38121E-04   -0.42964E-04  4921   0.121E-02    0.913E-02
RMM:   9    -0.232900207238E+04    0.11530E-03   -0.17510E-04  3525   0.893E-03    0.431E-02
RMM:  10    -0.232900201160E+04    0.60780E-04   -0.93377E-05  3820   0.719E-03    0.177E-02
RMM:  11    -0.232900199172E+04    0.19886E-04   -0.40721E-05  3418   0.587E-03    0.926E-03
RMM:  12    -0.232900198502E+04    0.66934E-05   -0.16877E-05  2958   0.477E-03
   8 F= -.23504872E+04 E0= -.23504860E+04  d E =-.766971E-01  mag=     3.9719
       N       E                     dE             d eps       ncg     rms          rms(c)
DAV:   1    -0.232900158824E+04    0.40347E-03   -0.91449E-02  5216   0.259E-01    0.808E-02
RMM:   2    -0.232900228928E+04   -0.70103E-03   -0.72710E-03  6439   0.598E-02    0.539E-02
RMM:   3    -0.232900233685E+04   -0.47567E-04   -0.59415E-04  3581   0.177E-02    0.706E-02
RMM:   4    -0.232900227462E+04    0.62227E-04   -0.74526E-05  3084   0.646E-03    0.237E-02
RMM:   5    -0.232900227713E+04   -0.25083E-05   -0.29321E-05  2969   0.396E-03
   9 F= -.23504874E+04 E0= -.23504862E+04  d E =-.769064E-01  mag=     3.9726
       N       E                     dE             d eps       ncg     rms          rms(c)
DAV:   1    -0.232887398026E+04    0.12829E+00   -0.20431E+01  4560   0.403E+00    0.117E+00
RMM:   2    -0.232905774251E+04   -0.18376E+00   -0.19381E+00  6563   0.921E-01    0.743E-01
RMM:   3    -0.232906820916E+04   -0.10467E-01   -0.16316E-01  6261   0.275E-01    0.882E-01
RMM:   4    -0.232905949687E+04    0.87123E-02   -0.19054E-02  6445   0.723E-02    0.337E-01
RMM:   5    -0.232905810999E+04    0.13869E-02   -0.38102E-03  5160   0.369E-02    0.193E-01
RMM:   6    -0.232905873207E+04   -0.62208E-03   -0.24565E-03  5632   0.319E-02    0.298E-01
RMM:   7    -0.232905775990E+04    0.97216E-03   -0.87419E-04  5403   0.183E-02    0.578E-02
RMM:   8    -0.232905774351E+04    0.16398E-04   -0.15861E-04  3717   0.859E-03    0.456E-02
RMM:   9    -0.232905773233E+04    0.11176E-04   -0.67760E-05  3045   0.589E-03    0.351E-02
RMM:  10    -0.232905771651E+04    0.15817E-04   -0.23207E-05  3008   0.433E-03    0.106E-02
RMM:  11    -0.232905771483E+04    0.16802E-05   -0.10670E-05  2937   0.328E-03
  10 F= -.23505433E+04 E0= -.23505420E+04  d E =-.558463E-01  mag=     3.9710
       N       E                     dE             d eps       ncg     rms          rms(c)
DAV:   1    -0.232904446173E+04    0.13255E-01   -0.18512E+00  4608   0.122E+00    0.351E-01
RMM:   2    -0.232906083824E+04   -0.16377E-01   -0.17313E-01  6559   0.275E-01    0.216E-01
RMM:   3    -0.232906182913E+04   -0.99089E-03   -0.14514E-02  6097   0.815E-02    0.253E-01
RMM:   4    -0.232906110072E+04    0.72841E-03   -0.17001E-03  5189   0.218E-02    0.103E-01
RMM:   5    -0.232906105359E+04    0.47126E-04   -0.40228E-04  4654   0.124E-02    0.990E-02
RMM:   6    -0.232906099541E+04    0.58182E-04   -0.27347E-04  3927   0.104E-02    0.720E-02
RMM:   7    -0.232906094087E+04    0.54543E-04   -0.82820E-05  3721   0.732E-03    0.155E-02
RMM:   8    -0.232906093906E+04    0.18142E-05   -0.12257E-05  2943   0.457E-03
  11 F= -.23505466E+04 E0= -.23505453E+04  d E =-.591875E-01  mag=     3.9707
       N       E                     dE             d eps       ncg     rms          rms(c)
DAV:   1    -0.232892733795E+04    0.13360E+00   -0.16393E+01  4536   0.375E+00    0.114E+00
RMM:   2    -0.232910438608E+04   -0.17705E+00   -0.18183E+00  6379   0.859E-01    0.943E-01
RMM:   3    -0.232911724907E+04   -0.12863E-01   -0.18619E-01  6238   0.300E-01    0.148E+00
RMM:   4    -0.232910282417E+04    0.14425E-01   -0.18415E-02  6442   0.732E-02    0.351E-01
RMM:   5    -0.232910273381E+04    0.90358E-04   -0.42984E-03  5784   0.359E-02    0.342E-01
RMM:   6    -0.232910209429E+04    0.63953E-03   -0.30347E-03  6001   0.298E-02    0.262E-01
RMM:   7    -0.232910146293E+04    0.63136E-03   -0.16604E-03  5406   0.248E-02    0.125E-01
RMM:   8    -0.232910144293E+04    0.20000E-04   -0.54858E-04  4743   0.171E-02    0.106E-01
RMM:   9    -0.232910130911E+04    0.13382E-03   -0.13334E-04  3896   0.814E-03    0.281E-02
RMM:  10    -0.232910130174E+04    0.73627E-05   -0.35399E-05  3156   0.525E-03
  12 F= -.23505861E+04 E0= -.23505839E+04  d E =-.394937E-01  mag=     3.9469
       N       E                     dE             d eps       ncg     rms          rms(c)
DAV:   1    -0.232909587821E+04    0.54309E-02   -0.63821E-01  4752   0.743E-01    0.224E-01
RMM:   2    -0.232910270790E+04   -0.68297E-02   -0.69953E-02  6402   0.168E-01    0.198E-01
RMM:   3    -0.232910319502E+04   -0.48713E-03   -0.70558E-03  5912   0.577E-02    0.239E-01
RMM:   4    -0.232910263966E+04    0.55537E-03   -0.70868E-04  4070   0.152E-02    0.667E-02
RMM:   5    -0.232910264801E+04   -0.83544E-05   -0.22375E-04  3828   0.916E-03    0.808E-02
RMM:   6    -0.232910257523E+04    0.72782E-04   -0.15658E-04  3962   0.849E-03    0.359E-02
RMM:   7    -0.232910257691E+04   -0.16831E-05   -0.52782E-05  3085   0.633E-03
  13 F= -.23505872E+04 E0= -.23505848E+04  d E =-.405947E-01  mag=     3.9413
       N       E                     dE             d eps       ncg     rms          rms(c)
DAV:   1    -0.232897540181E+04    0.12717E+00   -0.13521E+01  4568   0.350E+00    0.112E+00
RMM:   2    -0.232912844241E+04   -0.15304E+00   -0.15647E+00  6274   0.784E-01    0.103E+00
RMM:   3    -0.232914062451E+04   -0.12182E-01   -0.16845E-01  6158   0.289E-01    0.160E+00
RMM:   4    -0.232912472714E+04    0.15897E-01   -0.17437E-02  6459   0.721E-02    0.377E-01
RMM:   5    -0.232912501558E+04   -0.28844E-03   -0.49215E-03  6010   0.396E-02    0.413E-01
RMM:   6    -0.232912343345E+04    0.15821E-02   -0.30203E-03  6041   0.330E-02    0.254E-01
RMM:   7    -0.232912321127E+04    0.22218E-03   -0.19546E-03  5475   0.257E-02    0.206E-01
RMM:   8    -0.232912273022E+04    0.48105E-03   -0.74686E-04  5332   0.170E-02    0.658E-02
RMM:   9    -0.232912269832E+04    0.31903E-04   -0.13559E-04  4146   0.802E-03    0.262E-02
RMM:  10    -0.232912268944E+04    0.88760E-05   -0.43297E-05  3199   0.616E-03
  14 F= -.23506066E+04 E0= -.23506032E+04  d E =-.194030E-01  mag=     3.9094
       N       E                     dE             d eps       ncg     rms          rms(c)
DAV:   1    -0.232911895285E+04    0.37455E-02   -0.41963E-01  4688   0.610E-01    0.193E-01
RMM:   2    -0.232912356517E+04   -0.46123E-02   -0.47545E-02  6302   0.136E-01    0.178E-01
RMM:   3    -0.232912402393E+04   -0.45877E-03   -0.50739E-03  5738   0.491E-02    0.216E-01
RMM:   4    -0.232912353272E+04    0.49121E-03   -0.50507E-04  3895   0.133E-02    0.553E-02
RMM:   5    -0.232912353135E+04    0.13636E-05   -0.16933E-04  3772   0.853E-03    0.621E-02
RMM:   6    -0.232912348835E+04    0.43008E-04   -0.12483E-04  3772   0.813E-03    0.277E-02
RMM:   7    -0.232912348611E+04    0.22393E-05   -0.20504E-05  2979   0.517E-03
  15 F= -.23506075E+04 E0= -.23506042E+04  d E =-.203287E-01  mag=     3.9125
       N       E                     dE             d eps       ncg     rms          rms(c)
DAV:   1    -0.232908809373E+04    0.35395E-01   -0.40672E+00  4544   0.193E+00    0.575E-01
RMM:   2    -0.232913787727E+04   -0.49784E-01   -0.50884E-01  6362   0.427E-01    0.583E-01
RMM:   3    -0.232914079786E+04   -0.29206E-02   -0.54579E-02  6140   0.155E-01    0.599E-01
RMM:   4    -0.232913745523E+04    0.33426E-02   -0.57191E-03  6068   0.387E-02    0.204E-01
RMM:   5    -0.232913742745E+04    0.27784E-04   -0.11942E-03  5519   0.192E-02    0.224E-01
RMM:   6    -0.232913687904E+04    0.54840E-03   -0.11231E-03  5650   0.200E-02    0.105E-01
RMM:   7    -0.232913685587E+04    0.23170E-04   -0.41635E-04  4798   0.134E-02    0.803E-02
RMM:   8    -0.232913678713E+04    0.68740E-04   -0.12442E-04  3218   0.748E-03    0.324E-02
RMM:   9    -0.232913677152E+04    0.15611E-04   -0.28094E-05  2982   0.474E-03    0.141E-02
RMM:  10    -0.232913676890E+04    0.26143E-05   -0.15590E-05  2950   0.349E-03
  16 F= -.23506209E+04 E0= -.23506180E+04  d E =-.134052E-01  mag=     3.9193
       N       E                     dE             d eps       ncg     rms          rms(c)
DAV:   1    -0.232913561989E+04    0.11516E-02   -0.12057E-01  4848   0.332E-01    0.983E-02
RMM:   2    -0.232913708170E+04   -0.14618E-02   -0.15005E-02  6394   0.736E-02    0.988E-02
RMM:   3    -0.232913718028E+04   -0.98572E-04   -0.15722E-03  4116   0.257E-02    0.999E-02
RMM:   4    -0.232913707641E+04    0.10387E-03   -0.16607E-04  3100   0.778E-03    0.320E-02
RMM:   5    -0.232913707726E+04   -0.85402E-06   -0.37942E-05  2976   0.459E-03
  17 F= -.23506213E+04 E0= -.23506182E+04  d E =-.137342E-01  mag=     3.9210
       N       E                     dE             d eps       ncg     rms          rms(c)
DAV:   1    -0.232909875450E+04    0.38322E-01   -0.40941E+00  4544   0.203E+00    0.637E-01
RMM:   2    -0.232915449067E+04   -0.55736E-01   -0.53590E-01  6298   0.445E-01    0.772E-01
RMM:   3    -0.232915363887E+04    0.85180E-03   -0.57331E-02  6088   0.167E-01    0.517E-01
RMM:   4    -0.232915069813E+04    0.29407E-02   -0.61592E-03  5755   0.408E-02    0.218E-01
RMM:   5    -0.232915073971E+04   -0.41576E-04   -0.14879E-03  5545   0.227E-02    0.246E-01
RMM:   6    -0.232915003755E+04    0.70216E-03   -0.13473E-03  5457   0.227E-02    0.855E-02
RMM:   7    -0.232914998826E+04    0.49286E-04   -0.25888E-04  4580   0.129E-02    0.391E-02
RMM:   8    -0.232914997992E+04    0.83403E-05   -0.62702E-05  3126   0.576E-03
  18 F= -.23506340E+04 E0= -.23506318E+04  d E =-.126991E-01  mag=     3.9335
       N       E                     dE             d eps       ncg     rms          rms(c)
DAV:   1    -0.232914320277E+04    0.67855E-02   -0.63279E-01  4656   0.798E-01    0.254E-01
RMM:   2    -0.232915205738E+04   -0.88546E-02   -0.83765E-02  6338   0.176E-01    0.334E-01
RMM:   3    -0.232915165587E+04    0.40151E-03   -0.86926E-03  5763   0.624E-02    0.197E-01
RMM:   4    -0.232915120954E+04    0.44633E-03   -0.94284E-04  4636   0.159E-02    0.780E-02
RMM:   5    -0.232915122908E+04   -0.19543E-04   -0.23299E-04  3884   0.973E-03    0.983E-02
RMM:   6    -0.232915111536E+04    0.11372E-03   -0.22494E-04  4503   0.103E-02    0.310E-02
RMM:   7    -0.232915111345E+04    0.19094E-05   -0.43499E-05  3051   0.645E-03
  19 F= -.23506350E+04 E0= -.23506330E+04  d E =-.137545E-01  mag=     3.9427
       N       E                     dE             d eps       ncg     rms          rms(c)
DAV:   1    -0.232912031547E+04    0.30800E-01   -0.31134E+00  4536   0.179E+00    0.548E-01
RMM:   2    -0.232916492729E+04   -0.44612E-01   -0.42442E-01  6412   0.400E-01    0.684E-01
RMM:   3    -0.232916386226E+04    0.10650E-02   -0.43952E-02  6198   0.141E-01    0.418E-01
RMM:   4    -0.232916188429E+04    0.19780E-02   -0.47297E-03  5627   0.344E-02    0.173E-01
RMM:   5    -0.232916191641E+04   -0.32124E-04   -0.99926E-04  5299   0.181E-02    0.197E-01
RMM:   6    -0.232916144578E+04    0.47063E-03   -0.80612E-04  5266   0.178E-02    0.636E-02
RMM:   7    -0.232916144079E+04    0.49863E-05   -0.20180E-04  4159   0.114E-02    0.473E-02
RMM:   8    -0.232916142007E+04    0.20726E-04   -0.58895E-05  3010   0.559E-03    0.273E-02
RMM:   9    -0.232916141152E+04    0.85440E-05   -0.17021E-05  2984   0.411E-03
  20 F= -.23506452E+04 E0= -.23506435E+04  d E =-.101323E-01  mag=     3.9558
       N       E                     dE             d eps       ncg     rms          rms(c)
DAV:   1    -0.232914251589E+04    0.18904E-01   -0.15991E+00  4536   0.128E+00    0.391E-01
RMM:   2    -0.232916553896E+04   -0.23023E-01   -0.21804E-01  6385   0.286E-01    0.500E-01
RMM:   3    -0.232916484592E+04    0.69304E-03   -0.22260E-02  6127   0.101E-01    0.294E-01
RMM:   4    -0.232916384128E+04    0.10046E-02   -0.24118E-03  5246   0.244E-02    0.117E-01
RMM:   5    -0.232916386916E+04   -0.27879E-04   -0.51868E-04  4806   0.138E-02    0.140E-01
RMM:   6    -0.232916363109E+04    0.23807E-03   -0.42868E-04  4887   0.130E-02    0.451E-02
RMM:   7    -0.232916362571E+04    0.53835E-05   -0.97468E-05  3416   0.846E-03
  21 F= -.23506473E+04 E0= -.23506459E+04  d E =-.122301E-01  mag=     3.9625
       N       E                     dE             d eps       ncg     rms          rms(c)
DAV:   1    -0.232913448703E+04    0.29144E-01   -0.28140E+00  4528   0.171E+00    0.500E-01
RMM:   2    -0.232917349131E+04   -0.39004E-01   -0.38431E-01  6402   0.393E-01    0.537E-01
RMM:   3    -0.232917441954E+04   -0.92823E-03   -0.39795E-02  6239   0.138E-01    0.397E-01
RMM:   4    -0.232917254480E+04    0.18747E-02   -0.41475E-03  5822   0.337E-02    0.162E-01
RMM:   5    -0.232917255141E+04   -0.66037E-05   -0.84298E-04  4913   0.172E-02    0.175E-01
RMM:   6    -0.232917213636E+04    0.41505E-03   -0.68789E-04  5209   0.166E-02    0.568E-02
RMM:   7    -0.232917211558E+04    0.20779E-04   -0.17082E-04  4310   0.108E-02    0.247E-02
RMM:   8    -0.232917211064E+04    0.49388E-05   -0.27036E-05  3017   0.474E-03
  22 F= -.23506559E+04 E0= -.23506548E+04  d E =-.860754E-02  mag=     3.9708
       N       E                     dE             d eps       ncg     rms          rms(c)
DAV:   1    -0.232914725461E+04    0.24861E-01   -0.19648E+00  4536   0.143E+00    0.417E-01
RMM:   2    -0.232917458808E+04   -0.27333E-01   -0.26890E-01  6433   0.330E-01    0.457E-01
RMM:   3    -0.232917512734E+04   -0.53926E-03   -0.27236E-02  6222   0.112E-01    0.333E-01
RMM:   4    -0.232917381507E+04    0.13123E-02   -0.28873E-03  5595   0.278E-02    0.135E-01
RMM:   5    -0.232917380985E+04    0.52260E-05   -0.59103E-04  4558   0.146E-02    0.144E-01
RMM:   6    -0.232917351749E+04    0.29235E-03   -0.49978E-04  5084   0.144E-02    0.442E-02
RMM:   7    -0.232917350552E+04    0.11974E-04   -0.11120E-04  3906   0.931E-03    0.209E-02
RMM:   8    -0.232917350284E+04    0.26823E-05   -0.20866E-05  2964   0.447E-03
  23 F= -.23506574E+04 E0= -.23506565E+04  d E =-.101109E-01  mag=     3.9770
       N       E                     dE             d eps       ncg     rms          rms(c)
DAV:   1    -0.232915494736E+04    0.18558E-01   -0.17245E+00  4528   0.134E+00    0.389E-01
RMM:   2    -0.232918046257E+04   -0.25515E-01   -0.25174E-01  6511   0.313E-01    0.426E-01
RMM:   3    -0.232918110683E+04   -0.64426E-03   -0.25591E-02  6232   0.103E-01    0.308E-01
RMM:   4    -0.232918000272E+04    0.11041E-02   -0.26809E-03  5519   0.257E-02    0.128E-01
RMM:   5    -0.232917995886E+04    0.43867E-04   -0.44865E-04  4132   0.126E-02    0.123E-01
RMM:   6    -0.232917975709E+04    0.20177E-03   -0.38687E-04  4896   0.130E-02    0.497E-02
RMM:   7    -0.232917974597E+04    0.11117E-04   -0.14359E-04  4030   0.930E-03    0.285E-02
RMM:   8    -0.232917974105E+04    0.49271E-05   -0.27558E-05  2936   0.487E-03
  24 F= -.23506636E+04 E0= -.23506629E+04  d E =-.624732E-02  mag=     3.9816
       N       E                     dE             d eps       ncg     rms          rms(c)
DAV:   1    -0.232911396421E+04    0.65782E-01   -0.48470E+00  4528   0.224E+00    0.653E-01
RMM:   2    -0.232918551020E+04   -0.71546E-01   -0.70559E-01  6506   0.522E-01    0.713E-01
RMM:   3    -0.232918742915E+04   -0.19189E-02   -0.72907E-02  6327   0.175E-01    0.523E-01
RMM:   4    -0.232918430253E+04    0.31266E-02   -0.75019E-03  6010   0.431E-02    0.210E-01
RMM:   5    -0.232918418396E+04    0.11857E-03   -0.12750E-03  5219   0.203E-02    0.203E-01
RMM:   6    -0.232918363792E+04    0.54604E-03   -0.10517E-03  5439   0.200E-02    0.860E-02
RMM:   7    -0.232918358629E+04    0.51631E-04   -0.38283E-04  4921   0.141E-02    0.363E-02
RMM:   8    -0.232918357711E+04    0.91774E-05   -0.48189E-05  3123   0.579E-03
  25 F= -.23506675E+04 E0= -.23506670E+04  d E =-.101184E-01  mag=     3.9864
       N       E                     dE             d eps       ncg     rms          rms(c)
DAV:   1    -0.232917335914E+04    0.10227E-01   -0.12693E+00  4576   0.115E+00    0.349E-01
RMM:   2    -0.232919017910E+04   -0.16820E-01   -0.16907E-01  6383   0.268E-01    0.346E-01
RMM:   3    -0.232919070547E+04   -0.52637E-03   -0.16747E-02  6029   0.895E-02    0.274E-01
RMM:   4    -0.232918986015E+04    0.84533E-03   -0.19002E-03  5652   0.235E-02    0.122E-01
RMM:   5    -0.232918980418E+04    0.55970E-04   -0.43577E-04  4164   0.126E-02    0.109E-01
RMM:   6    -0.232918964760E+04    0.15658E-03   -0.29981E-04  4804   0.124E-02    0.414E-02
RMM:   7    -0.232918963900E+04    0.86003E-05   -0.10703E-04  3856   0.925E-03    0.270E-02
RMM:   8    -0.232918963316E+04    0.58430E-05   -0.25627E-05  2942   0.464E-03
  26 F= -.23506735E+04 E0= -.23506731E+04  d E =-.604838E-02  mag=     3.9889
       N       E                     dE             d eps       ncg     rms          rms(c)
DAV:   1    -0.232918117877E+04    0.84602E-02   -0.76075E-01  4576   0.892E-01    0.268E-01
RMM:   2    -0.232919121813E+04   -0.10039E-01   -0.10140E-01  6377   0.208E-01    0.258E-01
RMM:   3    -0.232919163323E+04   -0.41511E-03   -0.10071E-02  5905   0.675E-02    0.215E-01
RMM:   4    -0.232919109509E+04    0.53814E-03   -0.11320E-03  5217   0.182E-02    0.937E-02
RMM:   5    -0.232919106061E+04    0.34478E-04   -0.26665E-04  3550   0.999E-03    0.852E-02
RMM:   6    -0.232919096372E+04    0.96893E-04   -0.19044E-04  4406   0.104E-02    0.332E-02
RMM:   7    -0.232919095628E+04    0.74364E-05   -0.73990E-05  3637   0.750E-03
  27 F= -.23506749E+04 E0= -.23506744E+04  d E =-.736931E-02  mag=     3.9902
       N       E                     dE             d eps       ncg     rms          rms(c)
DAV:   1    -0.232918339275E+04    0.75710E-02   -0.95613E-01  4544   0.102E+00    0.288E-01
RMM:   2    -0.232919494504E+04   -0.11552E-01   -0.11890E-01  6368   0.231E-01    0.235E-01
RMM:   3    -0.232919552231E+04   -0.57727E-03   -0.11656E-02  5958   0.789E-02    0.192E-01
RMM:   4    -0.232919506758E+04    0.45472E-03   -0.12280E-03  5483   0.197E-02    0.919E-02
RMM:   5    -0.232919507522E+04   -0.76335E-05   -0.30180E-04  3638   0.110E-02    0.102E-01
RMM:   6    -0.232919495024E+04    0.12498E-03   -0.21351E-04  4495   0.104E-02    0.393E-02
RMM:   7    -0.232919495503E+04   -0.47918E-05   -0.85569E-05  3168   0.798E-03
  28 F= -.23506787E+04 E0= -.23506782E+04  d E =-.384353E-02  mag=     3.9906
       N       E                     dE             d eps       ncg     rms          rms(c)
DAV:   1    -0.232918800783E+04    0.69424E-02   -0.64514E-01  4576   0.836E-01    0.238E-01
RMM:   2    -0.232919583589E+04   -0.78281E-02   -0.80619E-02  6368   0.190E-01    0.194E-01
RMM:   3    -0.232919622375E+04   -0.38786E-03   -0.79661E-03  5851   0.646E-02    0.157E-01
RMM:   4    -0.232919592170E+04    0.30205E-03   -0.82679E-04  4990   0.162E-02    0.740E-02
RMM:   5    -0.232919592888E+04   -0.71791E-05   -0.20602E-04  3299   0.948E-03    0.841E-02
RMM:   6    -0.232919584401E+04    0.84867E-04   -0.14493E-04  4034   0.882E-03    0.339E-02
RMM:   7    -0.232919584571E+04   -0.17001E-05   -0.60158E-05  3085   0.698E-03
  29 F= -.23506795E+04 E0= -.23506790E+04  d E =-.460944E-02  mag=     3.9907
       N       E                     dE             d eps       ncg     rms          rms(c)
DAV:   1    -0.232918363038E+04    0.12214E-01   -0.11957E+00  4528   0.115E+00    0.303E-01
RMM:   2    -0.232919956104E+04   -0.15931E-01   -0.16544E-01  6464   0.262E-01    0.248E-01
RMM:   3    -0.232920045231E+04   -0.89128E-03   -0.16344E-02  6054   0.872E-02    0.191E-01
RMM:   4    -0.232920004263E+04    0.40968E-03   -0.16382E-03  5458   0.210E-02    0.977E-02
RMM:   5    -0.232920002122E+04    0.21407E-04   -0.29614E-04  3821   0.115E-02    0.995E-02
RMM:   6    -0.232919991147E+04    0.10975E-03   -0.23111E-04  4440   0.103E-02    0.505E-02
RMM:   7    -0.232919991345E+04   -0.19750E-05   -0.10819E-04  3266   0.835E-03    0.442E-02
RMM:   8    -0.232919989218E+04    0.21267E-04   -0.28191E-05  2938   0.531E-03    0.134E-02
RMM:   9    -0.232919989045E+04    0.17251E-05   -0.61059E-06  2907   0.284E-03
  30 F= -.23506830E+04 E0= -.23506825E+04  d E =-.352067E-02  mag=     3.9906
       N       E                     dE             d eps       ncg     rms          rms(c)
DAV:   1    -0.232915716418E+04    0.42728E-01   -0.31793E+00  4528   0.187E+00    0.491E-01
RMM:   2    -0.232919970375E+04   -0.42540E-01   -0.43992E-01  6457   0.426E-01    0.415E-01
RMM:   3    -0.232920190627E+04   -0.22025E-02   -0.43414E-02  6189   0.141E-01    0.310E-01
RMM:   4    -0.232920082544E+04    0.10808E-02   -0.43370E-03  6062   0.338E-02    0.166E-01
RMM:   5    -0.232920078311E+04    0.42331E-04   -0.79113E-04  4784   0.173E-02    0.170E-01
RMM:   6    -0.232920043149E+04    0.35162E-03   -0.63328E-04  5283   0.160E-02    0.747E-02
RMM:   7    -0.232920043430E+04   -0.28123E-05   -0.25375E-04  4295   0.119E-02    0.605E-02
RMM:   8    -0.232920039148E+04    0.42821E-04   -0.61398E-05  2984   0.607E-03    0.236E-02
RMM:   9    -0.232920038515E+04    0.63319E-05   -0.14380E-05  2995   0.399E-03
  31 F= -.23506826E+04 E0= -.23506821E+04  d E =-.317740E-02  mag=     3.9902
       N       E                     dE             d eps       ncg     rms          rms(c)
DAV:   1    -0.232918858519E+04    0.11806E-01   -0.92018E-01  4536   0.101E+00    0.262E-01
RMM:   2    -0.232920078275E+04   -0.12198E-01   -0.12679E-01  6461   0.230E-01    0.208E-01
RMM:   3    -0.232920146301E+04   -0.68026E-03   -0.12163E-02  5959   0.735E-02    0.162E-01
RMM:   4    -0.232920116802E+04    0.29499E-03   -0.12210E-03  5049   0.180E-02    0.802E-02
RMM:   5    -0.232920111008E+04    0.57942E-04   -0.23858E-04  4156   0.112E-02    0.670E-02
RMM:   6    -0.232920107762E+04    0.32461E-04   -0.16568E-04  3662   0.904E-03    0.452E-02
RMM:   7    -0.232920105988E+04    0.17744E-04   -0.49641E-05  3038   0.666E-03    0.245E-02
RMM:   8    -0.232920105509E+04    0.47813E-05   -0.12382E-05  2921   0.439E-03
  32 F= -.23506838E+04 E0= -.23506833E+04  d E =-.429605E-02  mag=     3.9905
       N       E                     dE             d eps       ncg     rms          rms(c)
DAV:   1    -0.232919200526E+04    0.90546E-02   -0.93150E-01  4528   0.104E+00    0.295E-01
RMM:   2    -0.232920344952E+04   -0.11444E-01   -0.12222E-01  6148   0.229E-01    0.179E-01
RMM:   3    -0.232920458339E+04   -0.11339E-02   -0.12763E-02  5860   0.850E-02    0.215E-01
RMM:   4    -0.232920405312E+04    0.53027E-03   -0.12513E-03  5470   0.201E-02    0.987E-02
RMM:   5    -0.232920395593E+04    0.97192E-04   -0.32323E-04  4445   0.126E-02    0.707E-02
RMM:   6    -0.232920391938E+04    0.36545E-04   -0.23279E-04  4529   0.108E-02    0.564E-02
RMM:   7    -0.232920388063E+04    0.38751E-04   -0.68400E-05  3456   0.726E-03    0.156E-02
RMM:   8    -0.232920387887E+04    0.17665E-05   -0.14302E-05  2939   0.470E-03
  33 F= -.23506863E+04 E0= -.23506858E+04  d E =-.251134E-02  mag=     3.9904
       N       E                     dE             d eps       ncg     rms          rms(c)
DAV:   1    -0.232920350732E+04    0.37331E-03   -0.37569E-02  4960   0.209E-01    0.618E-02
RMM:   2    -0.232920397785E+04   -0.47053E-03   -0.50430E-03  6284   0.471E-02    0.413E-02
RMM:   3    -0.232920402529E+04   -0.47434E-04   -0.52621E-04  3591   0.166E-02    0.495E-02
RMM:   4    -0.232920399650E+04    0.28790E-04   -0.53433E-05  2978   0.560E-03    0.199E-02
RMM:   5    -0.232920399474E+04    0.17534E-05   -0.17919E-05  2898   0.335E-03
  34 F= -.23506863E+04 E0= -.23506858E+04  d E =-.256497E-02  mag=     3.9905
       N       E                     dE             d eps       ncg     rms          rms(c)
DAV:   1    -0.232919285974E+04    0.11137E-01   -0.91529E-01  4544   0.998E-01    0.259E-01
RMM:   2    -0.232920663309E+04   -0.13773E-01   -0.14253E-01  6381   0.225E-01    0.243E-01
RMM:   3    -0.232920759855E+04   -0.96546E-03   -0.15231E-02  5973   0.772E-02    0.215E-01
RMM:   4    -0.232920710623E+04    0.49231E-03   -0.14397E-03  4701   0.182E-02    0.944E-02
RMM:   5    -0.232920705746E+04    0.48769E-04   -0.23492E-04  3464   0.978E-03    0.836E-02
RMM:   6    -0.232920696431E+04    0.93150E-04   -0.21115E-04  4378   0.101E-02    0.375E-02
RMM:   7    -0.232920695510E+04    0.92156E-05   -0.74738E-05  3551   0.740E-03
  35 F= -.23506891E+04 E0= -.23506886E+04  d E =-.277011E-02  mag=     3.9905
       N       E                     dE             d eps       ncg     rms          rms(c)
DAV:   1    -0.232918389437E+04    0.23070E-01   -0.15821E+00  4528   0.131E+00    0.346E-01
RMM:   2    -0.232920781388E+04   -0.23920E-01   -0.24701E-01  6474   0.296E-01    0.337E-01
RMM:   3    -0.232920944361E+04   -0.16297E-02   -0.26512E-02  6081   0.103E-01    0.290E-01
RMM:   4    -0.232920854348E+04    0.90013E-03   -0.24932E-03  5440   0.242E-02    0.121E-01
RMM:   5    -0.232920846890E+04    0.74581E-04   -0.41468E-04  4091   0.125E-02    0.109E-01
RMM:   6    -0.232920830840E+04    0.16050E-03   -0.32588E-04  4939   0.120E-02    0.495E-02
RMM:   7    -0.232920829516E+04    0.13233E-04   -0.12483E-04  3969   0.912E-03    0.232E-02
RMM:   8    -0.232920829373E+04    0.14328E-05   -0.24472E-05  2951   0.512E-03
  36 F= -.23506902E+04 E0= -.23506897E+04  d E =-.386623E-02  mag=     3.9906
       N       E                     dE             d eps       ncg     rms          rms(c)
DAV:   1    -0.232920405385E+04    0.42413E-02   -0.36058E-01  4576   0.630E-01    0.175E-01
RMM:   2    -0.232921034320E+04   -0.62893E-02   -0.63926E-02  6534   0.147E-01    0.195E-01
RMM:   3    -0.232921064923E+04   -0.30603E-03   -0.68137E-03  5533   0.488E-02    0.142E-01
RMM:   4    -0.232921043638E+04    0.21285E-03   -0.64976E-04  3527   0.120E-02    0.611E-02
RMM:   5    -0.232921041639E+04    0.19990E-04   -0.85749E-05  3082   0.667E-03    0.515E-02
RMM:   6    -0.232921037972E+04    0.36665E-04   -0.76926E-05  3332   0.647E-03    0.215E-02
RMM:   7    -0.232921038089E+04   -0.11709E-05   -0.30024E-05  3014   0.537E-03
  37 F= -.23506921E+04 E0= -.23506916E+04  d E =-.188276E-02  mag=     3.9906
       N       E                     dE             d eps       ncg     rms          rms(c)
DAV:   1    -0.232915717508E+04    0.53205E-01   -0.32418E+00  4528   0.189E+00    0.520E-01
RMM:   2    -0.232921392588E+04   -0.56751E-01   -0.57446E-01  6588   0.442E-01    0.590E-01
RMM:   3    -0.232921646335E+04   -0.25375E-02   -0.61939E-02  6310   0.149E-01    0.421E-01
RMM:   4    -0.232921461893E+04    0.18444E-02   -0.57839E-03  5903   0.346E-02    0.183E-01
RMM:   5    -0.232921443422E+04    0.18471E-03   -0.75567E-04  4636   0.156E-02    0.154E-01
RMM:   6    -0.232921409405E+04    0.34017E-03   -0.64312E-04  5125   0.163E-02    0.678E-02
RMM:   7    -0.232921409337E+04    0.67605E-06   -0.27972E-04  4542   0.130E-02    0.459E-02
RMM:   8    -0.232921407614E+04    0.17227E-04   -0.60927E-05  2985   0.609E-03    0.274E-02
RMM:   9    -0.232921406629E+04    0.98544E-05   -0.13111E-05  2926   0.423E-03
  38 F= -.23506952E+04 E0= -.23506947E+04  d E =-.496722E-02  mag=     3.9900
       N       E                     dE             d eps       ncg     rms          rms(c)
DAV:   1    -0.232921021796E+04    0.38582E-02   -0.23704E-01  4624   0.510E-01    0.141E-01
RMM:   2    -0.232921437296E+04   -0.41550E-02   -0.42056E-02  6523   0.119E-01    0.159E-01
RMM:   3    -0.232921455926E+04   -0.18631E-03   -0.44479E-03  5239   0.405E-02    0.114E-01
RMM:   4    -0.232921442495E+04    0.13431E-03   -0.42597E-04  3310   0.997E-03    0.502E-02
RMM:   5    -0.232921441032E+04    0.14631E-04   -0.54719E-05  3006   0.565E-03    0.415E-02
RMM:   6    -0.232921438536E+04    0.24958E-04   -0.53336E-05  3118   0.541E-03    0.181E-02
RMM:   7    -0.232921438612E+04   -0.75834E-06   -0.22023E-05  2988   0.471E-03
  39 F= -.23506953E+04 E0= -.23506948E+04  d E =-.512811E-02  mag=     3.9898
       N       E                     dE             d eps       ncg     rms          rms(c)
DAV:   1    -0.232920460301E+04    0.97823E-02   -0.68750E-01  4528   0.872E-01    0.262E-01
RMM:   2    -0.232921701341E+04   -0.12410E-01   -0.12735E-01  6564   0.215E-01    0.251E-01
RMM:   3    -0.232921790340E+04   -0.88999E-03   -0.12924E-02  5993   0.712E-02    0.231E-01
RMM:   4    -0.232921731313E+04    0.59027E-03   -0.13032E-03  4803   0.180E-02    0.862E-02
RMM:   5    -0.232921727706E+04    0.36064E-04   -0.23589E-04  3709   0.989E-03    0.800E-02
RMM:   6    -0.232921719220E+04    0.84863E-04   -0.18927E-04  4284   0.979E-03    0.313E-02
RMM:   7    -0.232921718812E+04    0.40823E-05   -0.59370E-05  3282   0.685E-03
  40 F= -.23506978E+04 E0= -.23506973E+04  d E =-.247016E-02  mag=     3.9895
       N       E                     dE             d eps       ncg     rms          rms(c)
DAV:   1    -0.232920823513E+04    0.89571E-02   -0.53724E-01  4536   0.771E-01    0.232E-01
RMM:   2    -0.232921792556E+04   -0.96904E-02   -0.99709E-02  6488   0.190E-01    0.219E-01
RMM:   3    -0.232921864566E+04   -0.72010E-03   -0.10148E-02  5904   0.645E-02    0.207E-01
RMM:   4    -0.232921817775E+04    0.46791E-03   -0.10246E-03  4319   0.161E-02    0.756E-02
RMM:   5    -0.232921815032E+04    0.27422E-04   -0.18750E-04  3574   0.924E-03    0.707E-02
RMM:   6    -0.232921808485E+04    0.65474E-04   -0.14328E-04  3994   0.883E-03    0.294E-02
RMM:   7    -0.232921808068E+04    0.41654E-05   -0.51277E-05  3177   0.652E-03
  41 F= -.23506984E+04 E0= -.23506978E+04  d E =-.307185E-02  mag=     3.9891
       N       E                     dE             d eps       ncg     rms          rms(c)
DAV:   1    -0.232920927977E+04    0.88051E-02   -0.56432E-01  4528   0.784E-01    0.239E-01
RMM:   2    -0.232922018875E+04   -0.10909E-01   -0.11208E-01  6638   0.201E-01    0.215E-01
RMM:   3    -0.232922111253E+04   -0.92378E-03   -0.11067E-02  5872   0.648E-02    0.219E-01
RMM:   4    -0.232922058687E+04    0.52566E-03   -0.11334E-03  4220   0.166E-02    0.736E-02
RMM:   5    -0.232922053349E+04    0.53382E-04   -0.15723E-04  3483   0.873E-03    0.552E-02
RMM:   6    -0.232922052213E+04    0.11358E-04   -0.14502E-04  3329   0.843E-03    0.444E-02
RMM:   7    -0.232922050133E+04    0.20803E-04   -0.48150E-05  3116   0.647E-03    0.109E-02
RMM:   8    -0.232922050128E+04    0.44500E-07   -0.84510E-06  2919   0.424E-03
  42 F= -.23507005E+04 E0= -.23506999E+04  d E =-.209273E-02  mag=     3.9887
       N       E                     dE             d eps       ncg     rms          rms(c)
DAV:   1    -0.232917533637E+04    0.45165E-01   -0.23916E+00  4528   0.161E+00    0.492E-01
RMM:   2    -0.232922192382E+04   -0.46587E-01   -0.47470E-01  6585   0.412E-01    0.475E-01
RMM:   3    -0.232922539694E+04   -0.34731E-02   -0.47698E-02  6295   0.131E-01    0.446E-01
RMM:   4    -0.232922322218E+04    0.21748E-02   -0.47942E-03  5915   0.331E-02    0.156E-01
RMM:   5    -0.232922304090E+04    0.18129E-03   -0.70065E-04  4946   0.155E-02    0.132E-01
RMM:   6    -0.232922288032E+04    0.16057E-03   -0.58221E-04  4816   0.144E-02    0.746E-02
RMM:   7    -0.232922282892E+04    0.51404E-04   -0.20637E-04  4656   0.105E-02    0.225E-02
RMM:   8    -0.232922282469E+04    0.42297E-05   -0.20715E-05  3023   0.526E-03
  43 F= -.23507021E+04 E0= -.23507015E+04  d E =-.374831E-02  mag=     3.9879
       N       E                     dE             d eps       ncg     rms          rms(c)
DAV:   1    -0.232921734958E+04    0.54793E-02   -0.37635E-01  4592   0.640E-01    0.196E-01
RMM:   2    -0.232922478208E+04   -0.74325E-02   -0.75834E-02  6592   0.166E-01    0.191E-01
RMM:   3    -0.232922533162E+04   -0.54954E-03   -0.75478E-03  5643   0.520E-02    0.176E-01
RMM:   4    -0.232922499722E+04    0.33440E-03   -0.78160E-04  3710   0.135E-02    0.616E-02
RMM:   5    -0.232922497100E+04    0.26218E-04   -0.10455E-04  3116   0.744E-03    0.536E-02
RMM:   6    -0.232922494679E+04    0.24207E-04   -0.99877E-05  3135   0.709E-03    0.314E-02
RMM:   7    -0.232922493939E+04    0.73999E-05   -0.35244E-05  3076   0.589E-03
  44 F= -.23507040E+04 E0= -.23507034E+04  d E =-.184777E-02  mag=     3.9875
       N       E                     dE             d eps       ncg     rms          rms(c)
DAV:   1    -0.232917805325E+04    0.46894E-01   -0.24377E+00  4528   0.163E+00    0.496E-01
RMM:   2    -0.232922609236E+04   -0.48039E-01   -0.48987E-01  6637   0.419E-01    0.479E-01
RMM:   3    -0.232922974427E+04   -0.36519E-02   -0.49843E-02  6347   0.135E-01    0.446E-01
RMM:   4    -0.232922757310E+04    0.21712E-02   -0.50177E-03  5929   0.336E-02    0.163E-01
RMM:   5    -0.232922742057E+04    0.15253E-03   -0.70180E-04  4642   0.151E-02    0.142E-01
RMM:   6    -0.232922721814E+04    0.20244E-03   -0.61054E-04  5034   0.145E-02    0.800E-02
RMM:   7    -0.232922716822E+04    0.49922E-04   -0.24459E-04  4566   0.113E-02    0.341E-02
RMM:   8    -0.232922716296E+04    0.52564E-05   -0.45931E-05  3028   0.606E-03
  45 F= -.23507055E+04 E0= -.23507049E+04  d E =-.340153E-02  mag=     3.9866
       N       E                     dE             d eps       ncg     rms          rms(c)
DAV:   1    -0.232922057612E+04    0.65921E-02   -0.49173E-01  4552   0.718E-01    0.214E-01
RMM:   2    -0.232922876411E+04   -0.81880E-02   -0.83948E-02  6587   0.178E-01    0.195E-01
RMM:   3    -0.232922938681E+04   -0.62271E-03   -0.85093E-03  5876   0.561E-02    0.184E-01
RMM:   4    -0.232922901868E+04    0.36813E-03   -0.88282E-04  4026   0.145E-02    0.767E-02
RMM:   5    -0.232922899757E+04    0.21109E-04   -0.14787E-04  3078   0.798E-03    0.680E-02
RMM:   6    -0.232922893914E+04    0.58432E-04   -0.14462E-04  3848   0.821E-03    0.276E-02
RMM:   7    -0.232922893963E+04   -0.48654E-06   -0.40206E-05  3021   0.605E-03
  46 F= -.23507072E+04 E0= -.23507065E+04  d E =-.161844E-02  mag=     3.9863
       N       E                     dE             d eps       ncg     rms          rms(c)
DAV:   1    -0.232920911396E+04    0.19825E-01   -0.12241E+00  4528   0.113E+00    0.333E-01
RMM:   2    -0.232922934164E+04   -0.20228E-01   -0.20799E-01  6591   0.279E-01    0.290E-01
RMM:   3    -0.232923101977E+04   -0.16781E-02   -0.21462E-02  6263   0.904E-02    0.286E-01
RMM:   4    -0.232923011845E+04    0.90132E-03   -0.21813E-03  5446   0.227E-02    0.120E-01
RMM:   5    -0.232923006242E+04    0.56025E-04   -0.36184E-04  3464   0.110E-02    0.106E-01
RMM:   6    -0.232922992452E+04    0.13790E-03   -0.33140E-04  4664   0.117E-02    0.495E-02
RMM:   7    -0.232922992199E+04    0.25317E-05   -0.12108E-04  3518   0.871E-03    0.377E-02
RMM:   8    -0.232922990665E+04    0.15341E-04   -0.34429E-05  2973   0.555E-03    0.172E-02
RMM:   9    -0.232922990290E+04    0.37487E-05   -0.70126E-06  2894   0.323E-03
  47 F= -.23507079E+04 E0= -.23507072E+04  d E =-.233688E-02  mag=     3.9857
       N       E                     dE             d eps       ncg     rms          rms(c)
DAV:   1    -0.232922116341E+04    0.87432E-02   -0.86946E-01  4528   0.925E-01    0.253E-01
RMM:   2    -0.232923214437E+04   -0.10981E-01   -0.11234E-01  6495   0.212E-01    0.223E-01
RMM:   3    -0.232923295608E+04   -0.81171E-03   -0.11450E-02  6036   0.676E-02    0.214E-01
RMM:   4    -0.232923245906E+04    0.49702E-03   -0.11523E-03  4679   0.170E-02    0.952E-02
RMM:   5    -0.232923242653E+04    0.32524E-04   -0.24122E-04  3261   0.956E-03    0.838E-02
RMM:   6    -0.232923233578E+04    0.90757E-04   -0.23154E-04  4360   0.103E-02    0.329E-02
RMM:   7    -0.232923233889E+04   -0.31107E-05   -0.56321E-05  3081   0.723E-03
  48 F= -.23507101E+04 E0= -.23507094E+04  d E =-.221053E-02  mag=     3.9855
       N       E                     dE             d eps       ncg     rms          rms(c)
DAV:   1    -0.232921193979E+04    0.20396E-01   -0.16674E+00  4528   0.128E+00    0.352E-01
RMM:   2    -0.232923296219E+04   -0.21022E-01   -0.21584E-01  6510   0.294E-01    0.304E-01
RMM:   3    -0.232923462554E+04   -0.16633E-02   -0.22513E-02  6219   0.951E-02    0.301E-01
RMM:   4    -0.232923364129E+04    0.98425E-03   -0.22215E-03  5617   0.237E-02    0.131E-01
RMM:   5    -0.232923358606E+04    0.55230E-04   -0.47385E-04  3727   0.124E-02    0.117E-01
RMM:   6    -0.232923341811E+04    0.16796E-03   -0.41450E-04  4787   0.130E-02    0.507E-02
RMM:   7    -0.232923342190E+04   -0.37974E-05   -0.12741E-04  3439   0.957E-03    0.419E-02
RMM:   8    -0.232923340169E+04    0.20214E-04   -0.38648E-05  3007   0.556E-03    0.179E-02
RMM:   9    -0.232923339772E+04    0.39680E-05   -0.76880E-06  2903   0.346E-03
  49 F= -.23507108E+04 E0= -.23507101E+04  d E =-.296090E-02  mag=     3.9855
       N       E                     dE             d eps       ncg     rms          rms(c)
DAV:   1    -0.232922665348E+04    0.67482E-02   -0.75585E-01  4528   0.847E-01    0.223E-01
RMM:   2    -0.232923565070E+04   -0.89972E-02   -0.91795E-02  6494   0.192E-01    0.201E-01
RMM:   3    -0.232923616856E+04   -0.51785E-03   -0.92955E-03  5880   0.601E-02    0.196E-01
RMM:   4    -0.232923575785E+04    0.41071E-03   -0.91332E-04  4157   0.152E-02    0.817E-02
RMM:   5    -0.232923573503E+04    0.22823E-04   -0.18793E-04  3197   0.898E-03    0.732E-02
RMM:   6    -0.232923567138E+04    0.63650E-04   -0.18058E-04  3980   0.918E-03    0.290E-02
RMM:   7    -0.232923566901E+04    0.23721E-05   -0.37022E-05  3024   0.627E-03
  50 F= -.23507127E+04 E0= -.23507121E+04  d E =-.190659E-02  mag=     3.9856
       N       E                     dE             d eps       ncg     rms          rms(c)
DAV:   1    -0.232920009514E+04    0.35576E-01   -0.31382E+00  4528   0.173E+00    0.457E-01
RMM:   2    -0.232923763908E+04   -0.37544E-01   -0.38281E-01  6545   0.392E-01    0.420E-01
RMM:   3    -0.232923973803E+04   -0.20990E-02   -0.39538E-02  6255   0.123E-01    0.410E-01
RMM:   4    -0.232923796359E+04    0.17744E-02   -0.38305E-03  5899   0.308E-02    0.166E-01
RMM:   5    -0.232923787216E+04    0.91425E-04   -0.79601E-04  4564   0.162E-02    0.149E-01
RMM:   6    -0.232923761805E+04    0.25412E-03   -0.69013E-04  5179   0.160E-02    0.637E-02
RMM:   7    -0.232923760229E+04    0.15758E-04   -0.16704E-04  3799   0.106E-02    0.344E-02
RMM:   8    -0.232923759428E+04    0.80105E-05   -0.43263E-05  3003   0.561E-03
  51 F= -.23507139E+04 E0= -.23507133E+04  d E =-.309032E-02  mag=     3.9861
       N       E                     dE             d eps       ncg     rms          rms(c)
DAV:   1    -0.232922731785E+04    0.10284E-01   -0.10440E+00  4528   0.101E+00    0.283E-01
RMM:   2    -0.232923977615E+04   -0.12458E-01   -0.12924E-01  6408   0.237E-01    0.215E-01
RMM:   3    -0.232924100005E+04   -0.12239E-02   -0.12563E-02  5984   0.714E-02    0.262E-01
RMM:   4    -0.232924027235E+04    0.72769E-03   -0.13368E-03  5067   0.190E-02    0.939E-02
RMM:   5    -0.232924019877E+04    0.73579E-04   -0.31049E-04  4225   0.121E-02    0.660E-02
RMM:   6    -0.232924018412E+04    0.14655E-04   -0.21203E-04  3937   0.986E-03    0.532E-02
RMM:   7    -0.232924015174E+04    0.32382E-04   -0.55821E-05  3032   0.696E-03    0.118E-02
RMM:   8    -0.232924014990E+04    0.18363E-05   -0.10043E-05  2923   0.411E-03
  52 F= -.23507160E+04 E0= -.23507154E+04  d E =-.210349E-02  mag=     3.9871
       N       E                     dE             d eps       ncg     rms          rms(c)
DAV:   1    -0.232922551720E+04    0.14635E-01   -0.12398E+00  4536   0.110E+00    0.306E-01
RMM:   2    -0.232924025618E+04   -0.14739E-01   -0.15291E-01  6369   0.257E-01    0.228E-01
RMM:   3    -0.232924168626E+04   -0.14301E-02   -0.14887E-02  6009   0.791E-02    0.278E-01
RMM:   4    -0.232924088083E+04    0.80544E-03   -0.15732E-03  5279   0.205E-02    0.105E-01
RMM:   5    -0.232924080386E+04    0.76967E-04   -0.37331E-04  4368   0.130E-02    0.789E-02
RMM:   6    -0.232924076208E+04    0.41783E-04   -0.24767E-04  4469   0.106E-02    0.540E-02
RMM:   7    -0.232924072931E+04    0.32772E-04   -0.66428E-05  3217   0.727E-03    0.167E-02
RMM:   8    -0.232924072905E+04    0.25168E-06   -0.16317E-05  2935   0.458E-03
  53 F= -.23507161E+04 E0= -.23507155E+04  d E =-.218790E-02  mag=     3.9878
       N       E                     dE             d eps       ncg     rms          rms(c)
DAV:   1    -0.232923796442E+04    0.27649E-02   -0.22896E-01  4592   0.472E-01    0.128E-01
RMM:   2    -0.232924063737E+04   -0.26730E-02   -0.27902E-02  6360   0.110E-01    0.834E-02
RMM:   3    -0.232924089447E+04   -0.25710E-03   -0.26981E-03  4919   0.340E-02    0.105E-01
RMM:   4    -0.232924078428E+04    0.11019E-03   -0.27401E-04  3230   0.916E-03    0.449E-02
RMM:   5    -0.232924076535E+04    0.18932E-04   -0.65205E-05  3135   0.662E-03    0.299E-02
RMM:   6    -0.232924076309E+04    0.22542E-05   -0.47128E-05  3144   0.571E-03
  54 F= -.23507164E+04 E0= -.23507158E+04  d E =-.243474E-02  mag=     3.9880
       N       E                     dE             d eps       ncg     rms          rms(c)
DAV:   1    -0.232923360303E+04    0.71623E-02   -0.67633E-01  4528   0.845E-01    0.248E-01
RMM:   2    -0.232924266958E+04   -0.90665E-02   -0.94082E-02  6422   0.207E-01    0.173E-01
RMM:   3    -0.232924356406E+04   -0.89447E-03   -0.88641E-03  5876   0.641E-02    0.219E-01
RMM:   4    -0.232924304594E+04    0.51812E-03   -0.94949E-04  4666   0.167E-02    0.837E-02
RMM:   5    -0.232924298655E+04    0.59385E-04   -0.24400E-04  4096   0.110E-02    0.571E-02
RMM:   6    -0.232924297220E+04    0.14358E-04   -0.16718E-04  3558   0.970E-03    0.452E-02
RMM:   7    -0.232924295020E+04    0.21996E-04   -0.36607E-05  3005   0.606E-03    0.969E-03
RMM:   8    -0.232924295018E+04    0.21595E-07   -0.83459E-06  2904   0.385E-03
  55 F= -.23507183E+04 E0= -.23507177E+04  d E =-.191503E-02  mag=     3.9883
       N       E                     dE             d eps       ncg     rms          rms(c)
DAV:   1    -0.232923725185E+04    0.56984E-02   -0.45608E-01  4536   0.695E-01    0.207E-01
RMM:   2    -0.232924340764E+04   -0.61558E-02   -0.63853E-02  6327   0.169E-01    0.149E-01
RMM:   3    -0.232924401200E+04   -0.60436E-03   -0.59979E-03  5683   0.513E-02    0.185E-01
RMM:   4    -0.232924363616E+04    0.37584E-03   -0.64412E-04  4157   0.139E-02    0.688E-02
RMM:   5    -0.232924360676E+04    0.29399E-04   -0.16779E-04  3563   0.926E-03    0.524E-02
RMM:   6    -0.232924358699E+04    0.19776E-04   -0.11593E-04  3396   0.840E-03    0.348E-02
RMM:   7    -0.232924357552E+04    0.11465E-04   -0.25257E-05  2963   0.565E-03    0.777E-03
RMM:   8    -0.232924357605E+04   -0.52530E-06   -0.66048E-06  2901   0.354E-03
  56 F= -.23507187E+04 E0= -.23507181E+04  d E =-.231612E-02  mag=     3.9888
       N       E                     dE             d eps       ncg     rms          rms(c)
DAV:   1    -0.232923355633E+04    0.10019E-01   -0.80084E-01  4528   0.948E-01    0.272E-01
RMM:   2    -0.232924567943E+04   -0.12123E-01   -0.12123E-01  6423   0.235E-01    0.276E-01
RMM:   3    -0.232924636122E+04   -0.68179E-03   -0.11618E-02  5947   0.703E-02    0.242E-01
RMM:   4    -0.232924570593E+04    0.65529E-03   -0.12447E-03  5215   0.183E-02    0.884E-02
RMM:   5    -0.232924568250E+04    0.23428E-04   -0.22879E-04  3739   0.999E-03    0.840E-02
RMM:   6    -0.232924560302E+04    0.79486E-04   -0.22807E-04  4489   0.110E-02    0.347E-02
RMM:   7    -0.232924559872E+04    0.42957E-05   -0.45539E-05  3080   0.622E-03
  57 F= -.23507204E+04 E0= -.23507199E+04  d E =-.172843E-02  mag=     3.9890
       N       E                     dE             d eps       ncg     rms          rms(c)
DAV:   1    -0.232924060298E+04    0.50000E-02   -0.36111E-01  4576   0.637E-01    0.186E-01
RMM:   2    -0.232924611818E+04   -0.55152E-02   -0.55013E-02  6423   0.159E-01    0.192E-01
RMM:   3    -0.232924639763E+04   -0.27945E-03   -0.52798E-03  5703   0.491E-02    0.163E-01
RMM:   4    -0.232924610208E+04    0.29555E-03   -0.57005E-04  3978   0.127E-02    0.615E-02
RMM:   5    -0.232924609344E+04    0.86442E-05   -0.10567E-04  3116   0.751E-03    0.581E-02
RMM:   6    -0.232924605296E+04    0.40479E-04   -0.10284E-04  3513   0.812E-03    0.227E-02
RMM:   7    -0.232924605243E+04    0.52671E-06   -0.27707E-05  3010   0.552E-03
  58 F= -.23507207E+04 E0= -.23507201E+04  d E =-.198402E-02  mag=     3.9893
       N       E                     dE             d eps       ncg     rms          rms(c)
DAV:   1    -0.232923476239E+04    0.11291E-01   -0.96248E-01  4528   0.105E+00    0.299E-01
RMM:   2    -0.232924915951E+04   -0.14397E-01   -0.13668E-01  6476   0.255E-01    0.395E-01
RMM:   3    -0.232924876585E+04    0.39366E-03   -0.12950E-02  6045   0.773E-02    0.230E-01
RMM:   4    -0.232924820014E+04    0.56571E-03   -0.14289E-03  5278   0.193E-02    0.972E-02
RMM:   5    -0.232924816822E+04    0.31920E-04   -0.24187E-04  3705   0.104E-02    0.924E-02
RMM:   6    -0.232924805412E+04    0.11410E-03   -0.25633E-04  4620   0.120E-02    0.331E-02
RMM:   7    -0.232924805332E+04    0.79928E-06   -0.67874E-05  3273   0.806E-03
  59 F= -.23507224E+04 E0= -.23507218E+04  d E =-.170101E-02  mag=     3.9892
       N       E                     dE             d eps       ncg     rms          rms(c)
DAV:   1    -0.232924461043E+04    0.34437E-02   -0.27040E-01  4608   0.554E-01    0.162E-01
RMM:   2    -0.232924869673E+04   -0.40863E-02   -0.38719E-02  6396   0.136E-01    0.216E-01
RMM:   3    -0.232924856417E+04    0.13257E-03   -0.36746E-03  5558   0.416E-02    0.125E-01
RMM:   4    -0.232924840327E+04    0.16090E-03   -0.41159E-04  3561   0.106E-02    0.534E-02
RMM:   5    -0.232924839119E+04    0.12077E-04   -0.70740E-05  3022   0.647E-03    0.485E-02
RMM:   6    -0.232924835956E+04    0.31630E-04   -0.73171E-05  3454   0.714E-03    0.179E-02
RMM:   7    -0.232924835938E+04    0.18545E-06   -0.22226E-05  2985   0.523E-03
  60 F= -.23507225E+04 E0= -.23507220E+04  d E =-.184799E-02  mag=     3.9890
       N       E                     dE             d eps       ncg     rms          rms(c)
DAV:   1    -0.232923931952E+04    0.90400E-02   -0.84580E-01  4528   0.969E-01    0.270E-01
RMM:   2    -0.232925137678E+04   -0.12057E-01   -0.11231E-01  6506   0.232E-01    0.389E-01
RMM:   3    -0.232925066023E+04    0.71655E-03   -0.10069E-02  6021   0.682E-02    0.199E-01
RMM:   4    -0.232925026492E+04    0.39531E-03   -0.11634E-03  4988   0.171E-02    0.901E-02
RMM:   5    -0.232925023320E+04    0.31721E-04   -0.20033E-04  3400   0.938E-03    0.830E-02
RMM:   6    -0.232925014289E+04    0.90306E-04   -0.20694E-04  4428   0.109E-02    0.302E-02
RMM:   7    -0.232925014150E+04    0.13900E-05   -0.55008E-05  3231   0.747E-03
  61 F= -.23507241E+04 E0= -.23507235E+04  d E =-.154479E-02  mag=     3.9885
       N       E                     dE             d eps       ncg     rms          rms(c)
DAV:   1    -0.232924271102E+04    0.74319E-02   -0.61777E-01  4528   0.829E-01    0.233E-01
RMM:   2    -0.232925160706E+04   -0.88960E-02   -0.82378E-02  6419   0.199E-01    0.343E-01
RMM:   3    -0.232925100363E+04    0.60344E-03   -0.73925E-03  5903   0.595E-02    0.170E-01
RMM:   4    -0.232925072005E+04    0.28358E-03   -0.85860E-04  4545   0.147E-02    0.780E-02
RMM:   5    -0.232925069466E+04    0.25387E-04   -0.14878E-04  3234   0.826E-03    0.708E-02
RMM:   6    -0.232925062914E+04    0.65519E-04   -0.15254E-04  4198   0.958E-03    0.261E-02
RMM:   7    -0.232925062780E+04    0.13445E-05   -0.40366E-05  3146   0.659E-03
  62 F= -.23507243E+04 E0= -.23507237E+04  d E =-.182864E-02  mag=     3.9879
       N       E                     dE             d eps       ncg     rms          rms(c)
DAV:   1    -0.232924131188E+04    0.93173E-02   -0.94503E-01  4528   0.103E+00    0.278E-01
RMM:   2    -0.232925323373E+04   -0.11922E-01   -0.11359E-01  6375   0.240E-01    0.360E-01
RMM:   3    -0.232925295937E+04    0.27436E-03   -0.10009E-02  6033   0.727E-02    0.229E-01
RMM:   4    -0.232925240119E+04    0.55818E-03   -0.11804E-03  5305   0.186E-02    0.911E-02
RMM:   5    -0.232925238129E+04    0.19900E-04   -0.24305E-04  3497   0.105E-02    0.905E-02
RMM:   6    -0.232925227194E+04    0.10935E-03   -0.23592E-04  4556   0.116E-02    0.299E-02
RMM:   7    -0.232925226913E+04    0.28121E-05   -0.57476E-05  3395   0.782E-03
  63 F= -.23507258E+04 E0= -.23507251E+04  d E =-.142040E-02  mag=     3.9872
       N       E                     dE             d eps       ncg     rms          rms(c)
DAV:   1    -0.232925022717E+04    0.20448E-02   -0.19220E-01  4608   0.466E-01    0.129E-01
RMM:   2    -0.232925268654E+04   -0.24594E-02   -0.23301E-02  6355   0.109E-01    0.170E-01
RMM:   3    -0.232925260491E+04    0.81634E-04   -0.20645E-03  5114   0.330E-02    0.105E-01
RMM:   4    -0.232925249039E+04    0.11451E-03   -0.24208E-04  3361   0.907E-03    0.423E-02
RMM:   5    -0.232925248449E+04    0.59088E-05   -0.50367E-05  2977   0.571E-03
  64 F= -.23507259E+04 E0= -.23507252E+04  d E =-.153616E-02  mag=     3.9869
       N       E                     dE             d eps       ncg     rms          rms(c)
DAV:   1    -0.232924543096E+04    0.70594E-02   -0.89527E-01  4528   0.993E-01    0.263E-01
RMM:   2    -0.232925420944E+04   -0.87785E-02   -0.90181E-02  6331   0.221E-01    0.211E-01
RMM:   3    -0.232925497447E+04   -0.76503E-03   -0.79067E-03  5983   0.689E-02    0.259E-01
RMM:   4    -0.232925423855E+04    0.73593E-03   -0.92376E-04  5430   0.187E-02    0.847E-02
RMM:   5    -0.232925425211E+04   -0.13566E-04   -0.31275E-04  4030   0.117E-02    0.929E-02
RMM:   6    -0.232925414378E+04    0.10833E-03   -0.22460E-04  4519   0.104E-02    0.278E-02
RMM:   7    -0.232925413977E+04    0.40145E-05   -0.41741E-05  3240   0.667E-03
  65 F= -.23507273E+04 E0= -.23507266E+04  d E =-.142869E-02  mag=     3.9863
       N       E                     dE             d eps       ncg     rms          rms(c)
DAV:   1    -0.232925325736E+04    0.88642E-03   -0.10333E-01  4704   0.338E-01    0.933E-02
RMM:   2    -0.232925430220E+04   -0.10448E-02   -0.10556E-02  6376   0.762E-02    0.847E-02
RMM:   3    -0.232925437245E+04   -0.70254E-04   -0.97125E-04  4259   0.232E-02    0.878E-02
RMM:   4    -0.232925428691E+04    0.85540E-04   -0.11265E-04  3178   0.765E-03    0.309E-02
RMM:   5    -0.232925428539E+04    0.15183E-05   -0.33064E-05  2955   0.469E-03
  66 F= -.23507274E+04 E0= -.23507267E+04  d E =-.149697E-02  mag=     3.9861
       N       E                     dE             d eps       ncg     rms          rms(c)
DAV:   1    -0.232924698434E+04    0.73026E-02   -0.97866E-01  4528   0.103E+00    0.263E-01
RMM:   2    -0.232925606644E+04   -0.90821E-02   -0.93191E-02  6274   0.225E-01    0.213E-01
RMM:   3    -0.232925684804E+04   -0.78159E-03   -0.81151E-03  5959   0.698E-02    0.261E-01
RMM:   4    -0.232925612170E+04    0.72634E-03   -0.97024E-04  5358   0.188E-02    0.872E-02
RMM:   5    -0.232925613540E+04   -0.13700E-04   -0.30357E-04  3784   0.112E-02    0.945E-02
RMM:   6    -0.232925602371E+04    0.11169E-03   -0.23272E-04  4542   0.107E-02    0.276E-02
RMM:   7    -0.232925602069E+04    0.30215E-05   -0.44362E-05  3257   0.701E-03
  67 F= -.23507288E+04 E0= -.23507281E+04  d E =-.143453E-02  mag=     3.9854
       N       E                     dE             d eps       ncg     rms          rms(c)
DAV:   1    -0.232925456641E+04    0.14573E-02   -0.17870E-01  4608   0.439E-01    0.116E-01
RMM:   2    -0.232925625610E+04   -0.16897E-02   -0.17228E-02  6360   0.968E-02    0.100E-01
RMM:   3    -0.232925638984E+04   -0.13375E-03   -0.15159E-03  4745   0.299E-02    0.114E-01
RMM:   4    -0.232925624938E+04    0.14046E-03   -0.17729E-04  3314   0.900E-03    0.380E-02
RMM:   5    -0.232925624982E+04   -0.43341E-06   -0.52883E-05  2987   0.570E-03
  68 F= -.23507289E+04 E0= -.23507281E+04  d E =-.153404E-02  mag=     3.9851
       N       E                     dE             d eps       ncg     rms          rms(c)
DAV:   1    -0.232924841753E+04    0.78319E-02   -0.96537E-01  4528   0.105E+00    0.278E-01
RMM:   2    -0.232925837124E+04   -0.99537E-02   -0.98635E-02  6308   0.233E-01    0.283E-01
RMM:   3    -0.232925877289E+04   -0.40165E-03   -0.85204E-03  6033   0.728E-02    0.270E-01
RMM:   4    -0.232925801162E+04    0.76128E-03   -0.10540E-03  5475   0.195E-02    0.908E-02
RMM:   5    -0.232925801349E+04   -0.18766E-05   -0.30341E-04  3638   0.113E-02    0.946E-02
RMM:   6    -0.232925789467E+04    0.11882E-03   -0.23379E-04  4568   0.114E-02    0.262E-02
RMM:   7    -0.232925789346E+04    0.12105E-05   -0.46545E-05  3316   0.777E-03
  69 F= -.23507302E+04 E0= -.23507294E+04  d E =-.128205E-02  mag=     3.9840
       N       E                     dE             d eps       ncg     rms          rms(c)
DAV:   1    -0.232925582408E+04    0.20706E-02   -0.22026E-01  4576   0.500E-01    0.137E-01
RMM:   2    -0.232925813584E+04   -0.23118E-02   -0.22654E-02  6260   0.112E-01    0.147E-01
RMM:   3    -0.232925819982E+04   -0.63979E-04   -0.20149E-03  5156   0.358E-02    0.130E-01
RMM:   4    -0.232925802734E+04    0.17248E-03   -0.24849E-04  3467   0.992E-03    0.440E-02
RMM:   5    -0.232925802287E+04    0.44653E-05   -0.64726E-05  2993   0.626E-03
  70 F= -.23507301E+04 E0= -.23507293E+04  d E =-.123760E-02  mag=     3.9835
       N       E                     dE             d eps       ncg     rms          rms(c)
DAV:   1    -0.232925363688E+04    0.43905E-02   -0.49007E-01  4528   0.741E-01    0.189E-01
RMM:   2    -0.232925953279E+04   -0.58959E-02   -0.56933E-02  6488   0.170E-01    0.238E-01
RMM:   3    -0.232925949492E+04    0.37868E-04   -0.49301E-03  5792   0.507E-02    0.164E-01
RMM:   4    -0.232925924237E+04    0.25255E-03   -0.60545E-04  4147   0.132E-02    0.687E-02
RMM:   5    -0.232925923175E+04    0.10625E-04   -0.12600E-04  3075   0.783E-03    0.657E-02
RMM:   6    -0.232925917713E+04    0.54615E-04   -0.12096E-04  4026   0.860E-03    0.209E-02
RMM:   7    -0.232925917739E+04   -0.25347E-06   -0.31617E-05  3233   0.596E-03
  71 F= -.23507311E+04 E0= -.23507302E+04  d E =-.909006E-03  mag=     3.9823
       N       E                     dE             d eps       ncg     rms          rms(c)
DAV:   1    -0.232924988817E+04    0.92890E-02   -0.88231E-01  4528   0.995E-01    0.258E-01
RMM:   2    -0.232926068280E+04   -0.10795E-01   -0.10308E-01  6446   0.230E-01    0.341E-01
RMM:   3    -0.232926044809E+04    0.23471E-03   -0.89342E-03  6015   0.688E-02    0.222E-01
RMM:   4    -0.232925999557E+04    0.45251E-03   -0.11146E-03  5085   0.176E-02    0.915E-02
RMM:   5    -0.232925995887E+04    0.36709E-04   -0.20378E-04  3313   0.928E-03    0.824E-02
RMM:   6    -0.232925987231E+04    0.86556E-04   -0.19249E-04  4375   0.105E-02    0.307E-02
RMM:   7    -0.232925986912E+04    0.31929E-05   -0.67430E-05  3596   0.756E-03
  72 F= -.23507314E+04 E0= -.23507305E+04  d E =-.126922E-02  mag=     3.9806
       N       E                     dE             d eps       ncg     rms          rms(c)
DAV:   1    -0.232925736353E+04    0.25088E-02   -0.38036E-01  4608   0.662E-01    0.201E-01
RMM:   2    -0.232926186405E+04   -0.45005E-02   -0.42867E-02  6193   0.155E-01    0.243E-01
RMM:   3    -0.232926175872E+04    0.10533E-03   -0.38115E-03  5733   0.516E-02    0.182E-01
RMM:   4    -0.232926142710E+04    0.33162E-03   -0.49694E-04  4779   0.137E-02    0.650E-02
RMM:   5    -0.232926141404E+04    0.13061E-04   -0.13722E-04  3187   0.857E-03    0.629E-02
RMM:   6    -0.232926135957E+04    0.54466E-04   -0.11894E-04  4176   0.883E-03    0.197E-02
RMM:   7    -0.232926135752E+04    0.20504E-05   -0.28650E-05  3186   0.625E-03
  73 F= -.23507327E+04 E0= -.23507317E+04  d E =-.130187E-02  mag=     3.9788
       N       E                     dE             d eps       ncg     rms          rms(c)
DAV:   1    -0.232925954338E+04    0.18162E-02   -0.18385E-01  4640   0.461E-01    0.139E-01
RMM:   2    -0.232926171363E+04   -0.21703E-02   -0.20757E-02  6182   0.108E-01    0.166E-01
RMM:   3    -0.232926167770E+04    0.35924E-04   -0.18401E-03  5146   0.365E-02    0.127E-01
RMM:   4    -0.232926151728E+04    0.16042E-03   -0.23834E-04  3606   0.992E-03    0.464E-02
RMM:   5    -0.232926150936E+04    0.79232E-05   -0.69270E-05  2991   0.659E-03
  74 F= -.23507327E+04 E0= -.23507316E+04  d E =-.132276E-02  mag=     3.9776
       N       E                     dE             d eps       ncg     rms          rms(c)
DAV:   1    -0.232926115972E+04    0.35756E-03   -0.33941E-02  4800   0.198E-01    0.610E-02
RMM:   2    -0.232926158643E+04   -0.42670E-03   -0.38627E-03  6220   0.477E-02    0.868E-02
RMM:   3    -0.232926155276E+04    0.33671E-04   -0.33965E-04  3470   0.153E-02    0.514E-02
RMM:   4    -0.232926152518E+04    0.27572E-04   -0.42244E-05  3005   0.526E-03    0.178E-02
RMM:   5    -0.232926152304E+04    0.21441E-05   -0.10334E-05  2869   0.301E-03
  75 F= -.23507328E+04 E0= -.23507317E+04  d E =-.139163E-02  mag=     3.9771
       N       E                     dE             d eps       ncg     rms          rms(c)
DAV:   1    -0.232926035022E+04    0.11750E-02   -0.20229E-01  4544   0.485E-01    0.139E-01
RMM:   2    -0.232926287126E+04   -0.25210E-02   -0.24090E-02  6256   0.113E-01    0.178E-01
RMM:   3    -0.232926281522E+04    0.56048E-04   -0.21155E-03  5102   0.350E-02    0.123E-01
RMM:   4    -0.232926266341E+04    0.15181E-03   -0.24998E-04  3554   0.982E-03    0.435E-02
RMM:   5    -0.232926265942E+04    0.39927E-05   -0.64189E-05  3012   0.640E-03
  76 F= -.23507338E+04 E0= -.23507326E+04  d E =-.969833E-03  mag=     3.9761
       N       E                     dE             d eps       ncg     rms          rms(c)
DAV:   1    -0.232925962854E+04    0.30349E-02   -0.30735E-01  4536   0.598E-01    0.170E-01
RMM:   2    -0.232926339808E+04   -0.37695E-02   -0.36538E-02  6360   0.140E-01    0.205E-01
RMM:   3    -0.232926338187E+04    0.16209E-04   -0.32340E-03  5583   0.432E-02    0.155E-01
RMM:   4    -0.232926314469E+04    0.23718E-03   -0.38259E-04  4274   0.120E-02    0.570E-02
RMM:   5    -0.232926314991E+04   -0.52167E-05   -0.12062E-04  3116   0.810E-03    0.625E-02
RMM:   6    -0.232926309627E+04    0.53644E-04   -0.10560E-04  4049   0.845E-03    0.160E-02
RMM:   7    -0.232926309494E+04    0.13265E-05   -0.17192E-05  2980   0.532E-03
  77 F= -.23507340E+04 E0= -.23507328E+04  d E =-.119774E-02  mag=     3.9739
       N       E                     dE             d eps       ncg     rms          rms(c)
DAV:   1    -0.232926200767E+04    0.10886E-02   -0.20516E-01  4560   0.493E-01    0.136E-01
RMM:   2    -0.232926418814E+04   -0.21805E-02   -0.21369E-02  6247   0.111E-01    0.151E-01
RMM:   3    -0.232926424605E+04   -0.57917E-04   -0.18345E-03  5125   0.346E-02    0.136E-01
RMM:   4    -0.232926405691E+04    0.18914E-03   -0.21927E-04  3509   0.987E-03    0.378E-02
RMM:   5    -0.232926405926E+04   -0.23480E-05   -0.67742E-05  3037   0.655E-03
  78 F= -.23507348E+04 E0= -.23507335E+04  d E =-.837349E-03  mag=     3.9727
       N       E                     dE             d eps       ncg     rms          rms(c)
DAV:   1    -0.232925995196E+04    0.41049E-02   -0.46495E-01  4528   0.743E-01    0.203E-01
RMM:   2    -0.232926480412E+04   -0.48522E-02   -0.48120E-02  6310   0.166E-01    0.211E-01
RMM:   3    -0.232926501682E+04   -0.21270E-03   -0.42133E-03  5895   0.513E-02    0.207E-01
RMM:   4    -0.232926458371E+04    0.43311E-03   -0.50342E-04  4870   0.143E-02    0.610E-02
RMM:   5    -0.232926459625E+04   -0.12536E-04   -0.17250E-04  3466   0.920E-03    0.717E-02
RMM:   6    -0.232926452999E+04    0.66261E-04   -0.12605E-04  4247   0.879E-03    0.206E-02
RMM:   7    -0.232926452823E+04    0.17613E-05   -0.24112E-05  3043   0.546E-03
  79 F= -.23507351E+04 E0= -.23507337E+04  d E =-.111330E-02  mag=     3.9705
       N       E                     dE             d eps       ncg     rms          rms(c)
DAV:   1    -0.232926313242E+04    0.13976E-02   -0.28528E-01  4536   0.572E-01    0.152E-01
RMM:   2    -0.232926561225E+04   -0.24798E-02   -0.25579E-02  6173   0.125E-01    0.126E-01
RMM:   3    -0.232926586155E+04   -0.24930E-03   -0.21407E-03  5347   0.390E-02    0.170E-01
RMM:   4    -0.232926557707E+04    0.28448E-03   -0.28140E-04  3914   0.112E-02    0.452E-02
RMM:   5    -0.232926556819E+04    0.88885E-05   -0.10214E-04  3471   0.794E-03    0.420E-02
RMM:   6    -0.232926555333E+04    0.14853E-04   -0.60885E-05  3023   0.678E-03    0.242E-02
RMM:   7    -0.232926554711E+04    0.62250E-05   -0.19126E-05  2980   0.521E-03
  80 F= -.23507360E+04 E0= -.23507346E+04  d E =-.901404E-03  mag=     3.9693
       N       E                     dE             d eps       ncg     rms          rms(c)
DAV:   1    -0.232926477990E+04    0.77344E-03   -0.11215E-01  4640   0.359E-01    0.963E-02
RMM:   2    -0.232926576594E+04   -0.98604E-03   -0.10131E-02  6290   0.789E-02    0.810E-02
RMM:   3    -0.232926585508E+04   -0.89146E-04   -0.83753E-04  4294   0.242E-02    0.105E-01
RMM:   4    -0.232926574601E+04    0.10908E-03   -0.10976E-04  3200   0.809E-03    0.305E-02
RMM:   5    -0.232926574611E+04   -0.10553E-06   -0.42760E-05  2987   0.544E-03
  81 F= -.23507361E+04 E0= -.23507347E+04  d E =-.102623E-02  mag=     3.9687
       N       E                     dE             d eps       ncg     rms          rms(c)
DAV:   1    -0.232926536350E+04    0.38251E-03   -0.19017E-01  4544   0.466E-01    0.136E-01
RMM:   2    -0.232926657948E+04   -0.12160E-02   -0.13220E-02  6156   0.968E-02    0.597E-02
RMM:   3    -0.232926662785E+04   -0.48362E-04   -0.10282E-03  4911   0.320E-02    0.655E-02
RMM:   4    -0.232926661072E+04    0.17122E-04   -0.13364E-04  3272   0.848E-03    0.550E-02
RMM:   5    -0.232926658983E+04    0.20891E-04   -0.65841E-05  3261   0.712E-03    0.331E-02
RMM:   6    -0.232926658166E+04    0.81750E-05   -0.30414E-05  2945   0.568E-03
  82 F= -.23507369E+04 E0= -.23507354E+04  d E =-.723799E-03  mag=     3.9679
       N       E                     dE             d eps       ncg     rms          rms(c)
DAV:   1    -0.232926635875E+04    0.23109E-03   -0.52884E-02  4736   0.246E-01    0.727E-02
RMM:   2    -0.232926670651E+04   -0.34777E-03   -0.37509E-03  6214   0.508E-02    0.368E-02
RMM:   3    -0.232926673244E+04   -0.25928E-04   -0.31394E-04  3642   0.155E-02    0.530E-02
RMM:   4    -0.232926670780E+04    0.24640E-04   -0.41812E-05  2977   0.566E-03    0.243E-02
RMM:   5    -0.232926670758E+04    0.22107E-06   -0.19591E-05  2927   0.381E-03
  83 F= -.23507369E+04 E0= -.23507355E+04  d E =-.790324E-03  mag=     3.9677
       N       E                     dE             d eps       ncg     rms          rms(c)
DAV:   1    -0.232926639175E+04    0.31605E-03   -0.13845E-01  4544   0.395E-01    0.104E-01
RMM:   2    -0.232926732187E+04   -0.93011E-03   -0.10008E-02  6147   0.823E-02    0.494E-02
RMM:   3    -0.232926732924E+04   -0.73742E-05   -0.81824E-04  4716   0.261E-02    0.435E-02
RMM:   4    -0.232926733266E+04   -0.34222E-05   -0.10029E-04  3097   0.742E-03    0.437E-02
RMM:   5    -0.232926731668E+04    0.15982E-04   -0.47594E-05  3176   0.607E-03    0.336E-02
RMM:   6    -0.232926730864E+04    0.80406E-05   -0.22539E-05  2930   0.515E-03
  84 F= -.23507374E+04 E0= -.23507359E+04  d E =-.507646E-03  mag=     3.9669
       N       E                     dE             d eps       ncg     rms          rms(c)
DAV:   1    -0.232926721525E+04    0.10143E-03   -0.24219E-02  4832   0.165E-01    0.453E-02
RMM:   2    -0.232926738021E+04   -0.16496E-03   -0.17678E-03  6081   0.347E-02    0.254E-02
RMM:   3    -0.232926738929E+04   -0.90785E-05   -0.14498E-04  3231   0.108E-02    0.289E-02
RMM:   4    -0.232926738005E+04    0.92420E-05   -0.19347E-05  2940   0.377E-03
  85 F= -.23507375E+04 E0= -.23507360E+04  d E =-.539736E-03  mag=     3.9664
       N       E                     dE             d eps       ncg     rms          rms(c)
DAV:   1    -0.232926713956E+04    0.24973E-03   -0.11621E-01  4544   0.364E-01    0.102E-01
RMM:   2    -0.232926785170E+04   -0.71214E-03   -0.75460E-03  6062   0.742E-02    0.603E-02
RMM:   3    -0.232926789072E+04   -0.39019E-04   -0.65356E-04  4811   0.256E-02    0.803E-02
RMM:   4    -0.232926781499E+04    0.75725E-04   -0.91119E-05  3048   0.773E-03    0.312E-02
RMM:   5    -0.232926782610E+04   -0.11104E-04   -0.46770E-05  3066   0.580E-03    0.487E-02
RMM:   6    -0.232926780062E+04    0.25471E-04   -0.30806E-05  2980   0.552E-03    0.970E-03
RMM:   7    -0.232926780054E+04    0.88359E-07   -0.10064E-05  2919   0.420E-03
  86 F= -.23507378E+04 E0= -.23507363E+04  d E =-.369777E-03  mag=     3.9655
       N       E                     dE             d eps       ncg     rms          rms(c)
DAV:   1    -0.232926778481E+04    0.15816E-04   -0.49814E-03  5144   0.756E-02    0.222E-02
RMM:   2    -0.232926781583E+04   -0.31019E-04   -0.33592E-04  5374   0.163E-02    0.120E-02
RMM:   3    -0.232926781797E+04   -0.21410E-05   -0.32473E-05  2932   0.634E-03
  87 F= -.23507378E+04 E0= -.23507363E+04  d E =-.376588E-03  mag=     3.9652
       N       E                     dE             d eps       ncg     rms          rms(c)
DAV:   1    -0.232926746768E+04    0.34814E-03   -0.11605E-01  4544   0.364E-01    0.917E-02
RMM:   2    -0.232926823350E+04   -0.76582E-03   -0.81136E-03  6073   0.737E-02    0.495E-02
RMM:   3    -0.232926826815E+04   -0.34652E-04   -0.62975E-04  4454   0.236E-02    0.538E-02
RMM:   4    -0.232926823770E+04    0.30458E-04   -0.82436E-05  3002   0.694E-03    0.296E-02
RMM:   5    -0.232926823767E+04    0.22163E-07   -0.34976E-05  3020   0.530E-03
  88 F= -.23507382E+04 E0= -.23507367E+04  d E =-.366410E-03  mag=     3.9646
       N       E                     dE             d eps       ncg     rms          rms(c)
DAV:   1    -0.232926786777E+04    0.36992E-03   -0.66551E-02  4544   0.276E-01    0.717E-02
RMM:   2    -0.232926833241E+04   -0.46464E-03   -0.47127E-03  6335   0.572E-02    0.612E-02
RMM:   3    -0.232926836447E+04   -0.32060E-04   -0.45301E-04  3865   0.182E-02    0.767E-02
RMM:   4    -0.232926831219E+04    0.52280E-04   -0.60441E-05  3047   0.694E-03    0.320E-02
RMM:   5    -0.232926830528E+04    0.69128E-05   -0.22581E-05  2943   0.412E-03
  89 F= -.23507382E+04 E0= -.23507366E+04  d E =-.393349E-03  mag=     3.9640
       N       E                     dE             d eps       ncg     rms          rms(c)
DAV:   1    -0.232926813097E+04    0.18122E-03   -0.55941E-02  4608   0.255E-01    0.636E-02
RMM:   2    -0.232926858406E+04   -0.45309E-03   -0.47962E-03  6157   0.539E-02    0.304E-02
RMM:   3    -0.232926860973E+04   -0.25677E-04   -0.39413E-04  3826   0.176E-02    0.323E-02
RMM:   4    -0.232926860093E+04    0.87990E-05   -0.47356E-05  2984   0.500E-03
  90 F= -.23507385E+04 E0= -.23507369E+04  d E =-.244339E-03  mag=     3.9632
       N       E                     dE             d eps       ncg     rms          rms(c)
DAV:   1    -0.232926751619E+04    0.10935E-02   -0.16139E-01  4536   0.433E-01    0.109E-01
RMM:   2    -0.232926885313E+04   -0.13369E-02   -0.13801E-02  6227   0.906E-02    0.813E-02
RMM:   3    -0.232926899970E+04   -0.14657E-03   -0.12669E-03  4624   0.275E-02    0.126E-01
RMM:   4    -0.232926885572E+04    0.14398E-03   -0.15619E-04  3264   0.868E-03    0.358E-02
RMM:   5    -0.232926885471E+04    0.10044E-05   -0.49776E-05  2986   0.550E-03
  91 F= -.23507387E+04 E0= -.23507369E+04  d E =-.411278E-03  mag=     3.9618
       N       E                     dE             d eps       ncg     rms          rms(c)
DAV:   1    -0.232926875636E+04    0.99357E-04   -0.41574E-02  4656   0.225E-01    0.674E-02
RMM:   2    -0.232926914788E+04   -0.39152E-03   -0.41641E-03  6302   0.506E-02    0.351E-02
RMM:   3    -0.232926917769E+04   -0.29806E-04   -0.37478E-04  3739   0.164E-02    0.452E-02
RMM:   4    -0.232926915361E+04    0.24078E-04   -0.44868E-05  2958   0.561E-03    0.187E-02
RMM:   5    -0.232926915752E+04   -0.39125E-05   -0.20334E-05  2940   0.401E-03
  92 F= -.23507389E+04 E0= -.23507371E+04  d E =-.280176E-03  mag=     3.9601
[...]
RMM:  11    -0.232927424853E+04    0.99386E-04   -0.71347E-05  3101   0.411E-03    0.174E-01
RMM:  12    -0.232927420705E+04    0.41482E-04   -0.12504E-05  2833   0.287E-03    0.178E-01
RMM:  13    -0.232927443737E+04   -0.23032E-03   -0.13191E-04  3181   0.559E-03    0.172E-01
RMM:  14    -0.232927471203E+04   -0.27466E-03   -0.33535E-04  4120   0.851E-03    0.169E-01
RMM:  15    -0.232927457257E+04    0.13946E-03   -0.53219E-05  2946   0.477E-03    0.155E-01
RMM:  16    -0.232927424011E+04    0.33246E-03   -0.47944E-04  4355   0.103E-02    0.174E-01
RMM:  17    -0.232927430637E+04   -0.66259E-04   -0.21284E-05  2762   0.440E-03    0.179E-01
RMM:  18    -0.232927439711E+04   -0.90741E-04   -0.33438E-05  2813   0.313E-03    0.171E-01
RMM:  19    -0.232927447819E+04   -0.81074E-04   -0.41009E-05  2887   0.322E-03    0.163E-01
RMM:  20    -0.232927445996E+04    0.18228E-04   -0.22438E-06  2465   0.192E-03    0.161E-01
RMM:  21    -0.232927439236E+04    0.67597E-04   -0.19182E-05  2571   0.222E-03    0.165E-01
RMM:  22    -0.232927424413E+04    0.14823E-03   -0.10683E-04  3211   0.461E-03    0.179E-01
RMM:  23    -0.232927433618E+04   -0.92048E-04   -0.24709E-05  2749   0.327E-03    0.176E-01
RMM:  24    -0.232927488698E+04   -0.55080E-03   -0.11964E-03  4714   0.159E-02    0.175E-01
RMM:  25    -0.232927501573E+04   -0.12874E-03   -0.28006E-04  3679   0.990E-03    0.166E-01
RMM:  26    -0.232927468003E+04    0.33570E-03   -0.42058E-04  3922   0.102E-02    0.138E-01
RMM:  27    -0.232927425466E+04    0.42537E-03   -0.87589E-04  4635   0.141E-02    0.168E-01
RMM:  28    -0.232927360917E+04    0.64548E-03   -0.12788E-03  4777   0.167E-02    0.246E-01
RMM:  29    -0.232927371768E+04   -0.10851E-03   -0.62721E-05  2998   0.632E-03    0.242E-01
RMM:  30    -0.232927376688E+04   -0.49193E-04   -0.10205E-05  2686   0.245E-03    0.234E-01
RMM:  31    -0.232927425688E+04   -0.49001E-03   -0.63401E-04  4448   0.117E-02    0.184E-01
RMM:  32    -0.232927497504E+04   -0.71816E-03   -0.22133E-03  5070   0.222E-02    0.178E-01
RMM:  33    -0.232927602051E+04   -0.10455E-02   -0.29147E-03  5183   0.253E-02    0.299E-01
RMM:  34    -0.232927586649E+04    0.15402E-03   -0.20250E-04  3249   0.996E-03    0.236E-01
RMM:  35    -0.232927630498E+04   -0.43848E-03   -0.24982E-04  3927   0.747E-03    0.322E-01
RMM:  36    -0.232927628463E+04    0.20353E-04   -0.16704E-05  2903   0.421E-03    0.297E-01
RMM:  37    -0.232927615329E+04    0.13133E-03   -0.14164E-05  2620   0.253E-03    0.281E-01
RMM:  38    -0.232927633881E+04   -0.18552E-03   -0.20247E-05  2695   0.258E-03    0.319E-01
RMM:  39    -0.232927623916E+04    0.99652E-04   -0.87415E-06  2518   0.227E-03    0.295E-01
RMM:  40    -0.232927650933E+04   -0.27016E-03   -0.43208E-05  2904   0.337E-03    0.346E-01
RMM:  41    -0.232927636182E+04    0.14750E-03   -0.13151E-05  2654   0.300E-03    0.310E-01
RMM:  42    -0.232927641035E+04   -0.48531E-04   -0.14892E-06  2150   0.126E-03    0.329E-01
RMM:  43    -0.232927604739E+04    0.36297E-03   -0.12666E-04  3302   0.534E-03    0.265E-01
RMM:  44    -0.232927606988E+04   -0.22493E-04   -0.84556E-06  2582   0.306E-03    0.291E-01
RMM:  45    -0.232927612383E+04   -0.53947E-04   -0.28921E-06  2037   0.132E-03    0.295E-01
RMM:  46    -0.232927611878E+04    0.50488E-05   -0.28697E-07  1419   0.784E-04
 170 F= -.23507457E+04 E0= -.23507345E+04  d E =-.126335E-02  mag=     3.6092
       N       E                     dE             d eps       ncg     rms          rms(c)
DAV:   1    -0.232927616805E+04   -0.44225E-04   -0.47791E-06  3080   0.203E-03    0.301E-01
RMM:   2    -0.232927806088E+04   -0.18928E-02   -0.28216E-03  5077   0.245E-02    0.451E-01
RMM:   3    -0.232927771807E+04    0.34281E-03   -0.22837E-04  3283   0.921E-03    0.449E-01
RMM:   4    -0.232927576231E+04    0.19558E-02   -0.64192E-03  5077   0.372E-02    0.229E-01
RMM:   5    -0.232927504841E+04    0.71390E-03   -0.88436E-04  4173   0.191E-02    0.259E-01
RMM:   6    -0.232927466111E+04    0.38730E-03   -0.39171E-04  4076   0.873E-03    0.234E-01
RMM:   7    -0.232927427914E+04    0.38196E-03   -0.15915E-04  3581   0.746E-03    0.217E-01
RMM:   8    -0.232927383356E+04    0.44558E-03   -0.26065E-04  4193   0.834E-03    0.212E-01
RMM:   9    -0.232927265035E+04    0.11832E-02   -0.13205E-03  4675   0.176E-02    0.230E-01
RMM:  10    -0.232927751247E+04   -0.48621E-02   -0.13821E-02  5175   0.544E-02    0.557E-01
RMM:  11    -0.232927541135E+04    0.21011E-02   -0.40797E-03  5360   0.360E-02    0.906E-02
RMM:  12    -0.232927482106E+04    0.59029E-03   -0.28950E-04  3484   0.136E-02    0.172E-01
RMM:  13    -0.232927476552E+04    0.55536E-04   -0.68486E-05  3079   0.397E-03    0.154E-01
RMM:  14    -0.232927469984E+04    0.65689E-04   -0.21208E-05  2857   0.316E-03    0.152E-01
RMM:  15    -0.232927450249E+04    0.19735E-03   -0.15152E-04  3603   0.608E-03    0.141E-01
RMM:  16    -0.232927401865E+04    0.48384E-03   -0.80515E-04  4674   0.134E-02    0.161E-01
RMM:  17    -0.232927345397E+04    0.56468E-03   -0.73210E-04  4386   0.137E-02    0.229E-01
RMM:  18    -0.232927406544E+04   -0.61147E-03   -0.49858E-04  4191   0.112E-02    0.176E-01
RMM:  19    -0.232927401826E+04    0.47181E-04   -0.20540E-05  2852   0.404E-03    0.166E-01
RMM:  20    -0.232927450692E+04   -0.48866E-03   -0.69083E-04  4582   0.121E-02    0.145E-01
RMM:  21    -0.232927520847E+04   -0.70155E-03   -0.18234E-03  4980   0.207E-02    0.185E-01
RMM:  22    -0.232927590887E+04   -0.70040E-03   -0.13952E-03  4753   0.178E-02    0.271E-01
RMM:  23    -0.232927687198E+04   -0.96311E-03   -0.10922E-03  4696   0.161E-02    0.398E-01
RMM:  24    -0.232927688155E+04   -0.95632E-05   -0.11492E-04  3123   0.730E-03    0.365E-01
RMM:  25    -0.232927701550E+04   -0.13395E-03   -0.24294E-05  2898   0.345E-03    0.397E-01
RMM:  26    -0.232927703264E+04   -0.17137E-04   -0.33194E-06  2645   0.245E-03    0.395E-01
RMM:  27    -0.232927707287E+04   -0.40238E-04   -0.23627E-06  2428   0.143E-03    0.405E-01
RMM:  28    -0.232927705586E+04    0.17020E-04   -0.61248E-07  2298   0.121E-03    0.399E-01
RMM:  29    -0.232927695738E+04    0.98479E-04   -0.53146E-06  2263   0.129E-03    0.386E-01
RMM:  30    -0.232927658208E+04    0.37529E-03   -0.94934E-05  3193   0.445E-03    0.331E-01
RMM:  31    -0.232927606836E+04    0.51373E-03   -0.26895E-04  3931   0.730E-03    0.262E-01
RMM:  32    -0.232927548617E+04    0.58219E-03   -0.62315E-04  4391   0.115E-02    0.185E-01
RMM:  33    -0.232927504489E+04    0.44127E-03   -0.63309E-04  4452   0.122E-02    0.148E-01
RMM:  34    -0.232927475418E+04    0.29071E-03   -0.46488E-04  4203   0.107E-02    0.140E-01
RMM:  35    -0.232927473819E+04    0.15994E-04   -0.45394E-05  2987   0.489E-03    0.150E-01
RMM:  36    -0.232927470610E+04    0.32091E-04   -0.11668E-05  2787   0.254E-03    0.146E-01
RMM:  37    -0.232927473947E+04   -0.33373E-04   -0.37378E-06  2647   0.209E-03    0.151E-01
RMM:  38    -0.232927473625E+04    0.32236E-05   -0.43582E-07  2079   0.877E-04
 171 F= -.23507444E+04 E0= -.23507369E+04  d E =0.119175E-03  mag=     3.7963
       N       E                     dE             d eps       ncg     rms          rms(c)
DAV:   1    -0.232927474559E+04   -0.61192E-05   -0.77042E-07  3312   0.104E-03    0.150E-01
RMM:   2    -0.232927519290E+04   -0.44731E-03   -0.71927E-04  4462   0.123E-02    0.200E-01
RMM:   3    -0.232927510112E+04    0.91781E-04   -0.23123E-04  3260   0.818E-03    0.225E-01
RMM:   4    -0.232927482232E+04    0.27880E-03   -0.12305E-03  4617   0.171E-02    0.229E-01
RMM:   5    -0.232927447866E+04    0.34366E-03   -0.38044E-04  3868   0.109E-02    0.226E-01
RMM:   6    -0.232927427807E+04    0.20059E-03   -0.15783E-04  3489   0.633E-03    0.233E-01
RMM:   7    -0.232927557033E+04   -0.12923E-02   -0.40497E-03  4917   0.301E-02    0.304E-01
RMM:   8    -0.232927497300E+04    0.59733E-03   -0.83556E-04  4820   0.167E-02    0.162E-01
RMM:   9    -0.232927438061E+04    0.59239E-03   -0.91564E-04  4571   0.141E-02    0.164E-01
RMM:  10    -0.232927401111E+04    0.36951E-03   -0.52480E-04  4137   0.117E-02    0.191E-01
RMM:  11    -0.232927429863E+04   -0.28752E-03   -0.14201E-04  3444   0.701E-03    0.178E-01
RMM:  12    -0.232927500805E+04   -0.70942E-03   -0.17960E-03  4898   0.197E-02    0.179E-01
RMM:  13    -0.232927515569E+04   -0.14764E-03   -0.39723E-04  3925   0.118E-02    0.172E-01
RMM:  14    -0.232927512937E+04    0.26314E-04   -0.30970E-05  2881   0.352E-03    0.162E-01
RMM:  15    -0.232927497525E+04    0.15412E-03   -0.89607E-05  3164   0.477E-03    0.151E-01
RMM:  16    -0.232927440841E+04    0.56684E-03   -0.18697E-03  4916   0.198E-02    0.157E-01
RMM:  17    -0.232927409099E+04    0.31742E-03   -0.50670E-04  4145   0.131E-02    0.199E-01
RMM:  18    -0.232927445456E+04   -0.36357E-03   -0.34439E-04  3853   0.926E-03    0.176E-01
RMM:  19    -0.232927514495E+04   -0.69039E-03   -0.19040E-03  4887   0.201E-02    0.199E-01
RMM:  20    -0.232927530596E+04   -0.16101E-03   -0.39952E-04  3971   0.114E-02    0.197E-01
RMM:  21    -0.232927535535E+04   -0.49390E-04   -0.70246E-05  3072   0.424E-03    0.198E-01
RMM:  22    -0.232927536152E+04   -0.61695E-05   -0.46885E-06  2745   0.255E-03
 172 F= -.23507450E+04 E0= -.23507354E+04  d E =-.506096E-03  mag=     3.6787
       N       E                     dE             d eps       ncg     rms          rms(c)
DAV:   1    -0.232927549734E+04   -0.14199E-03   -0.85216E-05  4200   0.830E-03    0.216E-01
RMM:   2    -0.232927651678E+04   -0.10194E-02   -0.15776E-03  4952   0.184E-02    0.312E-01
RMM:   3    -0.232927627033E+04    0.24645E-03   -0.27524E-04  3427   0.100E-02    0.352E-01
RMM:   4    -0.232927547381E+04    0.79652E-03   -0.28293E-03  4884   0.253E-02    0.227E-01
RMM:   5    -0.232927507396E+04    0.39985E-03   -0.41872E-04  3676   0.130E-02    0.226E-01
RMM:   6    -0.232927467761E+04    0.39635E-03   -0.39077E-04  4198   0.919E-03    0.200E-01
RMM:   7    -0.232927472814E+04   -0.50525E-04   -0.19649E-05  2888   0.426E-03    0.212E-01
RMM:   8    -0.232927462694E+04    0.10120E-03   -0.10174E-04  3456   0.566E-03    0.193E-01
RMM:   9    -0.232927434838E+04    0.27856E-03   -0.26262E-04  3970   0.788E-03    0.167E-01
RMM:  10    -0.232927425618E+04    0.92199E-04   -0.90513E-05  3140   0.581E-03    0.178E-01
RMM:  11    -0.232927412009E+04    0.13609E-03   -0.72214E-05  3180   0.467E-03    0.182E-01
RMM:  12    -0.232927466661E+04   -0.54652E-03   -0.64334E-04  4213   0.122E-02    0.190E-01
RMM:  13    -0.232927547555E+04   -0.80894E-03   -0.17471E-03  4988   0.199E-02    0.262E-01
RMM:  14    -0.232927477614E+04    0.69941E-03   -0.14892E-03  4881   0.192E-02    0.120E-01
RMM:  15    -0.232927436098E+04    0.41516E-03   -0.58333E-04  4193   0.130E-02    0.155E-01
RMM:  16    -0.232927395958E+04    0.40140E-03   -0.77286E-04  4726   0.128E-02    0.191E-01
RMM:  17    -0.232927401563E+04   -0.56051E-04   -0.34972E-05  2976   0.553E-03    0.193E-01
RMM:  18    -0.232927411830E+04   -0.10267E-03   -0.30197E-05  2745   0.320E-03    0.180E-01
RMM:  19    -0.232927463858E+04   -0.52028E-03   -0.94320E-04  4597   0.140E-02    0.158E-01
RMM:  20    -0.232927521375E+04   -0.57517E-03   -0.14732E-03  4761   0.186E-02    0.191E-01
RMM:  21    -0.232927541920E+04   -0.20545E-03   -0.39490E-04  4062   0.100E-02    0.199E-01
RMM:  22    -0.232927547946E+04   -0.60264E-04   -0.52915E-05  2969   0.455E-03    0.201E-01
RMM:  23    -0.232927545447E+04    0.24991E-04   -0.40912E-06  2591   0.262E-03    0.195E-01
RMM:  24    -0.232927548445E+04   -0.29978E-04   -0.31821E-06  2557   0.164E-03    0.201E-01
RMM:  25    -0.232927535338E+04    0.13107E-03   -0.30305E-05  2756   0.309E-03    0.178E-01
RMM:  26    -0.232927463450E+04    0.71887E-03   -0.23137E-03  4957   0.219E-02    0.114E-01
RMM:  27    -0.232927388053E+04    0.75398E-03   -0.19911E-03  4701   0.230E-02    0.191E-01
RMM:  28    -0.232927367250E+04    0.20803E-03   -0.36897E-04  4065   0.916E-03    0.222E-01
RMM:  29    -0.232927364408E+04    0.28419E-04   -0.30026E-05  2942   0.402E-03    0.225E-01
RMM:  30    -0.232927363562E+04    0.84592E-05   -0.39335E-06  2645   0.213E-03
 173 F= -.23507433E+04 E0= -.23507391E+04  d E =0.121980E-02  mag=     3.9933
       N       E                     dE             d eps       ncg     rms          rms(c)
DAV:   1    -0.232927342011E+04    0.22398E-03   -0.13017E-04  4328   0.990E-03    0.252E-01
RMM:   2    -0.232927458131E+04   -0.11612E-02   -0.19588E-03  4849   0.208E-02    0.316E-01
RMM:   3    -0.232927436296E+04    0.21835E-03   -0.11089E-03  4602   0.164E-02    0.319E-01
RMM:   4    -0.232927415739E+04    0.20557E-03   -0.25845E-04  3616   0.691E-03    0.275E-01
RMM:   5    -0.232927421211E+04   -0.54727E-04   -0.79184E-04  4464   0.139E-02    0.324E-01
RMM:   6    -0.232927321501E+04    0.99710E-03   -0.14577E-03  4807   0.191E-02    0.301E-01
RMM:   7    -0.232927121053E+04    0.20045E-02   -0.22453E-02  5140   0.702E-02    0.506E-01
RMM:   8    -0.232927484570E+04   -0.36352E-02   -0.11198E-02  5499   0.547E-02    0.223E-01
RMM:   9    -0.232927445288E+04    0.39282E-03   -0.11449E-03  4748   0.214E-02    0.131E-01
RMM:  10    -0.232927466448E+04   -0.21160E-03   -0.50867E-04  4432   0.964E-03    0.153E-01
RMM:  11    -0.232927445967E+04    0.20481E-03   -0.27016E-04  3917   0.937E-03    0.117E-01
RMM:  12    -0.232927336820E+04    0.10915E-02   -0.53951E-03  5199   0.339E-02    0.254E-01
RMM:  13    -0.232927417225E+04   -0.80405E-03   -0.11465E-03  4864   0.188E-02    0.176E-01
RMM:  14    -0.232927443647E+04   -0.26422E-03   -0.49724E-04  4250   0.110E-02    0.141E-01
RMM:  15    -0.232927507716E+04   -0.64070E-03   -0.16651E-03  4940   0.190E-02    0.169E-01
RMM:  16    -0.232927498908E+04    0.88079E-04   -0.80160E-05  3058   0.769E-03    0.137E-01
RMM:  17    -0.232927487388E+04    0.11521E-03   -0.47222E-05  2897   0.416E-03    0.132E-01
RMM:  18    -0.232927474449E+04    0.12938E-03   -0.89767E-05  3200   0.461E-03    0.130E-01
RMM:  19    -0.232927411638E+04    0.62812E-03   -0.19625E-03  5102   0.203E-02    0.164E-01
RMM:  20    -0.232927347915E+04    0.63723E-03   -0.12279E-03  4564   0.178E-02    0.253E-01
RMM:  21    -0.232927326846E+04    0.21069E-03   -0.26612E-04  3731   0.773E-03    0.285E-01
RMM:  22    -0.232927323762E+04    0.30839E-04   -0.18967E-05  2899   0.393E-03    0.289E-01
RMM:  23    -0.232927322771E+04    0.99110E-05   -0.33905E-06  2642   0.185E-03
 174 F= -.23507429E+04 E0= -.23507394E+04  d E =0.162772E-02  mag=     4.0229
       N       E                     dE             d eps       ncg     rms          rms(c)
DAV:   1    -0.232927319542E+04    0.42196E-04   -0.37814E-06  3448   0.228E-03    0.294E-01
RMM:   2    -0.232927456857E+04   -0.13731E-02   -0.26113E-03  4991   0.240E-02    0.351E-01
RMM:   3    -0.232927441685E+04    0.15171E-03   -0.15565E-03  4942   0.196E-02    0.376E-01
RMM:   4    -0.232927364739E+04    0.76947E-03   -0.75456E-04  4417   0.125E-02    0.268E-01
RMM:   5    -0.232927305259E+04    0.59479E-03   -0.17157E-03  4704   0.206E-02    0.318E-01
RMM:   6    -0.232927171121E+04    0.13414E-02   -0.13778E-03  4784   0.203E-02    0.313E-01
RMM:   7    -0.232926951604E+04    0.21952E-02   -0.37349E-02  5109   0.899E-02    0.671E-01
RMM:   8    -0.232927475369E+04   -0.52376E-02   -0.11514E-02  5655   0.578E-02    0.242E-01
RMM:   9    -0.232927416836E+04    0.58533E-03   -0.11805E-03  4741   0.221E-02    0.137E-01
RMM:  10    -0.232927433301E+04   -0.16466E-03   -0.24469E-04  3842   0.733E-03    0.132E-01
RMM:  11    -0.232927449554E+04   -0.16253E-03   -0.15164E-04  3521   0.692E-03    0.133E-01
RMM:  12    -0.232927468124E+04   -0.18570E-03   -0.20029E-04  3783   0.761E-03    0.141E-01
RMM:  13    -0.232927442414E+04    0.25710E-03   -0.28036E-04  3770   0.885E-03    0.117E-01
RMM:  14    -0.232927172705E+04    0.26971E-02   -0.12147E-02  5277   0.512E-02    0.460E-01
RMM:  15    -0.232927460703E+04   -0.28800E-02   -0.74722E-03  5544   0.418E-02    0.179E-01
RMM:  16    -0.232927399861E+04    0.60842E-03   -0.40874E-04  3979   0.154E-02    0.172E-01
RMM:  17    -0.232927439722E+04   -0.39861E-03   -0.44868E-04  4178   0.100E-02    0.154E-01
RMM:  18    -0.232927473715E+04   -0.33994E-03   -0.62310E-04  4458   0.121E-02    0.146E-01
RMM:  19    -0.232927515015E+04   -0.41300E-03   -0.77293E-04  4571   0.134E-02    0.176E-01
RMM:  20    -0.232927492910E+04    0.22106E-03   -0.11395E-04  3264   0.703E-03    0.131E-01
RMM:  21    -0.232927470865E+04    0.22045E-03   -0.22214E-04  3658   0.732E-03    0.129E-01
RMM:  22    -0.232927450305E+04    0.20560E-03   -0.23929E-04  3781   0.759E-03    0.135E-01
RMM:  23    -0.232927394054E+04    0.56251E-03   -0.13014E-03  4920   0.166E-02    0.185E-01
RMM:  24    -0.232927287965E+04    0.10609E-02   -0.19724E-03  4987   0.210E-02    0.323E-01
RMM:  25    -0.232927246508E+04    0.41457E-03   -0.41341E-04  3992   0.105E-02    0.375E-01
RMM:  26    -0.232927247240E+04   -0.73231E-05   -0.30535E-05  2954   0.382E-03
 175 F= -.23507421E+04 E0= -.23507395E+04  d E =0.238302E-02  mag=     4.0733
       N       E                     dE             d eps       ncg     rms          rms(c)
DAV:   1    -0.232927255684E+04   -0.91757E-04   -0.23405E-03  5520   0.509E-02    0.356E-01
RMM:   2    -0.232927450391E+04   -0.19471E-02   -0.42452E-03  5395   0.313E-02    0.411E-01
RMM:   3    -0.232927442372E+04    0.80191E-04   -0.24997E-03  5031   0.256E-02    0.448E-01
RMM:   4    -0.232927275909E+04    0.16646E-02   -0.13730E-03  4753   0.179E-02    0.244E-01
RMM:   5    -0.232927240257E+04    0.35652E-03   -0.17368E-03  4768   0.214E-02    0.326E-01
RMM:   6    -0.232926987009E+04    0.25325E-02   -0.30522E-03  5156   0.283E-02    0.260E-01
RMM:   7    -0.232927102228E+04   -0.11522E-02   -0.60355E-04  4181   0.148E-02    0.156E-01
RMM:   8    -0.232927086578E+04    0.15650E-03   -0.28811E-02  5188   0.788E-02    0.602E-01
RMM:   9    -0.232926859608E+04    0.22697E-02   -0.36074E-03  4784   0.378E-02    0.764E-01
RMM:  10    -0.232927227391E+04   -0.36778E-02   -0.29733E-03  4885   0.260E-02    0.418E-01
RMM:  11    -0.232927321205E+04   -0.93814E-03   -0.16412E-03  4572   0.208E-02    0.270E-01
RMM:  12    -0.232927357609E+04   -0.36405E-03   -0.57097E-04  4497   0.112E-02    0.213E-01
RMM:  13    -0.232927372122E+04   -0.14512E-03   -0.91546E-05  3216   0.602E-03    0.194E-01
RMM:  14    -0.232927396672E+04   -0.24550E-03   -0.16266E-04  3687   0.674E-03    0.170E-01
RMM:  15    -0.232927437763E+04   -0.41091E-03   -0.56978E-04  4482   0.117E-02    0.146E-01
RMM:  16    -0.232927476209E+04   -0.38446E-03   -0.80662E-04  4526   0.140E-02    0.146E-01
RMM:  17    -0.232927478085E+04   -0.18762E-04   -0.79676E-05  3101   0.614E-03    0.133E-01
RMM:  18    -0.232927496520E+04   -0.18434E-03   -0.16884E-04  3712   0.634E-03    0.153E-01
RMM:  19    -0.232927483583E+04    0.12936E-03   -0.55499E-05  3044   0.519E-03    0.128E-01
RMM:  20    -0.232927448907E+04    0.34676E-03   -0.73712E-04  4534   0.125E-02    0.124E-01
RMM:  21    -0.232927411864E+04    0.37044E-03   -0.75153E-04  4342   0.138E-02    0.169E-01
RMM:  22    -0.232927406610E+04    0.52532E-04   -0.98399E-05  3162   0.529E-03    0.185E-01
RMM:  23    -0.232927395813E+04    0.10797E-03   -0.53482E-05  3062   0.426E-03    0.199E-01
RMM:  24    -0.232927397948E+04   -0.21348E-04   -0.48671E-06  2663   0.292E-03    0.200E-01
RMM:  25    -0.232927428391E+04   -0.30443E-03   -0.26770E-04  3618   0.774E-03    0.175E-01
RMM:  26    -0.232927459914E+04   -0.31523E-03   -0.55036E-04  4340   0.111E-02    0.157E-01
RMM:  27    -0.232927498281E+04   -0.38366E-03   -0.81395E-04  4511   0.130E-02    0.175E-01
RMM:  28    -0.232927492709E+04    0.55712E-04   -0.45365E-05  2945   0.556E-03    0.150E-01
RMM:  29    -0.232927491958E+04    0.75151E-05   -0.66529E-06  2665   0.196E-03
 176 F= -.23507446E+04 E0= -.23507363E+04  d E =-.720683E-04  mag=     3.7564
