       N       E                     dE             d eps       ncg     rms          rms(c)
DAV:   1     0.132009803338E+05    0.13201E+05   -0.85243E+05  4584   0.145E+03
DAV:   2    -0.102490962304E+04   -0.14226E+05   -0.13602E+05  4976   0.332E+02
DAV:   3    -0.249549594562E+04   -0.14706E+04   -0.14519E+04  5568   0.115E+02
DAV:   4    -0.254099314880E+04   -0.45497E+02   -0.45241E+02  6728   0.290E+01
DAV:   5    -0.254187917184E+04   -0.88602E+00   -0.88396E+00  6208   0.349E+00    0.171E+02
RMM:   6    -0.150452901375E+04    0.10374E+04   -0.19632E+03  4506   0.384E+01    0.746E+01
RMM:   7    -0.168422291738E+04   -0.17969E+03   -0.34407E+02  5232   0.148E+01    0.555E+01
RMM:   8    -0.172280367804E+04   -0.38581E+02   -0.88781E+01  5404   0.891E+00    0.442E+01
RMM:   9    -0.177152694464E+04   -0.48723E+02   -0.63869E+01  4974   0.697E+00    0.354E+01
RMM:  10    -0.190127336631E+04   -0.12975E+03   -0.77830E+01  5282   0.851E+00    0.361E+01
RMM:  11    -0.197585193076E+04   -0.74579E+02   -0.39531E+01  5510   0.583E+00    0.205E+01
RMM:  12    -0.204697377201E+04   -0.71122E+02   -0.28543E+01  5239   0.456E+00    0.197E+01
RMM:  13    -0.211136463046E+04   -0.64391E+02   -0.24824E+01  5072   0.401E+00    0.137E+01
RMM:  14    -0.219999702907E+04   -0.88632E+02   -0.52854E+01  4729   0.547E+00    0.115E+01
RMM:  15    -0.228756318240E+04   -0.87566E+02   -0.74122E+01  4678   0.608E+00    0.749E+00
RMM:  16    -0.232152351673E+04   -0.33960E+02   -0.34549E+01  4643   0.430E+00    0.451E+00
RMM:  17    -0.232764893426E+04   -0.61254E+01   -0.79501E+00  5276   0.223E+00    0.304E+00
RMM:  18    -0.232985573836E+04   -0.22068E+01   -0.21275E+00  5382   0.888E-01    0.201E+00
RMM:  19    -0.233139494157E+04   -0.15392E+01   -0.11354E+00  4894   0.679E-01    0.148E+00
RMM:  20    -0.233192211792E+04   -0.52718E+00   -0.52668E-01  4867   0.435E-01    0.747E-01
RMM:  21    -0.233215766471E+04   -0.23555E+00   -0.26565E-01  4766   0.273E-01    0.467E-01
RMM:  22    -0.233221819920E+04   -0.60534E-01   -0.59335E-02  4939   0.157E-01    0.309E-01
RMM:  23    -0.233224116513E+04   -0.22966E-01   -0.15461E-02  5117   0.885E-02    0.148E-01
RMM:  24    -0.233225810715E+04   -0.16942E-01   -0.59934E-03  4675   0.598E-02    0.121E-01
RMM:  25    -0.233226859482E+04   -0.10488E-01   -0.27757E-03  4587   0.430E-02    0.758E-02
RMM:  26    -0.233227532520E+04   -0.67304E-02   -0.18480E-03  4609   0.332E-02    0.497E-02
RMM:  27    -0.233227917344E+04   -0.38482E-02   -0.11179E-03  4547   0.258E-02    0.384E-02
RMM:  28    -0.233228139903E+04   -0.22256E-02   -0.68959E-04  4275   0.197E-02    0.196E-02
RMM:  29    -0.233228206035E+04   -0.66131E-03   -0.23232E-04  4139   0.131E-02    0.999E-03
RMM:  30    -0.233228230055E+04   -0.24021E-03   -0.69212E-05  3681   0.691E-03    0.547E-03
RMM:  31    -0.233228242597E+04   -0.12542E-03   -0.23756E-05  3145   0.506E-03    0.330E-03
RMM:  32    -0.233228248880E+04   -0.62830E-04   -0.13569E-05  2965   0.348E-03    0.224E-03
RMM:  33    -0.233228251201E+04   -0.23202E-04   -0.61638E-06  2853   0.287E-03    0.119E-03
RMM:  34    -0.233228251908E+04   -0.70692E-05   -0.33930E-06  2474   0.214E-03
   1 F= -.23537928E+04 E0= -.23537928E+04  d E =-.235379E+04  mag=     4.9999
       N       E                     dE             d eps       ncg     rms          rms(c)
DAV:   1    -0.233213483805E+04    0.14767E+00   -0.33253E+01  4960   0.502E+00    0.165E+00
RMM:   2    -0.233254523305E+04   -0.41039E+00   -0.43840E+00  6320   0.130E+00    0.137E+00
RMM:   3    -0.233255583747E+04   -0.10604E-01   -0.41385E-01  6218   0.415E-01    0.120E+00
RMM:   4    -0.233254130240E+04    0.14535E-01   -0.39737E-02  6092   0.104E-01    0.661E-01
RMM:   5    -0.233253642196E+04    0.48804E-02   -0.13194E-02  6083   0.679E-02    0.559E-01
RMM:   6    -0.233253246184E+04    0.39601E-02   -0.14109E-02  5568   0.672E-02    0.342E-01
RMM:   7    -0.233253106661E+04    0.13952E-02   -0.34838E-03  5416   0.410E-02    0.141E-01
RMM:   8    -0.233253089946E+04    0.16715E-03   -0.65898E-04  5106   0.152E-02    0.110E-01
RMM:   9    -0.233253073156E+04    0.16790E-03   -0.27201E-04  4376   0.112E-02    0.494E-02
RMM:  10    -0.233253068148E+04    0.50076E-04   -0.17898E-04  4440   0.860E-03    0.220E-02
RMM:  11    -0.233253068107E+04    0.41434E-06   -0.44780E-05  3508   0.671E-03
   2 F= -.23540441E+04 E0= -.23540441E+04  d E =-.251289E+00  mag=     5.0000
       N       E                     dE             d eps       ncg     rms          rms(c)
DAV:   1    -0.233250785750E+04    0.22824E-01   -0.32330E+00  4888   0.164E+00    0.510E-01
RMM:   2    -0.233254617146E+04   -0.38314E-01   -0.41148E-01  6334   0.417E-01    0.439E-01
RMM:   3    -0.233254733935E+04   -0.11679E-02   -0.39880E-02  6192   0.129E-01    0.386E-01
RMM:   4    -0.233254589615E+04    0.14432E-02   -0.40766E-03  5644   0.340E-02    0.208E-01
RMM:   5    -0.233254537937E+04    0.51677E-03   -0.12785E-03  5666   0.216E-02    0.172E-01
RMM:   6    -0.233254500260E+04    0.37678E-03   -0.12512E-03  5419   0.215E-02    0.112E-01
RMM:   7    -0.233254483710E+04    0.16550E-03   -0.40273E-04  4629   0.136E-02    0.423E-02
RMM:   8    -0.233254482610E+04    0.10999E-04   -0.72519E-05  3155   0.623E-03    0.367E-02
RMM:   9    -0.233254480925E+04    0.16850E-04   -0.28187E-05  3034   0.470E-03    0.140E-02
RMM:  10    -0.233254481198E+04   -0.27375E-05   -0.23874E-05  3072   0.406E-03
   3 F= -.23540592E+04 E0= -.23540592E+04  d E =-.266455E+00  mag=     5.0000
       N       E                     dE             d eps       ncg     rms          rms(c)
DAV:   1    -0.233216361302E+04    0.38120E+00   -0.32261E+01  4608   0.574E+00    0.189E+00
RMM:   2    -0.233268139654E+04   -0.51778E+00   -0.55521E+00  6326   0.144E+00    0.142E+00
RMM:   3    -0.233271769955E+04   -0.36303E-01   -0.56109E-01  6129   0.507E-01    0.158E+00
RMM:   4    -0.233268973594E+04    0.27964E-01   -0.52453E-02  6560   0.123E-01    0.630E-01
RMM:   5    -0.233268592328E+04    0.38127E-02   -0.11600E-02  5945   0.553E-02    0.565E-01
RMM:   6    -0.233268140832E+04    0.45150E-02   -0.13777E-02  5689   0.654E-02    0.290E-01
RMM:   7    -0.233268068358E+04    0.72475E-03   -0.42272E-03  5856   0.415E-02    0.200E-01
RMM:   8    -0.233268024719E+04    0.43639E-03   -0.84452E-04  5225   0.173E-02    0.761E-02
RMM:   9    -0.233268013546E+04    0.11173E-03   -0.27841E-04  4272   0.111E-02    0.506E-02
RMM:  10    -0.233268007210E+04    0.63357E-04   -0.16667E-04  3903   0.846E-03    0.217E-02
RMM:  11    -0.233268005931E+04    0.12790E-04   -0.57186E-05  3491   0.593E-03    0.108E-02
RMM:  12    -0.233268005706E+04    0.22553E-05   -0.18375E-05  2981   0.495E-03
   4 F= -.23541973E+04 E0= -.23541973E+04  d E =-.138044E+00  mag=     5.0000
       N       E                     dE             d eps       ncg     rms          rms(c)
DAV:   1    -0.233265196522E+04    0.28094E-01   -0.20843E+00  4848   0.144E+00    0.480E-01
RMM:   2    -0.233268587347E+04   -0.33908E-01   -0.36020E-01  6355   0.366E-01    0.393E-01
RMM:   3    -0.233268762287E+04   -0.17494E-02   -0.34478E-02  6094   0.127E-01    0.402E-01
RMM:   4    -0.233268568645E+04    0.19364E-02   -0.32872E-03  5814   0.309E-02    0.152E-01
RMM:   5    -0.233268548234E+04    0.20410E-03   -0.86040E-04  5233   0.161E-02    0.152E-01
RMM:   6    -0.233268515417E+04    0.32818E-03   -0.78723E-04  5340   0.169E-02    0.613E-02
RMM:   7    -0.233268512650E+04    0.27664E-04   -0.22912E-04  4348   0.107E-02    0.473E-02
RMM:   8    -0.233268509946E+04    0.27042E-04   -0.47663E-05  3038   0.542E-03    0.169E-02
RMM:   9    -0.233268509364E+04    0.58224E-05   -0.16138E-05  3012   0.380E-03
   5 F= -.23542030E+04 E0= -.23542030E+04  d E =-.143809E+00  mag=     5.0000
       N       E                     dE             d eps       ncg     rms          rms(c)
DAV:   1    -0.233247861807E+04    0.20648E+00   -0.16652E+01  4592   0.405E+00    0.134E+00
RMM:   2    -0.233274773419E+04   -0.26912E+00   -0.28097E+00  6357   0.103E+00    0.128E+00
RMM:   3    -0.233275766179E+04   -0.99276E-02   -0.25824E-01  6051   0.366E-01    0.119E+00
RMM:   4    -0.233274189914E+04    0.15763E-01   -0.25669E-02  6119   0.905E-02    0.425E-01
RMM:   5    -0.233274109588E+04    0.80326E-03   -0.68723E-03  5998   0.451E-02    0.446E-01
RMM:   6    -0.233273859351E+04    0.25024E-02   -0.53238E-03  5494   0.426E-02    0.161E-01
RMM:   7    -0.233273845776E+04    0.13574E-03   -0.15028E-03  5425   0.264E-02    0.106E-01
RMM:   8    -0.233273830400E+04    0.15377E-03   -0.32817E-04  4228   0.119E-02    0.529E-02
RMM:   9    -0.233273825871E+04    0.45286E-04   -0.11427E-04  3433   0.775E-03    0.277E-02
RMM:  10    -0.233273824792E+04    0.10785E-04   -0.54292E-05  3294   0.544E-03    0.145E-02
RMM:  11    -0.233273824809E+04   -0.16771E-06   -0.15225E-05  2936   0.458E-03
   6 F= -.23542570E+04 E0= -.23542570E+04  d E =-.539901E-01  mag=     5.0000
       N       E                     dE             d eps       ncg     rms          rms(c)
DAV:   1    -0.233273822181E+04    0.26110E-04   -0.31990E-03  5280   0.567E-02    0.199E-02
RMM:   2    -0.233273828232E+04   -0.60505E-04   -0.57272E-04  5246   0.158E-02    0.211E-02
RMM:   3    -0.233273828285E+04   -0.53333E-06   -0.50420E-05  2976   0.559E-03
   7 F= -.23542571E+04 E0= -.23542571E+04  d E =-.540125E-01  mag=     5.0000
       N       E                     dE             d eps       ncg     rms          rms(c)
DAV:   1    -0.233271000581E+04    0.28277E-01   -0.88996E+00  4576   0.267E+00    0.748E-01
RMM:   2    -0.233277704518E+04   -0.67039E-01   -0.69959E-01  6380   0.560E-01    0.492E-01
RMM:   3    -0.233278072929E+04   -0.36841E-02   -0.71314E-02  6162   0.188E-01    0.573E-01
RMM:   4    -0.233277683797E+04    0.38913E-02   -0.68392E-03  6156   0.484E-02    0.202E-01
RMM:   5    -0.233277639038E+04    0.44759E-03   -0.16636E-03  5619   0.235E-02    0.146E-01
RMM:   6    -0.233277619504E+04    0.19534E-03   -0.12088E-03  5185   0.217E-02    0.130E-01
RMM:   7    -0.233277603594E+04    0.15910E-03   -0.38783E-04  4380   0.155E-02    0.463E-02
RMM:   8    -0.233277601650E+04    0.19438E-04   -0.40307E-05  3136   0.497E-03    0.172E-02
RMM:   9    -0.233277601692E+04   -0.41768E-06   -0.17763E-05  2955   0.417E-03
   8 F= -.23542950E+04 E0= -.23542950E+04  d E =-.379138E-01  mag=     5.0000
       N       E                     dE             d eps       ncg     rms          rms(c)
DAV:   1    -0.233256147294E+04    0.21454E+00   -0.32129E+01  4536   0.510E+00    0.143E+00
RMM:   2    -0.233280665913E+04   -0.24519E+00   -0.25619E+00  6386   0.106E+00    0.956E-01
RMM:   3    -0.233281927994E+04   -0.12621E-01   -0.26908E-01  6195   0.363E-01    0.110E+00
RMM:   4    -0.233280521616E+04    0.14064E-01   -0.25094E-02  6428   0.923E-02    0.405E-01
RMM:   5    -0.233280349129E+04    0.17249E-02   -0.62287E-03  5939   0.441E-02    0.293E-01
RMM:   6    -0.233280292071E+04    0.57057E-03   -0.46994E-03  5242   0.409E-02    0.296E-01
RMM:   7    -0.233280202335E+04    0.89736E-03   -0.16806E-03  5242   0.307E-02    0.794E-02
RMM:   8    -0.233280197028E+04    0.53071E-04   -0.18594E-04  4110   0.896E-03    0.361E-02
RMM:   9    -0.233280196357E+04    0.67102E-05   -0.74838E-05  3284   0.837E-03
   9 F= -.23543211E+04 E0= -.23543211E+04  d E =-.640777E-01  mag=     5.0000
       N       E                     dE             d eps       ncg     rms          rms(c)
DAV:   1    -0.233280410186E+04   -0.21316E-02   -0.22340E+00  4752   0.127E+00    0.349E-01
RMM:   2    -0.233282131494E+04   -0.17213E-01   -0.17930E-01  6459   0.270E-01    0.215E-01
RMM:   3    -0.233282229309E+04   -0.97816E-03   -0.16252E-02  6006   0.841E-02    0.268E-01
RMM:   4    -0.233282149423E+04    0.79886E-03   -0.17067E-03  5026   0.220E-02    0.954E-02
RMM:   5    -0.233282139575E+04    0.98476E-04   -0.35413E-04  4734   0.120E-02    0.629E-02
RMM:   6    -0.233282136084E+04    0.34918E-04   -0.21948E-04  4397   0.105E-02    0.416E-02
RMM:   7    -0.233282135172E+04    0.91210E-05   -0.55649E-05  3004   0.706E-03
  10 F= -.23543405E+04 E0= -.23543405E+04  d E =-.193238E-01  mag=     5.0000
       N       E                     dE             d eps       ncg     rms          rms(c)
DAV:   1    -0.233270730577E+04    0.11406E+00   -0.20063E+01  4536   0.379E+00    0.105E+00
RMM:   2    -0.233286292096E+04   -0.15562E+00   -0.16331E+00  6450   0.797E-01    0.629E-01
RMM:   3    -0.233287113219E+04   -0.82112E-02   -0.15314E-01  6208   0.255E-01    0.772E-01
RMM:   4    -0.233286465343E+04    0.64788E-02   -0.15325E-02  6354   0.645E-02    0.303E-01
RMM:   5    -0.233286362231E+04    0.10311E-02   -0.30209E-03  5657   0.321E-02    0.198E-01
RMM:   6    -0.233286310404E+04    0.51827E-03   -0.22517E-03  5052   0.285E-02    0.826E-02
RMM:   7    -0.233286305457E+04    0.49464E-04   -0.37809E-04  4318   0.190E-02    0.747E-02
RMM:   8    -0.233286299772E+04    0.56852E-04   -0.92458E-05  3235   0.629E-03    0.292E-02
RMM:   9    -0.233286298709E+04    0.10635E-04   -0.42393E-05  3074   0.537E-03    0.263E-02
RMM:  10    -0.233286297507E+04    0.12013E-04   -0.23525E-05  2980   0.416E-03    0.115E-02
RMM:  11    -0.233286297091E+04    0.41654E-05   -0.10404E-05  2916   0.357E-03
  11 F= -.23543818E+04 E0= -.23543818E+04  d E =-.606674E-01  mag=     5.0000
       N       E                     dE             d eps       ncg     rms          rms(c)
DAV:   1    -0.233222323142E+04    0.63974E+00   -0.79943E+01  4536   0.751E+00    0.213E+00
RMM:   2    -0.233287956672E+04   -0.65634E+00   -0.69175E+00  6421   0.157E+00    0.127E+00
RMM:   3    -0.233290344233E+04   -0.23876E-01   -0.63076E-01  6166   0.513E-01    0.154E+00
RMM:   4    -0.233287882761E+04    0.24615E-01   -0.61308E-02  6558   0.126E-01    0.654E-01
RMM:   5    -0.233287434268E+04    0.44849E-02   -0.11647E-02  5851   0.619E-02    0.433E-01
RMM:   6    -0.233287188802E+04    0.24547E-02   -0.10701E-02  5012   0.605E-02    0.211E-01
RMM:   7    -0.233287174434E+04    0.14368E-03   -0.20985E-03  4825   0.423E-02    0.209E-01
RMM:   8    -0.233287131420E+04    0.43014E-03   -0.50691E-04  4931   0.136E-02    0.620E-02
RMM:   9    -0.233287124796E+04    0.66237E-04   -0.21759E-04  3899   0.110E-02    0.438E-02
RMM:  10    -0.233287121763E+04    0.30336E-04   -0.99112E-05  3443   0.655E-03    0.305E-02
RMM:  11    -0.233287119470E+04    0.22926E-04   -0.35900E-05  3097   0.590E-03    0.127E-02
RMM:  12    -0.233287118737E+04    0.73325E-05   -0.22336E-05  3037   0.472E-03
  12 F= -.23543891E+04 E0= -.23543891E+04  d E =-.679499E-01  mag=     5.0000
       N       E                     dE             d eps       ncg     rms          rms(c)
DAV:   1    -0.233276429982E+04    0.10689E+00   -0.14648E+01  4536   0.316E+00    0.888E-01
RMM:   2    -0.233287924768E+04   -0.11495E+00   -0.11968E+00  6432   0.689E-01    0.547E-01
RMM:   3    -0.233288638059E+04   -0.71329E-02   -0.10134E-01  6244   0.208E-01    0.686E-01
RMM:   4    -0.233288120437E+04    0.51762E-02   -0.11140E-02  6201   0.553E-02    0.250E-01
RMM:   5    -0.233288044103E+04    0.76334E-03   -0.24759E-03  5282   0.291E-02    0.183E-01
RMM:   6    -0.233288044837E+04   -0.73438E-05   -0.16950E-03  5482   0.249E-02    0.195E-01
RMM:   7    -0.233288006926E+04    0.37911E-03   -0.42191E-04  5080   0.139E-02    0.369E-02
RMM:   8    -0.233288005264E+04    0.16624E-04   -0.66361E-05  3089   0.655E-03    0.246E-02
RMM:   9    -0.233288004403E+04    0.86051E-05   -0.27869E-05  3003   0.447E-03
  13 F= -.23543984E+04 E0= -.23543984E+04  d E =-.772677E-01  mag=     5.0000
       N       E                     dE             d eps       ncg     rms          rms(c)
DAV:   1    -0.233285295338E+04    0.27099E-01   -0.66198E+00  4560   0.204E+00    0.623E-01
RMM:   2    -0.233291062228E+04   -0.57669E-01   -0.61021E-01  6451   0.460E-01    0.325E-01
RMM:   3    -0.233291248348E+04   -0.18612E-02   -0.49862E-02  6158   0.140E-01    0.331E-01
RMM:   4    -0.233291173275E+04    0.75073E-03   -0.50032E-03  5966   0.322E-02    0.186E-01
RMM:   5    -0.233291122608E+04    0.50667E-03   -0.11518E-03  5067   0.208E-02    0.789E-02
RMM:   6    -0.233291119844E+04    0.27634E-04   -0.41367E-04  4664   0.141E-02    0.408E-02
RMM:   7    -0.233291118468E+04    0.13762E-04   -0.83795E-05  3146   0.738E-03    0.341E-02
RMM:   8    -0.233291117390E+04    0.10783E-04   -0.24625E-05  2965   0.481E-03    0.233E-02
RMM:   9    -0.233291116902E+04    0.48793E-05   -0.12570E-05  2894   0.292E-03
  14 F= -.23544289E+04 E0= -.23544289E+04  d E =-.305242E-01  mag=     5.0000
       N       E                     dE             d eps       ncg     rms          rms(c)
DAV:   1    -0.233243161344E+04    0.47956E+00   -0.56443E+01  4536   0.593E+00    0.187E+00
RMM:   2    -0.233294970251E+04   -0.51809E+00   -0.54923E+00  6449   0.133E+00    0.100E+00
RMM:   3    -0.233296139054E+04   -0.11688E-01   -0.46968E-01  6202   0.435E-01    0.981E-01
RMM:   4    -0.233295466020E+04    0.67303E-02   -0.44807E-02  6638   0.965E-02    0.565E-01
RMM:   5    -0.233295058488E+04    0.40753E-02   -0.98550E-03  5732   0.578E-02    0.310E-01
RMM:   6    -0.233295061976E+04   -0.34880E-04   -0.65762E-03  5789   0.449E-02    0.314E-01
RMM:   7    -0.233294968358E+04    0.93618E-03   -0.17953E-03  5548   0.262E-02    0.143E-01
RMM:   8    -0.233294945833E+04    0.22525E-03   -0.38550E-04  4111   0.106E-02    0.559E-02
RMM:   9    -0.233294941601E+04    0.42319E-04   -0.12424E-04  3296   0.824E-03    0.307E-02
RMM:  10    -0.233294942489E+04   -0.88795E-05   -0.70713E-05  3268   0.633E-03
  15 F= -.23544653E+04 E0= -.23544653E+04  d E =-.668939E-01  mag=     5.0000
       N       E                     dE             d eps       ncg     rms          rms(c)
DAV:   1    -0.233291080727E+04    0.38609E-01   -0.91052E+00  4592   0.223E+00    0.710E-01
RMM:   2    -0.233297990732E+04   -0.69100E-01   -0.72593E-01  6414   0.484E-01    0.411E-01
RMM:   3    -0.233298329227E+04   -0.33850E-02   -0.63430E-02  6190   0.158E-01    0.457E-01
RMM:   4    -0.233298112646E+04    0.21658E-02   -0.64843E-03  6141   0.393E-02    0.210E-01
RMM:   5    -0.233298089293E+04    0.23354E-03   -0.14538E-03  5413   0.212E-02    0.217E-01
RMM:   6    -0.233298051890E+04    0.37403E-03   -0.12213E-03  5290   0.196E-02    0.105E-01
RMM:   7    -0.233298044566E+04    0.73238E-04   -0.30160E-04  4620   0.113E-02    0.350E-02
RMM:   8    -0.233298043809E+04    0.75714E-05   -0.43079E-05  3100   0.572E-03
  16 F= -.23544958E+04 E0= -.23544958E+04  d E =-.304736E-01  mag=     5.0000
       N       E                     dE             d eps       ncg     rms          rms(c)
DAV:   1    -0.233254367626E+04    0.43677E+00   -0.58660E+01  4568   0.565E+00    0.186E+00
RMM:   2    -0.233302233428E+04   -0.47866E+00   -0.50487E+00  6400   0.125E+00    0.110E+00
RMM:   3    -0.233303433065E+04   -0.11996E-01   -0.43195E-01  6194   0.406E-01    0.102E+00
RMM:   4    -0.233302524843E+04    0.90822E-02   -0.42261E-02  6612   0.971E-02    0.609E-01
RMM:   5    -0.233302267413E+04    0.25743E-02   -0.94468E-03  5916   0.515E-02    0.537E-01
RMM:   6    -0.233302063609E+04    0.20380E-02   -0.87465E-03  5984   0.498E-02    0.340E-01
RMM:   7    -0.233301959144E+04    0.10446E-02   -0.29156E-03  5800   0.304E-02    0.112E-01
RMM:   8    -0.233301945607E+04    0.13537E-03   -0.37726E-04  4162   0.130E-02    0.493E-02
RMM:   9    -0.233301943779E+04    0.18276E-04   -0.10944E-04  3438   0.829E-03    0.277E-02
RMM:  10    -0.233301945011E+04   -0.12318E-04   -0.61816E-05  3118   0.655E-03    0.216E-02
RMM:  11    -0.233301945026E+04   -0.14852E-06   -0.18863E-05  3004   0.444E-03
  17 F= -.23545332E+04 E0= -.23545332E+04  d E =-.679456E-01  mag=     5.0000
       N       E                     dE             d eps       ncg     rms          rms(c)
DAV:   1    -0.233298435182E+04    0.35098E-01   -0.13465E+01  4536   0.263E+00    0.819E-01
RMM:   2    -0.233307567179E+04   -0.91320E-01   -0.92291E-01  6384   0.552E-01    0.745E-01
RMM:   3    -0.233307748437E+04   -0.18126E-02   -0.81602E-02  6195   0.182E-01    0.724E-01
RMM:   4    -0.233307190050E+04    0.55839E-02   -0.88792E-03  6240   0.489E-02    0.253E-01
RMM:   5    -0.233307146090E+04    0.43959E-03   -0.18982E-03  5609   0.220E-02    0.237E-01
RMM:   6    -0.233307114133E+04    0.31957E-03   -0.20689E-03  5595   0.260E-02    0.182E-01
RMM:   7    -0.233307081376E+04    0.32757E-03   -0.70727E-04  5226   0.158E-02    0.464E-02
RMM:   8    -0.233307080791E+04    0.58500E-05   -0.86337E-05  3097   0.739E-03
  18 F= -.23545847E+04 E0= -.23545847E+04  d E =-.515034E-01  mag=     5.0000
       N       E                     dE             d eps       ncg     rms          rms(c)
DAV:   1    -0.233227277672E+04    0.79804E+00   -0.11919E+02  4536   0.788E+00    0.266E+00
RMM:   2    -0.233321801254E+04   -0.94524E+00   -0.95911E+00  6376   0.177E+00    0.241E+00
RMM:   3    -0.233322290013E+04   -0.48876E-02   -0.79842E-01  6238   0.577E-01    0.227E+00
RMM:   4    -0.233316835099E+04    0.54549E-01   -0.85269E-02  6591   0.151E-01    0.865E-01
RMM:   5    -0.233316349632E+04    0.48547E-02   -0.18665E-02  6082   0.685E-02    0.758E-01
RMM:   6    -0.233316048850E+04    0.30078E-02   -0.19657E-02  6009   0.777E-02    0.629E-01
RMM:   7    -0.233315659886E+04    0.38896E-02   -0.83961E-03  5775   0.505E-02    0.180E-01
RMM:   8    -0.233315655846E+04    0.40402E-04   -0.12222E-03  5114   0.251E-02    0.147E-01
RMM:   9    -0.233315631510E+04    0.24336E-03   -0.41692E-04  4586   0.120E-02    0.682E-02
RMM:  10    -0.233315627486E+04    0.40237E-04   -0.14746E-04  3743   0.900E-03    0.256E-02
RMM:  11    -0.233315627817E+04   -0.33062E-05   -0.58206E-05  3378   0.607E-03
  19 F= -.23546701E+04 E0= -.23546699E+04  d E =-.136896E+00  mag=     4.9964
       N       E                     dE             d eps       ncg     rms          rms(c)
DAV:   1    -0.232862566155E+04    0.45306E+01   -0.44942E+02  4536   0.157E+01    0.588E+00
RMM:   2    -0.233358598768E+04   -0.49603E+01   -0.51042E+01  6379   0.383E+00    0.479E+00
RMM:   3    -0.233330500064E+04    0.28099E+00   -0.29857E+00  6236   0.113E+00    0.340E+00
RMM:   4    -0.233319580906E+04    0.10919E+00   -0.34643E-01  6699   0.288E-01    0.204E+00
RMM:   5    -0.233318905061E+04    0.67585E-02   -0.77331E-02  5994   0.150E-01    0.195E+00
RMM:   6    -0.233316185692E+04    0.27194E-01   -0.52274E-02  6216   0.112E-01    0.139E+00
RMM:   7    -0.233314558738E+04    0.16270E-01   -0.54577E-02  5253   0.122E-01    0.661E-01
RMM:   8    -0.233314331856E+04    0.22688E-02   -0.15605E-02  5573   0.852E-02    0.462E-01
RMM:   9    -0.233314101670E+04    0.23019E-02   -0.30089E-03  5707   0.330E-02    0.176E-01
RMM:  10    -0.233314098734E+04    0.29355E-04   -0.96825E-04  4832   0.225E-02    0.580E-02
RMM:  11    -0.233314110172E+04   -0.11438E-03   -0.28272E-04  4682   0.108E-02    0.299E-02
RMM:  12    -0.233314118828E+04   -0.86566E-04   -0.96411E-05  3953   0.832E-03    0.158E-02
RMM:  13    -0.233314124612E+04   -0.57841E-04   -0.50314E-05  3550   0.613E-03    0.965E-03
RMM:  14    -0.233314129095E+04   -0.44826E-04   -0.30439E-05  3247   0.549E-03    0.589E-03
RMM:  15    -0.233314132536E+04   -0.34412E-04   -0.20706E-05  3011   0.465E-03    0.326E-03
RMM:  16    -0.233314134547E+04   -0.20108E-04   -0.94940E-06  2869   0.401E-03    0.215E-03
RMM:  17    -0.233314135633E+04   -0.10856E-04   -0.51332E-06  2830   0.279E-03    0.123E-03
RMM:  18    -0.233314136251E+04   -0.61853E-05   -0.26759E-06  2649   0.218E-03
  20 F= -.23546530E+04 E0= -.23546519E+04  d E =-.119781E+00  mag=     4.9745
       N       E                     dE             d eps       ncg     rms          rms(c)
DAV:   1    -0.233178180479E+04    0.13596E+01   -0.17719E+02  4536   0.983E+00    0.325E+00
RMM:   2    -0.233329508311E+04   -0.15133E+01   -0.15386E+01  6305   0.220E+00    0.296E+00
RMM:   3    -0.233324031871E+04    0.54764E-01   -0.11640E+00  6229   0.694E-01    0.214E+00
RMM:   4    -0.233319459270E+04    0.45726E-01   -0.11013E-01  6493   0.172E-01    0.101E+00
RMM:   5    -0.233319129354E+04    0.32992E-02   -0.27635E-02  5968   0.806E-02    0.110E+00
RMM:   6    -0.233318215626E+04    0.91373E-02   -0.27210E-02  5972   0.879E-02    0.696E-01
RMM:   7    -0.233317686826E+04    0.52880E-02   -0.12921E-02  5995   0.618E-02    0.195E-01
RMM:   8    -0.233317652774E+04    0.34052E-03   -0.10515E-03  5409   0.233E-02    0.107E-01
RMM:   9    -0.233317652983E+04   -0.20935E-05   -0.60972E-04  4736   0.148E-02    0.104E-01
RMM:  10    -0.233317636556E+04    0.16428E-03   -0.23996E-04  4171   0.976E-03    0.380E-02
RMM:  11    -0.233317633317E+04    0.32392E-04   -0.65896E-05  3412   0.618E-03    0.190E-02
RMM:  12    -0.233317632311E+04    0.10060E-04   -0.27794E-05  3091   0.554E-03    0.933E-03
RMM:  13    -0.233317632465E+04   -0.15402E-05   -0.20304E-05  3022   0.478E-03
  21 F= -.23546896E+04 E0= -.23546888E+04  d E =-.156386E+00  mag=     4.9827
       N       E                     dE             d eps       ncg     rms          rms(c)
DAV:   1    -0.233318096911E+04   -0.46460E-02   -0.27196E+00  4592   0.120E+00    0.373E-01
RMM:   2    -0.233319914721E+04   -0.18178E-01   -0.18388E-01  6516   0.249E-01    0.317E-01
RMM:   3    -0.233319926541E+04   -0.11820E-03   -0.15484E-02  6079   0.775E-02    0.269E-01
RMM:   4    -0.233319854280E+04    0.72262E-03   -0.15320E-03  4548   0.195E-02    0.119E-01
RMM:   5    -0.233319859885E+04   -0.56052E-04   -0.47218E-04  4165   0.115E-02    0.145E-01
RMM:   6    -0.233319836475E+04    0.23409E-03   -0.39620E-04  4366   0.122E-02    0.496E-02
RMM:   7    -0.233319835865E+04    0.60981E-05   -0.10935E-04  3151   0.758E-03    0.372E-02
RMM:   8    -0.233319834235E+04    0.16303E-04   -0.24656E-05  2922   0.435E-03    0.114E-02
RMM:   9    -0.233319834168E+04    0.67209E-06   -0.58292E-06  2861   0.229E-03
  22 F= -.23547114E+04 E0= -.23547105E+04  d E =-.217800E-01  mag=     4.9812
       N       E                     dE             d eps       ncg     rms          rms(c)
DAV:   1    -0.233310398588E+04    0.94356E-01   -0.24409E+01  4536   0.359E+00    0.111E+00
RMM:   2    -0.233327136851E+04   -0.16738E+00   -0.17081E+00  6471   0.744E-01    0.897E-01
RMM:   3    -0.233327300343E+04   -0.16349E-02   -0.14634E-01  6333   0.238E-01    0.750E-01
RMM:   4    -0.233326723111E+04    0.57723E-02   -0.13754E-02  6213   0.556E-02    0.329E-01
RMM:   5    -0.233326742212E+04   -0.19101E-03   -0.36313E-03  5885   0.315E-02    0.374E-01
RMM:   6    -0.233326589172E+04    0.15304E-02   -0.32419E-03  5868   0.308E-02    0.189E-01
RMM:   7    -0.233326573183E+04    0.15989E-03   -0.10026E-03  5032   0.184E-02    0.131E-01
RMM:   8    -0.233326555040E+04    0.18143E-03   -0.26522E-04  3382   0.982E-03    0.426E-02
RMM:   9    -0.233326553945E+04    0.10952E-04   -0.62886E-05  3173   0.532E-03    0.246E-02
RMM:  10    -0.233326554627E+04   -0.68196E-05   -0.26410E-05  3004   0.434E-03
  23 F= -.23547778E+04 E0= -.23547768E+04  d E =-.881820E-01  mag=     4.9778
       N       E                     dE             d eps       ncg     rms          rms(c)
DAV:   1    -0.233267000834E+04    0.59553E+00   -0.96589E+01  4536   0.709E+00    0.221E+00
RMM:   2    -0.233340815591E+04   -0.73815E+00   -0.75779E+00  6484   0.149E+00    0.181E+00
RMM:   3    -0.233341241938E+04   -0.42635E-02   -0.64950E-01  6365   0.479E-01    0.155E+00
RMM:   4    -0.233338940889E+04    0.23010E-01   -0.59568E-02  6419   0.115E-01    0.706E-01
RMM:   5    -0.233338814127E+04    0.12676E-02   -0.11385E-02  6022   0.503E-02    0.721E-01
RMM:   6    -0.233338257967E+04    0.55616E-02   -0.11056E-02  5430   0.606E-02    0.365E-01
RMM:   7    -0.233338196717E+04    0.61250E-03   -0.63215E-03  5836   0.449E-02    0.240E-01
RMM:   8    -0.233338139146E+04    0.57571E-03   -0.11542E-03  5407   0.199E-02    0.107E-01
RMM:   9    -0.233338130974E+04    0.81712E-04   -0.27960E-04  3835   0.897E-03    0.548E-02
RMM:  10    -0.233338136709E+04   -0.57350E-04   -0.11896E-04  3365   0.806E-03    0.224E-02
RMM:  11    -0.233338143887E+04   -0.71777E-04   -0.50708E-05  3238   0.550E-03    0.107E-02
RMM:  12    -0.233338148805E+04   -0.49178E-04   -0.16776E-05  2942   0.428E-03    0.648E-03
RMM:  13    -0.233338152718E+04   -0.39135E-04   -0.12325E-05  2886   0.364E-03    0.426E-03
RMM:  14    -0.233338156532E+04   -0.38141E-04   -0.12288E-05  2893   0.341E-03    0.252E-03
RMM:  15    -0.233338158570E+04   -0.20373E-04   -0.75328E-06  2794   0.307E-03    0.141E-03
RMM:  16    -0.233338159380E+04   -0.81030E-05   -0.37755E-06  2599   0.233E-03
  24 F= -.23548919E+04 E0= -.23548914E+04  d E =-.202267E+00  mag=     4.9900
       N       E                     dE             d eps       ncg     rms          rms(c)
DAV:   1    -0.232974269631E+04    0.36389E+01   -0.36817E+02  4536   0.136E+01    0.499E+00
RMM:   2    -0.233380100196E+04   -0.40583E+01   -0.41493E+01  6549   0.305E+00    0.466E+00
RMM:   3    -0.233349947300E+04    0.30153E+00   -0.24340E+00  6360   0.888E-01    0.362E+00
RMM:   4    -0.233338912430E+04    0.11035E+00   -0.27616E-01  6590   0.251E-01    0.174E+00
RMM:   5    -0.233336793864E+04    0.21186E-01   -0.50243E-02  6182   0.984E-02    0.143E+00
RMM:   6    -0.233335218073E+04    0.15758E-01   -0.34754E-02  5497   0.989E-02    0.957E-01
RMM:   7    -0.233334298837E+04    0.91924E-02   -0.33344E-02  5616   0.838E-02    0.401E-01
RMM:   8    -0.233334183157E+04    0.11568E-02   -0.49644E-03  5675   0.481E-02    0.237E-01
RMM:   9    -0.233334160356E+04    0.22801E-03   -0.17122E-03  5706   0.224E-02    0.156E-01
RMM:  10    -0.233334159527E+04    0.82901E-05   -0.37803E-04  4572   0.128E-02    0.518E-02
RMM:  11    -0.233334185790E+04   -0.26263E-03   -0.20707E-04  3972   0.933E-03    0.229E-02
RMM:  12    -0.233334202295E+04   -0.16505E-03   -0.71259E-05  3521   0.661E-03    0.129E-02
RMM:  13    -0.233334213061E+04   -0.10766E-03   -0.33195E-05  3169   0.512E-03    0.767E-03
RMM:  14    -0.233334222025E+04   -0.89638E-04   -0.25211E-05  3055   0.463E-03    0.470E-03
RMM:  15    -0.233334228477E+04   -0.64523E-04   -0.19585E-05  2970   0.421E-03    0.298E-03
RMM:  16    -0.233334231569E+04   -0.30918E-04   -0.96794E-06  2845   0.359E-03    0.181E-03
RMM:  17    -0.233334232901E+04   -0.13318E-04   -0.52352E-06  2673   0.264E-03    0.105E-03
RMM:  18    -0.233334233810E+04   -0.90945E-05   -0.32301E-06  2530   0.203E-03
  25 F= -.23548480E+04 E0= -.23548479E+04  d E =-.158350E+00  mag=     4.9995
       N       E                     dE             d eps       ncg     rms          rms(c)
DAV:   1    -0.233216400245E+04    0.11783E+01   -0.15967E+02  4536   0.846E+00    0.286E+00
RMM:   2    -0.233352983285E+04   -0.13658E+01   -0.13858E+01  6474   0.190E+00    0.307E+00
RMM:   3    -0.233348212065E+04    0.47712E-01   -0.94565E-01  6350   0.571E-01    0.203E+00
RMM:   4    -0.233344062089E+04    0.41500E-01   -0.98912E-02  6484   0.151E-01    0.101E+00
RMM:   5    -0.233343428503E+04    0.63359E-02   -0.19552E-02  5883   0.674E-02    0.892E-01
RMM:   6    -0.233342678292E+04    0.75021E-02   -0.17520E-02  5699   0.697E-02    0.597E-01
RMM:   7    -0.233342281158E+04    0.39713E-02   -0.13701E-02  5597   0.549E-02    0.199E-01
RMM:   8    -0.233342224245E+04    0.56913E-03   -0.13627E-03  5159   0.288E-02    0.777E-02
RMM:   9    -0.233342224537E+04   -0.29270E-05   -0.42546E-04  4556   0.121E-02    0.832E-02
RMM:  10    -0.233342216360E+04    0.81775E-04   -0.18578E-04  3408   0.878E-03    0.414E-02
RMM:  11    -0.233342213506E+04    0.28537E-04   -0.45354E-05  3117   0.537E-03    0.144E-02
RMM:  12    -0.233342213309E+04    0.19749E-05   -0.23376E-05  3042   0.457E-03
  26 F= -.23549308E+04 E0= -.23549306E+04  d E =-.241200E+00  mag=     4.9970
       N       E                     dE             d eps       ncg     rms          rms(c)
DAV:   1    -0.233346440627E+04   -0.42271E-01   -0.37630E+00  4592   0.153E+00    0.520E-01
RMM:   2    -0.233348983242E+04   -0.25426E-01   -0.27741E-01  6048   0.325E-01    0.288E-01
RMM:   3    -0.233349099691E+04   -0.11645E-02   -0.26270E-02  5830   0.131E-01    0.285E-01
RMM:   4    -0.233349011423E+04    0.88268E-03   -0.25413E-03  5886   0.287E-02    0.162E-01
RMM:   5    -0.233349011026E+04    0.39759E-05   -0.91849E-04  5206   0.201E-02    0.186E-01
RMM:   6    -0.233348966997E+04    0.44028E-03   -0.76898E-04  5338   0.184E-02    0.489E-02
RMM:   7    -0.233348965424E+04    0.15735E-04   -0.11234E-04  3529   0.979E-03    0.360E-02
RMM:   8    -0.233348963921E+04    0.15028E-04   -0.35696E-05  2982   0.475E-03    0.184E-02
RMM:   9    -0.233348963161E+04    0.76026E-05   -0.10600E-05  2951   0.329E-03
  27 F= -.23549976E+04 E0= -.23549975E+04  d E =-.667713E-01  mag=     4.9980
       N       E                     dE             d eps       ncg     rms          rms(c)
DAV:   1    -0.233334899408E+04    0.14065E+00   -0.33789E+01  4536   0.457E+00    0.158E+00
RMM:   2    -0.233359243242E+04   -0.24344E+00   -0.26488E+00  6060   0.990E-01    0.904E-01
RMM:   3    -0.233359623174E+04   -0.37993E-02   -0.21406E-01  5933   0.359E-01    0.804E-01
RMM:   4    -0.233358788357E+04    0.83482E-02   -0.22352E-02  6334   0.865E-02    0.464E-01
RMM:   5    -0.233358798581E+04   -0.10224E-03   -0.91874E-03  5471   0.589E-02    0.584E-01
RMM:   6    -0.233358395932E+04    0.40265E-02   -0.66594E-03  5734   0.516E-02    0.160E-01
RMM:   7    -0.233358371873E+04    0.24059E-03   -0.10927E-03  5336   0.264E-02    0.942E-02
RMM:   8    -0.233358362423E+04    0.94500E-04   -0.30204E-04  4298   0.104E-02    0.599E-02
RMM:   9    -0.233358357760E+04    0.46629E-04   -0.10780E-04  3637   0.796E-03    0.432E-02
RMM:  10    -0.233358354426E+04    0.33339E-04   -0.76715E-05  3686   0.703E-03    0.190E-02
RMM:  11    -0.233358354046E+04    0.37956E-05   -0.46669E-05  3558   0.611E-03
  28 F= -.23550893E+04 E0= -.23550893E+04  d E =-.158467E+00  mag=     4.9995
       N       E                     dE             d eps       ncg     rms          rms(c)
DAV:   1    -0.233361000263E+04   -0.26458E-01   -0.24051E+00  4720   0.121E+00    0.424E-01
RMM:   2    -0.233363245415E+04   -0.22452E-01   -0.23917E-01  6151   0.277E-01    0.333E-01
RMM:   3    -0.233363374894E+04   -0.12948E-02   -0.26505E-02  5893   0.117E-01    0.292E-01
RMM:   4    -0.233363299422E+04    0.75472E-03   -0.24561E-03  5616   0.256E-02    0.147E-01
RMM:   5    -0.233363285875E+04    0.13547E-03   -0.52472E-04  4703   0.136E-02    0.129E-01
RMM:   6    -0.233363265629E+04    0.20246E-03   -0.55213E-04  5077   0.151E-02    0.577E-02
RMM:   7    -0.233363262881E+04    0.27480E-04   -0.17405E-04  3663   0.937E-03    0.307E-02
RMM:   8    -0.233363262234E+04    0.64738E-05   -0.26717E-05  2963   0.494E-03
  29 F= -.23551378E+04 E0= -.23551377E+04  d E =-.484675E-01  mag=     4.9997
       N       E                     dE             d eps       ncg     rms          rms(c)
DAV:   1    -0.233350826028E+04    0.12437E+00   -0.21614E+01  4536   0.364E+00    0.128E+00
RMM:   2    -0.233371662818E+04   -0.20837E+00   -0.22082E+00  6098   0.846E-01    0.107E+00
RMM:   3    -0.233372323013E+04   -0.66019E-02   -0.23676E-01  5807   0.374E-01    0.830E-01
RMM:   4    -0.233371717634E+04    0.60538E-02   -0.22521E-02  6223   0.774E-02    0.457E-01
RMM:   5    -0.233371573820E+04    0.14381E-02   -0.45963E-03  5877   0.380E-02    0.380E-01
RMM:   6    -0.233371380805E+04    0.19302E-02   -0.48238E-03  5651   0.434E-02    0.164E-01
RMM:   7    -0.233371358855E+04    0.21950E-03   -0.15906E-03  5317   0.242E-02    0.991E-02
RMM:   8    -0.233371348153E+04    0.10702E-03   -0.25479E-04  3881   0.105E-02    0.545E-02
RMM:   9    -0.233371345407E+04    0.27462E-04   -0.91799E-05  3229   0.734E-03    0.363E-02
RMM:  10    -0.233371343667E+04    0.17394E-04   -0.55178E-05  3248   0.580E-03    0.146E-02
RMM:  11    -0.233371343787E+04   -0.11941E-05   -0.24809E-05  3058   0.482E-03
  30 F= -.23552168E+04 E0= -.23552168E+04  d E =-.127498E+00  mag=     4.9999
       N       E                     dE             d eps       ncg     rms          rms(c)
DAV:   1    -0.233370050776E+04    0.12929E-01   -0.18965E+00  4720   0.109E+00    0.377E-01
RMM:   2    -0.233371816064E+04   -0.17653E-01   -0.18985E-01  6123   0.251E-01    0.276E-01
RMM:   3    -0.233371919604E+04   -0.10354E-02   -0.20934E-02  5835   0.109E-01    0.233E-01
RMM:   4    -0.233371869609E+04    0.49995E-03   -0.18677E-03  5484   0.227E-02    0.128E-01
RMM:   5    -0.233371862007E+04    0.76019E-04   -0.43023E-04  4438   0.125E-02    0.119E-01
RMM:   6    -0.233371844148E+04    0.17859E-03   -0.42945E-04  4877   0.136E-02    0.496E-02
RMM:   7    -0.233371841790E+04    0.23577E-04   -0.13558E-04  3481   0.842E-03    0.275E-02
RMM:   8    -0.233371841001E+04    0.78926E-05   -0.23403E-05  2944   0.481E-03
  31 F= -.23552212E+04 E0= -.23552212E+04  d E =-.131956E+00  mag=     5.0000
       N       E                     dE             d eps       ncg     rms          rms(c)
DAV:   1    -0.233369065466E+04    0.27763E-01   -0.57516E+00  4536   0.209E+00    0.711E-01
RMM:   2    -0.233377182316E+04   -0.81169E-01   -0.83570E-01  6402   0.510E-01    0.565E-01
RMM:   3    -0.233377280873E+04   -0.98557E-03   -0.74230E-02  6263   0.178E-01    0.379E-01
RMM:   4    -0.233377109102E+04    0.17177E-02   -0.75417E-03  6101   0.405E-02    0.224E-01
RMM:   5    -0.233377084710E+04    0.24392E-03   -0.11128E-03  4978   0.182E-02    0.207E-01
RMM:   6    -0.233377028100E+04    0.56610E-03   -0.10530E-03  5287   0.210E-02    0.661E-02
RMM:   7    -0.233377028989E+04   -0.88833E-05   -0.33352E-04  4553   0.139E-02    0.547E-02
RMM:   8    -0.233377025565E+04    0.34236E-04   -0.71576E-05  2994   0.611E-03    0.220E-02
RMM:   9    -0.233377025087E+04    0.47813E-05   -0.15322E-05  2985   0.410E-03
  32 F= -.23552715E+04 E0= -.23552715E+04  d E =-.502616E-01  mag=     5.0000
       N       E                     dE             d eps       ncg     rms          rms(c)
DAV:   1    -0.233314730142E+04    0.62295E+00   -0.48704E+01  4536   0.609E+00    0.208E+00
RMM:   2    -0.233385368598E+04   -0.70638E+00   -0.72799E+00  6419   0.151E+00    0.164E+00
RMM:   3    -0.233385977022E+04   -0.60842E-02   -0.66650E-01  6318   0.532E-01    0.113E+00
RMM:   4    -0.233384357847E+04    0.16192E-01   -0.64061E-02  6404   0.121E-01    0.636E-01
RMM:   5    -0.233384164503E+04    0.19334E-02   -0.97589E-03  5924   0.514E-02    0.604E-01
RMM:   6    -0.233383687937E+04    0.47657E-02   -0.91110E-03  5371   0.598E-02    0.207E-01
RMM:   7    -0.233383690450E+04   -0.25126E-04   -0.28230E-03  5391   0.382E-02    0.179E-01
RMM:   8    -0.233383653092E+04    0.37358E-03   -0.74767E-04  4756   0.169E-02    0.677E-02
RMM:   9    -0.233383646428E+04    0.66642E-04   -0.17006E-04  3570   0.935E-03    0.378E-02
RMM:  10    -0.233383645821E+04    0.60668E-05   -0.79257E-05  3174   0.693E-03
  33 F= -.23553334E+04 E0= -.23553334E+04  d E =-.112158E+00  mag=     5.0000
       N       E                     dE             d eps       ncg     rms          rms(c)
DAV:   1    -0.233376166678E+04    0.74797E-01   -0.85569E+00  4536   0.255E+00    0.884E-01
RMM:   2    -0.233388290844E+04   -0.12124E+00   -0.12420E+00  6381   0.619E-01    0.735E-01
RMM:   3    -0.233388460744E+04   -0.16990E-02   -0.12025E-01  6269   0.229E-01    0.494E-01
RMM:   4    -0.233388164224E+04    0.29652E-02   -0.11579E-02  6180   0.513E-02    0.270E-01
RMM:   5    -0.233388123793E+04    0.40431E-03   -0.17948E-03  5416   0.228E-02    0.253E-01
RMM:   6    -0.233388034627E+04    0.89166E-03   -0.17344E-03  5303   0.262E-02    0.766E-02
RMM:   7    -0.233388034093E+04    0.53371E-05   -0.49140E-04  4767   0.171E-02    0.612E-02
RMM:   8    -0.233388029689E+04    0.44045E-04   -0.10456E-04  3285   0.723E-03    0.268E-02
RMM:   9    -0.233388028390E+04    0.12985E-04   -0.22538E-05  3003   0.490E-03    0.141E-02
RMM:  10    -0.233388028048E+04    0.34256E-05   -0.18721E-05  2958   0.361E-03
  34 F= -.23553764E+04 E0= -.23553764E+04  d E =-.430000E-01  mag=     5.0000
       N       E                     dE             d eps       ncg     rms          rms(c)
DAV:   1    -0.233376853131E+04    0.11175E+00   -0.93013E+00  4536   0.266E+00    0.921E-01
RMM:   2    -0.233390007389E+04   -0.13154E+00   -0.13471E+00  6369   0.644E-01    0.772E-01
RMM:   3    -0.233390199507E+04   -0.19212E-02   -0.13291E-01  6253   0.240E-01    0.517E-01
RMM:   4    -0.233389870780E+04    0.32873E-02   -0.12645E-02  6214   0.536E-02    0.280E-01
RMM:   5    -0.233389826089E+04    0.44691E-03   -0.19469E-03  5480   0.236E-02    0.263E-01
RMM:   6    -0.233389727171E+04    0.98917E-03   -0.18884E-03  5319   0.274E-02    0.803E-02
RMM:   7    -0.233389725414E+04    0.17578E-04   -0.54548E-04  4845   0.178E-02    0.646E-02
RMM:   8    -0.233389720206E+04    0.52076E-04   -0.11584E-04  3371   0.755E-03    0.280E-02
RMM:   9    -0.233389718393E+04    0.18132E-04   -0.25488E-05  3018   0.520E-03    0.147E-02
RMM:  10    -0.233389717592E+04    0.80118E-05   -0.22068E-05  2973   0.397E-03
  35 F= -.23553925E+04 E0= -.23553925E+04  d E =-.591215E-01  mag=     5.0000
       N       E                     dE             d eps       ncg     rms          rms(c)
DAV:   1    -0.233387608337E+04    0.21101E-01   -0.35732E+00  4592   0.168E+00    0.528E-01
RMM:   2    -0.233392178496E+04   -0.45702E-01   -0.47554E-01  6276   0.392E-01    0.433E-01
RMM:   3    -0.233392327141E+04   -0.14865E-02   -0.49775E-02  6089   0.151E-01    0.300E-01
RMM:   4    -0.233392213415E+04    0.11373E-02   -0.42798E-03  5944   0.326E-02    0.146E-01
RMM:   5    -0.233392192723E+04    0.20692E-03   -0.91418E-04  5370   0.191E-02    0.131E-01
RMM:   6    -0.233392177183E+04    0.15540E-03   -0.59687E-04  4949   0.151E-02    0.858E-02
RMM:   7    -0.233392171253E+04    0.59296E-04   -0.16493E-04  3639   0.917E-03    0.388E-02
RMM:   8    -0.233392169380E+04    0.18734E-04   -0.36286E-05  3030   0.583E-03    0.196E-02
RMM:   9    -0.233392168955E+04    0.42513E-05   -0.16069E-05  2993   0.339E-03
  36 F= -.23554169E+04 E0= -.23554169E+04  d E =-.244194E-01  mag=     5.0000
       N       E                     dE             d eps       ncg     rms          rms(c)
DAV:   1    -0.233386921163E+04    0.52482E-01   -0.49175E+00  4536   0.198E+00    0.619E-01
RMM:   2    -0.233393190819E+04   -0.62697E-01   -0.65288E-01  6251   0.462E-01    0.512E-01
RMM:   3    -0.233393400759E+04   -0.20994E-02   -0.68701E-02  6105   0.177E-01    0.361E-01
RMM:   4    -0.233393233813E+04    0.16695E-02   -0.59170E-03  6060   0.384E-02    0.172E-01
RMM:   5    -0.233393205130E+04    0.28684E-03   -0.13210E-03  5534   0.228E-02    0.156E-01
RMM:   6    -0.233393182997E+04    0.22133E-03   -0.83152E-04  5195   0.174E-02    0.101E-01
RMM:   7    -0.233393174142E+04    0.88548E-04   -0.21975E-04  3969   0.103E-02    0.441E-02
RMM:   8    -0.233393171710E+04    0.24322E-04   -0.49747E-05  3054   0.642E-03    0.237E-02
RMM:   9    -0.233393171032E+04    0.67795E-05   -0.24660E-05  3019   0.396E-03
  37 F= -.23554269E+04 E0= -.23554269E+04  d E =-.343607E-01  mag=     5.0000
       N       E                     dE             d eps       ncg     rms          rms(c)
DAV:   1    -0.233390722286E+04    0.24494E-01   -0.38262E+00  4536   0.181E+00    0.507E-01
RMM:   2    -0.233394735141E+04   -0.40129E-01   -0.41955E-01  6316   0.396E-01    0.332E-01
RMM:   3    -0.233395000617E+04   -0.26548E-02   -0.41576E-02  6019   0.140E-01    0.340E-01
RMM:   4    -0.233394865961E+04    0.13466E-02   -0.39549E-03  5978   0.324E-02    0.146E-01
RMM:   5    -0.233394853934E+04    0.12028E-03   -0.89412E-04  5124   0.172E-02    0.146E-01
RMM:   6    -0.233394831128E+04    0.22805E-03   -0.59819E-04  4948   0.163E-02    0.664E-02
RMM:   7    -0.233394827290E+04    0.38384E-04   -0.17838E-04  4079   0.975E-03    0.286E-02
RMM:   8    -0.233394826431E+04    0.85874E-05   -0.32825E-05  2996   0.596E-03
  38 F= -.23554432E+04 E0= -.23554432E+04  d E =-.162974E-01  mag=     5.0000
       N       E                     dE             d eps       ncg     rms          rms(c)
DAV:   1    -0.233391254933E+04    0.35724E-01   -0.38318E+00  4536   0.180E+00    0.510E-01
RMM:   2    -0.233395288813E+04   -0.40339E-01   -0.42181E-01  6352   0.395E-01    0.334E-01
RMM:   3    -0.233395543871E+04   -0.25506E-02   -0.39843E-02  6021   0.136E-01    0.347E-01
RMM:   4    -0.233395403501E+04    0.14037E-02   -0.38971E-03  5963   0.324E-02    0.146E-01
RMM:   5    -0.233395393119E+04    0.10382E-03   -0.91511E-04  5144   0.172E-02    0.149E-01
RMM:   6    -0.233395368411E+04    0.24709E-03   -0.61522E-04  4985   0.164E-02    0.628E-02
RMM:   7    -0.233395365128E+04    0.32828E-04   -0.17345E-04  4051   0.961E-03    0.278E-02
RMM:   8    -0.233395364320E+04    0.80777E-05   -0.32731E-05  2996   0.593E-03
  39 F= -.23554483E+04 E0= -.23554483E+04  d E =-.214417E-01  mag=     5.0000
       N       E                     dE             d eps       ncg     rms          rms(c)
DAV:   1    -0.233392207251E+04    0.31579E-01   -0.49942E+00  4536   0.213E+00    0.571E-01
RMM:   2    -0.233396768809E+04   -0.45616E-01   -0.47468E-01  6279   0.446E-01    0.423E-01
RMM:   3    -0.233396987919E+04   -0.21911E-02   -0.42827E-02  6044   0.153E-01    0.423E-01
RMM:   4    -0.233396774165E+04    0.21375E-02   -0.42274E-03  5958   0.369E-02    0.159E-01
RMM:   5    -0.233396757485E+04    0.16680E-03   -0.11218E-03  5253   0.210E-02    0.142E-01
RMM:   6    -0.233396731720E+04    0.25765E-03   -0.77185E-04  5300   0.191E-02    0.656E-02
RMM:   7    -0.233396726700E+04    0.50205E-04   -0.15406E-04  3974   0.103E-02    0.248E-02
RMM:   8    -0.233396725844E+04    0.85587E-05   -0.29894E-05  2996   0.527E-03
  40 F= -.23554612E+04 E0= -.23554612E+04  d E =-.128509E-01  mag=     5.0000
       N       E                     dE             d eps       ncg     rms          rms(c)
DAV:   1    -0.233395686809E+04    0.10399E-01   -0.13504E+00  4592   0.111E+00    0.299E-01
RMM:   2    -0.233396919331E+04   -0.12325E-01   -0.12806E-01  6256   0.232E-01    0.226E-01
RMM:   3    -0.233396978242E+04   -0.58911E-03   -0.11709E-02  5948   0.799E-02    0.224E-01
RMM:   4    -0.233396919186E+04    0.59056E-03   -0.11550E-03  4933   0.194E-02    0.825E-02
RMM:   5    -0.233396914820E+04    0.43666E-04   -0.30227E-04  4300   0.118E-02    0.759E-02
RMM:   6    -0.233396907025E+04    0.77948E-04   -0.22315E-04  4366   0.110E-02    0.327E-02
RMM:   7    -0.233396905710E+04    0.13154E-04   -0.45685E-05  3168   0.666E-03    0.136E-02
RMM:   8    -0.233396905392E+04    0.31799E-05   -0.10179E-05  2933   0.386E-03
  41 F= -.23554626E+04 E0= -.23554626E+04  d E =-.142570E-01  mag=     5.0000
       N       E                     dE             d eps       ncg     rms          rms(c)
DAV:   1    -0.233392873180E+04    0.40325E-01   -0.55344E+00  4536   0.231E+00    0.603E-01
RMM:   2    -0.233398419968E+04   -0.55468E-01   -0.56543E-01  6170   0.479E-01    0.522E-01
RMM:   3    -0.233398448555E+04   -0.28587E-03   -0.42522E-02  5979   0.160E-01    0.425E-01
RMM:   4    -0.233398232366E+04    0.21619E-02   -0.46965E-03  5697   0.379E-02    0.175E-01
RMM:   5    -0.233398216128E+04    0.16238E-03   -0.98637E-04  5294   0.212E-02    0.155E-01
RMM:   6    -0.233398178982E+04    0.37146E-03   -0.94061E-04  5165   0.205E-02    0.612E-02
RMM:   7    -0.233398175976E+04    0.30065E-04   -0.13913E-04  3936   0.116E-02    0.217E-02
RMM:   8    -0.233398175640E+04    0.33611E-05   -0.22807E-05  3009   0.439E-03
  42 F= -.23554751E+04 E0= -.23554751E+04  d E =-.125227E-01  mag=     5.0000
       N       E                     dE             d eps       ncg     rms          rms(c)
DAV:   1    -0.233393548795E+04    0.46272E-01   -0.51092E+00  4536   0.222E+00    0.582E-01
RMM:   2    -0.233398657763E+04   -0.51090E-01   -0.52047E-01  6195   0.461E-01    0.509E-01
RMM:   3    -0.233398683258E+04   -0.25495E-03   -0.39988E-02  5998   0.153E-01    0.408E-01
RMM:   4    -0.233398486393E+04    0.19686E-02   -0.43444E-03  5678   0.364E-02    0.168E-01
RMM:   5    -0.233398471616E+04    0.14777E-03   -0.94547E-04  5245   0.206E-02    0.149E-01
RMM:   6    -0.233398437232E+04    0.34384E-03   -0.86459E-04  5154   0.198E-02    0.597E-02
RMM:   7    -0.233398434222E+04    0.30100E-04   -0.12672E-04  3908   0.113E-02    0.213E-02
RMM:   8    -0.233398433854E+04    0.36812E-05   -0.21218E-05  2999   0.434E-03
  43 F= -.23554775E+04 E0= -.23554775E+04  d E =-.149465E-01  mag=     5.0000
       N       E                     dE             d eps       ncg     rms          rms(c)
DAV:   1    -0.233396607140E+04    0.18271E-01   -0.29406E+00  4536   0.166E+00    0.427E-01
RMM:   2    -0.233399550951E+04   -0.29438E-01   -0.28763E-01  6325   0.338E-01    0.497E-01
RMM:   3    -0.233399447010E+04    0.10394E-02   -0.25189E-02  6012   0.114E-01    0.266E-01
RMM:   4    -0.233399369466E+04    0.77543E-03   -0.26872E-03  5265   0.259E-02    0.122E-01
RMM:   5    -0.233399360042E+04    0.94243E-04   -0.40293E-04  4586   0.142E-02    0.110E-01
RMM:   6    -0.233399343390E+04    0.16652E-03   -0.48529E-04  4978   0.150E-02    0.508E-02
RMM:   7    -0.233399341760E+04    0.16302E-04   -0.11414E-04  3508   0.930E-03    0.220E-02
RMM:   8    -0.233399341151E+04    0.60887E-05   -0.18788E-05  2996   0.438E-03
  44 F= -.23554862E+04 E0= -.23554862E+04  d E =-.868511E-02  mag=     5.0000
       N       E                     dE             d eps       ncg     rms          rms(c)
DAV:   1    -0.233381795612E+04    0.17546E+00   -0.19706E+01  4536   0.431E+00    0.112E+00
RMM:   2    -0.233402135067E+04   -0.20339E+00   -0.19730E+00  6310   0.888E-01    0.136E+00
RMM:   3    -0.233400959761E+04    0.11753E-01   -0.16482E-01  6023   0.293E-01    0.658E-01
RMM:   4    -0.233400492388E+04    0.46737E-02   -0.17779E-02  5574   0.666E-02    0.316E-01
RMM:   5    -0.233400433640E+04    0.58748E-03   -0.28417E-03  5726   0.361E-02    0.292E-01
RMM:   6    -0.233400316187E+04    0.11745E-02   -0.31639E-03  5554   0.363E-02    0.132E-01
RMM:   7    -0.233400306352E+04    0.98342E-04   -0.73363E-04  4981   0.204E-02    0.616E-02
RMM:   8    -0.233400301887E+04    0.44653E-04   -0.12587E-04  3350   0.808E-03    0.405E-02
RMM:   9    -0.233400300806E+04    0.10806E-04   -0.42937E-05  2976   0.546E-03    0.256E-02
RMM:  10    -0.233400300163E+04    0.64387E-05   -0.25101E-05  3006   0.371E-03
  45 F= -.23554948E+04 E0= -.23554948E+04  d E =-.173039E-01  mag=     5.0000
       N       E                     dE             d eps       ncg     rms          rms(c)
DAV:   1    -0.233399702711E+04    0.59810E-02   -0.13904E+00  4624   0.117E+00    0.334E-01
RMM:   2    -0.233401034002E+04   -0.13313E-01   -0.13617E-01  6182   0.240E-01    0.272E-01
RMM:   3    -0.233401064962E+04   -0.30960E-03   -0.12995E-02  5912   0.898E-02    0.227E-01
RMM:   4    -0.233401000974E+04    0.63988E-03   -0.13804E-03  5498   0.221E-02    0.101E-01
RMM:   5    -0.233400995895E+04    0.50785E-04   -0.40662E-04  4779   0.139E-02    0.988E-02
RMM:   6    -0.233400983777E+04    0.12118E-03   -0.35780E-04  4830   0.128E-02    0.399E-02
RMM:   7    -0.233400982137E+04    0.16405E-04   -0.69982E-05  3313   0.798E-03    0.184E-02
RMM:   8    -0.233400981626E+04    0.51088E-05   -0.16878E-05  2982   0.431E-03
  46 F= -.23555014E+04 E0= -.23555014E+04  d E =-.651376E-02  mag=     5.0000
       N       E                     dE             d eps       ncg     rms          rms(c)
DAV:   1    -0.233400339069E+04    0.64307E-02   -0.83608E-01  4608   0.907E-01    0.261E-01
RMM:   2    -0.233401140085E+04   -0.80102E-02   -0.82097E-02  6180   0.186E-01    0.211E-01
RMM:   3    -0.233401159257E+04   -0.19172E-03   -0.78917E-03  5830   0.697E-02    0.177E-01
RMM:   4    -0.233401120082E+04    0.39175E-03   -0.83872E-04  5115   0.172E-02    0.788E-02
RMM:   5    -0.233401117095E+04    0.29876E-04   -0.24624E-04  4173   0.112E-02    0.776E-02
RMM:   6    -0.233401109134E+04    0.79604E-04   -0.21915E-04  4425   0.106E-02    0.295E-02
RMM:   7    -0.233401108184E+04    0.95023E-05   -0.42408E-05  3146   0.673E-03
  47 F= -.23555024E+04 E0= -.23555024E+04  d E =-.754538E-02  mag=     5.0000
       N       E                     dE             d eps       ncg     rms          rms(c)
DAV:   1    -0.233399950765E+04    0.11584E-01   -0.14132E+00  4536   0.124E+00    0.333E-01
RMM:   2    -0.233401609885E+04   -0.16591E-01   -0.17416E-01  6324   0.257E-01    0.215E-01
RMM:   3    -0.233401689044E+04   -0.79158E-03   -0.17487E-02  6015   0.945E-02    0.163E-01
RMM:   4    -0.233401660540E+04    0.28503E-03   -0.15683E-03  5540   0.204E-02    0.913E-02
RMM:   5    -0.233401648719E+04    0.11821E-03   -0.28550E-04  4389   0.122E-02    0.556E-02
RMM:   6    -0.233401650377E+04   -0.16577E-04   -0.21336E-04  4132   0.107E-02    0.695E-02
RMM:   7    -0.233401645319E+04    0.50580E-04   -0.61949E-05  3067   0.719E-03    0.138E-02
RMM:   8    -0.233401645081E+04    0.23734E-05   -0.11571E-05  2950   0.413E-03
  48 F= -.23555076E+04 E0= -.23555076E+04  d E =-.524233E-02  mag=     5.0000
       N       E                     dE             d eps       ncg     rms          rms(c)
DAV:   1    -0.233399617533E+04    0.20278E-01   -0.18673E+00  4536   0.142E+00    0.383E-01
RMM:   2    -0.233401810016E+04   -0.21925E-01   -0.22986E-01  6282   0.294E-01    0.247E-01
RMM:   3    -0.233401914245E+04   -0.10423E-02   -0.23203E-02  6025   0.110E-01    0.185E-01
RMM:   4    -0.233401876530E+04    0.37715E-03   -0.20697E-03  5785   0.234E-02    0.105E-01
RMM:   5    -0.233401860207E+04    0.16323E-03   -0.37647E-04  4558   0.138E-02    0.595E-02
RMM:   6    -0.233401860877E+04   -0.67015E-05   -0.26322E-04  4507   0.120E-02    0.674E-02
RMM:   7    -0.233401856231E+04    0.46464E-04   -0.74395E-05  3064   0.752E-03    0.202E-02
RMM:   8    -0.233401855749E+04    0.48158E-05   -0.14246E-05  2956   0.415E-03
  49 F= -.23555096E+04 E0= -.23555096E+04  d E =-.720507E-02  mag=     5.0000
       N       E                     dE             d eps       ncg     rms          rms(c)
DAV:   1    -0.233400827522E+04    0.10287E-01   -0.14142E+00  4536   0.125E+00    0.344E-01
RMM:   2    -0.233402287159E+04   -0.14596E-01   -0.15440E-01  6186   0.251E-01    0.198E-01
RMM:   3    -0.233402388590E+04   -0.10143E-02   -0.15976E-02  5903   0.977E-02    0.178E-01
RMM:   4    -0.233402363867E+04    0.24723E-03   -0.16386E-03  5718   0.218E-02    0.105E-01
RMM:   5    -0.233402358564E+04    0.53033E-04   -0.34701E-04  4622   0.140E-02    0.950E-02
RMM:   6    -0.233402350343E+04    0.82205E-04   -0.26156E-04  4266   0.115E-02    0.506E-02
RMM:   7    -0.233402347322E+04    0.30207E-04   -0.54049E-05  3246   0.732E-03    0.129E-02
RMM:   8    -0.233402347169E+04    0.15364E-05   -0.11246E-05  2934   0.440E-03
  50 F= -.23555144E+04 E0= -.23555144E+04  d E =-.477082E-02  mag=     5.0000
       N       E                     dE             d eps       ncg     rms          rms(c)
DAV:   1    -0.233401937214E+04    0.41011E-02   -0.42945E-01  4672   0.690E-01    0.190E-01
RMM:   2    -0.233402380126E+04   -0.44291E-02   -0.46893E-02  6245   0.139E-01    0.107E-01
RMM:   3    -0.233402411114E+04   -0.30988E-03   -0.48164E-03  5598   0.541E-02    0.959E-02
RMM:   4    -0.233402404507E+04    0.66076E-04   -0.49076E-04  3867   0.122E-02    0.593E-02
RMM:   5    -0.233402402802E+04    0.17050E-04   -0.10689E-04  3465   0.891E-03    0.533E-02
RMM:   6    -0.233402400070E+04    0.27318E-04   -0.85593E-05  3198   0.778E-03    0.270E-02
RMM:   7    -0.233402399224E+04    0.84632E-05   -0.20402E-05  3012   0.569E-03
  51 F= -.23555148E+04 E0= -.23555148E+04  d E =-.521416E-02  mag=     5.0000
       N       E                     dE             d eps       ncg     rms          rms(c)
DAV:   1    -0.233400867381E+04    0.15327E-01   -0.14077E+00  4536   0.124E+00    0.324E-01
RMM:   2    -0.233402669477E+04   -0.18021E-01   -0.19254E-01  6383   0.254E-01    0.181E-01
RMM:   3    -0.233402837991E+04   -0.16851E-02   -0.21785E-02  5822   0.102E-01    0.171E-01
RMM:   4    -0.233402828267E+04    0.97241E-04   -0.19966E-03  4770   0.206E-02    0.114E-01
RMM:   5    -0.233402815129E+04    0.13137E-03   -0.29791E-04  4358   0.123E-02    0.748E-02
RMM:   6    -0.233402812203E+04    0.29267E-04   -0.24640E-04  4071   0.110E-02    0.560E-02
RMM:   7    -0.233402808187E+04    0.40158E-04   -0.68403E-05  3288   0.715E-03    0.166E-02
RMM:   8    -0.233402808024E+04    0.16283E-05   -0.14452E-05  2969   0.475E-03
  52 F= -.23555189E+04 E0= -.23555189E+04  d E =-.412625E-02  mag=     5.0000
       N       E                     dE             d eps       ncg     rms          rms(c)
DAV:   1    -0.233400810933E+04    0.19973E-01   -0.15416E+00  4536   0.129E+00    0.340E-01
RMM:   2    -0.233402786939E+04   -0.19760E-01   -0.21113E-01  6438   0.265E-01    0.194E-01
RMM:   3    -0.233402972337E+04   -0.18540E-02   -0.23897E-02  5892   0.103E-01    0.186E-01
RMM:   4    -0.233402958252E+04    0.14085E-03   -0.21907E-03  4911   0.214E-02    0.118E-01
RMM:   5    -0.233402944803E+04    0.13450E-03   -0.32436E-04  4410   0.126E-02    0.820E-02
RMM:   6    -0.233402940208E+04    0.45944E-04   -0.27155E-04  4182   0.114E-02    0.563E-02
RMM:   7    -0.233402936203E+04    0.40051E-04   -0.74028E-05  3441   0.727E-03    0.174E-02
RMM:   8    -0.233402936063E+04    0.14000E-05   -0.16082E-05  2965   0.503E-03
  53 F= -.23555203E+04 E0= -.23555203E+04  d E =-.545389E-02  mag=     5.0000
       N       E                     dE             d eps       ncg     rms          rms(c)
DAV:   1    -0.233401365314E+04    0.15709E-01   -0.14524E+00  4536   0.123E+00    0.330E-01
RMM:   2    -0.233403217134E+04   -0.18518E-01   -0.19889E-01  6390   0.255E-01    0.175E-01
RMM:   3    -0.233403388655E+04   -0.17152E-02   -0.22511E-02  5849   0.101E-01    0.149E-01
RMM:   4    -0.233403389187E+04   -0.53137E-05   -0.20522E-03  4765   0.204E-02    0.123E-01
RMM:   5    -0.233403374118E+04    0.15068E-03   -0.34537E-04  4444   0.128E-02    0.746E-02
RMM:   6    -0.233403371269E+04    0.28494E-04   -0.25812E-04  4161   0.115E-02    0.531E-02
RMM:   7    -0.233403367756E+04    0.35123E-04   -0.61274E-05  3138   0.688E-03    0.181E-02
RMM:   8    -0.233403367536E+04    0.22069E-05   -0.14736E-05  2973   0.421E-03
  54 F= -.23555246E+04 E0= -.23555246E+04  d E =-.431359E-02  mag=     5.0000
       N       E                     dE             d eps       ncg     rms          rms(c)
DAV:   1    -0.233396839028E+04    0.65287E-01   -0.47044E+00  4536   0.222E+00    0.593E-01
RMM:   2    -0.233402852405E+04   -0.60134E-01   -0.64604E-01  6411   0.463E-01    0.313E-01
RMM:   3    -0.233403405320E+04   -0.55291E-02   -0.74139E-02  5992   0.180E-01    0.262E-01
RMM:   4    -0.233403410908E+04   -0.55880E-04   -0.66993E-03  6040   0.363E-02    0.223E-01
RMM:   5    -0.233403361291E+04    0.49617E-03   -0.10765E-03  5195   0.204E-02    0.135E-01
RMM:   6    -0.233403350337E+04    0.10954E-03   -0.87352E-04  5241   0.194E-02    0.950E-02
RMM:   7    -0.233403339368E+04    0.10969E-03   -0.21552E-04  4239   0.109E-02    0.400E-02
RMM:   8    -0.233403337796E+04    0.15721E-04   -0.54138E-05  3110   0.558E-03    0.244E-02
RMM:   9    -0.233403337101E+04    0.69577E-05   -0.20170E-05  2999   0.410E-03
  55 F= -.23555243E+04 E0= -.23555243E+04  d E =-.402158E-02  mag=     5.0000
       N       E                     dE             d eps       ncg     rms          rms(c)
DAV:   1    -0.233401825493E+04    0.15123E-01   -0.12079E+00  4536   0.113E+00    0.299E-01
RMM:   2    -0.233403361053E+04   -0.15356E-01   -0.16441E-01  6397   0.232E-01    0.164E-01
RMM:   3    -0.233403500910E+04   -0.13986E-02   -0.18380E-02  5855   0.917E-02    0.139E-01
RMM:   4    -0.233403500666E+04    0.24364E-05   -0.16764E-03  4512   0.187E-02    0.112E-01
RMM:   5    -0.233403487640E+04    0.13026E-03   -0.27497E-04  4293   0.115E-02    0.677E-02
RMM:   6    -0.233403485476E+04    0.21640E-04   -0.21786E-04  3985   0.107E-02    0.509E-02
RMM:   7    -0.233403482187E+04    0.32897E-04   -0.53132E-05  3101   0.668E-03    0.134E-02
RMM:   8    -0.233403481996E+04    0.19039E-05   -0.81099E-06  2933   0.377E-03
  56 F= -.23555257E+04 E0= -.23555257E+04  d E =-.546196E-02  mag=     5.0000
       N       E                     dE             d eps       ncg     rms          rms(c)
DAV:   1    -0.233402041525E+04    0.14407E-01   -0.13291E+00  4536   0.119E+00    0.317E-01
RMM:   2    -0.233403695640E+04   -0.16541E-01   -0.17696E-01  6353   0.248E-01    0.167E-01
RMM:   3    -0.233403823845E+04   -0.12821E-02   -0.18722E-02  5823   0.957E-02    0.125E-01
RMM:   4    -0.233403830145E+04   -0.62997E-04   -0.17269E-03  4679   0.197E-02    0.127E-01
RMM:   5    -0.233403813119E+04    0.17026E-03   -0.35158E-04  4400   0.125E-02    0.625E-02
RMM:   6    -0.233403810508E+04    0.26106E-04   -0.18375E-04  4214   0.103E-02    0.397E-02
RMM:   7    -0.233403808705E+04    0.18030E-04   -0.47576E-05  3052   0.654E-03    0.159E-02
RMM:   8    -0.233403808280E+04    0.42539E-05   -0.94684E-06  2936   0.332E-03
  57 F= -.23555289E+04 E0= -.23555289E+04  d E =-.323245E-02  mag=     5.0000
       N       E                     dE             d eps       ncg     rms          rms(c)
DAV:   1    -0.233401618790E+04    0.21899E-01   -0.16833E+00  4536   0.134E+00    0.359E-01
RMM:   2    -0.233403719785E+04   -0.21010E-01   -0.22474E-01  6303   0.279E-01    0.191E-01
RMM:   3    -0.233403883210E+04   -0.16343E-02   -0.23832E-02  5878   0.109E-01    0.147E-01
RMM:   4    -0.233403887429E+04   -0.42192E-04   -0.22025E-03  4968   0.222E-02    0.139E-01
RMM:   5    -0.233403868854E+04    0.18575E-03   -0.44593E-04  4654   0.138E-02    0.774E-02
RMM:   6    -0.233403866144E+04    0.27099E-04   -0.26671E-04  4436   0.116E-02    0.566E-02
RMM:   7    -0.233403861615E+04    0.45295E-04   -0.76579E-05  3211   0.744E-03    0.158E-02
RMM:   8    -0.233403861252E+04    0.36334E-05   -0.13844E-05  2949   0.412E-03
  58 F= -.23555294E+04 E0= -.23555294E+04  d E =-.373204E-02  mag=     5.0000
       N       E                     dE             d eps       ncg     rms          rms(c)
DAV:   1    -0.233403663162E+04    0.19845E-02   -0.16496E-01  4656   0.418E-01    0.111E-01
RMM:   2    -0.233403867540E+04   -0.20438E-02   -0.21854E-02  6349   0.869E-02    0.573E-02
RMM:   3    -0.233403883175E+04   -0.15634E-03   -0.22714E-03  4329   0.326E-02    0.468E-02
RMM:   4    -0.233403883418E+04   -0.24378E-05   -0.21245E-04  3097   0.771E-03    0.399E-02
RMM:   5    -0.233403881406E+04    0.20121E-04   -0.39575E-05  3053   0.530E-03    0.192E-02
RMM:   6    -0.233403881589E+04   -0.18276E-05   -0.21313E-05  2995   0.462E-03
  59 F= -.23555297E+04 E0= -.23555297E+04  d E =-.394438E-02  mag=     5.0000
       N       E                     dE             d eps       ncg     rms          rms(c)
DAV:   1    -0.233402539512E+04    0.13419E-01   -0.13085E+00  4536   0.118E+00    0.314E-01
RMM:   2    -0.233404105658E+04   -0.15661E-01   -0.16735E-01  6388   0.244E-01    0.158E-01
RMM:   3    -0.233404229421E+04   -0.12376E-02   -0.17642E-02  5842   0.934E-02    0.113E-01
RMM:   4    -0.233404236832E+04   -0.74109E-04   -0.16252E-03  4563   0.192E-02    0.118E-01
RMM:   5    -0.233404223574E+04    0.13259E-03   -0.31593E-04  4197   0.119E-02    0.622E-02
RMM:   6    -0.233404221384E+04    0.21895E-04   -0.14895E-04  4184   0.938E-03    0.368E-02
RMM:   7    -0.233404219886E+04    0.14981E-04   -0.46812E-05  3036   0.647E-03    0.177E-02
RMM:   8    -0.233404219464E+04    0.42188E-05   -0.76854E-06  2896   0.306E-03
  60 F= -.23555328E+04 E0= -.23555328E+04  d E =-.312995E-02  mag=     5.0000
       N       E                     dE             d eps       ncg     rms          rms(c)
DAV:   1    -0.233401702624E+04    0.25173E-01   -0.20778E+00  4536   0.149E+00    0.398E-01
RMM:   2    -0.233404199229E+04   -0.24966E-01   -0.26667E-01  6287   0.308E-01    0.205E-01
RMM:   3    -0.233404401659E+04   -0.20243E-02   -0.28507E-02  5816   0.122E-01    0.158E-01
RMM:   4    -0.233404408416E+04   -0.67569E-04   -0.26371E-03  5172   0.243E-02    0.151E-01
RMM:   5    -0.233404386009E+04    0.22407E-03   -0.48994E-04  4691   0.143E-02    0.787E-02
RMM:   6    -0.233404383263E+04    0.27459E-04   -0.27692E-04  4598   0.120E-02    0.531E-02
RMM:   7    -0.233404379939E+04    0.33235E-04   -0.74270E-05  3105   0.752E-03    0.192E-02
RMM:   8    -0.233404379422E+04    0.51739E-05   -0.13268E-05  2962   0.378E-03
  61 F= -.23555341E+04 E0= -.23555341E+04  d E =-.442305E-02  mag=     5.0000
       N       E                     dE             d eps       ncg     rms          rms(c)
DAV:   1    -0.233402697381E+04    0.16826E-01   -0.16324E+00  4536   0.129E+00    0.349E-01
RMM:   2    -0.233404552095E+04   -0.18547E-01   -0.19763E-01  6247   0.266E-01    0.177E-01
RMM:   3    -0.233404699033E+04   -0.14694E-02   -0.20682E-02  5799   0.104E-01    0.154E-01
RMM:   4    -0.233404702979E+04   -0.39459E-04   -0.20733E-03  4845   0.214E-02    0.131E-01
RMM:   5    -0.233404682632E+04    0.20347E-03   -0.33402E-04  4512   0.133E-02    0.558E-02
RMM:   6    -0.233404680431E+04    0.22003E-04   -0.13848E-04  4211   0.979E-03    0.266E-02
RMM:   7    -0.233404680235E+04    0.19679E-05   -0.37148E-05  3011   0.632E-03
  62 F= -.23555368E+04 E0= -.23555368E+04  d E =-.275280E-02  mag=     5.0000
       N       E                     dE             d eps       ncg     rms          rms(c)
DAV:   1    -0.233403608146E+04    0.10723E-01   -0.90612E-01  4592   0.963E-01    0.261E-01
RMM:   2    -0.233404638803E+04   -0.10307E-01   -0.10986E-01  6279   0.199E-01    0.132E-01
RMM:   3    -0.233404719413E+04   -0.80610E-03   -0.11400E-02  5721   0.758E-02    0.112E-01
RMM:   4    -0.233404722505E+04   -0.30917E-04   -0.11438E-03  3940   0.162E-02    0.984E-02
RMM:   5    -0.233404710798E+04    0.11707E-03   -0.18605E-04  4035   0.106E-02    0.418E-02
RMM:   6    -0.233404710175E+04    0.62278E-05   -0.83454E-05  3649   0.802E-03
  63 F= -.23555370E+04 E0= -.23555370E+04  d E =-.286575E-02  mag=     5.0000
       N       E                     dE             d eps       ncg     rms          rms(c)
DAV:   1    -0.233402423487E+04    0.22873E-01   -0.20250E+00  4536   0.141E+00    0.386E-01
RMM:   2    -0.233404745714E+04   -0.23222E-01   -0.24706E-01  6359   0.291E-01    0.196E-01
RMM:   3    -0.233404915738E+04   -0.17002E-02   -0.25334E-02  5829   0.108E-01    0.162E-01
RMM:   4    -0.233404928074E+04   -0.12336E-03   -0.26169E-03  4940   0.231E-02    0.154E-01
RMM:   5    -0.233404901365E+04    0.26709E-03   -0.39719E-04  4472   0.136E-02    0.634E-02
RMM:   6    -0.233404900095E+04    0.12700E-04   -0.19626E-04  4384   0.109E-02    0.381E-02
RMM:   7    -0.233404898479E+04    0.16161E-04   -0.51896E-05  3048   0.655E-03    0.204E-02
RMM:   8    -0.233404897944E+04    0.53429E-05   -0.95129E-06  2935   0.321E-03
  64 F= -.23555387E+04 E0= -.23555387E+04  d E =-.170662E-02  mag=     5.0000
       N       E                     dE             d eps       ncg     rms          rms(c)
DAV:   1    -0.233404741213E+04    0.15727E-02   -0.13342E-01  4784   0.360E-01    0.994E-02
RMM:   2    -0.233404894151E+04   -0.15294E-02   -0.16244E-02  6304   0.746E-02    0.527E-02
RMM:   3    -0.233404905761E+04   -0.11610E-03   -0.16645E-03  3978   0.285E-02    0.464E-02
RMM:   4    -0.233404905456E+04    0.30473E-05   -0.17038E-04  3078   0.714E-03    0.350E-02
RMM:   5    -0.233404904333E+04    0.11233E-04   -0.27151E-05  2990   0.436E-03    0.239E-02
RMM:   6    -0.233404904128E+04    0.20486E-05   -0.21264E-05  2940   0.386E-03
  65 F= -.23555387E+04 E0= -.23555387E+04  d E =-.172590E-02  mag=     5.0000
       N       E                     dE             d eps       ncg     rms          rms(c)
DAV:   1    -0.233404413971E+04    0.49036E-02   -0.61704E-01  4560   0.764E-01    0.229E-01
RMM:   2    -0.233405040622E+04   -0.62665E-02   -0.67701E-02  6124   0.161E-01    0.118E-01
RMM:   3    -0.233405078691E+04   -0.38069E-03   -0.67439E-03  5590   0.629E-02    0.977E-02
RMM:   4    -0.233405076780E+04    0.19116E-04   -0.70233E-04  4166   0.142E-02    0.819E-02
RMM:   5    -0.233405070312E+04    0.64678E-04   -0.21681E-04  4173   0.112E-02    0.479E-02
RMM:   6    -0.233405069218E+04    0.10941E-04   -0.83573E-05  3153   0.796E-03    0.366E-02
RMM:   7    -0.233405067387E+04    0.18303E-04   -0.23744E-05  2959   0.557E-03    0.958E-03
RMM:   8    -0.233405067283E+04    0.10426E-05   -0.64982E-06  2906   0.295E-03
  66 F= -.23555403E+04 E0= -.23555403E+04  d E =-.165735E-02  mag=     5.0000
       N       E                     dE             d eps       ncg     rms          rms(c)
DAV:   1    -0.233405059512E+04    0.78750E-04   -0.76893E-03  5128   0.857E-02    0.265E-02
RMM:   2    -0.233405067510E+04   -0.79972E-04   -0.86000E-04  5880   0.192E-02    0.162E-02
RMM:   3    -0.233405068135E+04   -0.62540E-05   -0.95362E-05  2978   0.750E-03
  67 F= -.23555403E+04 E0= -.23555403E+04  d E =-.166889E-02  mag=     5.0000
       N       E                     dE             d eps       ncg     rms          rms(c)
DAV:   1    -0.233404818139E+04    0.24937E-02   -0.37151E-01  4560   0.596E-01    0.170E-01
RMM:   2    -0.233405152899E+04   -0.33476E-02   -0.35860E-02  6198   0.120E-01    0.909E-02
RMM:   3    -0.233405174333E+04   -0.21434E-03   -0.36761E-03  5401   0.465E-02    0.842E-02
RMM:   4    -0.233405169732E+04    0.46008E-04   -0.36073E-04  3352   0.104E-02    0.563E-02
RMM:   5    -0.233405166813E+04    0.29192E-04   -0.11088E-04  3400   0.832E-03    0.328E-02
RMM:   6    -0.233405166455E+04    0.35715E-05   -0.52237E-05  3053   0.680E-03
  68 F= -.23555415E+04 E0= -.23555415E+04  d E =-.117350E-02  mag=     5.0000
       N       E                     dE             d eps       ncg     rms          rms(c)
DAV:   1    -0.233404953082E+04    0.21373E-02   -0.22613E-01  4560   0.465E-01    0.134E-01
RMM:   2    -0.233405157894E+04   -0.20481E-02   -0.22084E-02  6216   0.946E-02    0.661E-02
RMM:   3    -0.233405169848E+04   -0.11954E-03   -0.21770E-03  4809   0.332E-02    0.567E-02
RMM:   4    -0.233405168665E+04    0.11827E-04   -0.21426E-04  3163   0.819E-03    0.448E-02
RMM:   5    -0.233405166713E+04    0.19524E-04   -0.60142E-05  3077   0.620E-03    0.255E-02
RMM:   6    -0.233405166456E+04    0.25678E-05   -0.30655E-05  2987   0.549E-03
  69 F= -.23555417E+04 E0= -.23555417E+04  d E =-.132283E-02  mag=     5.0000
       N       E                     dE             d eps       ncg     rms          rms(c)
DAV:   1    -0.233405053512E+04    0.11320E-02   -0.21527E-01  4576   0.444E-01    0.119E-01
RMM:   2    -0.233405243925E+04   -0.19041E-02   -0.20091E-02  6425   0.892E-02    0.748E-02
RMM:   3    -0.233405257299E+04   -0.13374E-03   -0.19576E-03  4556   0.321E-02    0.772E-02
RMM:   4    -0.233405252019E+04    0.52796E-04   -0.20233E-04  3145   0.841E-03    0.364E-02
RMM:   5    -0.233405250756E+04    0.12638E-04   -0.42375E-05  3052   0.554E-03    0.234E-02
RMM:   6    -0.233405250655E+04    0.10096E-05   -0.30544E-05  3003   0.523E-03
  70 F= -.23555425E+04 E0= -.23555425E+04  d E =-.863245E-03  mag=     5.0000
       N       E                     dE             d eps       ncg     rms          rms(c)
DAV:   1    -0.233404185900E+04    0.10649E-01   -0.12277E+00  4536   0.106E+00    0.284E-01
RMM:   2    -0.233405275576E+04   -0.10897E-01   -0.11454E-01  6260   0.212E-01    0.186E-01
RMM:   3    -0.233405350633E+04   -0.75057E-03   -0.11208E-02  5875   0.774E-02    0.191E-01
RMM:   4    -0.233405316172E+04    0.34461E-03   -0.11642E-03  4628   0.179E-02    0.862E-02
RMM:   5    -0.233405309428E+04    0.67439E-04   -0.24068E-04  4168   0.113E-02    0.591E-02
RMM:   6    -0.233405307661E+04    0.17670E-04   -0.17540E-04  4066   0.994E-03    0.453E-02
RMM:   7    -0.233405305217E+04    0.24442E-04   -0.45071E-05  3053   0.655E-03    0.151E-02
RMM:   8    -0.233405305065E+04    0.15124E-05   -0.10523E-05  2936   0.379E-03
  71 F= -.23555431E+04 E0= -.23555431E+04  d E =-.146181E-02  mag=     5.0000
       N       E                     dE             d eps       ncg     rms          rms(c)
DAV:   1    -0.233404998112E+04    0.30710E-02   -0.43306E-01  4576   0.610E-01    0.172E-01
RMM:   2    -0.233405406708E+04   -0.40860E-02   -0.42501E-02  6363   0.126E-01    0.126E-01
RMM:   3    -0.233405435155E+04   -0.28446E-03   -0.43801E-03  5502   0.464E-02    0.123E-01
RMM:   4    -0.233405420105E+04    0.15049E-03   -0.43365E-04  3377   0.113E-02    0.509E-02
RMM:   5    -0.233405417605E+04    0.25009E-04   -0.89995E-05  3254   0.749E-03    0.354E-02
RMM:   6    -0.233405416860E+04    0.74489E-05   -0.67045E-05  3201   0.707E-03
  72 F= -.23555441E+04 E0= -.23555441E+04  d E =-.100565E-02  mag=     5.0000
       N       E                     dE             d eps       ncg     rms          rms(c)
DAV:   1    -0.233405127018E+04    0.29059E-02   -0.32168E-01  4576   0.525E-01    0.149E-01
RMM:   2    -0.233405429780E+04   -0.30276E-02   -0.31729E-02  6400   0.110E-01    0.101E-01
RMM:   3    -0.233405452047E+04   -0.22267E-03   -0.32490E-03  5184   0.388E-02    0.102E-01
RMM:   4    -0.233405442026E+04    0.10020E-03   -0.32517E-04  3256   0.986E-03    0.458E-02
RMM:   5    -0.233405439912E+04    0.21143E-04   -0.63268E-05  3163   0.624E-03    0.301E-02
RMM:   6    -0.233405439191E+04    0.72116E-05   -0.52545E-05  3159   0.631E-03
  73 F= -.23555443E+04 E0= -.23555443E+04  d E =-.113317E-02  mag=     5.0000
       N       E                     dE             d eps       ncg     rms          rms(c)
DAV:   1    -0.233405094429E+04    0.34548E-02   -0.49848E-01  4536   0.626E-01    0.181E-01
RMM:   2    -0.233405537852E+04   -0.44342E-02   -0.46978E-02  6491   0.129E-01    0.962E-02
RMM:   3    -0.233405572068E+04   -0.34216E-03   -0.50420E-03  5410   0.474E-02    0.838E-02
RMM:   4    -0.233405568812E+04    0.32561E-04   -0.45843E-04  3268   0.107E-02    0.614E-02
RMM:   5    -0.233405564757E+04    0.40547E-04   -0.10135E-04  3218   0.771E-03    0.323E-02
RMM:   6    -0.233405564561E+04    0.19645E-05   -0.65216E-05  3223   0.694E-03
  74 F= -.23555454E+04 E0= -.23555454E+04  d E =-.109445E-02  mag=     5.0000
       N       E                     dE             d eps       ncg     rms          rms(c)
DAV:   1    -0.233405300201E+04    0.26456E-02   -0.31331E-01  4552   0.496E-01    0.145E-01
RMM:   2    -0.233405580108E+04   -0.27991E-02   -0.29731E-02  6425   0.103E-01    0.785E-02
RMM:   3    -0.233405601459E+04   -0.21351E-03   -0.31445E-03  4771   0.369E-02    0.744E-02
RMM:   4    -0.233405598622E+04    0.28369E-04   -0.29571E-04  3163   0.887E-03    0.467E-02
RMM:   5    -0.233405596240E+04    0.23823E-04   -0.60085E-05  3117   0.610E-03    0.256E-02
RMM:   6    -0.233405596176E+04    0.63356E-06   -0.39928E-05  3091   0.580E-03
  75 F= -.23555455E+04 E0= -.23555455E+04  d E =-.128481E-02  mag=     5.0000
       N       E                     dE             d eps       ncg     rms          rms(c)
DAV:   1    -0.233405263414E+04    0.33283E-02   -0.58536E-01  4536   0.673E-01    0.191E-01
RMM:   2    -0.233405722449E+04   -0.45904E-02   -0.49153E-02  6314   0.135E-01    0.975E-02
RMM:   3    -0.233405751684E+04   -0.29235E-03   -0.50422E-03  5513   0.501E-02    0.737E-02
RMM:   4    -0.233405750013E+04    0.16712E-04   -0.47361E-04  3469   0.112E-02    0.604E-02
RMM:   5    -0.233405745704E+04    0.43091E-04   -0.12073E-04  3504   0.871E-03    0.310E-02
RMM:   6    -0.233405745702E+04    0.17491E-07   -0.51957E-05  3086   0.676E-03
  76 F= -.23555468E+04 E0= -.23555468E+04  d E =-.123344E-02  mag=     5.0000
       N       E                     dE             d eps       ncg     rms          rms(c)
DAV:   1    -0.233405573169E+04    0.17253E-02   -0.24551E-01  4576   0.436E-01    0.126E-01
RMM:   2    -0.233405767602E+04   -0.19443E-02   -0.20826E-02  6345   0.882E-02    0.653E-02
RMM:   3    -0.233405779976E+04   -0.12374E-03   -0.20715E-03  4570   0.309E-02    0.568E-02
RMM:   4    -0.233405778687E+04    0.12887E-04   -0.20095E-04  3129   0.780E-03    0.437E-02
RMM:   5    -0.233405777168E+04    0.15186E-04   -0.48585E-05  3060   0.542E-03    0.294E-02
RMM:   6    -0.233405776539E+04    0.62947E-05   -0.37549E-05  3026   0.534E-03
  77 F= -.23555469E+04 E0= -.23555469E+04  d E =-.137262E-02  mag=     5.0000
       N       E                     dE             d eps       ncg     rms          rms(c)
DAV:   1    -0.233405389215E+04    0.38795E-02   -0.69748E-01  4536   0.746E-01    0.205E-01
RMM:   2    -0.233405875075E+04   -0.48586E-02   -0.52167E-02  6237   0.144E-01    0.993E-02
RMM:   3    -0.233405900593E+04   -0.25518E-03   -0.48581E-03  5582   0.534E-02    0.821E-02
RMM:   4    -0.233405898305E+04    0.22878E-04   -0.47632E-04  3569   0.118E-02    0.699E-02
RMM:   5    -0.233405893885E+04    0.44197E-04   -0.15514E-04  3607   0.935E-03    0.467E-02
RMM:   6    -0.233405892506E+04    0.13794E-04   -0.86136E-05  3153   0.781E-03    0.294E-02
RMM:   7    -0.233405891522E+04    0.98410E-05   -0.18681E-05  2953   0.521E-03
  78 F= -.23555479E+04 E0= -.23555479E+04  d E =-.100991E-02  mag=     5.0000
       N       E                     dE             d eps       ncg     rms          rms(c)
DAV:   1    -0.233405783289E+04    0.10922E-02   -0.17001E-01  4608   0.369E-01    0.102E-01
RMM:   2    -0.233405902402E+04   -0.11911E-02   -0.12745E-02  6301   0.718E-02    0.526E-02
RMM:   3    -0.233405909935E+04   -0.75329E-04   -0.12328E-03  4069   0.268E-02    0.501E-02
RMM:   4    -0.233405907853E+04    0.20817E-04   -0.11993E-04  3073   0.705E-03    0.317E-02
RMM:   5    -0.233405907110E+04    0.74313E-05   -0.38424E-05  3048   0.499E-03
  79 F= -.23555480E+04 E0= -.23555480E+04  d E =-.109707E-02  mag=     5.0000
       N       E                     dE             d eps       ncg     rms          rms(c)
DAV:   1    -0.233405582898E+04    0.32496E-02   -0.54341E-01  4536   0.653E-01    0.181E-01
RMM:   2    -0.233405972884E+04   -0.38999E-02   -0.41914E-02  6303   0.130E-01    0.934E-02
RMM:   3    -0.233406000190E+04   -0.27306E-03   -0.44833E-03  5506   0.502E-02    0.842E-02
RMM:   4    -0.233405995530E+04    0.46600E-04   -0.39892E-04  3442   0.112E-02    0.583E-02
RMM:   5    -0.233405991274E+04    0.42563E-04   -0.13878E-04  3833   0.902E-03    0.305E-02
RMM:   6    -0.233405991625E+04   -0.35065E-05   -0.52561E-05  3083   0.690E-03
  80 F= -.23555489E+04 E0= -.23555489E+04  d E =-.844874E-03  mag=     5.0000
       N       E                     dE             d eps       ncg     rms          rms(c)
DAV:   1    -0.233405923187E+04    0.68087E-03   -0.91844E-02  4768   0.268E-01    0.762E-02
RMM:   2    -0.233405990182E+04   -0.66994E-03   -0.72512E-03  6313   0.539E-02    0.394E-02
RMM:   3    -0.233405995049E+04   -0.48669E-04   -0.73867E-04  3516   0.191E-02    0.438E-02
RMM:   4    -0.233405993725E+04    0.13240E-04   -0.69386E-05  3017   0.554E-03    0.251E-02
RMM:   5    -0.233405993119E+04    0.60571E-05   -0.20514E-05  3020   0.361E-03
  81 F= -.23555489E+04 E0= -.23555489E+04  d E =-.859974E-03  mag=     5.0000
       N       E                     dE             d eps       ncg     rms          rms(c)
DAV:   1    -0.233405596493E+04    0.39723E-02   -0.56993E-01  4536   0.632E-01    0.173E-01
RMM:   2    -0.233406041340E+04   -0.44485E-02   -0.47714E-02  6433   0.130E-01    0.877E-02
RMM:   3    -0.233406072325E+04   -0.30985E-03   -0.50323E-03  5260   0.465E-02    0.677E-02
RMM:   4    -0.233406072607E+04   -0.28230E-05   -0.44133E-04  3266   0.106E-02    0.572E-02
RMM:   5    -0.233406068568E+04    0.40395E-04   -0.10894E-04  3324   0.770E-03    0.316E-02
[...]
       N       E                     dE             d eps       ncg     rms          rms(c)
DAV:   1    -0.233424333045E+04    0.19732E-02   -0.37294E-01  4536   0.514E-01    0.134E-01
RMM:   2    -0.233424589900E+04   -0.25686E-02   -0.27029E-02  6214   0.106E-01    0.955E-02
RMM:   3    -0.233424597057E+04   -0.71568E-04   -0.24712E-03  4524   0.353E-02    0.914E-02
RMM:   4    -0.233424588370E+04    0.86863E-04   -0.23743E-04  3256   0.907E-03    0.484E-02
RMM:   5    -0.233424587068E+04    0.13020E-04   -0.64273E-05  3131   0.575E-03    0.433E-02
RMM:   6    -0.233424584711E+04    0.23573E-04   -0.69356E-05  3127   0.649E-03    0.199E-02
RMM:   7    -0.233424584362E+04    0.34942E-05   -0.20568E-05  3002   0.468E-03
 169 F= -.23557450E+04 E0= -.23557450E+04  d E =-.645623E-03  mag=     4.9996
       N       E                     dE             d eps       ncg     rms          rms(c)
DAV:   1    -0.233424290881E+04    0.29383E-02   -0.43848E-01  4536   0.557E-01    0.148E-01
RMM:   2    -0.233424593991E+04   -0.30311E-02   -0.32044E-02  6291   0.116E-01    0.102E-01
RMM:   3    -0.233424600526E+04   -0.65348E-04   -0.28858E-03  4825   0.393E-02    0.895E-02
RMM:   4    -0.233424592027E+04    0.84995E-04   -0.27446E-04  3323   0.973E-03    0.495E-02
RMM:   5    -0.233424590844E+04    0.11823E-04   -0.71782E-05  3106   0.619E-03    0.462E-02
RMM:   6    -0.233424588460E+04    0.23838E-04   -0.70723E-05  3140   0.641E-03    0.251E-02
RMM:   7    -0.233424587808E+04    0.65196E-05   -0.23440E-05  3009   0.506E-03
 170 F= -.23557452E+04 E0= -.23557451E+04  d E =-.787719E-03  mag=     4.9996
       N       E                     dE             d eps       ncg     rms          rms(c)
DAV:   1    -0.233424391767E+04    0.19669E-02   -0.39709E-01  4536   0.536E-01    0.141E-01
RMM:   2    -0.233424651033E+04   -0.25927E-02   -0.27401E-02  6235   0.110E-01    0.881E-02
RMM:   3    -0.233424654719E+04   -0.36856E-04   -0.23297E-03  4628   0.380E-02    0.848E-02
RMM:   4    -0.233424647000E+04    0.77193E-04   -0.23168E-04  3289   0.953E-03    0.475E-02
RMM:   5    -0.233424646060E+04    0.93975E-05   -0.71985E-05  3115   0.637E-03
 171 F= -.23557459E+04 E0= -.23557459E+04  d E =-.748996E-03  mag=     4.9996
       N       E                     dE             d eps       ncg     rms          rms(c)
DAV:   1    -0.233424390367E+04    0.25663E-02   -0.39558E-01  4536   0.535E-01    0.141E-01
RMM:   2    -0.233424647219E+04   -0.25685E-02   -0.27072E-02  6330   0.110E-01    0.948E-02
RMM:   3    -0.233424650829E+04   -0.36100E-04   -0.25190E-03  4877   0.382E-02    0.846E-02
RMM:   4    -0.233424641184E+04    0.96453E-04   -0.22119E-04  3310   0.974E-03    0.416E-02
RMM:   5    -0.233424638065E+04    0.31193E-04   -0.10180E-04  3874   0.772E-03    0.220E-02
RMM:   6    -0.233424638159E+04   -0.94601E-06   -0.33599E-05  2997   0.642E-03
 172 F= -.23557460E+04 E0= -.23557460E+04  d E =-.837284E-03  mag=     4.9996
       N       E                     dE             d eps       ncg     rms          rms(c)
DAV:   1    -0.233424283463E+04    0.35460E-02   -0.56873E-01  4520   0.633E-01    0.167E-01
RMM:   2    -0.233424691034E+04   -0.40757E-02   -0.42661E-02  6144   0.132E-01    0.109E-01
RMM:   3    -0.233424697771E+04   -0.67371E-04   -0.36357E-03  4915   0.421E-02    0.101E-01
RMM:   4    -0.233424685657E+04    0.12114E-03   -0.33729E-04  3380   0.103E-02    0.558E-02
RMM:   5    -0.233424684481E+04    0.11751E-04   -0.95145E-05  3176   0.678E-03    0.557E-02
RMM:   6    -0.233424680747E+04    0.37345E-04   -0.89445E-05  3281   0.723E-03    0.219E-02
RMM:   7    -0.233424680454E+04    0.29269E-05   -0.23704E-05  3024   0.522E-03
 173 F= -.23557467E+04 E0= -.23557467E+04  d E =-.694738E-03  mag=     4.9996
       N       E                     dE             d eps       ncg     rms          rms(c)
DAV:   1    -0.233424523411E+04    0.15734E-02   -0.21128E-01  4544   0.386E-01    0.103E-01
RMM:   2    -0.233424675664E+04   -0.15225E-02   -0.15903E-02  6273   0.807E-02    0.699E-02
RMM:   3    -0.233424678734E+04   -0.30694E-04   -0.13618E-03  4095   0.276E-02    0.697E-02
RMM:   4    -0.233424672969E+04    0.57648E-04   -0.12802E-04  3132   0.734E-03    0.338E-02
RMM:   5    -0.233424672606E+04    0.36242E-05   -0.36673E-05  3046   0.449E-03
 174 F= -.23557468E+04 E0= -.23557468E+04  d E =-.782351E-03  mag=     4.9996
       N       E                     dE             d eps       ncg     rms          rms(c)
DAV:   1    -0.233424393901E+04    0.27907E-02   -0.55786E-01  4536   0.627E-01    0.168E-01
RMM:   2    -0.233424750075E+04   -0.35617E-02   -0.37676E-02  6122   0.127E-01    0.103E-01
RMM:   3    -0.233424761094E+04   -0.11019E-03   -0.35771E-03  5318   0.455E-02    0.951E-02
RMM:   4    -0.233424750969E+04    0.10125E-03   -0.30821E-04  3377   0.106E-02    0.515E-02
RMM:   5    -0.233424747609E+04    0.33600E-04   -0.11932E-04  3753   0.816E-03    0.317E-02
RMM:   6    -0.233424747077E+04    0.53261E-05   -0.51156E-05  3132   0.664E-03
 175 F= -.23557477E+04 E0= -.23557476E+04  d E =-.882898E-03  mag=     4.9996
       N       E                     dE             d eps       ncg     rms          rms(c)
DAV:   1    -0.233424616624E+04    0.13099E-02   -0.20025E-01  4576   0.375E-01    0.103E-01
RMM:   2    -0.233424747486E+04   -0.13086E-02   -0.13844E-02  6224   0.768E-02    0.678E-02
RMM:   3    -0.233424751991E+04   -0.45055E-04   -0.12949E-03  4119   0.256E-02    0.742E-02
RMM:   4    -0.233424746026E+04    0.59658E-04   -0.12421E-04  3115   0.735E-03    0.347E-02
RMM:   5    -0.233424745238E+04    0.78779E-05   -0.35217E-05  3100   0.430E-03
 176 F= -.23557477E+04 E0= -.23557477E+04  d E =-.947441E-03  mag=     4.9996
       N       E                     dE             d eps       ncg     rms          rms(c)
DAV:   1    -0.233424439273E+04    0.30675E-02   -0.59794E-01  4528   0.635E-01    0.168E-01
RMM:   2    -0.233424801449E+04   -0.36218E-02   -0.38136E-02  6121   0.126E-01    0.115E-01
RMM:   3    -0.233424812245E+04   -0.10796E-03   -0.35976E-03  5379   0.433E-02    0.106E-01
RMM:   4    -0.233424799572E+04    0.12673E-03   -0.30692E-04  3349   0.105E-02    0.527E-02
RMM:   5    -0.233424797102E+04    0.24703E-04   -0.13923E-04  3826   0.828E-03    0.424E-02
RMM:   6    -0.233424796049E+04    0.10532E-04   -0.70867E-05  3074   0.719E-03    0.315E-02
RMM:   7    -0.233424795133E+04    0.91525E-05   -0.21999E-05  3012   0.475E-03
 177 F= -.23557483E+04 E0= -.23557483E+04  d E =-.560494E-03  mag=     4.9996
       N       E                     dE             d eps       ncg     rms          rms(c)
DAV:   1    -0.233424776623E+04    0.19426E-03   -0.26999E-02  4824   0.135E-01    0.375E-02
RMM:   2    -0.233424793336E+04   -0.16713E-03   -0.17903E-03  5935   0.282E-02    0.225E-02
RMM:   3    -0.233424793853E+04   -0.51769E-05   -0.16226E-04  3096   0.101E-02    0.207E-02
RMM:   4    -0.233424793456E+04    0.39777E-05   -0.15468E-05  2951   0.335E-03
 178 F= -.23557483E+04 E0= -.23557483E+04  d E =-.556783E-03  mag=     4.9996
       N       E                     dE             d eps       ncg     rms          rms(c)
DAV:   1    -0.233424680026E+04    0.11383E-02   -0.25668E-01  4504   0.435E-01    0.122E-01
RMM:   2    -0.233424839100E+04   -0.15907E-02   -0.16847E-02  6087   0.882E-02    0.777E-02
RMM:   3    -0.233424844798E+04   -0.56976E-04   -0.15370E-03  4385   0.317E-02    0.845E-02
RMM:   4    -0.233424836915E+04    0.78825E-04   -0.15238E-04  3199   0.831E-03    0.414E-02
RMM:   5    -0.233424836789E+04    0.12603E-05   -0.68742E-05  3160   0.625E-03
 179 F= -.23557488E+04 E0= -.23557487E+04  d E =-.489300E-03  mag=     4.9996
       N       E                     dE             d eps       ncg     rms          rms(c)
DAV:   1    -0.233424822486E+04    0.14430E-03   -0.14921E-02  5080   0.106E-01    0.326E-02
RMM:   2    -0.233424832188E+04   -0.97023E-04   -0.10422E-03  5752   0.231E-02    0.242E-02
RMM:   3    -0.233424832355E+04   -0.16652E-05   -0.10296E-04  3043   0.854E-03    0.220E-02
RMM:   4    -0.233424831711E+04    0.64412E-05   -0.10103E-05  2928   0.335E-03
 180 F= -.23557487E+04 E0= -.23557487E+04  d E =-.452286E-03  mag=     4.9996
       N       E                     dE             d eps       ncg     rms          rms(c)
DAV:   1    -0.233424705069E+04    0.12729E-02   -0.22273E-01  4536   0.415E-01    0.116E-01
RMM:   2    -0.233424858933E+04   -0.15386E-02   -0.16438E-02  6172   0.849E-02    0.686E-02
RMM:   3    -0.233424861219E+04   -0.22862E-04   -0.13820E-03  4403   0.294E-02    0.589E-02
RMM:   4    -0.233424856856E+04    0.43632E-04   -0.13763E-04  3178   0.804E-03    0.346E-02
RMM:   5    -0.233424855222E+04    0.16343E-04   -0.63510E-05  3283   0.651E-03    0.258E-02
RMM:   6    -0.233424855031E+04    0.19099E-05   -0.30892E-05  2973   0.570E-03
 181 F= -.23557491E+04 E0= -.23557490E+04  d E =-.337121E-03  mag=     4.9996
       N       E                     dE             d eps       ncg     rms          rms(c)
DAV:   1    -0.233424839521E+04    0.15701E-03   -0.15853E-02  4896   0.111E-01    0.333E-02
RMM:   2    -0.233424850766E+04   -0.11245E-03   -0.12256E-03  5981   0.239E-02    0.202E-02
RMM:   3    -0.233424850938E+04   -0.17226E-05   -0.10508E-04  3039   0.850E-03    0.175E-02
RMM:   4    -0.233424850574E+04    0.36406E-05   -0.11074E-05  2936   0.290E-03
 182 F= -.23557491E+04 E0= -.23557490E+04  d E =-.320476E-03  mag=     4.9996
       N       E                     dE             d eps       ncg     rms          rms(c)
DAV:   1    -0.233424709460E+04    0.14148E-02   -0.24272E-01  4536   0.430E-01    0.117E-01
RMM:   2    -0.233424874065E+04   -0.16461E-02   -0.17224E-02  6136   0.872E-02    0.829E-02
RMM:   3    -0.233424877911E+04   -0.38454E-04   -0.15871E-03  4420   0.312E-02    0.710E-02
RMM:   4    -0.233424872048E+04    0.58628E-04   -0.15340E-04  3212   0.823E-03    0.377E-02
RMM:   5    -0.233424872069E+04   -0.21519E-06   -0.58954E-05  3038   0.584E-03
 183 F= -.23557494E+04 E0= -.23557494E+04  d E =-.378011E-03  mag=     4.9996
       N       E                     dE             d eps       ncg     rms          rms(c)
DAV:   1    -0.233424823572E+04    0.48475E-03   -0.54936E-02  4560   0.205E-01    0.574E-02
RMM:   2    -0.233424861362E+04   -0.37790E-03   -0.39569E-03  6393   0.433E-02    0.445E-02
RMM:   3    -0.233424862388E+04   -0.10258E-04   -0.41173E-04  3365   0.148E-02    0.398E-02
RMM:   4    -0.233424860482E+04    0.19054E-04   -0.36361E-05  2967   0.516E-03    0.182E-02
RMM:   5    -0.233424860647E+04   -0.16491E-05   -0.16366E-05  2968   0.308E-03
 184 F= -.23557494E+04 E0= -.23557494E+04  d E =-.342330E-03  mag=     4.9996
       N       E                     dE             d eps       ncg     rms          rms(c)
DAV:   1    -0.233424744714E+04    0.11577E-02   -0.20653E-01  4536   0.393E-01    0.106E-01
RMM:   2    -0.233424879245E+04   -0.13453E-02   -0.14146E-02  6157   0.791E-02    0.757E-02
RMM:   3    -0.233424883552E+04   -0.43063E-04   -0.13589E-03  4207   0.281E-02    0.714E-02
RMM:   4    -0.233424878305E+04    0.52471E-04   -0.13254E-04  3161   0.773E-03    0.369E-02
RMM:   5    -0.233424877850E+04    0.45478E-05   -0.42586E-05  3004   0.489E-03
 185 F= -.23557497E+04 E0= -.23557497E+04  d E =-.285609E-03  mag=     4.9996
       N       E                     dE             d eps       ncg     rms          rms(c)
DAV:   1    -0.233424850402E+04    0.27903E-03   -0.31687E-02  4768   0.154E-01    0.431E-02
RMM:   2    -0.233424871331E+04   -0.20929E-03   -0.21885E-03  6147   0.322E-02    0.362E-02
RMM:   3    -0.233424871599E+04   -0.26765E-05   -0.23110E-04  3157   0.116E-02    0.297E-02
RMM:   4    -0.233424870558E+04    0.10405E-04   -0.20584E-05  2955   0.404E-03    0.137E-02
RMM:   5    -0.233424870671E+04   -0.11262E-05   -0.10769E-05  2932   0.257E-03
 186 F= -.23557497E+04 E0= -.23557496E+04  d E =-.258968E-03  mag=     4.9996
       N       E                     dE             d eps       ncg     rms          rms(c)
DAV:   1    -0.233424789209E+04    0.81349E-03   -0.15619E-01  4520   0.354E-01    0.103E-01
RMM:   2    -0.233424897045E+04   -0.10784E-02   -0.11311E-02  6071   0.722E-02    0.763E-02
RMM:   3    -0.233424900514E+04   -0.34690E-04   -0.10595E-03  4228   0.262E-02    0.813E-02
RMM:   4    -0.233424893218E+04    0.72955E-04   -0.11299E-04  3118   0.742E-03    0.313E-02
RMM:   5    -0.233424892913E+04    0.30542E-05   -0.39923E-05  3040   0.485E-03
 187 F= -.23557499E+04 E0= -.23557499E+04  d E =-.288456E-03  mag=     4.9996
       N       E                     dE             d eps       ncg     rms          rms(c)
DAV:   1    -0.233424880936E+04    0.12282E-03   -0.11918E-02  5032   0.983E-02    0.301E-02
RMM:   2    -0.233424889376E+04   -0.84402E-04   -0.88424E-04  5692   0.214E-02    0.264E-02
RMM:   3    -0.233424889286E+04    0.90696E-06   -0.91893E-05  3054   0.806E-03
 188 F= -.23557499E+04 E0= -.23557499E+04  d E =-.270772E-03  mag=     4.9996
       N       E                     dE             d eps       ncg     rms          rms(c)
DAV:   1    -0.233424830383E+04    0.58994E-03   -0.10459E-01  4520   0.290E-01    0.822E-02
RMM:   2    -0.233424907327E+04   -0.76945E-03   -0.81305E-03  6067   0.603E-02    0.577E-02
RMM:   3    -0.233424909953E+04   -0.26259E-04   -0.71401E-04  3840   0.211E-02    0.620E-02
RMM:   4    -0.233424905705E+04    0.42482E-04   -0.77534E-05  3071   0.626E-03    0.274E-02
RMM:   5    -0.233424905334E+04    0.37112E-05   -0.31723E-05  3045   0.438E-03
 189 F= -.23557501E+04 E0= -.23557501E+04  d E =-.212592E-03  mag=     4.9996
       N       E                     dE             d eps       ncg     rms          rms(c)
DAV:   1    -0.233424896435E+04    0.92696E-04   -0.81418E-03  5072   0.812E-02    0.255E-02
RMM:   2    -0.233424902738E+04   -0.63027E-04   -0.65533E-04  5411   0.181E-02    0.236E-02
RMM:   3    -0.233424902508E+04    0.23003E-05   -0.66584E-05  3006   0.705E-03
 190 F= -.23557501E+04 E0= -.23557501E+04  d E =-.199099E-03  mag=     4.9996
       N       E                     dE             d eps       ncg     rms          rms(c)
DAV:   1    -0.233424853744E+04    0.48994E-03   -0.98638E-02  4536   0.278E-01    0.769E-02
RMM:   2    -0.233424914376E+04   -0.60632E-03   -0.65311E-03  6075   0.556E-02    0.405E-02
RMM:   3    -0.233424915708E+04   -0.13320E-04   -0.57749E-04  3774   0.199E-02    0.320E-02
RMM:   4    -0.233424915336E+04    0.37166E-05   -0.59237E-05  3061   0.558E-03
 191 F= -.23557503E+04 E0= -.23557503E+04  d E =-.177376E-03  mag=     4.9996
       N       E                     dE             d eps       ncg     rms          rms(c)
DAV:   1    -0.233424909767E+04    0.59405E-04   -0.47604E-03  5224   0.613E-02    0.242E-02
RMM:   2    -0.233424914275E+04   -0.45075E-04   -0.33478E-04  4312   0.128E-02    0.406E-02
RMM:   3    -0.233424912435E+04    0.18398E-04   -0.41096E-05  2987   0.620E-03    0.142E-02
RMM:   4    -0.233424912229E+04    0.20565E-05   -0.64818E-06  2907   0.241E-03
 192 F= -.23557503E+04 E0= -.23557503E+04  d E =-.157335E-03  mag=     4.9996
       N       E                     dE             d eps       ncg     rms          rms(c)
DAV:   1    -0.233424865929E+04    0.46506E-03   -0.10087E-01  4536   0.283E-01    0.808E-02
RMM:   2    -0.233424921791E+04   -0.55862E-03   -0.60400E-03  6071   0.551E-02    0.448E-02
RMM:   3    -0.233424923881E+04   -0.20903E-04   -0.60057E-04  3798   0.215E-02    0.425E-02
RMM:   4    -0.233424921800E+04    0.20815E-04   -0.59000E-05  3040   0.621E-03    0.264E-02
RMM:   5    -0.233424921223E+04    0.57630E-05   -0.27984E-05  3031   0.440E-03
 193 F= -.23557504E+04 E0= -.23557504E+04  d E =-.135678E-03  mag=     4.9996
       N       E                     dE             d eps       ncg     rms          rms(c)
DAV:   1    -0.233424921041E+04    0.75885E-05   -0.13227E-04  5376   0.122E-02    0.158E-02
RMM:   2    -0.233424923009E+04   -0.19682E-04   -0.45236E-05  3047   0.417E-03    0.413E-02
RMM:   3    -0.233424920893E+04    0.21155E-04   -0.13951E-05  2550   0.324E-03    0.551E-03
RMM:   4    -0.233424920843E+04    0.50025E-06   -0.12584E-06  1599   0.939E-04
 194 F= -.23557504E+04 E0= -.23557504E+04  d E =-.130717E-03  mag=     4.9996
       N       E                     dE             d eps       ncg     rms          rms(c)
DAV:   1    -0.233424884309E+04    0.36585E-03   -0.64652E-02  4532   0.231E-01    0.682E-02
RMM:   2    -0.233424927710E+04   -0.43401E-03   -0.46762E-03  6047   0.476E-02    0.356E-02
RMM:   3    -0.233424929193E+04   -0.14834E-04   -0.41589E-04  3463   0.172E-02    0.389E-02
RMM:   4    -0.233424927513E+04    0.16806E-04   -0.43420E-05  3030   0.518E-03    0.216E-02
RMM:   5    -0.233424927208E+04    0.30489E-05   -0.19123E-05  2958   0.364E-03
 195 F= -.23557505E+04 E0= -.23557505E+04  d E =-.104143E-03  mag=     4.9996
       N       E                     dE             d eps       ncg     rms          rms(c)
DAV:   1    -0.233424925887E+04    0.16253E-04   -0.39466E-04  5256   0.191E-02    0.976E-03
RMM:   2    -0.233424926525E+04   -0.63728E-05   -0.40495E-05  3150   0.476E-03
 196 F= -.23557505E+04 E0= -.23557505E+04  d E =-.100634E-03  mag=     4.9996
       N       E                     dE             d eps       ncg     rms          rms(c)
DAV:   1    -0.233424884511E+04    0.41376E-03   -0.57994E-02  4548   0.215E-01    0.647E-02
RMM:   2    -0.233424933068E+04   -0.48557E-03   -0.51684E-03  6189   0.471E-02    0.409E-02
RMM:   3    -0.233424934289E+04   -0.12214E-04   -0.44703E-04  3562   0.176E-02    0.436E-02
RMM:   4    -0.233424932034E+04    0.22550E-04   -0.46833E-05  3036   0.519E-03    0.202E-02
RMM:   5    -0.233424931798E+04    0.23643E-05   -0.18543E-05  2933   0.360E-03
 197 F= -.23557506E+04 E0= -.23557506E+04  d E =-.104319E-03  mag=     4.9996
       N       E                     dE             d eps       ncg     rms          rms(c)
DAV:   1    -0.233424927682E+04    0.43526E-04   -0.24268E-03  5120   0.444E-02    0.159E-02
RMM:   2    -0.233424930044E+04   -0.23621E-04   -0.22813E-04  3960   0.106E-02    0.179E-02
RMM:   3    -0.233424929714E+04    0.32934E-05   -0.23603E-05  2875   0.527E-03
 198 F= -.23557506E+04 E0= -.23557506E+04  d E =-.943165E-04  mag=     4.9996
       N       E                     dE             d eps       ncg     rms          rms(c)
DAV:   1    -0.233424895807E+04    0.34237E-03   -0.51631E-02  4548   0.195E-01    0.579E-02
RMM:   2    -0.233424936790E+04   -0.40984E-03   -0.42439E-03  6125   0.427E-02    0.478E-02
RMM:   3    -0.233424937690E+04   -0.89949E-05   -0.39795E-04  3271   0.153E-02    0.464E-02
RMM:   4    -0.233424935121E+04    0.25690E-04   -0.40085E-05  3034   0.474E-03    0.182E-02
RMM:   5    -0.233424935036E+04    0.85060E-06   -0.15156E-05  2952   0.304E-03
 199 F= -.23557507E+04 E0= -.23557507E+04  d E =-.906217E-04  mag=     4.9996
       N       E                     dE             d eps       ncg     rms          rms(c)
DAV:   1    -0.233424927895E+04    0.72261E-04   -0.63770E-03  4800   0.687E-02    0.212E-02
RMM:   2    -0.233424932819E+04   -0.49238E-04   -0.52703E-04  4977   0.157E-02    0.146E-02
RMM:   3    -0.233424932977E+04   -0.15867E-05   -0.54435E-05  2982   0.659E-03
 200 F= -.23557507E+04 E0= -.23557507E+04  d E =-.834278E-04  mag=     4.9996
       N       E                     dE             d eps       ncg     rms          rms(c)
DAV:   1    -0.233424900469E+04    0.32350E-03   -0.51955E-02  4542   0.193E-01    0.587E-02
RMM:   2    -0.233424937074E+04   -0.36605E-03   -0.38757E-03  6140   0.419E-02    0.373E-02
RMM:   3    -0.233424938721E+04   -0.16467E-04   -0.35964E-04  3279   0.146E-02    0.428E-02
RMM:   4    -0.233424936647E+04    0.20743E-04   -0.39626E-05  3034   0.473E-03    0.193E-02
RMM:   5    -0.233424936147E+04    0.49945E-05   -0.16083E-05  2962   0.325E-03
 201 F= -.23557508E+04 E0= -.23557507E+04  d E =-.812660E-04  mag=     4.9996
