       N       E                     dE             d eps       ncg     rms          rms(c)
DAV:   1     0.131450230723E+05    0.13145E+05   -0.84379E+05  4528   0.145E+03
DAV:   2    -0.100361910109E+04   -0.14149E+05   -0.13504E+05  4952   0.332E+02
DAV:   3    -0.247663459116E+04   -0.14730E+04   -0.14545E+04  5528   0.115E+02
DAV:   4    -0.252332323043E+04   -0.46689E+02   -0.46435E+02  6680   0.298E+01
DAV:   5    -0.252419751028E+04   -0.87428E+00   -0.87242E+00  6264   0.352E+00    0.170E+02
RMM:   6    -0.149291438639E+04    0.10313E+04   -0.19437E+03  4461   0.382E+01    0.727E+01
RMM:   7    -0.167177530815E+04   -0.17886E+03   -0.29706E+02  5256   0.147E+01    0.552E+01
RMM:   8    -0.171372587903E+04   -0.41951E+02   -0.78203E+01  5327   0.853E+00    0.439E+01
RMM:   9    -0.178482442629E+04   -0.71099E+02   -0.54745E+01  5092   0.743E+00    0.325E+01
RMM:  10    -0.192382666088E+04   -0.13900E+03   -0.66465E+01  5455   0.806E+00    0.256E+01
RMM:  11    -0.199217869799E+04   -0.68352E+02   -0.27949E+01  5444   0.465E+00    0.228E+01
RMM:  12    -0.204358101321E+04   -0.51402E+02   -0.18049E+01  5235   0.347E+00    0.185E+01
RMM:  13    -0.212284514561E+04   -0.79264E+02   -0.36267E+01  4901   0.464E+00    0.134E+01
RMM:  14    -0.222329503488E+04   -0.10045E+03   -0.72039E+01  4508   0.621E+00    0.897E+00
RMM:  15    -0.228985078801E+04   -0.66556E+02   -0.65661E+01  4799   0.562E+00    0.548E+00
RMM:  16    -0.230733731094E+04   -0.17487E+02   -0.18701E+01  4849   0.353E+00    0.361E+00
RMM:  17    -0.231164877225E+04   -0.43115E+01   -0.53112E+00  5202   0.148E+00    0.263E+00
RMM:  18    -0.231322528967E+04   -0.15765E+01   -0.85494E-01  5208   0.691E-01    0.337E+00
RMM:  19    -0.231339342265E+04   -0.16813E+00   -0.11215E-01  5764   0.265E-01    0.410E+00
RMM:  20    -0.231339820507E+04   -0.47824E-02   -0.16374E-02  5810   0.770E-02    0.371E+00
RMM:  21    -0.231402449339E+04   -0.62629E+00   -0.12335E-01  4497   0.228E-01    0.312E+00
RMM:  22    -0.231452457926E+04   -0.50009E+00   -0.18850E-01  4465   0.286E-01    0.352E+00
RMM:  23    -0.231471359421E+04   -0.18901E+00   -0.19100E-01  4651   0.271E-01    0.434E+00
RMM:  24    -0.231467553548E+04    0.38059E-01   -0.34558E-02  5170   0.137E-01    0.428E+00
RMM:  25    -0.231462405888E+04    0.51477E-01   -0.17963E-02  4779   0.705E-02    0.393E+00
RMM:  26    -0.231459661055E+04    0.27448E-01   -0.71507E-03  4879   0.523E-02    0.386E+00
RMM:  27    -0.231447073116E+04    0.12588E+00   -0.39944E-02  4761   0.101E-01    0.438E+00
RMM:  28    -0.231458072142E+04   -0.10999E+00   -0.96120E-03  4725   0.631E-02    0.362E+00
RMM:  29    -0.231495470730E+04   -0.37399E+00   -0.10725E-01  4506   0.177E-01    0.264E+00
RMM:  30    -0.231513480299E+04   -0.18010E+00   -0.56852E-02  4676   0.157E-01    0.285E+00
RMM:  31    -0.231524220838E+04   -0.10741E+00   -0.52359E-02  5258   0.126E-01    0.362E+00
RMM:  32    -0.231534765663E+04   -0.10545E+00   -0.27633E-02  5060   0.934E-02    0.471E+00
RMM:  33    -0.231534136642E+04    0.62902E-02   -0.23323E-03  5032   0.367E-02    0.473E+00
RMM:  34    -0.231534423787E+04   -0.28714E-02   -0.54593E-04  4443   0.919E-03    0.473E+00
RMM:  35    -0.231534131698E+04    0.29209E-02   -0.46242E-05  2986   0.610E-03    0.473E+00
RMM:  36    -0.231536758972E+04   -0.26273E-01   -0.20913E-03  4512   0.204E-02    0.469E+00
RMM:  37    -0.231537029125E+04   -0.27015E-02   -0.20111E-04  3074   0.953E-03    0.469E+00
RMM:  38    -0.231537532167E+04   -0.50304E-02   -0.16115E-04  3195   0.737E-03    0.472E+00
RMM:  39    -0.231535064506E+04    0.24677E-01   -0.14991E-03  4336   0.168E-02    0.476E+00
RMM:  40    -0.231536128738E+04   -0.10642E-01   -0.18495E-04  3205   0.769E-03    0.475E+00
RMM:  41    -0.231526058768E+04    0.10070E+00   -0.24458E-02  5113   0.672E-02    0.365E+00
RMM:  42    -0.231513526451E+04    0.12532E+00   -0.97854E-02  5228   0.145E-01    0.389E+00
RMM:  43    -0.231495660730E+04    0.17866E+00   -0.11712E-01  5328   0.162E-01    0.537E+00
RMM:  44    -0.231493139106E+04    0.25216E-01   -0.14349E-02  5548   0.627E-02    0.550E+00
RMM:  45    -0.231497679354E+04   -0.45402E-01   -0.15595E-02  4689   0.578E-02    0.478E+00
RMM:  46    -0.231500882239E+04   -0.32029E-01   -0.84580E-02  4821   0.140E-01    0.364E+00
RMM:  47    -0.231507148717E+04   -0.62665E-01   -0.18075E-01  5040   0.206E-01    0.230E+00
RMM:  48    -0.231507979985E+04   -0.83127E-02   -0.21630E-02  5250   0.813E-02    0.236E+00
RMM:  49    -0.231508096421E+04   -0.11644E-02   -0.22499E-03  5131   0.184E-02    0.232E+00
RMM:  50    -0.231503762599E+04    0.43338E-01   -0.15786E-02  4878   0.619E-02    0.263E+00
RMM:  51    -0.231487587462E+04    0.16175E+00   -0.81597E-02  5317   0.133E-01    0.467E+00
RMM:  52    -0.231493513463E+04   -0.59260E-01   -0.56265E-03  4678   0.498E-02    0.396E+00
RMM:  53    -0.231505963200E+04   -0.12450E+00   -0.48990E-02  5087   0.998E-02    0.237E+00
RMM:  54    -0.231511422609E+04   -0.54594E-01   -0.28719E-02  4735   0.909E-02    0.236E+00
RMM:  55    -0.231514494937E+04   -0.30723E-01   -0.10792E-02  5229   0.579E-02    0.259E+00
RMM:  56    -0.231512342927E+04    0.21520E-01   -0.30890E-02  4988   0.816E-02    0.293E+00
RMM:  57    -0.231519426881E+04   -0.70840E-01   -0.18433E-02  5706   0.669E-02    0.291E+00
RMM:  58    -0.231522868731E+04   -0.34418E-01   -0.89557E-03  5421   0.488E-02    0.284E+00
RMM:  59    -0.231533839290E+04   -0.10971E+00   -0.41021E-02  5200   0.903E-02    0.418E+00
RMM:  60    -0.231539673784E+04   -0.58345E-01   -0.10867E-02  4991   0.616E-02    0.466E+00
RMM:  61    -0.231541015511E+04   -0.13417E-01   -0.27892E-03  5379   0.207E-02    0.467E+00
RMM:  62    -0.231540835354E+04    0.18016E-02   -0.14775E-04  3156   0.745E-03    0.468E+00
RMM:  63    -0.231542795164E+04   -0.19598E-01   -0.62089E-04  4333   0.115E-02    0.461E+00
RMM:  64    -0.231547040090E+04   -0.42449E-01   -0.39956E-03  5075   0.280E-02    0.423E+00
RMM:  65    -0.231549646975E+04   -0.26069E-01   -0.93355E-03  4785   0.443E-02    0.387E+00
RMM:  66    -0.231550901749E+04   -0.12548E-01   -0.11059E-03  4276   0.183E-02    0.372E+00
RMM:  67    -0.231551908588E+04   -0.10068E-01   -0.70846E-04  4460   0.117E-02    0.358E+00
RMM:  68    -0.231551150184E+04    0.75840E-02   -0.35095E-04  3756   0.983E-03    0.367E+00
RMM:  69    -0.231550406142E+04    0.74404E-02   -0.30450E-04  3269   0.833E-03    0.378E+00
RMM:  70    -0.231555518652E+04   -0.51125E-01   -0.63839E-03  5001   0.343E-02    0.309E+00
RMM:  71    -0.231556998186E+04   -0.14795E-01   -0.64088E-03  5008   0.378E-02    0.300E+00
RMM:  72    -0.231559600238E+04   -0.26021E-01   -0.39619E-03  5377   0.295E-02    0.257E+00
RMM:  73    -0.231559759708E+04   -0.15947E-02   -0.98642E-04  4667   0.148E-02    0.261E+00
RMM:  74    -0.231560591860E+04   -0.83215E-02   -0.65892E-04  4161   0.122E-02    0.246E+00
RMM:  75    -0.231560512905E+04    0.78955E-03   -0.57037E-05  2959   0.550E-03    0.248E+00
RMM:  76    -0.231558488828E+04    0.20241E-01   -0.43400E-03  4744   0.287E-02    0.299E+00
RMM:  77    -0.231558513375E+04   -0.24547E-03   -0.22492E-04  3229   0.115E-02    0.296E+00
RMM:  78    -0.231558365256E+04    0.14812E-02   -0.31892E-04  3797   0.829E-03    0.297E+00
RMM:  79    -0.231558341075E+04    0.24181E-03   -0.58646E-05  2858   0.453E-03    0.299E+00
RMM:  80    -0.231558290502E+04    0.50573E-03   -0.64496E-06  2643   0.217E-03    0.299E+00
RMM:  81    -0.231556421894E+04    0.18686E-01   -0.16322E-03  4674   0.176E-02    0.332E+00
RMM:  82    -0.231556130003E+04    0.29189E-02   -0.25521E-04  3186   0.970E-03    0.337E+00
RMM:  83    -0.231556370898E+04   -0.24090E-02   -0.22424E-05  2814   0.331E-03    0.334E+00
RMM:  84    -0.231557902568E+04   -0.15317E-01   -0.12181E-03  4152   0.153E-02    0.306E+00
RMM:  85    -0.231563235753E+04   -0.53332E-01   -0.23911E-02  5159   0.672E-02    0.173E+00
RMM:  86    -0.231565802729E+04   -0.25670E-01   -0.25127E-02  5290   0.715E-02    0.531E-01
RMM:  87    -0.231566050703E+04   -0.24797E-02   -0.45329E-03  5322   0.282E-02    0.364E-01
RMM:  88    -0.231566073693E+04   -0.22990E-03   -0.47189E-04  4074   0.109E-02    0.393E-01
RMM:  89    -0.231566158156E+04   -0.84464E-03   -0.11041E-03  4372   0.166E-02    0.478E-01
RMM:  90    -0.231566228876E+04   -0.70719E-03   -0.78912E-04  4535   0.150E-02    0.491E-01
RMM:  91    -0.231566318488E+04   -0.89612E-03   -0.46411E-04  3985   0.110E-02    0.359E-01
RMM:  92    -0.231566243490E+04    0.74998E-03   -0.26091E-04  3861   0.885E-03    0.478E-01
RMM:  93    -0.231566208923E+04    0.34567E-03   -0.22008E-04  3680   0.801E-03    0.533E-01
RMM:  94    -0.231566329981E+04   -0.12106E-02   -0.29455E-04  3424   0.889E-03    0.420E-01
RMM:  95    -0.231566417634E+04   -0.87653E-03   -0.23642E-04  3278   0.807E-03    0.326E-01
RMM:  96    -0.231566448895E+04   -0.31261E-03   -0.23833E-04  3414   0.774E-03    0.311E-01
RMM:  97    -0.231566511612E+04   -0.62718E-03   -0.25496E-04  3284   0.809E-03    0.185E-01
RMM:  98    -0.231566539532E+04   -0.27920E-03   -0.14749E-04  3072   0.628E-03    0.105E-01
RMM:  99    -0.231566543047E+04   -0.35151E-04   -0.30698E-05  2811   0.394E-03    0.107E-01
RMM: 100    -0.231566551893E+04   -0.88458E-04   -0.49913E-05  2897   0.373E-03    0.499E-02
RMM: 101    -0.231566554470E+04   -0.25770E-04   -0.77034E-05  2939   0.454E-03    0.212E-02
RMM: 102    -0.231566554897E+04   -0.42662E-05   -0.69184E-06  2606   0.258E-03
   1 F= -.23369650E+04 E0= -.23369650E+04  d E =-.233696E+04  mag=     2.0018
       N       E                     dE             d eps       ncg     rms          rms(c)
DAV:   1    -0.231548041844E+04    0.18513E+00   -0.24228E+01  4592   0.455E+00    0.143E+00
RMM:   2    -0.231585379057E+04   -0.37337E+00   -0.38006E+00  6546   0.112E+00    0.228E+00
RMM:   3    -0.231584789095E+04    0.58996E-02   -0.40939E-01  6451   0.397E-01    0.155E+00
RMM:   4    -0.231582215644E+04    0.25735E-01   -0.38508E-02  6173   0.108E-01    0.669E-01
RMM:   5    -0.231581706370E+04    0.50927E-02   -0.13309E-02  5347   0.657E-02    0.666E-01
RMM:   6    -0.231581660321E+04    0.46049E-03   -0.10837E-02  6389   0.580E-02    0.693E-01
RMM:   7    -0.231581242088E+04    0.41823E-02   -0.66496E-03  5167   0.477E-02    0.212E-01
RMM:   8    -0.231581182644E+04    0.59444E-03   -0.92598E-04  4192   0.274E-02    0.947E-02
RMM:   9    -0.231581175557E+04    0.70871E-04   -0.26123E-04  4421   0.881E-03    0.439E-02
RMM:  10    -0.231581185418E+04   -0.98616E-04   -0.15413E-04  3710   0.740E-03    0.176E-02
RMM:  11    -0.231581191622E+04   -0.62035E-04   -0.20153E-05  2927   0.462E-03    0.970E-03
RMM:  12    -0.231581198779E+04   -0.71577E-04   -0.22186E-05  2957   0.389E-03    0.492E-03
RMM:  13    -0.231581203129E+04   -0.43501E-04   -0.11692E-05  2875   0.370E-03    0.345E-03
RMM:  14    -0.231581205596E+04   -0.24664E-04   -0.95830E-06  2810   0.289E-03    0.186E-03
RMM:  15    -0.231581206357E+04   -0.76092E-05   -0.46543E-06  2699   0.270E-03
   2 F= -.23371132E+04 E0= -.23371132E+04  d E =-.148214E+00  mag=     2.0001
       N       E                     dE             d eps       ncg     rms          rms(c)
DAV:   1    -0.231580952374E+04    0.25322E-02   -0.46725E-01  4704   0.629E-01    0.204E-01
RMM:   2    -0.231581716843E+04   -0.76447E-02   -0.71841E-02  6556   0.157E-01    0.362E-01
RMM:   3    -0.231581622741E+04    0.94103E-03   -0.71219E-03  5806   0.528E-02    0.175E-01
RMM:   4    -0.231581589194E+04    0.33546E-03   -0.73438E-04  4206   0.144E-02    0.860E-02
RMM:   5    -0.231581590526E+04   -0.13319E-04   -0.30012E-04  4081   0.106E-02    0.122E-01
RMM:   6    -0.231581577024E+04    0.13502E-03   -0.21285E-04  3829   0.918E-03    0.694E-02
RMM:   7    -0.231581574713E+04    0.23108E-04   -0.13074E-04  3258   0.740E-03    0.440E-02
RMM:   8    -0.231581572137E+04    0.25762E-04   -0.32084E-05  2932   0.539E-03    0.758E-03
RMM:   9    -0.231581571995E+04    0.14164E-05   -0.60622E-06  2865   0.288E-03
   3 F= -.23371166E+04 E0= -.23371166E+04  d E =-.151628E+00  mag=     2.0000
       N       E                     dE             d eps       ncg     rms          rms(c)
DAV:   1    -0.231576851628E+04    0.47205E-01   -0.14076E+01  4560   0.339E+00    0.986E-01
RMM:   2    -0.231598794583E+04   -0.21943E+00   -0.20579E+00  6549   0.717E-01    0.192E+00
RMM:   3    -0.231597597651E+04    0.11969E-01   -0.25428E-01  6408   0.285E-01    0.887E-01
RMM:   4    -0.231596728580E+04    0.86907E-02   -0.20178E-02  5628   0.621E-02    0.364E-01
RMM:   5    -0.231596734888E+04   -0.63077E-04   -0.51501E-03  5768   0.358E-02    0.526E-01
RMM:   6    -0.231596493734E+04    0.24115E-02   -0.37690E-03  5973   0.304E-02    0.223E-01
RMM:   7    -0.231596480331E+04    0.13402E-03   -0.16711E-03  5548   0.211E-02    0.167E-01
RMM:   8    -0.231596442471E+04    0.37860E-03   -0.37797E-04  4301   0.116E-02    0.446E-02
RMM:   9    -0.231596436656E+04    0.58149E-04   -0.99108E-05  3144   0.657E-03    0.201E-02
RMM:  10    -0.231596435677E+04    0.97928E-05   -0.48079E-05  3100   0.500E-03
   4 F= -.23372666E+04 E0= -.23372666E+04  d E =-.149999E+00  mag=     2.0000
       N       E                     dE             d eps       ncg     rms          rms(c)
DAV:   1    -0.231561705756E+04    0.34731E+00   -0.30997E+01  4504   0.504E+00    0.145E+00
RMM:   2    -0.231609331932E+04   -0.47626E+00   -0.44813E+00  6561   0.106E+00    0.291E+00
RMM:   3    -0.231607834160E+04    0.14978E-01   -0.58160E-01  6436   0.426E-01    0.140E+00
RMM:   4    -0.231605704107E+04    0.21301E-01   -0.45969E-02  5743   0.944E-02    0.583E-01
RMM:   5    -0.231605773921E+04   -0.69814E-03   -0.10222E-02  5872   0.486E-02    0.835E-01
RMM:   6    -0.231605120756E+04    0.65316E-02   -0.96833E-03  6008   0.487E-02    0.317E-01
RMM:   7    -0.231605115747E+04    0.50089E-04   -0.43965E-03  5799   0.345E-02    0.280E-01
RMM:   8    -0.231605018385E+04    0.97362E-03   -0.10108E-03  5345   0.180E-02    0.906E-02
RMM:   9    -0.231605001518E+04    0.16867E-03   -0.26180E-04  3624   0.101E-02    0.363E-02
RMM:  10    -0.231604998596E+04    0.29229E-04   -0.15325E-04  3594   0.753E-03    0.132E-02
RMM:  11    -0.231604998489E+04    0.10654E-05   -0.14225E-05  2931   0.435E-03
   5 F= -.23373543E+04 E0= -.23373543E+04  d E =-.237689E+00  mag=     2.0000
       N       E                     dE             d eps       ncg     rms          rms(c)
DAV:   1    -0.231608053815E+04   -0.30552E-01   -0.46481E+00  4544   0.211E+00    0.642E-01
RMM:   2    -0.231610560310E+04   -0.25065E-01   -0.28383E-01  6246   0.407E-01    0.428E-01
RMM:   3    -0.231611015509E+04   -0.45520E-02   -0.27155E-02  6117   0.139E-01    0.758E-01
RMM:   4    -0.231610461101E+04    0.55441E-02   -0.42632E-03  6333   0.432E-02    0.212E-01
RMM:   5    -0.231610503370E+04   -0.42270E-03   -0.23194E-03  5656   0.307E-02    0.316E-01
RMM:   6    -0.231610409903E+04    0.93468E-03   -0.10637E-03  5434   0.205E-02    0.143E-01
RMM:   7    -0.231610404501E+04    0.54013E-04   -0.54516E-04  4859   0.125E-02    0.110E-01
RMM:   8    -0.231610387097E+04    0.17404E-03   -0.16328E-04  3666   0.873E-03    0.223E-02
RMM:   9    -0.231610385829E+04    0.12682E-04   -0.38110E-05  3010   0.486E-03    0.114E-02
RMM:  10    -0.231610385653E+04    0.17571E-05   -0.14069E-05  2903   0.422E-03
   6 F= -.23374084E+04 E0= -.23374084E+04  d E =-.540547E-01  mag=     2.0000
       N       E                     dE             d eps       ncg     rms          rms(c)
DAV:   1    -0.231610351994E+04    0.33835E-03   -0.27268E+00  4576   0.160E+00    0.493E-01
RMM:   2    -0.231611837256E+04   -0.14853E-01   -0.16740E-01  6257   0.312E-01    0.345E-01
RMM:   3    -0.231612119492E+04   -0.28224E-02   -0.16334E-02  6145   0.107E-01    0.599E-01
RMM:   4    -0.231611764684E+04    0.35481E-02   -0.26050E-03  6141   0.340E-02    0.160E-01
RMM:   5    -0.231611794354E+04   -0.29670E-03   -0.13925E-03  5606   0.240E-02    0.255E-01
RMM:   6    -0.231611732628E+04    0.61726E-03   -0.63797E-04  5191   0.159E-02    0.104E-01
RMM:   7    -0.231611729870E+04    0.27574E-04   -0.32050E-04  4419   0.103E-02    0.810E-02
RMM:   8    -0.231611720262E+04    0.96079E-04   -0.99101E-05  3260   0.729E-03    0.176E-02
RMM:   9    -0.231611719762E+04    0.50030E-05   -0.25142E-05  2952   0.429E-03
   7 F= -.23374218E+04 E0= -.23374218E+04  d E =-.674955E-01  mag=     2.0000
       N       E                     dE             d eps       ncg     rms          rms(c)
DAV:   1    -0.231611811096E+04   -0.90834E-03   -0.44442E+00  4512   0.199E+00    0.573E-01
RMM:   2    -0.231615028441E+04   -0.32173E-01   -0.32690E-01  6299   0.389E-01    0.614E-01
RMM:   3    -0.231615280423E+04   -0.25198E-02   -0.29632E-02  6145   0.129E-01    0.747E-01
RMM:   4    -0.231614748774E+04    0.53165E-02   -0.36695E-03  6013   0.392E-02    0.180E-01
RMM:   5    -0.231614771780E+04   -0.23007E-03   -0.18254E-03  5700   0.249E-02    0.245E-01
RMM:   6    -0.231614714439E+04    0.57341E-03   -0.11648E-03  5737   0.201E-02    0.149E-01
RMM:   7    -0.231614700942E+04    0.13497E-03   -0.52297E-04  4727   0.138E-02    0.907E-02
RMM:   8    -0.231614689425E+04    0.11517E-03   -0.11567E-04  3650   0.745E-03    0.190E-02
RMM:   9    -0.231614688930E+04    0.49559E-05   -0.23299E-05  2957   0.467E-03
   8 F= -.23374511E+04 E0= -.23374511E+04  d E =-.292626E-01  mag=     2.0000
       N       E                     dE             d eps       ncg     rms          rms(c)
DAV:   1    -0.231614022794E+04    0.66663E-02   -0.19580E+00  4544   0.133E+00    0.382E-01
RMM:   2    -0.231615456049E+04   -0.14333E-01   -0.14492E-01  6295   0.260E-01    0.422E-01
RMM:   3    -0.231615556522E+04   -0.10047E-02   -0.13272E-02  6077   0.868E-02    0.494E-01
RMM:   4    -0.231615321859E+04    0.23466E-02   -0.16197E-03  5737   0.261E-02    0.120E-01
RMM:   5    -0.231615332034E+04   -0.10175E-03   -0.81334E-04  5283   0.172E-02    0.165E-01
RMM:   6    -0.231615305810E+04    0.26224E-03   -0.53508E-04  5325   0.139E-02    0.973E-02
RMM:   7    -0.231615300041E+04    0.57694E-04   -0.23722E-04  3637   0.101E-02    0.608E-02
RMM:   8    -0.231615294751E+04    0.52896E-04   -0.56544E-05  3100   0.624E-03    0.130E-02
RMM:   9    -0.231615294590E+04    0.16108E-05   -0.13999E-05  2931   0.397E-03
   9 F= -.23374568E+04 E0= -.23374568E+04  d E =-.350208E-01  mag=     2.0000
       N       E                     dE             d eps       ncg     rms          rms(c)
DAV:   1    -0.231614634548E+04    0.66020E-02   -0.38936E+00  4512   0.179E+00    0.420E-01
RMM:   2    -0.231617647673E+04   -0.30131E-01   -0.30402E-01  6457   0.362E-01    0.550E-01
RMM:   3    -0.231617801965E+04   -0.15429E-02   -0.31314E-02  6257   0.117E-01    0.503E-01
RMM:   4    -0.231617566857E+04    0.23511E-02   -0.29339E-03  5543   0.303E-02    0.144E-01
RMM:   5    -0.231617556298E+04    0.10559E-03   -0.10369E-03  4722   0.195E-02    0.151E-01
RMM:   6    -0.231617543095E+04    0.13203E-03   -0.60040E-04  4626   0.166E-02    0.107E-01
RMM:   7    -0.231617536227E+04    0.68678E-04   -0.19431E-04  4076   0.882E-03    0.601E-02
RMM:   8    -0.231617531164E+04    0.50630E-04   -0.58022E-05  2961   0.639E-03    0.197E-02
RMM:   9    -0.231617530752E+04    0.41266E-05   -0.10620E-05  2898   0.305E-03
  10 F= -.23374793E+04 E0= -.23374793E+04  d E =-.224497E-01  mag=     2.0000
       N       E                     dE             d eps       ncg     rms          rms(c)
DAV:   1    -0.231611511399E+04    0.60198E-01   -0.10260E+01  4496   0.290E+00    0.686E-01
RMM:   2    -0.231619535200E+04   -0.80238E-01   -0.80498E-01  6458   0.577E-01    0.924E-01
RMM:   3    -0.231619870640E+04   -0.33544E-02   -0.82876E-02  6318   0.186E-01    0.816E-01
RMM:   4    -0.231619255065E+04    0.61558E-02   -0.76943E-03  5957   0.483E-02    0.233E-01
RMM:   5    -0.231619203432E+04    0.51633E-03   -0.26277E-03  4978   0.308E-02    0.192E-01
RMM:   6    -0.231619185184E+04    0.18248E-03   -0.14644E-03  5378   0.245E-02    0.149E-01
RMM:   7    -0.231619175265E+04    0.99197E-04   -0.41934E-04  4831   0.124E-02    0.115E-01
RMM:   8    -0.231619159630E+04    0.15634E-03   -0.13767E-04  3199   0.839E-03    0.336E-02
RMM:   9    -0.231619158394E+04    0.12364E-04   -0.26584E-05  2945   0.434E-03    0.161E-02
RMM:  10    -0.231619158626E+04   -0.23227E-05   -0.23402E-05  2987   0.405E-03
  11 F= -.23374957E+04 E0= -.23374957E+04  d E =-.388479E-01  mag=     2.0000
       N       E                     dE             d eps       ncg     rms          rms(c)
DAV:   1    -0.231619293469E+04   -0.13508E-02   -0.16613E+00  4544   0.114E+00    0.265E-01
RMM:   2    -0.231620603391E+04   -0.13099E-01   -0.13667E-01  6535   0.235E-01    0.276E-01
RMM:   3    -0.231620720948E+04   -0.11756E-02   -0.12176E-02  6063   0.692E-02    0.347E-01
RMM:   4    -0.231620612907E+04    0.10804E-02   -0.13471E-03  4930   0.194E-02    0.112E-01
RMM:   5    -0.231620622430E+04   -0.95227E-04   -0.42655E-04  4295   0.118E-02    0.163E-01
RMM:   6    -0.231620594254E+04    0.28176E-03   -0.36119E-04  4686   0.118E-02    0.512E-02
RMM:   7    -0.231620593087E+04    0.11672E-04   -0.13610E-04  3578   0.825E-03    0.361E-02
RMM:   8    -0.231620591325E+04    0.17619E-04   -0.28864E-05  2911   0.550E-03    0.120E-02
RMM:   9    -0.231620591129E+04    0.19617E-05   -0.57701E-06  2859   0.241E-03
  12 F= -.23375102E+04 E0= -.23375102E+04  d E =-.145433E-01  mag=     2.0000
       N       E                     dE             d eps       ncg     rms          rms(c)
DAV:   1    -0.231612732437E+04    0.78589E-01   -0.11975E+01  4496   0.307E+00    0.711E-01
RMM:   2    -0.231622228303E+04   -0.94959E-01   -0.99308E-01  6551   0.613E-01    0.741E-01
RMM:   3    -0.231623112895E+04   -0.88459E-02   -0.88452E-02  6372   0.188E-01    0.951E-01
RMM:   4    -0.231622311943E+04    0.80095E-02   -0.94735E-03  6206   0.517E-02    0.298E-01
RMM:   5    -0.231622287244E+04    0.24699E-03   -0.29372E-03  4858   0.312E-02    0.335E-01
RMM:   6    -0.231622206554E+04    0.80691E-03   -0.21050E-03  5439   0.285E-02    0.205E-01
RMM:   7    -0.231622163034E+04    0.43520E-03   -0.87931E-04  4442   0.186E-02    0.499E-02
RMM:   8    -0.231622160060E+04    0.29743E-04   -0.13212E-04  3345   0.132E-02    0.394E-02
RMM:   9    -0.231622157816E+04    0.22438E-04   -0.36245E-05  3070   0.399E-03    0.213E-02
RMM:  10    -0.231622157339E+04    0.47683E-05   -0.27028E-05  2992   0.394E-03
  13 F= -.23375264E+04 E0= -.23375264E+04  d E =-.307572E-01  mag=     2.0000
       N       E                     dE             d eps       ncg     rms          rms(c)
DAV:   1    -0.231621162778E+04    0.99504E-02   -0.28253E+00  4512   0.148E+00    0.351E-01
RMM:   2    -0.231623417572E+04   -0.22548E-01   -0.23737E-01  6543   0.295E-01    0.301E-01
RMM:   3    -0.231623677489E+04   -0.25992E-02   -0.21493E-02  6185   0.899E-02    0.447E-01
RMM:   4    -0.231623497113E+04    0.18038E-02   -0.23925E-03  5550   0.243E-02    0.151E-01
RMM:   5    -0.231623505647E+04   -0.85337E-04   -0.62623E-04  4447   0.124E-02    0.191E-01
RMM:   6    -0.231623474555E+04    0.31092E-03   -0.59671E-04  4952   0.144E-02    0.955E-02
RMM:   7    -0.231623467721E+04    0.68336E-04   -0.27788E-04  3688   0.101E-02    0.572E-02
RMM:   8    -0.231623463289E+04    0.44315E-04   -0.49155E-05  2967   0.593E-03    0.152E-02
RMM:   9    -0.231623463355E+04   -0.65388E-06   -0.11662E-05  2899   0.366E-03
  14 F= -.23375398E+04 E0= -.23375398E+04  d E =-.133364E-01  mag=     2.0000
       N       E                     dE             d eps       ncg     rms          rms(c)
DAV:   1    -0.231603976228E+04    0.19487E+00   -0.25337E+01  4496   0.442E+00    0.107E+00
RMM:   2    -0.231624403950E+04   -0.20428E+00   -0.21665E+00  6545   0.885E-01    0.856E-01
RMM:   3    -0.231627058297E+04   -0.26543E-01   -0.20740E-01  6383   0.283E-01    0.142E+00
RMM:   4    -0.231625306436E+04    0.17519E-01   -0.21764E-02  6489   0.735E-02    0.426E-01
RMM:   5    -0.231625258340E+04    0.48096E-03   -0.58022E-03  5728   0.382E-02    0.415E-01
RMM:   6    -0.231625140317E+04    0.11802E-02   -0.42230E-03  5797   0.349E-02    0.304E-01
RMM:   7    -0.231625107194E+04    0.33123E-03   -0.21931E-03  5619   0.240E-02    0.248E-01
RMM:   8    -0.231625033848E+04    0.73346E-03   -0.70121E-04  4968   0.155E-02    0.566E-02
RMM:   9    -0.231625034968E+04   -0.11200E-04   -0.14068E-04  3337   0.715E-03    0.400E-02
RMM:  10    -0.231625040341E+04   -0.53728E-04   -0.64672E-05  3084   0.652E-03    0.193E-02
RMM:  11    -0.231625047339E+04   -0.69984E-04   -0.42479E-05  3141   0.498E-03    0.109E-02
RMM:  12    -0.231625051208E+04   -0.38690E-04   -0.13267E-05  2902   0.413E-03    0.671E-03
RMM:  13    -0.231625053774E+04   -0.25657E-04   -0.10161E-05  2891   0.289E-03    0.343E-03
RMM:  14    -0.231625054954E+04   -0.11800E-04   -0.43916E-06  2706   0.259E-03    0.189E-03
RMM:  15    -0.231625055421E+04   -0.46671E-05   -0.24052E-06  2507   0.179E-03
  15 F= -.23375564E+04 E0= -.23375564E+04  d E =-.299997E-01  mag=     2.0000
       N       E                     dE             d eps       ncg     rms          rms(c)
DAV:   1    -0.231624336140E+04    0.71881E-02   -0.27271E+00  4512   0.149E+00    0.383E-01
RMM:   2    -0.231626350857E+04   -0.20147E-01   -0.21640E-01  6381   0.288E-01    0.246E-01
RMM:   3    -0.231626569942E+04   -0.21909E-02   -0.22035E-02  6085   0.102E-01    0.357E-01
RMM:   4    -0.231626461680E+04    0.10826E-02   -0.21514E-03  5753   0.241E-02    0.176E-01
RMM:   5    -0.231626457518E+04    0.41616E-04   -0.76083E-04  4810   0.144E-02    0.173E-01
RMM:   6    -0.231626437129E+04    0.20390E-03   -0.69658E-04  5002   0.153E-02    0.116E-01
RMM:   7    -0.231626429397E+04    0.77323E-04   -0.29784E-04  3863   0.104E-02    0.775E-02
RMM:   8    -0.231626422323E+04    0.70739E-04   -0.68177E-05  2998   0.640E-03    0.188E-02
RMM:   9    -0.231626422365E+04   -0.42282E-06   -0.17815E-05  2941   0.422E-03
  16 F= -.23375696E+04 E0= -.23375696E+04  d E =-.132185E-01  mag=     2.0000
       N       E                     dE             d eps       ncg     rms          rms(c)
DAV:   1    -0.231617955861E+04    0.84665E-01   -0.12250E+01  4496   0.315E+00    0.816E-01
RMM:   2    -0.231627070285E+04   -0.91144E-01   -0.97725E-01  6381   0.615E-01    0.533E-01
RMM:   3    -0.231628101157E+04   -0.10309E-01   -0.10183E-01  6178   0.219E-01    0.798E-01
RMM:   4    -0.231627557934E+04    0.54322E-02   -0.97342E-03  6534   0.509E-02    0.359E-01
RMM:   5    -0.231627520718E+04    0.37217E-03   -0.33790E-03  5696   0.288E-02    0.325E-01
RMM:   6    -0.231627441488E+04    0.79229E-03   -0.30530E-03  5875   0.304E-02    0.224E-01
RMM:   7    -0.231627433301E+04    0.81874E-04   -0.13105E-03  5462   0.189E-02    0.208E-01
RMM:   8    -0.231627386587E+04    0.46714E-03   -0.40131E-04  4521   0.117E-02    0.469E-02
RMM:   9    -0.231627388239E+04   -0.16520E-04   -0.88116E-05  3108   0.642E-03    0.354E-02
RMM:  10    -0.231627393194E+04   -0.49558E-04   -0.63005E-05  3093   0.591E-03    0.175E-02
RMM:  11    -0.231627398178E+04   -0.49835E-04   -0.32436E-05  3008   0.498E-03    0.109E-02
RMM:  12    -0.231627400944E+04   -0.27656E-04   -0.12828E-05  2898   0.393E-03    0.557E-03
RMM:  13    -0.231627402337E+04   -0.13930E-04   -0.65455E-06  2871   0.294E-03    0.309E-03
RMM:  14    -0.231627403265E+04   -0.92850E-05   -0.35641E-06  2635   0.226E-03
  17 F= -.23375785E+04 E0= -.23375785E+04  d E =-.220384E-01  mag=     2.0000
       N       E                     dE             d eps       ncg     rms          rms(c)
DAV:   1    -0.231625242661E+04    0.21597E-01   -0.50927E+00  4496   0.192E+00    0.447E-01
RMM:   2    -0.231628423562E+04   -0.31809E-01   -0.33780E-01  6475   0.355E-01    0.322E-01
RMM:   3    -0.231628723669E+04   -0.30011E-02   -0.34364E-02  6117   0.120E-01    0.424E-01
RMM:   4    -0.231628579897E+04    0.14377E-02   -0.31964E-03  5740   0.281E-02    0.219E-01
RMM:   5    -0.231628575182E+04    0.47145E-04   -0.12232E-03  4919   0.177E-02    0.214E-01
RMM:   6    -0.231628542513E+04    0.32669E-03   -0.11167E-03  5234   0.188E-02    0.137E-01
RMM:   7    -0.231628535722E+04    0.67908E-04   -0.45770E-04  3951   0.116E-02    0.109E-01
RMM:   8    -0.231628522900E+04    0.12822E-03   -0.10770E-04  3108   0.719E-03    0.262E-02
RMM:   9    -0.231628523028E+04   -0.12832E-05   -0.25316E-05  2946   0.414E-03
  18 F= -.23375885E+04 E0= -.23375885E+04  d E =-.100682E-01  mag=     2.0000
       N       E                     dE             d eps       ncg     rms          rms(c)
DAV:   1    -0.231627869307E+04    0.65359E-02   -0.13164E+00  4576   0.979E-01    0.230E-01
RMM:   2    -0.231628695198E+04   -0.82589E-02   -0.87541E-02  6462   0.180E-01    0.167E-01
RMM:   3    -0.231628770324E+04   -0.75126E-03   -0.84812E-03  5701   0.600E-02    0.220E-01
RMM:   4    -0.231628730827E+04    0.39497E-03   -0.82953E-04  3987   0.147E-02    0.112E-01
RMM:   5    -0.231628730308E+04    0.51901E-05   -0.32121E-04  3706   0.101E-02    0.111E-01
RMM:   6    -0.231628721960E+04    0.83482E-04   -0.30971E-04  4019   0.107E-02    0.695E-02
RMM:   7    -0.231628720634E+04    0.13256E-04   -0.12588E-04  3099   0.724E-03    0.572E-02
RMM:   8    -0.231628717470E+04    0.31639E-04   -0.31585E-05  2889   0.483E-03    0.144E-02
RMM:   9    -0.231628717863E+04   -0.39254E-05   -0.88112E-06  2889   0.279E-03
  19 F= -.23375899E+04 E0= -.23375899E+04  d E =-.114365E-01  mag=     2.0000
       N       E                     dE             d eps       ncg     rms          rms(c)
DAV:   1    -0.231628190878E+04    0.52659E-02   -0.36409E+00  4504   0.172E+00    0.440E-01
RMM:   2    -0.231629848126E+04   -0.16572E-01   -0.17525E-01  6195   0.320E-01    0.360E-01
RMM:   3    -0.231629998867E+04   -0.15074E-02   -0.14758E-02  6070   0.106E-01    0.469E-01
RMM:   4    -0.231629767055E+04    0.23181E-02   -0.22954E-03  6112   0.307E-02    0.189E-01
RMM:   5    -0.231629772383E+04   -0.53279E-04   -0.11613E-03  5284   0.193E-02    0.222E-01
RMM:   6    -0.231629734916E+04    0.37466E-03   -0.84156E-04  5154   0.177E-02    0.130E-01
RMM:   7    -0.231629723346E+04    0.11570E-03   -0.38032E-04  4131   0.122E-02    0.799E-02
RMM:   8    -0.231629715290E+04    0.80565E-04   -0.76473E-05  3206   0.665E-03    0.161E-02
RMM:   9    -0.231629716022E+04   -0.73253E-05   -0.20121E-05  2940   0.435E-03
  20 F= -.23375989E+04 E0= -.23375989E+04  d E =-.905265E-02  mag=     2.0000
       N       E                     dE             d eps       ncg     rms          rms(c)
DAV:   1    -0.231629720223E+04   -0.49329E-04   -0.20049E-02  5032   0.128E-01    0.330E-02
RMM:   2    -0.231629729999E+04   -0.97758E-04   -0.10172E-03  5892   0.251E-02    0.254E-02
RMM:   3    -0.231629730972E+04   -0.97374E-05   -0.81059E-05  2984   0.846E-03
  21 F= -.23375990E+04 E0= -.23375990E+04  d E =-.913323E-02  mag=     2.0000
       N       E                     dE             d eps       ncg     rms          rms(c)
DAV:   1    -0.231629322308E+04    0.40769E-02   -0.21556E+00  4512   0.132E+00    0.312E-01
RMM:   2    -0.231630806901E+04   -0.14846E-01   -0.13905E-01  6492   0.244E-01    0.455E-01
RMM:   3    -0.231630691815E+04    0.11509E-02   -0.11365E-02  6074   0.747E-02    0.255E-01
RMM:   4    -0.231630612081E+04    0.79734E-03   -0.12499E-03  4902   0.198E-02    0.108E-01
RMM:   5    -0.231630611475E+04    0.60602E-05   -0.62135E-04  5142   0.158E-02    0.116E-01
RMM:   6    -0.231630593762E+04    0.17713E-03   -0.36943E-04  4591   0.123E-02    0.306E-02
RMM:   7    -0.231630592984E+04    0.77813E-05   -0.42435E-05  2999   0.590E-03
  22 F= -.23376070E+04 E0= -.23376070E+04  d E =-.795292E-02  mag=     2.0000
       N       E                     dE             d eps       ncg     rms          rms(c)
DAV:   1    -0.231627069257E+04    0.35245E-01   -0.71234E+00  4496   0.240E+00    0.568E-01
RMM:   2    -0.231632017272E+04   -0.49480E-01   -0.45701E-01  6472   0.441E-01    0.869E-01
RMM:   3    -0.231631562097E+04    0.45517E-02   -0.38211E-02  6225   0.137E-01    0.459E-01
RMM:   4    -0.231631319721E+04    0.24238E-02   -0.42572E-03  5441   0.359E-02    0.209E-01
RMM:   5    -0.231631382318E+04   -0.62598E-03   -0.16646E-03  5369   0.226E-02    0.366E-01
RMM:   6    -0.231631263852E+04    0.11847E-02   -0.15401E-03  5133   0.234E-02    0.100E-01
RMM:   7    -0.231631259515E+04    0.43370E-04   -0.44206E-04  4075   0.153E-02    0.704E-02
RMM:   8    -0.231631253156E+04    0.63584E-04   -0.90390E-05  3086   0.616E-03    0.302E-02
RMM:   9    -0.231631252607E+04    0.54984E-05   -0.25404E-05  2953   0.437E-03
  23 F= -.23376124E+04 E0= -.23376124E+04  d E =-.133353E-01  mag=     2.0000
       N       E                     dE             d eps       ncg     rms          rms(c)
DAV:   1    -0.231630744582E+04    0.50857E-02   -0.21148E+00  4512   0.136E+00    0.336E-01
RMM:   2    -0.231632343579E+04   -0.15990E-01   -0.13711E-01  6411   0.256E-01    0.586E-01
RMM:   3    -0.231632055342E+04    0.28824E-02   -0.11263E-02  6134   0.774E-02    0.248E-01
RMM:   4    -0.231631976068E+04    0.79274E-03   -0.12874E-03  4741   0.204E-02    0.104E-01
RMM:   5    -0.231631992371E+04   -0.16303E-03   -0.65654E-04  5201   0.168E-02    0.177E-01
RMM:   6    -0.231631963066E+04    0.29304E-03   -0.37355E-04  4917   0.121E-02    0.874E-02
RMM:   7    -0.231631958381E+04    0.46854E-04   -0.14497E-04  2998   0.768E-03    0.413E-02
RMM:   8    -0.231631957649E+04    0.73161E-05   -0.23154E-05  2913   0.458E-03
  24 F= -.23376187E+04 E0= -.23376187E+04  d E =-.637229E-02  mag=     2.0000
       N       E                     dE             d eps       ncg     rms          rms(c)
DAV:   1    -0.231630568392E+04    0.13900E-01   -0.29785E+00  4496   0.161E+00    0.404E-01
RMM:   2    -0.231632866603E+04   -0.22982E-01   -0.19426E-01  6442   0.305E-01    0.724E-01
RMM:   3    -0.231632417218E+04    0.44939E-02   -0.15877E-02  6163   0.904E-02    0.295E-01
RMM:   4    -0.231632305621E+04    0.11160E-02   -0.18243E-03  4813   0.242E-02    0.126E-01
RMM:   5    -0.231632341414E+04   -0.35793E-03   -0.93127E-04  5392   0.195E-02    0.246E-01
RMM:   6    -0.231632284968E+04    0.56446E-03   -0.56930E-04  5240   0.144E-02    0.916E-02
RMM:   7    -0.231632280386E+04    0.45820E-04   -0.21516E-04  3239   0.937E-03    0.479E-02
RMM:   8    -0.231632279742E+04    0.64341E-05   -0.36303E-05  2934   0.514E-03
  25 F= -.23376212E+04 E0= -.23376212E+04  d E =-.878838E-02  mag=     2.0000
       N       E                     dE             d eps       ncg     rms          rms(c)
DAV:   1    -0.231631814465E+04    0.46592E-02   -0.16678E+00  4528   0.120E+00    0.297E-01
RMM:   2    -0.231633303206E+04   -0.14887E-01   -0.11513E-01  6464   0.220E-01    0.662E-01
RMM:   3    -0.231632873535E+04    0.42967E-02   -0.86409E-03  5940   0.672E-02    0.187E-01
RMM:   4    -0.231632835575E+04    0.37960E-03   -0.11445E-03  4589   0.178E-02    0.122E-01
RMM:   5    -0.231632841390E+04   -0.58152E-04   -0.33260E-04  3742   0.117E-02    0.159E-01
RMM:   6    -0.231632819918E+04    0.21472E-03   -0.41696E-04  4299   0.132E-02    0.699E-02
RMM:   7    -0.231632816470E+04    0.34478E-04   -0.14503E-04  3157   0.108E-02    0.353E-02
RMM:   8    -0.231632816281E+04    0.18902E-05   -0.34180E-05  2982   0.462E-03
  26 F= -.23376257E+04 E0= -.23376257E+04  d E =-.451977E-02  mag=     2.0000
       N       E                     dE             d eps       ncg     rms          rms(c)
DAV:   1    -0.231632468215E+04    0.34825E-02   -0.82956E-01  4560   0.846E-01    0.212E-01
RMM:   2    -0.231633219827E+04   -0.75161E-02   -0.57403E-02  6450   0.155E-01    0.477E-01
RMM:   3    -0.231632995016E+04    0.22481E-02   -0.42920E-03  5668   0.456E-02    0.132E-01
RMM:   4    -0.231632976611E+04    0.18405E-03   -0.57424E-04  4005   0.127E-02    0.880E-02
RMM:   5    -0.231632979037E+04   -0.24265E-04   -0.16626E-04  3239   0.844E-03    0.111E-01
RMM:   6    -0.231632968819E+04    0.10219E-03   -0.21236E-04  4098   0.996E-03    0.484E-02
RMM:   7    -0.231632967471E+04    0.13475E-04   -0.71856E-05  2968   0.793E-03    0.256E-02
RMM:   8    -0.231632967436E+04    0.35542E-06   -0.17684E-05  2917   0.361E-03
  27 F= -.23376266E+04 E0= -.23376266E+04  d E =-.543624E-02  mag=     2.0000
       N       E                     dE             d eps       ncg     rms          rms(c)
DAV:   1    -0.231632132518E+04    0.83495E-02   -0.18458E+00  4512   0.129E+00    0.327E-01
RMM:   2    -0.231633900230E+04   -0.17677E-01   -0.14715E-01  6387   0.248E-01    0.671E-01
RMM:   3    -0.231633535811E+04    0.36442E-02   -0.13588E-02  6096   0.800E-02    0.214E-01
RMM:   4    -0.231633481522E+04    0.54289E-03   -0.16082E-03  5036   0.209E-02    0.135E-01
RMM:   5    -0.231633482095E+04   -0.57248E-05   -0.41437E-04  4179   0.127E-02    0.157E-01
RMM:   6    -0.231633462617E+04    0.19478E-03   -0.48755E-04  4463   0.136E-02    0.102E-01
RMM:   7    -0.231633451788E+04    0.10829E-03   -0.22637E-04  3755   0.117E-02    0.323E-02
RMM:   8    -0.231633451377E+04    0.41072E-05   -0.41148E-05  3056   0.517E-03
  28 F= -.23376303E+04 E0= -.23376303E+04  d E =-.372333E-02  mag=     2.0000
       N       E                     dE             d eps       ncg     rms          rms(c)
DAV:   1    -0.231633417071E+04    0.34717E-03   -0.10062E-01  4736   0.301E-01    0.793E-02
RMM:   2    -0.231633520051E+04   -0.10298E-02   -0.82766E-03  6373   0.594E-02    0.168E-01
RMM:   3    -0.231633495210E+04    0.24841E-03   -0.72496E-04  3647   0.181E-02    0.509E-02
RMM:   4    -0.231633492511E+04    0.26994E-04   -0.88061E-05  3038   0.622E-03    0.338E-02
RMM:   5    -0.231633492642E+04   -0.13154E-05   -0.24763E-05  2861   0.389E-03
  29 F= -.23376305E+04 E0= -.23376305E+04  d E =-.387626E-02  mag=     2.0000
       N       E                     dE             d eps       ncg     rms          rms(c)
DAV:   1    -0.231633052579E+04    0.43993E-02   -0.10627E+00  4512   0.977E-01    0.234E-01
RMM:   2    -0.231633993739E+04   -0.94116E-02   -0.89896E-02  6367   0.181E-01    0.348E-01
RMM:   3    -0.231633974002E+04    0.19737E-03   -0.84793E-03  5628   0.626E-02    0.209E-01
RMM:   4    -0.231633925570E+04    0.48432E-03   -0.86104E-04  4516   0.161E-02    0.889E-02
RMM:   5    -0.231633934784E+04   -0.92135E-04   -0.28176E-04  3885   0.107E-02    0.140E-01
RMM:   6    -0.231633914069E+04    0.20715E-03   -0.26429E-04  4425   0.111E-02    0.278E-02
RMM:   7    -0.231633913754E+04    0.31489E-05   -0.40793E-05  2997   0.645E-03
  30 F= -.23376337E+04 E0= -.23376337E+04  d E =-.327970E-02  mag=     2.0000
       N       E                     dE             d eps       ncg     rms          rms(c)
DAV:   1    -0.231632636369E+04    0.12777E-01   -0.19216E+00  4496   0.131E+00    0.319E-01
RMM:   2    -0.231634380923E+04   -0.17446E-01   -0.16345E-01  6360   0.246E-01    0.513E-01
RMM:   3    -0.231634295338E+04    0.85585E-03   -0.15572E-02  5830   0.864E-02    0.269E-01
RMM:   4    -0.231634216492E+04    0.78846E-03   -0.16151E-03  5112   0.218E-02    0.122E-01
RMM:   5    -0.231634226077E+04   -0.95849E-04   -0.46056E-04  4561   0.131E-02    0.169E-01
RMM:   6    -0.231634198933E+04    0.27144E-03   -0.47879E-04  4791   0.138E-02    0.777E-02
RMM:   7    -0.231634194433E+04    0.45000E-04   -0.18183E-04  3302   0.100E-02    0.389E-02
RMM:   8    -0.231634192427E+04    0.20059E-04   -0.28885E-05  2940   0.501E-03    0.129E-02
RMM:   9    -0.231634192207E+04    0.22041E-05   -0.80040E-06  2890   0.336E-03
  31 F= -.23376353E+04 E0= -.23376353E+04  d E =-.481700E-02  mag=     2.0000
       N       E                     dE             d eps       ncg     rms          rms(c)
DAV:   1    -0.231633812560E+04    0.37987E-02   -0.84256E-01  4512   0.875E-01    0.206E-01
RMM:   2    -0.231634537222E+04   -0.72466E-02   -0.73462E-02  6421   0.166E-01    0.225E-01
RMM:   3    -0.231634593693E+04   -0.56471E-03   -0.69686E-03  5592   0.567E-02    0.231E-01
RMM:   4    -0.231634538887E+04    0.54807E-03   -0.73302E-04  4382   0.150E-02    0.807E-02
RMM:   5    -0.231634541986E+04   -0.30992E-04   -0.21831E-04  3896   0.948E-03    0.107E-01
RMM:   6    -0.231634531115E+04    0.10871E-03   -0.19626E-04  3804   0.957E-03    0.437E-02
RMM:   7    -0.231634530837E+04    0.27780E-05   -0.73618E-05  3007   0.673E-03
  32 F= -.23376381E+04 E0= -.23376381E+04  d E =-.282039E-02  mag=     2.0000
       N       E                     dE             d eps       ncg     rms          rms(c)
DAV:   1    -0.231631173372E+04    0.33577E-01   -0.43007E+00  4496   0.198E+00    0.466E-01
RMM:   2    -0.231634849325E+04   -0.36760E-01   -0.37535E-01  6424   0.374E-01    0.490E-01
RMM:   3    -0.231635175368E+04   -0.32604E-02   -0.35947E-02  6098   0.129E-01    0.531E-01
RMM:   4    -0.231634883854E+04    0.29151E-02   -0.37780E-03  5842   0.336E-02    0.183E-01
RMM:   5    -0.231634897585E+04   -0.13731E-03   -0.11272E-03  5449   0.194E-02    0.235E-01
RMM:   6    -0.231634845165E+04    0.52419E-03   -0.89431E-04  5376   0.177E-02    0.990E-02
RMM:   7    -0.231634843462E+04    0.17034E-04   -0.34683E-04  4162   0.114E-02    0.765E-02
RMM:   8    -0.231634835950E+04    0.75115E-04   -0.84068E-05  3036   0.677E-03    0.248E-02
RMM:   9    -0.231634836368E+04   -0.41824E-05   -0.25251E-05  2933   0.440E-03
  33 F= -.23376399E+04 E0= -.23376399E+04  d E =-.460007E-02  mag=     2.0000
       N       E                     dE             d eps       ncg     rms          rms(c)
DAV:   1    -0.231634237985E+04    0.59797E-02   -0.98139E-01  4512   0.940E-01    0.217E-01
RMM:   2    -0.231635096383E+04   -0.85840E-02   -0.88263E-02  6460   0.177E-01    0.205E-01
RMM:   3    -0.231635179180E+04   -0.82797E-03   -0.84251E-03  5620   0.614E-02    0.236E-01
RMM:   4    -0.231635120811E+04    0.58370E-03   -0.89198E-04  4121   0.156E-02    0.953E-02
RMM:   5    -0.231635123278E+04   -0.24672E-04   -0.24429E-04  3719   0.963E-03    0.116E-01
RMM:   6    -0.231635110464E+04    0.12814E-03   -0.19129E-04  3704   0.930E-03    0.388E-02
RMM:   7    -0.231635110045E+04    0.41846E-05   -0.64656E-05  3168   0.670E-03
  34 F= -.23376422E+04 E0= -.23376422E+04  d E =-.227476E-02  mag=     2.0000
       N       E                     dE             d eps       ncg     rms          rms(c)
DAV:   1    -0.231632089880E+04    0.30206E-01   -0.36501E+00  4496   0.181E+00    0.419E-01
RMM:   2    -0.231635261696E+04   -0.31718E-01   -0.32825E-01  6483   0.340E-01    0.378E-01
RMM:   3    -0.231635581929E+04   -0.32023E-02   -0.31563E-02  6036   0.120E-01    0.446E-01
RMM:   4    -0.231635367373E+04    0.21456E-02   -0.33222E-03  5650   0.299E-02    0.188E-01
RMM:   5    -0.231635374302E+04   -0.69288E-04   -0.91244E-04  4817   0.162E-02    0.223E-01
RMM:   6    -0.231635330471E+04    0.43831E-03   -0.68982E-04  5139   0.156E-02    0.839E-02
RMM:   7    -0.231635330194E+04    0.27704E-05   -0.31765E-04  4294   0.112E-02    0.642E-02
RMM:   8    -0.231635325298E+04    0.48964E-04   -0.77756E-05  2986   0.678E-03    0.251E-02
RMM:   9    -0.231635325532E+04   -0.23456E-05   -0.16875E-05  2918   0.378E-03
  35 F= -.23376434E+04 E0= -.23376434E+04  d E =-.354305E-02  mag=     2.0000
       N       E                     dE             d eps       ncg     rms          rms(c)
DAV:   1    -0.231634793713E+04    0.53158E-02   -0.10410E+00  4496   0.988E-01    0.247E-01
RMM:   2    -0.231635682822E+04   -0.88911E-02   -0.88976E-02  6360   0.188E-01    0.260E-01
RMM:   3    -0.231635736924E+04   -0.54102E-03   -0.85369E-03  5894   0.651E-02    0.230E-01
RMM:   4    -0.231635669557E+04    0.67367E-03   -0.95430E-04  5181   0.173E-02    0.968E-02
RMM:   5    -0.231635668013E+04    0.15443E-04   -0.32075E-04  4018   0.119E-02    0.111E-01
RMM:   6    -0.231635659659E+04    0.83538E-04   -0.17880E-04  3458   0.918E-03    0.581E-02
RMM:   7    -0.231635658527E+04    0.11321E-04   -0.71786E-05  3140   0.714E-03    0.315E-02
RMM:   8    -0.231635657367E+04    0.11596E-04   -0.19077E-05  2899   0.485E-03    0.117E-02
RMM:   9    -0.231635657553E+04   -0.18627E-05   -0.60190E-06  2867   0.267E-03
  36 F= -.23376463E+04 E0= -.23376463E+04  d E =-.286519E-02  mag=     2.0000
       N       E                     dE             d eps       ncg     rms          rms(c)
DAV:   1    -0.231635351608E+04    0.30576E-02   -0.49386E-01  4512   0.679E-01    0.170E-01
RMM:   2    -0.231635771289E+04   -0.41968E-02   -0.42133E-02  6366   0.130E-01    0.175E-01
RMM:   3    -0.231635798097E+04   -0.26808E-03   -0.40386E-03  5477   0.449E-02    0.158E-01
RMM:   4    -0.231635766335E+04    0.31763E-03   -0.44987E-04  4048   0.122E-02    0.663E-02
RMM:   5    -0.231635764478E+04    0.18565E-04   -0.15227E-04  3405   0.898E-03    0.692E-02
RMM:   6    -0.231635761727E+04    0.27510E-04   -0.81690E-05  2982   0.725E-03    0.434E-02
RMM:   7    -0.231635760880E+04    0.84727E-05   -0.35632E-05  2959   0.562E-03
  37 F= -.23376470E+04 E0= -.23376470E+04  d E =-.358603E-02  mag=     2.0000
       N       E                     dE             d eps       ncg     rms          rms(c)
DAV:   1    -0.231635730263E+04    0.31464E-03   -0.47511E-02  4736   0.211E-01    0.553E-02
RMM:   2    -0.231635771370E+04   -0.41106E-03   -0.41447E-03  6418   0.418E-02    0.556E-02
RMM:   3    -0.231635774361E+04   -0.29912E-04   -0.41485E-04  3143   0.142E-02    0.523E-02
RMM:   4    -0.231635771099E+04    0.32623E-04   -0.46014E-05  2944   0.538E-03    0.206E-02
RMM:   5    -0.231635770865E+04    0.23313E-05   -0.15144E-05  2913   0.338E-03
  38 F= -.23376470E+04 E0= -.23376470E+04  d E =-.358870E-02  mag=     2.0000
       N       E                     dE             d eps       ncg     rms          rms(c)
DAV:   1    -0.231635563503E+04    0.20760E-02   -0.57144E-01  4512   0.733E-01    0.192E-01
RMM:   2    -0.231636141616E+04   -0.57811E-02   -0.49821E-02  6362   0.138E-01    0.331E-01
RMM:   3    -0.231636064020E+04    0.77596E-03   -0.48967E-03  5765   0.472E-02    0.128E-01
RMM:   4    -0.231636044617E+04    0.19402E-03   -0.54576E-04  3793   0.121E-02    0.787E-02
RMM:   5    -0.231636044225E+04    0.39261E-05   -0.12249E-04  2960   0.756E-03    0.811E-02
RMM:   6    -0.231636039888E+04    0.43364E-04   -0.14184E-04  4014   0.843E-03    0.456E-02
RMM:   7    -0.231636037578E+04    0.23104E-04   -0.55810E-05  2966   0.665E-03    0.190E-02
RMM:   8    -0.231636037135E+04    0.44254E-05   -0.85308E-06  2872   0.304E-03
  39 F= -.23376492E+04 E0= -.23376492E+04  d E =-.222012E-02  mag=     2.0000
       N       E                     dE             d eps       ncg     rms          rms(c)
DAV:   1    -0.231635290371E+04    0.74721E-02   -0.11130E+00  4496   0.102E+00    0.269E-01
RMM:   2    -0.231636415422E+04   -0.11251E-01   -0.97241E-02  6359   0.192E-01    0.455E-01
RMM:   3    -0.231636264626E+04    0.15080E-02   -0.94449E-03  6038   0.640E-02    0.179E-01
RMM:   4    -0.231636222087E+04    0.42539E-03   -0.10393E-03  4608   0.165E-02    0.823E-02
RMM:   5    -0.231636224284E+04   -0.21966E-04   -0.29640E-04  3683   0.113E-02    0.111E-01
RMM:   6    -0.231636216648E+04    0.76361E-04   -0.22097E-04  4110   0.101E-02    0.751E-02
RMM:   7    -0.231636212060E+04    0.45872E-04   -0.87349E-05  3038   0.803E-03    0.329E-02
RMM:   8    -0.231636210921E+04    0.11392E-04   -0.14247E-05  2900   0.380E-03    0.104E-02
RMM:   9    -0.231636210794E+04    0.12667E-05   -0.42599E-06  2858   0.258E-03
  40 F= -.23376504E+04 E0= -.23376504E+04  d E =-.334233E-02  mag=     2.0000
       N       E                     dE             d eps       ncg     rms          rms(c)
DAV:   1    -0.231636009530E+04    0.20139E-02   -0.53441E-01  4504   0.719E-01    0.191E-01
RMM:   2    -0.231636586497E+04   -0.57697E-02   -0.48170E-02  6370   0.139E-01    0.353E-01
RMM:   3    -0.231636484494E+04    0.10200E-02   -0.46875E-03  5786   0.459E-02    0.120E-01
RMM:   4    -0.231636465330E+04    0.19164E-03   -0.51780E-04  3906   0.118E-02    0.658E-02
RMM:   5    -0.231636467275E+04   -0.19448E-04   -0.12218E-04  2970   0.750E-03    0.880E-02
RMM:   6    -0.231636461339E+04    0.59359E-04   -0.11596E-04  3634   0.777E-03    0.420E-02
RMM:   7    -0.231636459863E+04    0.14761E-04   -0.53365E-05  3004   0.645E-03    0.219E-02
RMM:   8    -0.231636459343E+04    0.52065E-05   -0.96956E-06  2862   0.335E-03
  41 F= -.23376524E+04 E0= -.23376524E+04  d E =-.207306E-02  mag=     2.0000
       N       E                     dE             d eps       ncg     rms          rms(c)
DAV:   1    -0.231635715288E+04    0.74458E-02   -0.10629E+00  4496   0.101E+00    0.272E-01
RMM:   2    -0.231636882320E+04   -0.11670E-01   -0.96251E-02  6308   0.196E-01    0.515E-01
RMM:   3    -0.231636659409E+04    0.22291E-02   -0.93904E-03  6042   0.637E-02    0.168E-01
RMM:   4    -0.231636622707E+04    0.36701E-03   -0.10489E-03  4673   0.163E-02    0.977E-02
RMM:   5    -0.231636624656E+04   -0.19487E-04   -0.23129E-04  3139   0.979E-03    0.118E-01
RMM:   6    -0.231636614185E+04    0.10471E-03   -0.22920E-04  4343   0.104E-02    0.594E-02
RMM:   7    -0.231636610913E+04    0.32720E-04   -0.10398E-04  3223   0.844E-03    0.298E-02
RMM:   8    -0.231636610003E+04    0.91057E-05   -0.17525E-05  2906   0.399E-03
  42 F= -.23376534E+04 E0= -.23376534E+04  d E =-.300007E-02  mag=     2.0000
       N       E                     dE             d eps       ncg     rms          rms(c)
DAV:   1    -0.231636097232E+04    0.51368E-02   -0.87902E-01  4496   0.927E-01    0.245E-01
RMM:   2    -0.231637105034E+04   -0.10078E-01   -0.80406E-02  6312   0.175E-01    0.509E-01
RMM:   3    -0.231636880182E+04    0.22485E-02   -0.76127E-03  5838   0.570E-02    0.143E-01
RMM:   4    -0.231636858756E+04    0.21426E-03   -0.89571E-04  4404   0.149E-02    0.103E-01
RMM:   5    -0.231636855255E+04    0.35009E-04   -0.17517E-04  3095   0.895E-03    0.892E-02
RMM:   6    -0.231636848472E+04    0.67828E-04   -0.18390E-04  4237   0.983E-03    0.468E-02
RMM:   7    -0.231636846673E+04    0.17993E-04   -0.68531E-05  3025   0.803E-03    0.263E-02
RMM:   8    -0.231636845907E+04    0.76654E-05   -0.14206E-05  2898   0.327E-03
  43 F= -.23376552E+04 E0= -.23376552E+04  d E =-.187380E-02  mag=     2.0000
       N       E                     dE             d eps       ncg     rms          rms(c)
DAV:   1    -0.231635719010E+04    0.11277E-01   -0.14074E+00  4496   0.118E+00    0.308E-01
RMM:   2    -0.231637311921E+04   -0.15929E-01   -0.12804E-01  6333   0.221E-01    0.631E-01
RMM:   3    -0.231636971889E+04    0.34003E-02   -0.12177E-02  5997   0.728E-02    0.182E-01
RMM:   4    -0.231636937390E+04    0.34499E-03   -0.14298E-03  4688   0.188E-02    0.131E-01
RMM:   5    -0.231636931243E+04    0.61469E-04   -0.28087E-04  3317   0.111E-02    0.112E-01
RMM:   6    -0.231636919780E+04    0.11463E-03   -0.29256E-04  4380   0.122E-02    0.565E-02
RMM:   7    -0.231636917326E+04    0.24533E-04   -0.10719E-04  3166   0.987E-03    0.337E-02
RMM:   8    -0.231636915978E+04    0.13486E-04   -0.22340E-05  2907   0.387E-03    0.113E-02
RMM:   9    -0.231636915942E+04    0.35155E-06   -0.50274E-06  2873   0.279E-03
  44 F= -.23376553E+04 E0= -.23376553E+04  d E =-.196158E-02  mag=     2.0000
       N       E                     dE             d eps       ncg     rms          rms(c)
DAV:   1    -0.231636668754E+04    0.24722E-02   -0.29243E-01  4512   0.534E-01    0.139E-01
RMM:   2    -0.231636995389E+04   -0.32664E-02   -0.26425E-02  6329   0.100E-01    0.282E-01
RMM:   3    -0.231636927342E+04    0.68047E-03   -0.25241E-03  4926   0.330E-02    0.826E-02
RMM:   4    -0.231636920082E+04    0.72599E-04   -0.28850E-04  3210   0.901E-03    0.576E-02
RMM:   5    -0.231636919202E+04    0.87995E-05   -0.59972E-05  2914   0.572E-03
  45 F= -.23376556E+04 E0= -.23376556E+04  d E =-.227346E-02  mag=     2.0000
       N       E                     dE             d eps       ncg     rms          rms(c)
DAV:   1    -0.231636600307E+04    0.31978E-02   -0.48931E-01  4504   0.700E-01    0.199E-01
RMM:   2    -0.231637290757E+04   -0.69045E-02   -0.53703E-02  6298   0.139E-01    0.454E-01
RMM:   3    -0.231637120030E+04    0.17073E-02   -0.51437E-03  5593   0.476E-02    0.118E-01
RMM:   4    -0.231637108694E+04    0.11336E-03   -0.63284E-04  4074   0.126E-02    0.843E-02
RMM:   5    -0.231637104421E+04    0.42729E-04   -0.13002E-04  3034   0.767E-03    0.694E-02
RMM:   6    -0.231637101432E+04    0.29891E-04   -0.13379E-04  3932   0.814E-03    0.485E-02
RMM:   7    -0.231637098572E+04    0.28599E-04   -0.54827E-05  3015   0.673E-03    0.217E-02
RMM:   8    -0.231637098085E+04    0.48739E-05   -0.10885E-05  2895   0.343E-03
  46 F= -.23376572E+04 E0= -.23376572E+04  d E =-.152873E-02  mag=     2.0000
       N       E                     dE             d eps       ncg     rms          rms(c)
DAV:   1    -0.231636504908E+04    0.59366E-02   -0.64812E-01  4496   0.807E-01    0.221E-01
RMM:   2    -0.231637338014E+04   -0.83311E-02   -0.70300E-02  6318   0.159E-01    0.439E-01
RMM:   3    -0.231637202843E+04    0.13517E-02   -0.67279E-03  5709   0.526E-02    0.146E-01
RMM:   4    -0.231637181775E+04    0.21068E-03   -0.77837E-04  4560   0.143E-02    0.870E-02
RMM:   5    -0.231637180229E+04    0.15464E-04   -0.16097E-04  3203   0.849E-03    0.901E-02
RMM:   6    -0.231637171195E+04    0.90345E-04   -0.17472E-04  4182   0.973E-03    0.326E-02
RMM:   7    -0.231637171025E+04    0.16988E-05   -0.44705E-05  2941   0.747E-03
  47 F= -.23376576E+04 E0= -.23376576E+04  d E =-.195736E-02  mag=     2.0000
       N       E                     dE             d eps       ncg     rms          rms(c)
DAV:   1    -0.231636617563E+04    0.55363E-02   -0.62586E-01  4504   0.789E-01    0.208E-01
RMM:   2    -0.231637452957E+04   -0.83539E-02   -0.73963E-02  6467   0.156E-01    0.397E-01
RMM:   3    -0.231637369798E+04    0.83160E-03   -0.73974E-03  5655   0.541E-02    0.150E-01
RMM:   4    -0.231637349528E+04    0.20269E-03   -0.81103E-04  4023   0.136E-02    0.787E-02
RMM:   5    -0.231637348030E+04    0.14985E-04   -0.13578E-04  3115   0.760E-03    0.839E-02
RMM:   6    -0.231637341913E+04    0.61164E-04   -0.15689E-04  3918   0.860E-03    0.459E-02
RMM:   7    -0.231637340604E+04    0.13089E-04   -0.65314E-05  2962   0.675E-03    0.261E-02
RMM:   8    -0.231637339765E+04    0.83916E-05   -0.13366E-05  2903   0.356E-03
  48 F= -.23376590E+04 E0= -.23376590E+04  d E =-.139168E-02  mag=     2.0000
       N       E                     dE             d eps       ncg     rms          rms(c)
DAV:   1    -0.231635704602E+04    0.16360E-01   -0.15243E+00  4496   0.123E+00    0.321E-01
RMM:   2    -0.231637719671E+04   -0.20151E-01   -0.17989E-01  6418   0.241E-01    0.605E-01
RMM:   3    -0.231637537773E+04    0.18190E-02   -0.17784E-02  6053   0.817E-02    0.236E-01
RMM:   4    -0.231637486718E+04    0.51055E-03   -0.19646E-03  5183   0.206E-02    0.123E-01
RMM:   5    -0.231637483048E+04    0.36704E-04   -0.32526E-04  3608   0.106E-02    0.131E-01
RMM:   6    -0.231637467284E+04    0.15764E-03   -0.38659E-04  4523   0.126E-02    0.692E-02
RMM:   7    -0.231637464469E+04    0.28151E-04   -0.15539E-04  3239   0.968E-03    0.408E-02
RMM:   8    -0.231637462301E+04    0.21681E-04   -0.29643E-05  2926   0.469E-03    0.127E-02
RMM:   9    -0.231637462145E+04    0.15568E-05   -0.68673E-06  2866   0.317E-03
  49 F= -.23376597E+04 E0= -.23376597E+04  d E =-.215460E-02  mag=     2.0000
       N       E                     dE             d eps       ncg     rms          rms(c)
DAV:   1    -0.231636509737E+04    0.95256E-02   -0.10028E+00  4496   0.100E+00    0.270E-01
RMM:   2    -0.231637791371E+04   -0.12816E-01   -0.12130E-01  6357   0.201E-01    0.403E-01
RMM:   3    -0.231637773489E+04    0.17882E-03   -0.12018E-02  5864   0.726E-02    0.231E-01
RMM:   4    -0.231637717253E+04    0.56236E-03   -0.13222E-03  5108   0.185E-02    0.108E-01
RMM:   5    -0.231637716203E+04    0.10496E-04   -0.26715E-04  3446   0.101E-02    0.117E-01
RMM:   6    -0.231637702464E+04    0.13739E-03   -0.27275E-04  4264   0.111E-02    0.528E-02
RMM:   7    -0.231637701075E+04    0.13887E-04   -0.11687E-04  3194   0.856E-03    0.347E-02
RMM:   8    -0.231637699516E+04    0.15594E-04   -0.24262E-05  2910   0.477E-03    0.991E-03
RMM:   9    -0.231637699445E+04    0.70926E-06   -0.58398E-06  2878   0.313E-03
  50 F= -.23376615E+04 E0= -.23376615E+04  d E =-.178071E-02  mag=     2.0000
       N       E                     dE             d eps       ncg     rms          rms(c)
DAV:   1    -0.231637582287E+04    0.11723E-02   -0.12598E-01  4624   0.356E-01    0.961E-02
RMM:   2    -0.231637744417E+04   -0.16213E-02   -0.15303E-02  6310   0.718E-02    0.144E-01
RMM:   3    -0.231637741488E+04    0.29298E-04   -0.15014E-03  4046   0.264E-02    0.811E-02
RMM:   4    -0.231637734678E+04    0.68098E-04   -0.16571E-04  3075   0.761E-03    0.389E-02
RMM:   5    -0.231637734480E+04    0.19799E-05   -0.35126E-05  2935   0.452E-03
  51 F= -.23376617E+04 E0= -.23376617E+04  d E =-.192156E-02  mag=     2.0000
       N       E                     dE             d eps       ncg     rms          rms(c)
DAV:   1    -0.231636929258E+04    0.80542E-02   -0.73207E-01  4504   0.833E-01    0.226E-01
RMM:   2    -0.231637972134E+04   -0.10429E-01   -0.10009E-01  6533   0.175E-01    0.330E-01
RMM:   3    -0.231637963179E+04    0.89556E-04   -0.10115E-02  5895   0.599E-02    0.177E-01
RMM:   4    -0.231637923685E+04    0.39494E-03   -0.10569E-03  4162   0.152E-02    0.862E-02
RMM:   5    -0.231637925433E+04   -0.17475E-04   -0.20720E-04  3145   0.885E-03    0.111E-01
RMM:   6    -0.231637914293E+04    0.11140E-03   -0.17720E-04  3790   0.904E-03    0.462E-02
RMM:   7    -0.231637913693E+04    0.59975E-05   -0.87087E-05  3065   0.723E-03
  52 F= -.23376629E+04 E0= -.23376629E+04  d E =-.123738E-02  mag=     2.0000
       N       E                     dE             d eps       ncg     rms          rms(c)
DAV:   1    -0.231637849191E+04    0.65102E-03   -0.58667E-02  4688   0.236E-01    0.686E-02
RMM:   2    -0.231637935415E+04   -0.86224E-03   -0.82095E-03  6466   0.514E-02    0.102E-01
RMM:   3    -0.231637933226E+04    0.21889E-04   -0.84930E-04  3281   0.176E-02    0.539E-02
RMM:   4    -0.231637929843E+04    0.33835E-04   -0.88747E-05  2973   0.605E-03    0.235E-02
RMM:   5    -0.231637930071E+04   -0.22879E-05   -0.17796E-05  2901   0.313E-03
  53 F= -.23376629E+04 E0= -.23376629E+04  d E =-.124420E-02  mag=     2.0000
       N       E                     dE             d eps       ncg     rms          rms(c)
DAV:   1    -0.231637505789E+04    0.42405E-02   -0.40089E-01  4504   0.609E-01    0.166E-01
RMM:   2    -0.231638089002E+04   -0.58321E-02   -0.55962E-02  6516   0.127E-01    0.239E-01
RMM:   3    -0.231638086140E+04    0.28621E-04   -0.56473E-03  5472   0.443E-02    0.127E-01
RMM:   4    -0.231638064632E+04    0.21508E-03   -0.57348E-04  3524   0.111E-02    0.554E-02
RMM:   5    -0.231638059982E+04    0.46492E-04   -0.11107E-04  3219   0.775E-03    0.286E-02
RMM:   6    -0.231638061713E+04   -0.17308E-04   -0.63438E-05  3067   0.643E-03    0.476E-02
RMM:   7    -0.231638059597E+04    0.21163E-04   -0.24683E-05  2901   0.480E-03    0.174E-02
RMM:   8    -0.231638059375E+04    0.22158E-05   -0.72230E-06  2835   0.272E-03
  54 F= -.23376639E+04 E0= -.23376639E+04  d E =-.959750E-03  mag=     2.0000
       N       E                     dE             d eps       ncg     rms          rms(c)
DAV:   1    -0.231637018307E+04    0.10413E-01   -0.81853E-01  4496   0.871E-01    0.241E-01
RMM:   2    -0.231638227569E+04   -0.12093E-01   -0.11491E-01  6531   0.182E-01    0.362E-01
RMM:   3    -0.231638207209E+04    0.20360E-03   -0.11549E-02  5885   0.627E-02    0.182E-01
RMM:   4    -0.231638164058E+04    0.43151E-03   -0.11915E-03  4424   0.154E-02    0.874E-02
RMM:   5    -0.231638164380E+04   -0.32252E-05   -0.17170E-04  3063   0.787E-03    0.102E-01
RMM:   6    -0.231638152712E+04    0.11668E-03   -0.17911E-04  3753   0.888E-03    0.335E-02
RMM:   7    -0.231638152819E+04   -0.10688E-05   -0.69232E-05  3050   0.694E-03
  55 F= -.23376643E+04 E0= -.23376643E+04  d E =-.142158E-02  mag=     2.0000
       N       E                     dE             d eps       ncg     rms          rms(c)
DAV:   1    -0.231637961804E+04    0.19091E-02   -0.22684E-01  4512   0.477E-01    0.145E-01
RMM:   2    -0.231638298989E+04   -0.33718E-02   -0.30866E-02  6458   0.103E-01    0.223E-01
RMM:   3    -0.231638278253E+04    0.20736E-03   -0.30870E-03  5000   0.359E-02    0.114E-01
RMM:   4    -0.231638263475E+04    0.14778E-03   -0.34555E-04  3233   0.978E-03    0.556E-02
RMM:   5    -0.231638262130E+04    0.13451E-04   -0.62001E-05  2934   0.577E-03    0.487E-02
RMM:   6    -0.231638260852E+04    0.12774E-04   -0.62135E-05  3118   0.578E-03    0.383E-02
RMM:   7    -0.231638259198E+04    0.16542E-04   -0.39057E-05  2930   0.568E-03    0.136E-02
RMM:   8    -0.231638258992E+04    0.20621E-05   -0.73000E-06  2870   0.319E-03
  56 F= -.23376652E+04 E0= -.23376652E+04  d E =-.903091E-03  mag=     2.0000
       N       E                     dE             d eps       ncg     rms          rms(c)
DAV:   1    -0.231637999544E+04    0.25965E-02   -0.23530E-01  4512   0.485E-01    0.145E-01
RMM:   2    -0.231638347401E+04   -0.34786E-02   -0.31872E-02  6363   0.102E-01    0.224E-01
RMM:   3    -0.231638326768E+04    0.20633E-03   -0.31299E-03  4888   0.345E-02    0.114E-01
RMM:   4    -0.231638311881E+04    0.14886E-03   -0.35579E-04  3274   0.974E-03    0.599E-02
RMM:   5    -0.231638310009E+04    0.18724E-04   -0.62970E-05  2933   0.574E-03    0.485E-02
RMM:   6    -0.231638308574E+04    0.14349E-04   -0.69487E-05  3163   0.601E-03    0.379E-02
RMM:   7    -0.231638306826E+04    0.17475E-04   -0.40037E-05  2947   0.574E-03    0.136E-02
RMM:   8    -0.231638306582E+04    0.24406E-05   -0.73415E-06  2871   0.321E-03
  57 F= -.23376655E+04 E0= -.23376655E+04  d E =-.121776E-02  mag=     2.0000
       N       E                     dE             d eps       ncg     rms          rms(c)
DAV:   1    -0.231638129603E+04    0.17722E-02   -0.17395E-01  4512   0.410E-01    0.127E-01
RMM:   2    -0.231638451277E+04   -0.32167E-02   -0.28272E-02  6416   0.929E-02    0.244E-01
RMM:   3    -0.231638412430E+04    0.38847E-03   -0.27876E-03  4720   0.320E-02    0.932E-02
RMM:   4    -0.231638405134E+04    0.72960E-04   -0.34361E-04  3174   0.885E-03    0.565E-02
RMM:   5    -0.231638402788E+04    0.23459E-04   -0.54227E-05  2927   0.527E-03    0.423E-02
RMM:   6    -0.231638402271E+04    0.51768E-05   -0.50166E-05  3001   0.483E-03
  58 F= -.23376663E+04 E0= -.23376663E+04  d E =-.768947E-03  mag=     2.0000
       N       E                     dE             d eps       ncg     rms          rms(c)
DAV:   1    -0.231638252731E+04    0.15006E-02   -0.11316E-01  4528   0.331E-01    0.983E-02
RMM:   2    -0.231638442857E+04   -0.19013E-02   -0.18011E-02  6453   0.737E-02    0.151E-01
RMM:   3    -0.231638438371E+04    0.44860E-04   -0.18718E-03  3971   0.257E-02    0.885E-02
RMM:   4    -0.231638431854E+04    0.65171E-04   -0.21350E-04  3023   0.764E-03    0.475E-02
RMM:   5    -0.231638430253E+04    0.16014E-04   -0.39161E-05  2909   0.428E-03    0.348E-02
RMM:   6    -0.231638430006E+04    0.24610E-05   -0.39293E-05  2944   0.433E-03
  59 F= -.23376664E+04 E0= -.23376664E+04  d E =-.894098E-03  mag=     2.0000
       N       E                     dE             d eps       ncg     rms          rms(c)
DAV:   1    -0.231638356517E+04    0.73735E-03   -0.82940E-02  4528   0.281E-01    0.840E-02
RMM:   2    -0.231638504832E+04   -0.14832E-02   -0.13611E-02  6492   0.630E-02    0.147E-01
RMM:   3    -0.231638496157E+04    0.86754E-04   -0.14039E-03  3665   0.229E-02    0.687E-02
RMM:   4    -0.231638492620E+04    0.35365E-04   -0.15946E-04  2976   0.667E-03    0.384E-02
RMM:   5    -0.231638491496E+04    0.11243E-04   -0.24705E-05  2900   0.341E-03    0.274E-02
RMM:   6    -0.231638491322E+04    0.17448E-05   -0.24753E-05  2874   0.352E-03
  60 F= -.23376669E+04 E0= -.23376669E+04  d E =-.462020E-03  mag=     2.0000
       N       E                     dE             d eps       ncg     rms          rms(c)
DAV:   1    -0.231637742168E+04    0.74933E-02   -0.51197E-01  4528   0.699E-01    0.211E-01
RMM:   2    -0.231638682664E+04   -0.94050E-02   -0.84306E-02  6517   0.157E-01    0.396E-01
RMM:   3    -0.231638599851E+04    0.82814E-03   -0.84273E-03  5653   0.538E-02    0.158E-01
RMM:   4    -0.231638579823E+04    0.20027E-03   -0.97350E-04  3702   0.134E-02    0.920E-02
RMM:   5    -0.231638573555E+04    0.62684E-04   -0.13904E-04  3024   0.743E-03    0.678E-02
RMM:   6    -0.231638572104E+04    0.14508E-04   -0.14831E-04  3532   0.777E-03    0.640E-02
RMM:   7    -0.231638567115E+04    0.49895E-04   -0.10256E-04  3276   0.754E-03    0.238E-02
RMM:   8    -0.231638566582E+04    0.53264E-05   -0.17226E-05  2936   0.437E-03
  61 F= -.23376673E+04 E0= -.23376673E+04  d E =-.841040E-03  mag=     2.0000
       N       E                     dE             d eps       ncg     rms          rms(c)
DAV:   1    -0.231638400703E+04    0.16641E-02   -0.15751E-01  4512   0.393E-01    0.123E-01
RMM:   2    -0.231638712843E+04   -0.31214E-02   -0.26887E-02  6418   0.904E-02    0.251E-01
RMM:   3    -0.231638670785E+04    0.42058E-03   -0.26473E-03  4493   0.300E-02    0.790E-02
RMM:   4    -0.231638666304E+04    0.44812E-04   -0.31517E-04  3031   0.826E-03    0.519E-02
RMM:   5    -0.231638664433E+04    0.18715E-04   -0.42166E-05  2912   0.450E-03    0.367E-02
RMM:   6    -0.231638663824E+04    0.60832E-05   -0.37566E-05  2962   0.450E-03
  62 F= -.23376680E+04 E0= -.23376680E+04  d E =-.718739E-03  mag=     2.0000
       N       E                     dE             d eps       ncg     rms          rms(c)
DAV:   1    -0.231637262501E+04    0.14019E-01   -0.91770E-01  4496   0.947E-01    0.288E-01
RMM:   2    -0.231639003670E+04   -0.17412E-01   -0.15474E-01  6462   0.216E-01    0.551E-01
RMM:   3    -0.231638839609E+04    0.16406E-02   -0.15711E-02  6009   0.745E-02    0.201E-01
RMM:   4    -0.231638807371E+04    0.32238E-03   -0.17746E-03  4824   0.180E-02    0.122E-01
RMM:   5    -0.231638797676E+04    0.96951E-04   -0.23530E-04  3191   0.920E-03    0.901E-02
RMM:   6    -0.231638793108E+04    0.45674E-04   -0.23098E-04  4314   0.987E-03    0.749E-02
RMM:   7    -0.231638786787E+04    0.63211E-04   -0.14182E-04  3366   0.886E-03    0.332E-02
RMM:   8    -0.231638785715E+04    0.10719E-04   -0.27771E-05  2934   0.484E-03    0.101E-02
RMM:   9    -0.231638785590E+04    0.12557E-05   -0.51592E-06  2866   0.331E-03
  63 F= -.23376686E+04 E0= -.23376686E+04  d E =-.132474E-02  mag=     2.0000
       N       E                     dE             d eps       ncg     rms          rms(c)
DAV:   1    -0.231638435766E+04    0.34995E-02   -0.27083E-01  4528   0.503E-01    0.161E-01
RMM:   2    -0.231638976771E+04   -0.54101E-02   -0.47312E-02  6529   0.118E-01    0.319E-01
RMM:   3    -0.231638914153E+04    0.62618E-03   -0.48350E-03  5166   0.400E-02    0.101E-01
RMM:   4    -0.231638905532E+04    0.86217E-04   -0.54662E-04  3247   0.101E-02    0.669E-02
RMM:   5    -0.231638903117E+04    0.24150E-04   -0.64948E-05  2928   0.565E-03    0.507E-02
RMM:   6    -0.231638899839E+04    0.32778E-04   -0.56898E-05  3051   0.565E-03    0.260E-02
RMM:   7    -0.231638899644E+04    0.19473E-05   -0.31497E-05  2907   0.519E-03
  64 F= -.23376693E+04 E0= -.23376693E+04  d E =-.732631E-03  mag=     2.0000
       N       E                     dE             d eps       ncg     rms          rms(c)
DAV:   1    -0.231638797842E+04    0.10200E-02   -0.74761E-02  4592   0.265E-01    0.869E-02
RMM:   2    -0.231638949937E+04   -0.15209E-02   -0.13172E-02  6552   0.627E-02    0.173E-01
RMM:   3    -0.231638930418E+04    0.19519E-03   -0.13609E-03  3650   0.214E-02    0.550E-02
RMM:   4    -0.231638927967E+04    0.24517E-04   -0.15476E-04  2995   0.654E-03    0.351E-02
RMM:   5    -0.231638927350E+04    0.61625E-05   -0.19249E-05  2895   0.320E-03
  65 F= -.23376694E+04 E0= -.23376694E+04  d E =-.794871E-03  mag=     2.0000
       N       E                     dE             d eps       ncg     rms          rms(c)
DAV:   1    -0.231638621792E+04    0.30617E-02   -0.24371E-01  4512   0.474E-01    0.146E-01
RMM:   2    -0.231639062773E+04   -0.44098E-02   -0.40980E-02  6505   0.109E-01    0.238E-01
RMM:   3    -0.231639047619E+04    0.15154E-03   -0.42597E-03  4918   0.379E-02    0.109E-01
RMM:   4    -0.231639034417E+04    0.13202E-03   -0.44612E-04  3341   0.999E-03    0.561E-02
RMM:   5    -0.231639033599E+04    0.81779E-05   -0.61230E-05  2948   0.558E-03
  66 F= -.23376701E+04 E0= -.23376701E+04  d E =-.713000E-03  mag=     2.0000
       N       E                     dE             d eps       ncg     rms          rms(c)
DAV:   1    -0.231638733064E+04    0.30135E-02   -0.20568E-01  4512   0.437E-01    0.136E-01
RMM:   2    -0.231639114366E+04   -0.38130E-02   -0.34563E-02  6542   0.100E-01    0.231E-01
RMM:   3    -0.231639090064E+04    0.24302E-03   -0.36742E-03  4921   0.356E-02    0.949E-02
RMM:   4    -0.231639079251E+04    0.10813E-03   -0.37256E-04  3287   0.937E-03    0.488E-02
RMM:   5    -0.231639078324E+04    0.92688E-05   -0.65558E-05  2938   0.552E-03
  67 F= -.23376702E+04 E0= -.23376702E+04  d E =-.838563E-03  mag=     2.0000
       N       E                     dE             d eps       ncg     rms          rms(c)
DAV:   1    -0.231638847728E+04    0.23152E-02   -0.19589E-01  4512   0.424E-01    0.132E-01
RMM:   2    -0.231639190509E+04   -0.34278E-02   -0.32040E-02  6541   0.959E-02    0.194E-01
RMM:   3    -0.231639182930E+04    0.75788E-04   -0.34123E-03  4927   0.343E-02    0.106E-01
RMM:   4    -0.231639172016E+04    0.10915E-03   -0.38009E-04  3165   0.959E-03    0.594E-02
RMM:   5    -0.231639169872E+04    0.21431E-04   -0.59963E-05  2941   0.518E-03    0.498E-02
RMM:   6    -0.231639169576E+04    0.29653E-05   -0.58538E-05  2929   0.506E-03
  68 F= -.23376709E+04 E0= -.23376709E+04  d E =-.689418E-03  mag=     2.0000
       N       E                     dE             d eps       ncg     rms          rms(c)
DAV:   1    -0.231638141686E+04    0.10282E-01   -0.67477E-01  4496   0.784E-01    0.250E-01
RMM:   2    -0.231639340164E+04   -0.11985E-01   -0.11142E-01  6510   0.179E-01    0.400E-01
RMM:   3    -0.231639298585E+04    0.41579E-03   -0.11303E-02  5804   0.586E-02    0.194E-01
RMM:   4    -0.231639259563E+04    0.39022E-03   -0.12196E-03  4524   0.154E-02    0.957E-02
RMM:   5    -0.231639256306E+04    0.32571E-04   -0.16570E-04  3168   0.797E-03    0.860E-02
RMM:   6    -0.231639249010E+04    0.72959E-04   -0.17521E-04  3722   0.880E-03    0.516E-02
RMM:   7    -0.231639247926E+04    0.10844E-04   -0.98942E-05  3085   0.735E-03    0.324E-02
RMM:   8    -0.231639246489E+04    0.14366E-04   -0.22678E-05  2907   0.469E-03    0.996E-03
RMM:   9    -0.231639246351E+04    0.13834E-05   -0.50608E-06  2859   0.290E-03
  69 F= -.23376713E+04 E0= -.23376713E+04  d E =-.104494E-02  mag=     2.0000
       N       E                     dE             d eps       ncg     rms          rms(c)
DAV:   1    -0.231639041896E+04    0.20459E-02   -0.16347E-01  4512   0.379E-01    0.123E-01
RMM:   2    -0.231639348099E+04   -0.30620E-02   -0.28335E-02  6554   0.891E-02    0.208E-01
RMM:   3    -0.231639334595E+04    0.13504E-03   -0.28771E-03  4323   0.299E-02    0.963E-02
RMM:   4    -0.231639325786E+04    0.88087E-04   -0.32204E-04  3219   0.862E-03    0.495E-02
RMM:   5    -0.231639325013E+04    0.77314E-05   -0.47353E-05  2913   0.462E-03
  70 F= -.23376719E+04 E0= -.23376719E+04  d E =-.575375E-03  mag=     2.0000
       N       E                     dE             d eps       ncg     rms          rms(c)
DAV:   1    -0.231639032243E+04    0.29354E-02   -0.19255E-01  4512   0.412E-01    0.127E-01
RMM:   2    -0.231639373337E+04   -0.34109E-02   -0.32823E-02  6568   0.963E-02    0.186E-01
RMM:   3    -0.231639376148E+04   -0.28115E-04   -0.33888E-03  4460   0.322E-02    0.108E-01
RMM:   4    -0.231639364267E+04    0.11881E-03   -0.36540E-04  3243   0.911E-03    0.522E-02
RMM:   5    -0.231639365087E+04   -0.81995E-05   -0.64004E-05  2926   0.517E-03
  71 F= -.23376720E+04 E0= -.23376720E+04  d E =-.746079E-03  mag=     2.0000
       N       E                     dE             d eps       ncg     rms          rms(c)
DAV:   1    -0.231639183233E+04    0.18103E-02   -0.16413E-01  4512   0.392E-01    0.122E-01
RMM:   2    -0.231639446643E+04   -0.26341E-02   -0.26184E-02  6484   0.902E-02    0.141E-01
RMM:   3    -0.231639463863E+04   -0.17220E-03   -0.26904E-03  4436   0.312E-02    0.123E-01
RMM:   4    -0.231639448391E+04    0.15472E-03   -0.28840E-04  3165   0.914E-03    0.455E-02
RMM:   5    -0.231639449410E+04   -0.10191E-04   -0.67094E-05  2993   0.569E-03    0.574E-02
RMM:   6    -0.231639445920E+04    0.34903E-04   -0.53055E-05  2955   0.558E-03    0.190E-02
RMM:   7    -0.231639445823E+04    0.96933E-06   -0.16030E-05  2924   0.441E-03
  72 F= -.23376726E+04 E0= -.23376726E+04  d E =-.596800E-03  mag=     2.0000
       N       E                     dE             d eps       ncg     rms          rms(c)
DAV:   1    -0.231639096340E+04    0.34958E-02   -0.24745E-01  4496   0.482E-01    0.157E-01
RMM:   2    -0.231639516454E+04   -0.42011E-02   -0.40198E-02  6501   0.111E-01    0.221E-01
RMM:   3    -0.231639521073E+04   -0.46190E-04   -0.41457E-03  5116   0.389E-02    0.149E-01
RMM:   4    -0.231639499829E+04    0.21245E-03   -0.45215E-04  3314   0.105E-02    0.553E-02
RMM:   5    -0.231639499598E+04    0.23046E-05   -0.84387E-05  3018   0.607E-03
  73 F= -.23376729E+04 E0= -.23376729E+04  d E =-.877092E-03  mag=     2.0000
       N       E                     dE             d eps       ncg     rms          rms(c)
DAV:   1    -0.231639403831E+04    0.95998E-03   -0.93284E-02  4528   0.301E-01    0.909E-02
RMM:   2    -0.231639559180E+04   -0.15535E-02   -0.15498E-02  6531   0.711E-02    0.103E-01
RMM:   3    -0.231639569995E+04   -0.10815E-03   -0.15780E-03  3889   0.242E-02    0.912E-02
RMM:   4    -0.231639561907E+04    0.80885E-04   -0.16648E-04  3033   0.748E-03    0.369E-02
RMM:   5    -0.231639562544E+04   -0.63782E-05   -0.43622E-05  2934   0.475E-03
  74 F= -.23376734E+04 E0= -.23376734E+04  d E =-.470000E-03  mag=     2.0000
       N       E                     dE             d eps       ncg     rms          rms(c)
DAV:   1    -0.231638920504E+04    0.64140E-02   -0.41380E-01  4496   0.633E-01    0.201E-01
RMM:   2    -0.231639661175E+04   -0.74067E-02   -0.70503E-02  6522   0.150E-01    0.288E-01
RMM:   3    -0.231639660558E+04    0.61735E-05   -0.71894E-03  5679   0.506E-02    0.182E-01
RMM:   4    -0.231639631315E+04    0.29243E-03   -0.85539E-04  3827   0.134E-02    0.885E-02
RMM:   5    -0.231639626213E+04    0.51023E-04   -0.15351E-04  3118   0.761E-03    0.684E-02
RMM:   6    -0.231639626255E+04   -0.42279E-06   -0.13865E-04  3399   0.794E-03    0.686E-02
RMM:   7    -0.231639620821E+04    0.54344E-04   -0.90525E-05  3182   0.741E-03    0.200E-02
RMM:   8    -0.231639620509E+04    0.31130E-05   -0.15172E-05  2937   0.427E-03
  75 F= -.23376736E+04 E0= -.23376736E+04  d E =-.715268E-03  mag=     2.0000
       N       E                     dE             d eps       ncg     rms          rms(c)
DAV:   1    -0.231639556444E+04    0.64377E-03   -0.60107E-02  4576   0.237E-01    0.764E-02
RMM:   2    -0.231639674572E+04   -0.11813E-02   -0.10894E-02  6525   0.575E-02    0.129E-01
RMM:   3    -0.231639668248E+04    0.63249E-04   -0.11032E-03  3418   0.191E-02    0.604E-02
RMM:   4    -0.231639665719E+04    0.25281E-04   -0.13566E-04  2971   0.621E-03    0.360E-02
RMM:   5    -0.231639664830E+04    0.88925E-05   -0.22312E-05  2869   0.304E-03
  76 F= -.23376739E+04 E0= -.23376739E+04  d E =-.290702E-03  mag=     2.0000
       N       E                     dE             d eps       ncg     rms          rms(c)
DAV:   1    -0.231639510307E+04    0.15541E-02   -0.10623E-01  4512   0.316E-01    0.972E-02
RMM:   2    -0.231639710575E+04   -0.20027E-02   -0.18864E-02  6553   0.753E-02    0.150E-01
RMM:   3    -0.231639706003E+04    0.45716E-04   -0.19386E-03  3903   0.248E-02    0.717E-02
RMM:   4    -0.231639700478E+04    0.55253E-04   -0.20428E-04  3069   0.743E-03    0.382E-02
RMM:   5    -0.231639700967E+04   -0.48894E-05   -0.35989E-05  2910   0.410E-03
  77 F= -.23376741E+04 E0= -.23376741E+04  d E =-.448997E-03  mag=     2.0000
       N       E                     dE             d eps       ncg     rms          rms(c)
DAV:   1    -0.231639713119E+04   -0.12641E-03   -0.20351E-02  4640   0.150E-01    0.504E-02
RMM:   2    -0.231639745752E+04   -0.32634E-03   -0.30269E-03  6345   0.344E-02    0.660E-02
RMM:   3    -0.231639744886E+04    0.86629E-05   -0.34019E-04  3119   0.131E-02    0.455E-02
RMM:   4    -0.231639742918E+04    0.19683E-04   -0.38903E-05  2934   0.494E-03    0.242E-02
RMM:   5    -0.231639742655E+04    0.26269E-05   -0.10570E-05  2846   0.255E-03
  78 F= -.23376744E+04 E0= -.23376744E+04  d E =-.314389E-03  mag=     2.0000
       N       E                     dE             d eps       ncg     rms          rms(c)
DAV:   1    -0.231639653468E+04    0.89449E-03   -0.97594E-02  4512   0.327E-01    0.115E-01
RMM:   2    -0.231639824436E+04   -0.17097E-02   -0.14743E-02  6284   0.729E-02    0.182E-01
RMM:   3    -0.231639802022E+04    0.22414E-03   -0.15923E-03  4433   0.275E-02    0.849E-02
RMM:   4    -0.231639795411E+04    0.66117E-04   -0.19623E-04  3040   0.828E-03    0.578E-02
RMM:   5    -0.231639792853E+04    0.25574E-04   -0.47097E-05  2919   0.528E-03    0.330E-02
RMM:   6    -0.231639793204E+04   -0.35055E-05   -0.45901E-05  2972   0.510E-03
  79 F= -.23376747E+04 E0= -.23376747E+04  d E =-.596630E-03  mag=     2.0000
       N       E                     dE             d eps       ncg     rms          rms(c)
DAV:   1    -0.231639781796E+04    0.11057E-03   -0.25459E-02  4640   0.163E-01    0.526E-02
RMM:   2    -0.231639830469E+04   -0.48673E-03   -0.45336E-03  6432   0.380E-02    0.761E-02
RMM:   3    -0.231639828415E+04    0.20539E-04   -0.50642E-04  3089   0.141E-02    0.401E-02
RMM:   4    -0.231639826486E+04    0.19288E-04   -0.49476E-05  2966   0.489E-03    0.149E-02
RMM:   5    -0.231639826445E+04    0.40969E-06   -0.10575E-05  2878   0.263E-03
  80 F= -.23376749E+04 E0= -.23376749E+04  d E =-.219826E-03  mag=     2.0000
       N       E                     dE             d eps       ncg     rms          rms(c)
DAV:   1    -0.231639746728E+04    0.79758E-03   -0.66288E-02  4512   0.261E-01    0.870E-02
RMM:   2    -0.231639883557E+04   -0.13683E-02   -0.11833E-02  6451   0.595E-02    0.157E-01
RMM:   3    -0.231639864390E+04    0.19167E-03   -0.12576E-03  3916   0.223E-02    0.597E-02
RMM:   4    -0.231639861125E+04    0.32648E-04   -0.13660E-04  2984   0.680E-03    0.369E-02
RMM:   5    -0.231639860367E+04    0.75761E-05   -0.22985E-05  2900   0.360E-03
  81 F= -.23376750E+04 E0= -.23376750E+04  d E =-.378232E-03  mag=     2.0000
       N       E                     dE             d eps       ncg     rms          rms(c)
DAV:   1    -0.231639833031E+04    0.28094E-03   -0.43702E-02  4512   0.218E-01    0.674E-02
RMM:   2    -0.231639901954E+04   -0.68923E-03   -0.67108E-03  6328   0.487E-02    0.808E-02
RMM:   3    -0.231639902348E+04   -0.39421E-05   -0.72666E-04  3493   0.186E-02    0.585E-02
RMM:   4    -0.231639898496E+04    0.38519E-04   -0.81293E-05  2976   0.615E-03    0.247E-02
RMM:   5    -0.231639898196E+04    0.30031E-05   -0.22230E-05  2894   0.361E-03
  82 F= -.23376753E+04 E0= -.23376753E+04  d E =-.243195E-03  mag=     2.0000
[...]
 163 F= -.23376800E+04 E0= -.23376800E+04  d E =-.703950E-04  mag=     2.0000
       N       E                     dE             d eps       ncg     rms          rms(c)
DAV:   1    -0.231640903146E+04    0.10328E-02   -0.69675E-02  4504   0.229E-01    0.725E-02
RMM:   2    -0.231641030784E+04   -0.12764E-02   -0.12543E-02  6485   0.552E-02    0.920E-02
RMM:   3    -0.231641036453E+04   -0.56691E-04   -0.13202E-03  3456   0.200E-02    0.674E-02
RMM:   4    -0.231641032202E+04    0.42516E-04   -0.13649E-04  2987   0.598E-03    0.343E-02
RMM:   5    -0.231641031794E+04    0.40805E-05   -0.19452E-05  2842   0.272E-03
 164 F= -.23376800E+04 E0= -.23376800E+04  d E =-.138954E-03  mag=     2.0000
       N       E                     dE             d eps       ncg     rms          rms(c)
DAV:   1    -0.231641012996E+04    0.19205E-03   -0.14970E-02  4504   0.106E-01    0.339E-02
RMM:   2    -0.231641040469E+04   -0.27473E-03   -0.27153E-03  5764   0.261E-02    0.435E-02
RMM:   3    -0.231641041615E+04   -0.11460E-04   -0.28816E-04  2960   0.983E-03    0.312E-02
RMM:   4    -0.231641040667E+04    0.94858E-05   -0.29276E-05  2942   0.348E-03
 165 F= -.23376800E+04 E0= -.23376800E+04  d E =-.136972E-03  mag=     2.0000
       N       E                     dE             d eps       ncg     rms          rms(c)
DAV:   1    -0.231641029039E+04    0.12577E-03   -0.15350E-02  4504   0.108E-01    0.368E-02
RMM:   2    -0.231641060939E+04   -0.31900E-03   -0.28790E-03  5977   0.267E-02    0.725E-02
RMM:   3    -0.231641059266E+04    0.16730E-04   -0.31928E-04  2954   0.104E-02    0.330E-02
RMM:   4    -0.231641058667E+04    0.59893E-05   -0.33721E-05  2917   0.348E-03
 166 F= -.23376801E+04 E0= -.23376801E+04  d E =-.808759E-04  mag=     2.0000
       N       E                     dE             d eps       ncg     rms          rms(c)
DAV:   1    -0.231640836516E+04    0.22275E-02   -0.13883E-01  4496   0.324E-01    0.104E-01
RMM:   2    -0.231641090274E+04   -0.25376E-02   -0.25844E-02  6535   0.800E-02    0.960E-02
RMM:   3    -0.231641112821E+04   -0.22547E-03   -0.27121E-03  4055   0.291E-02    0.941E-02
RMM:   4    -0.231641102935E+04    0.98858E-04   -0.27354E-04  3064   0.822E-03    0.386E-02
RMM:   5    -0.231641100895E+04    0.20402E-04   -0.41249E-05  2986   0.455E-03    0.210E-02
RMM:   6    -0.231641101097E+04   -0.20128E-05   -0.34133E-05  2961   0.419E-03
 167 F= -.23376802E+04 E0= -.23376802E+04  d E =-.208183E-03  mag=     2.0000
       N       E                     dE             d eps       ncg     rms          rms(c)
DAV:   1    -0.231640083080E+04    0.10178E-01   -0.55563E-01  4496   0.649E-01    0.220E-01
RMM:   2    -0.231641142105E+04   -0.10590E-01   -0.10475E-01  6545   0.161E-01    0.269E-01
RMM:   3    -0.231641192520E+04   -0.50415E-03   -0.11131E-02  5863   0.570E-02    0.202E-01
RMM:   4    -0.231641148224E+04    0.44296E-03   -0.11286E-03  3513   0.142E-02    0.835E-02
RMM:   5    -0.231641146341E+04    0.18828E-04   -0.14069E-04  3056   0.653E-03    0.842E-02
RMM:   6    -0.231641138880E+04    0.74606E-04   -0.11658E-04  3120   0.689E-03    0.356E-02
RMM:   7    -0.231641138933E+04   -0.52305E-06   -0.80818E-05  3173   0.646E-03
 168 F= -.23376800E+04 E0= -.23376800E+04  d E =0.562769E-05  mag=     2.0000
       N       E                     dE             d eps       ncg     rms          rms(c)
DAV:   1    -0.231640524530E+04    0.61435E-02   -0.31404E-01  4496   0.488E-01    0.161E-01
RMM:   2    -0.231641115265E+04   -0.59073E-02   -0.58455E-02  6501   0.120E-01    0.191E-01
RMM:   3    -0.231641144528E+04   -0.29263E-03   -0.60978E-03  5283   0.432E-02    0.140E-01
RMM:   4    -0.231641121030E+04    0.23498E-03   -0.60509E-04  3305   0.109E-02    0.531E-02
RMM:   5    -0.231641120888E+04    0.14192E-05   -0.74262E-05  3006   0.545E-03
 169 F= -.23376803E+04 E0= -.23376803E+04  d E =-.257255E-03  mag=     2.0000
       N       E                     dE             d eps       ncg     rms          rms(c)
DAV:   1    -0.231641092088E+04    0.28942E-03   -0.86980E-03  4496   0.823E-02    0.325E-02
RMM:   2    -0.231641112669E+04   -0.20581E-03   -0.16659E-03  5450   0.205E-02    0.741E-02
RMM:   3    -0.231641109119E+04    0.35497E-04   -0.17723E-04  2921   0.814E-03    0.242E-02
RMM:   4    -0.231641108863E+04    0.25630E-05   -0.21829E-05  2935   0.294E-03
 170 F= -.23376802E+04 E0= -.23376802E+04  d E =-.212896E-03  mag=     2.0000
       N       E                     dE             d eps       ncg     rms          rms(c)
DAV:   1    -0.231641050135E+04    0.58984E-03   -0.45994E-02  4504   0.186E-01    0.709E-02
RMM:   2    -0.231641147257E+04   -0.97122E-03   -0.88416E-03  6417   0.466E-02    0.117E-01
RMM:   3    -0.231641140738E+04    0.65188E-04   -0.92762E-04  3386   0.170E-02    0.510E-02
RMM:   4    -0.231641137626E+04    0.31127E-04   -0.93334E-05  2959   0.549E-03    0.233E-02
RMM:   5    -0.231641137320E+04    0.30523E-05   -0.10218E-05  2776   0.217E-03
 171 F= -.23376803E+04 E0= -.23376803E+04  d E =-.101787E-03  mag=     2.0000
       N       E                     dE             d eps       ncg     rms          rms(c)
DAV:   1    -0.231640810841E+04    0.32678E-02   -0.19192E-01  4496   0.381E-01    0.125E-01
RMM:   2    -0.231641168659E+04   -0.35782E-02   -0.36330E-02  6529   0.945E-02    0.124E-01
RMM:   3    -0.231641199322E+04   -0.30663E-03   -0.38521E-03  4539   0.340E-02    0.118E-01
RMM:   4    -0.231641182895E+04    0.16427E-03   -0.38088E-04  3165   0.935E-03    0.414E-02
RMM:   5    -0.231641180867E+04    0.20285E-04   -0.59451E-05  3063   0.502E-03    0.322E-02
RMM:   6    -0.231641181400E+04   -0.53314E-05   -0.36411E-05  2904   0.428E-03
 172 F= -.23376804E+04 E0= -.23376804E+04  d E =-.167840E-03  mag=     2.0000
       N       E                     dE             d eps       ncg     rms          rms(c)
DAV:   1    -0.231641049028E+04    0.13184E-02   -0.87621E-02  4504   0.258E-01    0.860E-02
RMM:   2    -0.231641209863E+04   -0.16084E-02   -0.16302E-02  6488   0.632E-02    0.896E-02
RMM:   3    -0.231641222485E+04   -0.12621E-03   -0.17328E-03  3653   0.230E-02    0.833E-02
RMM:   4    -0.231641214911E+04    0.75732E-04   -0.17461E-04  2993   0.689E-03    0.331E-02
RMM:   5    -0.231641214639E+04    0.27231E-05   -0.26582E-05  2866   0.298E-03
 173 F= -.23376805E+04 E0= -.23376805E+04  d E =-.102732E-03  mag=     2.0000
       N       E                     dE             d eps       ncg     rms          rms(c)
DAV:   1    -0.231641185683E+04    0.29229E-03   -0.22077E-02  4512   0.130E-01    0.427E-02
RMM:   2    -0.231641228489E+04   -0.42807E-03   -0.40695E-03  6117   0.317E-02    0.656E-02
RMM:   3    -0.231641228363E+04    0.12612E-05   -0.43924E-04  3079   0.119E-02    0.406E-02
RMM:   4    -0.231641227300E+04    0.10631E-04   -0.49296E-05  2947   0.409E-03    0.250E-02
RMM:   5    -0.231641226910E+04    0.39031E-05   -0.86046E-06  2660   0.172E-03
 174 F= -.23376805E+04 E0= -.23376805E+04  d E =-.109843E-03  mag=     2.0000
       N       E                     dE             d eps       ncg     rms          rms(c)
DAV:   1    -0.231641196384E+04    0.30917E-03   -0.31137E-02  4504   0.169E-01    0.585E-02
RMM:   2    -0.231641250766E+04   -0.54382E-03   -0.50118E-03  6254   0.396E-02    0.852E-02
RMM:   3    -0.231641247984E+04    0.27816E-04   -0.52952E-04  3237   0.151E-02    0.494E-02
RMM:   4    -0.231641245939E+04    0.20447E-04   -0.62679E-05  2944   0.493E-03    0.311E-02
RMM:   5    -0.231641245264E+04    0.67577E-05   -0.15126E-05  2812   0.252E-03
 175 F= -.23376806E+04 E0= -.23376806E+04  d E =-.956915E-04  mag=     2.0000
       N       E                     dE             d eps       ncg     rms          rms(c)
DAV:   1    -0.231641243641E+04    0.22987E-04   -0.30150E-03  4576   0.529E-02    0.278E-02
RMM:   2    -0.231641254693E+04   -0.11052E-03   -0.54535E-04  4528   0.129E-02    0.754E-02
RMM:   3    -0.231641248228E+04    0.64646E-04   -0.76094E-05  2921   0.627E-03    0.193E-02
RMM:   4    -0.231641248018E+04    0.20991E-05   -0.14441E-05  2868   0.244E-03
 176 F= -.23376806E+04 E0= -.23376806E+04  d E =-.955660E-04  mag=     2.0000
       N       E                     dE             d eps       ncg     rms          rms(c)
DAV:   1    -0.231641239600E+04    0.86284E-04   -0.12478E-02  4512   0.109E-01    0.347E-02
RMM:   2    -0.231641256872E+04   -0.17272E-03   -0.17750E-03  6141   0.244E-02    0.281E-02
RMM:   3    -0.231641258622E+04   -0.17507E-04   -0.18691E-04  2922   0.953E-03    0.332E-02
RMM:   4    -0.231641257385E+04    0.12372E-04   -0.19609E-05  2911   0.327E-03    0.123E-02
RMM:   5    -0.231641257398E+04   -0.12835E-06   -0.69113E-06  2807   0.199E-03
 177 F= -.23376806E+04 E0= -.23376806E+04  d E =-.423873E-04  mag=     2.0000
       N       E                     dE             d eps       ncg     rms          rms(c)
DAV:   1    -0.231641257477E+04   -0.91919E-06   -0.63460E-04  4768   0.250E-02    0.122E-02
RMM:   2    -0.231641259518E+04   -0.20407E-04   -0.10472E-04  3227   0.620E-03    0.345E-02
RMM:   3    -0.231641258385E+04    0.11333E-04   -0.15250E-05  2625   0.376E-03    0.682E-03
RMM:   4    -0.231641258390E+04   -0.54511E-07   -0.24498E-06  1980   0.119E-03
 178 F= -.23376806E+04 E0= -.23376806E+04  d E =-.404777E-04  mag=     2.0000
       N       E                     dE             d eps       ncg     rms          rms(c)
DAV:   1    -0.231641254598E+04    0.37869E-04   -0.96560E-03  4512   0.974E-02    0.303E-02
RMM:   2    -0.231641268707E+04   -0.14109E-03   -0.13285E-03  6059   0.214E-02    0.411E-02
RMM:   3    -0.231641268419E+04    0.28819E-05   -0.13975E-04  2920   0.851E-03    0.266E-02
RMM:   4    -0.231641267721E+04    0.69788E-05   -0.15121E-05  2908   0.281E-03
 179 F= -.23376807E+04 E0= -.23376807E+04  d E =-.389829E-04  mag=     2.0000
       N       E                     dE             d eps       ncg     rms          rms(c)
DAV:   1    -0.231641268180E+04    0.23879E-05   -0.12379E-03  4368   0.351E-02    0.156E-02
RMM:   2    -0.231641271335E+04   -0.31552E-04   -0.17495E-04  3530   0.794E-03    0.433E-02
RMM:   3    -0.231641269718E+04    0.16172E-04   -0.23743E-05  2846   0.453E-03    0.816E-03
RMM:   4    -0.231641269647E+04    0.71351E-06   -0.30840E-06  2590   0.145E-03
 180 F= -.23376807E+04 E0= -.23376807E+04  d E =-.385722E-04  mag=     2.0000
       N       E                     dE             d eps       ncg     rms          rms(c)
DAV:   1    -0.231641267484E+04    0.22337E-04   -0.81157E-03  4512   0.934E-02    0.319E-02
RMM:   2    -0.231641281807E+04   -0.14323E-03   -0.10866E-03  6029   0.205E-02    0.640E-02
RMM:   3    -0.231641278015E+04    0.37922E-04   -0.11781E-04  2929   0.808E-03    0.203E-02
RMM:   4    -0.231641277684E+04    0.33065E-05   -0.15017E-05  2902   0.282E-03
 181 F= -.23376807E+04 E0= -.23376807E+04  d E =-.328958E-04  mag=     2.0000
       N       E                     dE             d eps       ncg     rms          rms(c)
DAV:   1    -0.231641278137E+04   -0.12183E-05   -0.87879E-04  4592   0.310E-02    0.137E-02
RMM:   2    -0.231641280292E+04   -0.21553E-04   -0.11987E-04  3364   0.715E-03    0.360E-02
RMM:   3    -0.231641279179E+04    0.11131E-04   -0.16285E-05  2733   0.407E-03    0.740E-03
RMM:   4    -0.231641279117E+04    0.61950E-06   -0.22308E-06  2397   0.135E-03
 182 F= -.23376807E+04 E0= -.23376807E+04  d E =-.314400E-04  mag=     2.0000
       N       E                     dE             d eps       ncg     rms          rms(c)
DAV:   1    -0.231641276821E+04    0.23575E-04   -0.78385E-03  4512   0.927E-02    0.265E-02
RMM:   2    -0.231641286857E+04   -0.10035E-03   -0.10361E-03  6089   0.202E-02    0.228E-02
RMM:   3    -0.231641287907E+04   -0.10503E-04   -0.11007E-04  2906   0.782E-03    0.276E-02
RMM:   4    -0.231641287143E+04    0.76362E-05   -0.11755E-05  2878   0.264E-03
 183 F= -.23376807E+04 E0= -.23376807E+04  d E =-.280307E-04  mag=     2.0000
       N       E                     dE             d eps       ncg     rms          rms(c)
DAV:   1    -0.231641287860E+04    0.47139E-06   -0.59447E-04  4576   0.258E-02    0.120E-02
RMM:   2    -0.231641289822E+04   -0.19626E-04   -0.90115E-05  3280   0.604E-03    0.352E-02
RMM:   3    -0.231641288569E+04    0.12537E-04   -0.13546E-05  2614   0.365E-03    0.741E-03
RMM:   4    -0.231641288548E+04    0.21065E-06   -0.26005E-06  1981   0.123E-03
 184 F= -.23376807E+04 E0= -.23376807E+04  d E =-.275384E-04  mag=     2.0000
       N       E                     dE             d eps       ncg     rms          rms(c)
DAV:   1    -0.231641284783E+04    0.37854E-04   -0.77232E-03  4512   0.924E-02    0.267E-02
RMM:   2    -0.231641294103E+04   -0.93197E-04   -0.95792E-04  6112   0.199E-02    0.232E-02
RMM:   3    -0.231641295211E+04   -0.11077E-04   -0.10142E-04  2905   0.771E-03    0.307E-02
RMM:   4    -0.231641294252E+04    0.95901E-05   -0.11415E-05  2852   0.269E-03
 185 F= -.23376808E+04 E0= -.23376808E+04  d E =-.281780E-04  mag=     2.0000
       N       E                     dE             d eps       ncg     rms          rms(c)
DAV:   1    -0.231641294309E+04    0.90153E-05   -0.73321E-04  4592   0.287E-02    0.138E-02
RMM:   2    -0.231641296648E+04   -0.23393E-04   -0.10675E-04  3388   0.656E-03    0.382E-02
RMM:   3    -0.231641295112E+04    0.15368E-04   -0.16174E-05  2677   0.389E-03    0.686E-03
RMM:   4    -0.231641295102E+04    0.91270E-07   -0.28948E-06  2197   0.131E-03
 186 F= -.23376808E+04 E0= -.23376808E+04  d E =-.276604E-04  mag=     2.0000
       N       E                     dE             d eps       ncg     rms          rms(c)
DAV:   1    -0.231641288531E+04    0.65801E-04   -0.72906E-03  4512   0.891E-02    0.253E-02
RMM:   2    -0.231641298362E+04   -0.98307E-04   -0.10016E-03  6096   0.198E-02    0.255E-02
RMM:   3    -0.231641299376E+04   -0.10140E-04   -0.10846E-04  2903   0.760E-03    0.294E-02
RMM:   4    -0.231641298544E+04    0.83202E-05   -0.11612E-05  2847   0.263E-03
 187 F= -.23376808E+04 E0= -.23376808E+04  d E =-.179097E-04  mag=     2.0000
       N       E                     dE             d eps       ncg     rms          rms(c)
DAV:   1    -0.231641298706E+04    0.66996E-05   -0.13235E-04  5064   0.123E-02    0.127E-02
RMM:   2    -0.231641300840E+04   -0.21335E-04   -0.41037E-05  2908   0.355E-03    0.430E-02
RMM:   3    -0.231641298750E+04    0.20900E-04   -0.13751E-05  2383   0.290E-03    0.430E-03
RMM:   4    -0.231641298741E+04    0.91532E-07   -0.19629E-06  1276   0.904E-04
 188 F= -.23376808E+04 E0= -.23376808E+04  d E =-.175928E-04  mag=     2.0000
       N       E                     dE             d eps       ncg     rms          rms(c)
DAV:   1    -0.231641293779E+04    0.49708E-04   -0.68199E-03  4512   0.864E-02    0.265E-02
RMM:   2    -0.231641302506E+04   -0.87276E-04   -0.90155E-04  6047   0.192E-02    0.240E-02
RMM:   3    -0.231641303631E+04   -0.11241E-04   -0.98948E-05  2900   0.745E-03    0.322E-02
RMM:   4    -0.231641302628E+04    0.10027E-04   -0.10999E-05  2823   0.266E-03    0.880E-03
RMM:   5    -0.231641302699E+04   -0.71342E-06   -0.37905E-06  2462   0.149E-03
 189 F= -.23376808E+04 E0= -.23376808E+04  d E =-.199902E-04  mag=     2.0000
       N       E                     dE             d eps       ncg     rms          rms(c)
DAV:   1    -0.231641302372E+04    0.25621E-05   -0.42502E-05  4616   0.708E-03    0.412E-03
RMM:   2    -0.231641302523E+04   -0.15108E-05   -0.69715E-06  2376   0.235E-03
 190 F= -.23376808E+04 E0= -.23376808E+04  d E =-.195751E-04  mag=     2.0000
       N       E                     dE             d eps       ncg     rms          rms(c)
DAV:   1    -0.231641302296E+04    0.76031E-06   -0.37967E-03  4480   0.637E-02    0.192E-02
RMM:   2    -0.231641306918E+04   -0.46222E-04   -0.46916E-04  5224   0.145E-02    0.186E-02
RMM:   3    -0.231641307334E+04   -0.41662E-05   -0.49258E-05  2832   0.620E-03
 191 F= -.23376808E+04 E0= -.23376808E+04  d E =-.180301E-04  mag=     2.0000
       N       E                     dE             d eps       ncg     rms          rms(c)
DAV:   1    -0.231641306659E+04    0.25856E-05   -0.24900E-05  3968   0.604E-03    0.732E-03
RMM:   2    -0.231641306891E+04   -0.23156E-05   -0.76176E-06  2320   0.268E-03
 192 F= -.23376808E+04 E0= -.23376808E+04  d E =-.154705E-04  mag=     2.0000
       N       E                     dE             d eps       ncg     rms          rms(c)
DAV:   1    -0.231641306393E+04    0.26674E-05   -0.37540E-03  4472   0.634E-02    0.191E-02
RMM:   2    -0.231641311044E+04   -0.46512E-04   -0.46617E-04  5001   0.143E-02    0.202E-02
RMM:   3    -0.231641311371E+04   -0.32723E-05   -0.50567E-05  2845   0.638E-03
 193 F= -.23376808E+04 E0= -.23376808E+04  d E =-.150289E-04  mag=     2.0000
       N       E                     dE             d eps       ncg     rms          rms(c)
DAV:   1    -0.231641311066E+04   -0.22649E-06   -0.12099E-05  3984   0.450E-03    0.668E-03
RMM:   2    -0.231641311207E+04   -0.14085E-05   -0.45782E-06  2314   0.237E-03
 194 F= -.23376808E+04 E0= -.23376808E+04  d E =-.121928E-04  mag=     2.0000
       N       E                     dE             d eps       ncg     rms          rms(c)
DAV:   1    -0.231641310162E+04    0.90492E-05   -0.32033E-03  4464   0.580E-02    0.180E-02
RMM:   2    -0.231641315277E+04   -0.51156E-04   -0.47876E-04  4678   0.136E-02    0.264E-02
RMM:   3    -0.231641315134E+04    0.14360E-05   -0.53664E-05  2739   0.627E-03
 195 F= -.23376808E+04 E0= -.23376808E+04  d E =-.132126E-04  mag=     2.0000
       N       E                     dE             d eps       ncg     rms          rms(c)
DAV:   1    -0.231641315283E+04   -0.58353E-07   -0.23599E-04  4576   0.159E-02    0.818E-03
RMM:   2    -0.231641315818E+04   -0.53502E-05   -0.41793E-05  2777   0.425E-03
 196 F= -.23376808E+04 E0= -.23376808E+04  d E =-.129081E-04  mag=     2.0000
       N       E                     dE             d eps       ncg     rms          rms(c)
DAV:   1    -0.231641315682E+04   -0.39900E-05   -0.20414E-03  4432   0.466E-02    0.155E-02
RMM:   2    -0.231641319624E+04   -0.39417E-04   -0.30954E-04  4055   0.116E-02    0.342E-02
RMM:   3    -0.231641318721E+04    0.90283E-05   -0.33452E-05  2657   0.567E-03
 197 F= -.23376809E+04 E0= -.23376809E+04  d E =-.110915E-04  mag=     2.0000
       N       E                     dE             d eps       ncg     rms          rms(c)
DAV:   1    -0.231641319033E+04    0.59109E-05   -0.54236E-04  4256   0.240E-02    0.953E-03
RMM:   2    -0.231641320156E+04   -0.11234E-04   -0.81982E-05  3096   0.607E-03    0.187E-02
RMM:   3    -0.231641319814E+04    0.34189E-05   -0.11409E-05  2434   0.384E-03
 198 F= -.23376809E+04 E0= -.23376809E+04  d E =-.127006E-04  mag=     2.0000
       N       E                     dE             d eps       ncg     rms          rms(c)
DAV:   1    -0.231641320775E+04   -0.61902E-05   -0.10264E-03  4336   0.326E-02    0.110E-02
RMM:   2    -0.231641322442E+04   -0.16672E-04   -0.13427E-04  3410   0.757E-03    0.227E-02
RMM:   3    -0.231641322104E+04    0.33782E-05   -0.15910E-05  2440   0.449E-03
 199 F= -.23376809E+04 E0= -.23376809E+04  d E =-.106033E-04  mag=     2.0000
       N       E                     dE             d eps       ncg     rms          rms(c)
DAV:   1    -0.231641322485E+04   -0.42585E-06   -0.15318E-04  4848   0.127E-02    0.607E-03
RMM:   2    -0.231641322823E+04   -0.33808E-05   -0.22033E-05  2517   0.338E-03
 200 F= -.23376809E+04 E0= -.23376809E+04  d E =-.129972E-04  mag=     2.0000
       N       E                     dE             d eps       ncg     rms          rms(c)
DAV:   1    -0.231641323227E+04   -0.74276E-05   -0.85678E-04  4384   0.306E-02    0.100E-02
RMM:   2    -0.231641324351E+04   -0.11233E-04   -0.11587E-04  3302   0.767E-03    0.829E-03
RMM:   3    -0.231641324491E+04   -0.14053E-05   -0.15179E-05  2330   0.463E-03
 201 F= -.23376809E+04 E0= -.23376809E+04  d E =-.629923E-05  mag=     2.0000
