       N       E                     dE             d eps       ncg     rms          rms(c)
DAV:   1     0.127135482321E+05    0.12714E+05   -0.83257E+05  4464   0.144E+03
DAV:   2    -0.107419837333E+04   -0.13788E+05   -0.13214E+05  5328   0.330E+02
DAV:   3    -0.247434635082E+04   -0.14001E+04   -0.13871E+04  5360   0.110E+02
DAV:   4    -0.252023714790E+04   -0.45891E+02   -0.45669E+02  6680   0.298E+01
DAV:   5    -0.252112779078E+04   -0.89064E+00   -0.88921E+00  5552   0.325E+00    0.171E+02
RMM:   6    -0.148174975936E+04    0.10394E+04   -0.19691E+03  4404   0.391E+01    0.775E+01
RMM:   7    -0.167367591376E+04   -0.19193E+03   -0.36863E+02  5018   0.145E+01    0.615E+01
RMM:   8    -0.168601532911E+04   -0.12339E+02   -0.82537E+01  5161   0.876E+00    0.428E+01
RMM:   9    -0.175352768736E+04   -0.67512E+02   -0.65042E+01  5216   0.593E+00    0.390E+01
RMM:  10    -0.189332243950E+04   -0.13979E+03   -0.65470E+01  5103   0.764E+00    0.405E+01
RMM:  11    -0.195070220188E+04   -0.57380E+02   -0.35826E+01  5171   0.531E+00    0.205E+01
RMM:  12    -0.204521445950E+04   -0.94512E+02   -0.36269E+01  4842   0.501E+00    0.152E+01
RMM:  13    -0.214129519381E+04   -0.96081E+02   -0.50934E+01  4632   0.531E+00    0.123E+01
RMM:  14    -0.225081074333E+04   -0.10952E+03   -0.94857E+01  4457   0.680E+00    0.115E+01
RMM:  15    -0.227500147769E+04   -0.24191E+02   -0.19128E+01  4463   0.371E+00    0.767E+00
RMM:  16    -0.230021615813E+04   -0.25215E+02   -0.22667E+01  4395   0.327E+00    0.594E+00
RMM:  17    -0.230320157156E+04   -0.29854E+01   -0.28247E+00  4419   0.182E+00    0.745E+00
RMM:  18    -0.230308818657E+04    0.11338E+00   -0.80078E-01  5683   0.442E-01    0.794E+00
RMM:  19    -0.230485011170E+04   -0.17619E+01   -0.10801E+00  4614   0.484E-01    0.609E+00
RMM:  20    -0.230785329852E+04   -0.30032E+01   -0.16058E+00  4498   0.689E-01    0.278E+00
RMM:  21    -0.231017170632E+04   -0.23184E+01   -0.20927E+00  4477   0.865E-01    0.220E+00
RMM:  22    -0.231050034125E+04   -0.32863E+00   -0.27962E-01  4532   0.552E-01    0.142E+00
RMM:  23    -0.231071436460E+04   -0.21402E+00   -0.20558E-01  4512   0.245E-01    0.547E-01
RMM:  24    -0.231082977435E+04   -0.11541E+00   -0.67683E-02  4535   0.172E-01    0.402E-01
RMM:  25    -0.231087743487E+04   -0.47661E-01   -0.21552E-02  4683   0.962E-02    0.274E-01
RMM:  26    -0.231091029579E+04   -0.32861E-01   -0.10459E-02  4557   0.741E-02    0.172E-01
RMM:  27    -0.231093352478E+04   -0.23229E-01   -0.51160E-03  4556   0.528E-02    0.124E-01
RMM:  28    -0.231094929415E+04   -0.15769E-01   -0.35913E-03  4452   0.437E-02    0.123E-01
RMM:  29    -0.231095580804E+04   -0.65139E-02   -0.17430E-03  4518   0.315E-02    0.577E-02
RMM:  30    -0.231095879526E+04   -0.29872E-02   -0.95142E-04  4250   0.204E-02    0.301E-02
RMM:  31    -0.231095961732E+04   -0.82206E-03   -0.27439E-04  4028   0.135E-02    0.237E-02
RMM:  32    -0.231095985976E+04   -0.24244E-03   -0.87645E-05  3675   0.693E-03    0.752E-03
RMM:  33    -0.231095995327E+04   -0.93509E-04   -0.20115E-05  3027   0.497E-03    0.662E-03
RMM:  34    -0.231096000854E+04   -0.55275E-04   -0.11079E-05  2883   0.319E-03    0.292E-03
RMM:  35    -0.231096004013E+04   -0.31586E-04   -0.69577E-06  2787   0.267E-03    0.181E-03
RMM:  36    -0.231096004771E+04   -0.75860E-05   -0.31945E-06  2483   0.223E-03
   1 F= -.23314214E+04 E0= -.23314214E+04  d E =-.233142E+04  mag=     0.9999
       N       E                     dE             d eps       ncg     rms          rms(c)
DAV:   1    -0.231122245535E+04   -0.26242E+00   -0.13540E+02  4688   0.776E+00    0.270E+00
RMM:   2    -0.231194381285E+04   -0.72136E+00   -0.76064E+00  6157   0.178E+00    0.159E+00
RMM:   3    -0.231197712639E+04   -0.33314E-01   -0.44274E-01  5910   0.488E-01    0.239E+00
RMM:   4    -0.231191987590E+04    0.57250E-01   -0.67390E-02  6138   0.147E-01    0.846E-01
RMM:   5    -0.231191083262E+04    0.90433E-02   -0.32017E-02  4505   0.102E-01    0.327E-01
RMM:   6    -0.231191097215E+04   -0.13954E-03   -0.45989E-03  4656   0.683E-02    0.145E-01
RMM:   7    -0.231191084157E+04    0.13058E-03   -0.10670E-03  5436   0.218E-02    0.957E-02
RMM:   8    -0.231191066063E+04    0.18095E-03   -0.34425E-04  4496   0.122E-02    0.450E-02
RMM:   9    -0.231191061958E+04    0.41045E-04   -0.10719E-04  3924   0.801E-03    0.198E-02
RMM:  10    -0.231191060242E+04    0.17165E-04   -0.38586E-05  3225   0.606E-03    0.113E-02
RMM:  11    -0.231191059829E+04    0.41282E-05   -0.19744E-05  2919   0.473E-03
   2 F= -.23323746E+04 E0= -.23323746E+04  d E =-.953269E+00  mag=     1.0000
       N       E                     dE             d eps       ncg     rms          rms(c)
DAV:   1    -0.231191240116E+04   -0.17987E-02   -0.24967E+01  4608   0.365E+00    0.103E+00
RMM:   2    -0.231204287816E+04   -0.13048E+00   -0.12687E+00  6174   0.778E-01    0.129E+00
RMM:   3    -0.231203303495E+04    0.98432E-02   -0.76217E-02  6068   0.190E-01    0.924E-01
RMM:   4    -0.231202397739E+04    0.90576E-02   -0.10492E-02  5551   0.661E-02    0.370E-01
RMM:   5    -0.231202323777E+04    0.73961E-03   -0.49632E-03  5730   0.406E-02    0.350E-01
RMM:   6    -0.231202168294E+04    0.15548E-02   -0.43405E-03  5246   0.423E-02    0.531E-02
RMM:   7    -0.231202165878E+04    0.24158E-04   -0.27676E-04  4361   0.176E-02    0.315E-02
RMM:   8    -0.231202163180E+04    0.26979E-04   -0.91641E-05  3610   0.645E-03    0.136E-02
RMM:   9    -0.231202162777E+04    0.40325E-05   -0.12684E-05  2870   0.446E-03
   3 F= -.23324866E+04 E0= -.23324866E+04  d E =-.106525E+01  mag=     1.0000
       N       E                     dE             d eps       ncg     rms          rms(c)
DAV:   1    -0.231169955189E+04    0.32208E+00   -0.54984E+01  4480   0.643E+00    0.209E+00
RMM:   2    -0.231236657645E+04   -0.66702E+00   -0.69454E+00  6034   0.161E+00    0.220E+00
RMM:   3    -0.231233326749E+04    0.33309E-01   -0.55644E-01  5775   0.560E-01    0.168E+00
RMM:   4    -0.231230353392E+04    0.29734E-01   -0.64510E-02  6030   0.139E-01    0.818E-01
RMM:   5    -0.231229651607E+04    0.70179E-02   -0.16680E-02  5940   0.805E-02    0.518E-01
RMM:   6    -0.231229164428E+04    0.48718E-02   -0.14067E-02  5019   0.681E-02    0.129E-01
RMM:   7    -0.231229151854E+04    0.12575E-03   -0.11579E-03  4754   0.380E-02    0.630E-02
RMM:   8    -0.231229148376E+04    0.34783E-04   -0.41731E-04  4467   0.124E-02    0.338E-02
RMM:   9    -0.231229148455E+04   -0.79436E-06   -0.85655E-05  3726   0.945E-03
   4 F= -.23327593E+04 E0= -.23327593E+04  d E =-.272730E+00  mag=     1.0000
       N       E                     dE             d eps       ncg     rms          rms(c)
DAV:   1    -0.231227590956E+04    0.15574E-01   -0.21781E+00  4888   0.129E+00    0.410E-01
RMM:   2    -0.231230106527E+04   -0.25156E-01   -0.26263E-01  5846   0.313E-01    0.444E-01
RMM:   3    -0.231230045717E+04    0.60809E-03   -0.27945E-02  5413   0.150E-01    0.310E-01
RMM:   4    -0.231229938774E+04    0.10694E-02   -0.27120E-03  5296   0.280E-02    0.144E-01
RMM:   5    -0.231229920560E+04    0.18213E-03   -0.72550E-04  5098   0.174E-02    0.108E-01
RMM:   6    -0.231229903183E+04    0.17377E-03   -0.59945E-04  4782   0.143E-02    0.247E-02
RMM:   7    -0.231229903105E+04    0.77885E-06   -0.48693E-05  3357   0.826E-03
   5 F= -.23327673E+04 E0= -.23327673E+04  d E =-.280711E+00  mag=     1.0000
       N       E                     dE             d eps       ncg     rms          rms(c)
DAV:   1    -0.231225816186E+04    0.40870E-01   -0.29638E+01  4528   0.457E+00    0.131E+00
RMM:   2    -0.231239364442E+04   -0.13548E+00   -0.14686E+00  5869   0.874E-01    0.643E-01
RMM:   3    -0.231239278022E+04    0.86420E-03   -0.11397E-01  5400   0.300E-01    0.760E-01
RMM:   4    -0.231238654828E+04    0.62319E-02   -0.13584E-02  5887   0.716E-02    0.378E-01
RMM:   5    -0.231238408991E+04    0.24584E-02   -0.88901E-03  4743   0.625E-02    0.968E-02
RMM:   6    -0.231238399068E+04    0.99227E-04   -0.78382E-04  4694   0.360E-02    0.532E-02
RMM:   7    -0.231238397252E+04    0.18163E-04   -0.23635E-04  4479   0.952E-03    0.413E-02
RMM:   8    -0.231238394445E+04    0.28072E-04   -0.73140E-05  3704   0.752E-03    0.207E-02
RMM:   9    -0.231238393586E+04    0.85848E-05   -0.31856E-05  3189   0.520E-03
   6 F= -.23328540E+04 E0= -.23328540E+04  d E =-.867011E-01  mag=     1.0000
       N       E                     dE             d eps       ncg     rms          rms(c)
DAV:   1    -0.231238147441E+04    0.24700E-02   -0.10694E+00  4952   0.876E-01    0.246E-01
RMM:   2    -0.231238622519E+04   -0.47508E-02   -0.52012E-02  5945   0.168E-01    0.120E-01
RMM:   3    -0.231238616580E+04    0.59393E-04   -0.34955E-03  5340   0.531E-02    0.133E-01
RMM:   4    -0.231238597920E+04    0.18660E-03   -0.45156E-04  4308   0.139E-02    0.748E-02
RMM:   5    -0.231238588787E+04    0.91328E-04   -0.30257E-04  4297   0.126E-02    0.251E-02
RMM:   6    -0.231238588579E+04    0.20822E-05   -0.47386E-05  3165   0.834E-03
   7 F= -.23328563E+04 E0= -.23328563E+04  d E =-.889587E-01  mag=     1.0000
       N       E                     dE             d eps       ncg     rms          rms(c)
DAV:   1    -0.231230110721E+04    0.84781E-01   -0.28377E+01  4416   0.436E+00    0.106E+00
RMM:   2    -0.231250091542E+04   -0.19981E+00   -0.17251E+00  5911   0.805E-01    0.200E+00
RMM:   3    -0.231245937011E+04    0.41545E-01   -0.14710E-01  5450   0.273E-01    0.611E-01
RMM:   4    -0.231245528127E+04    0.40888E-02   -0.15002E-02  5317   0.600E-02    0.388E-01
RMM:   5    -0.231245408809E+04    0.11932E-02   -0.42716E-03  5660   0.447E-02    0.314E-01
RMM:   6    -0.231245273634E+04    0.13518E-02   -0.49704E-03  4728   0.410E-02    0.666E-02
RMM:   7    -0.231245269648E+04    0.39856E-04   -0.29743E-04  4150   0.245E-02    0.321E-02
RMM:   8    -0.231245268447E+04    0.12015E-04   -0.84609E-05  4062   0.623E-03    0.151E-02
RMM:   9    -0.231245268108E+04    0.33836E-05   -0.13581E-05  2907   0.410E-03
   8 F= -.23329264E+04 E0= -.23329264E+04  d E =-.701296E-01  mag=     1.0000
       N       E                     dE             d eps       ncg     rms          rms(c)
DAV:   1    -0.231243326817E+04    0.19416E-01   -0.47342E+00  4480   0.178E+00    0.438E-01
RMM:   2    -0.231246680429E+04   -0.33536E-01   -0.28006E-01  5957   0.325E-01    0.863E-01
RMM:   3    -0.231245842832E+04    0.83760E-02   -0.21599E-02  5461   0.106E-01    0.232E-01
RMM:   4    -0.231245787939E+04    0.54893E-03   -0.25219E-03  4824   0.237E-02    0.152E-01
RMM:   5    -0.231245770218E+04    0.17721E-03   -0.78441E-04  5077   0.189E-02    0.124E-01
RMM:   6    -0.231245748994E+04    0.21224E-03   -0.74101E-04  4602   0.166E-02    0.284E-02
RMM:   7    -0.231245748179E+04    0.81495E-05   -0.44951E-05  3187   0.997E-03
   9 F= -.23329325E+04 E0= -.23329325E+04  d E =-.762515E-01  mag=     1.0000
       N       E                     dE             d eps       ncg     rms          rms(c)
DAV:   1    -0.231235612923E+04    0.10136E+00   -0.28450E+01  4416   0.459E+00    0.106E+00
RMM:   2    -0.231250731131E+04   -0.15118E+00   -0.15967E+00  5877   0.874E-01    0.683E-01
RMM:   3    -0.231251401350E+04   -0.67022E-02   -0.12136E-01  5612   0.249E-01    0.829E-01
RMM:   4    -0.231250666024E+04    0.73533E-02   -0.14778E-02  5937   0.656E-02    0.405E-01
RMM:   5    -0.231250531204E+04    0.13482E-02   -0.48867E-03  4881   0.374E-02    0.300E-01
RMM:   6    -0.231250408940E+04    0.12226E-02   -0.41536E-03  5069   0.475E-02    0.867E-02
RMM:   7    -0.231250402583E+04    0.63569E-04   -0.45856E-04  4568   0.209E-02    0.410E-02
RMM:   8    -0.231250402988E+04   -0.40547E-05   -0.10516E-04  3751   0.707E-03    0.198E-02
RMM:   9    -0.231250405392E+04   -0.24041E-04   -0.24947E-05  2956   0.495E-03    0.936E-03
RMM:  10    -0.231250406708E+04   -0.13161E-04   -0.16315E-05  2877   0.407E-03    0.485E-03
RMM:  11    -0.231250407343E+04   -0.63524E-05   -0.66249E-06  2819   0.355E-03
  10 F= -.23329814E+04 E0= -.23329814E+04  d E =-.488869E-01  mag=     1.0000
       N       E                     dE             d eps       ncg     rms          rms(c)
DAV:   1    -0.231249833876E+04    0.57283E-02   -0.13527E+00  4544   0.989E-01    0.226E-01
RMM:   2    -0.231250531177E+04   -0.69730E-02   -0.73328E-02  5915   0.186E-01    0.150E-01
RMM:   3    -0.231250553493E+04   -0.22316E-03   -0.47867E-03  5425   0.524E-02    0.164E-01
RMM:   4    -0.231250524303E+04    0.29191E-03   -0.62219E-04  4291   0.141E-02    0.899E-02
RMM:   5    -0.231250517481E+04    0.68219E-04   -0.19274E-04  3887   0.925E-03    0.661E-02
RMM:   6    -0.231250511690E+04    0.57908E-04   -0.20202E-04  4122   0.106E-02    0.148E-02
RMM:   7    -0.231250511547E+04    0.14279E-05   -0.16522E-05  2924   0.593E-03
  11 F= -.23329829E+04 E0= -.23329829E+04  d E =-.503881E-01  mag=     1.0000
       N       E                     dE             d eps       ncg     rms          rms(c)
DAV:   1    -0.231248529183E+04    0.19825E-01   -0.14308E+01  4416   0.336E+00    0.826E-01
RMM:   2    -0.231253557521E+04   -0.50283E-01   -0.54050E-01  5700   0.563E-01    0.559E-01
RMM:   3    -0.231253720197E+04   -0.16268E-02   -0.36370E-02  5315   0.166E-01    0.746E-01
RMM:   4    -0.231253017919E+04    0.70228E-02   -0.61890E-03  5569   0.517E-02    0.247E-01
RMM:   5    -0.231252928756E+04    0.89163E-03   -0.39165E-03  4951   0.406E-02    0.174E-01
RMM:   6    -0.231252882839E+04    0.45917E-03   -0.14227E-03  5125   0.306E-02    0.543E-02
RMM:   7    -0.231252877487E+04    0.53523E-04   -0.18280E-04  4066   0.107E-02    0.261E-02
RMM:   8    -0.231252875870E+04    0.16166E-04   -0.37421E-05  3302   0.600E-03    0.150E-02
RMM:   9    -0.231252875080E+04    0.79088E-05   -0.23515E-05  3012   0.499E-03
  12 F= -.23330070E+04 E0= -.23330070E+04  d E =-.241191E-01  mag=     1.0000
       N       E                     dE             d eps       ncg     rms          rms(c)
DAV:   1    -0.231252871517E+04    0.43535E-04   -0.15883E-02  5384   0.113E-01    0.265E-02
RMM:   2    -0.231252877178E+04   -0.56613E-04   -0.60632E-04  5410   0.205E-02    0.199E-02
RMM:   3    -0.231252877277E+04   -0.98933E-06   -0.39119E-05  3009   0.706E-03
  13 F= -.23330071E+04 E0= -.23330071E+04  d E =-.241561E-01  mag=     1.0000
       N       E                     dE             d eps       ncg     rms          rms(c)
DAV:   1    -0.231251414633E+04    0.14625E-01   -0.91248E+00  4416   0.280E+00    0.611E-01
RMM:   2    -0.231255687767E+04   -0.42731E-01   -0.42865E-01  5694   0.487E-01    0.650E-01
RMM:   3    -0.231255441883E+04    0.24588E-02   -0.30140E-02  5344   0.162E-01    0.530E-01
RMM:   4    -0.231255092342E+04    0.34954E-02   -0.35664E-03  5229   0.393E-02    0.194E-01
RMM:   5    -0.231255030665E+04    0.61677E-03   -0.24654E-03  4694   0.354E-02    0.515E-02
RMM:   6    -0.231255029771E+04    0.89387E-05   -0.28232E-04  4355   0.229E-02    0.364E-02
RMM:   7    -0.231255029050E+04    0.72068E-05   -0.77626E-05  3629   0.648E-03
  14 F= -.23330289E+04 E0= -.23330289E+04  d E =-.218136E-01  mag=     1.0000
       N       E                     dE             d eps       ncg     rms          rms(c)
DAV:   1    -0.231253633646E+04    0.13961E-01   -0.44762E+00  4480   0.197E+00    0.430E-01
RMM:   2    -0.231255709216E+04   -0.20756E-01   -0.20699E-01  5701   0.345E-01    0.467E-01
RMM:   3    -0.231255594038E+04    0.11518E-02   -0.15233E-02  5375   0.115E-01    0.375E-01
RMM:   4    -0.231255419657E+04    0.17438E-02   -0.17240E-03  5189   0.278E-02    0.134E-01
RMM:   5    -0.231255390768E+04    0.28889E-03   -0.11890E-03  4727   0.249E-02    0.344E-02
RMM:   6    -0.231255389674E+04    0.10938E-04   -0.11963E-04  4013   0.152E-02    0.181E-02
RMM:   7    -0.231255389757E+04   -0.82699E-06   -0.30736E-05  3158   0.444E-03
  15 F= -.23330327E+04 E0= -.23330327E+04  d E =-.256064E-01  mag=     1.0000
       N       E                     dE             d eps       ncg     rms          rms(c)
DAV:   1    -0.231255158576E+04    0.23110E-02   -0.56632E+00  4432   0.225E+00    0.499E-01
RMM:   2    -0.231257352236E+04   -0.21937E-01   -0.22163E-01  5664   0.357E-01    0.464E-01
RMM:   3    -0.231257290563E+04    0.61674E-03   -0.13877E-02  5342   0.110E-01    0.443E-01
RMM:   4    -0.231257050434E+04    0.24013E-02   -0.21973E-03  5515   0.331E-02    0.161E-01
RMM:   5    -0.231257032541E+04    0.17894E-03   -0.11494E-03  5273   0.228E-02    0.132E-01
RMM:   6    -0.231257008594E+04    0.23946E-03   -0.74544E-04  4995   0.196E-02    0.268E-02
RMM:   7    -0.231257007940E+04    0.65401E-05   -0.60648E-05  3323   0.104E-02
  16 F= -.23330488E+04 E0= -.23330488E+04  d E =-.160815E-01  mag=     1.0000
       N       E                     dE             d eps       ncg     rms          rms(c)
DAV:   1    -0.231253828616E+04    0.31800E-01   -0.11580E+01  4416   0.320E+00    0.718E-01
RMM:   2    -0.231258399411E+04   -0.45708E-01   -0.46089E-01  5648   0.512E-01    0.681E-01
RMM:   3    -0.231258214337E+04    0.18507E-02   -0.27954E-02  5347   0.150E-01    0.633E-01
RMM:   4    -0.231257720383E+04    0.49395E-02   -0.44140E-03  5534   0.469E-02    0.228E-01
RMM:   5    -0.231257684741E+04    0.35642E-03   -0.24041E-03  5385   0.325E-02    0.193E-01
RMM:   6    -0.231257631764E+04    0.52978E-03   -0.15420E-03  5116   0.279E-02    0.380E-02
RMM:   7    -0.231257630332E+04    0.14313E-04   -0.13167E-04  3893   0.138E-02    0.214E-02
RMM:   8    -0.231257630152E+04    0.18032E-05   -0.27343E-05  3014   0.462E-03
  17 F= -.23330548E+04 E0= -.23330548E+04  d E =-.221411E-01  mag=     1.0000
       N       E                     dE             d eps       ncg     rms          rms(c)
DAV:   1    -0.231256606127E+04    0.10242E-01   -0.72356E+00  4416   0.253E+00    0.592E-01
RMM:   2    -0.231259411389E+04   -0.28053E-01   -0.28222E-01  5612   0.404E-01    0.570E-01
RMM:   3    -0.231259225168E+04    0.18622E-02   -0.15756E-02  5275   0.116E-01    0.521E-01
RMM:   4    -0.231258891828E+04    0.33334E-02   -0.29575E-03  5416   0.385E-02    0.181E-01
RMM:   5    -0.231258868351E+04    0.23476E-03   -0.15519E-03  5428   0.262E-02    0.157E-01
RMM:   6    -0.231258832565E+04    0.35786E-03   -0.10288E-03  5027   0.227E-02    0.294E-02
RMM:   7    -0.231258831552E+04    0.10127E-04   -0.88388E-05  3681   0.119E-02    0.173E-02
RMM:   8    -0.231258831504E+04    0.48091E-06   -0.18316E-05  2929   0.400E-03
  18 F= -.23330665E+04 E0= -.23330665E+04  d E =-.116950E-01  mag=     1.0000
       N       E                     dE             d eps       ncg     rms          rms(c)
DAV:   1    -0.231258664316E+04    0.16724E-02   -0.85468E-01  4672   0.869E-01    0.203E-01
RMM:   2    -0.231258991191E+04   -0.32687E-02   -0.33110E-02  5621   0.139E-01    0.191E-01
RMM:   3    -0.231258971674E+04    0.19517E-03   -0.18770E-03  5049   0.410E-02    0.177E-01
RMM:   4    -0.231258933078E+04    0.38596E-03   -0.36239E-04  4438   0.134E-02    0.630E-02
RMM:   5    -0.231258930100E+04    0.29774E-04   -0.18362E-04  4151   0.959E-03    0.539E-02
RMM:   6    -0.231258925859E+04    0.42417E-04   -0.13199E-04  4080   0.909E-03    0.104E-02
RMM:   7    -0.231258925773E+04    0.85105E-06   -0.13161E-05  2892   0.558E-03
  19 F= -.23330674E+04 E0= -.23330674E+04  d E =-.125331E-01  mag=     1.0000
       N       E                     dE             d eps       ncg     rms          rms(c)
DAV:   1    -0.231258690286E+04    0.23557E-02   -0.24024E+00  4448   0.153E+00    0.380E-01
RMM:   2    -0.231260352743E+04   -0.16625E-01   -0.16377E-01  5806   0.293E-01    0.463E-01
RMM:   3    -0.231260140032E+04    0.21271E-02   -0.11412E-02  5470   0.877E-02    0.298E-01
RMM:   4    -0.231260024636E+04    0.11540E-02   -0.12061E-03  4901   0.226E-02    0.105E-01
RMM:   5    -0.231260005100E+04    0.19536E-03   -0.74739E-04  5002   0.203E-02    0.287E-02
RMM:   6    -0.231260004068E+04    0.10319E-04   -0.79453E-05  3842   0.113E-02    0.189E-02
RMM:   7    -0.231260003667E+04    0.40125E-05   -0.22414E-05  2977   0.417E-03
  20 F= -.23330783E+04 E0= -.23330783E+04  d E =-.108965E-01  mag=     1.0000
       N       E                     dE             d eps       ncg     rms          rms(c)
DAV:   1    -0.231259170160E+04    0.83391E-02   -0.19954E+00  4448   0.139E+00    0.346E-01
RMM:   2    -0.231260526213E+04   -0.13561E-01   -0.13295E-01  5774   0.267E-01    0.426E-01
RMM:   3    -0.231260356992E+04    0.16922E-02   -0.10309E-02  5439   0.881E-02    0.269E-01
RMM:   4    -0.231260263163E+04    0.93829E-03   -0.10621E-03  4863   0.208E-02    0.954E-02
RMM:   5    -0.231260246611E+04    0.16553E-03   -0.62475E-04  5003   0.186E-02    0.283E-02
RMM:   6    -0.231260245571E+04    0.10398E-04   -0.79483E-05  3683   0.103E-02    0.215E-02
RMM:   7    -0.231260244845E+04    0.72548E-05   -0.21680E-05  2944   0.425E-03
  21 F= -.23330808E+04 E0= -.23330808E+04  d E =-.134171E-01  mag=     1.0000
       N       E                     dE             d eps       ncg     rms          rms(c)
DAV:   1    -0.231260631088E+04   -0.38552E-02   -0.14295E+00  4448   0.118E+00    0.258E-01
RMM:   2    -0.231261084355E+04   -0.45327E-02   -0.49792E-02  5623   0.190E-01    0.149E-01
RMM:   3    -0.231261069441E+04    0.14914E-03   -0.22471E-03  5246   0.562E-02    0.195E-01
RMM:   4    -0.231261029162E+04    0.40279E-03   -0.47472E-04  4829   0.158E-02    0.856E-02
RMM:   5    -0.231261021128E+04    0.80342E-04   -0.27775E-04  4405   0.130E-02    0.506E-02
RMM:   6    -0.231261018152E+04    0.29755E-04   -0.11987E-04  3696   0.972E-03    0.171E-02
RMM:   7    -0.231261017788E+04    0.36446E-05   -0.13219E-05  2870   0.464E-03
  22 F= -.23330886E+04 E0= -.23330886E+04  d E =-.784751E-02  mag=     1.0000
       N       E                     dE             d eps       ncg     rms          rms(c)
DAV:   1    -0.231258563315E+04    0.24548E-01   -0.12191E+01  4416   0.345E+00    0.752E-01
RMM:   2    -0.231262443201E+04   -0.38799E-01   -0.42670E-01  5602   0.559E-01    0.439E-01
RMM:   3    -0.231262332899E+04    0.11030E-02   -0.19299E-02  5354   0.153E-01    0.584E-01
RMM:   4    -0.231261969558E+04    0.36334E-02   -0.40384E-03  5665   0.455E-02    0.250E-01
RMM:   5    -0.231261895411E+04    0.74147E-03   -0.24198E-03  4720   0.361E-02    0.143E-01
RMM:   6    -0.231261872013E+04    0.23398E-03   -0.10047E-03  5013   0.262E-02    0.537E-02
RMM:   7    -0.231261867994E+04    0.40190E-04   -0.10856E-04  3786   0.878E-03    0.213E-02
RMM:   8    -0.231261867543E+04    0.45075E-05   -0.19620E-05  2960   0.571E-03
  23 F= -.23330975E+04 E0= -.23330975E+04  d E =-.166865E-01  mag=     1.0000
       N       E                     dE             d eps       ncg     rms          rms(c)
DAV:   1    -0.231261821793E+04    0.46201E-03   -0.31421E+00  4448   0.174E+00    0.385E-01
RMM:   2    -0.231263051018E+04   -0.12292E-01   -0.12673E-01  5711   0.289E-01    0.371E-01
RMM:   3    -0.231262982681E+04    0.68337E-03   -0.69406E-03  5480   0.783E-02    0.345E-01
RMM:   4    -0.231262845822E+04    0.13686E-02   -0.13381E-03  5226   0.266E-02    0.132E-01
RMM:   5    -0.231262833321E+04    0.12501E-03   -0.63417E-04  5106   0.177E-02    0.111E-01
RMM:   6    -0.231262816979E+04    0.16342E-03   -0.48660E-04  4686   0.168E-02    0.217E-02
RMM:   7    -0.231262816706E+04    0.27275E-05   -0.49542E-05  3202   0.986E-03
  24 F= -.23331072E+04 E0= -.23331072E+04  d E =-.972362E-02  mag=     1.0000
       N       E                     dE             d eps       ncg     rms          rms(c)
DAV:   1    -0.231262409458E+04    0.40752E-02   -0.17929E+00  4496   0.132E+00    0.293E-01
RMM:   2    -0.231263113900E+04   -0.70444E-02   -0.73003E-02  5713   0.218E-01    0.276E-01
RMM:   3    -0.231263077639E+04    0.36261E-03   -0.39200E-03  5469   0.578E-02    0.262E-01
RMM:   4    -0.231262999517E+04    0.78123E-03   -0.76755E-04  4955   0.199E-02    0.102E-01
RMM:   5    -0.231262991982E+04    0.75351E-04   -0.36411E-04  4773   0.135E-02    0.847E-02
RMM:   6    -0.231262982442E+04    0.95393E-04   -0.28471E-04  4476   0.132E-02    0.166E-02
RMM:   7    -0.231262982256E+04    0.18578E-05   -0.29865E-05  3002   0.796E-03
  25 F= -.23331090E+04 E0= -.23331090E+04  d E =-.115533E-01  mag=     1.0000
       N       E                     dE             d eps       ncg     rms          rms(c)
DAV:   1    -0.231262465840E+04    0.51660E-02   -0.25377E+00  4432   0.161E+00    0.376E-01
RMM:   2    -0.231263961873E+04   -0.14960E-01   -0.16060E-01  5829   0.289E-01    0.243E-01
RMM:   3    -0.231264016549E+04   -0.54677E-03   -0.11893E-02  5386   0.834E-02    0.327E-01
RMM:   4    -0.231263899184E+04    0.11737E-02   -0.14469E-03  5215   0.228E-02    0.125E-01
RMM:   5    -0.231263886925E+04    0.12259E-03   -0.53937E-04  4486   0.146E-02    0.895E-02
RMM:   6    -0.231263876301E+04    0.10624E-03   -0.39809E-04  4864   0.150E-02    0.259E-02
RMM:   7    -0.231263875142E+04    0.11593E-04   -0.33292E-05  3004   0.857E-03    0.109E-02
RMM:   8    -0.231263874945E+04    0.19678E-05   -0.89555E-06  2850   0.277E-03
  26 F= -.23331181E+04 E0= -.23331181E+04  d E =-.906000E-02  mag=     1.0000
       N       E                     dE             d eps       ncg     rms          rms(c)
DAV:   1    -0.231251204061E+04    0.12671E+00   -0.22749E+01  4416   0.482E+00    0.113E+00
RMM:   2    -0.231264760855E+04   -0.13557E+00   -0.14564E+00  5867   0.874E-01    0.748E-01
RMM:   3    -0.231265204712E+04   -0.44386E-02   -0.11243E-01  5482   0.244E-01    0.981E-01
RMM:   4    -0.231264133916E+04    0.10708E-01   -0.13054E-02  5757   0.678E-02    0.378E-01
RMM:   5    -0.231264015314E+04    0.11860E-02   -0.49840E-03  4777   0.415E-02    0.263E-01
RMM:   6    -0.231263919977E+04    0.95336E-03   -0.36479E-03  5073   0.455E-02    0.852E-02
RMM:   7    -0.231263907047E+04    0.12930E-03   -0.37132E-04  4627   0.237E-02    0.352E-02
RMM:   8    -0.231263904433E+04    0.26146E-04   -0.90764E-05  3572   0.600E-03    0.183E-02
RMM:   9    -0.231263903123E+04    0.13102E-04   -0.15760E-05  2888   0.490E-03    0.870E-03
RMM:  10    -0.231263902509E+04    0.61376E-05   -0.14817E-05  2865   0.404E-03
  27 F= -.23331187E+04 E0= -.23331187E+04  d E =-.972229E-02  mag=     1.0000
       N       E                     dE             d eps       ncg     rms          rms(c)
DAV:   1    -0.231261465441E+04    0.24377E-01   -0.53371E+00  4432   0.234E+00    0.541E-01
RMM:   2    -0.231264544665E+04   -0.30792E-01   -0.33122E-01  5834   0.414E-01    0.337E-01
RMM:   3    -0.231264670419E+04   -0.12575E-02   -0.23078E-02  5400   0.126E-01    0.462E-01
RMM:   4    -0.231264434020E+04    0.23640E-02   -0.29191E-03  5588   0.331E-02    0.176E-01
RMM:   5    -0.231264410657E+04    0.23363E-03   -0.11588E-03  5001   0.222E-02    0.128E-01
RMM:   6    -0.231264386409E+04    0.24248E-03   -0.71312E-04  5303   0.193E-02    0.306E-02
RMM:   7    -0.231264385055E+04    0.13542E-04   -0.42625E-05  3185   0.906E-03    0.141E-02
RMM:   8    -0.231264384685E+04    0.37046E-05   -0.10486E-05  2864   0.353E-03
  28 F= -.23331234E+04 E0= -.23331234E+04  d E =-.143591E-01  mag=     1.0000
       N       E                     dE             d eps       ncg     rms          rms(c)
DAV:   1    -0.231264132547E+04    0.25251E-02   -0.14451E+00  4448   0.123E+00    0.287E-01
RMM:   2    -0.231265180368E+04   -0.10478E-01   -0.11049E-01  5882   0.228E-01    0.220E-01
RMM:   3    -0.231265218399E+04   -0.38031E-03   -0.84640E-03  5373   0.670E-02    0.272E-01
RMM:   4    -0.231265133834E+04    0.84566E-03   -0.97657E-04  4751   0.177E-02    0.913E-02
RMM:   5    -0.231265127368E+04    0.64661E-04   -0.33962E-04  4314   0.120E-02    0.666E-02
RMM:   6    -0.231265121347E+04    0.60203E-04   -0.20900E-04  4505   0.110E-02    0.205E-02
RMM:   7    -0.231265120692E+04    0.65510E-05   -0.21038E-05  2887   0.662E-03
  29 F= -.23331308E+04 E0= -.23331308E+04  d E =-.746726E-02  mag=     1.0000
       N       E                     dE             d eps       ncg     rms          rms(c)
DAV:   1    -0.231257089752E+04    0.80316E-01   -0.13002E+01  4416   0.367E+00    0.866E-01
RMM:   2    -0.231266680254E+04   -0.95905E-01   -0.10084E+00  5934   0.687E-01    0.679E-01
RMM:   3    -0.231266936176E+04   -0.25592E-02   -0.78616E-02  5532   0.193E-01    0.816E-01
RMM:   4    -0.231266167601E+04    0.76857E-02   -0.87869E-03  5606   0.530E-02    0.276E-01
RMM:   5    -0.231266107164E+04    0.60437E-03   -0.29955E-03  4886   0.332E-02    0.196E-01
RMM:   6    -0.231266055369E+04    0.51795E-03   -0.19224E-03  5227   0.321E-02    0.644E-02
RMM:   7    -0.231266048768E+04    0.66017E-04   -0.20315E-04  4186   0.173E-02    0.260E-02
RMM:   8    -0.231266047597E+04    0.11704E-04   -0.43257E-05  3065   0.456E-03    0.135E-02
RMM:   9    -0.231266046989E+04    0.60819E-05   -0.92035E-06  2846   0.360E-03
  30 F= -.23331404E+04 E0= -.23331404E+04  d E =-.170532E-01  mag=     1.0000
       N       E                     dE             d eps       ncg     rms          rms(c)
DAV:   1    -0.231264705267E+04    0.13423E-01   -0.33550E+00  4448   0.182E+00    0.424E-01
RMM:   2    -0.231267075010E+04   -0.23697E-01   -0.25448E-01  5934   0.337E-01    0.265E-01
RMM:   3    -0.231267109859E+04   -0.34849E-03   -0.17857E-02  5414   0.947E-02    0.270E-01
RMM:   4    -0.231267064093E+04    0.45766E-03   -0.23937E-03  5293   0.249E-02    0.187E-01
RMM:   5    -0.231267034180E+04    0.29914E-03   -0.61069E-04  4547   0.145E-02    0.109E-01
RMM:   6    -0.231267020571E+04    0.13609E-03   -0.54823E-04  4744   0.180E-02    0.347E-02
RMM:   7    -0.231267018923E+04    0.16476E-04   -0.61354E-05  3234   0.935E-03    0.140E-02
RMM:   8    -0.231267018712E+04    0.21072E-05   -0.10869E-05  2896   0.332E-03
  31 F= -.23331507E+04 E0= -.23331507E+04  d E =-.102675E-01  mag=     1.0000
       N       E                     dE             d eps       ncg     rms          rms(c)
DAV:   1    -0.231247075882E+04    0.19943E+00   -0.30114E+01  4416   0.546E+00    0.128E+00
RMM:   2    -0.231268723846E+04   -0.21648E+00   -0.23255E+00  5979   0.104E+00    0.820E-01
RMM:   3    -0.231269011958E+04   -0.28811E-02   -0.17643E-01  5511   0.281E-01    0.805E-01
RMM:   4    -0.231268627650E+04    0.38431E-02   -0.21741E-02  5903   0.744E-02    0.575E-01
RMM:   5    -0.231268345404E+04    0.28225E-02   -0.56517E-03  5116   0.415E-02    0.335E-01
RMM:   6    -0.231268228131E+04    0.11727E-02   -0.53318E-03  4892   0.544E-02    0.122E-01
RMM:   7    -0.231268206916E+04    0.21215E-03   -0.67291E-04  5080   0.262E-02    0.499E-02
RMM:   8    -0.231268204306E+04    0.26099E-04   -0.12823E-04  3535   0.713E-03    0.240E-02
RMM:   9    -0.231268203647E+04    0.65851E-05   -0.23091E-05  2915   0.562E-03
  32 F= -.23331642E+04 E0= -.23331642E+04  d E =-.238263E-01  mag=     1.0000
       N       E                     dE             d eps       ncg     rms          rms(c)
DAV:   1    -0.231267324268E+04    0.88004E-02   -0.22982E+00  4480   0.152E+00    0.363E-01
RMM:   2    -0.231269138862E+04   -0.18146E-01   -0.18859E-01  5984   0.288E-01    0.316E-01
RMM:   3    -0.231269185873E+04   -0.47011E-03   -0.13449E-02  5402   0.820E-02    0.342E-01
RMM:   4    -0.231269061356E+04    0.12452E-02   -0.17555E-03  5064   0.220E-02    0.122E-01
RMM:   5    -0.231269051570E+04    0.97861E-04   -0.47227E-04  4567   0.142E-02    0.899E-02
RMM:   6    -0.231269042241E+04    0.93294E-04   -0.35216E-04  4753   0.137E-02    0.273E-02
RMM:   7    -0.231269041340E+04    0.90089E-05   -0.31226E-05  2948   0.727E-03
  33 F= -.23331732E+04 E0= -.23331732E+04  d E =-.897559E-02  mag=     1.0000
       N       E                     dE             d eps       ncg     rms          rms(c)
DAV:   1    -0.231254892097E+04    0.14150E+00   -0.20624E+01  4416   0.454E+00    0.110E+00
RMM:   2    -0.231271315032E+04   -0.16423E+00   -0.17138E+00  5971   0.883E-01    0.963E-01
RMM:   3    -0.231271906593E+04   -0.59156E-02   -0.14365E-01  5525   0.243E-01    0.107E+00
RMM:   4    -0.231270693075E+04    0.12135E-01   -0.16037E-02  5639   0.659E-02    0.372E-01
RMM:   5    -0.231270595496E+04    0.97579E-03   -0.44161E-03  4914   0.397E-02    0.269E-01
RMM:   6    -0.231270518838E+04    0.76658E-03   -0.32937E-03  5107   0.434E-02    0.988E-02
RMM:   7    -0.231270505529E+04    0.13309E-03   -0.40643E-04  4754   0.216E-02    0.360E-02
RMM:   8    -0.231270503828E+04    0.17009E-04   -0.68818E-05  3309   0.572E-03    0.184E-02
RMM:   9    -0.231270503049E+04    0.77904E-05   -0.14277E-05  2878   0.448E-03
  34 F= -.23331897E+04 E0= -.23331897E+04  d E =-.254324E-01  mag=     1.0000
       N       E                     dE             d eps       ncg     rms          rms(c)
DAV:   1    -0.231267385871E+04    0.31180E-01   -0.43583E+00  4432   0.209E+00    0.500E-01
RMM:   2    -0.231270823380E+04   -0.34375E-01   -0.35727E-01  5970   0.399E-01    0.447E-01
RMM:   3    -0.231270921224E+04   -0.97844E-03   -0.26568E-02  5447   0.111E-01    0.485E-01
RMM:   4    -0.231270673139E+04    0.24808E-02   -0.33412E-03  5357   0.302E-02    0.168E-01
RMM:   5    -0.231270653470E+04    0.19669E-03   -0.95273E-04  4882   0.194E-02    0.123E-01
RMM:   6    -0.231270635615E+04    0.17856E-03   -0.67866E-04  5103   0.189E-02    0.405E-02
RMM:   7    -0.231270633305E+04    0.23101E-04   -0.68362E-05  3312   0.960E-03    0.147E-02
RMM:   8    -0.231270633042E+04    0.26224E-05   -0.11655E-05  2887   0.346E-03
  35 F= -.23331918E+04 E0= -.23331918E+04  d E =-.275874E-01  mag=     1.0000
       N       E                     dE             d eps       ncg     rms          rms(c)
DAV:   1    -0.231267807338E+04    0.28260E-01   -0.40008E+00  4416   0.205E+00    0.533E-01
RMM:   2    -0.231272038885E+04   -0.42315E-01   -0.43380E-01  6021   0.428E-01    0.542E-01
RMM:   3    -0.231272049869E+04   -0.10984E-03   -0.32835E-02  5567   0.118E-01    0.503E-01
RMM:   4    -0.231271776262E+04    0.27361E-02   -0.36842E-03  5261   0.312E-02    0.165E-01
RMM:   5    -0.231271760294E+04    0.15967E-03   -0.12044E-03  4931   0.203E-02    0.125E-01
RMM:   6    -0.231271741277E+04    0.19017E-03   -0.63099E-04  5097   0.182E-02    0.382E-02
RMM:   7    -0.231271739793E+04    0.14842E-04   -0.59979E-05  3129   0.886E-03    0.142E-02
RMM:   8    -0.231271739754E+04    0.39020E-06   -0.11215E-05  2886   0.342E-03
  36 F= -.23332036E+04 E0= -.23332036E+04  d E =-.117248E-01  mag=     1.0000
       N       E                     dE             d eps       ncg     rms          rms(c)
DAV:   1    -0.231257862456E+04    0.13877E+00   -0.14848E+01  4416   0.394E+00    0.103E+00
RMM:   2    -0.231273701159E+04   -0.15839E+00   -0.16220E+00  6047   0.835E-01    0.108E+00
RMM:   3    -0.231273681424E+04    0.19735E-03   -0.13055E-01  5688   0.216E-01    0.976E-01
RMM:   4    -0.231272656670E+04    0.10248E-01   -0.13575E-02  5388   0.593E-02    0.324E-01
RMM:   5    -0.231272593646E+04    0.63025E-03   -0.45594E-03  5083   0.384E-02    0.243E-01
RMM:   6    -0.231272522663E+04    0.70982E-03   -0.24803E-03  5246   0.363E-02    0.758E-02
RMM:   7    -0.231272516379E+04    0.62840E-04   -0.26827E-04  4165   0.175E-02    0.298E-02
RMM:   8    -0.231272515819E+04    0.56069E-05   -0.48583E-05  3086   0.502E-03
  37 F= -.23332126E+04 E0= -.23332126E+04  d E =-.207570E-01  mag=     1.0000
       N       E                     dE             d eps       ncg     rms          rms(c)
DAV:   1    -0.231267203042E+04    0.53133E-01   -0.61435E+00  4416   0.248E+00    0.678E-01
RMM:   2    -0.231273960099E+04   -0.67571E-01   -0.73092E-01  6100   0.528E-01    0.424E-01
RMM:   3    -0.231274193593E+04   -0.23349E-02   -0.56904E-02  5617   0.139E-01    0.475E-01
RMM:   4    -0.231274042269E+04    0.15132E-02   -0.66600E-03  5707   0.364E-02    0.286E-01
RMM:   5    -0.231273972525E+04    0.69744E-03   -0.15215E-03  4736   0.191E-02    0.164E-01
RMM:   6    -0.231273943328E+04    0.29198E-03   -0.12434E-03  4779   0.265E-02    0.511E-02
RMM:   7    -0.231273939678E+04    0.36491E-04   -0.14160E-04  3796   0.124E-02    0.225E-02
RMM:   8    -0.231273939275E+04    0.40350E-05   -0.32797E-05  3002   0.417E-03
  38 F= -.23332273E+04 E0= -.23332273E+04  d E =-.147274E-01  mag=     1.0000
       N       E                     dE             d eps       ncg     rms          rms(c)
DAV:   1    -0.231213848557E+04    0.60091E+00   -0.55159E+01  4416   0.745E+00    0.205E+00
RMM:   2    -0.231276095576E+04   -0.62247E+00   -0.67370E+00  6127   0.165E+00    0.134E+00
RMM:   3    -0.231278102617E+04   -0.20070E-01   -0.59126E-01  5655   0.435E-01    0.139E+00
RMM:   4    -0.231276841286E+04    0.12613E-01   -0.62461E-02  6029   0.109E-01    0.878E-01
RMM:   5    -0.231276180497E+04    0.66079E-02   -0.14073E-02  5313   0.581E-02    0.502E-01
RMM:   6    -0.231275925697E+04    0.25480E-02   -0.11824E-02  4906   0.794E-02    0.176E-01
RMM:   7    -0.231275883679E+04    0.42018E-03   -0.14442E-03  5060   0.359E-02    0.847E-02
RMM:   8    -0.231275878961E+04    0.47178E-04   -0.40019E-04  4387   0.111E-02    0.415E-02
RMM:   9    -0.231275876744E+04    0.22169E-04   -0.53673E-05  2997   0.813E-03    0.188E-02
RMM:  10    -0.231275876695E+04    0.48839E-06   -0.37078E-05  3074   0.520E-03
  39 F= -.23332481E+04 E0= -.23332481E+04  d E =-.355320E-01  mag=     1.0000
       N       E                     dE             d eps       ncg     rms          rms(c)
DAV:   1    -0.231271432146E+04    0.44446E-01   -0.54815E+00  4464   0.233E+00    0.649E-01
RMM:   2    -0.231277401537E+04   -0.59694E-01   -0.65006E-01  6119   0.503E-01    0.359E-01
RMM:   3    -0.231277487959E+04   -0.86423E-03   -0.45825E-02  5710   0.124E-01    0.278E-01
RMM:   4    -0.231277499073E+04   -0.11114E-03   -0.54740E-03  5613   0.323E-02    0.271E-01
RMM:   5    -0.231277450054E+04    0.49019E-03   -0.12489E-03  5104   0.206E-02    0.181E-01
RMM:   6    -0.231277416656E+04    0.33398E-03   -0.88335E-04  4852   0.206E-02    0.475E-02
RMM:   7    -0.231277413771E+04    0.28847E-04   -0.11370E-04  3298   0.109E-02    0.230E-02
RMM:   8    -0.231277413358E+04    0.41306E-05   -0.29475E-05  2967   0.381E-03
  40 F= -.23332637E+04 E0= -.23332637E+04  d E =-.156018E-01  mag=     1.0000
       N       E                     dE             d eps       ncg     rms          rms(c)
DAV:   1    -0.231224767776E+04    0.52646E+00   -0.49219E+01  4416   0.699E+00    0.196E+00
RMM:   2    -0.231279534142E+04   -0.54766E+00   -0.59754E+00  6147   0.157E+00    0.112E+00
RMM:   3    -0.231280544560E+04   -0.10104E-01   -0.49106E-01  5834   0.402E-01    0.870E-01
RMM:   4    -0.231280493251E+04    0.51309E-03   -0.49484E-02  5865   0.950E-02    0.776E-01
RMM:   5    -0.231280165888E+04    0.32736E-02   -0.11822E-02  5781   0.625E-02    0.571E-01
RMM:   6    -0.231279837253E+04    0.32863E-02   -0.85290E-03  4873   0.624E-02    0.153E-01
RMM:   7    -0.231279811612E+04    0.25641E-03   -0.11335E-03  4569   0.321E-02    0.858E-02
RMM:   8    -0.231279805667E+04    0.59451E-04   -0.39325E-04  4410   0.110E-02    0.419E-02
RMM:   9    -0.231279803095E+04    0.25719E-04   -0.54511E-05  3010   0.748E-03    0.175E-02
RMM:  10    -0.231279802650E+04    0.44544E-05   -0.37225E-05  3086   0.512E-03
  41 F= -.23332883E+04 E0= -.23332883E+04  d E =-.401516E-01  mag=     1.0000
       N       E                     dE             d eps       ncg     rms          rms(c)
DAV:   1    -0.231274574825E+04    0.52283E-01   -0.78528E+00  4416   0.272E+00    0.755E-01
RMM:   2    -0.231282094484E+04   -0.75197E-01   -0.81968E-01  6103   0.597E-01    0.394E-01
RMM:   3    -0.231282104792E+04   -0.10307E-03   -0.49349E-02  5755   0.137E-01    0.293E-01
RMM:   4    -0.231282170681E+04   -0.65889E-03   -0.64818E-03  5583   0.382E-02    0.328E-01
RMM:   5    -0.231282084990E+04    0.85691E-03   -0.18851E-03  5548   0.274E-02    0.181E-01
RMM:   6    -0.231282055626E+04    0.29364E-03   -0.68234E-04  4869   0.173E-02    0.549E-02
RMM:   7    -0.231282052798E+04    0.28277E-04   -0.16017E-04  3270   0.116E-02    0.344E-02
RMM:   8    -0.231282051301E+04    0.14978E-04   -0.29474E-05  2956   0.413E-03    0.105E-02
RMM:   9    -0.231282051281E+04    0.19799E-06   -0.52247E-06  2834   0.267E-03
  42 F= -.23333110E+04 E0= -.23333110E+04  d E =-.227683E-01  mag=     1.0000
       N       E                     dE             d eps       ncg     rms          rms(c)
DAV:   1    -0.231260592181E+04    0.21459E+00   -0.24458E+01  4416   0.481E+00    0.134E+00
RMM:   2    -0.231284630327E+04   -0.24038E+00   -0.26190E+00  6129   0.107E+00    0.704E-01
RMM:   3    -0.231284320779E+04    0.30955E-02   -0.13943E-01  5802   0.230E-01    0.511E-01
RMM:   4    -0.231284466501E+04   -0.14572E-02   -0.19385E-02  5588   0.669E-02    0.544E-01
RMM:   5    -0.231284273675E+04    0.19283E-02   -0.59395E-03  5766   0.490E-02    0.353E-01
RMM:   6    -0.231284150496E+04    0.12318E-02   -0.21396E-03  4880   0.298E-02    0.964E-02
RMM:   7    -0.231284142278E+04    0.82180E-04   -0.50475E-04  4087   0.207E-02    0.570E-02
RMM:   8    -0.231284138189E+04    0.40885E-04   -0.87583E-05  3157   0.625E-03    0.196E-02
RMM:   9    -0.231284137972E+04    0.21728E-05   -0.15328E-05  2885   0.427E-03
  43 F= -.23333324E+04 E0= -.23333324E+04  d E =-.441332E-01  mag=     1.0000
       N       E                     dE             d eps       ncg     rms          rms(c)
DAV:   1    -0.231280982947E+04    0.31552E-01   -0.35358E+00  4512   0.183E+00    0.502E-01
RMM:   2    -0.231284350984E+04   -0.33680E-01   -0.36683E-01  6093   0.394E-01    0.257E-01
RMM:   3    -0.231284319075E+04    0.31909E-03   -0.18679E-02  5619   0.885E-02    0.172E-01
RMM:   4    -0.231284315393E+04    0.36816E-04   -0.25946E-03  4876   0.265E-02    0.112E-01
RMM:   5    -0.231284325443E+04   -0.10049E-03   -0.62849E-04  4880   0.197E-02    0.136E-01
RMM:   6    -0.231284305953E+04    0.19489E-03   -0.23520E-04  3632   0.101E-02    0.488E-02
RMM:   7    -0.231284303689E+04    0.22645E-04   -0.51223E-05  2994   0.604E-03    0.204E-02
RMM:   8    -0.231284303185E+04    0.50394E-05   -0.11610E-05  2892   0.339E-03
  44 F= -.23333343E+04 E0= -.23333343E+04  d E =-.459770E-01  mag=     1.0000
       N       E                     dE             d eps       ncg     rms          rms(c)
DAV:   1    -0.231278366637E+04    0.59371E-01   -0.89076E+00  4416   0.283E+00    0.781E-01
RMM:   2    -0.231286585302E+04   -0.82187E-01   -0.87958E-01  6162   0.593E-01    0.554E-01
RMM:   3    -0.231286711408E+04   -0.12611E-02   -0.56672E-02  5850   0.135E-01    0.618E-01
RMM:   4    -0.231286316824E+04    0.39458E-02   -0.73182E-03  5903   0.446E-02    0.268E-01
RMM:   5    -0.231286277502E+04    0.39322E-03   -0.21356E-03  5200   0.260E-02    0.187E-01
RMM:   6    -0.231286242829E+04    0.34673E-03   -0.13190E-03  5295   0.255E-02    0.525E-02
RMM:   7    -0.231286239604E+04    0.32248E-04   -0.14455E-04  3608   0.119E-02    0.230E-02
RMM:   8    -0.231286239144E+04    0.45935E-05   -0.22602E-05  2953   0.410E-03
  45 F= -.23333536E+04 E0= -.23333536E+04  d E =-.193813E-01  mag=     1.0000
       N       E                     dE             d eps       ncg     rms          rms(c)
DAV:   1    -0.231215948855E+04    0.70291E+00   -0.79860E+01  4416   0.851E+00    0.236E+00
RMM:   2    -0.231292089651E+04   -0.76141E+00   -0.81720E+00  6194   0.184E+00    0.170E+00
RMM:   3    -0.231292811642E+04   -0.72199E-02   -0.57179E-01  5774   0.431E-01    0.181E+00
RMM:   4    -0.231289553705E+04    0.32579E-01   -0.69146E-02  6192   0.137E-01    0.846E-01
RMM:   5    -0.231289103095E+04    0.45061E-02   -0.18705E-02  5369   0.739E-02    0.578E-01
RMM:   6    -0.231288787017E+04    0.31608E-02   -0.12296E-02  5185   0.765E-02    0.180E-01
RMM:   7    -0.231288755297E+04    0.31720E-03   -0.16744E-03  5159   0.382E-02    0.859E-02
RMM:   8    -0.231288747612E+04    0.76854E-04   -0.28266E-04  4348   0.105E-02    0.369E-02
RMM:   9    -0.231288745375E+04    0.22367E-04   -0.50465E-05  3106   0.723E-03    0.165E-02
RMM:  10    -0.231288744764E+04    0.61056E-05   -0.31694E-05  3028   0.543E-03
  46 F= -.23333788E+04 E0= -.23333788E+04  d E =-.445130E-01  mag=     1.0000
       N       E                     dE             d eps       ncg     rms          rms(c)
DAV:   1    -0.231286613735E+04    0.21316E-01   -0.36373E+00  4544   0.188E+00    0.565E-01
RMM:   2    -0.231290425221E+04   -0.38115E-01   -0.39620E-01  6097   0.399E-01    0.519E-01
RMM:   3    -0.231290463055E+04   -0.37834E-03   -0.35199E-02  5831   0.114E-01    0.474E-01
RMM:   4    -0.231290200229E+04    0.26283E-02   -0.40625E-03  5684   0.364E-02    0.177E-01
RMM:   5    -0.231290177104E+04    0.23125E-03   -0.11437E-03  5130   0.205E-02    0.131E-01
RMM:   6    -0.231290152409E+04    0.24695E-03   -0.70949E-04  5161   0.193E-02    0.281E-02
RMM:   7    -0.231290150802E+04    0.16073E-04   -0.70542E-05  3389   0.101E-02    0.142E-02
RMM:   8    -0.231290150345E+04    0.45698E-05   -0.13887E-05  2908   0.365E-03
  47 F= -.23333921E+04 E0= -.23333921E+04  d E =-.133422E-01  mag=     1.0000
       N       E                     dE             d eps       ncg     rms          rms(c)
DAV:   1    -0.231289616350E+04    0.53445E-02   -0.73552E-01  4640   0.846E-01    0.254E-01
RMM:   2    -0.231290383430E+04   -0.76708E-02   -0.79548E-02  6075   0.179E-01    0.238E-01
RMM:   3    -0.231290390926E+04   -0.74959E-04   -0.72826E-03  5650   0.521E-02    0.212E-01
RMM:   4    -0.231290337957E+04    0.52969E-03   -0.83411E-04  4627   0.165E-02    0.782E-02
RMM:   5    -0.231290333092E+04    0.48648E-04   -0.23010E-04  4248   0.100E-02    0.588E-02
RMM:   6    -0.231290327817E+04    0.52751E-04   -0.14940E-04  4260   0.962E-03    0.125E-02
RMM:   7    -0.231290327423E+04    0.39432E-05   -0.16585E-05  2921   0.564E-03
  48 F= -.23333936E+04 E0= -.23333936E+04  d E =-.147886E-01  mag=     1.0000
       N       E                     dE             d eps       ncg     rms          rms(c)
DAV:   1    -0.231290395446E+04   -0.67629E-03   -0.77118E-01  4480   0.916E-01    0.248E-01
RMM:   2    -0.231291060916E+04   -0.66547E-02   -0.73899E-02  5941   0.185E-01    0.116E-01
RMM:   3    -0.231291056657E+04    0.42584E-04   -0.49305E-03  5435   0.543E-02    0.763E-02
RMM:   4    -0.231291057158E+04   -0.50012E-05   -0.72038E-04  4758   0.170E-02    0.764E-02
RMM:   5    -0.231291052588E+04    0.45699E-04   -0.15000E-04  3544   0.105E-02    0.483E-02
RMM:   6    -0.231291049810E+04    0.27772E-04   -0.36817E-05  2938   0.515E-03    0.126E-02
RMM:   7    -0.231291049686E+04    0.12483E-05   -0.95197E-06  2877   0.362E-03
  49 F= -.23334006E+04 E0= -.23334006E+04  d E =-.702748E-02  mag=     1.0000
       N       E                     dE             d eps       ncg     rms          rms(c)
DAV:   1    -0.231287459257E+04    0.35906E-01   -0.47284E+00  4416   0.226E+00    0.616E-01
RMM:   2    -0.231291554178E+04   -0.40949E-01   -0.45542E-01  5962   0.463E-01    0.290E-01
RMM:   3    -0.231291514453E+04    0.39725E-03   -0.30260E-02  5620   0.124E-01    0.193E-01
RMM:   4    -0.231291513174E+04    0.12793E-04   -0.43393E-03  4711   0.401E-02    0.186E-01
RMM:   5    -0.231291491228E+04    0.21947E-03   -0.98936E-04  4771   0.272E-02    0.133E-01
RMM:   6    -0.231291469096E+04    0.22132E-03   -0.27597E-04  4388   0.114E-02    0.319E-02
RMM:   7    -0.231291468292E+04    0.80381E-05   -0.64590E-05  3329   0.700E-03
  50 F= -.23334043E+04 E0= -.23334043E+04  d E =-.107315E-01  mag=     1.0000
       N       E                     dE             d eps       ncg     rms          rms(c)
DAV:   1    -0.231291184899E+04    0.28420E-02   -0.43273E-01  4544   0.684E-01    0.184E-01
RMM:   2    -0.231291554951E+04   -0.37005E-02   -0.41126E-02  5916   0.137E-01    0.856E-02
RMM:   3    -0.231291550792E+04    0.41584E-04   -0.24995E-03  5257   0.412E-02    0.568E-02
RMM:   4    -0.231291553978E+04   -0.31856E-04   -0.35307E-04  4306   0.118E-02    0.780E-02
RMM:   5    -0.231291547276E+04    0.67015E-04   -0.11067E-04  3417   0.856E-03    0.273E-02
RMM:   6    -0.231291546641E+04    0.63512E-05   -0.23432E-05  2957   0.473E-03
  51 F= -.23334052E+04 E0= -.23334052E+04  d E =-.116607E-01  mag=     1.0000
       N       E                     dE             d eps       ncg     rms          rms(c)
DAV:   1    -0.231291517713E+04    0.29563E-03   -0.13211E+00  4448   0.121E+00    0.308E-01
RMM:   2    -0.231292242707E+04   -0.72499E-02   -0.75677E-02  5698   0.209E-01    0.240E-01
RMM:   3    -0.231292264001E+04   -0.21294E-03   -0.66942E-03  5157   0.760E-02    0.259E-01
RMM:   4    -0.231292180544E+04    0.83457E-03   -0.87636E-04  5242   0.212E-02    0.894E-02
RMM:   5    -0.231292173237E+04    0.73071E-04   -0.39631E-04  4793   0.142E-02    0.671E-02
RMM:   6    -0.231292166223E+04    0.70138E-04   -0.23388E-04  4758   0.119E-02    0.165E-02
RMM:   7    -0.231292165493E+04    0.72997E-05   -0.21160E-05  2928   0.702E-03
  52 F= -.23334112E+04 E0= -.23334112E+04  d E =-.594791E-02  mag=     1.0000
       N       E                     dE             d eps       ncg     rms          rms(c)
DAV:   1    -0.231292023097E+04    0.14313E-02   -0.50999E-01  4528   0.749E-01    0.192E-01
RMM:   2    -0.231292306913E+04   -0.28382E-02   -0.29498E-02  5747   0.131E-01    0.153E-01
RMM:   3    -0.231292314162E+04   -0.72487E-04   -0.25895E-03  5117   0.452E-02    0.164E-01
RMM:   4    -0.231292280989E+04    0.33173E-03   -0.33949E-04  4419   0.133E-02    0.554E-02
RMM:   5    -0.231292278096E+04    0.28930E-04   -0.16106E-04  4145   0.938E-03    0.422E-02
RMM:   6    -0.231292275181E+04    0.29145E-04   -0.95826E-05  4082   0.833E-03    0.105E-02
RMM:   7    -0.231292274819E+04    0.36253E-05   -0.10610E-05  2855   0.504E-03
  53 F= -.23334121E+04 E0= -.23334121E+04  d E =-.689098E-02  mag=     1.0000
       N       E                     dE             d eps       ncg     rms          rms(c)
DAV:   1    -0.231292364713E+04   -0.89532E-03   -0.11604E+00  4448   0.114E+00    0.268E-01
RMM:   2    -0.231292747960E+04   -0.38325E-02   -0.40900E-02  5330   0.180E-01    0.160E-01
RMM:   3    -0.231292761587E+04   -0.13627E-03   -0.28378E-03  4949   0.652E-02    0.225E-01
RMM:   4    -0.231292699258E+04    0.62329E-03   -0.54432E-04  5173   0.183E-02    0.681E-02
RMM:   5    -0.231292691566E+04    0.76919E-04   -0.34010E-04  4698   0.151E-02    0.313E-02
RMM:   6    -0.231292690271E+04    0.12952E-04   -0.58816E-05  3423   0.885E-03    0.147E-02
RMM:   7    -0.231292689885E+04    0.38587E-05   -0.11745E-05  2862   0.381E-03
  54 F= -.23334163E+04 E0= -.23334163E+04  d E =-.422277E-02  mag=     1.0000
       N       E                     dE             d eps       ncg     rms          rms(c)
DAV:   1    -0.231292641501E+04    0.48770E-03   -0.34967E-01  4560   0.628E-01    0.148E-01
RMM:   2    -0.231292755991E+04   -0.11449E-02   -0.12239E-02  5357   0.990E-02    0.867E-02
RMM:   3    -0.231292761049E+04   -0.50590E-04   -0.91720E-04  4792   0.412E-02    0.122E-01
RMM:   4    -0.231292742412E+04    0.18637E-03   -0.16441E-04  3909   0.103E-02    0.379E-02
RMM:   5    -0.231292739649E+04    0.27634E-04   -0.10717E-04  4105   0.925E-03    0.163E-02
RMM:   6    -0.231292739256E+04    0.39259E-05   -0.19807E-05  2943   0.615E-03
  55 F= -.23334169E+04 E0= -.23334169E+04  d E =-.475487E-02  mag=     1.0000
       N       E                     dE             d eps       ncg     rms          rms(c)
DAV:   1    -0.231292526493E+04    0.21316E-02   -0.11968E+00  4432   0.118E+00    0.234E-01
RMM:   2    -0.231293034113E+04   -0.50762E-02   -0.55657E-02  5550   0.198E-01    0.134E-01
RMM:   3    -0.231293033938E+04    0.17478E-05   -0.36512E-03  5177   0.669E-02    0.165E-01
RMM:   4    -0.231293006130E+04    0.27808E-03   -0.47904E-04  5012   0.157E-02    0.815E-02
RMM:   5    -0.231292998429E+04    0.77010E-04   -0.28354E-04  4759   0.134E-02    0.519E-02
RMM:   6    -0.231292994147E+04    0.42823E-04   -0.11921E-04  4249   0.969E-03    0.117E-02
RMM:   7    -0.231292993977E+04    0.16907E-05   -0.10211E-05  2859   0.435E-03
  56 F= -.23334200E+04 E0= -.23334200E+04  d E =-.311633E-02  mag=     1.0000
       N       E                     dE             d eps       ncg     rms          rms(c)
DAV:   1    -0.231292869984E+04    0.12416E-02   -0.28918E-01  4560   0.579E-01    0.115E-01
RMM:   2    -0.231292992109E+04   -0.12213E-02   -0.13401E-02  5600   0.979E-02    0.654E-02
RMM:   3    -0.231292992189E+04   -0.79494E-06   -0.92057E-04  5005   0.355E-02    0.786E-02
RMM:   4    -0.231292985967E+04    0.62215E-04   -0.11367E-04  3276   0.801E-03    0.411E-02
RMM:   5    -0.231292983949E+04    0.20179E-04   -0.68092E-05  3627   0.749E-03    0.262E-02
RMM:   6    -0.231292982825E+04    0.11239E-04   -0.32216E-05  3139   0.582E-03    0.594E-03
RMM:   7    -0.231292982800E+04    0.24965E-06   -0.50870E-06  2810   0.375E-03
  57 F= -.23334201E+04 E0= -.23334201E+04  d E =-.328418E-02  mag=     1.0000
       N       E                     dE             d eps       ncg     rms          rms(c)
DAV:   1    -0.231292832805E+04    0.15002E-02   -0.13357E+00  4416   0.122E+00    0.231E-01
RMM:   2    -0.231293197480E+04   -0.36468E-02   -0.39436E-02  5268   0.186E-01    0.143E-01
RMM:   3    -0.231293195123E+04    0.23567E-04   -0.20756E-03  5070   0.623E-02    0.190E-01
RMM:   4    -0.231293153173E+04    0.41950E-03   -0.41240E-04  5108   0.165E-02    0.719E-02
RMM:   5    -0.231293146989E+04    0.61843E-04   -0.30610E-04  4791   0.143E-02    0.505E-02
RMM:   6    -0.231293143420E+04    0.35686E-04   -0.94497E-05  3982   0.959E-03    0.111E-02
RMM:   7    -0.231293143270E+04    0.15040E-05   -0.92559E-06  2886   0.394E-03
  58 F= -.23334221E+04 E0= -.23334221E+04  d E =-.192104E-02  mag=     1.0000
       N       E                     dE             d eps       ncg     rms          rms(c)
DAV:   1    -0.231293134940E+04    0.84799E-04   -0.20579E-02  5040   0.151E-01    0.298E-02
RMM:   2    -0.231293140698E+04   -0.57575E-04   -0.62426E-04  5501   0.245E-02    0.179E-02
RMM:   3    -0.231293140751E+04   -0.53307E-06   -0.37867E-05  3040   0.956E-03
  59 F= -.23334221E+04 E0= -.23334221E+04  d E =-.193500E-02  mag=     1.0000
       N       E                     dE             d eps       ncg     rms          rms(c)
DAV:   1    -0.231293142385E+04   -0.16871E-04   -0.80808E-01  4448   0.956E-01    0.198E-01
RMM:   2    -0.231293351047E+04   -0.20866E-02   -0.23410E-02  5257   0.146E-01    0.993E-02
RMM:   3    -0.231293337089E+04    0.13958E-03   -0.11739E-03  4877   0.471E-02    0.116E-01
RMM:   4    -0.231293324062E+04    0.13027E-03   -0.24219E-04  4675   0.128E-02    0.641E-02
RMM:   5    -0.231293317105E+04    0.69576E-04   -0.22136E-04  4492   0.128E-02    0.256E-02
RMM:   6    -0.231293316173E+04    0.93129E-05   -0.35206E-05  3054   0.835E-03
  60 F= -.23334240E+04 E0= -.23334240E+04  d E =-.194328E-02  mag=     1.0000
       N       E                     dE             d eps       ncg     rms          rms(c)
DAV:   1    -0.231293282188E+04    0.34917E-03   -0.17133E-01  4496   0.441E-01    0.927E-02
RMM:   2    -0.231293326916E+04   -0.44728E-03   -0.50330E-03  5322   0.679E-02    0.435E-02
RMM:   3    -0.231293323117E+04    0.37992E-04   -0.24207E-04  4397   0.231E-02    0.416E-02
RMM:   4    -0.231293322050E+04    0.10667E-04   -0.48317E-05  3061   0.628E-03    0.348E-02
RMM:   5    -0.231293320054E+04    0.19964E-04   -0.48501E-05  3633   0.667E-03    0.113E-02
RMM:   6    -0.231293319894E+04    0.15977E-05   -0.84935E-06  2841   0.495E-03
  61 F= -.23334241E+04 E0= -.23334241E+04  d E =-.206736E-02  mag=     1.0000
       N       E                     dE             d eps       ncg     rms          rms(c)
DAV:   1    -0.231293308947E+04    0.11106E-03   -0.57951E-01  4416   0.802E-01    0.151E-01
RMM:   2    -0.231293482357E+04   -0.17341E-02   -0.18798E-02  5423   0.126E-01    0.846E-02
RMM:   3    -0.231293482531E+04   -0.17438E-05   -0.11222E-03  4898   0.391E-02    0.112E-01
RMM:   4    -0.231293468448E+04    0.14083E-03   -0.18120E-04  3904   0.996E-03    0.455E-02
RMM:   5    -0.231293465371E+04    0.30777E-04   -0.12665E-04  4347   0.994E-03    0.249E-02
RMM:   6    -0.231293464555E+04    0.81552E-05   -0.30200E-05  3021   0.678E-03
  62 F= -.23334257E+04 E0= -.23334257E+04  d E =-.152790E-02  mag=     1.0000
       N       E                     dE             d eps       ncg     rms          rms(c)
DAV:   1    -0.231293134449E+04    0.33092E-02   -0.13904E+00  4416   0.124E+00    0.234E-01
RMM:   2    -0.231293551895E+04   -0.41745E-02   -0.45281E-02  5423   0.196E-01    0.130E-01
RMM:   3    -0.231293550454E+04    0.14410E-04   -0.26030E-03  4989   0.590E-02    0.171E-01
RMM:   4    -0.231293517565E+04    0.32889E-03   -0.43058E-04  4991   0.154E-02    0.708E-02
RMM:   5    -0.231293509717E+04    0.78478E-04   -0.30383E-04  4691   0.145E-02    0.375E-02
RMM:   6    -0.231293507796E+04    0.19211E-04   -0.70577E-05  3531   0.962E-03    0.129E-02
RMM:   7    -0.231293507621E+04    0.17449E-05   -0.10035E-05  2863   0.362E-03
  63 F= -.23334262E+04 E0= -.23334262E+04  d E =-.208487E-02  mag=     1.0000
       N       E                     dE             d eps       ncg     rms          rms(c)
DAV:   1    -0.231293451225E+04    0.56571E-03   -0.61253E-01  4416   0.829E-01    0.145E-01
RMM:   2    -0.231293649192E+04   -0.19797E-02   -0.21366E-02  5597   0.133E-01    0.808E-02
RMM:   3    -0.231293644615E+04    0.45771E-04   -0.12574E-03  5080   0.460E-02    0.985E-02
RMM:   4    -0.231293635025E+04    0.95893E-04   -0.15867E-04  3900   0.102E-02    0.499E-02
RMM:   5    -0.231293631717E+04    0.33088E-04   -0.12353E-04  4218   0.979E-03    0.275E-02
RMM:   6    -0.231293630742E+04    0.97417E-05   -0.34306E-05  3221   0.690E-03
  64 F= -.23334275E+04 E0= -.23334275E+04  d E =-.122622E-02  mag=     1.0000
       N       E                     dE             d eps       ncg     rms          rms(c)
DAV:   1    -0.231293324885E+04    0.30683E-02   -0.11705E+00  4416   0.115E+00    0.202E-01
RMM:   2    -0.231293703024E+04   -0.37814E-02   -0.40842E-02  5553   0.183E-01    0.112E-01
RMM:   3    -0.231293694724E+04    0.83001E-04   -0.24385E-03  5127   0.615E-02    0.137E-01
RMM:   4    -0.231293676168E+04    0.18556E-03   -0.31308E-04  4670   0.137E-02    0.688E-02
RMM:   5    -0.231293669899E+04    0.62687E-04   -0.23529E-04  4573   0.128E-02    0.396E-02
RMM:   6    -0.231293667725E+04    0.21744E-04   -0.69566E-05  3726   0.886E-03    0.107E-02
RMM:   7    -0.231293667640E+04    0.84518E-06   -0.83186E-06  2846   0.404E-03
  65 F= -.23334278E+04 E0= -.23334278E+04  d E =-.159017E-02  mag=     1.0000
       N       E                     dE             d eps       ncg     rms          rms(c)
DAV:   1    -0.231293682913E+04   -0.15189E-03   -0.33851E-01  4512   0.618E-01    0.139E-01
RMM:   2    -0.231293769681E+04   -0.86768E-03   -0.97499E-03  5321   0.953E-02    0.581E-02
RMM:   3    -0.231293762796E+04    0.68851E-04   -0.48320E-04  4844   0.346E-02    0.624E-02
RMM:   4    -0.231293759973E+04    0.28230E-04   -0.94961E-05  3623   0.839E-03    0.441E-02
RMM:   5    -0.231293756634E+04    0.33393E-04   -0.92698E-05  4064   0.908E-03    0.917E-03
RMM:   6    -0.231293756481E+04    0.15293E-05   -0.91457E-06  2844   0.605E-03
  66 F= -.23334288E+04 E0= -.23334288E+04  d E =-.100392E-02  mag=     1.0000
       N       E                     dE             d eps       ncg     rms          rms(c)
DAV:   1    -0.231293654500E+04    0.10213E-02   -0.37055E-01  4432   0.647E-01    0.146E-01
RMM:   2    -0.231293750171E+04   -0.95671E-03   -0.10758E-02  5236   0.993E-02    0.611E-02
RMM:   3    -0.231293741359E+04    0.88123E-04   -0.48942E-04  4847   0.311E-02    0.635E-02
RMM:   4    -0.231293738702E+04    0.26567E-04   -0.10425E-04  3707   0.844E-03    0.478E-02
RMM:   5    -0.231293734734E+04    0.39679E-04   -0.10235E-04  4092   0.928E-03    0.103E-02
RMM:   6    -0.231293734509E+04    0.22500E-05   -0.10283E-05  2853   0.618E-03
  67 F= -.23334287E+04 E0= -.23334287E+04  d E =-.904878E-03  mag=     1.0000
       N       E                     dE             d eps       ncg     rms          rms(c)
DAV:   1    -0.231293738511E+04   -0.37770E-04   -0.10439E-01  4544   0.343E-01    0.763E-02
RMM:   2    -0.231293764712E+04   -0.26201E-03   -0.29488E-03  5389   0.526E-02    0.322E-02
RMM:   3    -0.231293762649E+04    0.20628E-04   -0.13856E-04  4011   0.177E-02    0.354E-02
RMM:   4    -0.231293761672E+04    0.97785E-05   -0.27951E-05  2907   0.540E-03
  68 F= -.23334289E+04 E0= -.23334289E+04  d E =-.111257E-02  mag=     1.0000
       N       E                     dE             d eps       ncg     rms          rms(c)
DAV:   1    -0.231293736831E+04    0.25819E-03   -0.28030E-01  4432   0.571E-01    0.110E-01
RMM:   2    -0.231293850281E+04   -0.11345E-02   -0.12394E-02  5656   0.934E-02    0.551E-02
RMM:   3    -0.231293848455E+04    0.18257E-04   -0.83104E-04  4718   0.344E-02    0.474E-02
RMM:   4    -0.231293848021E+04    0.43394E-05   -0.10101E-04  3217   0.774E-03    0.466E-02
RMM:   5    -0.231293844901E+04    0.31205E-04   -0.55813E-05  3324   0.732E-03    0.170E-02
RMM:   6    -0.231293844423E+04    0.47758E-05   -0.20027E-05  2900   0.567E-03
  69 F= -.23334299E+04 E0= -.23334299E+04  d E =-.986404E-03  mag=     1.0000
       N       E                     dE             d eps       ncg     rms          rms(c)
DAV:   1    -0.231293586467E+04    0.25843E-02   -0.67050E-01  4416   0.883E-01    0.171E-01
RMM:   2    -0.231293859392E+04   -0.27292E-02   -0.29788E-02  5585   0.143E-01    0.854E-02
RMM:   3    -0.231293854853E+04    0.45387E-04   -0.19893E-03  5036   0.461E-02    0.813E-02
RMM:   4    -0.231293852286E+04    0.25675E-04   -0.24168E-04  4195   0.111E-02    0.678E-02
RMM:   5    -0.231293845818E+04    0.64679E-04   -0.13480E-04  4172   0.994E-03    0.302E-02
RMM:   6    -0.231293844263E+04    0.15547E-04   -0.50132E-05  3289   0.757E-03    0.123E-02
RMM:   7    -0.231293844009E+04    0.25379E-05   -0.93097E-06  2846   0.454E-03
  70 F= -.23334302E+04 E0= -.23334302E+04  d E =-.123011E-02  mag=     1.0000
       N       E                     dE             d eps       ncg     rms          rms(c)
DAV:   1    -0.231293841788E+04    0.24748E-04   -0.44652E-02  4640   0.227E-01    0.436E-02
RMM:   2    -0.231293859479E+04   -0.17691E-03   -0.19354E-03  5711   0.370E-02    0.223E-02
RMM:   3    -0.231293859397E+04    0.82643E-06   -0.13029E-04  3311   0.133E-02    0.222E-02
RMM:   4    -0.231293859151E+04    0.24561E-05   -0.16794E-05  2853   0.410E-03
  71 F= -.23334303E+04 E0= -.23334303E+04  d E =-.131767E-02  mag=     1.0000
       N       E                     dE             d eps       ncg     rms          rms(c)
DAV:   1    -0.231293820959E+04    0.38438E-03   -0.28072E-01  4448   0.570E-01    0.111E-01
RMM:   2    -0.231293933628E+04   -0.11267E-02   -0.12149E-02  5577   0.924E-02    0.479E-02
RMM:   3    -0.231293931337E+04    0.22904E-04   -0.79818E-04  4591   0.308E-02    0.322E-02
RMM:   4    -0.231293930112E+04    0.12257E-04   -0.11805E-04  4039   0.847E-03    0.216E-02
RMM:   5    -0.231293929789E+04    0.32222E-05   -0.28602E-05  2971   0.643E-03
  72 F= -.23334311E+04 E0= -.23334311E+04  d E =-.852739E-03  mag=     1.0000
       N       E                     dE             d eps       ncg     rms          rms(c)
DAV:   1    -0.231293307153E+04    0.62296E-02   -0.15754E+00  4416   0.135E+00    0.263E-01
RMM:   2    -0.231293941832E+04   -0.63468E-02   -0.68413E-02  5519   0.218E-01    0.116E-01
RMM:   3    -0.231293925867E+04    0.15966E-03   -0.44063E-03  5116   0.674E-02    0.786E-02
RMM:   4    -0.231293929609E+04   -0.37426E-04   -0.78826E-04  4767   0.212E-02    0.108E-01
RMM:   5    -0.231293915619E+04    0.13991E-03   -0.19403E-04  4228   0.142E-02    0.284E-02
RMM:   6    -0.231293915099E+04    0.51974E-05   -0.31709E-05  2978   0.473E-03
  73 F= -.23334313E+04 E0= -.23334313E+04  d E =-.105284E-02  mag=     1.0000
       N       E                     dE             d eps       ncg     rms          rms(c)
DAV:   1    -0.231293870161E+04    0.45458E-03   -0.20726E-01  4448   0.490E-01    0.948E-02
RMM:   2    -0.231293951632E+04   -0.81471E-03   -0.88437E-03  5652   0.790E-02    0.414E-02
RMM:   3    -0.231293950469E+04    0.11625E-04   -0.61313E-04  4439   0.275E-02    0.301E-02
RMM:   4    -0.231293951466E+04   -0.99656E-05   -0.87212E-05  3295   0.740E-03
  74 F= -.23334315E+04 E0= -.23334315E+04  d E =-.129088E-02  mag=     1.0000
       N       E                     dE             d eps       ncg     rms          rms(c)
DAV:   1    -0.231293893406E+04    0.57064E-03   -0.36906E-01  4416   0.649E-01    0.119E-01
RMM:   2    -0.231294037906E+04   -0.14450E-02   -0.15392E-02  5642   0.105E-01    0.572E-02
RMM:   3    -0.231294037682E+04    0.22394E-05   -0.10820E-03  4836   0.348E-02    0.535E-02
RMM:   4    -0.231294035989E+04    0.16936E-04   -0.11829E-04  3346   0.809E-03    0.438E-02
RMM:   5    -0.231294033007E+04    0.29816E-04   -0.71475E-05  3844   0.795E-03    0.168E-02
RMM:   6    -0.231294032753E+04    0.25369E-05   -0.16880E-05  2900   0.530E-03
  75 F= -.23334325E+04 E0= -.23334325E+04  d E =-.941129E-03  mag=     1.0000
       N       E                     dE             d eps       ncg     rms          rms(c)
DAV:   1    -0.231292773801E+04    0.12592E-01   -0.32950E+00  4416   0.194E+00    0.356E-01
RMM:   2    -0.231294058481E+04   -0.12847E-01   -0.13751E-01  5559   0.311E-01    0.167E-01
RMM:   3    -0.231294034609E+04    0.23872E-03   -0.94524E-03  5165   0.953E-02    0.119E-01
RMM:   4    -0.231294053290E+04   -0.18681E-03   -0.14866E-03  4832   0.264E-02    0.179E-01
RMM:   5    -0.231294012461E+04    0.40829E-03   -0.50640E-04  5226   0.200E-02    0.557E-02
RMM:   6    -0.231294010504E+04    0.19573E-04   -0.17770E-04  4215   0.971E-03    0.303E-02
RMM:   7    -0.231294009379E+04    0.11245E-04   -0.20469E-05  2944   0.586E-03    0.116E-02
RMM:   8    -0.231294009254E+04    0.12507E-05   -0.81920E-06  2844   0.303E-03
  76 F= -.23334326E+04 E0= -.23334326E+04  d E =-.108810E-02  mag=     1.0000
       N       E                     dE             d eps       ncg     rms          rms(c)
DAV:   1    -0.231293835093E+04    0.17429E-02   -0.63080E-01  4416   0.848E-01    0.155E-01
RMM:   2    -0.231294079880E+04   -0.24479E-02   -0.26214E-02  5571   0.136E-01    0.738E-02
RMM:   3    -0.231294076427E+04    0.34527E-04   -0.19204E-03  5087   0.423E-02    0.543E-02
RMM:   4    -0.231294079338E+04   -0.29107E-04   -0.26558E-04  4270   0.111E-02    0.738E-02
RMM:   5    -0.231294072484E+04    0.68535E-04   -0.94498E-05  3604   0.883E-03    0.282E-02
RMM:   6    -0.231294071778E+04    0.70676E-05   -0.40959E-05  3145   0.638E-03
  77 F= -.23334331E+04 E0= -.23334331E+04  d E =-.154677E-02  mag=     1.0000
       N       E                     dE             d eps       ncg     rms          rms(c)
DAV:   1    -0.231293939584E+04    0.13290E-02   -0.55801E-01  4416   0.786E-01    0.146E-01
RMM:   2    -0.231294166096E+04   -0.22651E-02   -0.24152E-02  5652   0.128E-01    0.754E-02
RMM:   3    -0.231294166967E+04   -0.87079E-05   -0.17995E-03  5004   0.423E-02    0.670E-02
RMM:   4    -0.231294164481E+04    0.24860E-04   -0.20029E-04  3658   0.985E-03    0.574E-02
RMM:   5    -0.231294159985E+04    0.44962E-04   -0.11323E-04  4099   0.936E-03    0.228E-02
RMM:   6    -0.231294159448E+04    0.53670E-05   -0.29659E-05  2962   0.612E-03
  78 F= -.23334341E+04 E0= -.23334341E+04  d E =-.104517E-02  mag=     1.0000
       N       E                     dE             d eps       ncg     rms          rms(c)
DAV:   1    -0.231293632913E+04    0.52707E-02   -0.13064E+00  4416   0.120E+00    0.227E-01
RMM:   2    -0.231294168440E+04   -0.53553E-02   -0.57095E-02  5619   0.196E-01    0.114E-01
RMM:   3    -0.231294168332E+04    0.10845E-05   -0.41779E-03  5104   0.588E-02    0.960E-02
RMM:   4    -0.231294165336E+04    0.29960E-04   -0.48445E-04  4826   0.145E-02    0.913E-02
RMM:   5    -0.231294154815E+04    0.10521E-03   -0.25895E-04  4635   0.128E-02    0.363E-02
RMM:   6    -0.231294153415E+04    0.14002E-04   -0.66218E-05  3486   0.807E-03    0.123E-02
RMM:   7    -0.231294153302E+04    0.11319E-05   -0.10454E-05  2862   0.471E-03
  79 F= -.23334343E+04 E0= -.23334343E+04  d E =-.124101E-02  mag=     1.0000
       N       E                     dE             d eps       ncg     rms          rms(c)
DAV:   1    -0.231294125420E+04    0.27995E-03   -0.11946E-01  4512   0.364E-01    0.673E-02
RMM:   2    -0.231294173160E+04   -0.47741E-03   -0.51234E-03  5721   0.595E-02    0.347E-02
RMM:   3    -0.231294173411E+04   -0.25037E-05   -0.39115E-04  3894   0.188E-02    0.284E-02
RMM:   4    -0.231294173189E+04    0.22189E-05   -0.43440E-05  2907   0.539E-03
  80 F= -.23334345E+04 E0= -.23334345E+04  d E =-.136232E-02  mag=     1.0000
       N       E                     dE             d eps       ncg     rms          rms(c)
DAV:   1    -0.231293940421E+04    0.23299E-02   -0.59426E-01  4416   0.822E-01    0.159E-01
RMM:   2    -0.231294246118E+04   -0.30570E-02   -0.32396E-02  5865   0.145E-01    0.804E-02
RMM:   3    -0.231294250919E+04   -0.48008E-04   -0.23720E-03  5349   0.422E-02    0.935E-02
RMM:   4    -0.231294245392E+04    0.55263E-04   -0.24749E-04  3451   0.999E-03    0.545E-02
RMM:   5    -0.231294240570E+04    0.48222E-04   -0.94215E-05  3997   0.913E-03    0.182E-02
RMM:   6    -0.231294240369E+04    0.20077E-05   -0.26402E-05  3018   0.664E-03
  81 F= -.23334354E+04 E0= -.23334354E+04  d E =-.907717E-03  mag=     1.0000
       N       E                     dE             d eps       ncg     rms          rms(c)
DAV:   1    -0.231293741996E+04    0.49857E-02   -0.94446E-01  4416   0.104E+00    0.202E-01
RMM:   2    -0.231294228324E+04   -0.48633E-02   -0.51602E-02  5782   0.182E-01    0.977E-02
RMM:   3    -0.231294226504E+04    0.18205E-04   -0.35066E-03  5254   0.523E-02    0.750E-02
RMM:   4    -0.231294234237E+04   -0.77335E-04   -0.46402E-04  4519   0.133E-02    0.105E-01
RMM:   5    -0.231294219772E+04    0.14465E-03   -0.17652E-04  4405   0.113E-02    0.221E-02
RMM:   6    -0.231294219714E+04    0.57902E-06   -0.39890E-05  3135   0.663E-03
  82 F= -.23334355E+04 E0= -.23334355E+04  d E =-.999210E-03  mag=     1.0000
       N       E                     dE             d eps       ncg     rms          rms(c)
DAV:   1    -0.231294196533E+04    0.23239E-03   -0.82965E-02  4496   0.307E-01    0.580E-02
RMM:   2    -0.231294238588E+04   -0.42055E-03   -0.44924E-03  6093   0.552E-02    0.288E-02
RMM:   3    -0.231294238313E+04    0.27447E-05   -0.31367E-04  3774   0.159E-02    0.202E-02
RMM:   4    -0.231294238116E+04    0.19669E-05   -0.36808E-05  2903   0.531E-03
  83 F= -.23334355E+04 E0= -.23334355E+04  d E =-.109534E-02  mag=     1.0000
       N       E                     dE             d eps       ncg     rms          rms(c)
DAV:   1    -0.231293949757E+04    0.28856E-02   -0.57005E-01  4416   0.809E-01    0.154E-01
RMM:   2    -0.231294300586E+04   -0.35083E-02   -0.37114E-02  5886   0.147E-01    0.768E-02
RMM:   3    -0.231294304679E+04   -0.40924E-04   -0.25938E-03  5142   0.418E-02    0.651E-02
RMM:   4    -0.231294303011E+04    0.16681E-04   -0.26765E-04  3486   0.102E-02    0.576E-02
RMM:   5    -0.231294298645E+04    0.43653E-04   -0.11495E-04  3990   0.935E-03    0.223E-02
RMM:   6    -0.231294298186E+04    0.45939E-05   -0.23048E-05  2919   0.598E-03
  84 F= -.23334365E+04 E0= -.23334365E+04  d E =-.910318E-03  mag=     1.0000
       N       E                     dE             d eps       ncg     rms          rms(c)
DAV:   1    -0.231291101003E+04    0.31976E-01   -0.51024E+00  4416   0.242E+00    0.461E-01
RMM:   2    -0.231294243465E+04   -0.31425E-01   -0.33327E-01  5833   0.438E-01    0.222E-01
RMM:   3    -0.231294256424E+04   -0.12959E-03   -0.23229E-02  5381   0.118E-01    0.159E-01
RMM:   4    -0.231294308508E+04   -0.52084E-03   -0.29814E-03  5111   0.323E-02    0.249E-01
RMM:   5    -0.231294227534E+04    0.80974E-03   -0.76948E-04  5284   0.227E-02    0.464E-02
RMM:   6    -0.231294228110E+04   -0.57534E-05   -0.20557E-04  4370   0.103E-02    0.235E-02
RMM:   7    -0.231294227839E+04    0.27061E-05   -0.28140E-05  2995   0.721E-03
  85 F= -.23334367E+04 E0= -.23334367E+04  d E =-.113269E-02  mag=     1.0000
       N       E                     dE             d eps       ncg     rms          rms(c)
DAV:   1    -0.231293777257E+04    0.45085E-02   -0.85818E-01  4416   0.993E-01    0.188E-01
RMM:   2    -0.231294303086E+04   -0.52583E-02   -0.55939E-02  5854   0.180E-01    0.912E-02
RMM:   3    -0.231294308070E+04   -0.49843E-04   -0.41591E-03  5251   0.499E-02    0.727E-02
RMM:   4    -0.231294313669E+04   -0.55990E-04   -0.46249E-04  4190   0.121E-02    0.910E-02
RMM:   5    -0.231294302541E+04    0.11128E-03   -0.13362E-04  3949   0.968E-03    0.253E-02
RMM:   6    -0.231294301862E+04    0.67885E-05   -0.44329E-05  3391   0.679E-03
  86 F= -.23334370E+04 E0= -.23334370E+04  d E =-.149374E-02  mag=     1.0000
       N       E                     dE             d eps       ncg     rms          rms(c)
DAV:   1    -0.231293802496E+04    0.50004E-02   -0.79437E-01  4416   0.950E-01    0.196E-01
RMM:   2    -0.231294360665E+04   -0.55817E-02   -0.58433E-02  5849   0.174E-01    0.135E-01
RMM:   3    -0.231294385244E+04   -0.24579E-03   -0.51558E-03  5388   0.579E-02    0.140E-01
RMM:   4    -0.231294361524E+04    0.23721E-03   -0.52166E-04  4361   0.139E-02    0.652E-02
RMM:   5    -0.231294357065E+04    0.44582E-04   -0.14646E-04  4043   0.940E-03    0.438E-02
RMM:   6    -0.231294353974E+04    0.30915E-04   -0.12125E-04  4114   0.924E-03    0.116E-02
RMM:   7    -0.231294353849E+04    0.12478E-05   -0.96720E-06  2852   0.557E-03
  87 F= -.23334381E+04 E0= -.23334381E+04  d E =-.108144E-02  mag=     1.0000
       N       E                     dE             d eps       ncg     rms          rms(c)
DAV:   1    -0.231293825007E+04    0.52897E-02   -0.70147E-01  4416   0.893E-01    0.187E-01
RMM:   2    -0.231294322392E+04   -0.49739E-02   -0.51936E-02  5874   0.164E-01    0.130E-01
RMM:   3    -0.231294344383E+04   -0.21990E-03   -0.45516E-03  5377   0.489E-02    0.135E-01
RMM:   4    -0.231294322171E+04    0.22212E-03   -0.46941E-04  4096   0.129E-02    0.612E-02
RMM:   5    -0.231294318445E+04    0.37257E-04   -0.12969E-04  3922   0.877E-03    0.416E-02
RMM:   6    -0.231294315774E+04    0.26711E-04   -0.10960E-04  4020   0.878E-03    0.112E-02
RMM:   7    -0.231294315665E+04    0.10965E-05   -0.92161E-06  2849   0.531E-03
  88 F= -.23334383E+04 E0= -.23334383E+04  d E =-.122632E-02  mag=     1.0000
       N       E                     dE             d eps       ncg     rms          rms(c)
DAV:   1    -0.231294302769E+04    0.13005E-03   -0.44542E-02  4576   0.225E-01    0.458E-02
RMM:   2    -0.231294333554E+04   -0.30785E-03   -0.32443E-03  5829   0.409E-02    0.299E-02
RMM:   3    -0.231294334872E+04   -0.13175E-04   -0.28332E-04  3271   0.125E-02    0.304E-02
RMM:   4    -0.231294333857E+04    0.10143E-04   -0.29059E-05  2848   0.418E-03    0.163E-02
RMM:   5    -0.231294333579E+04    0.27821E-05   -0.85755E-06  2725   0.275E-03
  89 F= -.23334383E+04 E0= -.23334383E+04  d E =-.127316E-02  mag=     1.0000
       N       E                     dE             d eps       ncg     rms          rms(c)
DAV:   1    -0.231294043712E+04    0.29015E-02   -0.37513E-01  4416   0.659E-01    0.148E-01
RMM:   2    -0.231294355286E+04   -0.31157E-02   -0.32722E-02  5870   0.129E-01    0.885E-02
RMM:   3    -0.231294371241E+04   -0.15956E-03   -0.27392E-03  5183   0.371E-02    0.102E-01
RMM:   4    -0.231294358530E+04    0.12711E-03   -0.26976E-04  3448   0.973E-03    0.443E-02
RMM:   5    -0.231294355442E+04    0.30884E-04   -0.92697E-05  3789   0.824E-03    0.185E-02
RMM:   6    -0.231294355102E+04    0.34010E-05   -0.26736E-05  2939   0.559E-03
  90 F= -.23334389E+04 E0= -.23334389E+04  d E =-.625900E-03  mag=     1.0000
       N       E                     dE             d eps       ncg     rms          rms(c)
DAV:   1    -0.231294072386E+04    0.28306E-02   -0.29758E-01  4416   0.587E-01    0.134E-01
RMM:   2    -0.231294321477E+04   -0.24909E-02   -0.26245E-02  5887   0.115E-01    0.767E-02
RMM:   3    -0.231294334251E+04   -0.12774E-03   -0.21747E-03  5136   0.322E-02    0.889E-02
RMM:   4    -0.231294324857E+04    0.93947E-04   -0.21627E-04  3239   0.870E-03    0.402E-02
RMM:   5    -0.231294322345E+04    0.25117E-04   -0.71166E-05  3522   0.737E-03    0.159E-02
RMM:   6    -0.231294322112E+04    0.23293E-05   -0.20931E-05  2904   0.517E-03
  91 F= -.23334390E+04 E0= -.23334390E+04  d E =-.661417E-03  mag=     1.0000
       N       E                     dE             d eps       ncg     rms          rms(c)
DAV:   1    -0.231294022513E+04    0.29983E-02   -0.41667E-01  4416   0.686E-01    0.152E-01
RMM:   2    -0.231294330119E+04   -0.30761E-02   -0.31711E-02  5940   0.131E-01    0.110E-01
RMM:   3    -0.231294344297E+04   -0.14178E-03   -0.27426E-03  5296   0.392E-02    0.119E-01
RMM:   4    -0.231294326061E+04    0.18236E-03   -0.27492E-04  3469   0.104E-02    0.437E-02
RMM:   5    -0.231294323938E+04    0.21229E-04   -0.90970E-05  3724   0.813E-03    0.283E-02
RMM:   6    -0.231294322912E+04    0.10264E-04   -0.47744E-05  3110   0.649E-03    0.940E-03
RMM:   7    -0.231294322841E+04    0.71005E-06   -0.64578E-06  2821   0.434E-03
  92 F= -.23334394E+04 E0= -.23334394E+04  d E =-.427063E-03  mag=     1.0000
       N       E                     dE             d eps       ncg     rms          rms(c)
DAV:   1    -0.231294212231E+04    0.11068E-02   -0.12811E-01  4448   0.380E-01    0.847E-02
RMM:   2    -0.231294307789E+04   -0.95559E-03   -0.97729E-03  5935   0.724E-02    0.658E-02
RMM:   3    -0.231294311414E+04   -0.36250E-04   -0.84956E-04  4435   0.226E-02    0.674E-02
RMM:   4    -0.231294305555E+04    0.58592E-04   -0.85864E-05  2963   0.657E-03    0.244E-02
RMM:   5    -0.231294304961E+04    0.59391E-05   -0.28024E-05  3030   0.494E-03
  93 F= -.23334395E+04 E0= -.23334395E+04  d E =-.480166E-03  mag=     1.0000
       N       E                     dE             d eps       ncg     rms          rms(c)
DAV:   1    -0.231294283455E+04    0.22100E-03   -0.16010E-01  4432   0.407E-01    0.966E-02
RMM:   2    -0.231294350467E+04   -0.67012E-03   -0.67737E-03  5803   0.720E-02    0.789E-02
RMM:   3    -0.231294349411E+04    0.10558E-04   -0.47454E-04  4446   0.240E-02    0.834E-02
RMM:   4    -0.231294340684E+04    0.87274E-04   -0.75439E-05  3072   0.756E-03    0.279E-02
RMM:   5    -0.231294340056E+04    0.62780E-05   -0.35098E-05  3098   0.603E-03
  94 F= -.23334400E+04 E0= -.23334400E+04  d E =-.532720E-03  mag=     1.0000
       N       E                     dE             d eps       ncg     rms          rms(c)
DAV:   1    -0.231294308238E+04    0.32446E-03   -0.69104E-02  4512   0.267E-01    0.637E-02
RMM:   2    -0.231294337002E+04   -0.28765E-03   -0.29168E-03  5954   0.475E-02    0.506E-02
RMM:   3    -0.231294336927E+04    0.75396E-06   -0.21120E-04  3792   0.154E-02    0.560E-02
RMM:   4    -0.231294332998E+04    0.39291E-04   -0.32379E-05  2909   0.569E-03    0.180E-02
RMM:   5    -0.231294332779E+04    0.21943E-05   -0.17061E-05  2922   0.429E-03
  95 F= -.23334400E+04 E0= -.23334400E+04  d E =-.579913E-03  mag=     1.0000
       N       E                     dE             d eps       ncg     rms          rms(c)
DAV:   1    -0.231294291104E+04    0.41894E-03   -0.15824E-01  4432   0.419E-01    0.928E-02
RMM:   2    -0.231294372279E+04   -0.81175E-03   -0.87256E-03  5924   0.791E-02    0.414E-02
RMM:   3    -0.231294368862E+04    0.34173E-04   -0.37419E-04  4721   0.227E-02    0.317E-02
[...]
 140 F= -.23334439E+04 E0= -.23334439E+04  d E =-.354137E-04  mag=     1.0000
       N       E                     dE             d eps       ncg     rms          rms(c)
DAV:   1    -0.231294422897E+04    0.68416E-04   -0.16747E-02  4448   0.141E-01    0.321E-02
RMM:   2    -0.231294430052E+04   -0.71551E-04   -0.78435E-04  5765   0.257E-02    0.138E-02
RMM:   3    -0.231294429649E+04    0.40319E-05   -0.37410E-05  2909   0.813E-03
 141 F= -.23334440E+04 E0= -.23334440E+04  d E =-.454849E-04  mag=     1.0000
       N       E                     dE             d eps       ncg     rms          rms(c)
DAV:   1    -0.231294427865E+04    0.21865E-04   -0.90019E-04  5128   0.330E-02    0.937E-03
RMM:   2    -0.231294428490E+04   -0.62488E-05   -0.48536E-05  3535   0.655E-03
 142 F= -.23334440E+04 E0= -.23334440E+04  d E =-.450614E-04  mag=     1.0000
       N       E                     dE             d eps       ncg     rms          rms(c)
DAV:   1    -0.231294428891E+04   -0.10259E-04   -0.29818E-04  4368   0.190E-02    0.621E-03
RMM:   2    -0.231294429220E+04   -0.32874E-05   -0.14767E-05  2586   0.413E-03
 143 F= -.23334440E+04 E0= -.23334440E+04  d E =-.464093E-04  mag=     1.0000
       N       E                     dE             d eps       ncg     rms          rms(c)
DAV:   1    -0.231294424048E+04    0.48438E-04   -0.13323E-02  4448   0.124E-01    0.292E-02
RMM:   2    -0.231294428913E+04   -0.48652E-04   -0.53346E-04  5728   0.228E-02    0.142E-02
RMM:   3    -0.231294428898E+04    0.14811E-06   -0.34356E-05  2910   0.830E-03
 144 F= -.23334440E+04 E0= -.23334440E+04  d E =-.360452E-04  mag=     1.0000
       N       E                     dE             d eps       ncg     rms          rms(c)
DAV:   1    -0.231294428179E+04    0.73413E-05   -0.11938E-04  5368   0.121E-02    0.913E-03
RMM:   2    -0.231294428397E+04   -0.21807E-05   -0.97986E-06  2512   0.302E-03
 145 F= -.23334440E+04 E0= -.23334440E+04  d E =-.344649E-04  mag=     1.0000
       N       E                     dE             d eps       ncg     rms          rms(c)
DAV:   1    -0.231294422728E+04    0.54510E-04   -0.12406E-02  4448   0.119E-01    0.274E-02
RMM:   2    -0.231294427070E+04   -0.43420E-04   -0.47867E-04  5630   0.201E-02    0.160E-02
RMM:   3    -0.231294427118E+04   -0.48580E-06   -0.33098E-05  2875   0.793E-03
 146 F= -.23334440E+04 E0= -.23334440E+04  d E =-.260494E-04  mag=     1.0000
       N       E                     dE             d eps       ncg     rms          rms(c)
DAV:   1    -0.231294426346E+04    0.72391E-05   -0.84176E-05  5384   0.100E-02    0.934E-03
RMM:   2    -0.231294426552E+04   -0.20630E-05   -0.81781E-06  2417   0.270E-03
 147 F= -.23334440E+04 E0= -.23334440E+04  d E =-.232106E-04  mag=     1.0000
       N       E                     dE             d eps       ncg     rms          rms(c)
DAV:   1    -0.231294422134E+04    0.42120E-04   -0.76813E-03  4448   0.948E-02    0.213E-02
RMM:   2    -0.231294425137E+04   -0.30033E-04   -0.33411E-04  5600   0.165E-02    0.105E-02
RMM:   3    -0.231294424999E+04    0.13818E-05   -0.23005E-05  2768   0.633E-03
 148 F= -.23334441E+04 E0= -.23334441E+04  d E =-.217405E-04  mag=     1.0000
       N       E                     dE             d eps       ncg     rms          rms(c)
DAV:   1    -0.231294422410E+04    0.27272E-04   -0.21584E-03  4480   0.503E-02    0.141E-02
RMM:   2    -0.231294423696E+04   -0.12865E-04   -0.96721E-05  4009   0.894E-03    0.215E-02
RMM:   3    -0.231294423193E+04    0.50321E-05   -0.11779E-05  2713   0.434E-03
 149 F= -.23334441E+04 E0= -.23334441E+04  d E =-.236642E-04  mag=     1.0000
       N       E                     dE             d eps       ncg     rms          rms(c)
DAV:   1    -0.231294419404E+04    0.42927E-04   -0.76391E-03  4448   0.958E-02    0.222E-02
RMM:   2    -0.231294423162E+04   -0.37582E-04   -0.41257E-04  5792   0.179E-02    0.112E-02
RMM:   3    -0.231294423163E+04   -0.73342E-08   -0.27895E-05  2831   0.598E-03
 150 F= -.23334441E+04 E0= -.23334441E+04  d E =-.339985E-04  mag=     1.0000
       N       E                     dE             d eps       ncg     rms          rms(c)
DAV:   1    -0.231294420895E+04    0.22666E-04   -0.17003E-03  4648   0.455E-02    0.138E-02
RMM:   2    -0.231294421987E+04   -0.10920E-04   -0.99233E-05  4236   0.900E-03    0.178E-02
RMM:   3    -0.231294421732E+04    0.25545E-05   -0.12533E-05  2719   0.434E-03
 151 F= -.23334441E+04 E0= -.23334441E+04  d E =-.359078E-04  mag=     1.0000
       N       E                     dE             d eps       ncg     rms          rms(c)
DAV:   1    -0.231294418523E+04    0.34641E-04   -0.77858E-03  4448   0.952E-02    0.220E-02
RMM:   2    -0.231294421532E+04   -0.30093E-04   -0.33473E-04  5632   0.166E-02    0.109E-02
RMM:   3    -0.231294421452E+04    0.79864E-06   -0.22510E-05  2820   0.603E-03
 152 F= -.23334441E+04 E0= -.23334441E+04  d E =-.278046E-04  mag=     1.0000
       N       E                     dE             d eps       ncg     rms          rms(c)
DAV:   1    -0.231294418962E+04    0.25706E-04   -0.26060E-03  4520   0.553E-02    0.153E-02
RMM:   2    -0.231294420239E+04   -0.12769E-04   -0.11503E-04  4420   0.985E-03    0.189E-02
RMM:   3    -0.231294419939E+04    0.30013E-05   -0.12978E-05  2769   0.449E-03
 153 F= -.23334441E+04 E0= -.23334441E+04  d E =-.304116E-04  mag=     1.0000
       N       E                     dE             d eps       ncg     rms          rms(c)
DAV:   1    -0.231294417840E+04    0.23982E-04   -0.91935E-03  4448   0.102E-01    0.225E-02
RMM:   2    -0.231294420891E+04   -0.30507E-04   -0.33660E-04  5433   0.169E-02    0.123E-02
RMM:   3    -0.231294420890E+04    0.14814E-07   -0.26397E-05  2841   0.651E-03
 154 F= -.23334442E+04 E0= -.23334442E+04  d E =-.339170E-04  mag=     1.0000
       N       E                     dE             d eps       ncg     rms          rms(c)
DAV:   1    -0.231294416408E+04    0.44831E-04   -0.76306E-03  4440   0.929E-02    0.219E-02
RMM:   2    -0.231294418923E+04   -0.25148E-04   -0.28399E-04  5361   0.154E-02    0.148E-02
RMM:   3    -0.231294419060E+04   -0.13669E-05   -0.27238E-05  2851   0.633E-03
 155 F= -.23334442E+04 E0= -.23334442E+04  d E =-.378295E-04  mag=     1.0000
       N       E                     dE             d eps       ncg     rms          rms(c)
DAV:   1    -0.231294417895E+04    0.10275E-04   -0.59364E-03  4464   0.816E-02    0.178E-02
RMM:   2    -0.231294419840E+04   -0.19450E-04   -0.21432E-04  5092   0.138E-02    0.126E-02
RMM:   3    -0.231294419901E+04   -0.60888E-06   -0.18475E-05  2815   0.551E-03
 156 F= -.23334442E+04 E0= -.23334442E+04  d E =-.223520E-04  mag=     1.0000
       N       E                     dE             d eps       ncg     rms          rms(c)
DAV:   1    -0.231294415596E+04    0.42441E-04   -0.11639E-02  4440   0.114E-01    0.238E-02
RMM:   2    -0.231294419345E+04   -0.37491E-04   -0.41267E-04  5492   0.186E-02    0.152E-02
RMM:   3    -0.231294419439E+04   -0.93889E-06   -0.34108E-05  2867   0.652E-03
 157 F= -.23334442E+04 E0= -.23334442E+04  d E =-.372091E-04  mag=     1.0000
       N       E                     dE             d eps       ncg     rms          rms(c)
DAV:   1    -0.231294420667E+04   -0.13213E-04   -0.38789E-03  4480   0.668E-02    0.183E-02
RMM:   2    -0.231294422020E+04   -0.13531E-04   -0.16097E-04  5122   0.123E-02    0.104E-02
RMM:   3    -0.231294422068E+04   -0.48167E-06   -0.14549E-05  2785   0.520E-03
 158 F= -.23334442E+04 E0= -.23334442E+04  d E =-.314527E-04  mag=     1.0000
       N       E                     dE             d eps       ncg     rms          rms(c)
DAV:   1    -0.231294421349E+04    0.67074E-05   -0.36341E-03  4488   0.644E-02    0.183E-02
RMM:   2    -0.231294422872E+04   -0.15229E-04   -0.14968E-04  5092   0.116E-02    0.187E-02
RMM:   3    -0.231294422664E+04    0.20817E-05   -0.13632E-05  2837   0.461E-03
 159 F= -.23334442E+04 E0= -.23334442E+04  d E =-.424155E-04  mag=     1.0000
       N       E                     dE             d eps       ncg     rms          rms(c)
DAV:   1    -0.231294423605E+04   -0.73331E-05   -0.23160E-03  4528   0.514E-02    0.151E-02
RMM:   2    -0.231294424193E+04   -0.58746E-05   -0.73825E-05  3835   0.898E-03
 160 F= -.23334443E+04 E0= -.23334443E+04  d E =-.189577E-04  mag=     1.0000
       N       E                     dE             d eps       ncg     rms          rms(c)
DAV:   1    -0.231294424203E+04   -0.59766E-05   -0.14734E-03  4816   0.413E-02    0.128E-02
RMM:   2    -0.231294424599E+04   -0.39631E-05   -0.49907E-05  3338   0.815E-03
 161 F= -.23334443E+04 E0= -.23334443E+04  d E =-.259497E-04  mag=     1.0000
       N       E                     dE             d eps       ncg     rms          rms(c)
DAV:   1    -0.231294424650E+04   -0.44692E-05   -0.21494E-03  4448   0.498E-02    0.170E-02
RMM:   2    -0.231294426426E+04   -0.17762E-04   -0.10044E-04  4084   0.109E-02    0.315E-02
RMM:   3    -0.231294425300E+04    0.11260E-04   -0.16677E-05  2751   0.534E-03    0.895E-03
RMM:   4    -0.231294425185E+04    0.11539E-05   -0.26093E-06  2573   0.236E-03
 162 F= -.23334443E+04 E0= -.23334443E+04  d E =-.163270E-04  mag=     1.0000
       N       E                     dE             d eps       ncg     rms          rms(c)
DAV:   1    -0.231294424649E+04    0.65126E-05   -0.48557E-04  4840   0.235E-02    0.617E-03
RMM:   2    -0.231294424814E+04   -0.16491E-05   -0.17876E-05  2639   0.468E-03
 163 F= -.23334443E+04 E0= -.23334443E+04  d E =-.177469E-04  mag=     1.0000
       N       E                     dE             d eps       ncg     rms          rms(c)
DAV:   1    -0.231294424752E+04   -0.10304E-05   -0.18508E-03  4432   0.457E-02    0.119E-02
RMM:   2    -0.231294425567E+04   -0.81513E-05   -0.66673E-05  3592   0.915E-03
 164 F= -.23334443E+04 E0= -.23334443E+04  d E =-.173177E-04  mag=     1.0000
       N       E                     dE             d eps       ncg     rms          rms(c)
DAV:   1    -0.231294425113E+04   -0.36086E-05   -0.46453E-04  4600   0.234E-02    0.101E-02
RMM:   2    -0.231294425744E+04   -0.63119E-05   -0.25497E-05  2824   0.563E-03
 165 F= -.23334443E+04 E0= -.23334443E+04  d E =-.238342E-04  mag=     1.0000
       N       E                     dE             d eps       ncg     rms          rms(c)
DAV:   1    -0.231294423906E+04    0.12068E-04   -0.17629E-03  4432   0.448E-02    0.122E-02
RMM:   2    -0.231294424432E+04   -0.52632E-05   -0.61952E-05  3572   0.916E-03
 166 F= -.23334443E+04 E0= -.23334443E+04  d E =-.202028E-04  mag=     1.0000
       N       E                     dE             d eps       ncg     rms          rms(c)
DAV:   1    -0.231294425535E+04   -0.16287E-04   -0.22296E-03  4448   0.507E-02    0.160E-02
RMM:   2    -0.231294427289E+04   -0.17548E-04   -0.10060E-04  4239   0.110E-02    0.311E-02
RMM:   3    -0.231294426181E+04    0.11085E-04   -0.16673E-05  2715   0.542E-03    0.807E-03
RMM:   4    -0.231294426088E+04    0.92451E-06   -0.24202E-06  2501   0.225E-03
 167 F= -.23334443E+04 E0= -.23334443E+04  d E =-.196293E-04  mag=     1.0000
       N       E                     dE             d eps       ncg     rms          rms(c)
DAV:   1    -0.231294423428E+04    0.27526E-04   -0.10058E-02  4464   0.107E-01    0.241E-02
RMM:   2    -0.231294426580E+04   -0.31517E-04   -0.35074E-04  5641   0.180E-02    0.126E-02
RMM:   3    -0.231294426625E+04   -0.44925E-06   -0.22145E-05  2868   0.641E-03
 168 F= -.23334443E+04 E0= -.23334443E+04  d E =-.315531E-04  mag=     1.0000
       N       E                     dE             d eps       ncg     rms          rms(c)
DAV:   1    -0.231294427006E+04   -0.42621E-05   -0.20138E-03  4680   0.476E-02    0.122E-02
RMM:   2    -0.231294427621E+04   -0.61522E-05   -0.65821E-05  3828   0.827E-03
 169 F= -.23334444E+04 E0= -.23334444E+04  d E =-.127347E-04  mag=     1.0000
       N       E                     dE             d eps       ncg     rms          rms(c)
DAV:   1    -0.231294427461E+04   -0.45483E-05   -0.23339E-03  4448   0.514E-02    0.147E-02
RMM:   2    -0.231294428702E+04   -0.12409E-04   -0.89790E-05  4067   0.103E-02    0.243E-02
RMM:   3    -0.231294428074E+04    0.62814E-05   -0.12854E-05  2733   0.512E-03
 170 F= -.23334444E+04 E0= -.23334444E+04  d E =-.202248E-04  mag=     1.0000
       N       E                     dE             d eps       ncg     rms          rms(c)
DAV:   1    -0.231294429260E+04   -0.55821E-05   -0.11704E-03  4496   0.364E-02    0.111E-02
RMM:   2    -0.231294429637E+04   -0.37701E-05   -0.43466E-05  3364   0.726E-03
 171 F= -.23334444E+04 E0= -.23334444E+04  d E =-.241728E-04  mag=     1.0000
       N       E                     dE             d eps       ncg     rms          rms(c)
DAV:   1    -0.231294429685E+04   -0.42497E-05   -0.99792E-04  4520   0.339E-02    0.156E-02
RMM:   2    -0.231294431437E+04   -0.17516E-04   -0.58815E-05  3582   0.780E-03    0.365E-02
RMM:   3    -0.231294429811E+04    0.16251E-04   -0.13729E-05  2641   0.482E-03    0.596E-03
RMM:   4    -0.231294429751E+04    0.60079E-06   -0.31769E-06  2480   0.190E-03
 172 F= -.23334444E+04 E0= -.23334444E+04  d E =-.331037E-04  mag=     1.0000
       N       E                     dE             d eps       ncg     rms          rms(c)
DAV:   1    -0.231294425731E+04    0.40801E-04   -0.39417E-03  4448   0.668E-02    0.194E-02
RMM:   2    -0.231294427111E+04   -0.13793E-04   -0.15506E-04  5089   0.126E-02    0.137E-02
RMM:   3    -0.231294427218E+04   -0.10736E-05   -0.14246E-05  2836   0.535E-03
 173 F= -.23334444E+04 E0= -.23334444E+04  d E =-.233370E-04  mag=     1.0000
       N       E                     dE             d eps       ncg     rms          rms(c)
DAV:   1    -0.231294428675E+04   -0.15647E-04   -0.21977E-03  4392   0.499E-02    0.134E-02
RMM:   2    -0.231294429607E+04   -0.93114E-05   -0.89758E-05  4323   0.951E-03
 174 F= -.23334444E+04 E0= -.23334444E+04  d E =-.358134E-04  mag=     1.0000
       N       E                     dE             d eps       ncg     rms          rms(c)
DAV:   1    -0.231294429139E+04   -0.46335E-05   -0.11634E-03  4408   0.363E-02    0.135E-02
RMM:   2    -0.231294430615E+04   -0.14758E-04   -0.56239E-05  3284   0.745E-03    0.313E-02
RMM:   3    -0.231294429432E+04    0.11828E-04   -0.12314E-05  2383   0.451E-03    0.463E-03
RMM:   4    -0.231294429401E+04    0.30943E-06   -0.16363E-06  2226   0.164E-03
 175 F= -.23334444E+04 E0= -.23334444E+04  d E =-.834085E-05  mag=     1.0000
       N       E                     dE             d eps       ncg     rms          rms(c)
DAV:   1    -0.231294429002E+04    0.42953E-05   -0.27609E-04  4352   0.176E-02    0.423E-03
RMM:   2    -0.231294429089E+04   -0.86534E-06   -0.10186E-05  2404   0.364E-03
 176 F= -.23334444E+04 E0= -.23334444E+04  d E =-.103409E-04  mag=     1.0000
       N       E                     dE             d eps       ncg     rms          rms(c)
DAV:   1    -0.231294429661E+04   -0.65913E-05   -0.10620E-03  4392   0.356E-02    0.105E-02
RMM:   2    -0.231294430129E+04   -0.46765E-05   -0.46601E-05  3483   0.759E-03
 177 F= -.23334444E+04 E0= -.23334444E+04  d E =-.151593E-04  mag=     1.0000
       N       E                     dE             d eps       ncg     rms          rms(c)
DAV:   1    -0.231294430078E+04   -0.41709E-05   -0.25995E-04  5088   0.181E-02    0.106E-02
RMM:   2    -0.231294430926E+04   -0.84748E-05   -0.24164E-05  2717   0.482E-03
 178 F= -.23334444E+04 E0= -.23334444E+04  d E =-.253961E-04  mag=     1.0000
       N       E                     dE             d eps       ncg     rms          rms(c)
DAV:   1    -0.231294429160E+04    0.91799E-05   -0.10024E-03  4448   0.349E-02    0.110E-02
RMM:   2    -0.231294429479E+04   -0.31804E-05   -0.45262E-05  3473   0.755E-03
 179 F= -.23334444E+04 E0= -.23334444E+04  d E =-.154525E-04  mag=     1.0000
       N       E                     dE             d eps       ncg     rms          rms(c)
DAV:   1    -0.231294429774E+04   -0.61368E-05   -0.46881E-04  4168   0.238E-02    0.892E-03
RMM:   2    -0.231294430414E+04   -0.63970E-05   -0.26135E-05  2737   0.552E-03
 180 F= -.23334444E+04 E0= -.23334444E+04  d E =-.217226E-04  mag=     1.0000
       N       E                     dE             d eps       ncg     rms          rms(c)
DAV:   1    -0.231294429684E+04    0.89902E-06   -0.12840E-04  4568   0.126E-02    0.320E-03
RMM:   2    -0.231294429766E+04   -0.81732E-06   -0.59607E-06  2360   0.247E-03
 181 F= -.23334444E+04 E0= -.23334444E+04  d E =-.167864E-04  mag=     1.0000
       N       E                     dE             d eps       ncg     rms          rms(c)
DAV:   1    -0.231294429833E+04   -0.14846E-05   -0.32744E-05  3528   0.628E-03    0.248E-03
RMM:   2    -0.231294429891E+04   -0.58280E-06   -0.18970E-06  2211   0.159E-03
 182 F= -.23334444E+04 E0= -.23334444E+04  d E =-.172094E-04  mag=     1.0000
       N       E                     dE             d eps       ncg     rms          rms(c)
DAV:   1    -0.231294429943E+04   -0.11040E-05   -0.12632E-03  4368   0.382E-02    0.842E-03
RMM:   2    -0.231294430510E+04   -0.56664E-05   -0.60825E-05  3478   0.741E-03
 183 F= -.23334444E+04 E0= -.23334444E+04  d E =-.757780E-05  mag=     1.0000
       N       E                     dE             d eps       ncg     rms          rms(c)
DAV:   1    -0.231294430538E+04   -0.59520E-05   -0.16347E-05  3152   0.578E-03    0.741E-03
RMM:   2    -0.231294431123E+04   -0.58480E-05   -0.98783E-06  2327   0.345E-03
 184 F= -.23334444E+04 E0= -.23334444E+04  d E =-.138246E-04  mag=     1.0000
       N       E                     dE             d eps       ncg     rms          rms(c)
DAV:   1    -0.231294430588E+04   -0.50134E-06   -0.97804E-04  4392   0.330E-02    0.791E-03
RMM:   2    -0.231294430921E+04   -0.33295E-05   -0.37753E-05  2832   0.638E-03
 185 F= -.23334444E+04 E0= -.23334444E+04  d E =-.560726E-05  mag=     1.0000
       N       E                     dE             d eps       ncg     rms          rms(c)
DAV:   1    -0.231294430392E+04    0.19635E-05   -0.79269E-04  4384   0.301E-02    0.106E-02
RMM:   2    -0.231294431243E+04   -0.85116E-05   -0.43149E-05  3238   0.683E-03
 186 F= -.23334445E+04 E0= -.23334445E+04  d E =-.158373E-04  mag=     1.0000
       N       E                     dE             d eps       ncg     rms          rms(c)
DAV:   1    -0.231294430410E+04   -0.17972E-06   -0.92926E-04  4424   0.323E-02    0.852E-03
RMM:   2    -0.231294430686E+04   -0.27631E-05   -0.36188E-05  3139   0.700E-03
 187 F= -.23334445E+04 E0= -.23334445E+04  d E =-.153510E-05  mag=     1.0000
       N       E                     dE             d eps       ncg     rms          rms(c)
DAV:   1    -0.231294430543E+04   -0.13278E-05   -0.15554E-04  5144   0.138E-02    0.908E-03
RMM:   2    -0.231294431224E+04   -0.68103E-05   -0.16061E-05  2502   0.376E-03
 188 F= -.23334445E+04 E0= -.23334445E+04  d E =-.980123E-05  mag=     1.0000
       N       E                     dE             d eps       ncg     rms          rms(c)
DAV:   1    -0.231294430848E+04   -0.30476E-05   -0.68659E-04  4328   0.277E-02    0.653E-03
RMM:   2    -0.231294431066E+04   -0.21820E-05   -0.26839E-05  2580   0.566E-03
 189 F= -.23334445E+04 E0= -.23334445E+04  d E =-.113480E-06  mag=     1.0000
       N       E                     dE             d eps       ncg     rms          rms(c)
DAV:   1    -0.231294431085E+04   -0.23731E-05   -0.52137E-04  4272   0.242E-02    0.614E-03
RMM:   2    -0.231294431338E+04   -0.25305E-05   -0.22414E-05  2649   0.558E-03
 190 F= -.23334445E+04 E0= -.23334445E+04  d E =-.434671E-05  mag=     1.0000
       N       E                     dE             d eps       ncg     rms          rms(c)
DAV:   1    -0.231294431585E+04   -0.50022E-05   -0.53157E-04  4320   0.242E-02    0.660E-03
RMM:   2    -0.231294431783E+04   -0.19820E-05   -0.20976E-05  2491   0.556E-03
 191 F= -.23334445E+04 E0= -.23334445E+04  d E =-.856602E-05  mag=     1.0000
