       N       E                     dE             d eps       ncg     rms          rms(c)
DAV:   1     0.128288895949E+05    0.12829E+05   -0.83751E+05  4464   0.144E+03
DAV:   2    -0.107407119215E+04   -0.13903E+05   -0.13321E+05  5336   0.331E+02
DAV:   3    -0.248330789610E+04   -0.14092E+04   -0.13961E+04  5368   0.111E+02
DAV:   4    -0.252894083936E+04   -0.45633E+02   -0.45371E+02  6672   0.296E+01
DAV:   5    -0.252982451322E+04   -0.88367E+00   -0.88186E+00  5632   0.334E+00    0.171E+02
RMM:   6    -0.148541664987E+04    0.10444E+04   -0.19624E+03  4425   0.390E+01    0.745E+01
RMM:   7    -0.166793133140E+04   -0.18251E+03   -0.30011E+02  5048   0.143E+01    0.565E+01
RMM:   8    -0.170619480935E+04   -0.38263E+02   -0.88129E+01  5237   0.838E+00    0.435E+01
RMM:   9    -0.176236033680E+04   -0.56166E+02   -0.60486E+01  5092   0.689E+00    0.353E+01
RMM:  10    -0.190388652752E+04   -0.14153E+03   -0.66204E+01  4975   0.771E+00    0.268E+01
RMM:  11    -0.199697848444E+04   -0.93092E+02   -0.40704E+01  5010   0.568E+00    0.178E+01
RMM:  12    -0.208381519338E+04   -0.86837E+02   -0.35014E+01  4733   0.465E+00    0.133E+01
RMM:  13    -0.222091836978E+04   -0.13710E+03   -0.11001E+02  4492   0.754E+00    0.946E+00
RMM:  14    -0.229443284494E+04   -0.73514E+02   -0.70335E+01  4504   0.577E+00    0.615E+00
RMM:  15    -0.231120849203E+04   -0.16776E+02   -0.16923E+01  4867   0.343E+00    0.756E+00
RMM:  16    -0.231155672837E+04   -0.34824E+00   -0.25459E+00  5603   0.114E+00    0.699E+00
RMM:  17    -0.231304939590E+04   -0.14927E+01   -0.62039E-01  4538   0.545E-01    0.639E+00
RMM:  18    -0.231717381789E+04   -0.41244E+01   -0.31309E+00  4421   0.130E+00    0.640E+00
RMM:  19    -0.231985115193E+04   -0.26773E+01   -0.11820E+00  4466   0.847E-01    0.302E+00
RMM:  20    -0.232043626363E+04   -0.58511E+00   -0.24691E-01  4582   0.389E-01    0.261E+00
RMM:  21    -0.232048232996E+04   -0.46066E-01   -0.44419E-02  5013   0.153E-01    0.239E+00
RMM:  22    -0.232082954552E+04   -0.34722E+00   -0.16491E-01  4505   0.268E-01    0.192E+00
RMM:  23    -0.232105998360E+04   -0.23044E+00   -0.14840E-01  4829   0.218E-01    0.134E+00
RMM:  24    -0.232121824413E+04   -0.15826E+00   -0.13198E-01  4679   0.190E-01    0.715E-01
RMM:  25    -0.232127980513E+04   -0.61561E-01   -0.48220E-02  4636   0.140E-01    0.476E-01
RMM:  26    -0.232131576337E+04   -0.35958E-01   -0.20205E-02  4562   0.957E-02    0.389E-01
RMM:  27    -0.232132817298E+04   -0.12410E-01   -0.73864E-03  4666   0.665E-02    0.208E-01
RMM:  28    -0.232133395682E+04   -0.57838E-02   -0.19078E-03  4627   0.429E-02    0.128E-01
RMM:  29    -0.232134211323E+04   -0.81564E-02   -0.17185E-03  4460   0.318E-02    0.120E-01
RMM:  30    -0.232134784584E+04   -0.57326E-02   -0.16120E-03  4477   0.304E-02    0.576E-02
RMM:  31    -0.232135038813E+04   -0.25423E-02   -0.69408E-04  4713   0.245E-02    0.523E-02
RMM:  32    -0.232135239265E+04   -0.20045E-02   -0.54871E-04  4159   0.159E-02    0.532E-02
RMM:  33    -0.232135284906E+04   -0.45641E-03   -0.14999E-04  3787   0.132E-02    0.412E-02
RMM:  34    -0.232135304735E+04   -0.19829E-03   -0.78374E-05  3594   0.714E-03    0.223E-02
RMM:  35    -0.232135313809E+04   -0.90739E-04   -0.37559E-05  3274   0.657E-03    0.107E-02
RMM:  36    -0.232135315822E+04   -0.20131E-04   -0.11131E-05  2890   0.383E-03    0.973E-03
RMM:  37    -0.232135316351E+04   -0.52914E-05   -0.38925E-06  2807   0.262E-03
   1 F= -.23420064E+04 E0= -.23419969E+04  d E =-.234201E+04  mag=     3.9102
       N       E                     dE             d eps       ncg     rms          rms(c)
DAV:   1    -0.232027913733E+04    0.10740E+01   -0.31777E+02  5136   0.954E+00    0.120E+01
RMM:   2    -0.232516057775E+04   -0.48814E+01   -0.43595E+01  5689   0.346E+00    0.184E+01
RMM:   3    -0.232249232753E+04    0.26683E+01   -0.77030E+00  4972   0.178E+00    0.127E+01
RMM:   4    -0.232059916534E+04    0.18932E+01   -0.14759E+00  5868   0.631E-01    0.414E+00
RMM:   5    -0.232060087755E+04   -0.17122E-02   -0.43413E-01  4998   0.289E-01    0.265E+00
RMM:   6    -0.232080131408E+04   -0.20044E+00   -0.41429E-01  4773   0.278E-01    0.113E+00
RMM:   7    -0.232097036420E+04   -0.16905E+00   -0.17750E-01  4615   0.221E-01    0.614E-01
RMM:   8    -0.232105361172E+04   -0.83248E-01   -0.65927E-02  4629   0.118E-01    0.521E-01
RMM:   9    -0.232112595872E+04   -0.72347E-01   -0.59510E-02  4579   0.981E-02    0.298E-01
RMM:  10    -0.232118137886E+04   -0.55420E-01   -0.30673E-02  4631   0.859E-02    0.164E-01
RMM:  11    -0.232120486610E+04   -0.23487E-01   -0.86693E-03  4680   0.511E-02    0.115E-01
RMM:  12    -0.232121769385E+04   -0.12828E-01   -0.30259E-03  4458   0.309E-02    0.704E-02
RMM:  13    -0.232122342230E+04   -0.57285E-02   -0.12232E-03  4237   0.241E-02    0.397E-02
RMM:  14    -0.232122611724E+04   -0.26949E-02   -0.60606E-04  4194   0.155E-02    0.240E-02
RMM:  15    -0.232122695739E+04   -0.84015E-03   -0.19082E-04  3948   0.114E-02    0.120E-02
RMM:  16    -0.232122721193E+04   -0.25455E-03   -0.70601E-05  3584   0.587E-03    0.585E-03
RMM:  17    -0.232122725680E+04   -0.44862E-04   -0.15357E-05  2953   0.492E-03    0.256E-03
RMM:  18    -0.232122726332E+04   -0.65233E-05   -0.53415E-06  2781   0.268E-03
   2 F= -.23418945E+04 E0= -.23418945E+04  d E =0.111925E+00  mag=     2.0007
       N       E                     dE             d eps       ncg     rms          rms(c)
DAV:   1    -0.232186130411E+04   -0.63405E+00   -0.10772E+02  4560   0.614E+00    0.290E+00
RMM:   2    -0.232240950340E+04   -0.54820E+00   -0.52536E+00  5709   0.133E+00    0.473E+00
RMM:   3    -0.232222159282E+04    0.18791E+00   -0.49142E-01  5984   0.379E-01    0.237E+00
RMM:   4    -0.232216313801E+04    0.58455E-01   -0.66464E-02  5964   0.122E-01    0.815E-01
RMM:   5    -0.232215627156E+04    0.68664E-02   -0.27873E-02  5153   0.708E-02    0.453E-01
RMM:   6    -0.232215430126E+04    0.19703E-02   -0.83730E-03  5210   0.589E-02    0.138E-01
RMM:   7    -0.232215425295E+04    0.48313E-04   -0.14282E-03  4549   0.208E-02    0.525E-02
RMM:   8    -0.232215418577E+04    0.67177E-04   -0.23649E-04  4040   0.144E-02    0.288E-02
RMM:   9    -0.232215416824E+04    0.17535E-04   -0.10474E-04  3566   0.709E-03    0.166E-02
RMM:  10    -0.232215416370E+04    0.45368E-05   -0.22505E-05  2925   0.544E-03
   3 F= -.23428087E+04 E0= -.23428087E+04  d E =-.802233E+00  mag=     2.0001
       N       E                     dE             d eps       ncg     rms          rms(c)
DAV:   1    -0.232215771431E+04   -0.35461E-02   -0.15244E-01  5216   0.214E-01    0.150E-01
RMM:   2    -0.232215858932E+04   -0.87501E-03   -0.88128E-03  5737   0.460E-02    0.229E-01
RMM:   3    -0.232215803708E+04    0.55224E-03   -0.11070E-03  3944   0.167E-02    0.133E-01
RMM:   4    -0.232215784228E+04    0.19481E-03   -0.20168E-04  3318   0.722E-03    0.376E-02
RMM:   5    -0.232215782161E+04    0.20669E-04   -0.64696E-05  3031   0.418E-03    0.193E-02
RMM:   6    -0.232215781794E+04    0.36722E-05   -0.26924E-05  2863   0.396E-03
   4 F= -.23428122E+04 E0= -.23428122E+04  d E =-.805808E+00  mag=     2.0000
       N       E                     dE             d eps       ncg     rms          rms(c)
DAV:   1    -0.232215840027E+04   -0.57867E-03   -0.59343E-02  4968   0.133E-01    0.962E-02
RMM:   2    -0.232215876372E+04   -0.36344E-03   -0.35006E-03  5177   0.288E-02    0.150E-01
RMM:   3    -0.232215852098E+04    0.24274E-03   -0.44187E-04  3331   0.109E-02    0.841E-02
RMM:   4    -0.232215844448E+04    0.76491E-04   -0.84986E-05  3071   0.520E-03    0.238E-02
RMM:   5    -0.232215843704E+04    0.74458E-05   -0.24665E-05  2789   0.286E-03
   5 F= -.23428128E+04 E0= -.23428128E+04  d E =-.806378E+00  mag=     2.0000
       N       E                     dE             d eps       ncg     rms          rms(c)
DAV:   1    -0.232225028167E+04   -0.91837E-01   -0.19943E+01  4512   0.368E+00    0.102E+00
RMM:   2    -0.232234732668E+04   -0.97045E-01   -0.10791E+00  6035   0.629E-01    0.543E-01
RMM:   3    -0.232234799888E+04   -0.67221E-03   -0.68778E-02  5555   0.197E-01    0.501E-01
RMM:   4    -0.232234766702E+04    0.33186E-03   -0.99770E-03  5747   0.524E-02    0.453E-01
RMM:   5    -0.232234542198E+04    0.22450E-02   -0.53962E-03  4997   0.412E-02    0.181E-01
RMM:   6    -0.232234513052E+04    0.29147E-03   -0.11927E-03  5018   0.255E-02    0.659E-02
RMM:   7    -0.232234509385E+04    0.36663E-04   -0.35252E-04  4055   0.111E-02    0.324E-02
RMM:   8    -0.232234508080E+04    0.13058E-04   -0.49891E-05  3046   0.644E-03    0.172E-02
RMM:   9    -0.232234507582E+04    0.49731E-05   -0.20679E-05  2905   0.395E-03
   6 F= -.23429985E+04 E0= -.23429985E+04  d E =-.185740E+00  mag=     2.0000
       N       E                     dE             d eps       ncg     rms          rms(c)
DAV:   1    -0.232220317634E+04    0.14190E+00   -0.52059E+01  4432   0.603E+00    0.162E+00
RMM:   2    -0.232246134060E+04   -0.25816E+00   -0.28866E+00  6056   0.103E+00    0.897E-01
RMM:   3    -0.232246389990E+04   -0.25593E-02   -0.18215E-01  5576   0.309E-01    0.817E-01
RMM:   4    -0.232246246826E+04    0.14316E-02   -0.26497E-02  5803   0.841E-02    0.718E-01
RMM:   5    -0.232245721004E+04    0.52582E-02   -0.15408E-02  5053   0.700E-02    0.323E-01
RMM:   6    -0.232245620978E+04    0.10003E-02   -0.36061E-03  5414   0.422E-02    0.116E-01
RMM:   7    -0.232245606666E+04    0.14312E-03   -0.99845E-04  4635   0.184E-02    0.562E-02
RMM:   8    -0.232245603030E+04    0.36363E-04   -0.14472E-04  3601   0.930E-03    0.280E-02
RMM:   9    -0.232245603009E+04    0.20975E-06   -0.53763E-05  3200   0.585E-03
   7 F= -.23431082E+04 E0= -.23431082E+04  d E =-.295379E+00  mag=     2.0000
       N       E                     dE             d eps       ncg     rms          rms(c)
DAV:   1    -0.232251706864E+04   -0.61038E-01   -0.49865E+00  4624   0.190E+00    0.487E-01
RMM:   2    -0.232254619483E+04   -0.29126E-01   -0.31772E-01  5965   0.321E-01    0.358E-01
RMM:   3    -0.232254653440E+04   -0.33957E-03   -0.18916E-02  5514   0.105E-01    0.361E-01
RMM:   4    -0.232254528926E+04    0.12451E-02   -0.27811E-03  5355   0.283E-02    0.201E-01
RMM:   5    -0.232254478120E+04    0.50806E-03   -0.12958E-03  4626   0.219E-02    0.849E-02
RMM:   6    -0.232254472551E+04    0.55691E-04   -0.44783E-04  4341   0.157E-02    0.299E-02
RMM:   7    -0.232254472477E+04    0.73147E-06   -0.68947E-05  3288   0.721E-03
   8 F= -.23431967E+04 E0= -.23431967E+04  d E =-.885242E-01  mag=     2.0000
       N       E                     dE             d eps       ncg     rms          rms(c)
DAV:   1    -0.232239366253E+04    0.15106E+00   -0.44816E+01  4432   0.571E+00    0.145E+00
RMM:   2    -0.232266359244E+04   -0.26993E+00   -0.29233E+00  6000   0.102E+00    0.115E+00
RMM:   3    -0.232266384336E+04   -0.25092E-03   -0.18345E-01  5565   0.324E-01    0.109E+00
RMM:   4    -0.232265340643E+04    0.10437E-01   -0.26073E-02  5989   0.894E-02    0.584E-01
RMM:   5    -0.232264975941E+04    0.36470E-02   -0.11896E-02  4992   0.640E-02    0.271E-01
RMM:   6    -0.232264911122E+04    0.64819E-03   -0.40544E-03  5046   0.456E-02    0.106E-01
RMM:   7    -0.232264907025E+04    0.40971E-04   -0.76170E-04  4835   0.210E-02    0.607E-02
RMM:   8    -0.232264904573E+04    0.24512E-04   -0.98157E-05  3539   0.825E-03    0.276E-02
RMM:   9    -0.232264904981E+04   -0.40785E-05   -0.45035E-05  3077   0.561E-03
   9 F= -.23433006E+04 E0= -.23433006E+04  d E =-.192401E+00  mag=     2.0000
       N       E                     dE             d eps       ncg     rms          rms(c)
DAV:   1    -0.232267632464E+04   -0.27279E-01   -0.19998E+00  4728   0.127E+00    0.355E-01
RMM:   2    -0.232268944252E+04   -0.13118E-01   -0.14731E-01  5935   0.236E-01    0.190E-01
RMM:   3    -0.232268916359E+04    0.27893E-03   -0.81767E-03  5313   0.796E-02    0.129E-01
RMM:   4    -0.232268920888E+04   -0.45286E-04   -0.13433E-03  4904   0.222E-02    0.151E-01
RMM:   5    -0.232268902742E+04    0.18146E-03   -0.52699E-04  4512   0.164E-02    0.798E-02
RMM:   6    -0.232268896733E+04    0.60090E-04   -0.14235E-04  4003   0.893E-03    0.210E-02
RMM:   7    -0.232268896680E+04    0.52634E-06   -0.34751E-05  2987   0.591E-03
  10 F= -.23433404E+04 E0= -.23433404E+04  d E =-.398229E-01  mag=     2.0000
       N       E                     dE             d eps       ncg     rms          rms(c)
DAV:   1    -0.232263652541E+04    0.52442E-01   -0.17959E+01  4504   0.383E+00    0.107E+00
RMM:   2    -0.232275518084E+04   -0.11866E+00   -0.13446E+00  5925   0.737E-01    0.574E-01
RMM:   3    -0.232275270844E+04    0.24724E-02   -0.79977E-02  5411   0.235E-01    0.403E-01
RMM:   4    -0.232275359302E+04   -0.88458E-03   -0.11656E-02  5437   0.640E-02    0.467E-01
RMM:   5    -0.232275187928E+04    0.17137E-02   -0.49097E-03  5468   0.475E-02    0.236E-01
RMM:   6    -0.232275137665E+04    0.50263E-03   -0.14627E-03  5162   0.266E-02    0.752E-02
RMM:   7    -0.232275133760E+04    0.39048E-04   -0.39753E-04  4250   0.163E-02    0.378E-02
RMM:   8    -0.232275132874E+04    0.88595E-05   -0.76554E-05  3492   0.642E-03
  11 F= -.23434023E+04 E0= -.23434023E+04  d E =-.101741E+00  mag=     2.0000
       N       E                     dE             d eps       ncg     rms          rms(c)
DAV:   1    -0.232274780869E+04    0.35289E-02   -0.92994E-01  4848   0.882E-01    0.244E-01
RMM:   2    -0.232275394769E+04   -0.61390E-02   -0.69072E-02  5965   0.166E-01    0.130E-01
RMM:   3    -0.232275382896E+04    0.11873E-03   -0.38783E-03  5219   0.579E-02    0.895E-02
RMM:   4    -0.232275388447E+04   -0.55511E-04   -0.64291E-04  4689   0.154E-02    0.114E-01
RMM:   5    -0.232275375370E+04    0.13077E-03   -0.25628E-04  4019   0.117E-02    0.438E-02
RMM:   6    -0.232275373785E+04    0.15847E-04   -0.67436E-05  3368   0.695E-03    0.132E-02
RMM:   7    -0.232275373715E+04    0.70271E-06   -0.16865E-05  2904   0.496E-03
  12 F= -.23434046E+04 E0= -.23434046E+04  d E =-.104014E+00  mag=     2.0000
       N       E                     dE             d eps       ncg     rms          rms(c)
DAV:   1    -0.232279377003E+04   -0.40032E-01   -0.54889E+00  4480   0.214E+00    0.534E-01
RMM:   2    -0.232280984788E+04   -0.16078E-01   -0.17980E-01  5668   0.337E-01    0.273E-01
RMM:   3    -0.232280872842E+04    0.11195E-02   -0.76778E-03  5409   0.923E-02    0.254E-01
RMM:   4    -0.232280834429E+04    0.38413E-03   -0.17327E-03  5583   0.293E-02    0.200E-01
RMM:   5    -0.232280785167E+04    0.49262E-03   -0.95319E-04  4988   0.249E-02    0.479E-02
RMM:   6    -0.232280783787E+04    0.13797E-04   -0.20783E-04  4373   0.134E-02    0.190E-02
RMM:   7    -0.232280783281E+04    0.50669E-05   -0.21441E-05  2961   0.485E-03
  13 F= -.23434579E+04 E0= -.23434579E+04  d E =-.532957E-01  mag=     2.0000
       N       E                     dE             d eps       ncg     rms          rms(c)
DAV:   1    -0.232274813463E+04    0.59703E-01   -0.49361E+01  4416   0.645E+00    0.159E+00
RMM:   2    -0.232289481496E+04   -0.14668E+00   -0.16395E+00  5675   0.102E+00    0.821E-01
RMM:   3    -0.232288533313E+04    0.94818E-02   -0.72742E-02  5387   0.279E-01    0.782E-01
RMM:   4    -0.232288137091E+04    0.39622E-02   -0.15582E-02  5892   0.881E-02    0.586E-01
RMM:   5    -0.232287716693E+04    0.42040E-02   -0.91562E-03  5032   0.756E-02    0.154E-01
RMM:   6    -0.232287697647E+04    0.19046E-03   -0.18462E-03  5064   0.393E-02    0.644E-02
RMM:   7    -0.232287694225E+04    0.34216E-04   -0.23610E-04  4301   0.128E-02    0.357E-02
RMM:   8    -0.232287692039E+04    0.21862E-04   -0.72205E-05  3727   0.909E-03    0.197E-02
RMM:   9    -0.232287691660E+04    0.37887E-05   -0.34049E-05  3308   0.563E-03
  14 F= -.23435244E+04 E0= -.23435244E+04  d E =-.119816E+00  mag=     2.0000
       N       E                     dE             d eps       ncg     rms          rms(c)
DAV:   1    -0.232290617018E+04   -0.29250E-01   -0.30677E+00  4584   0.161E+00    0.338E-01
RMM:   2    -0.232291583905E+04   -0.96689E-02   -0.10381E-01  5700   0.246E-01    0.222E-01
RMM:   3    -0.232291551430E+04    0.32475E-03   -0.53130E-03  5354   0.732E-02    0.224E-01
RMM:   4    -0.232291504911E+04    0.46519E-03   -0.90536E-04  5213   0.208E-02    0.125E-01
RMM:   5    -0.232291484286E+04    0.20626E-03   -0.51137E-04  4651   0.175E-02    0.372E-02
RMM:   6    -0.232291484049E+04    0.23688E-05   -0.11178E-04  3895   0.111E-02    0.144E-02
RMM:   7    -0.232291484027E+04    0.22215E-06   -0.13140E-05  2902   0.442E-03
  15 F= -.23435621E+04 E0= -.23435621E+04  d E =-.376805E-01  mag=     2.0000
       N       E                     dE             d eps       ncg     rms          rms(c)
DAV:   1    -0.232291960027E+04   -0.47598E-02   -0.27592E+01  4456   0.484E+00    0.102E+00
RMM:   2    -0.232300658282E+04   -0.86983E-01   -0.93759E-01  5656   0.730E-01    0.657E-01
RMM:   3    -0.232300388305E+04    0.26998E-02   -0.51522E-02  5354   0.214E-01    0.654E-01
RMM:   4    -0.232300030665E+04    0.35764E-02   -0.85365E-03  5848   0.621E-02    0.390E-01
RMM:   5    -0.232299838982E+04    0.19168E-02   -0.43838E-03  4860   0.501E-02    0.118E-01
RMM:   6    -0.232299833170E+04    0.58119E-04   -0.10303E-03  4717   0.305E-02    0.442E-02
RMM:   7    -0.232299832159E+04    0.10116E-04   -0.11972E-04  3963   0.104E-02    0.251E-02
RMM:   8    -0.232299831507E+04    0.65188E-05   -0.33191E-05  3151   0.677E-03
  16 F= -.23436448E+04 E0= -.23436448E+04  d E =-.120364E+00  mag=     2.0000
       N       E                     dE             d eps       ncg     rms          rms(c)
DAV:   1    -0.232270779340E+04    0.29053E+00   -0.11019E+02  4424   0.958E+00    0.206E+00
RMM:   2    -0.232307129628E+04   -0.36350E+00   -0.39323E+00  5622   0.145E+00    0.130E+00
RMM:   3    -0.232305715882E+04    0.14137E-01   -0.18811E-01  5328   0.413E-01    0.125E+00
RMM:   4    -0.232304656428E+04    0.10595E-01   -0.33479E-02  5953   0.121E-01    0.843E-01
RMM:   5    -0.232303780191E+04    0.87624E-02   -0.17873E-02  4914   0.992E-02    0.260E-01
RMM:   6    -0.232303741973E+04    0.38217E-03   -0.46261E-03  4794   0.600E-02    0.993E-02
RMM:   7    -0.232303739585E+04    0.23887E-04   -0.65377E-04  4957   0.222E-02    0.525E-02
RMM:   8    -0.232303736839E+04    0.27455E-04   -0.12204E-04  4357   0.107E-02    0.275E-02
RMM:   9    -0.232303736354E+04    0.48543E-05   -0.46345E-05  3386   0.648E-03
  17 F= -.23436819E+04 E0= -.23436819E+04  d E =-.157538E+00  mag=     2.0000
       N       E                     dE             d eps       ncg     rms          rms(c)
DAV:   1    -0.232301868153E+04    0.18687E-01   -0.86692E+00  4512   0.263E+00    0.573E-01
RMM:   2    -0.232304586362E+04   -0.27182E-01   -0.29239E-01  5627   0.390E-01    0.359E-01
RMM:   3    -0.232304488809E+04    0.97553E-03   -0.15100E-02  5286   0.117E-01    0.366E-01
RMM:   4    -0.232304383750E+04    0.10506E-02   -0.24997E-03  5594   0.330E-02    0.220E-01
RMM:   5    -0.232304324322E+04    0.59428E-03   -0.14021E-03  4750   0.272E-02    0.781E-02
RMM:   6    -0.232304322126E+04    0.21960E-04   -0.40591E-04  4530   0.175E-02    0.295E-02
RMM:   7    -0.232304321477E+04    0.64896E-05   -0.43300E-05  3118   0.636E-03
  18 F= -.23436884E+04 E0= -.23436884E+04  d E =-.163954E+00  mag=     2.0000
       N       E                     dE             d eps       ncg     rms          rms(c)
DAV:   1    -0.232306100782E+04   -0.17787E-01   -0.80659E+00  4504   0.262E+00    0.654E-01
RMM:   2    -0.232309301728E+04   -0.32009E-01   -0.34682E-01  5642   0.422E-01    0.392E-01
RMM:   3    -0.232309272486E+04    0.29242E-03   -0.20087E-02  5315   0.133E-01    0.481E-01
RMM:   4    -0.232309028670E+04    0.24382E-02   -0.34816E-03  5635   0.378E-02    0.214E-01
RMM:   5    -0.232308953496E+04    0.75174E-03   -0.20866E-03  4818   0.319E-02    0.561E-02
RMM:   6    -0.232308950613E+04    0.28830E-04   -0.27530E-04  4491   0.182E-02    0.269E-02
RMM:   7    -0.232308950176E+04    0.43735E-05   -0.53093E-05  3405   0.555E-03
  19 F= -.23437341E+04 E0= -.23437341E+04  d E =-.457145E-01  mag=     2.0000
       N       E                     dE             d eps       ncg     rms          rms(c)
DAV:   1    -0.232306403980E+04    0.25466E-01   -0.13124E+01  4496   0.335E+00    0.839E-01
RMM:   2    -0.232311641907E+04   -0.52379E-01   -0.56734E-01  5661   0.544E-01    0.505E-01
RMM:   3    -0.232311617189E+04    0.24718E-03   -0.33516E-02  5302   0.171E-01    0.628E-01
RMM:   4    -0.232311199797E+04    0.41739E-02   -0.57506E-03  5779   0.487E-02    0.273E-01
RMM:   5    -0.232311076236E+04    0.12356E-02   -0.35324E-03  4818   0.413E-02    0.713E-02
RMM:   6    -0.232311071459E+04    0.47772E-04   -0.44280E-04  4586   0.238E-02    0.346E-02
RMM:   7    -0.232311071097E+04    0.36134E-05   -0.95195E-05  3826   0.702E-03
  20 F= -.23437545E+04 E0= -.23437545E+04  d E =-.661459E-01  mag=     2.0000
       N       E                     dE             d eps       ncg     rms          rms(c)
DAV:   1    -0.232311483694E+04   -0.41224E-02   -0.89021E+00  4512   0.293E+00    0.669E-01
RMM:   2    -0.232316201009E+04   -0.47173E-01   -0.50846E-01  5657   0.490E-01    0.413E-01
RMM:   3    -0.232316009290E+04    0.19172E-02   -0.25456E-02  5283   0.148E-01    0.402E-01
RMM:   4    -0.232315908778E+04    0.10051E-02   -0.43882E-03  5718   0.382E-02    0.268E-01
RMM:   5    -0.232315817621E+04    0.91157E-03   -0.19994E-03  4948   0.333E-02    0.925E-02
RMM:   6    -0.232315810065E+04    0.75558E-04   -0.45727E-04  4674   0.203E-02    0.349E-02
RMM:   7    -0.232315811141E+04   -0.10757E-04   -0.84741E-05  3717   0.717E-03    0.197E-02
RMM:   8    -0.232315811324E+04   -0.18328E-05   -0.16078E-05  2896   0.550E-03
  21 F= -.23438006E+04 E0= -.23438006E+04  d E =-.460884E-01  mag=     2.0000
       N       E                     dE             d eps       ncg     rms          rms(c)
DAV:   1    -0.232296478171E+04    0.19333E+00   -0.48947E+01  4448   0.690E+00    0.157E+00
RMM:   2    -0.232322970577E+04   -0.26492E+00   -0.28536E+00  5797   0.119E+00    0.985E-01
RMM:   3    -0.232321768429E+04    0.12021E-01   -0.13997E-01  5397   0.321E-01    0.965E-01
RMM:   4    -0.232321172007E+04    0.59642E-02   -0.24639E-02  5917   0.892E-02    0.628E-01
RMM:   5    -0.232320691201E+04    0.48081E-02   -0.11698E-02  4987   0.797E-02    0.235E-01
RMM:   6    -0.232320634143E+04    0.57058E-03   -0.26046E-03  5025   0.479E-02    0.886E-02
RMM:   7    -0.232320637664E+04   -0.35205E-04   -0.57974E-04  4863   0.173E-02    0.479E-02
RMM:   8    -0.232320636961E+04    0.70236E-05   -0.88009E-05  3753   0.113E-02
  22 F= -.23438457E+04 E0= -.23438457E+04  d E =-.911468E-01  mag=     2.0000
       N       E                     dE             d eps       ncg     rms          rms(c)
DAV:   1    -0.232315090286E+04    0.55474E-01   -0.19912E+01  4464   0.443E+00    0.978E-01
RMM:   2    -0.232326609804E+04   -0.11520E+00   -0.12351E+00  5805   0.766E-01    0.594E-01
RMM:   3    -0.232326304978E+04    0.30483E-02   -0.74860E-02  5408   0.217E-01    0.553E-01
RMM:   4    -0.232326156902E+04    0.14808E-02   -0.10545E-02  5892   0.562E-02    0.419E-01
RMM:   5    -0.232325962096E+04    0.19481E-02   -0.49186E-03  5254   0.480E-02    0.178E-01
RMM:   6    -0.232325926934E+04    0.35162E-03   -0.13587E-03  5292   0.296E-02    0.629E-02
RMM:   7    -0.232325928576E+04   -0.16418E-04   -0.31954E-04  4481   0.129E-02    0.339E-02
RMM:   8    -0.232325928153E+04    0.42336E-05   -0.41591E-05  3098   0.692E-03
  23 F= -.23438972E+04 E0= -.23438972E+04  d E =-.515613E-01  mag=     2.0000
       N       E                     dE             d eps       ncg     rms          rms(c)
DAV:   1    -0.232321939705E+04    0.39889E-01   -0.96307E+00  4544   0.309E+00    0.680E-01
RMM:   2    -0.232327449182E+04   -0.55095E-01   -0.59113E-01  5799   0.532E-01    0.403E-01
RMM:   3    -0.232327288165E+04    0.16102E-02   -0.34955E-02  5368   0.151E-01    0.347E-01
RMM:   4    -0.232327261528E+04    0.26637E-03   -0.52011E-03  5747   0.398E-02    0.309E-01
RMM:   5    -0.232327154337E+04    0.10719E-02   -0.23611E-03  5312   0.336E-02    0.119E-01
RMM:   6    -0.232327138702E+04    0.15635E-03   -0.63443E-04  5118   0.202E-02    0.416E-02
RMM:   7    -0.232327139592E+04   -0.89029E-05   -0.13565E-04  3899   0.877E-03    0.227E-02
RMM:   8    -0.232327139507E+04    0.85097E-06   -0.19233E-05  2929   0.525E-03
  24 F= -.23439084E+04 E0= -.23439084E+04  d E =-.627160E-01  mag=     2.0000
       N       E                     dE             d eps       ncg     rms          rms(c)
DAV:   1    -0.232320692613E+04    0.64470E-01   -0.22732E+01  4464   0.462E+00    0.981E-01
RMM:   2    -0.232333300548E+04   -0.12608E+00   -0.13485E+00  5898   0.805E-01    0.564E-01
RMM:   3    -0.232332716381E+04    0.58417E-02   -0.63116E-02  5457   0.202E-01    0.427E-01
RMM:   4    -0.232332810403E+04   -0.94022E-03   -0.11406E-02  5551   0.592E-02    0.511E-01
RMM:   5    -0.232332524919E+04    0.28548E-02   -0.53071E-03  5399   0.516E-02    0.158E-01
RMM:   6    -0.232332498277E+04    0.26642E-03   -0.97233E-04  5212   0.253E-02    0.569E-02
RMM:   7    -0.232332499776E+04   -0.14993E-04   -0.23285E-04  4175   0.930E-03    0.305E-02
RMM:   8    -0.232332499449E+04    0.32712E-05   -0.31664E-05  3000   0.601E-03
  25 F= -.23439603E+04 E0= -.23439603E+04  d E =-.519013E-01  mag=     2.0000
       N       E                     dE             d eps       ncg     rms          rms(c)
DAV:   1    -0.232324750877E+04    0.77489E-01   -0.18773E+01  4464   0.418E+00    0.890E-01
RMM:   2    -0.232335115294E+04   -0.10364E+00   -0.11091E+00  5915   0.728E-01    0.510E-01
RMM:   3    -0.232334632104E+04    0.48319E-02   -0.51424E-02  5465   0.182E-01    0.372E-01
RMM:   4    -0.232334719077E+04   -0.86973E-03   -0.97777E-03  5340   0.563E-02    0.463E-01
RMM:   5    -0.232334488645E+04    0.23043E-02   -0.40740E-03  5590   0.457E-02    0.152E-01
RMM:   6    -0.232334463973E+04    0.24672E-03   -0.77416E-04  5111   0.208E-02    0.509E-02
RMM:   7    -0.232334465180E+04   -0.12076E-04   -0.19010E-04  3860   0.932E-03    0.270E-02
RMM:   8    -0.232334465030E+04    0.15007E-05   -0.27648E-05  2976   0.531E-03
  26 F= -.23439784E+04 E0= -.23439784E+04  d E =-.699870E-01  mag=     2.0000
       N       E                     dE             d eps       ncg     rms          rms(c)
DAV:   1    -0.232325431519E+04    0.90337E-01   -0.28056E+01  4432   0.513E+00    0.114E+00
RMM:   2    -0.232341156869E+04   -0.15725E+00   -0.16798E+00  5906   0.913E-01    0.697E-01
RMM:   3    -0.232340485802E+04    0.67107E-02   -0.87849E-02  5537   0.237E-01    0.560E-01
RMM:   4    -0.232340505472E+04   -0.19669E-03   -0.14641E-02  5844   0.660E-02    0.544E-01
RMM:   5    -0.232340173329E+04    0.33214E-02   -0.64708E-03  5356   0.567E-02    0.219E-01
RMM:   6    -0.232340127591E+04    0.45738E-03   -0.16025E-03  5387   0.327E-02    0.619E-02
RMM:   7    -0.232340128117E+04   -0.52635E-05   -0.27713E-04  4422   0.118E-02    0.352E-02
RMM:   8    -0.232340127498E+04    0.61892E-05   -0.34944E-05  3109   0.653E-03
  27 F= -.23440338E+04 E0= -.23440338E+04  d E =-.554472E-01  mag=     2.0000
       N       E                     dE             d eps       ncg     rms          rms(c)
DAV:   1    -0.232336339691E+04    0.37884E-01   -0.92333E+00  4512   0.294E+00    0.654E-01
RMM:   2    -0.232341471181E+04   -0.51315E-01   -0.54908E-01  5891   0.518E-01    0.395E-01
RMM:   3    -0.232341242690E+04    0.22849E-02   -0.28043E-02  5491   0.137E-01    0.293E-01
RMM:   4    -0.232341287653E+04   -0.44963E-03   -0.50719E-03  5552   0.399E-02    0.338E-01
RMM:   5    -0.232341154580E+04    0.13307E-02   -0.20714E-03  5542   0.322E-02    0.119E-01
RMM:   6    -0.232341142510E+04    0.12070E-03   -0.48684E-04  4865   0.175E-02    0.330E-02
RMM:   7    -0.232341142720E+04   -0.21077E-05   -0.81305E-05  3377   0.776E-03
  28 F= -.23440433E+04 E0= -.23440433E+04  d E =-.649354E-01  mag=     2.0000
       N       E                     dE             d eps       ncg     rms          rms(c)
DAV:   1    -0.232330529398E+04    0.10613E+00   -0.25623E+01  4432   0.487E+00    0.106E+00
RMM:   2    -0.232346438468E+04   -0.15909E+00   -0.16790E+00  5953   0.886E-01    0.693E-01
RMM:   3    -0.232346367923E+04    0.70545E-03   -0.10091E-01  5641   0.234E-01    0.765E-01
RMM:   4    -0.232345916477E+04    0.45145E-02   -0.14596E-02  5957   0.632E-02    0.413E-01
RMM:   5    -0.232345743922E+04    0.17256E-02   -0.57255E-03  4974   0.545E-02    0.170E-01
RMM:   6    -0.232345727334E+04    0.16587E-03   -0.12369E-03  5049   0.321E-02    0.533E-02
RMM:   7    -0.232345727912E+04   -0.57733E-05   -0.21977E-04  4199   0.110E-02    0.302E-02
RMM:   8    -0.232345727340E+04    0.57198E-05   -0.29083E-05  2994   0.693E-03
  29 F= -.23440887E+04 E0= -.23440887E+04  d E =-.454398E-01  mag=     2.0000
       N       E                     dE             d eps       ncg     rms          rms(c)
DAV:   1    -0.232336284042E+04    0.94439E-01   -0.18418E+01  4432   0.414E+00    0.901E-01
RMM:   2    -0.232347564374E+04   -0.11280E+00   -0.11921E+00  5928   0.742E-01    0.587E-01
RMM:   3    -0.232347630387E+04   -0.66013E-03   -0.77630E-02  5604   0.203E-01    0.653E-01
RMM:   4    -0.232347297608E+04    0.33278E-02   -0.10692E-02  5970   0.540E-02    0.351E-01
RMM:   5    -0.232347174114E+04    0.12349E-02   -0.42626E-03  5022   0.467E-02    0.140E-01
RMM:   6    -0.232347158365E+04    0.15748E-03   -0.94194E-04  5007   0.272E-02    0.464E-02
RMM:   7    -0.232347158089E+04    0.27651E-05   -0.15217E-04  3954   0.976E-03    0.255E-02
RMM:   8    -0.232347157662E+04    0.42663E-05   -0.25354E-05  2950   0.612E-03
  30 F= -.23441027E+04 E0= -.23441027E+04  d E =-.594169E-01  mag=     2.0000
       N       E                     dE             d eps       ncg     rms          rms(c)
DAV:   1    -0.232335791260E+04    0.11367E+00   -0.21865E+01  4432   0.469E+00    0.111E+00
RMM:   2    -0.232352070867E+04   -0.16280E+00   -0.17402E+00  6009   0.876E-01    0.632E-01
RMM:   3    -0.232352079454E+04   -0.85875E-04   -0.10980E-01  5611   0.229E-01    0.594E-01
RMM:   4    -0.232351981636E+04    0.97818E-03   -0.16068E-02  5992   0.603E-02    0.466E-01
RMM:   5    -0.232351738052E+04    0.24358E-02   -0.60693E-03  5180   0.556E-02    0.183E-01
RMM:   6    -0.232351703950E+04    0.34102E-03   -0.13347E-03  5208   0.311E-02    0.602E-02
RMM:   7    -0.232351702505E+04    0.14450E-04   -0.26548E-04  4316   0.119E-02    0.327E-02
RMM:   8    -0.232351701325E+04    0.11797E-04   -0.39467E-05  3045   0.747E-03    0.160E-02
RMM:   9    -0.232351700896E+04    0.42953E-05   -0.25501E-05  3007   0.459E-03
  31 F= -.23441473E+04 E0= -.23441473E+04  d E =-.445449E-01  mag=     2.0000
       N       E                     dE             d eps       ncg     rms          rms(c)
DAV:   1    -0.232345973517E+04    0.57278E-01   -0.92395E+00  4480   0.305E+00    0.722E-01
RMM:   2    -0.232352806061E+04   -0.68325E-01   -0.73177E-01  5988   0.565E-01    0.400E-01
RMM:   3    -0.232352805419E+04    0.64283E-05   -0.45747E-02  5577   0.149E-01    0.346E-01
RMM:   4    -0.232352816501E+04   -0.11082E-03   -0.64866E-03  5785   0.395E-02    0.326E-01
RMM:   5    -0.232352689851E+04    0.12665E-02   -0.25183E-03  5244   0.359E-02    0.108E-01
RMM:   6    -0.232352678799E+04    0.11052E-03   -0.51843E-04  4943   0.196E-02    0.358E-02
RMM:   7    -0.232352678272E+04    0.52675E-05   -0.98498E-05  3583   0.746E-03
  32 F= -.23441565E+04 E0= -.23441565E+04  d E =-.537586E-01  mag=     2.0000
       N       E                     dE             d eps       ncg     rms          rms(c)
DAV:   1    -0.232336872221E+04    0.15807E+00   -0.22635E+01  4432   0.481E+00    0.116E+00
RMM:   2    -0.232357044601E+04   -0.20172E+00   -0.21443E+00  6092   0.936E-01    0.704E-01
RMM:   3    -0.232357336293E+04   -0.29169E-02   -0.14971E-01  5704   0.239E-01    0.621E-01
RMM:   4    -0.232357297389E+04    0.38904E-03   -0.19975E-02  5955   0.642E-02    0.526E-01
RMM:   5    -0.232357034628E+04    0.26276E-02   -0.67821E-03  5483   0.541E-02    0.268E-01
RMM:   6    -0.232356961451E+04    0.73177E-03   -0.22203E-03  5314   0.341E-02    0.818E-02
RMM:   7    -0.232356957077E+04    0.43741E-04   -0.41512E-04  4716   0.182E-02    0.416E-02
RMM:   8    -0.232356954980E+04    0.20974E-04   -0.72498E-05  3247   0.694E-03    0.192E-02
RMM:   9    -0.232356954576E+04    0.40352E-05   -0.33613E-05  3033   0.515E-03
  33 F= -.23441988E+04 E0= -.23441988E+04  d E =-.423109E-01  mag=     2.0000
       N       E                     dE             d eps       ncg     rms          rms(c)
DAV:   1    -0.232353090830E+04    0.38641E-01   -0.50007E+00  4512   0.227E+00    0.543E-01
RMM:   2    -0.232357470568E+04   -0.43797E-01   -0.46680E-01  6060   0.438E-01    0.320E-01
RMM:   3    -0.232357545086E+04   -0.74518E-03   -0.31749E-02  5649   0.114E-01    0.257E-01
RMM:   4    -0.232357573911E+04   -0.28826E-03   -0.45867E-03  5579   0.312E-02    0.268E-01
RMM:   5    -0.232357499484E+04    0.74427E-03   -0.14717E-03  5483   0.255E-02    0.114E-01
RMM:   6    -0.232357485974E+04    0.13510E-03   -0.44337E-04  4930   0.156E-02    0.341E-02
RMM:   7    -0.232357485354E+04    0.62004E-05   -0.80860E-05  3308   0.862E-03
  34 F= -.23442039E+04 E0= -.23442039E+04  d E =-.474279E-01  mag=     2.0000
       N       E                     dE             d eps       ncg     rms          rms(c)
DAV:   1    -0.232341242926E+04    0.16243E+00   -0.24689E+01  4432   0.494E+00    0.122E+00
RMM:   2    -0.232360849355E+04   -0.19606E+00   -0.21065E+00  6104   0.977E-01    0.657E-01
RMM:   3    -0.232361262426E+04   -0.41307E-02   -0.15981E-01  5703   0.245E-01    0.572E-01
RMM:   4    -0.232361323797E+04   -0.61371E-03   -0.20962E-02  5920   0.658E-02    0.550E-01
RMM:   5    -0.232361041940E+04    0.28186E-02   -0.69831E-03  5455   0.544E-02    0.249E-01
RMM:   6    -0.232360982104E+04    0.59836E-03   -0.19740E-03  5354   0.325E-02    0.846E-02
RMM:   7    -0.232360976726E+04    0.53781E-04   -0.43354E-04  4635   0.183E-02    0.421E-02
RMM:   8    -0.232360974813E+04    0.19124E-04   -0.87483E-05  3252   0.751E-03    0.185E-02
RMM:   9    -0.232360974669E+04    0.14469E-05   -0.38531E-05  3034   0.518E-03
  35 F= -.23442387E+04 E0= -.23442387E+04  d E =-.348498E-01  mag=     2.0001
       N       E                     dE             d eps       ncg     rms          rms(c)
DAV:   1    -0.232360354043E+04    0.62077E-02   -0.90805E-01  4640   0.947E-01    0.233E-01
RMM:   2    -0.232361070437E+04   -0.71639E-02   -0.77005E-02  6093   0.183E-01    0.123E-01
RMM:   3    -0.232361077762E+04   -0.73251E-04   -0.51537E-03  5505   0.475E-02    0.893E-02
RMM:   4    -0.232361088723E+04   -0.10961E-03   -0.81614E-04  4543   0.147E-02    0.120E-01
RMM:   5    -0.232361072720E+04    0.16003E-03   -0.21739E-04  4183   0.104E-02    0.382E-02
RMM:   6    -0.232361071687E+04    0.10330E-04   -0.56718E-05  3076   0.643E-03    0.119E-02
RMM:   7    -0.232361071706E+04   -0.19663E-06   -0.12288E-05  2890   0.436E-03
  36 F= -.23442397E+04 E0= -.23442397E+04  d E =-.358178E-01  mag=     2.0001
       N       E                     dE             d eps       ncg     rms          rms(c)
DAV:   1    -0.232347892500E+04    0.13179E+00   -0.22788E+01  4432   0.477E+00    0.121E+00
RMM:   2    -0.232365059145E+04   -0.17167E+00   -0.18459E+00  6094   0.939E-01    0.736E-01
RMM:   3    -0.232365352868E+04   -0.29372E-02   -0.13132E-01  5738   0.225E-01    0.744E-01
RMM:   4    -0.232364897489E+04    0.45538E-02   -0.17456E-02  6077   0.687E-02    0.456E-01
RMM:   5    -0.232364695891E+04    0.20160E-02   -0.64830E-03  5027   0.550E-02    0.188E-01
RMM:   6    -0.232364672091E+04    0.23800E-03   -0.18635E-03  5120   0.345E-02    0.738E-02
RMM:   7    -0.232364666686E+04    0.54056E-04   -0.32418E-04  4495   0.152E-02    0.363E-02
RMM:   8    -0.232364665530E+04    0.11558E-04   -0.63685E-05  3243   0.715E-03    0.172E-02
RMM:   9    -0.232364665653E+04   -0.12266E-05   -0.24386E-05  2944   0.473E-03
  37 F= -.23442759E+04 E0= -.23442758E+04  d E =-.361438E-01  mag=     2.0001
       N       E                     dE             d eps       ncg     rms          rms(c)
DAV:   1    -0.232362885383E+04    0.17801E-01   -0.27943E+00  4512   0.166E+00    0.424E-01
RMM:   2    -0.232364970314E+04   -0.20849E-01   -0.22363E-01  6059   0.321E-01    0.267E-01
RMM:   3    -0.232365014714E+04   -0.44400E-03   -0.14651E-02  5672   0.791E-02    0.268E-01
RMM:   4    -0.232364952014E+04    0.62700E-03   -0.21093E-03  5577   0.243E-02    0.157E-01
RMM:   5    -0.232364925059E+04    0.26956E-03   -0.73566E-04  4863   0.197E-02    0.571E-02
RMM:   6    -0.232364923510E+04    0.15486E-04   -0.20380E-04  4411   0.129E-02    0.214E-02
RMM:   7    -0.232364923247E+04    0.26330E-05   -0.28020E-05  2983   0.529E-03
  38 F= -.23442785E+04 E0= -.23442785E+04  d E =-.388037E-01  mag=     2.0001
       N       E                     dE             d eps       ncg     rms          rms(c)
DAV:   1    -0.232353893772E+04    0.11030E+00   -0.18572E+01  4432   0.421E+00    0.110E+00
RMM:   2    -0.232368272196E+04   -0.14378E+00   -0.15183E+00  6100   0.839E-01    0.769E-01
RMM:   3    -0.232368617525E+04   -0.34533E-02   -0.10147E-01  5782   0.201E-01    0.826E-01
RMM:   4    -0.232367898135E+04    0.71939E-02   -0.14706E-02  6052   0.664E-02    0.369E-01
RMM:   5    -0.232367769283E+04    0.12885E-02   -0.41560E-03  5044   0.454E-02    0.158E-01
RMM:   6    -0.232367760177E+04    0.91065E-04   -0.14354E-03  5024   0.307E-02    0.560E-02
RMM:   7    -0.232367757736E+04    0.24407E-04   -0.20538E-04  4284   0.128E-02    0.301E-02
RMM:   8    -0.232367756481E+04    0.12547E-04   -0.37640E-05  3030   0.592E-03    0.154E-02
RMM:   9    -0.232367756257E+04    0.22441E-05   -0.20970E-05  2915   0.436E-03
  39 F= -.23443076E+04 E0= -.23443076E+04  d E =-.291240E-01  mag=     2.0001
       N       E                     dE             d eps       ncg     rms          rms(c)
DAV:   1    -0.232366964794E+04    0.79169E-02   -0.12343E+00  4560   0.109E+00    0.281E-01
RMM:   2    -0.232367905407E+04   -0.94061E-02   -0.99194E-02  6054   0.213E-01    0.196E-01
RMM:   3    -0.232367928533E+04   -0.23126E-03   -0.70080E-03  5651   0.544E-02    0.203E-01
RMM:   4    -0.232367885989E+04    0.42545E-03   -0.97770E-04  4978   0.171E-02    0.963E-02
RMM:   5    -0.232367876195E+04    0.97934E-04   -0.26461E-04  4453   0.123E-02    0.389E-02
RMM:   6    -0.232367875722E+04    0.47374E-05   -0.10021E-04  3781   0.908E-03    0.136E-02
RMM:   7    -0.232367875602E+04    0.11923E-05   -0.13166E-05  2895   0.479E-03
  40 F= -.23443090E+04 E0= -.23443090E+04  d E =-.305258E-01  mag=     2.0001
       N       E                     dE             d eps       ncg     rms          rms(c)
DAV:   1    -0.232353839158E+04    0.14037E+00   -0.21460E+01  4432   0.443E+00    0.117E+00
RMM:   2    -0.232371356443E+04   -0.17517E+00   -0.18439E+00  6095   0.900E-01    0.858E-01
RMM:   3    -0.232371412589E+04   -0.56146E-03   -0.10924E-01  5776   0.214E-01    0.952E-01
RMM:   4    -0.232370454605E+04    0.95798E-02   -0.16793E-02  6047   0.709E-02    0.367E-01
RMM:   5    -0.232370306802E+04    0.14780E-02   -0.50518E-03  4920   0.483E-02    0.152E-01
RMM:   6    -0.232370297422E+04    0.93810E-04   -0.13736E-03  4908   0.326E-02    0.534E-02
RMM:   7    -0.232370296778E+04    0.64389E-05   -0.24491E-04  4203   0.126E-02    0.305E-02
RMM:   8    -0.232370295822E+04    0.95599E-05   -0.37607E-05  3098   0.666E-03
  41 F= -.23443335E+04 E0= -.23443335E+04  d E =-.244658E-01  mag=     2.0001
       N       E                     dE             d eps       ncg     rms          rms(c)
DAV:   1    -0.232370208711E+04    0.88067E-03   -0.12904E-01  5128   0.346E-01    0.913E-02
RMM:   2    -0.232370312602E+04   -0.10389E-02   -0.10936E-02  6148   0.697E-02    0.645E-02
RMM:   3    -0.232370313633E+04   -0.10310E-04   -0.67107E-04  4284   0.184E-02    0.683E-02
RMM:   4    -0.232370308672E+04    0.49616E-04   -0.10128E-04  3079   0.658E-03    0.298E-02
RMM:   5    -0.232370307611E+04    0.10610E-04   -0.27602E-05  2941   0.500E-03    0.123E-02
RMM:   6    -0.232370307618E+04   -0.72294E-07   -0.13625E-05  2893   0.409E-03
  42 F= -.23443336E+04 E0= -.23443336E+04  d E =-.246053E-01  mag=     2.0001
       N       E                     dE             d eps       ncg     rms          rms(c)
DAV:   1    -0.232363193700E+04    0.71139E-01   -0.97549E+00  4432   0.310E+00    0.834E-01
RMM:   2    -0.232372408824E+04   -0.92151E-01   -0.97676E-01  6094   0.633E-01    0.586E-01
RMM:   3    -0.232372522877E+04   -0.11405E-02   -0.65726E-02  5762   0.160E-01    0.596E-01
RMM:   4    -0.232372156175E+04    0.36670E-02   -0.92288E-03  6084   0.494E-02    0.293E-01
RMM:   5    -0.232372057904E+04    0.98270E-03   -0.24558E-03  5108   0.339E-02    0.125E-01
RMM:   6    -0.232372048937E+04    0.89667E-04   -0.10004E-03  5127   0.243E-02    0.421E-02
RMM:   7    -0.232372047763E+04    0.11747E-04   -0.13810E-04  3984   0.104E-02    0.241E-02
RMM:   8    -0.232372047278E+04    0.48500E-05   -0.24390E-05  2958   0.503E-03
  43 F= -.23443507E+04 E0= -.23443507E+04  d E =-.171030E-01  mag=     2.0001
       N       E                     dE             d eps       ncg     rms          rms(c)
DAV:   1    -0.232371069134E+04    0.97863E-02   -0.12064E+00  4544   0.109E+00    0.293E-01
RMM:   2    -0.232372220114E+04   -0.11510E-01   -0.12143E-01  6120   0.222E-01    0.213E-01
RMM:   3    -0.232372226202E+04   -0.60878E-04   -0.75577E-03  5654   0.582E-02    0.209E-01
RMM:   4    -0.232372179449E+04    0.46753E-03   -0.11213E-03  5064   0.178E-02    0.102E-01
RMM:   5    -0.232372166857E+04    0.12592E-03   -0.29378E-04  4522   0.126E-02    0.416E-02
RMM:   6    -0.232372166044E+04    0.81316E-05   -0.12578E-04  3984   0.993E-03    0.129E-02
RMM:   7    -0.232372166010E+04    0.33740E-06   -0.14972E-05  2904   0.483E-03
  44 F= -.23443518E+04 E0= -.23443518E+04  d E =-.181903E-01  mag=     2.0001
       N       E                     dE             d eps       ncg     rms          rms(c)
DAV:   1    -0.232368098882E+04    0.40672E-01   -0.57318E+00  4432   0.238E+00    0.594E-01
RMM:   2    -0.232373763050E+04   -0.56642E-01   -0.60516E-01  6147   0.484E-01    0.334E-01
RMM:   3    -0.232373782220E+04   -0.19170E-03   -0.38345E-02  5837   0.115E-01    0.263E-01
RMM:   4    -0.232373784309E+04   -0.20884E-04   -0.51209E-03  5816   0.332E-02    0.259E-01
RMM:   5    -0.232373723874E+04    0.60435E-03   -0.15597E-03  5391   0.256E-02    0.117E-01
RMM:   6    -0.232373713628E+04    0.10245E-03   -0.46612E-04  4895   0.155E-02    0.391E-02
RMM:   7    -0.232373712874E+04    0.75375E-05   -0.84567E-05  3448   0.896E-03
  45 F= -.23443670E+04 E0= -.23443670E+04  d E =-.151380E-01  mag=     2.0001
       N       E                     dE             d eps       ncg     rms          rms(c)
DAV:   1    -0.232359621250E+04    0.14092E+00   -0.15313E+01  4432   0.390E+00    0.974E-01
RMM:   2    -0.232374745980E+04   -0.15125E+00   -0.16196E+00  6177   0.798E-01    0.542E-01
RMM:   3    -0.232374810102E+04   -0.64122E-03   -0.10667E-01  5858   0.187E-01    0.424E-01
RMM:   4    -0.232374830322E+04   -0.20219E-03   -0.13895E-02  5922   0.544E-02    0.420E-01
RMM:   5    -0.232374688298E+04    0.14202E-02   -0.40390E-03  5501   0.397E-02    0.214E-01
RMM:   6    -0.232374650461E+04    0.37836E-03   -0.13048E-03  5074   0.248E-02    0.727E-02
RMM:   7    -0.232374647336E+04    0.31257E-04   -0.27465E-04  4529   0.162E-02    0.358E-02
RMM:   8    -0.232374646134E+04    0.12014E-04   -0.59601E-05  3116   0.616E-03    0.170E-02
RMM:   9    -0.232374646195E+04   -0.60193E-06   -0.29013E-05  2974   0.445E-03
  46 F= -.23443758E+04 E0= -.23443758E+04  d E =-.239581E-01  mag=     2.0003
       N       E                     dE             d eps       ncg     rms          rms(c)
DAV:   1    -0.232367945516E+04    0.67006E-01   -0.86871E+00  4432   0.293E+00    0.724E-01
RMM:   2    -0.232376360129E+04   -0.84146E-01   -0.90429E-01  6155   0.592E-01    0.397E-01
RMM:   3    -0.232376333522E+04    0.26608E-03   -0.55987E-02  5820   0.144E-01    0.282E-01
RMM:   4    -0.232376310350E+04    0.23171E-03   -0.74814E-03  5393   0.426E-02    0.216E-01
RMM:   5    -0.232376317803E+04   -0.74522E-04   -0.18950E-03  5622   0.311E-02    0.218E-01
RMM:   6    -0.232376269405E+04    0.48397E-03   -0.64084E-04  5200   0.166E-02    0.620E-02
RMM:   7    -0.232376266802E+04    0.26035E-04   -0.14649E-04  3433   0.929E-03    0.251E-02
RMM:   8    -0.232376266677E+04    0.12466E-05   -0.25238E-05  2940   0.465E-03
  47 F= -.23443913E+04 E0= -.23443912E+04  d E =-.154595E-01  mag=     2.0004
       N       E                     dE             d eps       ncg     rms          rms(c)
DAV:   1    -0.232372511174E+04    0.37556E-01   -0.43827E+00  4432   0.208E+00    0.514E-01
RMM:   2    -0.232376761661E+04   -0.42505E-01   -0.45613E-01  6182   0.419E-01    0.284E-01
RMM:   3    -0.232376753476E+04    0.81844E-04   -0.27566E-02  5795   0.102E-01    0.208E-01
RMM:   4    -0.232376765264E+04   -0.11788E-03   -0.37477E-03  5676   0.291E-02    0.226E-01
RMM:   5    -0.232376721636E+04    0.43628E-03   -0.12623E-03  5360   0.232E-02    0.110E-01
RMM:   6    -0.232376711448E+04    0.10188E-03   -0.31859E-04  4721   0.127E-02    0.318E-02
RMM:   7    -0.232376711103E+04    0.34469E-05   -0.61309E-05  3119   0.736E-03
  48 F= -.23443952E+04 E0= -.23443952E+04  d E =-.193842E-01  mag=     2.0004
       N       E                     dE             d eps       ncg     rms          rms(c)
DAV:   1    -0.232371325839E+04    0.53856E-01   -0.84461E+00  4432   0.289E+00    0.699E-01
RMM:   2    -0.232378492534E+04   -0.71667E-01   -0.76334E-01  6126   0.565E-01    0.432E-01
RMM:   3    -0.232378496942E+04   -0.44080E-04   -0.47214E-02  5759   0.139E-01    0.362E-01
RMM:   4    -0.232378448508E+04    0.48434E-03   -0.64719E-03  6044   0.409E-02    0.313E-01
RMM:   5    -0.232378351128E+04    0.97379E-03   -0.23026E-03  5230   0.319E-02    0.122E-01
RMM:   6    -0.232378341644E+04    0.94843E-04   -0.75241E-04  5104   0.210E-02    0.413E-02
RMM:   7    -0.232378340736E+04    0.90761E-05   -0.11434E-04  3894   0.903E-03    0.229E-02
RMM:   8    -0.232378340185E+04    0.55150E-05   -0.20556E-05  2930   0.478E-03
  49 F= -.23444111E+04 E0= -.23444111E+04  d E =-.159218E-01  mag=     2.0004
       N       E                     dE             d eps       ncg     rms          rms(c)
DAV:   1    -0.232376757701E+04    0.15830E-01   -0.21751E+00  4512   0.147E+00    0.354E-01
RMM:   2    -0.232378605281E+04   -0.18476E-01   -0.19632E-01  6108   0.287E-01    0.222E-01
RMM:   3    -0.232378610545E+04   -0.52643E-04   -0.11935E-02  5663   0.744E-02    0.189E-01
RMM:   4    -0.232378593054E+04    0.17491E-03   -0.16655E-03  5483   0.210E-02    0.155E-01
RMM:   5    -0.232378568014E+04    0.25040E-03   -0.59860E-04  4910   0.172E-02    0.592E-02
RMM:   6    -0.232378566237E+04    0.17774E-04   -0.19203E-04  4390   0.115E-02    0.198E-02
RMM:   7    -0.232378566009E+04    0.22779E-05   -0.25464E-05  2986   0.534E-03
  50 F= -.23444132E+04 E0= -.23444132E+04  d E =-.179984E-01  mag=     2.0004
       N       E                     dE             d eps       ncg     rms          rms(c)
DAV:   1    -0.232374305985E+04    0.42603E-01   -0.88334E+00  4464   0.290E+00    0.661E-01
RMM:   2    -0.232380183473E+04   -0.58775E-01   -0.62509E-01  6131   0.542E-01    0.368E-01
RMM:   3    -0.232380157911E+04    0.25563E-03   -0.37640E-02  5754   0.129E-01    0.291E-01
RMM:   4    -0.232380169654E+04   -0.11743E-03   -0.53274E-03  5883   0.381E-02    0.296E-01
RMM:   5    -0.232380085475E+04    0.84178E-03   -0.20825E-03  5297   0.305E-02    0.125E-01
RMM:   6    -0.232380073404E+04    0.12071E-03   -0.48862E-04  4926   0.177E-02    0.370E-02
RMM:   7    -0.232380072626E+04    0.77840E-05   -0.87748E-05  3382   0.831E-03
  51 F= -.23444275E+04 E0= -.23444275E+04  d E =-.143129E-01  mag=     2.0004
       N       E                     dE             d eps       ncg     rms          rms(c)
DAV:   1    -0.232372822954E+04    0.72504E-01   -0.12050E+01  4464   0.339E+00    0.772E-01
RMM:   2    -0.232380835554E+04   -0.80126E-01   -0.85228E-01  6154   0.634E-01    0.429E-01
RMM:   3    -0.232380810595E+04    0.24959E-03   -0.52213E-02  5765   0.150E-01    0.340E-01
RMM:   4    -0.232380824603E+04   -0.14008E-03   -0.72830E-03  5932   0.445E-02    0.343E-01
RMM:   5    -0.232380714074E+04    0.11053E-02   -0.28133E-03  5330   0.350E-02    0.150E-01
RMM:   6    -0.232380696012E+04    0.18062E-03   -0.69222E-04  5100   0.208E-02    0.450E-02
RMM:   7    -0.232380694768E+04    0.12432E-04   -0.12825E-04  3745   0.993E-03    0.226E-02
RMM:   8    -0.232380694196E+04    0.57286E-05   -0.22964E-05  2928   0.488E-03
  52 F= -.23444328E+04 E0= -.23444328E+04  d E =-.196607E-01  mag=     2.0004
       N       E                     dE             d eps       ncg     rms          rms(c)
DAV:   1    -0.232377171916E+04    0.35229E-01   -0.87158E+00  4464   0.283E+00    0.640E-01
RMM:   2    -0.232382312371E+04   -0.51405E-01   -0.54973E-01  6154   0.519E-01    0.366E-01
RMM:   3    -0.232382232165E+04    0.80205E-03   -0.31673E-02  5744   0.124E-01    0.276E-01
RMM:   4    -0.232382260146E+04   -0.27981E-03   -0.47119E-03  5802   0.372E-02    0.309E-01
RMM:   5    -0.232382160690E+04    0.99456E-03   -0.19865E-03  5328   0.304E-02    0.102E-01
RMM:   6    -0.232382153557E+04    0.71339E-04   -0.46192E-04  4845   0.171E-02    0.312E-02
RMM:   7    -0.232382152961E+04    0.59571E-05   -0.63833E-05  3279   0.723E-03
  53 F= -.23444462E+04 E0= -.23444462E+04  d E =-.133533E-01  mag=     2.0004
       N       E                     dE             d eps       ncg     rms          rms(c)
DAV:   1    -0.232374450326E+04    0.77032E-01   -0.14748E+01  4464   0.367E+00    0.831E-01
RMM:   2    -0.232383179898E+04   -0.87296E-01   -0.93392E-01  6134   0.673E-01    0.473E-01
RMM:   3    -0.232383015587E+04    0.16431E-02   -0.51392E-02  5775   0.154E-01    0.352E-01
RMM:   4    -0.232383066414E+04   -0.50828E-03   -0.78038E-03  5863   0.482E-02    0.398E-01
RMM:   5    -0.232382909051E+04    0.15736E-02   -0.32928E-03  5432   0.384E-02    0.143E-01
RMM:   6    -0.232382892367E+04    0.16685E-03   -0.76556E-04  5111   0.218E-02    0.427E-02
RMM:   7    -0.232382891574E+04    0.79283E-05   -0.13032E-04  3762   0.959E-03    0.229E-02
RMM:   8    -0.232382890938E+04    0.63547E-05   -0.20003E-05  2937   0.465E-03
  54 F= -.23444520E+04 E0= -.23444520E+04  d E =-.191487E-01  mag=     2.0003
       N       E                     dE             d eps       ncg     rms          rms(c)
DAV:   1    -0.232378252574E+04    0.46390E-01   -0.11633E+01  4464   0.320E+00    0.706E-01
RMM:   2    -0.232384736550E+04   -0.64840E-01   -0.68674E-01  6109   0.578E-01    0.403E-01
RMM:   3    -0.232384622818E+04    0.11373E-02   -0.38869E-02  5782   0.140E-01    0.274E-01
RMM:   4    -0.232384605125E+04    0.17693E-03   -0.59088E-03  4944   0.437E-02    0.216E-01
RMM:   5    -0.232384609868E+04   -0.47430E-04   -0.18327E-03  5485   0.315E-02    0.207E-01
RMM:   6    -0.232384559745E+04    0.50123E-03   -0.57174E-04  5060   0.173E-02    0.450E-02
RMM:   7    -0.232384559325E+04    0.42033E-05   -0.79891E-05  3266   0.754E-03
  55 F= -.23444677E+04 E0= -.23444677E+04  d E =-.156953E-01  mag=     2.0003
       N       E                     dE             d eps       ncg     rms          rms(c)
DAV:   1    -0.232377183901E+04    0.73758E-01   -0.14997E+01  4464   0.363E+00    0.804E-01
RMM:   2    -0.232385542217E+04   -0.83583E-01   -0.88584E-01  6120   0.657E-01    0.457E-01
RMM:   3    -0.232385403174E+04    0.13904E-02   -0.50536E-02  5792   0.158E-01    0.312E-01
RMM:   4    -0.232385389485E+04    0.13690E-03   -0.76246E-03  5001   0.492E-02    0.257E-01
RMM:   5    -0.232385389405E+04    0.79148E-06   -0.24178E-03  5561   0.358E-02    0.236E-01
RMM:   6    -0.232385324988E+04    0.64418E-03   -0.75526E-04  5261   0.201E-02    0.511E-02
RMM:   7    -0.232385324538E+04    0.44937E-05   -0.11186E-04  3430   0.863E-03    0.217E-02
RMM:   8    -0.232385324207E+04    0.33161E-05   -0.17711E-05  2917   0.419E-03
  56 F= -.23444742E+04 E0= -.23444742E+04  d E =-.222328E-01  mag=     2.0002
       N       E                     dE             d eps       ncg     rms          rms(c)
DAV:   1    -0.232378028710E+04    0.72958E-01   -0.14816E+01  4464   0.360E+00    0.820E-01
RMM:   2    -0.232387334912E+04   -0.93062E-01   -0.98179E-01  6177   0.670E-01    0.479E-01
RMM:   3    -0.232387308758E+04    0.26154E-03   -0.57750E-02  5858   0.164E-01    0.453E-01
RMM:   4    -0.232387200403E+04    0.10835E-02   -0.81090E-03  6044   0.463E-02    0.330E-01
RMM:   5    -0.232387082078E+04    0.11832E-02   -0.32130E-03  5107   0.394E-02    0.116E-01
RMM:   6    -0.232387072004E+04    0.10074E-03   -0.68254E-04  5109   0.227E-02    0.422E-02
RMM:   7    -0.232387071696E+04    0.30770E-05   -0.11115E-04  3675   0.765E-03    0.213E-02
RMM:   8    -0.232387071243E+04    0.45292E-05   -0.17640E-05  2916   0.510E-03
  57 F= -.23444903E+04 E0= -.23444903E+04  d E =-.160565E-01  mag=     2.0002
       N       E                     dE             d eps       ncg     rms          rms(c)
DAV:   1    -0.232384869823E+04    0.22019E-01   -0.41478E+00  4528   0.190E+00    0.432E-01
RMM:   2    -0.232387473824E+04   -0.26040E-01   -0.27488E-01  6146   0.354E-01    0.245E-01
RMM:   3    -0.232387452214E+04    0.21610E-03   -0.14914E-02  5782   0.867E-02    0.216E-01
RMM:   4    -0.232387438732E+04    0.13481E-03   -0.22405E-03  5473   0.246E-02    0.184E-01
RMM:   5    -0.232387397472E+04    0.41260E-03   -0.95945E-04  5005   0.219E-02    0.543E-02
RMM:   6    -0.232387396026E+04    0.14462E-04   -0.15376E-04  3953   0.122E-02    0.204E-02
RMM:   7    -0.232387396031E+04   -0.54424E-07   -0.22612E-05  2941   0.427E-03
  58 F= -.23444928E+04 E0= -.23444928E+04  d E =-.185604E-01  mag=     2.0002
       N       E                     dE             d eps       ncg     rms          rms(c)
DAV:   1    -0.232382374966E+04    0.50211E-01   -0.77051E+00  4432   0.267E+00    0.621E-01
RMM:   2    -0.232388707200E+04   -0.63322E-01   -0.66835E-01  6180   0.526E-01    0.385E-01
RMM:   3    -0.232388804941E+04   -0.97741E-03   -0.47998E-02  5808   0.145E-01    0.325E-01
RMM:   4    -0.232388781605E+04    0.23336E-03   -0.60500E-03  5825   0.355E-02    0.266E-01
RMM:   5    -0.232388703404E+04    0.78201E-03   -0.16530E-03  5235   0.276E-02    0.116E-01
RMM:   6    -0.232388691824E+04    0.11581E-03   -0.57837E-04  5082   0.182E-02    0.383E-02
RMM:   7    -0.232388691226E+04    0.59792E-05   -0.77039E-05  3591   0.762E-03
  59 F= -.23445042E+04 E0= -.23445042E+04  d E =-.114440E-01  mag=     2.0002
       N       E                     dE             d eps       ncg     rms          rms(c)
DAV:   1    -0.232383741947E+04    0.49499E-01   -0.64728E+00  4432   0.244E+00    0.571E-01
RMM:   2    -0.232389067974E+04   -0.53260E-01   -0.56255E-01  6189   0.481E-01    0.352E-01
RMM:   3    -0.232389145472E+04   -0.77498E-03   -0.40054E-02  5812   0.128E-01    0.295E-01
RMM:   4    -0.232389127938E+04    0.17534E-03   -0.50589E-03  5756   0.323E-02    0.245E-01
RMM:   5    -0.232389061666E+04    0.66272E-03   -0.13824E-03  5239   0.252E-02    0.105E-01
RMM:   6    -0.232389052363E+04    0.93029E-04   -0.47488E-04  4932   0.167E-02    0.348E-02
RMM:   7    -0.232389051860E+04    0.50221E-05   -0.61893E-05  3438   0.700E-03
  60 F= -.23445065E+04 E0= -.23445064E+04  d E =-.136792E-01  mag=     2.0002
       N       E                     dE             d eps       ncg     rms          rms(c)
DAV:   1    -0.232386270180E+04    0.27822E-01   -0.42789E+00  4464   0.198E+00    0.457E-01
RMM:   2    -0.232389896115E+04   -0.36259E-01   -0.38080E-01  6231   0.390E-01    0.274E-01
RMM:   3    -0.232389976068E+04   -0.79953E-03   -0.27449E-02  5825   0.104E-01    0.232E-01
RMM:   4    -0.232389965759E+04    0.10309E-03   -0.34518E-03  5409   0.258E-02    0.194E-01
RMM:   5    -0.232389925070E+04    0.40689E-03   -0.87242E-04  5048   0.198E-02    0.817E-02
RMM:   6    -0.232389920865E+04    0.42054E-04   -0.27500E-04  4540   0.130E-02    0.278E-02
RMM:   7    -0.232389920968E+04   -0.10284E-05   -0.40158E-05  3086   0.598E-03
  61 F= -.23445141E+04 E0= -.23445141E+04  d E =-.760528E-02  mag=     2.0002
       N       E                     dE             d eps       ncg     rms          rms(c)
DAV:   1    -0.232358097666E+04    0.31823E+00   -0.38458E+01  4432   0.594E+00    0.138E+00
RMM:   2    -0.232391198255E+04   -0.33101E+00   -0.34653E+00  6242   0.118E+00    0.890E-01
RMM:   3    -0.232391928023E+04   -0.72977E-02   -0.25654E-01  5944   0.299E-01    0.847E-01
RMM:   4    -0.232391508152E+04    0.41987E-02   -0.30493E-02  6107   0.786E-02    0.552E-01
RMM:   5    -0.232391226574E+04    0.28158E-02   -0.80698E-03  5271   0.563E-02    0.281E-01
RMM:   6    -0.232391164320E+04    0.62255E-03   -0.30746E-03  5337   0.387E-02    0.102E-01
RMM:   7    -0.232391161666E+04    0.26542E-04   -0.60902E-04  5043   0.212E-02    0.432E-02
RMM:   8    -0.232391160130E+04    0.15355E-04   -0.87355E-05  3189   0.725E-03    0.231E-02
RMM:   9    -0.232391159668E+04    0.46194E-05   -0.29614E-05  3001   0.494E-03
  62 F= -.23445232E+04 E0= -.23445232E+04  d E =-.167634E-01  mag=     2.0003
       N       E                     dE             d eps       ncg     rms          rms(c)
DAV:   1    -0.232386384010E+04    0.47761E-01   -0.78681E+00  4464   0.264E+00    0.639E-01
RMM:   2    -0.232392654048E+04   -0.62700E-01   -0.66405E-01  6244   0.519E-01    0.364E-01
RMM:   3    -0.232392743139E+04   -0.89091E-03   -0.48765E-02  5831   0.130E-01    0.260E-01
RMM:   4    -0.232392756767E+04   -0.13628E-03   -0.62177E-03  5463   0.355E-02    0.261E-01
RMM:   5    -0.232392705768E+04    0.50999E-03   -0.16687E-03  5533   0.264E-02    0.162E-01
RMM:   6    -0.232392676359E+04    0.29409E-03   -0.52068E-04  5080   0.167E-02    0.421E-02
RMM:   7    -0.232392675771E+04    0.58830E-05   -0.10704E-04  3441   0.857E-03    0.181E-02
RMM:   8    -0.232392675420E+04    0.35073E-05   -0.17299E-05  2914   0.417E-03
  63 F= -.23445368E+04 E0= -.23445368E+04  d E =-.135972E-01  mag=     2.0002
       N       E                     dE             d eps       ncg     rms          rms(c)
DAV:   1    -0.232385249692E+04    0.74261E-01   -0.10245E+01  4464   0.301E+00    0.728E-01
RMM:   2    -0.232393405319E+04   -0.81556E-01   -0.86368E-01  6234   0.591E-01    0.415E-01
RMM:   3    -0.232393525545E+04   -0.12023E-02   -0.64445E-02  5833   0.149E-01    0.297E-01
RMM:   4    -0.232393538319E+04   -0.12774E-03   -0.80808E-03  5478   0.402E-02    0.291E-01
RMM:   5    -0.232393482551E+04    0.55767E-03   -0.21519E-03  5630   0.299E-02    0.194E-01
RMM:   6    -0.232393439039E+04    0.43513E-03   -0.71772E-04  5257   0.192E-02    0.499E-02
RMM:   7    -0.232393438006E+04    0.10326E-04   -0.15304E-04  3689   0.100E-02    0.212E-02
RMM:   8    -0.232393437483E+04    0.52318E-05   -0.23088E-05  2940   0.452E-03
  64 F= -.23445427E+04 E0= -.23445427E+04  d E =-.194494E-01  mag=     2.0002
       N       E                     dE             d eps       ncg     rms          rms(c)
DAV:   1    -0.232388214461E+04    0.52235E-01   -0.79316E+00  4432   0.268E+00    0.678E-01
RMM:   2    -0.232394891849E+04   -0.66774E-01   -0.70760E-01  6222   0.537E-01    0.407E-01
RMM:   3    -0.232395043975E+04   -0.15213E-02   -0.57048E-02  5795   0.142E-01    0.294E-01
RMM:   4    -0.232395075993E+04   -0.32018E-03   -0.68810E-03  5864   0.380E-02    0.316E-01
RMM:   5    -0.232394983004E+04    0.92989E-03   -0.18478E-03  5481   0.267E-02    0.143E-01
RMM:   6    -0.232394963945E+04    0.19059E-03   -0.65349E-04  4878   0.178E-02    0.424E-02
RMM:   7    -0.232394963369E+04    0.57592E-05   -0.11274E-04  3621   0.112E-02    0.192E-02
RMM:   8    -0.232394963117E+04    0.25232E-05   -0.18362E-05  2907   0.403E-03
  65 F= -.23445563E+04 E0= -.23445563E+04  d E =-.136652E-01  mag=     2.0002
       N       E                     dE             d eps       ncg     rms          rms(c)
DAV:   1    -0.232390099837E+04    0.48635E-01   -0.63480E+00  4448   0.240E+00    0.607E-01
RMM:   2    -0.232395441167E+04   -0.53413E-01   -0.56604E-01  6215   0.481E-01    0.365E-01
RMM:   3    -0.232395558973E+04   -0.11781E-02   -0.45265E-02  5797   0.128E-01    0.265E-01
RMM:   4    -0.232395584481E+04   -0.25509E-03   -0.55120E-03  5819   0.340E-02    0.285E-01
RMM:   5    -0.232395505447E+04    0.79035E-03   -0.14842E-03  5384   0.242E-02    0.123E-01
RMM:   6    -0.232395491980E+04    0.13467E-03   -0.51960E-04  4788   0.162E-02    0.368E-02
RMM:   7    -0.232395491578E+04    0.40184E-05   -0.87962E-05  3434   0.991E-03
  66 F= -.23445602E+04 E0= -.23445602E+04  d E =-.175384E-01  mag=     2.0002
       N       E                     dE             d eps       ncg     rms          rms(c)
DAV:   1    -0.232390498909E+04    0.49931E-01   -0.73382E+00  4432   0.255E+00    0.620E-01
RMM:   2    -0.232396749130E+04   -0.62502E-01   -0.65812E-01  6260   0.514E-01    0.368E-01
RMM:   3    -0.232396927464E+04   -0.17833E-02   -0.52517E-02  5854   0.130E-01    0.286E-01
RMM:   4    -0.232396944283E+04   -0.16819E-03   -0.62895E-03  5776   0.342E-02    0.277E-01
RMM:   5    -0.232396871689E+04    0.72594E-03   -0.15499E-03  5284   0.239E-02    0.134E-01
RMM:   6    -0.232396855686E+04    0.16003E-03   -0.58458E-04  4783   0.168E-02    0.400E-02
RMM:   7    -0.232396855409E+04    0.27785E-05   -0.10058E-04  3477   0.104E-02    0.183E-02
RMM:   8    -0.232396855433E+04   -0.24735E-06   -0.17679E-05  2911   0.395E-03
  67 F= -.23445723E+04 E0= -.23445723E+04  d E =-.121060E-01  mag=     2.0002
       N       E                     dE             d eps       ncg     rms          rms(c)
DAV:   1    -0.232376165876E+04    0.20690E+00   -0.25088E+01  4432   0.470E+00    0.115E+00
RMM:   2    -0.232397568844E+04   -0.21403E+00   -0.22546E+00  6287   0.957E-01    0.675E-01
RMM:   3    -0.232398272769E+04   -0.70392E-02   -0.18228E-01  5887   0.241E-01    0.513E-01
RMM:   4    -0.232398327935E+04   -0.55167E-03   -0.21222E-02  5977   0.636E-02    0.487E-01
RMM:   5    -0.232398146857E+04    0.18108E-02   -0.51233E-03  5612   0.416E-02    0.294E-01
RMM:   6    -0.232398064681E+04    0.82175E-03   -0.21387E-03  4784   0.305E-02    0.881E-02
RMM:   7    -0.232398061066E+04    0.36154E-04   -0.40793E-04  4494   0.207E-02    0.385E-02
RMM:   8    -0.232398060844E+04    0.22188E-05   -0.77263E-05  3177   0.637E-03
  68 F= -.23445816E+04 E0= -.23445816E+04  d E =-.213555E-01  mag=     2.0002
       N       E                     dE             d eps       ncg     rms          rms(c)
DAV:   1    -0.232390702463E+04    0.73586E-01   -0.10242E+01  4464   0.302E+00    0.763E-01
RMM:   2    -0.232399559610E+04   -0.88571E-01   -0.93853E-01  6272   0.613E-01    0.442E-01
RMM:   3    -0.232399807680E+04   -0.24807E-02   -0.75028E-02  5841   0.157E-01    0.331E-01
RMM:   4    -0.232399844256E+04   -0.36576E-03   -0.91110E-03  5905   0.420E-02    0.339E-01
RMM:   5    -0.232399738322E+04    0.10593E-02   -0.22311E-03  5510   0.284E-02    0.163E-01
RMM:   6    -0.232399712795E+04    0.25526E-03   -0.82078E-04  4867   0.194E-02    0.480E-02
RMM:   7    -0.232399712036E+04    0.75911E-05   -0.14371E-04  3899   0.126E-02    0.214E-02
RMM:   8    -0.232399712110E+04   -0.73924E-06   -0.25322E-05  2933   0.431E-03
  69 F= -.23445961E+04 E0= -.23445961E+04  d E =-.145814E-01  mag=     2.0002
       N       E                     dE             d eps       ncg     rms          rms(c)
DAV:   1    -0.232360539141E+04    0.39173E+00   -0.45244E+01  4464   0.633E+00    0.161E+00
RMM:   2    -0.232400243098E+04   -0.39704E+00   -0.42025E+00  6244   0.130E+00    0.915E-01
RMM:   3    -0.232401072628E+04   -0.82953E-02   -0.30132E-01  5894   0.314E-01    0.652E-01
RMM:   4    -0.232401057527E+04    0.15101E-03   -0.37040E-02  5659   0.870E-02    0.539E-01
RMM:   5    -0.232401045415E+04    0.12112E-03   -0.88027E-03  5862   0.580E-02    0.518E-01
RMM:   6    -0.232400753752E+04    0.29166E-02   -0.38326E-03  5220   0.405E-02    0.129E-01
RMM:   7    -0.232400744112E+04    0.96398E-04   -0.86188E-04  4833   0.237E-02    0.534E-02
RMM:   8    -0.232400743448E+04    0.66346E-05   -0.11830E-04  3685   0.861E-03    0.268E-02
RMM:   9    -0.232400743729E+04   -0.28032E-05   -0.35355E-05  3020   0.548E-03
  70 F= -.23446024E+04 E0= -.23446024E+04  d E =-.208777E-01  mag=     2.0002
       N       E                     dE             d eps       ncg     rms          rms(c)
DAV:   1    -0.232397131335E+04    0.36121E-01   -0.41622E+00  4512   0.192E+00    0.482E-01
RMM:   2    -0.232400766284E+04   -0.36349E-01   -0.38371E-01  6244   0.390E-01    0.295E-01
RMM:   3    -0.232400841691E+04   -0.75407E-03   -0.28315E-02  5857   0.996E-02    0.248E-01
RMM:   4    -0.232400825146E+04    0.16545E-03   -0.34941E-03  5558   0.259E-02    0.207E-01
RMM:   5    -0.232400778351E+04    0.46795E-03   -0.81289E-04  5041   0.199E-02    0.846E-02
RMM:   6    -0.232400773924E+04    0.44266E-04   -0.40701E-04  4662   0.141E-02    0.266E-02
RMM:   7    -0.232400773297E+04    0.62714E-05   -0.43463E-05  3102   0.787E-03
  71 F= -.23446040E+04 E0= -.23446039E+04  d E =-.223871E-01  mag=     2.0002
       N       E                     dE             d eps       ncg     rms          rms(c)
DAV:   1    -0.232390169238E+04    0.10605E+00   -0.13776E+01  4432   0.340E+00    0.861E-01
RMM:   2    -0.232402615713E+04   -0.12446E+00   -0.13167E+00  6241   0.692E-01    0.516E-01
RMM:   3    -0.232402730598E+04   -0.11488E-02   -0.87136E-02  5908   0.169E-01    0.366E-01
RMM:   4    -0.232402763884E+04   -0.33286E-03   -0.11370E-02  5552   0.456E-02    0.347E-01
RMM:   5    -0.232402694638E+04    0.69246E-03   -0.28691E-03  5710   0.330E-02    0.243E-01
RMM:   6    -0.232402633261E+04    0.61377E-03   -0.10878E-03  5332   0.226E-02    0.596E-02
RMM:   7    -0.232402633570E+04   -0.30915E-05   -0.21165E-04  3935   0.117E-02    0.247E-02
RMM:   8    -0.232402633101E+04    0.46892E-05   -0.23656E-05  2957   0.479E-03
  72 F= -.23446204E+04 E0= -.23446204E+04  d E =-.164550E-01  mag=     2.0002
       N       E                     dE             d eps       ncg     rms          rms(c)
DAV:   1    -0.232380611578E+04    0.22022E+00   -0.25659E+01  4432   0.464E+00    0.119E+00
RMM:   2    -0.232403796204E+04   -0.23185E+00   -0.24534E+00  6249   0.947E-01    0.714E-01
RMM:   3    -0.232404173136E+04   -0.37693E-02   -0.17516E-01  5906   0.236E-01    0.514E-01
RMM:   4    -0.232404229850E+04   -0.56715E-03   -0.21922E-02  5709   0.620E-02    0.475E-01
RMM:   5    -0.232404116771E+04    0.11308E-02   -0.51789E-03  5759   0.430E-02    0.350E-01
RMM:   6    -0.232403994687E+04    0.12208E-02   -0.21705E-03  5334   0.310E-02    0.902E-02
RMM:   7    -0.232403994687E+04   -0.23865E-08   -0.44056E-04  4564   0.170E-02    0.376E-02
RMM:   8    -0.232403994168E+04    0.51893E-05   -0.56550E-05  3099   0.667E-03
  73 F= -.23446311E+04 E0= -.23446311E+04  d E =-.271706E-01  mag=     2.0002
       N       E                     dE             d eps       ncg     rms          rms(c)
DAV:   1    -0.232393845067E+04    0.10150E+00   -0.13959E+01  4432   0.328E+00    0.886E-01
RMM:   2    -0.232405963745E+04   -0.12119E+00   -0.12872E+00  6248   0.678E-01    0.513E-01
RMM:   3    -0.232406184491E+04   -0.22075E-02   -0.95379E-02  5879   0.172E-01    0.406E-01
RMM:   4    -0.232406218291E+04   -0.33800E-03   -0.11996E-02  5920   0.455E-02    0.392E-01
RMM:   5    -0.232406080777E+04    0.13751E-02   -0.31082E-03  5519   0.343E-02    0.185E-01
RMM:   6    -0.232406048316E+04    0.32461E-03   -0.10704E-03  5325   0.220E-02    0.572E-02
RMM:   7    -0.232406048172E+04    0.14374E-05   -0.17991E-04  3878   0.118E-02    0.246E-02
RMM:   8    -0.232406048054E+04    0.11873E-05   -0.31597E-05  2962   0.488E-03
  74 F= -.23446496E+04 E0= -.23446496E+04  d E =-.184664E-01  mag=     2.0002
       N       E                     dE             d eps       ncg     rms          rms(c)
DAV:   1    -0.232402029949E+04    0.40182E-01   -0.50937E+00  4480   0.198E+00    0.534E-01
RMM:   2    -0.232406440669E+04   -0.44107E-01   -0.46844E-01  6254   0.409E-01    0.301E-01
RMM:   3    -0.232406500396E+04   -0.59726E-03   -0.32951E-02  5827   0.107E-01    0.213E-01
RMM:   4    -0.232406525986E+04   -0.25590E-03   -0.43106E-03  5465   0.287E-02    0.233E-01
RMM:   5    -0.232406479582E+04    0.46404E-03   -0.11358E-03  5352   0.209E-02    0.121E-01
RMM:   6    -0.232406464502E+04    0.15079E-03   -0.32835E-04  4587   0.129E-02    0.310E-02
RMM:   7    -0.232406464686E+04   -0.18388E-05   -0.58432E-05  3063   0.690E-03
  75 F= -.23446525E+04 E0= -.23446525E+04  d E =-.213842E-01  mag=     2.0002
       N       E                     dE             d eps       ncg     rms          rms(c)
DAV:   1    -0.232398322675E+04    0.81418E-01   -0.10574E+01  4432   0.292E+00    0.792E-01
RMM:   2    -0.232407825132E+04   -0.95025E-01   -0.10086E+00  6256   0.602E-01    0.449E-01
RMM:   3    -0.232408031980E+04   -0.20685E-02   -0.79520E-02  5868   0.155E-01    0.316E-01
RMM:   4    -0.232408083701E+04   -0.51721E-03   -0.96607E-03  5735   0.422E-02    0.330E-01
RMM:   5    -0.232408005311E+04    0.78390E-03   -0.21093E-03  5520   0.271E-02    0.192E-01
RMM:   6    -0.232407969290E+04    0.36021E-03   -0.78938E-04  4789   0.184E-02    0.519E-02
RMM:   7    -0.232407969519E+04   -0.22886E-05   -0.15268E-04  3550   0.116E-02    0.221E-02
RMM:   8    -0.232407969837E+04   -0.31815E-05   -0.24550E-05  2940   0.437E-03
  76 F= -.23446659E+04 E0= -.23446658E+04  d E =-.133496E-01  mag=     2.0001
       N       E                     dE             d eps       ncg     rms          rms(c)
DAV:   1    -0.232387649178E+04    0.20320E+00   -0.23344E+01  4432   0.434E+00    0.118E+00
RMM:   2    -0.232408585529E+04   -0.20936E+00   -0.22229E+00  6294   0.893E-01    0.667E-01
RMM:   3    -0.232409084866E+04   -0.49934E-02   -0.18165E-01  5872   0.232E-01    0.465E-01
RMM:   4    -0.232409104645E+04   -0.19780E-03   -0.20784E-02  5686   0.615E-02    0.377E-01
RMM:   5    -0.232409133668E+04   -0.29022E-03   -0.43985E-03  5728   0.394E-02    0.395E-01
RMM:   6    -0.232408965995E+04    0.16767E-02   -0.19780E-03  5281   0.281E-02    0.100E-01
RMM:   7    -0.232408965943E+04    0.52582E-06   -0.41278E-04  4421   0.158E-02    0.400E-02
RMM:   8    -0.232408966984E+04   -0.10415E-04   -0.54935E-05  3079   0.636E-03    0.263E-02
RMM:   9    -0.232408966719E+04    0.26502E-05   -0.18386E-05  2914   0.395E-03
  77 F= -.23446733E+04 E0= -.23446733E+04  d E =-.208073E-01  mag=     2.0001
       N       E                     dE             d eps       ncg     rms          rms(c)
DAV:   1    -0.232402658383E+04    0.63086E-01   -0.85989E+00  4432   0.268E+00    0.756E-01
RMM:   2    -0.232410417084E+04   -0.77587E-01   -0.81739E-01  6223   0.561E-01    0.466E-01
RMM:   3    -0.232410767863E+04   -0.35078E-02   -0.71573E-02  5828   0.154E-01    0.464E-01
RMM:   4    -0.232410625767E+04    0.14210E-02   -0.84127E-03  6052   0.412E-02    0.288E-01
RMM:   5    -0.232410545609E+04    0.80158E-03   -0.18651E-03  5206   0.271E-02    0.134E-01
RMM:   6    -0.232410530188E+04    0.15422E-03   -0.83787E-04  5100   0.202E-02    0.492E-02
RMM:   7    -0.232410529916E+04    0.27147E-05   -0.12934E-04  4062   0.110E-02    0.228E-02
RMM:   8    -0.232410530028E+04   -0.11131E-05   -0.24937E-05  2945   0.436E-03
  78 F= -.23446876E+04 E0= -.23446876E+04  d E =-.143097E-01  mag=     2.0001
       N       E                     dE             d eps       ncg     rms          rms(c)
DAV:   1    -0.232406997450E+04    0.35325E-01   -0.42172E+00  4496   0.187E+00    0.531E-01
RMM:   2    -0.232410813036E+04   -0.38156E-01   -0.40141E-01  6219   0.395E-01    0.332E-01
RMM:   3    -0.232410984132E+04   -0.17110E-02   -0.34405E-02  5801   0.111E-01    0.339E-01
RMM:   4    -0.232410898612E+04    0.85520E-03   -0.41358E-03  5762   0.293E-02    0.196E-01
RMM:   5    -0.232410859483E+04    0.39128E-03   -0.89511E-04  4975   0.196E-02    0.876E-02
RMM:   6    -0.232410853505E+04    0.59786E-04   -0.39165E-04  4742   0.147E-02    0.310E-02
RMM:   7    -0.232410853551E+04   -0.46621E-06   -0.54092E-05  3223   0.751E-03
  79 F= -.23446899E+04 E0= -.23446899E+04  d E =-.166228E-01  mag=     2.0001
       N       E                     dE             d eps       ncg     rms          rms(c)
DAV:   1    -0.232402163565E+04    0.86899E-01   -0.11654E+01  4432   0.298E+00    0.833E-01
RMM:   2    -0.232412467860E+04   -0.10304E+00   -0.10793E+00  6300   0.632E-01    0.556E-01
RMM:   3    -0.232412804643E+04   -0.33678E-02   -0.83346E-02  5913   0.156E-01    0.569E-01
RMM:   4    -0.232412558038E+04    0.24660E-02   -0.10577E-02  6027   0.450E-02    0.308E-01
RMM:   5    -0.232412466904E+04    0.91134E-03   -0.22756E-03  5185   0.290E-02    0.158E-01
RMM:   6    -0.232412448168E+04    0.18736E-03   -0.13023E-03  5021   0.232E-02    0.568E-02
RMM:   7    -0.232412447741E+04    0.42646E-05   -0.18352E-04  3847   0.130E-02    0.275E-02
RMM:   8    -0.232412448032E+04   -0.29053E-05   -0.36078E-05  3011   0.447E-03
  80 F= -.23447042E+04 E0= -.23447042E+04  d E =-.142507E-01  mag=     2.0001
       N       E                     dE             d eps       ncg     rms          rms(c)
DAV:   1    -0.232402279793E+04    0.10168E+00   -0.11972E+01  4432   0.303E+00    0.845E-01
RMM:   2    -0.232412909787E+04   -0.10630E+00   -0.11127E+00  6330   0.647E-01    0.571E-01
RMM:   3    -0.232413258477E+04   -0.34869E-02   -0.85924E-02  5914   0.162E-01    0.585E-01
RMM:   4    -0.232412990507E+04    0.26797E-02   -0.10907E-02  6085   0.463E-02    0.311E-01
RMM:   5    -0.232412896838E+04    0.93669E-03   -0.23672E-03  5203   0.295E-02    0.159E-01
RMM:   6    -0.232412877507E+04    0.19331E-03   -0.13350E-03  5073   0.236E-02    0.573E-02
RMM:   7    -0.232412876809E+04    0.69793E-05   -0.18614E-04  3887   0.131E-02    0.278E-02
RMM:   8    -0.232412877012E+04   -0.20352E-05   -0.37057E-05  3010   0.449E-03
  81 F= -.23447068E+04 E0= -.23447068E+04  d E =-.168286E-01  mag=     2.0001
       N       E                     dE             d eps       ncg     rms          rms(c)
DAV:   1    -0.232408252490E+04    0.46243E-01   -0.61062E+00  4432   0.217E+00    0.612E-01
RMM:   2    -0.232414026561E+04   -0.57741E-01   -0.60498E-01  6331   0.467E-01    0.423E-01
RMM:   3    -0.232414234257E+04   -0.20770E-02   -0.48110E-02  5895   0.122E-01    0.416E-01
RMM:   4    -0.232414101805E+04    0.13245E-02   -0.58952E-03  5793   0.335E-02    0.233E-01
RMM:   5    -0.232414050246E+04    0.51559E-03   -0.12225E-03  5007   0.213E-02    0.115E-01
RMM:   6    -0.232414041883E+04    0.83631E-04   -0.70259E-04  4854   0.172E-02    0.392E-02
RMM:   7    -0.232414041624E+04    0.25901E-05   -0.90600E-05  3237   0.987E-03
  82 F= -.23447173E+04 E0= -.23447173E+04  d E =-.104987E-01  mag=     2.0001
       N       E                     dE             d eps       ncg     rms          rms(c)
DAV:   1    -0.232363244225E+04    0.50798E+00   -0.53488E+01  4432   0.643E+00    0.183E+00
RMM:   2    -0.232415274343E+04   -0.52030E+00   -0.54296E+00  6346   0.140E+00    0.124E+00
RMM:   3    -0.232416892966E+04   -0.16186E-01   -0.41347E-01  5907   0.341E-01    0.122E+00
RMM:   4    -0.232415912268E+04    0.98070E-02   -0.51393E-02  6212   0.984E-02    0.702E-01
RMM:   5    -0.232415523526E+04    0.38874E-02   -0.99556E-03  5304   0.579E-02    0.386E-01
RMM:   6    -0.232415417353E+04    0.10617E-02   -0.67758E-03  4888   0.484E-02    0.156E-01
RMM:   7    -0.232415417524E+04   -0.17069E-05   -0.10702E-03  4848   0.332E-02    0.720E-02
RMM:   8    -0.232415419092E+04   -0.15677E-04   -0.21970E-04  3832   0.906E-03    0.461E-02
RMM:   9    -0.232415417193E+04    0.18988E-04   -0.52979E-05  3056   0.666E-03    0.260E-02
RMM:  10    -0.232415417002E+04    0.19152E-05   -0.38867E-05  3003   0.468E-03
  83 F= -.23447276E+04 E0= -.23447276E+04  d E =-.208665E-01  mag=     2.0001
       N       E                     dE             d eps       ncg     rms          rms(c)
DAV:   1    -0.232404081705E+04    0.11335E+00   -0.12424E+01  4432   0.304E+00    0.883E-01
RMM:   2    -0.232417027928E+04   -0.12946E+00   -0.13574E+00  6324   0.669E-01    0.557E-01
RMM:   3    -0.232417573832E+04   -0.54590E-02   -0.11442E-01  5929   0.179E-01    0.510E-01
RMM:   4    -0.232417472085E+04    0.10175E-02   -0.13067E-02  6043   0.467E-02    0.368E-01
RMM:   5    -0.232417354775E+04    0.11731E-02   -0.26466E-03  5355   0.295E-02    0.186E-01
RMM:   6    -0.232417327299E+04    0.27477E-03   -0.14437E-03  4789   0.224E-02    0.663E-02
RMM:   7    -0.232417327199E+04    0.99657E-06   -0.24471E-04  4059   0.159E-02    0.305E-02
RMM:   8    -0.232417327816E+04   -0.61738E-05   -0.54157E-05  3103   0.507E-03
  84 F= -.23447453E+04 E0= -.23447452E+04  d E =-.176191E-01  mag=     2.0001
       N       E                     dE             d eps       ncg     rms          rms(c)
DAV:   1    -0.232388283599E+04    0.29044E+00   -0.28015E+01  4432   0.455E+00    0.134E+00
RMM:   2    -0.232417584673E+04   -0.29301E+00   -0.30710E+00  6299   0.101E+00    0.839E-01
RMM:   3    -0.232418858580E+04   -0.12739E-01   -0.26100E-01  5957   0.275E-01    0.776E-01
RMM:   4    -0.232418648533E+04    0.21005E-02   -0.29648E-02  6210   0.710E-02    0.561E-01
RMM:   5    -0.232418403163E+04    0.24537E-02   -0.57603E-03  5469   0.419E-02    0.305E-01
RMM:   6    -0.232418324575E+04    0.78588E-03   -0.34702E-03  4694   0.333E-02    0.117E-01
RMM:   7    -0.232418325935E+04   -0.13592E-04   -0.62714E-04  4544   0.248E-02    0.559E-02
RMM:   8    -0.232418327299E+04   -0.13647E-04   -0.14363E-04  3686   0.772E-03    0.379E-02
RMM:   9    -0.232418326216E+04    0.10834E-04   -0.34104E-05  2943   0.579E-03    0.203E-02
RMM:  10    -0.232418326462E+04   -0.24585E-05   -0.29488E-05  2950   0.396E-03
  85 F= -.23447530E+04 E0= -.23447530E+04  d E =-.253809E-01  mag=     2.0001
       N       E                     dE             d eps       ncg     rms          rms(c)
DAV:   1    -0.232400760981E+04    0.17565E+00   -0.17985E+01  4432   0.353E+00    0.104E+00
RMM:   2    -0.232420109524E+04   -0.19349E+00   -0.20357E+00  6344   0.789E-01    0.606E-01
RMM:   3    -0.232420660229E+04   -0.55071E-02   -0.15694E-01  5938   0.204E-01    0.471E-01
RMM:   4    -0.232420739037E+04   -0.78808E-03   -0.18254E-02  5947   0.516E-02    0.454E-01
RMM:   5    -0.232420578246E+04    0.16079E-02   -0.35085E-03  5501   0.307E-02    0.263E-01
RMM:   6    -0.232420509853E+04    0.68393E-03   -0.18762E-03  4667   0.240E-02    0.853E-02
RMM:   7    -0.232420512777E+04   -0.29238E-04   -0.30543E-04  4091   0.166E-02    0.431E-02
RMM:   8    -0.232420513710E+04   -0.93349E-05   -0.67351E-05  3140   0.570E-03
  86 F= -.23447727E+04 E0= -.23447727E+04  d E =-.196760E-01  mag=     2.0001
       N       E                     dE             d eps       ncg     rms          rms(c)
DAV:   1    -0.232396795305E+04    0.23717E+00   -0.22446E+01  4432   0.395E+00    0.118E+00
RMM:   2    -0.232421033850E+04   -0.24239E+00   -0.25497E+00  6356   0.875E-01    0.684E-01
RMM:   3    -0.232421704398E+04   -0.67055E-02   -0.18895E-01  5933   0.217E-01    0.560E-01
RMM:   4    -0.232421771930E+04   -0.67532E-03   -0.22532E-02  6010   0.570E-02    0.515E-01
[...]
RMM:   6    -0.232497506372E+04    0.61238E-04   -0.60747E-04  4532   0.137E-02    0.387E-02
RMM:   7    -0.232497505508E+04    0.86346E-05   -0.79102E-05  2967   0.900E-03
 276 F= -.23454237E+04 E0= -.23454234E+04  d E =-.394852E-02  mag=     2.0058
       N       E                     dE             d eps       ncg     rms          rms(c)
DAV:   1    -0.232486517830E+04    0.10989E+00   -0.11104E+01  4432   0.260E+00    0.847E-01
RMM:   2    -0.232497469223E+04   -0.10951E+00   -0.11550E+00  6152   0.535E-01    0.624E-01
RMM:   3    -0.232498188634E+04   -0.71941E-02   -0.10157E-01  5888   0.164E-01    0.712E-01
RMM:   4    -0.232497840496E+04    0.34814E-02   -0.12548E-02  5991   0.417E-02    0.306E-01
RMM:   5    -0.232497746237E+04    0.94259E-03   -0.23430E-03  5142   0.249E-02    0.177E-01
RMM:   6    -0.232497729205E+04    0.17033E-03   -0.15537E-03  4974   0.206E-02    0.635E-02
RMM:   7    -0.232497726828E+04    0.23766E-04   -0.18578E-04  3650   0.123E-02    0.365E-02
RMM:   8    -0.232497725863E+04    0.96554E-05   -0.71933E-05  3014   0.507E-03
 277 F= -.23454249E+04 E0= -.23454246E+04  d E =-.514165E-02  mag=     2.0061
       N       E                     dE             d eps       ncg     rms          rms(c)
DAV:   1    -0.232492759898E+04    0.49669E-01   -0.54728E+00  4440   0.179E+00    0.595E-01
RMM:   2    -0.232498125099E+04   -0.53652E-01   -0.56511E-01  6132   0.370E-01    0.431E-01
RMM:   3    -0.232498447192E+04   -0.32209E-02   -0.45707E-02  5842   0.115E-01    0.494E-01
RMM:   4    -0.232498273107E+04    0.17409E-02   -0.56632E-03  5650   0.293E-02    0.214E-01
RMM:   5    -0.232498226540E+04    0.46567E-03   -0.11744E-03  4736   0.183E-02    0.118E-01
RMM:   6    -0.232498219515E+04    0.70244E-04   -0.74721E-04  4673   0.149E-02    0.418E-02
RMM:   7    -0.232498218253E+04    0.12621E-04   -0.92079E-05  2988   0.966E-03    0.235E-02
RMM:   8    -0.232498217923E+04    0.32993E-05   -0.33284E-05  2949   0.405E-03
 278 F= -.23454291E+04 E0= -.23454288E+04  d E =-.421697E-02  mag=     2.0064
       N       E                     dE             d eps       ncg     rms          rms(c)
DAV:   1    -0.232495858889E+04    0.23594E-01   -0.25095E+00  4448   0.121E+00    0.400E-01
RMM:   2    -0.232498304001E+04   -0.24451E-01   -0.25817E-01  6126   0.247E-01    0.280E-01
RMM:   3    -0.232498440028E+04   -0.13603E-02   -0.19931E-02  5715   0.749E-02    0.328E-01
RMM:   4    -0.232498363944E+04    0.76084E-03   -0.25285E-03  4741   0.193E-02    0.144E-01
RMM:   5    -0.232498342573E+04    0.21371E-03   -0.53969E-04  4252   0.131E-02    0.754E-02
RMM:   6    -0.232498339527E+04    0.30458E-04   -0.31186E-04  4098   0.106E-02    0.259E-02
RMM:   7    -0.232498339074E+04    0.45300E-05   -0.41776E-05  2921   0.722E-03
 279 F= -.23454299E+04 E0= -.23454295E+04  d E =-.495190E-02  mag=     2.0066
       N       E                     dE             d eps       ncg     rms          rms(c)
DAV:   1    -0.232497442869E+04    0.89666E-02   -0.12725E+00  4512   0.899E-01    0.316E-01
RMM:   2    -0.232498687956E+04   -0.12451E-01   -0.13192E-01  6036   0.187E-01    0.213E-01
RMM:   3    -0.232498763031E+04   -0.75075E-03   -0.10021E-02  5564   0.580E-02    0.261E-01
RMM:   4    -0.232498709345E+04    0.53686E-03   -0.13496E-03  4487   0.158E-02    0.104E-01
RMM:   5    -0.232498696749E+04    0.12596E-03   -0.33590E-04  4215   0.116E-02    0.499E-02
RMM:   6    -0.232498695034E+04    0.17143E-04   -0.14877E-04  3921   0.886E-03    0.178E-02
RMM:   7    -0.232498694758E+04    0.27642E-05   -0.21519E-05  2904   0.602E-03
 280 F= -.23454331E+04 E0= -.23454327E+04  d E =-.324570E-02  mag=     2.0066
       N       E                     dE             d eps       ncg     rms          rms(c)
DAV:   1    -0.232497862320E+04    0.83271E-02   -0.96653E-01  4448   0.784E-01    0.273E-01
RMM:   2    -0.232498809260E+04   -0.94694E-02   -0.10041E-01  6048   0.162E-01    0.182E-01
RMM:   3    -0.232498859594E+04   -0.50334E-03   -0.74325E-03  5442   0.505E-02    0.222E-01
RMM:   4    -0.232498820648E+04    0.38947E-03   -0.10023E-03  3951   0.137E-02    0.905E-02
RMM:   5    -0.232498810595E+04    0.10052E-03   -0.25666E-04  4124   0.104E-02    0.423E-02
RMM:   6    -0.232498809103E+04    0.14920E-04   -0.10480E-04  3603   0.795E-03    0.149E-02
RMM:   7    -0.232498808877E+04    0.22592E-05   -0.16640E-05  2888   0.568E-03
 281 F= -.23454340E+04 E0= -.23454336E+04  d E =-.411565E-02  mag=     2.0067
       N       E                     dE             d eps       ncg     rms          rms(c)
DAV:   1    -0.232497686949E+04    0.11222E-01   -0.14668E+00  4440   0.982E-01    0.326E-01
RMM:   2    -0.232499163234E+04   -0.14763E-01   -0.15548E-01  6071   0.200E-01    0.228E-01
RMM:   3    -0.232499248090E+04   -0.84856E-03   -0.11907E-02  5596   0.620E-02    0.270E-01
RMM:   4    -0.232499192005E+04    0.56085E-03   -0.15522E-03  4559   0.165E-02    0.111E-01
RMM:   5    -0.232499177798E+04    0.14207E-03   -0.35900E-04  4193   0.117E-02    0.554E-02
RMM:   6    -0.232499175523E+04    0.22755E-04   -0.17741E-04  4045   0.926E-03    0.192E-02
RMM:   7    -0.232499175211E+04    0.31143E-05   -0.24153E-05  2923   0.624E-03
 282 F= -.23454373E+04 E0= -.23454369E+04  d E =-.333368E-02  mag=     2.0067
       N       E                     dE             d eps       ncg     rms          rms(c)
DAV:   1    -0.232497330247E+04    0.18453E-01   -0.19780E+00  4440   0.114E+00    0.378E-01
RMM:   2    -0.232499314623E+04   -0.19844E-01   -0.20906E-01  6052   0.233E-01    0.265E-01
RMM:   3    -0.232499429838E+04   -0.11522E-02   -0.16237E-02  5662   0.714E-02    0.312E-01
RMM:   4    -0.232499355032E+04    0.74806E-03   -0.21029E-03  5060   0.190E-02    0.129E-01
RMM:   5    -0.232499335551E+04    0.19481E-03   -0.48282E-04  4313   0.131E-02    0.656E-02
RMM:   6    -0.232499331839E+04    0.37112E-04   -0.24977E-04  4161   0.106E-02    0.233E-02
RMM:   7    -0.232499331223E+04    0.61647E-05   -0.35238E-05  2933   0.715E-03
 283 F= -.23454385E+04 E0= -.23454381E+04  d E =-.451307E-02  mag=     2.0067
       N       E                     dE             d eps       ncg     rms          rms(c)
DAV:   1    -0.232497707952E+04    0.16239E-01   -0.19614E+00  4440   0.114E+00    0.369E-01
RMM:   2    -0.232499646514E+04   -0.19386E-01   -0.20435E-01  6032   0.232E-01    0.256E-01
RMM:   3    -0.232499765589E+04   -0.11907E-02   -0.15932E-02  5600   0.708E-02    0.309E-01
RMM:   4    -0.232499692668E+04    0.72921E-03   -0.20723E-03  4992   0.189E-02    0.127E-01
RMM:   5    -0.232499673711E+04    0.18958E-03   -0.48477E-04  4314   0.132E-02    0.633E-02
RMM:   6    -0.232499670612E+04    0.30984E-04   -0.23906E-04  4145   0.105E-02    0.218E-02
RMM:   7    -0.232499670133E+04    0.47869E-05   -0.33932E-05  2921   0.712E-03
 284 F= -.23454414E+04 E0= -.23454410E+04  d E =-.288497E-02  mag=     2.0068
       N       E                     dE             d eps       ncg     rms          rms(c)
DAV:   1    -0.232499044491E+04    0.62612E-02   -0.69304E-01  4512   0.678E-01    0.220E-01
RMM:   2    -0.232499730402E+04   -0.68591E-02   -0.72503E-02  6029   0.138E-01    0.147E-01
RMM:   3    -0.232499770784E+04   -0.40383E-03   -0.54809E-03  5227   0.418E-02    0.181E-01
RMM:   4    -0.232499745857E+04    0.24927E-03   -0.72282E-04  3303   0.113E-02    0.751E-02
RMM:   5    -0.232499738899E+04    0.69584E-04   -0.17466E-04  3589   0.860E-03    0.361E-02
RMM:   6    -0.232499737832E+04    0.10669E-04   -0.80433E-05  3264   0.710E-03    0.120E-02
RMM:   7    -0.232499737683E+04    0.14933E-05   -0.13761E-05  2879   0.542E-03
 285 F= -.23454417E+04 E0= -.23454414E+04  d E =-.326288E-02  mag=     2.0068
       N       E                     dE             d eps       ncg     rms          rms(c)
DAV:   1    -0.232498226780E+04    0.15111E-01   -0.19011E+00  4440   0.113E+00    0.358E-01
RMM:   2    -0.232500051137E+04   -0.18244E-01   -0.19303E-01  6048   0.228E-01    0.233E-01
RMM:   3    -0.232500156054E+04   -0.10492E-02   -0.15610E-02  5544   0.732E-02    0.284E-01
RMM:   4    -0.232500099064E+04    0.56990E-03   -0.19508E-03  4772   0.182E-02    0.126E-01
RMM:   5    -0.232500079710E+04    0.19354E-03   -0.46122E-04  4394   0.135E-02    0.610E-02
RMM:   6    -0.232500076741E+04    0.29694E-04   -0.22008E-04  4108   0.105E-02    0.203E-02
RMM:   7    -0.232500076269E+04    0.47149E-05   -0.32492E-05  2911   0.686E-03
 286 F= -.23454447E+04 E0= -.23454443E+04  d E =-.290428E-02  mag=     2.0068
       N       E                     dE             d eps       ncg     rms          rms(c)
DAV:   1    -0.232499574440E+04    0.50230E-02   -0.57777E-01  4464   0.626E-01    0.198E-01
RMM:   2    -0.232500130643E+04   -0.55620E-02   -0.59017E-02  5993   0.126E-01    0.126E-01
RMM:   3    -0.232500162586E+04   -0.31943E-03   -0.46681E-03  5044   0.388E-02    0.155E-01
RMM:   4    -0.232500145851E+04    0.16735E-03   -0.59376E-04  3162   0.102E-02    0.692E-02
RMM:   5    -0.232500139734E+04    0.61176E-04   -0.14118E-04  3479   0.809E-03    0.319E-02
RMM:   6    -0.232500138858E+04    0.87549E-05   -0.64419E-05  3085   0.672E-03
 287 F= -.23454450E+04 E0= -.23454446E+04  d E =-.326734E-02  mag=     2.0068
       N       E                     dE             d eps       ncg     rms          rms(c)
DAV:   1    -0.232498427740E+04    0.17120E-01   -0.22405E+00  4440   0.125E+00    0.381E-01
RMM:   2    -0.232500444507E+04   -0.20168E-01   -0.21349E-01  5985   0.245E-01    0.233E-01
RMM:   3    -0.232500575621E+04   -0.13111E-02   -0.17758E-02  5538   0.759E-02    0.289E-01
RMM:   4    -0.232500522051E+04    0.53570E-03   -0.21990E-03  4863   0.190E-02    0.135E-01
RMM:   5    -0.232500500864E+04    0.21187E-03   -0.49491E-04  4421   0.139E-02    0.645E-02
RMM:   6    -0.232500498265E+04    0.25981E-04   -0.23974E-04  4136   0.108E-02    0.207E-02
RMM:   7    -0.232500497804E+04    0.46189E-05   -0.33631E-05  2906   0.707E-03
 288 F= -.23454482E+04 E0= -.23454478E+04  d E =-.317061E-02  mag=     2.0068
       N       E                     dE             d eps       ncg     rms          rms(c)
DAV:   1    -0.232499773909E+04    0.72436E-02   -0.86046E-01  4448   0.773E-01    0.236E-01
RMM:   2    -0.232500549418E+04   -0.77551E-02   -0.82172E-02  5982   0.152E-01    0.141E-01
RMM:   3    -0.232500596493E+04   -0.47075E-03   -0.66437E-03  5253   0.486E-02    0.172E-01
RMM:   4    -0.232500578151E+04    0.18342E-03   -0.83463E-04  3368   0.119E-02    0.845E-02
RMM:   5    -0.232500569823E+04    0.83285E-04   -0.19039E-04  3780   0.940E-03    0.385E-02
RMM:   6    -0.232500568812E+04    0.10109E-04   -0.86550E-05  3285   0.742E-03    0.120E-02
RMM:   7    -0.232500568699E+04    0.11254E-05   -0.14234E-05  2875   0.561E-03
 289 F= -.23454486E+04 E0= -.23454483E+04  d E =-.362397E-02  mag=     2.0068
       N       E                     dE             d eps       ncg     rms          rms(c)
DAV:   1    -0.232499008848E+04    0.15600E-01   -0.20746E+00  4456   0.121E+00    0.360E-01
RMM:   2    -0.232500874952E+04   -0.18661E-01   -0.19713E-01  6030   0.236E-01    0.220E-01
RMM:   3    -0.232500976991E+04   -0.10204E-02   -0.15233E-02  5518   0.730E-02    0.271E-01
RMM:   4    -0.232500930141E+04    0.46850E-03   -0.19490E-03  4784   0.182E-02    0.130E-01
RMM:   5    -0.232500910947E+04    0.19193E-03   -0.43525E-04  4299   0.133E-02    0.611E-02
RMM:   6    -0.232500908796E+04    0.21515E-04   -0.21693E-04  4100   0.104E-02    0.195E-02
RMM:   7    -0.232500908402E+04    0.39427E-05   -0.28954E-05  2900   0.669E-03
 290 F= -.23454515E+04 E0= -.23454512E+04  d E =-.287744E-02  mag=     2.0067
       N       E                     dE             d eps       ncg     rms          rms(c)
DAV:   1    -0.232500012693E+04    0.89610E-02   -0.10668E+00  4440   0.864E-01    0.259E-01
RMM:   2    -0.232500969762E+04   -0.95707E-02   -0.10132E-01  5983   0.169E-01    0.154E-01
RMM:   3    -0.232501024398E+04   -0.54636E-03   -0.77471E-03  5326   0.518E-02    0.188E-01
RMM:   4    -0.232501003063E+04    0.21335E-03   -0.10062E-03  3559   0.131E-02    0.937E-02
RMM:   5    -0.232500992840E+04    0.10223E-03   -0.22439E-04  3977   0.102E-02    0.425E-02
RMM:   6    -0.232500991723E+04    0.11165E-04   -0.10641E-04  3480   0.787E-03    0.134E-02
RMM:   7    -0.232500991521E+04    0.20251E-05   -0.16259E-05  2881   0.576E-03
 291 F= -.23454520E+04 E0= -.23454516E+04  d E =-.333996E-02  mag=     2.0067
       N       E                     dE             d eps       ncg     rms          rms(c)
DAV:   1    -0.232499102647E+04    0.18891E-01   -0.24166E+00  4472   0.132E+00    0.393E-01
RMM:   2    -0.232501260399E+04   -0.21578E-01   -0.22834E-01  6023   0.259E-01    0.234E-01
RMM:   3    -0.232501376886E+04   -0.11649E-02   -0.17611E-02  5578   0.790E-02    0.283E-01
RMM:   4    -0.232501327524E+04    0.49362E-03   -0.22421E-03  4962   0.195E-02    0.141E-01
RMM:   5    -0.232501303531E+04    0.23992E-03   -0.50653E-04  4390   0.141E-02    0.660E-02
RMM:   6    -0.232501299977E+04    0.35540E-04   -0.26387E-04  4246   0.114E-02    0.213E-02
RMM:   7    -0.232501299294E+04    0.68341E-05   -0.35810E-05  2910   0.716E-03
 292 F= -.23454546E+04 E0= -.23454542E+04  d E =-.257834E-02  mag=     2.0065
       N       E                     dE             d eps       ncg     rms          rms(c)
DAV:   1    -0.232500951529E+04    0.34845E-02   -0.42260E-01  4576   0.554E-01    0.165E-01
RMM:   2    -0.232501330774E+04   -0.37924E-02   -0.40290E-02  6008   0.108E-01    0.939E-02
RMM:   3    -0.232501349157E+04   -0.18384E-03   -0.29741E-03  4588   0.316E-02    0.110E-01
RMM:   4    -0.232501342634E+04    0.65233E-04   -0.38894E-04  3075   0.875E-03    0.603E-02
RMM:   5    -0.232501338048E+04    0.45864E-04   -0.89996E-05  3125   0.673E-03    0.258E-02
RMM:   6    -0.232501337407E+04    0.64096E-05   -0.42965E-05  3002   0.591E-03
 293 F= -.23454547E+04 E0= -.23454544E+04  d E =-.275273E-02  mag=     2.0064
       N       E                     dE             d eps       ncg     rms          rms(c)
DAV:   1    -0.232499849709E+04    0.14883E-01   -0.20068E+00  4440   0.123E+00    0.376E-01
RMM:   2    -0.232501571142E+04   -0.17214E-01   -0.18334E-01  5947   0.240E-01    0.201E-01
RMM:   3    -0.232501664566E+04   -0.93423E-03   -0.14788E-02  5491   0.724E-02    0.224E-01
RMM:   4    -0.232501644139E+04    0.20427E-03   -0.18637E-03  4773   0.181E-02    0.143E-01
RMM:   5    -0.232501621311E+04    0.22828E-03   -0.46104E-04  4466   0.142E-02    0.579E-02
RMM:   6    -0.232501619079E+04    0.22321E-04   -0.19616E-04  4158   0.105E-02    0.184E-02
RMM:   7    -0.232501618662E+04    0.41694E-05   -0.27840E-05  2888   0.657E-03
 294 F= -.23454572E+04 E0= -.23454568E+04  d E =-.242785E-02  mag=     2.0063
       N       E                     dE             d eps       ncg     rms          rms(c)
DAV:   1    -0.232501422908E+04    0.19617E-02   -0.23879E-01  4592   0.426E-01    0.130E-01
RMM:   2    -0.232501629381E+04   -0.20647E-02   -0.22023E-02  5970   0.835E-02    0.666E-02
RMM:   3    -0.232501637383E+04   -0.80016E-04   -0.16205E-03  4113   0.256E-02    0.632E-02
RMM:   4    -0.232501637353E+04    0.30096E-06   -0.21816E-04  3025   0.732E-03    0.555E-02
RMM:   5    -0.232501633961E+04    0.33915E-04   -0.56136E-05  2981   0.574E-03    0.188E-02
RMM:   6    -0.232501633717E+04    0.24480E-05   -0.21902E-05  2918   0.491E-03
 295 F= -.23454572E+04 E0= -.23454568E+04  d E =-.244718E-02  mag=     2.0062
       N       E                     dE             d eps       ncg     rms          rms(c)
DAV:   1    -0.232499986247E+04    0.16477E-01   -0.20932E+00  4440   0.124E+00    0.371E-01
RMM:   2    -0.232501823469E+04   -0.18372E-01   -0.19587E-01  5978   0.244E-01    0.197E-01
RMM:   3    -0.232501914305E+04   -0.90836E-03   -0.16816E-02  5472   0.737E-02    0.172E-01
RMM:   4    -0.232501922757E+04   -0.84520E-04   -0.21662E-03  4713   0.179E-02    0.169E-01
RMM:   5    -0.232501893944E+04    0.28813E-03   -0.48053E-04  4552   0.136E-02    0.632E-02
RMM:   6    -0.232501891147E+04    0.27976E-04   -0.19309E-04  4114   0.982E-03    0.192E-02
RMM:   7    -0.232501890747E+04    0.39985E-05   -0.28827E-05  2895   0.695E-03
 296 F= -.23454591E+04 E0= -.23454588E+04  d E =-.192528E-02  mag=     2.0062
       N       E                     dE             d eps       ncg     rms          rms(c)
DAV:   1    -0.232501140865E+04    0.75028E-02   -0.84311E-01  4448   0.790E-01    0.238E-01
RMM:   2    -0.232501885140E+04   -0.74428E-02   -0.79401E-02  6005   0.156E-01    0.124E-01
RMM:   3    -0.232501919944E+04   -0.34804E-03   -0.66280E-03  5275   0.480E-02    0.970E-02
RMM:   4    -0.232501927574E+04   -0.76296E-04   -0.88252E-04  3550   0.120E-02    0.118E-01
RMM:   5    -0.232501913721E+04    0.13853E-03   -0.19399E-04  3609   0.950E-03    0.390E-02
RMM:   6    -0.232501912683E+04    0.10379E-04   -0.75741E-05  3386   0.706E-03    0.122E-02
RMM:   7    -0.232501912521E+04    0.16240E-05   -0.12422E-05  2866   0.531E-03
 297 F= -.23454589E+04 E0= -.23454586E+04  d E =-.173722E-02  mag=     2.0061
       N       E                     dE             d eps       ncg     rms          rms(c)
DAV:   1    -0.232501646138E+04    0.26655E-02   -0.29392E-01  4464   0.465E-01    0.139E-01
RMM:   2    -0.232501904558E+04   -0.25842E-02   -0.27505E-02  6020   0.908E-02    0.741E-02
RMM:   3    -0.232501916063E+04   -0.11504E-03   -0.22466E-03  4082   0.265E-02    0.634E-02
RMM:   4    -0.232501917862E+04   -0.17990E-04   -0.30088E-04  3039   0.778E-03    0.668E-02
RMM:   5    -0.232501913212E+04    0.46495E-04   -0.61271E-05  3014   0.584E-03    0.205E-02
RMM:   6    -0.232501913054E+04    0.15813E-05   -0.25034E-05  2934   0.505E-03
 298 F= -.23454592E+04 E0= -.23454588E+04  d E =-.198179E-02  mag=     2.0061
       N       E                     dE             d eps       ncg     rms          rms(c)
DAV:   1    -0.232500381991E+04    0.15312E-01   -0.19685E+00  4440   0.124E+00    0.384E-01
RMM:   2    -0.232502124513E+04   -0.17425E-01   -0.18630E-01  6058   0.248E-01    0.190E-01
RMM:   3    -0.232502196716E+04   -0.72203E-03   -0.15672E-02  5584   0.782E-02    0.140E-01
RMM:   4    -0.232502216990E+04   -0.20273E-03   -0.20562E-03  4910   0.194E-02    0.187E-01
RMM:   5    -0.232502183046E+04    0.33944E-03   -0.50182E-04  4788   0.140E-02    0.650E-02
RMM:   6    -0.232502179652E+04    0.33936E-04   -0.16978E-04  4116   0.917E-03    0.192E-02
RMM:   7    -0.232502179202E+04    0.45077E-05   -0.22649E-05  2892   0.673E-03
 299 F= -.23454612E+04 E0= -.23454609E+04  d E =-.208046E-02  mag=     2.0061
       N       E                     dE             d eps       ncg     rms          rms(c)
DAV:   1    -0.232502169726E+04    0.99260E-04   -0.15642E-02  5272   0.111E-01    0.359E-02
RMM:   2    -0.232502183999E+04   -0.14273E-03   -0.15369E-03  5900   0.229E-02    0.191E-02
RMM:   3    -0.232502184620E+04   -0.62110E-05   -0.12254E-04  2950   0.729E-03    0.185E-02
RMM:   4    -0.232502184486E+04    0.13457E-05   -0.17665E-05  2885   0.249E-03
 300 F= -.23454612E+04 E0= -.23454609E+04  d E =-.208171E-02  mag=     2.0060
       N       E                     dE             d eps       ncg     rms          rms(c)
DAV:   1    -0.232501069614E+04    0.11150E-01   -0.14426E+00  4440   0.106E+00    0.316E-01
RMM:   2    -0.232502363784E+04   -0.12942E-01   -0.13756E-01  6031   0.210E-01    0.164E-01
RMM:   3    -0.232502412223E+04   -0.48439E-03   -0.11160E-02  5524   0.615E-02    0.107E-01
RMM:   4    -0.232502413694E+04   -0.14716E-04   -0.14333E-03  4492   0.173E-02    0.102E-01
RMM:   5    -0.232502412579E+04    0.11152E-04   -0.30425E-04  3538   0.121E-02    0.102E-01
RMM:   6    -0.232502403454E+04    0.91250E-04   -0.12111E-04  3823   0.780E-03    0.152E-02
RMM:   7    -0.232502403248E+04    0.20654E-05   -0.21870E-05  2908   0.529E-03
 301 F= -.23454632E+04 E0= -.23454629E+04  d E =-.194719E-02  mag=     2.0060
