       N       E                     dE             d eps       ncg     rms          rms(c)
DAV:   1     0.128010210936E+05    0.12801E+05   -0.83655E+05  4464   0.144E+03
DAV:   2    -0.108071624760E+04   -0.13882E+05   -0.13305E+05  5320   0.330E+02
DAV:   3    -0.248370027570E+04   -0.14030E+04   -0.13899E+04  5352   0.111E+02
DAV:   4    -0.252874527046E+04   -0.45045E+02   -0.44817E+02  6728   0.294E+01
DAV:   5    -0.252953607503E+04   -0.79080E+00   -0.78932E+00  5584   0.320E+00    0.171E+02
RMM:   6    -0.148405950936E+04    0.10455E+04   -0.19640E+03  4420   0.390E+01    0.778E+01
RMM:   7    -0.168388076205E+04   -0.19982E+03   -0.39567E+02  5075   0.143E+01    0.625E+01
RMM:   8    -0.169239828494E+04   -0.85175E+01   -0.86864E+01  5323   0.856E+00    0.426E+01
RMM:   9    -0.176041097966E+04   -0.68013E+02   -0.63616E+01  5283   0.556E+00    0.398E+01
RMM:  10    -0.187570195601E+04   -0.11529E+03   -0.56951E+01  5345   0.698E+00    0.393E+01
RMM:  11    -0.195548546158E+04   -0.79784E+02   -0.42496E+01  4976   0.577E+00    0.201E+01
RMM:  12    -0.204618563332E+04   -0.90700E+02   -0.34357E+01  4571   0.516E+00    0.155E+01
RMM:  13    -0.215964606035E+04   -0.11346E+03   -0.67739E+01  4511   0.613E+00    0.148E+01
RMM:  14    -0.222216195632E+04   -0.62516E+02   -0.38240E+01  4745   0.454E+00    0.107E+01
RMM:  15    -0.227515251628E+04   -0.52991E+02   -0.37691E+01  4548   0.450E+00    0.808E+00
RMM:  16    -0.230233098612E+04   -0.27178E+02   -0.22735E+01  4545   0.356E+00    0.432E+00
RMM:  17    -0.231235928299E+04   -0.10028E+02   -0.88298E+00  4819   0.223E+00    0.266E+00
RMM:  18    -0.231620790635E+04   -0.38486E+01   -0.25965E+00  4923   0.114E+00    0.678E+00
RMM:  19    -0.231621529542E+04   -0.73891E-02   -0.22353E-01  5507   0.403E-01    0.687E+00
RMM:  20    -0.231619416377E+04    0.21132E-01   -0.37260E-02  5116   0.119E-01    0.684E+00
RMM:  21    -0.231625949219E+04   -0.65328E-01   -0.10221E-01  4545   0.185E-01    0.666E+00
RMM:  22    -0.231625593348E+04    0.35587E-02   -0.53195E-01  4748   0.377E-01    0.574E+00
RMM:  23    -0.231685224326E+04   -0.59631E+00   -0.14422E+00  4805   0.553E-01    0.406E+00
RMM:  24    -0.231739416960E+04   -0.54193E+00   -0.44822E-01  4717   0.328E-01    0.369E+00
RMM:  25    -0.231807523828E+04   -0.68107E+00   -0.56834E-01  4499   0.376E-01    0.297E+00
RMM:  26    -0.231860562673E+04   -0.53039E+00   -0.98263E-01  4583   0.462E-01    0.138E+00
RMM:  27    -0.231871497232E+04   -0.10935E+00   -0.17616E-01  4807   0.302E-01    0.991E-01
RMM:  28    -0.231880014420E+04   -0.85172E-01   -0.11816E-01  4746   0.181E-01    0.610E-01
RMM:  29    -0.231883885577E+04   -0.38712E-01   -0.36256E-02  4783   0.145E-01    0.443E-01
RMM:  30    -0.231885681512E+04   -0.17959E-01   -0.92785E-03  5013   0.703E-02    0.301E-01
RMM:  31    -0.231887550806E+04   -0.18693E-01   -0.84734E-03  4645   0.629E-02    0.161E-01
RMM:  32    -0.231888524068E+04   -0.97326E-02   -0.22823E-03  4612   0.389E-02    0.115E-01
RMM:  33    -0.231889301928E+04   -0.77786E-02   -0.19333E-03  4561   0.306E-02    0.731E-02
RMM:  34    -0.231889635956E+04   -0.33403E-02   -0.74913E-04  4226   0.234E-02    0.600E-02
RMM:  35    -0.231889837193E+04   -0.20124E-02   -0.50030E-04  4007   0.134E-02    0.277E-02
RMM:  36    -0.231889903048E+04   -0.65855E-03   -0.15460E-04  3781   0.118E-02    0.209E-02
RMM:  37    -0.231889933463E+04   -0.30416E-03   -0.85943E-05  3603   0.600E-03    0.100E-02
RMM:  38    -0.231889943280E+04   -0.98165E-04   -0.25761E-05  3088   0.585E-03    0.763E-03
RMM:  39    -0.231889946668E+04   -0.33883E-04   -0.10930E-05  2881   0.349E-03    0.705E-03
RMM:  40    -0.231889949041E+04   -0.23731E-04   -0.60695E-06  2801   0.292E-03    0.553E-03
RMM:  41    -0.231889949782E+04   -0.74057E-05   -0.31951E-06  2530   0.208E-03
   1 F= -.23394070E+04 E0= -.23394070E+04  d E =-.233941E+04  mag=     0.9997
       N       E                     dE             d eps       ncg     rms          rms(c)
DAV:   1    -0.231871440988E+04    0.18508E+00   -0.57059E+01  4736   0.535E+00    0.269E+00
RMM:   2    -0.232004889595E+04   -0.13345E+01   -0.10146E+01  6377   0.178E+00    0.647E+00
RMM:   3    -0.231951510625E+04    0.53379E+00   -0.76120E-01  5939   0.516E-01    0.105E+00
RMM:   4    -0.231950053648E+04    0.14570E-01   -0.11247E-01  5592   0.135E-01    0.669E-01
RMM:   5    -0.231949866385E+04    0.18726E-02   -0.24618E-02  6014   0.817E-02    0.565E-01
RMM:   6    -0.231949255500E+04    0.61088E-02   -0.92006E-03  5792   0.485E-02    0.220E-01
RMM:   7    -0.231949163090E+04    0.92410E-03   -0.19338E-03  5007   0.307E-02    0.761E-02
RMM:   8    -0.231949137967E+04    0.25123E-03   -0.50171E-04  4679   0.168E-02    0.386E-02
RMM:   9    -0.231949130258E+04    0.77089E-04   -0.19187E-04  4336   0.117E-02    0.232E-02
RMM:  10    -0.231949129217E+04    0.10410E-04   -0.70733E-05  3907   0.760E-03    0.130E-02
RMM:  11    -0.231949130593E+04   -0.13761E-04   -0.42387E-05  3363   0.598E-03    0.886E-03
RMM:  12    -0.231949132205E+04   -0.16117E-04   -0.19523E-05  2956   0.484E-03    0.414E-03
RMM:  13    -0.231949133303E+04   -0.10985E-04   -0.91330E-06  2828   0.391E-03    0.273E-03
RMM:  14    -0.231949134004E+04   -0.70112E-05   -0.51101E-06  2814   0.289E-03
   2 F= -.23399988E+04 E0= -.23399988E+04  d E =-.591785E+00  mag=     1.0001
       N       E                     dE             d eps       ncg     rms          rms(c)
DAV:   1    -0.231943325029E+04    0.58083E-01   -0.99826E+00  4688   0.220E+00    0.109E+00
RMM:   2    -0.231963585192E+04   -0.20260E+00   -0.14624E+00  6224   0.688E-01    0.272E+00
RMM:   3    -0.231955761645E+04    0.78235E-01   -0.17135E-01  5549   0.307E-01    0.448E-01
RMM:   4    -0.231955499091E+04    0.26255E-02   -0.20264E-02  4957   0.580E-02    0.232E-01
RMM:   5    -0.231955401980E+04    0.97111E-03   -0.26499E-03  5301   0.392E-02    0.153E-01
RMM:   6    -0.231955377628E+04    0.24352E-03   -0.14519E-03  5421   0.214E-02    0.830E-02
RMM:   7    -0.231955360365E+04    0.17263E-03   -0.23203E-04  4788   0.111E-02    0.299E-02
RMM:   8    -0.231955356279E+04    0.40857E-04   -0.61253E-05  3505   0.608E-03    0.150E-02
RMM:   9    -0.231955354924E+04    0.13550E-04   -0.26269E-05  3002   0.535E-03    0.874E-03
RMM:  10    -0.231955354833E+04    0.91453E-06   -0.15339E-05  2873   0.461E-03
   3 F= -.23400609E+04 E0= -.23400609E+04  d E =-.653963E+00  mag=     1.0000
       N       E                     dE             d eps       ncg     rms          rms(c)
DAV:   1    -0.231921980566E+04    0.33374E+00   -0.38995E+01  4512   0.563E+00    0.230E+00
RMM:   2    -0.231972548695E+04   -0.50568E+00   -0.54518E+00  6282   0.151E+00    0.151E+00
RMM:   3    -0.231978340297E+04   -0.57916E-01   -0.54077E-01  5943   0.459E-01    0.253E+00
RMM:   4    -0.231970876283E+04    0.74640E-01   -0.57642E-02  6378   0.138E-01    0.525E-01
RMM:   5    -0.231970433655E+04    0.44263E-02   -0.22612E-02  5105   0.794E-02    0.283E-01
RMM:   6    -0.231970314606E+04    0.11905E-02   -0.70047E-03  5452   0.607E-02    0.164E-01
RMM:   7    -0.231970271197E+04    0.43409E-03   -0.11876E-03  5522   0.272E-02    0.671E-02
RMM:   8    -0.231970264074E+04    0.71228E-04   -0.39065E-04  4464   0.114E-02    0.330E-02
RMM:   9    -0.231970263517E+04    0.55671E-05   -0.87067E-05  3830   0.902E-03
   4 F= -.23402124E+04 E0= -.23402124E+04  d E =-.151471E+00  mag=     1.0000
       N       E                     dE             d eps       ncg     rms          rms(c)
DAV:   1    -0.231969857253E+04    0.40682E-02   -0.69502E-01  5008   0.780E-01    0.308E-01
RMM:   2    -0.231970719188E+04   -0.86193E-02   -0.91254E-02  6211   0.190E-01    0.227E-01
RMM:   3    -0.231970824251E+04   -0.10506E-02   -0.90615E-03  5700   0.720E-02    0.339E-01
RMM:   4    -0.231970692941E+04    0.13131E-02   -0.10267E-03  5285   0.191E-02    0.647E-02
RMM:   5    -0.231970686221E+04    0.67202E-04   -0.39830E-04  4443   0.124E-02    0.306E-02
RMM:   6    -0.231970685443E+04    0.77800E-05   -0.60844E-05  3223   0.833E-03
   5 F= -.23402163E+04 E0= -.23402163E+04  d E =-.155385E+00  mag=     1.0000
       N       E                     dE             d eps       ncg     rms          rms(c)
DAV:   1    -0.231942687334E+04    0.27999E+00   -0.24830E+01  4480   0.397E+00    0.183E+00
RMM:   2    -0.232002576340E+04   -0.59889E+00   -0.54337E+00  6476   0.118E+00    0.368E+00
RMM:   3    -0.231985802257E+04    0.16774E+00   -0.29112E-01  6193   0.321E-01    0.901E-01
RMM:   4    -0.231985007521E+04    0.79474E-02   -0.47664E-02  6143   0.930E-02    0.606E-01
RMM:   5    -0.231984624012E+04    0.38351E-02   -0.97418E-03  6047   0.516E-02    0.427E-01
RMM:   6    -0.231984324092E+04    0.29992E-02   -0.10004E-02  5926   0.493E-02    0.101E-01
RMM:   7    -0.231984337546E+04   -0.13454E-03   -0.81315E-04  4756   0.196E-02    0.483E-02
RMM:   8    -0.231984347959E+04   -0.10414E-03   -0.19765E-04  4292   0.956E-03    0.251E-02
RMM:   9    -0.231984361296E+04   -0.13337E-03   -0.90626E-05  3777   0.627E-03    0.119E-02
RMM:  10    -0.231984373300E+04   -0.12004E-03   -0.35647E-05  3072   0.517E-03    0.675E-03
RMM:  11    -0.231984378700E+04   -0.53992E-04   -0.18108E-05  2921   0.388E-03    0.409E-03
RMM:  12    -0.231984381617E+04   -0.29172E-04   -0.13326E-05  2850   0.350E-03    0.239E-03
RMM:  13    -0.231984382402E+04   -0.78517E-05   -0.62690E-06  2777   0.313E-03
   6 F= -.23403578E+04 E0= -.23403578E+04  d E =-.141513E+00  mag=     1.0000
       N       E                     dE             d eps       ncg     rms          rms(c)
DAV:   1    -0.231983008814E+04    0.13728E-01   -0.10196E+00  4544   0.814E-01    0.358E-01
RMM:   2    -0.231985255021E+04   -0.22462E-01   -0.21033E-01  6332   0.232E-01    0.654E-01
RMM:   3    -0.231984775737E+04    0.47928E-02   -0.16274E-02  5641   0.909E-02    0.192E-01
RMM:   4    -0.231984740991E+04    0.34745E-03   -0.20493E-03  4976   0.198E-02    0.122E-01
RMM:   5    -0.231984725048E+04    0.15944E-03   -0.38607E-04  4368   0.105E-02    0.855E-02
RMM:   6    -0.231984713490E+04    0.11558E-03   -0.43839E-04  5017   0.113E-02    0.211E-02
RMM:   7    -0.231984713408E+04    0.82277E-06   -0.34267E-05  2985   0.492E-03
   7 F= -.23403620E+04 E0= -.23403620E+04  d E =-.145709E+00  mag=     1.0000
       N       E                     dE             d eps       ncg     rms          rms(c)
DAV:   1    -0.231982489884E+04    0.22236E-01   -0.14540E+01  4472   0.352E+00    0.129E+00
RMM:   2    -0.231992156301E+04   -0.96664E-01   -0.11019E+00  6168   0.753E-01    0.607E-01
RMM:   3    -0.231992426117E+04   -0.26982E-02   -0.77234E-02  5774   0.215E-01    0.797E-01
RMM:   4    -0.231991745513E+04    0.68060E-02   -0.12192E-02  6288   0.689E-02    0.366E-01
RMM:   5    -0.231991583424E+04    0.16209E-02   -0.58808E-03  5601   0.496E-02    0.200E-01
RMM:   6    -0.231991529081E+04    0.54343E-03   -0.19769E-03  5664   0.314E-02    0.864E-02
RMM:   7    -0.231991511733E+04    0.17348E-03   -0.34228E-04  4753   0.134E-02    0.384E-02
RMM:   8    -0.231991505928E+04    0.58047E-04   -0.97911E-05  4093   0.696E-03    0.181E-02
RMM:   9    -0.231991503180E+04    0.27485E-04   -0.32267E-05  3175   0.598E-03    0.955E-03
RMM:  10    -0.231991502319E+04    0.86006E-05   -0.21597E-05  2984   0.501E-03
   8 F= -.23404328E+04 E0= -.23404328E+04  d E =-.707542E-01  mag=     1.0000
       N       E                     dE             d eps       ncg     rms          rms(c)
DAV:   1    -0.231991401054E+04    0.10213E-02   -0.27055E-01  5144   0.478E-01    0.172E-01
RMM:   2    -0.231991574431E+04   -0.17338E-02   -0.20012E-02  6176   0.101E-01    0.784E-02
RMM:   3    -0.231991576098E+04   -0.16670E-04   -0.14169E-03  5205   0.315E-02    0.927E-02
RMM:   4    -0.231991567846E+04    0.82517E-04   -0.22159E-04  3677   0.953E-03    0.533E-02
RMM:   5    -0.231991563992E+04    0.38537E-04   -0.11708E-04  4110   0.849E-03    0.256E-02
RMM:   6    -0.231991563032E+04    0.95997E-05   -0.34035E-05  3067   0.597E-03
   9 F= -.23404338E+04 E0= -.23404338E+04  d E =-.717527E-01  mag=     1.0000
       N       E                     dE             d eps       ncg     rms          rms(c)
DAV:   1    -0.231981963910E+04    0.96001E-01   -0.12785E+01  4448   0.324E+00    0.110E+00
RMM:   2    -0.232000327014E+04   -0.18363E+00   -0.18005E+00  6393   0.947E-01    0.140E+00
RMM:   3    -0.231998421126E+04    0.19059E-01   -0.10866E-01  6315   0.214E-01    0.808E-01
RMM:   4    -0.231997689805E+04    0.73132E-02   -0.12572E-02  5479   0.585E-02    0.281E-01
RMM:   5    -0.231997606058E+04    0.83748E-03   -0.41883E-03  5449   0.407E-02    0.117E-01
RMM:   6    -0.231997602652E+04    0.34062E-04   -0.86754E-04  5245   0.234E-02    0.800E-02
RMM:   7    -0.231997594193E+04    0.84591E-04   -0.22418E-04  4312   0.102E-02    0.264E-02
RMM:   8    -0.231997593463E+04    0.72928E-05   -0.29300E-05  3033   0.525E-03
  10 F= -.23404958E+04 E0= -.23404958E+04  d E =-.620628E-01  mag=     1.0000
       N       E                     dE             d eps       ncg     rms          rms(c)
DAV:   1    -0.231995706599E+04    0.18876E-01   -0.19800E+00  4496   0.129E+00    0.427E-01
RMM:   2    -0.231998406008E+04   -0.26994E-01   -0.26729E-01  6395   0.361E-01    0.515E-01
RMM:   3    -0.231998202273E+04    0.20373E-02   -0.15373E-02  6156   0.838E-02    0.333E-01
RMM:   4    -0.231998078209E+04    0.12406E-02   -0.19558E-03  5225   0.238E-02    0.109E-01
RMM:   5    -0.231998063496E+04    0.14713E-03   -0.62382E-04  5234   0.164E-02    0.402E-02
RMM:   6    -0.231998062492E+04    0.10042E-04   -0.77950E-05  3755   0.853E-03    0.147E-02
RMM:   7    -0.231998062466E+04    0.25620E-06   -0.15482E-05  2906   0.440E-03
  11 F= -.23405012E+04 E0= -.23405012E+04  d E =-.674722E-01  mag=     1.0000
       N       E                     dE             d eps       ncg     rms          rms(c)
DAV:   1    -0.231990642734E+04    0.74198E-01   -0.12462E+01  4432   0.307E+00    0.998E-01
RMM:   2    -0.232002548419E+04   -0.11906E+00   -0.13181E+00  6425   0.775E-01    0.650E-01
RMM:   3    -0.232002107668E+04    0.44075E-02   -0.85901E-02  6059   0.184E-01    0.433E-01
RMM:   4    -0.232001959236E+04    0.14843E-02   -0.10026E-02  5927   0.462E-02    0.323E-01
RMM:   5    -0.232002001299E+04   -0.42063E-03   -0.37666E-03  5786   0.337E-02    0.383E-01
RMM:   6    -0.232001811426E+04    0.18987E-02   -0.27098E-03  5631   0.372E-02    0.617E-02
RMM:   7    -0.232001805545E+04    0.58819E-04   -0.35866E-04  4554   0.133E-02    0.315E-02
RMM:   8    -0.232001806791E+04   -0.12460E-04   -0.77791E-05  3394   0.650E-03    0.170E-02
RMM:   9    -0.232001809372E+04   -0.25814E-04   -0.25412E-05  3011   0.464E-03    0.810E-03
RMM:  10    -0.232001810956E+04   -0.15837E-04   -0.12989E-05  2869   0.407E-03    0.431E-03
RMM:  11    -0.232001811715E+04   -0.75900E-05   -0.72155E-06  2826   0.335E-03
  12 F= -.23405404E+04 E0= -.23405404E+04  d E =-.391549E-01  mag=     1.0000
       N       E                     dE             d eps       ncg     rms          rms(c)
DAV:   1    -0.232001211437E+04    0.59952E-02   -0.81663E-01  4696   0.787E-01    0.254E-01
RMM:   2    -0.232001983940E+04   -0.77250E-02   -0.85273E-02  6389   0.194E-01    0.168E-01
RMM:   3    -0.232001959336E+04    0.24604E-03   -0.56906E-03  5579   0.477E-02    0.118E-01
RMM:   4    -0.232001950220E+04    0.91158E-04   -0.67868E-04  4475   0.129E-02    0.968E-02
RMM:   5    -0.232001946252E+04    0.39680E-04   -0.23218E-04  3883   0.939E-03    0.817E-02
RMM:   6    -0.232001937408E+04    0.88439E-04   -0.20226E-04  4305   0.110E-02    0.150E-02
RMM:   7    -0.232001936996E+04    0.41237E-05   -0.26963E-05  3042   0.500E-03
  13 F= -.23405421E+04 E0= -.23405421E+04  d E =-.408300E-01  mag=     1.0000
       N       E                     dE             d eps       ncg     rms          rms(c)
DAV:   1    -0.231992378391E+04    0.95590E-01   -0.12102E+01  4432   0.332E+00    0.109E+00
RMM:   2    -0.232004981410E+04   -0.12603E+00   -0.13890E+00  6374   0.828E-01    0.665E-01
RMM:   3    -0.232004495677E+04    0.48573E-02   -0.90034E-02  6120   0.200E-01    0.524E-01
RMM:   4    -0.232004279606E+04    0.21607E-02   -0.11487E-02  6220   0.551E-02    0.400E-01
RMM:   5    -0.232004165737E+04    0.11387E-02   -0.36846E-03  5833   0.360E-02    0.301E-01
RMM:   6    -0.232004037822E+04    0.12792E-02   -0.36738E-03  5475   0.428E-02    0.628E-02
RMM:   7    -0.232004027114E+04    0.10708E-03   -0.36117E-04  4650   0.171E-02    0.316E-02
RMM:   8    -0.232004025011E+04    0.21030E-04   -0.10394E-04  3705   0.645E-03    0.170E-02
RMM:   9    -0.232004024410E+04    0.60152E-05   -0.16189E-05  2904   0.458E-03
  14 F= -.23405642E+04 E0= -.23405642E+04  d E =-.221651E-01  mag=     1.0000
       N       E                     dE             d eps       ncg     rms          rms(c)
DAV:   1    -0.232003954834E+04    0.70177E-03   -0.11325E-01  5168   0.320E-01    0.106E-01
RMM:   2    -0.232004070467E+04   -0.11563E-02   -0.12592E-02  6349   0.767E-02    0.646E-02
RMM:   3    -0.232004068381E+04    0.20854E-04   -0.83061E-04  4471   0.200E-02    0.579E-02
RMM:   4    -0.232004065764E+04    0.26174E-04   -0.10863E-04  3153   0.657E-03    0.406E-02
RMM:   5    -0.232004064384E+04    0.13796E-04   -0.37206E-05  3006   0.506E-03    0.259E-02
RMM:   6    -0.232004063629E+04    0.75579E-05   -0.37126E-05  3161   0.551E-03
  15 F= -.23405645E+04 E0= -.23405645E+04  d E =-.224339E-01  mag=     1.0000
       N       E                     dE             d eps       ncg     rms          rms(c)
DAV:   1    -0.232000453328E+04    0.36111E-01   -0.49301E+00  4448   0.213E+00    0.601E-01
RMM:   2    -0.232005550182E+04   -0.50969E-01   -0.55199E-01  6379   0.538E-01    0.380E-01
RMM:   3    -0.232005755528E+04   -0.20535E-02   -0.34574E-02  6174   0.128E-01    0.543E-01
RMM:   4    -0.232005449757E+04    0.30577E-02   -0.46421E-03  5993   0.363E-02    0.182E-01
RMM:   5    -0.232005422045E+04    0.27712E-03   -0.14520E-03  4711   0.207E-02    0.124E-01
RMM:   6    -0.232005403273E+04    0.18773E-03   -0.68380E-04  4936   0.216E-02    0.431E-02
RMM:   7    -0.232005400282E+04    0.29909E-04   -0.10144E-04  3459   0.918E-03    0.173E-02
RMM:   8    -0.232005399709E+04    0.57322E-05   -0.25428E-05  2994   0.447E-03
  16 F= -.23405782E+04 E0= -.23405782E+04  d E =-.136576E-01  mag=     1.0000
       N       E                     dE             d eps       ncg     rms          rms(c)
DAV:   1    -0.232005385736E+04    0.14546E-03   -0.15982E-02  5312   0.122E-01    0.352E-02
RMM:   2    -0.232005401543E+04   -0.15807E-03   -0.17340E-03  6121   0.299E-02    0.198E-02
RMM:   3    -0.232005402546E+04   -0.10029E-04   -0.12946E-04  3136   0.953E-03    0.287E-02
RMM:   4    -0.232005401757E+04    0.78896E-05   -0.16824E-05  2901   0.338E-03
  17 F= -.23405782E+04 E0= -.23405782E+04  d E =-.136956E-01  mag=     1.0000
       N       E                     dE             d eps       ncg     rms          rms(c)
DAV:   1    -0.232004412639E+04    0.98991E-02   -0.28827E+00  4480   0.168E+00    0.473E-01
RMM:   2    -0.232006327658E+04   -0.19150E-01   -0.20871E-01  6142   0.349E-01    0.239E-01
RMM:   3    -0.232006316401E+04    0.11257E-03   -0.13571E-02  5791   0.967E-02    0.255E-01
RMM:   4    -0.232006256503E+04    0.59898E-03   -0.19217E-03  5926   0.272E-02    0.166E-01
RMM:   5    -0.232006228039E+04    0.28464E-03   -0.85570E-04  5394   0.202E-02    0.919E-02
RMM:   6    -0.232006216184E+04    0.11854E-03   -0.45293E-04  5321   0.156E-02    0.316E-02
RMM:   7    -0.232006213773E+04    0.24113E-04   -0.47682E-05  3183   0.778E-03    0.138E-02
RMM:   8    -0.232006213183E+04    0.59003E-05   -0.18504E-05  2930   0.390E-03
  18 F= -.23405865E+04 E0= -.23405865E+04  d E =-.827212E-02  mag=     1.0000
       N       E                     dE             d eps       ncg     rms          rms(c)
DAV:   1    -0.232006162699E+04    0.51074E-03   -0.11341E-01  5016   0.333E-01    0.937E-02
RMM:   2    -0.232006237101E+04   -0.74402E-03   -0.81280E-03  6143   0.693E-02    0.496E-02
RMM:   3    -0.232006237856E+04   -0.75479E-05   -0.56332E-04  4168   0.203E-02    0.558E-02
RMM:   4    -0.232006234491E+04    0.33646E-04   -0.75550E-05  3132   0.654E-03    0.315E-02
RMM:   5    -0.232006233388E+04    0.11033E-04   -0.36439E-05  3055   0.545E-03    0.192E-02
RMM:   6    -0.232006232816E+04    0.57136E-05   -0.23124E-05  2946   0.512E-03
  19 F= -.23405867E+04 E0= -.23405867E+04  d E =-.850209E-02  mag=     1.0000
       N       E                     dE             d eps       ncg     rms          rms(c)
DAV:   1    -0.232006006950E+04    0.22644E-02   -0.22325E+00  4440   0.139E+00    0.338E-01
RMM:   2    -0.232007140251E+04   -0.11333E-01   -0.11569E-01  6093   0.250E-01    0.322E-01
RMM:   3    -0.232007095669E+04    0.44581E-03   -0.76833E-03  5692   0.740E-02    0.285E-01
RMM:   4    -0.232006998782E+04    0.96887E-03   -0.11318E-03  5513   0.225E-02    0.104E-01
RMM:   5    -0.232006990117E+04    0.86654E-04   -0.46250E-04  4998   0.139E-02    0.810E-02
RMM:   6    -0.232006981284E+04    0.88335E-04   -0.33462E-04  4992   0.133E-02    0.188E-02
RMM:   7    -0.232006980719E+04    0.56480E-05   -0.26440E-05  3007   0.665E-03
  20 F= -.23405945E+04 E0= -.23405945E+04  d E =-.778008E-02  mag=     1.0000
       N       E                     dE             d eps       ncg     rms          rms(c)
DAV:   1    -0.232005709333E+04    0.12720E-01   -0.36018E+00  4432   0.177E+00    0.430E-01
RMM:   2    -0.232007544713E+04   -0.18354E-01   -0.18731E-01  6097   0.318E-01    0.411E-01
RMM:   3    -0.232007469241E+04    0.75472E-03   -0.12544E-02  5756   0.954E-02    0.360E-01
RMM:   4    -0.232007314022E+04    0.15522E-02   -0.18338E-03  5728   0.287E-02    0.133E-01
RMM:   5    -0.232007300010E+04    0.14012E-03   -0.74413E-04  5268   0.172E-02    0.103E-01
RMM:   6    -0.232007285453E+04    0.14557E-03   -0.54047E-04  5269   0.165E-02    0.243E-02
RMM:   7    -0.232007284537E+04    0.91583E-05   -0.42052E-05  3175   0.791E-03
  21 F= -.23405979E+04 E0= -.23405979E+04  d E =-.112240E-01  mag=     1.0000
       N       E                     dE             d eps       ncg     rms          rms(c)
DAV:   1    -0.232007133050E+04    0.15240E-02   -0.19421E+00  4472   0.131E+00    0.299E-01
RMM:   2    -0.232007982157E+04   -0.84911E-02   -0.91022E-02  5995   0.233E-01    0.189E-01
RMM:   3    -0.232008009222E+04   -0.27065E-03   -0.61955E-03  5523   0.735E-02    0.243E-01
RMM:   4    -0.232007941532E+04    0.67689E-03   -0.89206E-04  5394   0.197E-02    0.925E-02
RMM:   5    -0.232007932950E+04    0.85821E-04   -0.44056E-04  4783   0.144E-02    0.531E-02
RMM:   6    -0.232007930290E+04    0.26604E-04   -0.14017E-04  4125   0.103E-02    0.209E-02
RMM:   7    -0.232007929654E+04    0.63613E-05   -0.19109E-05  2901   0.486E-03
  22 F= -.23406048E+04 E0= -.23406048E+04  d E =-.682701E-02  mag=     1.0000
       N       E                     dE             d eps       ncg     rms          rms(c)
DAV:   1    -0.232006128445E+04    0.18018E-01   -0.53767E+00  4464   0.218E+00    0.496E-01
RMM:   2    -0.232008480014E+04   -0.23516E-01   -0.25206E-01  5989   0.388E-01    0.314E-01
RMM:   3    -0.232008558541E+04   -0.78526E-03   -0.17201E-02  5655   0.123E-01    0.407E-01
RMM:   4    -0.232008368409E+04    0.19013E-02   -0.24795E-03  5896   0.329E-02    0.153E-01
RMM:   5    -0.232008343524E+04    0.24885E-03   -0.12160E-03  5101   0.234E-02    0.866E-02
RMM:   6    -0.232008336230E+04    0.72938E-04   -0.37682E-04  5016   0.162E-02    0.356E-02
RMM:   7    -0.232008334212E+04    0.20184E-04   -0.51718E-05  3118   0.644E-03    0.161E-02
RMM:   8    -0.232008333942E+04    0.26952E-05   -0.14126E-05  2913   0.428E-03
  23 F= -.23406094E+04 E0= -.23406094E+04  d E =-.114928E-01  mag=     1.0000
       N       E                     dE             d eps       ncg     rms          rms(c)
DAV:   1    -0.232007787809E+04    0.54640E-02   -0.28064E+00  4432   0.158E+00    0.371E-01
RMM:   2    -0.232009073246E+04   -0.12854E-01   -0.13884E-01  6018   0.290E-01    0.221E-01
RMM:   3    -0.232009105546E+04   -0.32301E-03   -0.95964E-03  5781   0.913E-02    0.306E-01
RMM:   4    -0.232009004151E+04    0.10139E-02   -0.13437E-03  5637   0.241E-02    0.116E-01
RMM:   5    -0.232008983913E+04    0.20238E-03   -0.71767E-04  4702   0.192E-02    0.366E-02
RMM:   6    -0.232008983618E+04    0.29559E-05   -0.10098E-04  3753   0.129E-02    0.212E-02
RMM:   7    -0.232008983024E+04    0.59347E-05   -0.21504E-05  2934   0.418E-03
  24 F= -.23406163E+04 E0= -.23406163E+04  d E =-.690668E-02  mag=     1.0000
       N       E                     dE             d eps       ncg     rms          rms(c)
DAV:   1    -0.232008672346E+04    0.31127E-02   -0.90645E-01  4480   0.898E-01    0.212E-01
RMM:   2    -0.232009086545E+04   -0.41420E-02   -0.44785E-02  5959   0.164E-01    0.125E-01
RMM:   3    -0.232009098246E+04   -0.11702E-03   -0.32597E-03  5595   0.564E-02    0.174E-01
RMM:   4    -0.232009065957E+04    0.32289E-03   -0.44361E-04  4531   0.140E-02    0.665E-02
RMM:   5    -0.232009058914E+04    0.70438E-04   -0.24280E-04  4284   0.117E-02    0.205E-02
RMM:   6    -0.232009058697E+04    0.21631E-05   -0.34355E-05  3035   0.851E-03
  25 F= -.23406173E+04 E0= -.23406173E+04  d E =-.789555E-02  mag=     1.0000
       N       E                     dE             d eps       ncg     rms          rms(c)
DAV:   1    -0.232008421257E+04    0.63766E-02   -0.27713E+00  4464   0.154E+00    0.328E-01
RMM:   2    -0.232009683287E+04   -0.12620E-01   -0.13311E-01  6088   0.276E-01    0.236E-01
RMM:   3    -0.232009715720E+04   -0.32433E-03   -0.93874E-03  5757   0.750E-02    0.280E-01
RMM:   4    -0.232009630202E+04    0.85518E-03   -0.12472E-03  5418   0.212E-02    0.117E-01
RMM:   5    -0.232009618228E+04    0.11973E-03   -0.47343E-04  4514   0.128E-02    0.809E-02
RMM:   6    -0.232009609967E+04    0.82614E-04   -0.38248E-04  4884   0.157E-02    0.238E-02
RMM:   7    -0.232009609227E+04    0.73969E-05   -0.30951E-05  3032   0.718E-03
  26 F= -.23406231E+04 E0= -.23406231E+04  d E =-.582181E-02  mag=     1.0000
       N       E                     dE             d eps       ncg     rms          rms(c)
DAV:   1    -0.232007822150E+04    0.17878E-01   -0.46992E+00  4464   0.200E+00    0.429E-01
RMM:   2    -0.232009969533E+04   -0.21474E-01   -0.22646E-01  6110   0.360E-01    0.314E-01
RMM:   3    -0.232010023544E+04   -0.54011E-03   -0.16353E-02  5783   0.100E-01    0.369E-01
RMM:   4    -0.232009874519E+04    0.14903E-02   -0.20852E-03  5767   0.277E-02    0.153E-01
RMM:   5    -0.232009854494E+04    0.20025E-03   -0.85337E-04  4755   0.162E-02    0.106E-01
RMM:   6    -0.232009839912E+04    0.14582E-03   -0.65909E-04  5059   0.202E-02    0.311E-02
RMM:   7    -0.232009838615E+04    0.12972E-04   -0.55188E-05  3276   0.917E-03    0.158E-02
RMM:   8    -0.232009838369E+04    0.24565E-05   -0.16891E-05  2897   0.388E-03
  27 F= -.23406258E+04 E0= -.23406258E+04  d E =-.850985E-02  mag=     1.0000
       N       E                     dE             d eps       ncg     rms          rms(c)
DAV:   1    -0.232009347372E+04    0.49124E-02   -0.24615E+00  4480   0.145E+00    0.319E-01
RMM:   2    -0.232010367719E+04   -0.10203E-01   -0.10994E-01  6098   0.256E-01    0.176E-01
RMM:   3    -0.232010374350E+04   -0.66310E-04   -0.75051E-03  5754   0.682E-02    0.182E-01
RMM:   4    -0.232010350092E+04    0.24258E-03   -0.10107E-03  5389   0.192E-02    0.128E-01
RMM:   5    -0.232010335277E+04    0.14815E-03   -0.39518E-04  4684   0.125E-02    0.776E-02
RMM:   6    -0.232010327185E+04    0.80927E-04   -0.31606E-04  4818   0.140E-02    0.224E-02
RMM:   7    -0.232010326355E+04    0.82975E-05   -0.24642E-05  2989   0.677E-03
  28 F= -.23406310E+04 E0= -.23406310E+04  d E =-.516053E-02  mag=     1.0000
       N       E                     dE             d eps       ncg     rms          rms(c)
DAV:   1    -0.232009331051E+04    0.99613E-02   -0.28539E+00  4464   0.156E+00    0.344E-01
RMM:   2    -0.232010517396E+04   -0.11863E-01   -0.12795E-01  6110   0.276E-01    0.190E-01
RMM:   3    -0.232010525551E+04   -0.81558E-04   -0.88391E-03  5785   0.734E-02    0.198E-01
RMM:   4    -0.232010496809E+04    0.28743E-03   -0.11823E-03  5497   0.207E-02    0.138E-01
RMM:   5    -0.232010479278E+04    0.17531E-03   -0.46435E-04  4778   0.133E-02    0.842E-02
RMM:   6    -0.232010469377E+04    0.99008E-04   -0.37242E-04  4938   0.150E-02    0.248E-02
RMM:   7    -0.232010468262E+04    0.11152E-04   -0.29777E-05  3106   0.714E-03    0.125E-02
RMM:   8    -0.232010467987E+04    0.27487E-05   -0.12548E-05  2874   0.342E-03
  29 F= -.23406327E+04 E0= -.23406327E+04  d E =-.686677E-02  mag=     1.0000
       N       E                     dE             d eps       ncg     rms          rms(c)
DAV:   1    -0.232009976390E+04    0.49187E-02   -0.26271E+00  4480   0.147E+00    0.298E-01
RMM:   2    -0.232010929843E+04   -0.95345E-02   -0.10209E-01  5978   0.249E-01    0.174E-01
RMM:   3    -0.232010947650E+04   -0.17807E-03   -0.70920E-03  5735   0.678E-02    0.200E-01
RMM:   4    -0.232010913542E+04    0.34108E-03   -0.86235E-04  5073   0.182E-02    0.113E-01
RMM:   5    -0.232010897334E+04    0.16207E-03   -0.50175E-04  4529   0.163E-02    0.385E-02
RMM:   6    -0.232010897092E+04    0.24215E-05   -0.94168E-05  3511   0.117E-02
  30 F= -.23406374E+04 E0= -.23406374E+04  d E =-.473449E-02  mag=     1.0000
       N       E                     dE             d eps       ncg     rms          rms(c)
DAV:   1    -0.232009291037E+04    0.16063E-01   -0.48136E+00  4464   0.199E+00    0.408E-01
RMM:   2    -0.232011047508E+04   -0.17565E-01   -0.18844E-01  5968   0.338E-01    0.231E-01
RMM:   3    -0.232011073529E+04   -0.26021E-03   -0.13012E-02  5796   0.885E-02    0.256E-01
RMM:   4    -0.232011024079E+04    0.49450E-03   -0.15775E-03  5574   0.240E-02    0.158E-01
RMM:   5    -0.232010992006E+04    0.32073E-03   -0.84729E-04  4761   0.214E-02    0.491E-02
RMM:   6    -0.232010991878E+04    0.12771E-05   -0.13793E-04  4043   0.141E-02    0.231E-02
RMM:   7    -0.232010991434E+04    0.44464E-05   -0.29781E-05  2986   0.489E-03
  31 F= -.23406390E+04 E0= -.23406390E+04  d E =-.627492E-02  mag=     1.0000
       N       E                     dE             d eps       ncg     rms          rms(c)
DAV:   1    -0.232010371350E+04    0.62053E-02   -0.28742E+00  4472   0.155E+00    0.327E-01
RMM:   2    -0.232011386114E+04   -0.10148E-01   -0.10875E-01  5952   0.257E-01    0.187E-01
RMM:   3    -0.232011404833E+04   -0.18719E-03   -0.73456E-03  5673   0.708E-02    0.228E-01
RMM:   4    -0.232011356844E+04    0.47989E-03   -0.91143E-04  5217   0.194E-02    0.115E-01
RMM:   5    -0.232011339354E+04    0.17490E-03   -0.52842E-04  4503   0.168E-02    0.322E-02
RMM:   6    -0.232011339187E+04    0.16672E-05   -0.70464E-05  3523   0.114E-02
  32 F= -.23406429E+04 E0= -.23406429E+04  d E =-.395983E-02  mag=     1.0000
       N       E                     dE             d eps       ncg     rms          rms(c)
DAV:   1    -0.232009377409E+04    0.19619E-01   -0.58933E+00  4464   0.222E+00    0.471E-01
RMM:   2    -0.232011475332E+04   -0.20979E-01   -0.22517E-01  5973   0.368E-01    0.265E-01
RMM:   3    -0.232011509254E+04   -0.33923E-03   -0.15139E-02  5757   0.958E-02    0.318E-01
RMM:   4    -0.232011418222E+04    0.91032E-03   -0.18779E-03  5716   0.270E-02    0.167E-01
RMM:   5    -0.232011380727E+04    0.37496E-03   -0.10406E-03  4719   0.234E-02    0.491E-02
RMM:   6    -0.232011380139E+04    0.58712E-05   -0.16419E-04  4316   0.150E-02    0.228E-02
RMM:   7    -0.232011379937E+04    0.20227E-05   -0.32175E-05  3067   0.480E-03
  33 F= -.23406440E+04 E0= -.23406440E+04  d E =-.505955E-02  mag=     1.0000
       N       E                     dE             d eps       ncg     rms          rms(c)
DAV:   1    -0.232011288844E+04    0.91296E-03   -0.40096E-01  4576   0.579E-01    0.120E-01
RMM:   2    -0.232011427169E+04   -0.13832E-02   -0.14868E-02  6002   0.957E-02    0.684E-02
RMM:   3    -0.232011428896E+04   -0.17269E-04   -0.10155E-03  4919   0.285E-02    0.790E-02
RMM:   4    -0.232011423272E+04    0.56234E-04   -0.12187E-04  3163   0.782E-03    0.438E-02
RMM:   5    -0.232011420709E+04    0.25631E-04   -0.79279E-05  3655   0.725E-03    0.147E-02
RMM:   6    -0.232011420660E+04    0.49593E-06   -0.16845E-05  2930   0.551E-03
  34 F= -.23406443E+04 E0= -.23406443E+04  d E =-.528600E-02  mag=     1.0000
       N       E                     dE             d eps       ncg     rms          rms(c)
DAV:   1    -0.232011295245E+04    0.12546E-02   -0.11968E+00  4480   0.104E+00    0.246E-01
RMM:   2    -0.232011742543E+04   -0.44730E-02   -0.49217E-02  5984   0.172E-01    0.124E-01
RMM:   3    -0.232011723176E+04    0.19368E-03   -0.30741E-03  5417   0.479E-02    0.822E-02
RMM:   4    -0.232011716472E+04    0.67039E-04   -0.47437E-04  4952   0.143E-02    0.590E-02
RMM:   5    -0.232011712695E+04    0.37763E-04   -0.21283E-04  4617   0.124E-02    0.451E-02
RMM:   6    -0.232011711546E+04    0.11498E-04   -0.57957E-05  3164   0.664E-03    0.350E-02
RMM:   7    -0.232011709908E+04    0.16378E-04   -0.12607E-05  2872   0.444E-03    0.778E-03
RMM:   8    -0.232011709751E+04    0.15714E-05   -0.44138E-06  2845   0.234E-03
  35 F= -.23406473E+04 E0= -.23406473E+04  d E =-.301197E-02  mag=     1.0000
       N       E                     dE             d eps       ncg     rms          rms(c)
DAV:   1    -0.232011685522E+04    0.24386E-03   -0.12412E-01  4640   0.335E-01    0.795E-02
RMM:   2    -0.232011732178E+04   -0.46656E-03   -0.51391E-03  5968   0.560E-02    0.405E-02
RMM:   3    -0.232011730353E+04    0.18245E-04   -0.33252E-04  3818   0.154E-02    0.273E-02
RMM:   4    -0.232011730028E+04    0.32538E-05   -0.51101E-05  3033   0.582E-03
  36 F= -.23406475E+04 E0= -.23406475E+04  d E =-.325407E-02  mag=     1.0000
       N       E                     dE             d eps       ncg     rms          rms(c)
DAV:   1    -0.232011784429E+04   -0.54076E-03   -0.28562E-01  4512   0.547E-01    0.133E-01
RMM:   2    -0.232011918316E+04   -0.13389E-02   -0.14455E-02  5923   0.942E-02    0.838E-02
RMM:   3    -0.232011929725E+04   -0.11409E-03   -0.14663E-03  5138   0.331E-02    0.127E-01
RMM:   4    -0.232011912561E+04    0.17164E-03   -0.16617E-04  3438   0.918E-03    0.392E-02
RMM:   5    -0.232011911008E+04    0.15531E-04   -0.81860E-05  3694   0.693E-03    0.263E-02
RMM:   6    -0.232011910263E+04    0.74492E-05   -0.39927E-05  3072   0.638E-03
  37 F= -.23406493E+04 E0= -.23406493E+04  d E =-.180026E-02  mag=     1.0000
       N       E                     dE             d eps       ncg     rms          rms(c)
DAV:   1    -0.232011509492E+04    0.40152E-02   -0.11507E+00  4480   0.110E+00    0.265E-01
RMM:   2    -0.232012060223E+04   -0.55073E-02   -0.60288E-02  5961   0.193E-01    0.135E-01
RMM:   3    -0.232012041803E+04    0.18419E-03   -0.38244E-03  5530   0.538E-02    0.104E-01
RMM:   4    -0.232012035655E+04    0.61480E-04   -0.53405E-04  5118   0.144E-02    0.937E-02
RMM:   5    -0.232012032692E+04    0.29627E-04   -0.29757E-04  4583   0.123E-02    0.825E-02
RMM:   6    -0.232012023995E+04    0.86972E-04   -0.16586E-04  4569   0.103E-02    0.162E-02
RMM:   7    -0.232012023369E+04    0.62584E-05   -0.13715E-05  2872   0.543E-03
  38 F= -.23406504E+04 E0= -.23406504E+04  d E =-.292948E-02  mag=     1.0000
       N       E                     dE             d eps       ncg     rms          rms(c)
DAV:   1    -0.232012060583E+04   -0.36588E-03   -0.98290E-02  4640   0.320E-01    0.627E-02
RMM:   2    -0.232012109112E+04   -0.48529E-03   -0.51587E-03  6034   0.569E-02    0.379E-02
RMM:   3    -0.232012109798E+04   -0.68540E-05   -0.32471E-04  3886   0.153E-02    0.452E-02
RMM:   4    -0.232012108233E+04    0.15642E-04   -0.41341E-05  2938   0.531E-03    0.247E-02
RMM:   5    -0.232012107670E+04    0.56370E-05   -0.21645E-05  2970   0.377E-03
  39 F= -.23406513E+04 E0= -.23406513E+04  d E =-.863192E-03  mag=     1.0000
       N       E                     dE             d eps       ncg     rms          rms(c)
DAV:   1    -0.232011890945E+04    0.21729E-02   -0.88062E-01  4448   0.957E-01    0.187E-01
RMM:   2    -0.232012320067E+04   -0.42912E-02   -0.45830E-02  6075   0.169E-01    0.109E-01
RMM:   3    -0.232012321534E+04   -0.14665E-04   -0.27344E-03  5551   0.430E-02    0.117E-01
RMM:   4    -0.232012313328E+04    0.82059E-04   -0.35226E-04  3881   0.120E-02    0.788E-02
RMM:   5    -0.232012307543E+04    0.57851E-04   -0.18385E-04  4141   0.954E-03    0.445E-02
RMM:   6    -0.232012305425E+04    0.21181E-04   -0.10639E-04  3742   0.912E-03    0.135E-02
RMM:   7    -0.232012305137E+04    0.28774E-05   -0.97171E-06  2863   0.465E-03
  40 F= -.23406533E+04 E0= -.23406533E+04  d E =-.290086E-02  mag=     1.0000
       N       E                     dE             d eps       ncg     rms          rms(c)
DAV:   1    -0.232010785087E+04    0.15203E-01   -0.35350E+00  4432   0.191E+00    0.373E-01
RMM:   2    -0.232012517012E+04   -0.17319E-01   -0.18477E-01  6021   0.341E-01    0.221E-01
RMM:   3    -0.232012528062E+04   -0.11051E-03   -0.11598E-02  5715   0.888E-02    0.249E-01
RMM:   4    -0.232012485466E+04    0.42596E-03   -0.14249E-03  5641   0.236E-02    0.152E-01
RMM:   5    -0.232012462325E+04    0.23141E-03   -0.73218E-04  4699   0.174E-02    0.844E-02
RMM:   6    -0.232012455404E+04    0.69211E-04   -0.41672E-04  4845   0.174E-02    0.307E-02
RMM:   7    -0.232012453796E+04    0.16079E-04   -0.41555E-05  3144   0.694E-03    0.136E-02
RMM:   8    -0.232012453558E+04    0.23860E-05   -0.13476E-05  2901   0.362E-03
  41 F= -.23406550E+04 E0= -.23406550E+04  d E =-.452181E-02  mag=     1.0000
       N       E                     dE             d eps       ncg     rms          rms(c)
DAV:   1    -0.232012495098E+04   -0.41301E-03   -0.53721E-01  4464   0.744E-01    0.180E-01
RMM:   2    -0.232012722032E+04   -0.22693E-02   -0.24926E-02  5913   0.132E-01    0.899E-02
RMM:   3    -0.232012719247E+04    0.27854E-04   -0.13887E-03  5496   0.389E-02    0.100E-01
RMM:   4    -0.232012712208E+04    0.70389E-04   -0.21492E-04  3855   0.106E-02    0.647E-02
RMM:   5    -0.232012706135E+04    0.60726E-04   -0.13947E-04  4210   0.996E-03    0.149E-02
RMM:   6    -0.232012705982E+04    0.15282E-05   -0.21464E-05  2943   0.708E-03
  42 F= -.23406576E+04 E0= -.23406576E+04  d E =-.264796E-02  mag=     1.0000
       N       E                     dE             d eps       ncg     rms          rms(c)
DAV:   1    -0.232012353129E+04    0.35301E-02   -0.11069E+00  4424   0.107E+00    0.261E-01
RMM:   2    -0.232012825015E+04   -0.47189E-02   -0.51899E-02  5910   0.191E-01    0.130E-01
RMM:   3    -0.232012818709E+04    0.63054E-04   -0.28223E-03  5621   0.513E-02    0.146E-01
RMM:   4    -0.232012803381E+04    0.15328E-03   -0.44174E-04  4769   0.147E-02    0.921E-02
RMM:   5    -0.232012790833E+04    0.12548E-03   -0.28952E-04  4630   0.136E-02    0.213E-02
RMM:   6    -0.232012790090E+04    0.74263E-05   -0.39457E-05  3272   0.855E-03
  43 F= -.23406586E+04 E0= -.23406586E+04  d E =-.366810E-02  mag=     1.0000
       N       E                     dE             d eps       ncg     rms          rms(c)
DAV:   1    -0.232012694512E+04    0.96321E-03   -0.85453E-01  4440   0.897E-01    0.190E-01
RMM:   2    -0.232013026686E+04   -0.33217E-02   -0.36761E-02  5938   0.153E-01    0.993E-02
RMM:   3    -0.232013012895E+04    0.13791E-03   -0.19195E-03  5461   0.404E-02    0.702E-02
RMM:   4    -0.232013019507E+04   -0.66121E-04   -0.32723E-04  4362   0.121E-02    0.101E-01
RMM:   5    -0.232013007524E+04    0.11983E-03   -0.14069E-04  4078   0.954E-03    0.247E-02
RMM:   6    -0.232013007180E+04    0.34419E-05   -0.36945E-05  3045   0.574E-03
  44 F= -.23406610E+04 E0= -.23406610E+04  d E =-.235943E-02  mag=     1.0000
       N       E                     dE             d eps       ncg     rms          rms(c)
DAV:   1    -0.232011861950E+04    0.11456E-01   -0.34788E+00  4424   0.181E+00    0.384E-01
RMM:   2    -0.232013219558E+04   -0.13576E-01   -0.15037E-01  6017   0.311E-01    0.201E-01
RMM:   3    -0.232013163596E+04    0.55963E-03   -0.78541E-03  5737   0.783E-02    0.140E-01
RMM:   4    -0.232013188461E+04   -0.24865E-03   -0.13365E-03  5306   0.240E-02    0.199E-01
RMM:   5    -0.232013142634E+04    0.45827E-03   -0.54237E-04  5296   0.180E-02    0.525E-02
RMM:   6    -0.232013140320E+04    0.23134E-04   -0.12942E-04  4150   0.856E-03    0.151E-02
RMM:   7    -0.232013140067E+04    0.25349E-05   -0.14772E-05  2882   0.614E-03
  45 F= -.23406627E+04 E0= -.23406627E+04  d E =-.407322E-02  mag=     1.0000
       N       E                     dE             d eps       ncg     rms          rms(c)
DAV:   1    -0.232012810089E+04    0.33023E-02   -0.13832E+00  4480   0.119E+00    0.280E-01
RMM:   2    -0.232013476812E+04   -0.66672E-02   -0.73219E-02  6076   0.219E-01    0.141E-01
RMM:   3    -0.232013461271E+04    0.15541E-03   -0.42376E-03  5697   0.534E-02    0.125E-01
RMM:   4    -0.232013460896E+04    0.37496E-05   -0.65000E-04  5180   0.165E-02    0.126E-01
RMM:   5    -0.232013442034E+04    0.18862E-03   -0.34456E-04  4723   0.134E-02    0.481E-02
RMM:   6    -0.232013439266E+04    0.27677E-04   -0.12194E-04  3964   0.986E-03    0.197E-02
RMM:   7    -0.232013438477E+04    0.78914E-05   -0.17232E-05  2877   0.492E-03
  46 F= -.23406658E+04 E0= -.23406658E+04  d E =-.310049E-02  mag=     1.0000
       N       E                     dE             d eps       ncg     rms          rms(c)
DAV:   1    -0.232013385627E+04    0.53640E-03   -0.14382E-01  4704   0.384E-01    0.909E-02
RMM:   2    -0.232013454657E+04   -0.69030E-03   -0.75958E-03  6054   0.706E-02    0.456E-02
RMM:   3    -0.232013453370E+04    0.12865E-04   -0.45665E-04  4430   0.200E-02    0.424E-02
RMM:   4    -0.232013453057E+04    0.31291E-05   -0.67932E-05  3003   0.646E-03
  47 F= -.23406660E+04 E0= -.23406660E+04  d E =-.328457E-02  mag=     1.0000
       N       E                     dE             d eps       ncg     rms          rms(c)
DAV:   1    -0.232013119381E+04    0.33399E-02   -0.68950E-01  4480   0.844E-01    0.219E-01
RMM:   2    -0.232013691687E+04   -0.57231E-02   -0.61873E-02  6146   0.174E-01    0.142E-01
RMM:   3    -0.232013723063E+04   -0.31376E-03   -0.50586E-03  5674   0.487E-02    0.194E-01
RMM:   4    -0.232013684121E+04    0.38943E-03   -0.58207E-04  4327   0.138E-02    0.716E-02
RMM:   5    -0.232013679900E+04    0.42205E-04   -0.23248E-04  4125   0.953E-03    0.485E-02
RMM:   6    -0.232013677128E+04    0.27727E-04   -0.12371E-04  3852   0.964E-03    0.156E-02
RMM:   7    -0.232013676735E+04    0.39249E-05   -0.13287E-05  2865   0.500E-03
  48 F= -.23406682E+04 E0= -.23406682E+04  d E =-.221052E-02  mag=     1.0000
       N       E                     dE             d eps       ncg     rms          rms(c)
DAV:   1    -0.232013411013E+04    0.26611E-02   -0.38188E-01  4512   0.629E-01    0.163E-01
RMM:   2    -0.232013729340E+04   -0.31833E-02   -0.34431E-02  6237   0.131E-01    0.104E-01
RMM:   3    -0.232013744061E+04   -0.14721E-03   -0.27180E-03  5422   0.361E-02    0.136E-01
RMM:   4    -0.232013725381E+04    0.18680E-03   -0.32203E-04  3597   0.104E-02    0.555E-02
RMM:   5    -0.232013722845E+04    0.25367E-04   -0.11309E-04  3513   0.700E-03    0.378E-02
RMM:   6    -0.232013721015E+04    0.18292E-04   -0.79859E-05  3534   0.785E-03    0.108E-02
RMM:   7    -0.232013720825E+04    0.19030E-05   -0.90030E-06  2849   0.465E-03
  49 F= -.23406686E+04 E0= -.23406686E+04  d E =-.263266E-02  mag=     1.0000
       N       E                     dE             d eps       ncg     rms          rms(c)
DAV:   1    -0.232013220007E+04    0.50101E-02   -0.69406E-01  4440   0.848E-01    0.229E-01
RMM:   2    -0.232013909419E+04   -0.68941E-02   -0.72613E-02  6183   0.179E-01    0.192E-01
RMM:   3    -0.232013935686E+04   -0.26267E-03   -0.61890E-03  5718   0.524E-02    0.213E-01
RMM:   4    -0.232013886369E+04    0.49317E-03   -0.69866E-04  4547   0.146E-02    0.730E-02
RMM:   5    -0.232013882488E+04    0.38813E-04   -0.20862E-04  4029   0.925E-03    0.523E-02
RMM:   6    -0.232013879188E+04    0.33000E-04   -0.15144E-04  4325   0.993E-03    0.148E-02
RMM:   7    -0.232013878889E+04    0.29849E-05   -0.12508E-05  2876   0.503E-03
  50 F= -.23406702E+04 E0= -.23406702E+04  d E =-.158674E-02  mag=     1.0000
       N       E                     dE             d eps       ncg     rms          rms(c)
DAV:   1    -0.232013632317E+04    0.24687E-02   -0.25813E-01  4480   0.517E-01    0.140E-01
RMM:   2    -0.232013888284E+04   -0.25597E-02   -0.26988E-02  6176   0.109E-01    0.116E-01
RMM:   3    -0.232013899066E+04   -0.10782E-03   -0.23181E-03  5299   0.334E-02    0.131E-01
RMM:   4    -0.232013880598E+04    0.18469E-03   -0.25954E-04  3402   0.934E-03    0.444E-02
RMM:   5    -0.232013879180E+04    0.14171E-04   -0.78008E-05  3348   0.616E-03    0.315E-02
RMM:   6    -0.232013878017E+04    0.11631E-04   -0.54777E-05  3230   0.666E-03    0.889E-03
RMM:   7    -0.232013877926E+04    0.90810E-06   -0.72285E-06  2835   0.440E-03
  51 F= -.23406702E+04 E0= -.23406702E+04  d E =-.158158E-02  mag=     1.0000
       N       E                     dE             d eps       ncg     rms          rms(c)
DAV:   1    -0.232013841380E+04    0.36638E-03   -0.49360E-02  4544   0.226E-01    0.600E-02
RMM:   2    -0.232013889736E+04   -0.48356E-03   -0.50936E-03  6116   0.473E-02    0.489E-02
RMM:   3    -0.232013891474E+04   -0.17382E-04   -0.40612E-04  3627   0.137E-02    0.547E-02
RMM:   4    -0.232013888140E+04    0.33334E-04   -0.48234E-05  2942   0.503E-03    0.193E-02
RMM:   5    -0.232013887788E+04    0.35283E-05   -0.15895E-05  2929   0.313E-03
  52 F= -.23406703E+04 E0= -.23406703E+04  d E =-.167817E-02  mag=     1.0000
       N       E                     dE             d eps       ncg     rms          rms(c)
DAV:   1    -0.232013396953E+04    0.49119E-02   -0.66566E-01  4448   0.837E-01    0.217E-01
RMM:   2    -0.232014043149E+04   -0.64620E-02   -0.68588E-02  6034   0.171E-01    0.147E-01
RMM:   3    -0.232014081910E+04   -0.38760E-03   -0.54959E-03  5554   0.520E-02    0.193E-01
RMM:   4    -0.232014043046E+04    0.38863E-03   -0.63972E-04  4291   0.141E-02    0.693E-02
RMM:   5    -0.232014036156E+04    0.68905E-04   -0.19938E-04  4449   0.107E-02    0.265E-02
RMM:   6    -0.232014035679E+04    0.47696E-05   -0.43134E-05  3262   0.765E-03
  53 F= -.23406720E+04 E0= -.23406720E+04  d E =-.165519E-02  mag=     1.0000
       N       E                     dE             d eps       ncg     rms          rms(c)
DAV:   1    -0.232013674432E+04    0.36172E-02   -0.38207E-01  4448   0.634E-01    0.167E-01
RMM:   2    -0.232014043363E+04   -0.36893E-02   -0.39325E-02  6061   0.130E-01    0.111E-01
RMM:   3    -0.232014069453E+04   -0.26090E-03   -0.33068E-03  5450   0.437E-02    0.148E-01
RMM:   4    -0.232014046987E+04    0.22467E-03   -0.37898E-04  3600   0.109E-02    0.529E-02
RMM:   5    -0.232014043234E+04    0.37521E-04   -0.11611E-04  4115   0.824E-03    0.215E-02
RMM:   6    -0.232014042981E+04    0.25378E-05   -0.29205E-05  3033   0.668E-03
  54 F= -.23406722E+04 E0= -.23406722E+04  d E =-.186459E-02  mag=     1.0000
       N       E                     dE             d eps       ncg     rms          rms(c)
DAV:   1    -0.232013808329E+04    0.23491E-02   -0.36822E-01  4472   0.609E-01    0.148E-01
RMM:   2    -0.232014144982E+04   -0.33665E-02   -0.36201E-02  6202   0.123E-01    0.864E-02
RMM:   3    -0.232014157963E+04   -0.12981E-03   -0.27425E-03  5254   0.361E-02    0.941E-02
RMM:   4    -0.232014152625E+04    0.53374E-04   -0.30746E-04  3293   0.893E-03    0.572E-02
RMM:   5    -0.232014149153E+04    0.34725E-04   -0.85279E-05  3488   0.752E-03    0.284E-02
RMM:   6    -0.232014148661E+04    0.49155E-05   -0.53806E-05  3438   0.642E-03
  55 F= -.23406734E+04 E0= -.23406734E+04  d E =-.125104E-02  mag=     1.0000
       N       E                     dE             d eps       ncg     rms          rms(c)
DAV:   1    -0.232011164656E+04    0.29845E-01   -0.33191E+00  4464   0.183E+00    0.440E-01
RMM:   2    -0.232014192040E+04   -0.30274E-01   -0.32520E-01  6099   0.364E-01    0.260E-01
RMM:   3    -0.232014314052E+04   -0.12201E-02   -0.25776E-02  5649   0.108E-01    0.287E-01
RMM:   4    -0.232014264895E+04    0.49157E-03   -0.28064E-03  5575   0.253E-02    0.172E-01
RMM:   5    -0.232014230858E+04    0.34038E-03   -0.69271E-04  5309   0.181E-02    0.813E-02
RMM:   6    -0.232014228213E+04    0.26442E-04   -0.43372E-04  5280   0.148E-02    0.545E-02
RMM:   7    -0.232014224425E+04    0.37888E-04   -0.85911E-05  3357   0.743E-03    0.154E-02
RMM:   8    -0.232014224216E+04    0.20876E-05   -0.10463E-05  2861   0.422E-03
  56 F= -.23406748E+04 E0= -.23406748E+04  d E =-.260441E-02  mag=     1.0000
       N       E                     dE             d eps       ncg     rms          rms(c)
DAV:   1    -0.232013636070E+04    0.58835E-02   -0.91535E-01  4464   0.965E-01    0.247E-01
RMM:   2    -0.232014380300E+04   -0.74423E-02   -0.80998E-02  6053   0.188E-01    0.128E-01
RMM:   3    -0.232014400463E+04   -0.20164E-03   -0.64050E-03  5617   0.562E-02    0.113E-01
RMM:   4    -0.232014404717E+04   -0.42536E-04   -0.75431E-04  4257   0.140E-02    0.114E-01
RMM:   5    -0.232014388789E+04    0.15928E-03   -0.20990E-04  4421   0.108E-02    0.341E-02
RMM:   6    -0.232014387929E+04    0.86045E-05   -0.74217E-05  3786   0.783E-03
  57 F= -.23406766E+04 E0= -.23406766E+04  d E =-.178545E-02  mag=     1.0000
       N       E                     dE             d eps       ncg     rms          rms(c)
DAV:   1    -0.232013810391E+04    0.57840E-02   -0.72406E-01  4472   0.857E-01    0.221E-01
RMM:   2    -0.232014398698E+04   -0.58831E-02   -0.64147E-02  6102   0.168E-01    0.114E-01
RMM:   3    -0.232014417012E+04   -0.18313E-03   -0.52660E-03  5644   0.521E-02    0.101E-01
RMM:   4    -0.232014420298E+04   -0.32866E-04   -0.59886E-04  3878   0.124E-02    0.101E-01
RMM:   5    -0.232014407901E+04    0.12397E-03   -0.16485E-04  4122   0.997E-03    0.310E-02
RMM:   6    -0.232014407289E+04    0.61183E-05   -0.69016E-05  3814   0.713E-03
  58 F= -.23406769E+04 E0= -.23406769E+04  d E =-.211234E-02  mag=     1.0000
       N       E                     dE             d eps       ncg     rms          rms(c)
DAV:   1    -0.232013861517E+04    0.54638E-02   -0.76049E-01  4464   0.880E-01    0.224E-01
RMM:   2    -0.232014548591E+04   -0.68707E-02   -0.74779E-02  6212   0.181E-01    0.128E-01
RMM:   3    -0.232014580399E+04   -0.31808E-03   -0.65120E-03  5753   0.556E-02    0.155E-01
RMM:   4    -0.232014563944E+04    0.16455E-03   -0.68729E-04  3919   0.136E-02    0.836E-02
RMM:   5    -0.232014557157E+04    0.67869E-04   -0.16459E-04  3937   0.885E-03    0.460E-02
RMM:   6    -0.232014555664E+04    0.14928E-04   -0.13022E-04  3980   0.963E-03    0.212E-02
RMM:   7    -0.232014554962E+04    0.70257E-05   -0.18462E-05  2908   0.517E-03
  59 F= -.23406783E+04 E0= -.23406783E+04  d E =-.145794E-02  mag=     1.0000
       N       E                     dE             d eps       ncg     rms          rms(c)
DAV:   1    -0.232014173788E+04    0.38188E-02   -0.44950E-01  4512   0.677E-01    0.172E-01
RMM:   2    -0.232014580420E+04   -0.40663E-02   -0.44242E-02  6198   0.139E-01    0.977E-02
RMM:   3    -0.232014599936E+04   -0.19516E-03   -0.38602E-03  5523   0.407E-02    0.120E-01
RMM:   4    -0.232014589799E+04    0.10137E-03   -0.40374E-04  3491   0.104E-02    0.631E-02
RMM:   5    -0.232014585614E+04    0.41845E-04   -0.96912E-05  3536   0.728E-03    0.327E-02
RMM:   6    -0.232014584925E+04    0.68894E-05   -0.69546E-05  3386   0.751E-03
  60 F= -.23406786E+04 E0= -.23406786E+04  d E =-.174443E-02  mag=     1.0000
       N       E                     dE             d eps       ncg     rms          rms(c)
DAV:   1    -0.232014227723E+04    0.35789E-02   -0.60366E-01  4432   0.779E-01    0.206E-01
RMM:   2    -0.232014705651E+04   -0.47793E-02   -0.52066E-02  6183   0.163E-01    0.121E-01
RMM:   3    -0.232014728450E+04   -0.22799E-03   -0.42691E-03  5784   0.443E-02    0.158E-01
RMM:   4    -0.232014705320E+04    0.23130E-03   -0.48527E-04  4022   0.126E-02    0.720E-02
RMM:   5    -0.232014700277E+04    0.50430E-04   -0.19867E-04  4186   0.955E-03    0.406E-02
RMM:   6    -0.232014698645E+04    0.16319E-04   -0.95597E-05  3605   0.903E-03    0.172E-02
RMM:   7    -0.232014698138E+04    0.50714E-05   -0.15301E-05  2871   0.518E-03
  61 F= -.23406799E+04 E0= -.23406799E+04  d E =-.124692E-02  mag=     1.0000
       N       E                     dE             d eps       ncg     rms          rms(c)
DAV:   1    -0.232014668550E+04    0.30095E-03   -0.39288E-02  4736   0.199E-01    0.528E-02
RMM:   2    -0.232014699601E+04   -0.31051E-03   -0.33714E-03  6170   0.416E-02    0.321E-02
RMM:   3    -0.232014701554E+04   -0.19529E-04   -0.29385E-04  3451   0.136E-02    0.436E-02
RMM:   4    -0.232014699729E+04    0.18249E-04   -0.33556E-05  2922   0.477E-03    0.178E-02
RMM:   5    -0.232014699412E+04    0.31693E-05   -0.14647E-05  2907   0.311E-03
  62 F= -.23406799E+04 E0= -.23406799E+04  d E =-.128908E-02  mag=     1.0000
       N       E                     dE             d eps       ncg     rms          rms(c)
DAV:   1    -0.232014626471E+04    0.73258E-03   -0.28806E-01  4440   0.531E-01    0.137E-01
RMM:   2    -0.232014766286E+04   -0.13982E-02   -0.15268E-02  6103   0.101E-01    0.737E-02
RMM:   3    -0.232014768873E+04   -0.25866E-04   -0.10645E-03  5221   0.275E-02    0.866E-02
RMM:   4    -0.232014762846E+04    0.60270E-04   -0.15982E-04  3362   0.861E-03    0.515E-02
RMM:   5    -0.232014760264E+04    0.25818E-04   -0.86992E-05  3719   0.742E-03    0.280E-02
RMM:   6    -0.232014759258E+04    0.10055E-04   -0.36001E-05  3059   0.644E-03    0.811E-03
RMM:   7    -0.232014759153E+04    0.10524E-05   -0.56519E-06  2831   0.379E-03
  63 F= -.23406807E+04 E0= -.23406807E+04  d E =-.806620E-03  mag=     1.0000
       N       E                     dE             d eps       ncg     rms          rms(c)
DAV:   1    -0.232014727497E+04    0.31761E-03   -0.63316E-02  4536   0.249E-01    0.644E-02
RMM:   2    -0.232014758578E+04   -0.31082E-03   -0.33804E-03  6084   0.471E-02    0.350E-02
RMM:   3    -0.232014759342E+04   -0.76347E-05   -0.24005E-04  3782   0.148E-02    0.434E-02
RMM:   4    -0.232014757685E+04    0.16564E-04   -0.35284E-05  2933   0.539E-03    0.230E-02
RMM:   5    -0.232014757073E+04    0.61195E-05   -0.21016E-05  2962   0.406E-03
  64 F= -.23406808E+04 E0= -.23406808E+04  d E =-.884038E-03  mag=     1.0000
       N       E                     dE             d eps       ncg     rms          rms(c)
DAV:   1    -0.232014689729E+04    0.67957E-03   -0.30536E-01  4464   0.543E-01    0.131E-01
RMM:   2    -0.232014822897E+04   -0.13317E-02   -0.14366E-02  6093   0.989E-02    0.696E-02
RMM:   3    -0.232014825542E+04   -0.26452E-04   -0.89485E-04  5129   0.277E-02    0.850E-02
RMM:   4    -0.232014819536E+04    0.60056E-04   -0.13347E-04  3260   0.824E-03    0.468E-02
RMM:   5    -0.232014817191E+04    0.23451E-04   -0.74368E-05  3700   0.702E-03    0.212E-02
RMM:   6    -0.232014816784E+04    0.40720E-05   -0.24863E-05  2982   0.599E-03
  65 F= -.23406816E+04 E0= -.23406816E+04  d E =-.805589E-03  mag=     1.0000
       N       E                     dE             d eps       ncg     rms          rms(c)
DAV:   1    -0.232014687085E+04    0.13011E-02   -0.29963E-01  4464   0.538E-01    0.130E-01
RMM:   2    -0.232014819711E+04   -0.13263E-02   -0.14281E-02  6052   0.982E-02    0.702E-02
RMM:   3    -0.232014822465E+04   -0.27540E-04   -0.88566E-04  5108   0.255E-02    0.896E-02
RMM:   4    -0.232014815192E+04    0.72727E-04   -0.13016E-04  3239   0.803E-03    0.446E-02
RMM:   5    -0.232014812810E+04    0.23823E-04   -0.72425E-05  3726   0.696E-03    0.183E-02
RMM:   6    -0.232014812589E+04    0.22109E-05   -0.22646E-05  2978   0.591E-03
  66 F= -.23406818E+04 E0= -.23406818E+04  d E =-.970566E-03  mag=     1.0000
       N       E                     dE             d eps       ncg     rms          rms(c)
DAV:   1    -0.232014728974E+04    0.83836E-03   -0.29757E-01  4448   0.540E-01    0.131E-01
RMM:   2    -0.232014859957E+04   -0.13098E-02   -0.14183E-02  6042   0.982E-02    0.662E-02
RMM:   3    -0.232014861468E+04   -0.15104E-04   -0.84430E-04  5163   0.267E-02    0.763E-02
RMM:   4    -0.232014857480E+04    0.39878E-04   -0.11723E-04  3203   0.781E-03    0.475E-02
RMM:   5    -0.232014854723E+04    0.27568E-04   -0.73980E-05  3770   0.735E-03    0.117E-02
RMM:   6    -0.232014854719E+04    0.37748E-07   -0.12042E-05  2879   0.535E-03
  67 F= -.23406824E+04 E0= -.23406824E+04  d E =-.608362E-03  mag=     1.0000
       N       E                     dE             d eps       ncg     rms          rms(c)
DAV:   1    -0.232014768613E+04    0.86110E-03   -0.18864E-01  4480   0.430E-01    0.104E-01
RMM:   2    -0.232014852230E+04   -0.83616E-03   -0.90279E-03  6037   0.781E-02    0.530E-02
RMM:   3    -0.232014853491E+04   -0.12612E-04   -0.53671E-04  4646   0.207E-02    0.631E-02
RMM:   4    -0.232014850518E+04    0.29733E-04   -0.74323E-05  3057   0.665E-03    0.368E-02
RMM:   5    -0.232014848838E+04    0.16795E-04   -0.49518E-05  3316   0.626E-03    0.896E-03
RMM:   6    -0.232014848829E+04    0.90047E-07   -0.92337E-06  2864   0.457E-03
  68 F= -.23406825E+04 E0= -.23406825E+04  d E =-.698734E-03  mag=     1.0000
       N       E                     dE             d eps       ncg     rms          rms(c)
DAV:   1    -0.232014748889E+04    0.99949E-03   -0.28075E-01  4432   0.529E-01    0.134E-01
RMM:   2    -0.232014899359E+04   -0.15047E-02   -0.16176E-02  6016   0.967E-02    0.666E-02
RMM:   3    -0.232014900896E+04   -0.15367E-04   -0.11238E-03  4977   0.266E-02    0.517E-02
RMM:   4    -0.232014901383E+04   -0.48689E-05   -0.15496E-04  3373   0.812E-03    0.583E-02
RMM:   5    -0.232014897893E+04    0.34897E-04   -0.86740E-05  3393   0.778E-03    0.226E-02
RMM:   6    -0.232014897430E+04    0.46294E-05   -0.21002E-05  2941   0.517E-03
  69 F= -.23406831E+04 E0= -.23406831E+04  d E =-.634424E-03  mag=     1.0000
       N       E                     dE             d eps       ncg     rms          rms(c)
DAV:   1    -0.232014795973E+04    0.10192E-02   -0.18799E-01  4448   0.433E-01    0.110E-01
RMM:   2    -0.232014897127E+04   -0.10115E-02   -0.10881E-02  6058   0.804E-02    0.538E-02
RMM:   3    -0.232014898087E+04   -0.96007E-05   -0.77521E-04  4665   0.223E-02    0.385E-02
RMM:   4    -0.232014898910E+04   -0.82350E-05   -0.10581E-04  3182   0.720E-03    0.477E-02
RMM:   5    -0.232014896735E+04    0.21750E-04   -0.57440E-05  3106   0.645E-03    0.209E-02
RMM:   6    -0.232014896264E+04    0.47159E-05   -0.12572E-05  2889   0.436E-03
  70 F= -.23406832E+04 E0= -.23406832E+04  d E =-.744222E-03  mag=     1.0000
       N       E                     dE             d eps       ncg     rms          rms(c)
DAV:   1    -0.232014698332E+04    0.19840E-02   -0.34152E-01  4464   0.589E-01    0.158E-01
RMM:   2    -0.232014946243E+04   -0.24791E-02   -0.26666E-02  6098   0.114E-01    0.870E-02
RMM:   3    -0.232014954769E+04   -0.85251E-04   -0.21388E-03  5250   0.332E-02    0.829E-02
RMM:   4    -0.232014949696E+04    0.50724E-04   -0.26276E-04  3579   0.936E-03    0.601E-02
RMM:   5    -0.232014946470E+04    0.32259E-04   -0.10671E-04  3500   0.808E-03    0.322E-02
RMM:   6    -0.232014945531E+04    0.93956E-05   -0.62009E-05  3333   0.680E-03
  71 F= -.23406838E+04 E0= -.23406838E+04  d E =-.612947E-03  mag=     1.0000
       N       E                     dE             d eps       ncg     rms          rms(c)
DAV:   1    -0.232014903161E+04    0.43310E-03   -0.53335E-02  4640   0.233E-01    0.638E-02
RMM:   2    -0.232014942558E+04   -0.39397E-03   -0.42762E-03  6258   0.471E-02    0.327E-02
RMM:   3    -0.232014943870E+04   -0.13118E-04   -0.35165E-04  3639   0.137E-02    0.274E-02
RMM:   4    -0.232014943733E+04    0.13697E-05   -0.41783E-05  2932   0.486E-03
  72 F= -.23406839E+04 E0= -.23406839E+04  d E =-.642538E-03  mag=     1.0000
       N       E                     dE             d eps       ncg     rms          rms(c)
DAV:   1    -0.232014766523E+04    0.17735E-02   -0.27646E-01  4464   0.535E-01    0.145E-01
RMM:   2    -0.232014986146E+04   -0.21962E-02   -0.23656E-02  6177   0.106E-01    0.711E-02
RMM:   3    -0.232014988196E+04   -0.20500E-04   -0.16831E-03  5170   0.280E-02    0.491E-02
RMM:   4    -0.232014992195E+04   -0.39992E-04   -0.23430E-04  3623   0.913E-03    0.716E-02
RMM:   5    -0.232014986407E+04    0.57875E-04   -0.73663E-05  3237   0.741E-03    0.228E-02
RMM:   6    -0.232014986171E+04    0.23593E-05   -0.29935E-05  2969   0.494E-03
  73 F= -.23406844E+04 E0= -.23406844E+04  d E =-.534947E-03  mag=     1.0000
       N       E                     dE             d eps       ncg     rms          rms(c)
DAV:   1    -0.232014924844E+04    0.61564E-03   -0.73635E-02  4512   0.276E-01    0.750E-02
RMM:   2    -0.232014983968E+04   -0.59124E-03   -0.63641E-03  6252   0.557E-02    0.392E-02
RMM:   3    -0.232014987219E+04   -0.32510E-04   -0.54200E-04  3980   0.164E-02    0.519E-02
RMM:   4    -0.232014985145E+04    0.20735E-04   -0.60969E-05  2946   0.559E-03    0.249E-02
RMM:   5    -0.232014984466E+04    0.67911E-05   -0.17470E-05  2921   0.352E-03
  74 F= -.23406844E+04 E0= -.23406844E+04  d E =-.574920E-03  mag=     1.0000
       N       E                     dE             d eps       ncg     rms          rms(c)
DAV:   1    -0.232014830571E+04    0.15457E-02   -0.24432E-01  4464   0.503E-01    0.129E-01
RMM:   2    -0.232015021678E+04   -0.19111E-02   -0.20263E-02  6192   0.100E-01    0.743E-02
RMM:   3    -0.232015030020E+04   -0.83420E-04   -0.14662E-03  5069   0.269E-02    0.929E-02
RMM:   4    -0.232015022767E+04    0.72528E-04   -0.19291E-04  3215   0.821E-03    0.458E-02
RMM:   5    -0.232015020758E+04    0.20092E-04   -0.59841E-05  3368   0.598E-03    0.258E-02
RMM:   6    -0.232015020107E+04    0.65053E-05   -0.35287E-05  3030   0.581E-03
  75 F= -.23406850E+04 E0= -.23406850E+04  d E =-.525029E-03  mag=     1.0000
       N       E                     dE             d eps       ncg     rms          rms(c)
DAV:   1    -0.232014830398E+04    0.19036E-02   -0.23102E-01  4464   0.489E-01    0.126E-01
RMM:   2    -0.232015012431E+04   -0.18203E-02   -0.19297E-02  6138   0.979E-02    0.715E-02
RMM:   3    -0.232015020939E+04   -0.85076E-04   -0.14376E-03  5194   0.276E-02    0.922E-02
RMM:   4    -0.232015013695E+04    0.72432E-04   -0.18111E-04  3178   0.791E-03    0.431E-02
RMM:   5    -0.232015011595E+04    0.21008E-04   -0.52269E-05  3286   0.588E-03    0.218E-02
RMM:   6    -0.232015011243E+04    0.35118E-05   -0.30339E-05  2995   0.562E-03
  76 F= -.23406850E+04 E0= -.23406850E+04  d E =-.600864E-03  mag=     1.0000
       N       E                     dE             d eps       ncg     rms          rms(c)
DAV:   1    -0.232014834217E+04    0.17738E-02   -0.26932E-01  4464   0.523E-01    0.128E-01
RMM:   2    -0.232015035930E+04   -0.20171E-02   -0.21312E-02  6153   0.103E-01    0.732E-02
RMM:   3    -0.232015044209E+04   -0.82785E-04   -0.15668E-03  5104   0.299E-02    0.884E-02
RMM:   4    -0.232015038163E+04    0.60451E-04   -0.20047E-04  3180   0.812E-03    0.467E-02
RMM:   5    -0.232015035699E+04    0.24642E-04   -0.56100E-05  3332   0.621E-03    0.223E-02
RMM:   6    -0.232015035441E+04    0.25792E-05   -0.33211E-05  3029   0.584E-03
  77 F= -.23406855E+04 E0= -.23406855E+04  d E =-.432462E-03  mag=     1.0000
       N       E                     dE             d eps       ncg     rms          rms(c)
DAV:   1    -0.232014843702E+04    0.19200E-02   -0.24140E-01  4464   0.495E-01    0.122E-01
RMM:   2    -0.232015024649E+04   -0.18095E-02   -0.19120E-02  6149   0.972E-02    0.691E-02
RMM:   3    -0.232015031924E+04   -0.72753E-04   -0.13979E-03  4983   0.280E-02    0.829E-02
RMM:   4    -0.232015026722E+04    0.52023E-04   -0.17947E-04  3141   0.779E-03    0.445E-02
RMM:   5    -0.232015024439E+04    0.22825E-04   -0.49373E-05  3253   0.588E-03    0.210E-02
RMM:   6    -0.232015024198E+04    0.24176E-05   -0.29681E-05  3006   0.548E-03
  78 F= -.23406855E+04 E0= -.23406855E+04  d E =-.501773E-03  mag=     1.0000
       N       E                     dE             d eps       ncg     rms          rms(c)
DAV:   1    -0.232014809507E+04    0.21493E-02   -0.34869E-01  4464   0.596E-01    0.150E-01
RMM:   2    -0.232015066542E+04   -0.25703E-02   -0.27306E-02  6114   0.117E-01    0.868E-02
RMM:   3    -0.232015077654E+04   -0.11112E-03   -0.20355E-03  5396   0.345E-02    0.110E-01
RMM:   4    -0.232015067257E+04    0.10397E-03   -0.26299E-04  3338   0.923E-03    0.529E-02
RMM:   5    -0.232015064305E+04    0.29512E-04   -0.77676E-05  3605   0.721E-03    0.275E-02
RMM:   6    -0.232015063752E+04    0.55371E-05   -0.45689E-05  3111   0.699E-03
  79 F= -.23406861E+04 E0= -.23406861E+04  d E =-.539226E-03  mag=     1.0000
       N       E                     dE             d eps       ncg     rms          rms(c)
DAV:   1    -0.232015013511E+04    0.50795E-03   -0.61189E-02  4560   0.250E-01    0.643E-02
RMM:   2    -0.232015059059E+04   -0.45548E-03   -0.48634E-03  6209   0.507E-02    0.360E-02
RMM:   3    -0.232015061064E+04   -0.20054E-04   -0.37041E-04  3821   0.150E-02    0.449E-02
RMM:   4    -0.232015059459E+04    0.16050E-04   -0.47892E-05  2934   0.526E-03    0.230E-02
RMM:   5    -0.232015058867E+04    0.59260E-05   -0.13489E-05  2916   0.337E-03
  80 F= -.23406861E+04 E0= -.23406861E+04  d E =-.551176E-03  mag=     1.0000
       N       E                     dE             d eps       ncg     rms          rms(c)
DAV:   1    -0.232014947787E+04    0.11167E-02   -0.21661E-01  4464   0.475E-01    0.125E-01
RMM:   2    -0.232015096758E+04   -0.14897E-02   -0.15877E-02  6152   0.925E-02    0.697E-02
RMM:   3    -0.232015105116E+04   -0.83577E-04   -0.11618E-03  5103   0.266E-02    0.101E-01
RMM:   4    -0.232015094991E+04    0.10125E-03   -0.15213E-04  3205   0.816E-03    0.381E-02
RMM:   5    -0.232015093643E+04    0.13477E-04   -0.59304E-05  3378   0.598E-03    0.226E-02
RMM:   6    -0.232015093107E+04    0.53695E-05   -0.27404E-05  2985   0.553E-03
  81 F= -.23406865E+04 E0= -.23406865E+04  d E =-.425501E-03  mag=     1.0000
       N       E                     dE             d eps       ncg     rms          rms(c)
DAV:   1    -0.232015046778E+04    0.46866E-03   -0.63759E-02  4528   0.258E-01    0.684E-02
RMM:   2    -0.232015091261E+04   -0.44483E-03   -0.47394E-03  6163   0.513E-02    0.381E-02
RMM:   3    -0.232015094169E+04   -0.29080E-04   -0.36682E-04  4002   0.157E-02    0.569E-02
RMM:   4    -0.232015090942E+04    0.32270E-04   -0.46579E-05  2947   0.554E-03    0.203E-02
RMM:   5    -0.232015090463E+04    0.47933E-05   -0.16787E-05  2922   0.358E-03
  82 F= -.23406865E+04 E0= -.23406865E+04  d E =-.444185E-03  mag=     1.0000
       N       E                     dE             d eps       ncg     rms          rms(c)
DAV:   1    -0.232014981110E+04    0.10983E-02   -0.22913E-01  4464   0.480E-01    0.116E-01
RMM:   2    -0.232015119504E+04   -0.13839E-02   -0.14869E-02  6155   0.895E-02    0.586E-02
RMM:   3    -0.232015121512E+04   -0.20082E-04   -0.10796E-03  4788   0.250E-02    0.529E-02
RMM:   4    -0.232015122273E+04   -0.76090E-05   -0.13600E-04  3158   0.752E-03    0.536E-02
RMM:   5    -0.232015119071E+04    0.32019E-04   -0.51461E-05  3191   0.585E-03    0.203E-02
RMM:   6    -0.232015118772E+04    0.29972E-05   -0.26229E-05  2978   0.526E-03
  83 F= -.23406869E+04 E0= -.23406869E+04  d E =-.393695E-03  mag=     1.0000
       N       E                     dE             d eps       ncg     rms          rms(c)
DAV:   1    -0.232015000281E+04    0.11879E-02   -0.18630E-01  4464   0.433E-01    0.105E-01
RMM:   2    -0.232015113439E+04   -0.11316E-02   -0.12158E-02  6085   0.808E-02    0.527E-02
RMM:   3    -0.232015115724E+04   -0.22847E-04   -0.93433E-04  4718   0.239E-02    0.503E-02
RMM:   4    -0.232015115931E+04   -0.20768E-05   -0.11060E-04  3059   0.675E-03    0.463E-02
RMM:   5    -0.232015113318E+04    0.26138E-04   -0.37186E-05  3089   0.533E-03    0.152E-02
RMM:   6    -0.232015113175E+04    0.14294E-05   -0.17766E-05  2913   0.465E-03
  84 F= -.23406870E+04 E0= -.23406870E+04  d E =-.437314E-03  mag=     1.0000
       N       E                     dE             d eps       ncg     rms          rms(c)
DAV:   1    -0.232015050495E+04    0.62822E-03   -0.17592E-01  4472   0.417E-01    0.982E-02
RMM:   2    -0.232015145709E+04   -0.95214E-03   -0.10213E-02  6025   0.746E-02    0.531E-02
RMM:   3    -0.232015147363E+04   -0.16539E-04   -0.73912E-04  4554   0.237E-02    0.474E-02
RMM:   4    -0.232015146418E+04    0.94487E-05   -0.95228E-05  3091   0.663E-03
  85 F= -.23406874E+04 E0= -.23406874E+04  d E =-.414391E-03  mag=     1.0000
       N       E                     dE             d eps       ncg     rms          rms(c)
DAV:   1    -0.232015035859E+04    0.11150E-02   -0.21345E-01  4464   0.459E-01    0.111E-01
RMM:   2    -0.232015152338E+04   -0.11648E-02   -0.12309E-02  6090   0.827E-02    0.761E-02
RMM:   3    -0.232015158503E+04   -0.61645E-04   -0.10034E-03  4796   0.254E-02    0.928E-02
RMM:   4    -0.232015148971E+04    0.95311E-04   -0.12389E-04  3241   0.805E-03    0.367E-02
RMM:   5    -0.232015147726E+04    0.12458E-04   -0.89285E-05  3910   0.743E-03    0.173E-02
RMM:   6    -0.232015147493E+04    0.23287E-05   -0.16146E-05  2922   0.504E-03
  86 F= -.23406875E+04 E0= -.23406875E+04  d E =-.515617E-03  mag=     1.0000
       N       E                     dE             d eps       ncg     rms          rms(c)
DAV:   1    -0.232015127979E+04    0.19747E-03   -0.10948E-01  4512   0.340E-01    0.905E-02
RMM:   2    -0.232015180509E+04   -0.52531E-03   -0.57250E-03  5998   0.616E-02    0.409E-02
RMM:   3    -0.232015178982E+04    0.15277E-04   -0.35274E-04  4202   0.182E-02    0.253E-02
RMM:   4    -0.232015178176E+04    0.80568E-05   -0.61717E-05  3343   0.660E-03
  87 F= -.23406878E+04 E0= -.23406878E+04  d E =-.360505E-03  mag=     1.0000
       N       E                     dE             d eps       ncg     rms          rms(c)
DAV:   1    -0.232015159355E+04    0.19627E-03   -0.41171E-02  4592   0.209E-01    0.562E-02
RMM:   2    -0.232015179367E+04   -0.20012E-03   -0.21844E-03  6178   0.393E-02    0.269E-02
RMM:   3    -0.232015178977E+04    0.39035E-05   -0.14812E-04  3497   0.118E-02    0.241E-02
RMM:   4    -0.232015179044E+04   -0.67288E-06   -0.22590E-05  2888   0.420E-03
  88 F= -.23406879E+04 E0= -.23406879E+04  d E =-.402309E-03  mag=     1.0000
       N       E                     dE             d eps       ncg     rms          rms(c)
DAV:   1    -0.232015162973E+04    0.16004E-03   -0.61681E-02  4480   0.255E-01    0.646E-02
RMM:   2    -0.232015197226E+04   -0.34254E-03   -0.36516E-03  6121   0.487E-02    0.426E-02
RMM:   3    -0.232015198789E+04   -0.15630E-04   -0.26907E-04  4036   0.152E-02    0.574E-02
RMM:   4    -0.232015195337E+04    0.34527E-04   -0.37742E-05  2948   0.556E-03    0.209E-02
RMM:   5    -0.232015194862E+04    0.47472E-05   -0.20023E-05  2955   0.380E-03
  89 F= -.23406881E+04 E0= -.23406881E+04  d E =-.211970E-03  mag=     1.0000
       N       E                     dE             d eps       ncg     rms          rms(c)
DAV:   1    -0.232015178279E+04    0.17058E-03   -0.30627E-02  4512   0.180E-01    0.449E-02
RMM:   2    -0.232015195011E+04   -0.16732E-03   -0.18084E-03  6173   0.354E-02    0.246E-02
RMM:   3    -0.232015195531E+04   -0.51956E-05   -0.12249E-04  3270   0.110E-02    0.316E-02
RMM:   4    -0.232015194633E+04    0.89796E-05   -0.18467E-05  2905   0.438E-03
  90 F= -.23406881E+04 E0= -.23406881E+04  d E =-.247742E-03  mag=     1.0000
       N       E                     dE             d eps       ncg     rms          rms(c)
DAV:   1    -0.232015179114E+04    0.16417E-03   -0.79706E-02  4464   0.296E-01    0.786E-02
RMM:   2    -0.232015216256E+04   -0.37142E-03   -0.40884E-03  6020   0.542E-02    0.368E-02
RMM:   3    -0.232015215919E+04    0.33647E-05   -0.28145E-04  4137   0.159E-02    0.409E-02
RMM:   4    -0.232015214946E+04    0.97275E-05   -0.38550E-05  2932   0.530E-03
  91 F= -.23406884E+04 E0= -.23406884E+04  d E =-.232804E-03  mag=     1.0000
       N       E                     dE             d eps       ncg     rms          rms(c)
DAV:   1    -0.232015204686E+04    0.11233E-03   -0.18880E-02  4672   0.144E-01    0.406E-02
RMM:   2    -0.232015213510E+04   -0.88239E-04   -0.98482E-04  6024   0.265E-02    0.261E-02
RMM:   3    -0.232015213616E+04   -0.10601E-05   -0.84944E-05  3115   0.988E-03
  92 F= -.23406884E+04 E0= -.23406884E+04  d E =-.234130E-03  mag=     1.0000
       N       E                     dE             d eps       ncg     rms          rms(c)
DAV:   1    -0.232015193856E+04    0.19654E-03   -0.81156E-02  4472   0.300E-01    0.742E-02
RMM:   2    -0.232015232457E+04   -0.38600E-03   -0.40867E-03  6009   0.541E-02    0.496E-02
RMM:   3    -0.232015234393E+04   -0.19361E-04   -0.30081E-04  3942   0.150E-02    0.621E-02
RMM:   4    -0.232015229930E+04    0.44623E-04   -0.49146E-05  3006   0.605E-03    0.237E-02
RMM:   5    -0.232015229521E+04    0.40974E-05   -0.31884E-05  3052   0.512E-03
  93 F= -.23406885E+04 E0= -.23406885E+04  d E =-.152764E-03  mag=     1.0000
       N       E                     dE             d eps       ncg     rms          rms(c)
DAV:   1    -0.232015210808E+04    0.19122E-03   -0.41567E-02  4512   0.215E-01    0.513E-02
RMM:   2    -0.232015229754E+04   -0.18946E-03   -0.20587E-03  6137   0.390E-02    0.234E-02
RMM:   3    -0.232015229568E+04    0.18610E-05   -0.13352E-04  3334   0.116E-02    0.155E-02
RMM:   4    -0.232015229715E+04   -0.14749E-05   -0.21782E-05  2884   0.439E-03
  94 F= -.23406885E+04 E0= -.23406885E+04  d E =-.150225E-03  mag=     1.0000
       N       E                     dE             d eps       ncg     rms          rms(c)
DAV:   1    -0.232015214937E+04    0.14631E-03   -0.68843E-02  4472   0.274E-01    0.665E-02
RMM:   2    -0.232015248725E+04   -0.33789E-03   -0.35628E-03  6001   0.479E-02    0.433E-02
RMM:   3    -0.232015250802E+04   -0.20768E-04   -0.29401E-04  3967   0.154E-02    0.567E-02
RMM:   4    -0.232015246959E+04    0.38433E-04   -0.40935E-05  2946   0.563E-03    0.194E-02
RMM:   5    -0.232015246620E+04    0.33891E-05   -0.25144E-05  3020   0.456E-03
  95 F= -.23406887E+04 E0= -.23406887E+04  d E =-.165439E-03  mag=     1.0000
       N       E                     dE             d eps       ncg     rms          rms(c)
DAV:   1    -0.232015229654E+04    0.17305E-03   -0.40397E-02  4528   0.210E-01    0.508E-02
RMM:   2    -0.232015249018E+04   -0.19365E-03   -0.20912E-03  6084   0.379E-02    0.268E-02
RMM:   3    -0.232015249713E+04   -0.69474E-05   -0.15499E-04  3353   0.120E-02    0.307E-02
RMM:   4    -0.232015248745E+04    0.96775E-05   -0.22924E-05  2891   0.453E-03
  96 F= -.23406887E+04 E0= -.23406887E+04  d E =-.183880E-03  mag=     1.0000
       N       E                     dE             d eps       ncg     rms          rms(c)
DAV:   1    -0.232015244029E+04    0.56841E-04   -0.44226E-02  4504   0.219E-01    0.604E-02
RMM:   2    -0.232015266055E+04   -0.22026E-03   -0.24128E-03  5936   0.387E-02    0.312E-02
RMM:   3    -0.232015267123E+04   -0.10684E-04   -0.18879E-04  3481   0.135E-02    0.395E-02
RMM:   4    -0.232015265489E+04    0.16335E-04   -0.30234E-05  2906   0.510E-03    0.185E-02
RMM:   5    -0.232015265102E+04    0.38760E-05   -0.20256E-05  2891   0.408E-03
  97 F= -.23406889E+04 E0= -.23406889E+04  d E =-.173115E-03  mag=     1.0000
       N       E                     dE             d eps       ncg     rms          rms(c)
DAV:   1    -0.232015259687E+04    0.58025E-04   -0.12291E-02  4640   0.116E-01    0.319E-02
RMM:   2    -0.232015266014E+04   -0.63267E-04   -0.69749E-04  5868   0.221E-02    0.156E-02
RMM:   3    -0.232015266296E+04   -0.28215E-05   -0.55841E-05  2930   0.779E-03
  98 F= -.23406889E+04 E0= -.23406889E+04  d E =-.190054E-03  mag=     1.0000
       N       E                     dE             d eps       ncg     rms          rms(c)
DAV:   1    -0.232015262547E+04    0.34666E-04   -0.33556E-02  4472   0.193E-01    0.516E-02
RMM:   2    -0.232015279726E+04   -0.17179E-03   -0.19036E-03  6018   0.346E-02    0.255E-02
RMM:   3    -0.232015280052E+04   -0.32556E-05   -0.17395E-04  3143   0.107E-02    0.269E-02
RMM:   4    -0.232015279790E+04    0.26172E-05   -0.22290E-05  2884   0.439E-03
  99 F= -.23406890E+04 E0= -.23406890E+04  d E =-.130191E-03  mag=     1.0000
       N       E                     dE             d eps       ncg     rms          rms(c)
DAV:   1    -0.232015274915E+04    0.51371E-04   -0.11070E-02  4768   0.111E-01    0.305E-02
RMM:   2    -0.232015280524E+04   -0.56096E-04   -0.62991E-04  5962   0.200E-02    0.178E-02
RMM:   3    -0.232015280750E+04   -0.22619E-05   -0.52605E-05  2908   0.731E-03
 100 F= -.23406890E+04 E0= -.23406890E+04  d E =-.136981E-03  mag=     1.0000
       N       E                     dE             d eps       ncg     rms          rms(c)
DAV:   1    -0.232015274257E+04    0.62673E-04   -0.39585E-02  4464   0.212E-01    0.570E-02
RMM:   2    -0.232015293947E+04   -0.19690E-03   -0.21515E-03  6021   0.376E-02    0.310E-02
RMM:   3    -0.232015295447E+04   -0.14999E-04   -0.20253E-04  3351   0.113E-02    0.466E-02
RMM:   4    -0.232015293140E+04    0.23073E-04   -0.25977E-05  2910   0.514E-03    0.157E-02
RMM:   5    -0.232015292718E+04    0.42147E-05   -0.19389E-05  2893   0.393E-03
 101 F= -.23406891E+04 E0= -.23406891E+04  d E =-.107220E-03  mag=     1.0000
       N       E                     dE             d eps       ncg     rms          rms(c)
DAV:   1    -0.232015291780E+04    0.13591E-04   -0.26592E-03  5096   0.551E-02    0.154E-02
RMM:   2    -0.232015293166E+04   -0.13860E-04   -0.15295E-04  4684   0.111E-02    0.761E-03
RMM:   3    -0.232015293173E+04   -0.63621E-07   -0.14255E-05  2755   0.507E-03
 102 F= -.23406891E+04 E0= -.23406891E+04  d E =-.108492E-03  mag=     1.0000
       N       E                     dE             d eps       ncg     rms          rms(c)
DAV:   1    -0.232015284987E+04    0.81792E-04   -0.31075E-02  4480   0.189E-01    0.511E-02
RMM:   2    -0.232015303044E+04   -0.18057E-03   -0.19143E-03  6019   0.349E-02    0.339E-02
RMM:   3    -0.232015304670E+04   -0.16258E-04   -0.16938E-04  3367   0.112E-02    0.486E-02
RMM:   4    -0.232015301874E+04    0.27958E-04   -0.24721E-05  2910   0.490E-03    0.133E-02
RMM:   5    -0.232015301647E+04    0.22696E-05   -0.15417E-05  2898   0.362E-03
 103 F= -.23406892E+04 E0= -.23406892E+04  d E =-.925329E-04  mag=     1.0000
       N       E                     dE             d eps       ncg     rms          rms(c)
DAV:   1    -0.232015300554E+04    0.13196E-04   -0.13288E-03  5184   0.394E-02    0.111E-02
RMM:   2    -0.232015301359E+04   -0.80472E-05   -0.88919E-05  4079   0.849E-03
 104 F= -.23406892E+04 E0= -.23406892E+04  d E =-.913013E-04  mag=     1.0000
       N       E                     dE             d eps       ncg     rms          rms(c)
DAV:   1    -0.232015295859E+04    0.46951E-04   -0.25969E-02  4440   0.171E-01    0.472E-02
RMM:   2    -0.232015312890E+04   -0.17030E-03   -0.16910E-03  6217   0.331E-02    0.435E-02
RMM:   3    -0.232015313272E+04   -0.38235E-05   -0.18062E-04  3317   0.118E-02    0.433E-02
RMM:   4    -0.232015310996E+04    0.22762E-04   -0.20161E-05  2885   0.479E-03    0.120E-02
[...]
DAV:   1    -0.232015396329E+04    0.35822E-04   -0.88749E-03  4448   0.990E-02    0.289E-02
RMM:   2    -0.232015402651E+04   -0.63218E-04   -0.69962E-04  5956   0.195E-02    0.171E-02
RMM:   3    -0.232015402821E+04   -0.17027E-05   -0.67723E-05  2893   0.678E-03
 122 F= -.23406899E+04 E0= -.23406899E+04  d E =-.714043E-04  mag=     1.0000
       N       E                     dE             d eps       ncg     rms          rms(c)
DAV:   1    -0.232015399061E+04    0.35894E-04   -0.14002E-02  4432   0.126E-01    0.332E-02
RMM:   2    -0.232015411046E+04   -0.11984E-03   -0.12180E-03  6091   0.256E-02    0.292E-02
RMM:   3    -0.232015411481E+04   -0.43485E-05   -0.10736E-04  3005   0.814E-03    0.291E-02
RMM:   4    -0.232015410455E+04    0.10261E-04   -0.13477E-05  2850   0.346E-03    0.105E-02
RMM:   5    -0.232015410301E+04    0.15319E-05   -0.93514E-06  2849   0.267E-03
 123 F= -.23406899E+04 E0= -.23406899E+04  d E =-.445580E-04  mag=     1.0000
       N       E                     dE             d eps       ncg     rms          rms(c)
DAV:   1    -0.232015405910E+04    0.45445E-04   -0.10056E-02  4464   0.106E-01    0.262E-02
RMM:   2    -0.232015413941E+04   -0.80307E-04   -0.86379E-04  6065   0.219E-02    0.122E-02
RMM:   3    -0.232015414174E+04   -0.23273E-05   -0.69220E-05  2937   0.647E-03
 124 F= -.23406899E+04 E0= -.23406899E+04  d E =-.576697E-04  mag=     1.0000
       N       E                     dE             d eps       ncg     rms          rms(c)
DAV:   1    -0.232015409411E+04    0.45293E-04   -0.17933E-02  4432   0.143E-01    0.404E-02
RMM:   2    -0.232015423937E+04   -0.14525E-03   -0.14828E-03  6109   0.290E-02    0.317E-02
RMM:   3    -0.232015424546E+04   -0.60895E-05   -0.11706E-04  3070   0.845E-03    0.350E-02
RMM:   4    -0.232015423013E+04    0.15333E-04   -0.18483E-05  2866   0.406E-03    0.113E-02
RMM:   5    -0.232015422846E+04    0.16658E-05   -0.10739E-05  2864   0.303E-03
 125 F= -.23406900E+04 E0= -.23406900E+04  d E =-.738769E-04  mag=     1.0000
       N       E                     dE             d eps       ncg     rms          rms(c)
DAV:   1    -0.232015420950E+04    0.20628E-04   -0.39270E-03  4752   0.668E-02    0.187E-02
RMM:   2    -0.232015423953E+04   -0.30031E-04   -0.32874E-04  5506   0.144E-02    0.823E-03
RMM:   3    -0.232015424031E+04   -0.78214E-06   -0.27613E-05  2833   0.500E-03
 126 F= -.23406900E+04 E0= -.23406900E+04  d E =-.796704E-04  mag=     1.0000
       N       E                     dE             d eps       ncg     rms          rms(c)
DAV:   1    -0.232015420249E+04    0.37037E-04   -0.14439E-02  4464   0.125E-01    0.344E-02
RMM:   2    -0.232015431632E+04   -0.11383E-03   -0.10838E-03  6007   0.240E-02    0.384E-02
RMM:   3    -0.232015430824E+04    0.80814E-05   -0.97518E-05  3022   0.804E-03
 127 F= -.23406901E+04 E0= -.23406901E+04  d E =-.595606E-04  mag=     1.0000
       N       E                     dE             d eps       ncg     rms          rms(c)
DAV:   1    -0.232015429340E+04    0.22923E-04   -0.17084E-03  4888   0.436E-02    0.156E-02
RMM:   2    -0.232015430422E+04   -0.10824E-04   -0.13454E-04  4031   0.859E-03    0.103E-02
RMM:   3    -0.232015430386E+04    0.35792E-06   -0.14026E-05  2792   0.410E-03
 128 F= -.23406901E+04 E0= -.23406901E+04  d E =-.522720E-04  mag=     1.0000
       N       E                     dE             d eps       ncg     rms          rms(c)
DAV:   1    -0.232015428002E+04    0.24207E-04   -0.12624E-02  4432   0.117E-01    0.315E-02
RMM:   2    -0.232015436964E+04   -0.89626E-04   -0.92220E-04  5969   0.222E-02    0.262E-02
RMM:   3    -0.232015437277E+04   -0.31319E-05   -0.82796E-05  2967   0.831E-03
 129 F= -.23406901E+04 E0= -.23406901E+04  d E =-.578128E-04  mag=     1.0000
       N       E                     dE             d eps       ncg     rms          rms(c)
DAV:   1    -0.232015435822E+04    0.11424E-04   -0.18516E-03  4912   0.453E-02    0.154E-02
RMM:   2    -0.232015437004E+04   -0.11824E-04   -0.14425E-04  4060   0.892E-03    0.971E-03
RMM:   3    -0.232015436983E+04    0.21450E-06   -0.14246E-05  2831   0.419E-03
 130 F= -.23406901E+04 E0= -.23406901E+04  d E =-.505973E-04  mag=     1.0000
       N       E                     dE             d eps       ncg     rms          rms(c)
DAV:   1    -0.232015435587E+04    0.14171E-04   -0.86310E-03  4440   0.984E-02    0.276E-02
RMM:   2    -0.232015442521E+04   -0.69342E-04   -0.67783E-04  6011   0.194E-02    0.281E-02
RMM:   3    -0.232015442363E+04    0.15803E-05   -0.64913E-05  2945   0.729E-03
 131 F= -.23406902E+04 E0= -.23406902E+04  d E =-.474882E-04  mag=     1.0000
       N       E                     dE             d eps       ncg     rms          rms(c)
DAV:   1    -0.232015441446E+04    0.10756E-04   -0.10471E-03  4936   0.347E-02    0.127E-02
RMM:   2    -0.232015442146E+04   -0.70070E-05   -0.87986E-05  3775   0.718E-03
 132 F= -.23406902E+04 E0= -.23406902E+04  d E =-.430900E-04  mag=     1.0000
       N       E                     dE             d eps       ncg     rms          rms(c)
DAV:   1    -0.232015439937E+04    0.15091E-04   -0.70376E-03  4432   0.902E-02    0.263E-02
RMM:   2    -0.232015446416E+04   -0.64799E-04   -0.60678E-04  5887   0.193E-02    0.312E-02
RMM:   3    -0.232015445845E+04    0.57127E-05   -0.56531E-05  2962   0.743E-03
 133 F= -.23406902E+04 E0= -.23406902E+04  d E =-.411192E-04  mag=     1.0000
       N       E                     dE             d eps       ncg     rms          rms(c)
DAV:   1    -0.232015444708E+04    0.17083E-04   -0.79371E-04  5152   0.308E-02    0.120E-02
RMM:   2    -0.232015445251E+04   -0.54287E-05   -0.69681E-05  3620   0.659E-03
 134 F= -.23406902E+04 E0= -.23406902E+04  d E =-.365813E-04  mag=     1.0000
       N       E                     dE             d eps       ncg     rms          rms(c)
DAV:   1    -0.232015441429E+04    0.32793E-04   -0.83958E-03  4432   0.980E-02    0.263E-02
RMM:   2    -0.232015448086E+04   -0.66572E-04   -0.69235E-04  5887   0.204E-02    0.207E-02
RMM:   3    -0.232015448536E+04   -0.44954E-05   -0.74801E-05  2930   0.818E-03
 135 F= -.23406902E+04 E0= -.23406902E+04  d E =-.369496E-04  mag=     1.0000
       N       E                     dE             d eps       ncg     rms          rms(c)
DAV:   1    -0.232015447002E+04    0.10844E-04   -0.10346E-03  4920   0.349E-02    0.125E-02
RMM:   2    -0.232015447795E+04   -0.79348E-05   -0.91263E-05  3761   0.735E-03
 136 F= -.23406902E+04 E0= -.23406902E+04  d E =-.309944E-04  mag=     1.0000
       N       E                     dE             d eps       ncg     rms          rms(c)
DAV:   1    -0.232015446206E+04    0.79562E-05   -0.70984E-03  4432   0.897E-02    0.242E-02
RMM:   2    -0.232015452069E+04   -0.58633E-04   -0.56674E-04  5716   0.186E-02    0.266E-02
RMM:   3    -0.232015451894E+04    0.17522E-05   -0.58447E-05  2943   0.715E-03
 137 F= -.23406903E+04 E0= -.23406903E+04  d E =-.371315E-04  mag=     1.0000
       N       E                     dE             d eps       ncg     rms          rms(c)
DAV:   1    -0.232015449727E+04    0.23426E-04   -0.36854E-03  4464   0.647E-02    0.186E-02
RMM:   2    -0.232015452322E+04   -0.25954E-04   -0.28829E-04  5099   0.130E-02    0.132E-02
RMM:   3    -0.232015452576E+04   -0.25420E-05   -0.33602E-05  2847   0.515E-03
 138 F= -.23406903E+04 E0= -.23406903E+04  d E =-.411631E-04  mag=     1.0000
       N       E                     dE             d eps       ncg     rms          rms(c)
DAV:   1    -0.232015450114E+04    0.22080E-04   -0.87223E-03  4432   0.991E-02    0.258E-02
RMM:   2    -0.232015456243E+04   -0.61286E-04   -0.66593E-04  5930   0.193E-02    0.140E-02
RMM:   3    -0.232015456266E+04   -0.23461E-06   -0.58483E-05  2886   0.607E-03
 139 F= -.23406903E+04 E0= -.23406903E+04  d E =-.314472E-04  mag=     1.0000
       N       E                     dE             d eps       ncg     rms          rms(c)
DAV:   1    -0.232015455320E+04    0.92293E-05   -0.20781E-03  4744   0.484E-02    0.136E-02
RMM:   2    -0.232015456833E+04   -0.15135E-04   -0.16104E-04  4277   0.969E-03    0.110E-02
RMM:   3    -0.232015456979E+04   -0.14523E-05   -0.19694E-05  2761   0.456E-03
 140 F= -.23406903E+04 E0= -.23406903E+04  d E =-.358833E-04  mag=     1.0000
       N       E                     dE             d eps       ncg     rms          rms(c)
DAV:   1    -0.232015452478E+04    0.43553E-04   -0.94378E-03  4432   0.105E-01    0.256E-02
RMM:   2    -0.232015459818E+04   -0.73405E-04   -0.78422E-04  6074   0.211E-02    0.146E-02
RMM:   3    -0.232015459909E+04   -0.90082E-06   -0.52837E-05  2953   0.620E-03
 141 F= -.23406903E+04 E0= -.23406903E+04  d E =-.350512E-04  mag=     1.0000
       N       E                     dE             d eps       ncg     rms          rms(c)
DAV:   1    -0.232015456382E+04    0.34361E-04   -0.45378E-03  4480   0.729E-02    0.204E-02
RMM:   2    -0.232015460110E+04   -0.37279E-04   -0.38322E-04  5648   0.149E-02    0.191E-02
RMM:   3    -0.232015460174E+04   -0.64139E-06   -0.38612E-05  2879   0.556E-03
 142 F= -.23406903E+04 E0= -.23406903E+04  d E =-.417191E-04  mag=     1.0000
       N       E                     dE             d eps       ncg     rms          rms(c)
DAV:   1    -0.232015454009E+04    0.61015E-04   -0.12153E-02  4432   0.118E-01    0.295E-02
RMM:   2    -0.232015462334E+04   -0.83249E-04   -0.90266E-04  6037   0.227E-02    0.161E-02
RMM:   3    -0.232015462339E+04   -0.59168E-07   -0.78582E-05  2946   0.694E-03
 143 F= -.23406904E+04 E0= -.23406904E+04  d E =-.351768E-04  mag=     1.0000
       N       E                     dE             d eps       ncg     rms          rms(c)
DAV:   1    -0.232015458537E+04    0.37962E-04   -0.51507E-03  4576   0.771E-02    0.250E-02
RMM:   2    -0.232015464435E+04   -0.58978E-04   -0.41684E-04  5678   0.151E-02    0.456E-02
RMM:   3    -0.232015461979E+04    0.24565E-04   -0.43082E-05  2922   0.602E-03    0.131E-02
RMM:   4    -0.232015461753E+04    0.22594E-05   -0.67201E-06  2806   0.243E-03
 144 F= -.23406904E+04 E0= -.23406904E+04  d E =-.381738E-04  mag=     1.0000
       N       E                     dE             d eps       ncg     rms          rms(c)
DAV:   1    -0.232015456987E+04    0.49921E-04   -0.11372E-02  4432   0.113E-01    0.268E-02
RMM:   2    -0.232015464511E+04   -0.75239E-04   -0.80632E-04  5967   0.210E-02    0.163E-02
RMM:   3    -0.232015464643E+04   -0.13203E-05   -0.68195E-05  2949   0.719E-03
 145 F= -.23406904E+04 E0= -.23406904E+04  d E =-.375548E-04  mag=     1.0000
       N       E                     dE             d eps       ncg     rms          rms(c)
DAV:   1    -0.232015462774E+04    0.17370E-04   -0.23784E-03  4792   0.520E-02    0.156E-02
RMM:   2    -0.232015464619E+04   -0.18450E-04   -0.17654E-04  4399   0.101E-02    0.184E-02
RMM:   3    -0.232015464445E+04    0.17369E-05   -0.20652E-05  2789   0.497E-03
 146 F= -.23406904E+04 E0= -.23406904E+04  d E =-.395486E-04  mag=     1.0000
       N       E                     dE             d eps       ncg     rms          rms(c)
DAV:   1    -0.232015459899E+04    0.47196E-04   -0.12564E-02  4432   0.119E-01    0.305E-02
RMM:   2    -0.232015468171E+04   -0.82720E-04   -0.89894E-04  6006   0.227E-02    0.160E-02
RMM:   3    -0.232015468132E+04    0.39476E-06   -0.67402E-05  2938   0.734E-03
 147 F= -.23406905E+04 E0= -.23406905E+04  d E =-.402010E-04  mag=     1.0000
       N       E                     dE             d eps       ncg     rms          rms(c)
DAV:   1    -0.232015467517E+04    0.65435E-05   -0.96738E-04  4984   0.337E-02    0.163E-02
RMM:   2    -0.232015469722E+04   -0.22056E-04   -0.97359E-05  3745   0.719E-03    0.380E-02
RMM:   3    -0.232015467979E+04    0.17437E-04   -0.16644E-05  2680   0.422E-03    0.745E-03
RMM:   4    -0.232015467887E+04    0.92041E-06   -0.34699E-06  2550   0.169E-03
 148 F= -.23406905E+04 E0= -.23406905E+04  d E =-.386945E-04  mag=     1.0000
       N       E                     dE             d eps       ncg     rms          rms(c)
DAV:   1    -0.232015463741E+04    0.42377E-04   -0.94490E-03  4432   0.103E-01    0.255E-02
RMM:   2    -0.232015470492E+04   -0.67506E-04   -0.73088E-04  5960   0.196E-02    0.123E-02
RMM:   3    -0.232015470512E+04   -0.20151E-06   -0.56766E-05  2911   0.688E-03
 149 F= -.23406905E+04 E0= -.23406905E+04  d E =-.314341E-04  mag=     1.0000
       N       E                     dE             d eps       ncg     rms          rms(c)
DAV:   1    -0.232015469532E+04    0.95928E-05   -0.12999E-03  4696   0.384E-02    0.119E-02
RMM:   2    -0.232015470548E+04   -0.10159E-04   -0.10614E-04  3876   0.781E-03    0.114E-02
RMM:   3    -0.232015470559E+04   -0.11330E-06   -0.13576E-05  2643   0.418E-03
 150 F= -.23406905E+04 E0= -.23406905E+04  d E =-.338571E-04  mag=     1.0000
       N       E                     dE             d eps       ncg     rms          rms(c)
DAV:   1    -0.232015466247E+04    0.43010E-04   -0.85503E-03  4432   0.988E-02    0.259E-02
RMM:   2    -0.232015472598E+04   -0.63513E-04   -0.68710E-04  6033   0.194E-02    0.137E-02
RMM:   3    -0.232015472653E+04   -0.54567E-06   -0.54270E-05  2898   0.662E-03
 151 F= -.23406905E+04 E0= -.23406905E+04  d E =-.333223E-04  mag=     1.0000
       N       E                     dE             d eps       ncg     rms          rms(c)
DAV:   1    -0.232015471630E+04    0.96869E-05   -0.85995E-04  4920   0.318E-02    0.142E-02
RMM:   2    -0.232015473215E+04   -0.15854E-04   -0.84882E-05  3687   0.676E-03    0.295E-02
RMM:   3    -0.232015472175E+04    0.10397E-04   -0.12837E-05  2600   0.390E-03    0.713E-03
RMM:   4    -0.232015472086E+04    0.89948E-06   -0.26508E-06  2468   0.158E-03
 152 F= -.23406905E+04 E0= -.23406905E+04  d E =-.316192E-04  mag=     1.0000
       N       E                     dE             d eps       ncg     rms          rms(c)
DAV:   1    -0.232015465313E+04    0.68628E-04   -0.97737E-03  4432   0.105E-01    0.264E-02
RMM:   2    -0.232015472811E+04   -0.74980E-04   -0.81477E-04  5948   0.201E-02    0.130E-02
RMM:   3    -0.232015472916E+04   -0.10553E-05   -0.64022E-05  2934   0.739E-03
 153 F= -.23406906E+04 E0= -.23406906E+04  d E =-.258886E-04  mag=     1.0000
       N       E                     dE             d eps       ncg     rms          rms(c)
DAV:   1    -0.232015472197E+04    0.61397E-05   -0.44687E-04  5000   0.229E-02    0.123E-02
RMM:   2    -0.232015473482E+04   -0.12856E-04   -0.55494E-05  3217   0.521E-03    0.291E-02
RMM:   3    -0.232015472455E+04    0.10277E-04   -0.10058E-05  2394   0.343E-03    0.568E-03
RMM:   4    -0.232015472399E+04    0.55454E-06   -0.21352E-06  2182   0.133E-03
 154 F= -.23406906E+04 E0= -.23406906E+04  d E =-.245195E-04  mag=     1.0000
       N       E                     dE             d eps       ncg     rms          rms(c)
DAV:   1    -0.232015466069E+04    0.63858E-04   -0.10549E-02  4432   0.109E-01    0.287E-02
RMM:   2    -0.232015474013E+04   -0.79441E-04   -0.86775E-04  5985   0.210E-02    0.138E-02
RMM:   3    -0.232015474128E+04   -0.11531E-05   -0.67971E-05  2949   0.733E-03
 155 F= -.23406906E+04 E0= -.23406906E+04  d E =-.355176E-04  mag=     1.0000
       N       E                     dE             d eps       ncg     rms          rms(c)
DAV:   1    -0.232015473093E+04    0.91974E-05   -0.70190E-04  5000   0.287E-02    0.130E-02
RMM:   2    -0.232015474335E+04   -0.12421E-04   -0.71498E-05  3483   0.622E-03    0.256E-02
RMM:   3    -0.232015473554E+04    0.78131E-05   -0.10659E-05  2440   0.372E-03
 156 F= -.23406906E+04 E0= -.23406906E+04  d E =-.345155E-04  mag=     1.0000
       N       E                     dE             d eps       ncg     rms          rms(c)
DAV:   1    -0.232015467722E+04    0.66135E-04   -0.87484E-03  4432   0.994E-02    0.255E-02
RMM:   2    -0.232015474498E+04   -0.67763E-04   -0.73314E-04  6061   0.197E-02    0.136E-02
RMM:   3    -0.232015474568E+04   -0.69491E-06   -0.56067E-05  2927   0.633E-03
 157 F= -.23406906E+04 E0= -.23406906E+04  d E =-.216888E-04  mag=     1.0000
       N       E                     dE             d eps       ncg     rms          rms(c)
DAV:   1    -0.232015474359E+04    0.13963E-05   -0.57827E-05  5280   0.883E-03    0.109E-02
RMM:   2    -0.232015475088E+04   -0.72893E-05   -0.15082E-05  2522   0.279E-03
 158 F= -.23406906E+04 E0= -.23406906E+04  d E =-.277889E-04  mag=     1.0000
       N       E                     dE             d eps       ncg     rms          rms(c)
DAV:   1    -0.232015469753E+04    0.46054E-04   -0.62884E-03  4432   0.850E-02    0.221E-02
RMM:   2    -0.232015475306E+04   -0.55533E-04   -0.59049E-04  5976   0.179E-02    0.140E-02
RMM:   3    -0.232015475465E+04   -0.15865E-05   -0.46936E-05  2896   0.626E-03
 159 F= -.23406906E+04 E0= -.23406906E+04  d E =-.137378E-04  mag=     1.0000
       N       E                     dE             d eps       ncg     rms          rms(c)
DAV:   1    -0.232015474299E+04    0.10073E-04   -0.77235E-04  4712   0.302E-02    0.115E-02
RMM:   2    -0.232015475164E+04   -0.86526E-05   -0.78143E-05  3645   0.652E-03
 160 F= -.23406906E+04 E0= -.23406906E+04  d E =-.142601E-04  mag=     1.0000
       N       E                     dE             d eps       ncg     rms          rms(c)
DAV:   1    -0.232015473085E+04    0.12141E-04   -0.43498E-03  4432   0.706E-02    0.202E-02
RMM:   2    -0.232015476789E+04   -0.37044E-04   -0.36470E-04  5423   0.150E-02    0.208E-02
RMM:   3    -0.232015476653E+04    0.13676E-05   -0.34362E-05  2882   0.629E-03
 161 F= -.23406907E+04 E0= -.23406907E+04  d E =-.229456E-04  mag=     1.0000
       N       E                     dE             d eps       ncg     rms          rms(c)
DAV:   1    -0.232015475607E+04    0.11824E-04   -0.60416E-04  5032   0.266E-02    0.984E-03
RMM:   2    -0.232015476022E+04   -0.41518E-05   -0.52465E-05  3290   0.565E-03
 162 F= -.23406907E+04 E0= -.23406907E+04  d E =-.196992E-04  mag=     1.0000
       N       E                     dE             d eps       ncg     rms          rms(c)
DAV:   1    -0.232015473859E+04    0.17479E-04   -0.37775E-03  4432   0.655E-02    0.176E-02
RMM:   2    -0.232015477002E+04   -0.31428E-04   -0.32145E-04  5188   0.141E-02    0.165E-02
RMM:   3    -0.232015477125E+04   -0.12315E-05   -0.34859E-05  2800   0.602E-03
 163 F= -.23406907E+04 E0= -.23406907E+04  d E =-.176284E-04  mag=     1.0000
       N       E                     dE             d eps       ncg     rms          rms(c)
DAV:   1    -0.232015476696E+04    0.30572E-05   -0.98300E-05  5208   0.112E-02    0.640E-03
RMM:   2    -0.232015476753E+04   -0.56656E-06   -0.99444E-06  2400   0.255E-03
 164 F= -.23406907E+04 E0= -.23406907E+04  d E =-.149760E-04  mag=     1.0000
       N       E                     dE             d eps       ncg     rms          rms(c)
DAV:   1    -0.232015476555E+04    0.14083E-05   -0.20928E-03  4432   0.493E-02    0.156E-02
RMM:   2    -0.232015478589E+04   -0.20340E-04   -0.17489E-04  4519   0.104E-02    0.221E-02
RMM:   3    -0.232015478089E+04    0.50013E-05   -0.15930E-05  2491   0.508E-03
 165 F= -.23406907E+04 E0= -.23406907E+04  d E =-.189526E-04  mag=     1.0000
       N       E                     dE             d eps       ncg     rms          rms(c)
DAV:   1    -0.232015477632E+04    0.95754E-05   -0.34328E-04  4848   0.201E-02    0.764E-03
RMM:   2    -0.232015477842E+04   -0.20988E-05   -0.28036E-05  2741   0.449E-03
 166 F= -.23406907E+04 E0= -.23406907E+04  d E =-.187738E-04  mag=     1.0000
       N       E                     dE             d eps       ncg     rms          rms(c)
DAV:   1    -0.232015477591E+04    0.41389E-06   -0.11782E-03  4368   0.373E-02    0.121E-02
RMM:   2    -0.232015478769E+04   -0.11783E-04   -0.10092E-04  3934   0.859E-03    0.177E-02
RMM:   3    -0.232015478460E+04    0.30900E-05   -0.93671E-06  2402   0.430E-03
 167 F= -.23406907E+04 E0= -.23406907E+04  d E =-.105527E-04  mag=     1.0000
