       N       E                     dE             d eps       ncg     rms          rms(c)
DAV:   1     0.124332902845E+05    0.12433E+05   -0.83990E+05  4640   0.142E+03
DAV:   2    -0.125182333878E+04   -0.13685E+05   -0.13146E+05  5040   0.322E+02
DAV:   3    -0.249226444434E+04   -0.12404E+04   -0.12298E+04  5440   0.104E+02
DAV:   4    -0.252034900246E+04   -0.28085E+02   -0.27905E+02  5600   0.195E+01
DAV:   5    -0.252126849801E+04   -0.91950E+00   -0.91786E+00  5920   0.294E+00    0.170E+02
RMM:   6    -0.149066590048E+04    0.10306E+04   -0.19062E+03  4508   0.377E+01    0.730E+01
RMM:   7    -0.167170689042E+04   -0.18104E+03   -0.29634E+02  5132   0.144E+01    0.561E+01
RMM:   8    -0.170602756921E+04   -0.34321E+02   -0.74618E+01  5159   0.819E+00    0.453E+01
RMM:   9    -0.177164818666E+04   -0.65621E+02   -0.62885E+01  4980   0.725E+00    0.351E+01
RMM:  10    -0.190433002209E+04   -0.13268E+03   -0.59284E+01  5372   0.733E+00    0.342E+01
RMM:  11    -0.195208973859E+04   -0.47760E+02   -0.24253E+01  5476   0.417E+00    0.231E+01
RMM:  12    -0.204616027970E+04   -0.94071E+02   -0.36036E+01  4747   0.449E+00    0.153E+01
RMM:  13    -0.214811992154E+04   -0.10196E+03   -0.58966E+01  4741   0.564E+00    0.133E+01
RMM:  14    -0.224254126047E+04   -0.94421E+02   -0.72883E+01  4697   0.608E+00    0.929E+00
RMM:  15    -0.228611208667E+04   -0.43571E+02   -0.34785E+01  4802   0.445E+00    0.600E+00
RMM:  16    -0.230418397901E+04   -0.18072E+02   -0.16678E+01  4791   0.298E+00    0.346E+00
RMM:  17    -0.231238094326E+04   -0.81970E+01   -0.69975E+00  4718   0.189E+00    0.168E+00
RMM:  18    -0.231433652675E+04   -0.19556E+01   -0.15876E+00  5061   0.101E+00    0.104E+00
RMM:  19    -0.231516547906E+04   -0.82895E+00   -0.50044E-01  4895   0.430E-01    0.500E-01
RMM:  20    -0.231529026169E+04   -0.12478E+00   -0.85803E-02  4771   0.271E-01    0.279E-01
RMM:  21    -0.231532073628E+04   -0.30475E-01   -0.18012E-02  4952   0.101E-01    0.211E-01
RMM:  22    -0.231534416659E+04   -0.23430E-01   -0.90725E-03  4519   0.802E-02    0.114E-01
RMM:  23    -0.231536032656E+04   -0.16160E-01   -0.50345E-03  4617   0.567E-02    0.808E-02
RMM:  24    -0.231537099390E+04   -0.10667E-01   -0.31687E-03  4591   0.461E-02    0.517E-02
RMM:  25    -0.231537714819E+04   -0.61543E-02   -0.20718E-03  4611   0.360E-02    0.394E-02
RMM:  26    -0.231538025728E+04   -0.31091E-02   -0.10659E-03  4355   0.272E-02    0.266E-02
RMM:  27    -0.231538128873E+04   -0.10315E-02   -0.35650E-04  4258   0.151E-02    0.183E-02
RMM:  28    -0.231538171452E+04   -0.42579E-03   -0.10961E-04  3811   0.952E-03    0.752E-03
RMM:  29    -0.231538194435E+04   -0.22983E-03   -0.50580E-05  3554   0.661E-03    0.447E-03
RMM:  30    -0.231538206922E+04   -0.12486E-03   -0.27716E-05  3282   0.518E-03    0.239E-03
RMM:  31    -0.231538212135E+04   -0.52131E-04   -0.13187E-05  2988   0.393E-03    0.139E-03
RMM:  32    -0.231538213708E+04   -0.15731E-04   -0.61473E-06  2865   0.284E-03    0.886E-04
RMM:  33    -0.231538214059E+04   -0.35146E-05   -0.28457E-06  2452   0.204E-03
   1 F= -.23362548E+04 E0= -.23362548E+04  d E =-.136010E-12  mag=     6.0000
       N       E                     dE             d eps       ncg     rms          rms(c)
DAV:   1    -0.231535801362E+04    0.24123E-01   -0.20520E+00  4480   0.556E-01    0.357E-01
RMM:   2    -0.231535806849E+04   -0.54868E-04   -0.13857E-02  3930   0.460E-02    0.201E-01
RMM:   3    -0.231535751750E+04    0.55098E-03   -0.14122E-03  4096   0.202E-02    0.106E-01
RMM:   4    -0.231535766237E+04   -0.14486E-03   -0.79493E-04  3899   0.114E-02    0.144E-01
RMM:   5    -0.231535745998E+04    0.20238E-03   -0.20870E-04  3127   0.752E-03    0.225E-02
RMM:   6    -0.231535745742E+04    0.25674E-05   -0.32590E-05  2724   0.304E-03
   2 F= -.23362308E+04 E0= -.23362308E+04  d E =-.416132E-11  mag=     6.0000
       N       E                     dE             d eps       ncg     rms          rms(c)
DAV:   1    -0.231536383668E+04   -0.63767E-02   -0.81851E+00  4480   0.117E+00    0.714E-01
RMM:   2    -0.231536309619E+04    0.74049E-03   -0.45528E-02  4144   0.831E-02    0.400E-01
RMM:   3    -0.231536084030E+04    0.22559E-02   -0.46791E-03  4656   0.353E-02    0.199E-01
RMM:   4    -0.231536127661E+04   -0.43632E-03   -0.28451E-03  4420   0.210E-02    0.248E-01
RMM:   5    -0.231536064562E+04    0.63099E-03   -0.64900E-04  3508   0.127E-02    0.354E-02
RMM:   6    -0.231536062581E+04    0.19810E-04   -0.85907E-05  3072   0.441E-03    0.253E-02
RMM:   7    -0.231536062725E+04   -0.14414E-05   -0.39404E-05  2913   0.362E-03
   3 F= -.23362327E+04 E0= -.23362327E+04  d E =-.161318E-12  mag=     6.0000
       N       E                     dE             d eps       ncg     rms          rms(c)
DAV:   1    -0.231537739611E+04   -0.16770E-01   -0.39456E+00  4480   0.765E-01    0.491E-01
RMM:   2    -0.231537810729E+04   -0.71118E-03   -0.26855E-02  4092   0.637E-02    0.303E-01
RMM:   3    -0.231537865314E+04   -0.54585E-03   -0.45311E-03  5020   0.297E-02    0.419E-01
RMM:   4    -0.231537692076E+04    0.17324E-02   -0.23736E-03  4170   0.187E-02    0.828E-02
RMM:   5    -0.231537695127E+04   -0.30508E-04   -0.35775E-04  3235   0.804E-03    0.493E-02
RMM:   6    -0.231537694638E+04    0.48911E-05   -0.87574E-05  2953   0.515E-03
   4 F= -.23362508E+04 E0= -.23362508E+04  d E =-.191646E-11  mag=     6.0000
       N       E                     dE             d eps       ncg     rms          rms(c)
DAV:   1    -0.231537715865E+04   -0.20738E-03   -0.71753E+00  4480   0.116E+00    0.581E-01
RMM:   2    -0.231537785136E+04   -0.69271E-03   -0.24080E-02  4225   0.650E-02    0.383E-01
RMM:   3    -0.231537957999E+04   -0.17286E-02   -0.75357E-03  5430   0.334E-02    0.567E-01
RMM:   4    -0.231537665711E+04    0.29229E-02   -0.30658E-03  4467   0.225E-02    0.104E-01
RMM:   5    -0.231537672925E+04   -0.72138E-04   -0.69475E-04  3518   0.962E-03    0.785E-02
RMM:   6    -0.231537669554E+04    0.33709E-04   -0.14334E-04  3007   0.587E-03    0.507E-02
RMM:   7    -0.231537667420E+04    0.21342E-04   -0.35837E-05  2921   0.353E-03    0.126E-02
RMM:   8    -0.231537667570E+04   -0.14981E-05   -0.10366E-05  2850   0.248E-03
   5 F= -.23362482E+04 E0= -.23362482E+04  d E =-.325760E-13  mag=     6.0000
       N       E                     dE             d eps       ncg     rms          rms(c)
DAV:   1    -0.231537063824E+04    0.60360E-02   -0.38909E+00  4800   0.827E-01    0.485E-01
RMM:   2    -0.231537017498E+04    0.46326E-03   -0.22661E-02  4368   0.644E-02    0.307E-01
RMM:   3    -0.231537047926E+04   -0.30428E-03   -0.52034E-03  4971   0.339E-02    0.409E-01
RMM:   4    -0.231536882333E+04    0.16559E-02   -0.22386E-03  4316   0.197E-02    0.102E-01
RMM:   5    -0.231536873852E+04    0.84805E-04   -0.41378E-04  3590   0.872E-03    0.360E-02
RMM:   6    -0.231536874939E+04   -0.10862E-04   -0.66978E-05  3021   0.569E-03    0.429E-02
RMM:   7    -0.231536873776E+04    0.11629E-04   -0.28122E-05  2893   0.332E-03    0.169E-02
RMM:   8    -0.231536874563E+04   -0.78688E-05   -0.13011E-05  2859   0.247E-03
   6 F= -.23362407E+04 E0= -.23362407E+04  d E =-.222376E-11  mag=     6.0000
       N       E                     dE             d eps       ncg     rms          rms(c)
DAV:   1    -0.231536448435E+04    0.42534E-02   -0.82206E+00  4480   0.119E+00    0.697E-01
RMM:   2    -0.231536250443E+04    0.19799E-02   -0.56529E-02  4544   0.892E-02    0.420E-01
RMM:   3    -0.231536095168E+04    0.15528E-02   -0.90485E-03  5401   0.418E-02    0.423E-01
RMM:   4    -0.231535937289E+04    0.15788E-02   -0.43426E-03  4885   0.252E-02    0.235E-01
RMM:   5    -0.231535873689E+04    0.63600E-03   -0.93997E-04  4255   0.138E-02    0.541E-02
RMM:   6    -0.231535871639E+04    0.20499E-04   -0.13555E-04  3142   0.759E-03    0.371E-02
RMM:   7    -0.231535871878E+04   -0.23911E-05   -0.59239E-05  3010   0.445E-03
   7 F= -.23362323E+04 E0= -.23362323E+04  d E =-.200243E-16  mag=     6.0000
       N       E                     dE             d eps       ncg     rms          rms(c)
DAV:   1    -0.231537301637E+04   -0.14300E-01   -0.61662E+00  4480   0.103E+00    0.454E-01
RMM:   2    -0.231537516871E+04   -0.21523E-02   -0.45447E-02  4188   0.755E-02    0.285E-01
RMM:   3    -0.231537460185E+04    0.56686E-03   -0.34978E-03  4717   0.273E-02    0.359E-01
RMM:   4    -0.231537369627E+04    0.90558E-03   -0.15555E-03  4109   0.153E-02    0.149E-01
RMM:   5    -0.231537360580E+04    0.90472E-04   -0.40987E-04  3415   0.892E-03    0.273E-02
RMM:   6    -0.231537360007E+04    0.57270E-05   -0.46539E-05  2942   0.508E-03
   8 F= -.23362458E+04 E0= -.23362458E+04  d E =-.443684E-15  mag=     6.0000
       N       E                     dE             d eps       ncg     rms          rms(c)
DAV:   1    -0.231536716438E+04    0.64414E-02   -0.20062E+01  4480   0.184E+00    0.758E-01
RMM:   2    -0.231537048265E+04   -0.33183E-02   -0.11720E-01  4259   0.146E-01    0.465E-01
RMM:   3    -0.231537032642E+04    0.15623E-03   -0.13796E-02  4644   0.672E-02    0.668E-01
RMM:   4    -0.231536645652E+04    0.38699E-02   -0.67890E-03  4671   0.326E-02    0.169E-01
RMM:   5    -0.231536638990E+04    0.66620E-04   -0.14581E-03  4086   0.186E-02    0.126E-01
RMM:   6    -0.231536630266E+04    0.87238E-04   -0.43873E-04  3436   0.976E-03    0.723E-02
RMM:   7    -0.231536625097E+04    0.51688E-04   -0.79643E-05  3146   0.530E-03    0.215E-02
RMM:   8    -0.231536625223E+04   -0.12522E-05   -0.24462E-05  2960   0.320E-03
   9 F= -.23362394E+04 E0= -.23362394E+04  d E =-.164931E-12  mag=     6.0000
       N       E                     dE             d eps       ncg     rms          rms(c)
DAV:   1    -0.231538223595E+04   -0.15985E-01   -0.10159E+01  4480   0.135E+00    0.465E-01
RMM:   2    -0.231538370151E+04   -0.14656E-02   -0.45084E-02  4082   0.834E-02    0.287E-01
RMM:   3    -0.231538396110E+04   -0.25959E-03   -0.53123E-03  5117   0.305E-02    0.426E-01
RMM:   4    -0.231538218239E+04    0.17787E-02   -0.24016E-03  4226   0.194E-02    0.782E-02
RMM:   5    -0.231538219431E+04   -0.11925E-04   -0.44026E-04  3423   0.971E-03    0.763E-02
RMM:   6    -0.231538215885E+04    0.35460E-04   -0.13202E-04  2945   0.574E-03    0.410E-02
RMM:   7    -0.231538214502E+04    0.13831E-04   -0.24998E-05  2828   0.324E-03    0.109E-02
RMM:   8    -0.231538214565E+04   -0.62466E-06   -0.78749E-06  2738   0.213E-03
  10 F= -.23362547E+04 E0= -.23362547E+04  d E =-.513303E-14  mag=     6.0000
       N       E                     dE             d eps       ncg     rms          rms(c)
DAV:   1    -0.231537725313E+04    0.48919E-02   -0.19873E+01  4480   0.191E+00    0.545E-01
RMM:   2    -0.231538042703E+04   -0.31739E-02   -0.75977E-02  4055   0.113E-01    0.308E-01
RMM:   3    -0.231538097599E+04   -0.54896E-03   -0.80160E-03  4893   0.474E-02    0.504E-01
RMM:   4    -0.231537846348E+04    0.25125E-02   -0.31089E-03  4474   0.236E-02    0.723E-02
RMM:   5    -0.231537852828E+04   -0.64805E-04   -0.56506E-04  3361   0.116E-02    0.887E-02
RMM:   6    -0.231537846528E+04    0.63006E-04   -0.12542E-04  3001   0.550E-03    0.336E-02
RMM:   7    -0.231537846490E+04    0.37481E-06   -0.21580E-05  2781   0.334E-03
  11 F= -.23362512E+04 E0= -.23362512E+04  d E =-.127331E-13  mag=     6.0000
       N       E                     dE             d eps       ncg     rms          rms(c)
DAV:   1    -0.231536980003E+04    0.86652E-02   -0.10064E+01  4480   0.140E+00    0.507E-01
RMM:   2    -0.231537056133E+04   -0.76130E-03   -0.47369E-02  4044   0.881E-02    0.297E-01
RMM:   3    -0.231537106771E+04   -0.50638E-03   -0.69363E-03  5065   0.372E-02    0.472E-01
RMM:   4    -0.231536867731E+04    0.23904E-02   -0.24151E-03  4579   0.204E-02    0.793E-02
RMM:   5    -0.231536869583E+04   -0.18527E-04   -0.56519E-04  3273   0.106E-02    0.101E-01
RMM:   6    -0.231536860791E+04    0.87924E-04   -0.12631E-04  2966   0.610E-03    0.278E-02
RMM:   7    -0.231536860154E+04    0.63706E-05   -0.29781E-05  2985   0.344E-03
  12 F= -.23362404E+04 E0= -.23362404E+04  d E =-.375616E-15  mag=     6.0000
       N       E                     dE             d eps       ncg     rms          rms(c)
DAV:   1    -0.231536436628E+04    0.42416E-02   -0.20113E+01  4480   0.171E+00    0.820E-01
RMM:   2    -0.231537093603E+04   -0.65698E-02   -0.15660E-01  4251   0.146E-01    0.425E-01
RMM:   3    -0.231536955981E+04    0.13762E-02   -0.13686E-02  4872   0.654E-02    0.541E-01
RMM:   4    -0.231536677482E+04    0.27850E-02   -0.51002E-03  4998   0.296E-02    0.205E-01
RMM:   5    -0.231536640296E+04    0.37186E-03   -0.17742E-03  4052   0.184E-02    0.123E-01
RMM:   6    -0.231536631072E+04    0.92232E-04   -0.35638E-04  3259   0.115E-02    0.783E-02
RMM:   7    -0.231536626462E+04    0.46099E-04   -0.10519E-04  3324   0.533E-03    0.246E-02
RMM:   8    -0.231536628479E+04   -0.20168E-04   -0.26928E-05  2990   0.383E-03    0.115E-02
RMM:   9    -0.231536630157E+04   -0.16782E-04   -0.10838E-05  2911   0.295E-03    0.780E-03
RMM:  10    -0.231536631001E+04   -0.84327E-05   -0.46603E-06  2766   0.248E-03
  13 F= -.23362398E+04 E0= -.23362398E+04  d E =-.139423E-12  mag=     6.0000
       N       E                     dE             d eps       ncg     rms          rms(c)
DAV:   1    -0.231536959448E+04   -0.32929E-02   -0.53850E+00  4480   0.976E-01    0.476E-01
RMM:   2    -0.231537027928E+04   -0.68480E-03   -0.39059E-02  4074   0.741E-02    0.254E-01
RMM:   3    -0.231536980388E+04    0.47540E-03   -0.36311E-03  4546   0.296E-02    0.301E-01
RMM:   4    -0.231536894882E+04    0.85506E-03   -0.13345E-03  4214   0.151E-02    0.116E-01
RMM:   5    -0.231536886034E+04    0.88478E-04   -0.38552E-04  3367   0.929E-03    0.642E-02
RMM:   6    -0.231536882193E+04    0.38412E-04   -0.75330E-05  2918   0.565E-03    0.248E-02
RMM:   7    -0.231536881773E+04    0.41966E-05   -0.16818E-05  2756   0.268E-03
  14 F= -.23362421E+04 E0= -.23362421E+04  d E =-.995180E-14  mag=     6.0000
       N       E                     dE             d eps       ncg     rms          rms(c)
DAV:   1    -0.231538020402E+04   -0.11382E-01   -0.12420E+00  4960   0.316E-01    0.585E-01
RMM:   2    -0.231537536482E+04    0.48392E-02   -0.18402E-02  4162   0.387E-02    0.308E-01
RMM:   3    -0.231537462054E+04    0.74428E-03   -0.30008E-03  4212   0.258E-02    0.261E-01
RMM:   4    -0.231537446503E+04    0.15550E-03   -0.19039E-03  4189   0.163E-02    0.218E-01
RMM:   5    -0.231537406292E+04    0.40211E-03   -0.41123E-04  3540   0.958E-03    0.426E-02
RMM:   6    -0.231537406958E+04   -0.66552E-05   -0.85523E-05  2893   0.511E-03
  15 F= -.23362462E+04 E0= -.23362462E+04  d E =-.521116E-14  mag=     6.0000
       N       E                     dE             d eps       ncg     rms          rms(c)
DAV:   1    -0.231538322386E+04   -0.91609E-02   -0.62939E-01  5040   0.214E-01    0.419E-01
RMM:   2    -0.231538056163E+04    0.26622E-02   -0.89220E-03  4159   0.268E-02    0.213E-01
RMM:   3    -0.231538007189E+04    0.48974E-03   -0.13100E-03  3660   0.163E-02    0.113E-01
RMM:   4    -0.231538021688E+04   -0.14499E-03   -0.77937E-04  3850   0.109E-02    0.155E-01
RMM:   5    -0.231537996370E+04    0.25318E-03   -0.25523E-04  2978   0.763E-03    0.232E-02
RMM:   6    -0.231537996190E+04    0.17990E-05   -0.35991E-05  2662   0.284E-03
  16 F= -.23362530E+04 E0= -.23362530E+04  d E =-.698145E-14  mag=     6.0000
       N       E                     dE             d eps       ncg     rms          rms(c)
DAV:   1    -0.231538238862E+04   -0.24249E-02   -0.12093E+00  4480   0.293E-01    0.422E-01
RMM:   2    -0.231538122162E+04    0.11670E-02   -0.48670E-03  4006   0.236E-02    0.263E-01
RMM:   3    -0.231538210183E+04   -0.88022E-03   -0.32798E-03  4656   0.209E-02    0.383E-01
RMM:   4    -0.231538069746E+04    0.14044E-02   -0.13716E-03  3914   0.145E-02    0.629E-02
RMM:   5    -0.231538073920E+04   -0.41735E-04   -0.21033E-04  3066   0.658E-03    0.720E-02
RMM:   6    -0.231538068945E+04    0.49748E-04   -0.63251E-05  2736   0.402E-03    0.187E-02
RMM:   7    -0.231538068668E+04    0.27743E-05   -0.97907E-06  2514   0.187E-03
  17 F= -.23362530E+04 E0= -.23362530E+04  d E =-.627447E-14  mag=     6.0000
       N       E                     dE             d eps       ncg     rms          rms(c)
DAV:   1    -0.231537665293E+04    0.40365E-02   -0.61400E-01  4720   0.207E-01    0.268E-01
RMM:   2    -0.231537649454E+04    0.15839E-03   -0.22296E-03  3647   0.156E-02    0.173E-01
RMM:   3    -0.231537696218E+04   -0.46764E-03   -0.14033E-03  4221   0.130E-02    0.252E-01
RMM:   4    -0.231537630633E+04    0.65585E-03   -0.62101E-04  3380   0.105E-02    0.376E-02
RMM:   5    -0.231537631263E+04   -0.63003E-05   -0.86917E-05  2860   0.427E-03
  18 F= -.23362491E+04 E0= -.23362491E+04  d E =-.399548E-14  mag=     6.0000
       N       E                     dE             d eps       ncg     rms          rms(c)
DAV:   1    -0.231538290108E+04   -0.65947E-02   -0.12232E+00  4720   0.287E-01    0.355E-01
RMM:   2    -0.231538267153E+04    0.22955E-03   -0.47782E-03  3691   0.214E-02    0.219E-01
RMM:   3    -0.231538348043E+04   -0.80891E-03   -0.21438E-03  4789   0.158E-02    0.327E-01
RMM:   4    -0.231538247402E+04    0.10064E-02   -0.11910E-03  3815   0.133E-02    0.582E-02
RMM:   5    -0.231538248981E+04   -0.15790E-04   -0.20288E-04  3035   0.561E-03    0.561E-02
RMM:   6    -0.231538246139E+04    0.28422E-04   -0.45386E-05  2646   0.360E-03    0.162E-02
RMM:   7    -0.231538246022E+04    0.11699E-05   -0.85535E-06  2589   0.193E-03
  19 F= -.23362549E+04 E0= -.23362549E+04  d E =-.934886E-14  mag=     6.0000
       N       E                     dE             d eps       ncg     rms          rms(c)
DAV:   1    -0.231538057464E+04    0.18867E-02   -0.58986E-01  4560   0.231E-01    0.216E-01
RMM:   2    -0.231538061725E+04   -0.42602E-04   -0.24088E-03  3676   0.171E-02    0.141E-01
RMM:   3    -0.231538089154E+04   -0.27430E-03   -0.81367E-04  3715   0.105E-02    0.205E-01
RMM:   4    -0.231538051232E+04    0.37923E-03   -0.44658E-04  3418   0.877E-03    0.451E-02
RMM:   5    -0.231538052450E+04   -0.12184E-04   -0.83745E-05  2868   0.419E-03    0.399E-02
RMM:   6    -0.231538050936E+04    0.15140E-04   -0.21543E-05  2517   0.276E-03    0.125E-02
RMM:   7    -0.231538050779E+04    0.15761E-05   -0.35815E-06  2287   0.132E-03
  20 F= -.23362536E+04 E0= -.23362536E+04  d E =-.609440E-14  mag=     6.0000
       N       E                     dE             d eps       ncg     rms          rms(c)
DAV:   1    -0.231538098744E+04   -0.47808E-03   -0.11303E+00  4480   0.330E-01    0.267E-01
RMM:   2    -0.231538131859E+04   -0.33115E-03   -0.43421E-03  4225   0.238E-02    0.241E-01
RMM:   3    -0.231538113519E+04    0.18341E-03   -0.14049E-03  4223   0.141E-02    0.205E-01
RMM:   4    -0.231538079775E+04    0.33743E-03   -0.53888E-04  3739   0.953E-03    0.796E-02
RMM:   5    -0.231538084388E+04   -0.46128E-04   -0.28925E-04  3159   0.702E-03    0.882E-02
RMM:   6    -0.231538077294E+04    0.70936E-04   -0.68914E-05  2819   0.451E-03    0.197E-02
RMM:   7    -0.231538076876E+04    0.41890E-05   -0.11235E-05  2664   0.222E-03
  21 F= -.23362529E+04 E0= -.23362529E+04  d E =-.540933E-14  mag=     6.0000
       N       E                     dE             d eps       ncg     rms          rms(c)
DAV:   1    -0.231537933093E+04    0.14420E-02   -0.55828E-01  4480   0.230E-01    0.181E-01
RMM:   2    -0.231537956708E+04   -0.23615E-03   -0.17741E-03  3806   0.156E-02    0.155E-01
RMM:   3    -0.231537952419E+04    0.42884E-04   -0.59699E-04  3501   0.901E-03    0.136E-01
RMM:   4    -0.231537937716E+04    0.14703E-03   -0.23831E-04  3144   0.663E-03    0.424E-02
RMM:   5    -0.231537940233E+04   -0.25169E-04   -0.91776E-05  2849   0.460E-03    0.577E-02
RMM:   6    -0.231537937525E+04    0.27084E-04   -0.30326E-05  2588   0.306E-03    0.100E-02
RMM:   7    -0.231537937411E+04    0.11384E-05   -0.37468E-06  2252   0.128E-03
  22 F= -.23362507E+04 E0= -.23362507E+04  d E =-.441739E-14  mag=     6.0000
       N       E                     dE             d eps       ncg     rms          rms(c)
DAV:   1    -0.231537801783E+04    0.13574E-02   -0.10922E+00  4480   0.333E-01    0.297E-01
RMM:   2    -0.231537963893E+04   -0.16211E-02   -0.85470E-03  4589   0.357E-02    0.432E-01
RMM:   3    -0.231537776407E+04    0.18749E-02   -0.18917E-03  4456   0.182E-02    0.148E-01
RMM:   4    -0.231537775735E+04    0.67215E-05   -0.57255E-04  3732   0.986E-03    0.125E-01
RMM:   5    -0.231537768400E+04    0.73343E-04   -0.33345E-04  3118   0.783E-03    0.776E-02
RMM:   6    -0.231537763161E+04    0.52392E-04   -0.57325E-05  2910   0.440E-03    0.160E-02
RMM:   7    -0.231537762975E+04    0.18651E-05   -0.77771E-06  2669   0.230E-03
  23 F= -.23362517E+04 E0= -.23362517E+04  d E =-.792837E-14  mag=     6.0000
       N       E                     dE             d eps       ncg     rms          rms(c)
DAV:   1    -0.231538172075E+04   -0.40891E-02   -0.58189E-01  4480   0.243E-01    0.259E-01
RMM:   2    -0.231538250961E+04   -0.78886E-03   -0.62230E-03  4803   0.281E-02    0.390E-01
RMM:   3    -0.231538098515E+04    0.15245E-02   -0.18324E-03  4161   0.169E-02    0.130E-01
RMM:   4    -0.231538087711E+04    0.10804E-03   -0.49649E-04  3682   0.913E-03    0.957E-02
RMM:   5    -0.231538088187E+04   -0.47546E-05   -0.30734E-04  3146   0.704E-03    0.904E-02
RMM:   6    -0.231538080768E+04    0.74192E-04   -0.58478E-05  2817   0.428E-03    0.170E-02
RMM:   7    -0.231538080501E+04    0.26705E-05   -0.14348E-05  2652   0.216E-03
  24 F= -.23362549E+04 E0= -.23362549E+04  d E =-.840290E-14  mag=     6.0000
       N       E                     dE             d eps       ncg     rms          rms(c)
DAV:   1    -0.231538493520E+04   -0.41275E-02   -0.11242E+00  4480   0.340E-01    0.401E-01
RMM:   2    -0.231538433990E+04    0.59530E-03   -0.10654E-02  4782   0.353E-02    0.422E-01
RMM:   3    -0.231538310195E+04    0.12379E-02   -0.39876E-03  4661   0.253E-02    0.283E-01
RMM:   4    -0.231538229240E+04    0.80955E-03   -0.12307E-03  4352   0.138E-02    0.115E-01
RMM:   5    -0.231538232323E+04   -0.30825E-04   -0.53113E-04  3593   0.928E-03    0.128E-01
RMM:   6    -0.231538217161E+04    0.15162E-03   -0.13632E-04  2952   0.567E-03    0.309E-02
RMM:   7    -0.231538216358E+04    0.80264E-05   -0.37304E-05  2808   0.290E-03
  25 F= -.23362533E+04 E0= -.23362533E+04  d E =-.421492E-14  mag=     6.0000
