       N       E                     dE             d eps       ncg     rms          rms(c)
DAV:   1     0.131970110759E+05    0.13197E+05   -0.85193E+05  4584   0.145E+03
DAV:   2    -0.102738908258E+04   -0.14224E+05   -0.13592E+05  4992   0.332E+02
DAV:   3    -0.249435300544E+04   -0.14670E+04   -0.14483E+04  5552   0.115E+02
DAV:   4    -0.254237848434E+04   -0.48025E+02   -0.47767E+02  6864   0.306E+01
DAV:   5    -0.254319069794E+04   -0.81221E+00   -0.81052E+00  6432   0.346E+00    0.171E+02
RMM:   6    -0.150373878471E+04    0.10395E+04   -0.19660E+03  4504   0.385E+01    0.755E+01
RMM:   7    -0.168987644669E+04   -0.18614E+03   -0.36025E+02  5166   0.145E+01    0.556E+01
RMM:   8    -0.171970227153E+04   -0.29826E+02   -0.75980E+01  5396   0.822E+00    0.422E+01
RMM:   9    -0.177582074972E+04   -0.56118E+02   -0.51341E+01  5173   0.584E+00    0.387E+01
RMM:  10    -0.193042309204E+04   -0.15460E+03   -0.77814E+01  5152   0.832E+00    0.427E+01
RMM:  11    -0.197298123397E+04   -0.42558E+02   -0.24110E+01  5350   0.459E+00    0.233E+01
RMM:  12    -0.204284455970E+04   -0.69863E+02   -0.26250E+01  5253   0.403E+00    0.175E+01
RMM:  13    -0.211584751559E+04   -0.73003E+02   -0.28057E+01  4879   0.422E+00    0.131E+01
RMM:  14    -0.225238579887E+04   -0.13654E+03   -0.11941E+02  4639   0.765E+00    0.127E+01
RMM:  15    -0.229661349609E+04   -0.44228E+02   -0.38117E+01  4896   0.463E+00    0.105E+01
RMM:  16    -0.231612040377E+04   -0.19507E+02   -0.16353E+01  4933   0.307E+00    0.827E+00
RMM:  17    -0.232694110907E+04   -0.10821E+02   -0.96959E+00  4722   0.220E+00    0.399E+00
RMM:  18    -0.233124303284E+04   -0.43019E+01   -0.32443E+00  4956   0.148E+00    0.185E+00
RMM:  19    -0.233354560203E+04   -0.23026E+01   -0.13152E+00  5049   0.752E-01    0.953E-01
RMM:  20    -0.233376212073E+04   -0.21652E+00   -0.16541E-01  5115   0.391E-01    0.527E-01
RMM:  21    -0.233384379969E+04   -0.81679E-01   -0.58261E-02  4717   0.183E-01    0.355E-01
RMM:  22    -0.233386621208E+04   -0.22412E-01   -0.13690E-02  4822   0.121E-01    0.194E-01
RMM:  23    -0.233388744939E+04   -0.21237E-01   -0.90621E-03  4522   0.742E-02    0.115E-01
RMM:  24    -0.233390257224E+04   -0.15123E-01   -0.50724E-03  4536   0.616E-02    0.890E-02
RMM:  25    -0.233391391835E+04   -0.11346E-01   -0.35684E-03  4567   0.465E-02    0.520E-02
RMM:  26    -0.233391973184E+04   -0.58135E-02   -0.18990E-03  4634   0.365E-02    0.442E-02
RMM:  27    -0.233392258659E+04   -0.28548E-02   -0.94245E-04  4403   0.229E-02    0.180E-02
RMM:  28    -0.233392358983E+04   -0.10032E-02   -0.30051E-04  4013   0.152E-02    0.123E-02
RMM:  29    -0.233392393524E+04   -0.34540E-03   -0.10346E-04  3808   0.842E-03    0.619E-03
RMM:  30    -0.233392410535E+04   -0.17011E-03   -0.34948E-05  3413   0.603E-03    0.334E-03
RMM:  31    -0.233392418626E+04   -0.80908E-04   -0.17641E-05  3048   0.396E-03    0.217E-03
RMM:  32    -0.233392421328E+04   -0.27021E-04   -0.71000E-06  2866   0.310E-03    0.145E-03
RMM:  33    -0.233392422280E+04   -0.95254E-05   -0.43865E-06  2510   0.231E-03
   1 F= -.23554408E+04 E0= -.23554406E+04  d E =-.235544E+04  mag=     5.0000
       N       E                     dE             d eps       ncg     rms          rms(c)
DAV:   1    -0.233361499655E+04    0.30922E+00   -0.28271E+01  5056   0.427E+00    0.188E+00
RMM:   2    -0.233418218628E+04   -0.56719E+00   -0.57585E+00  6064   0.130E+00    0.245E+00
RMM:   3    -0.233412804182E+04    0.54144E-01   -0.44443E-01  5721   0.511E-01    0.126E+00
RMM:   4    -0.233411539150E+04    0.12650E-01   -0.53695E-02  6046   0.118E-01    0.686E-01
RMM:   5    -0.233411281411E+04    0.25774E-02   -0.17455E-02  6121   0.721E-02    0.765E-01
RMM:   6    -0.233411029378E+04    0.25203E-02   -0.12724E-02  6247   0.582E-02    0.615E-01
RMM:   7    -0.233410530003E+04    0.49938E-02   -0.53187E-03  5823   0.366E-02    0.157E-01
RMM:   8    -0.233410504563E+04    0.25440E-03   -0.13243E-03  5079   0.206E-02    0.157E-01
RMM:   9    -0.233410470247E+04    0.34316E-03   -0.63868E-04  4691   0.149E-02    0.867E-02
RMM:  10    -0.233410448040E+04    0.22207E-03   -0.24372E-04  4451   0.104E-02    0.314E-02
RMM:  11    -0.233410443610E+04    0.44304E-04   -0.75389E-05  3880   0.818E-03    0.182E-02
RMM:  12    -0.233410443242E+04    0.36717E-05   -0.60846E-05  3803   0.608E-03
   2 F= -.23556241E+04 E0= -.23556241E+04  d E =-.183332E+00  mag=     4.9997
       N       E                     dE             d eps       ncg     rms          rms(c)
DAV:   1    -0.233410405305E+04    0.38305E-03   -0.57098E-02  5348   0.199E-01    0.848E-02
RMM:   2    -0.233410513217E+04   -0.10791E-02   -0.11387E-02  6352   0.606E-02    0.877E-02
RMM:   3    -0.233410513357E+04   -0.13993E-05   -0.10407E-03  3826   0.217E-02    0.605E-02
RMM:   4    -0.233410511446E+04    0.19115E-04   -0.12249E-04  3191   0.625E-03    0.338E-02
RMM:   5    -0.233410510805E+04    0.64102E-05   -0.32810E-05  3068   0.397E-03
   3 F= -.23556247E+04 E0= -.23556246E+04  d E =-.183858E+00  mag=     4.9997
       N       E                     dE             d eps       ncg     rms          rms(c)
DAV:   1    -0.233404625449E+04    0.58860E-01   -0.48504E+00  4704   0.227E+00    0.825E-01
RMM:   2    -0.233413913818E+04   -0.92884E-01   -0.97666E-01  6217   0.586E-01    0.624E-01
RMM:   3    -0.233414565001E+04   -0.65118E-02   -0.98509E-02  6096   0.219E-01    0.645E-01
RMM:   4    -0.233414062784E+04    0.50222E-02   -0.95797E-03  6315   0.531E-02    0.245E-01
RMM:   5    -0.233414033393E+04    0.29390E-03   -0.22409E-03  5458   0.267E-02    0.252E-01
RMM:   6    -0.233413954830E+04    0.78564E-03   -0.16567E-03  5690   0.240E-02    0.133E-01
RMM:   7    -0.233413939137E+04    0.15693E-03   -0.65946E-04  5125   0.184E-02    0.800E-02
RMM:   8    -0.233413932684E+04    0.64530E-04   -0.15936E-04  3719   0.922E-03    0.468E-02
RMM:   9    -0.233413929743E+04    0.29407E-04   -0.45566E-05  3147   0.540E-03    0.262E-02
RMM:  10    -0.233413928273E+04    0.14702E-04   -0.28297E-05  2990   0.455E-03    0.125E-02
RMM:  11    -0.233413927912E+04    0.36050E-05   -0.12062E-05  2927   0.385E-03
   4 F= -.23556605E+04 E0= -.23556605E+04  d E =-.358838E-01  mag=     4.9995
       N       E                     dE             d eps       ncg     rms          rms(c)
DAV:   1    -0.233412056718E+04    0.18716E-01   -0.11529E+00  4736   0.111E+00    0.401E-01
RMM:   2    -0.233414244381E+04   -0.21877E-01   -0.23023E-01  6206   0.284E-01    0.297E-01
RMM:   3    -0.233414403163E+04   -0.15878E-02   -0.23018E-02  6034   0.108E-01    0.313E-01
RMM:   4    -0.233414281328E+04    0.12184E-02   -0.22585E-03  5817   0.259E-02    0.116E-01
RMM:   5    -0.233414274189E+04    0.71393E-04   -0.55919E-04  4646   0.144E-02    0.121E-01
RMM:   6    -0.233414256380E+04    0.17808E-03   -0.38011E-04  4939   0.122E-02    0.644E-02
RMM:   7    -0.233414252114E+04    0.42659E-04   -0.14319E-04  4030   0.970E-03    0.324E-02
RMM:   8    -0.233414251145E+04    0.96960E-05   -0.34610E-05  3015   0.540E-03
   5 F= -.23556646E+04 E0= -.23556646E+04  d E =-.399703E-01  mag=     4.9994
       N       E                     dE             d eps       ncg     rms          rms(c)
DAV:   1    -0.233409471332E+04    0.47808E-01   -0.30668E+00  4624   0.161E+00    0.589E-01
RMM:   2    -0.233416921435E+04   -0.74501E-01   -0.76869E-01  6625   0.457E-01    0.639E-01
RMM:   3    -0.233417162098E+04   -0.24066E-02   -0.84831E-02  6262   0.181E-01    0.392E-01
RMM:   4    -0.233417020626E+04    0.14147E-02   -0.75267E-03  5800   0.372E-02    0.205E-01
RMM:   5    -0.233416996585E+04    0.24041E-03   -0.92009E-04  4225   0.161E-02    0.178E-01
RMM:   6    -0.233416961367E+04    0.35218E-03   -0.74847E-04  5204   0.149E-02    0.117E-01
RMM:   7    -0.233416948768E+04    0.12598E-03   -0.52428E-04  4788   0.137E-02    0.588E-02
RMM:   8    -0.233416946934E+04    0.18339E-04   -0.10100E-04  3217   0.728E-03    0.419E-02
RMM:   9    -0.233416944813E+04    0.21212E-04   -0.29729E-05  2988   0.507E-03    0.193E-02
RMM:  10    -0.233416944346E+04    0.46706E-05   -0.14772E-05  2956   0.319E-03
   6 F= -.23556922E+04 E0= -.23556921E+04  d E =-.275352E-01  mag=     4.9994
       N       E                     dE             d eps       ncg     rms          rms(c)
DAV:   1    -0.233392305033E+04    0.24640E+00   -0.10718E+01  4592   0.302E+00    0.110E+00
RMM:   2    -0.233419107154E+04   -0.26802E+00   -0.27610E+00  6645   0.878E-01    0.123E+00
RMM:   3    -0.233419506908E+04   -0.39975E-02   -0.28381E-01  6378   0.321E-01    0.700E-01
RMM:   4    -0.233419088969E+04    0.41794E-02   -0.25891E-02  6058   0.679E-02    0.389E-01
RMM:   5    -0.233418994251E+04    0.94718E-03   -0.29496E-03  5285   0.284E-02    0.336E-01
RMM:   6    -0.233418857662E+04    0.13659E-02   -0.26196E-03  5677   0.269E-02    0.216E-01
RMM:   7    -0.233418812612E+04    0.45050E-03   -0.19592E-03  5404   0.253E-02    0.117E-01
RMM:   8    -0.233418804209E+04    0.84031E-04   -0.37935E-04  4068   0.128E-02    0.781E-02
RMM:   9    -0.233418796165E+04    0.80436E-04   -0.10637E-04  3133   0.794E-03    0.372E-02
RMM:  10    -0.233418794148E+04    0.20173E-04   -0.58681E-05  3181   0.584E-03    0.167E-02
RMM:  11    -0.233418793837E+04    0.31095E-05   -0.22785E-05  2984   0.458E-03
   7 F= -.23557120E+04 E0= -.23557119E+04  d E =-.473344E-01  mag=     4.9996
       N       E                     dE             d eps       ncg     rms          rms(c)
DAV:   1    -0.233409920236E+04    0.88739E-01   -0.44929E+00  4592   0.196E+00    0.700E-01
RMM:   2    -0.233420630070E+04   -0.10710E+00   -0.11373E+00  6536   0.553E-01    0.531E-01
RMM:   3    -0.233421879152E+04   -0.12491E-01   -0.14620E-01  6228   0.246E-01    0.542E-01
RMM:   4    -0.233421554241E+04    0.32491E-02   -0.11862E-02  6090   0.475E-02    0.236E-01
RMM:   5    -0.233421507127E+04    0.47114E-03   -0.11854E-03  4912   0.185E-02    0.179E-01
RMM:   6    -0.233421485164E+04    0.21963E-03   -0.10022E-03  4984   0.182E-02    0.159E-01
RMM:   7    -0.233421455983E+04    0.29181E-03   -0.75333E-04  5294   0.161E-02    0.578E-02
RMM:   8    -0.233421451255E+04    0.47277E-04   -0.10485E-04  3415   0.780E-03    0.282E-02
RMM:   9    -0.233421449611E+04    0.16435E-04   -0.34157E-05  2997   0.526E-03    0.246E-02
RMM:  10    -0.233421449098E+04    0.51335E-05   -0.20884E-05  2940   0.399E-03
   8 F= -.23557385E+04 E0= -.23557385E+04  d E =-.265731E-01  mag=     4.9997
       N       E                     dE             d eps       ncg     rms          rms(c)
DAV:   1    -0.233350286082E+04    0.71164E+00   -0.28143E+01  4536   0.492E+00    0.176E+00
RMM:   2    -0.233419406129E+04   -0.69120E+00   -0.73572E+00  6596   0.143E+00    0.131E+00
RMM:   3    -0.233426883644E+04   -0.74775E-01   -0.91562E-01  6255   0.603E-01    0.137E+00
RMM:   4    -0.233424793240E+04    0.20904E-01   -0.74349E-02  6432   0.118E-01    0.627E-01
RMM:   5    -0.233424487136E+04    0.30610E-02   -0.71788E-03  5574   0.432E-02    0.482E-01
RMM:   6    -0.233424313098E+04    0.17404E-02   -0.63693E-03  5633   0.430E-02    0.409E-01
RMM:   7    -0.233424105595E+04    0.20750E-02   -0.64126E-03  5801   0.430E-02    0.163E-01
RMM:   8    -0.233424073434E+04    0.32162E-03   -0.93733E-04  5181   0.211E-02    0.997E-02
RMM:   9    -0.233424061119E+04    0.12314E-03   -0.37020E-04  4055   0.128E-02    0.969E-02
RMM:  10    -0.233424049917E+04    0.11202E-03   -0.17185E-04  3231   0.885E-03    0.342E-02
RMM:  11    -0.233424047100E+04    0.28173E-04   -0.65934E-05  3188   0.553E-03    0.146E-02
RMM:  12    -0.233424046380E+04    0.72013E-05   -0.24788E-05  3080   0.467E-03
   9 F= -.23557648E+04 E0= -.23557648E+04  d E =-.527886E-01  mag=     4.9999
       N       E                     dE             d eps       ncg     rms          rms(c)
DAV:   1    -0.233421345411E+04    0.27017E-01   -0.16094E+00  4720   0.113E+00    0.426E-01
RMM:   2    -0.233425396284E+04   -0.40509E-01   -0.42622E-01  6555   0.327E-01    0.357E-01
RMM:   3    -0.233425860308E+04   -0.46402E-02   -0.56111E-02  6109   0.158E-01    0.342E-01
RMM:   4    -0.233425729223E+04    0.13109E-02   -0.44833E-03  5403   0.289E-02    0.134E-01
RMM:   5    -0.233425709035E+04    0.20188E-03   -0.37556E-04  3966   0.110E-02    0.911E-02
RMM:   6    -0.233425706624E+04    0.24117E-04   -0.34522E-04  4355   0.111E-02    0.909E-02
RMM:   7    -0.233425696905E+04    0.97190E-04   -0.19459E-04  3698   0.947E-03    0.378E-02
RMM:   8    -0.233425695367E+04    0.15373E-04   -0.38265E-05  3144   0.533E-03    0.179E-02
RMM:   9    -0.233425695195E+04    0.17281E-05   -0.11874E-05  2900   0.339E-03
  10 F= -.23557811E+04 E0= -.23557811E+04  d E =-.163227E-01  mag=     4.9999
       N       E                     dE             d eps       ncg     rms          rms(c)
DAV:   1    -0.233389204138E+04    0.36491E+00   -0.14450E+01  4536   0.339E+00    0.128E+00
RMM:   2    -0.233426014396E+04   -0.36810E+00   -0.38967E+00  6590   0.994E-01    0.104E+00
RMM:   3    -0.233430427555E+04   -0.44132E-01   -0.51631E-01  6234   0.465E-01    0.109E+00
RMM:   4    -0.233429102881E+04    0.13247E-01   -0.40399E-02  6310   0.868E-02    0.423E-01
RMM:   5    -0.233428928570E+04    0.17431E-02   -0.37970E-03  5406   0.319E-02    0.308E-01
RMM:   6    -0.233428897415E+04    0.31154E-03   -0.32179E-03  5479   0.304E-02    0.306E-01
RMM:   7    -0.233428778101E+04    0.11931E-02   -0.25402E-03  5815   0.282E-02    0.116E-01
RMM:   8    -0.233428765184E+04    0.12917E-03   -0.44955E-04  4348   0.128E-02    0.757E-02
RMM:   9    -0.233428759388E+04    0.57960E-04   -0.17377E-04  3104   0.876E-03    0.625E-02
RMM:  10    -0.233428755458E+04    0.39294E-04   -0.88380E-05  3134   0.638E-03    0.344E-02
RMM:  11    -0.233428754158E+04    0.13007E-04   -0.40453E-05  3020   0.476E-03    0.960E-03
RMM:  12    -0.233428754392E+04   -0.23460E-05   -0.12982E-05  2956   0.336E-03
  11 F= -.23558113E+04 E0= -.23558113E+04  d E =-.465227E-01  mag=     5.0000
       N       E                     dE             d eps       ncg     rms          rms(c)
DAV:   1    -0.233262906615E+04    0.16585E+01   -0.57612E+01  4536   0.681E+00    0.258E+00
RMM:   2    -0.233414625576E+04   -0.15172E+01   -0.16126E+01  6652   0.206E+00    0.197E+00
RMM:   3    -0.233432370920E+04   -0.17745E+00   -0.20447E+00  6115   0.952E-01    0.219E+00
RMM:   4    -0.233426947687E+04    0.54232E-01   -0.16114E-01  6564   0.174E-01    0.894E-01
RMM:   5    -0.233426189987E+04    0.75770E-02   -0.16503E-02  5626   0.633E-02    0.638E-01
RMM:   6    -0.233426078939E+04    0.11105E-02   -0.12382E-02  5738   0.580E-02    0.653E-01
RMM:   7    -0.233425517576E+04    0.56136E-02   -0.12091E-02  6034   0.602E-02    0.255E-01
RMM:   8    -0.233425467078E+04    0.50499E-03   -0.24725E-03  5607   0.288E-02    0.178E-01
RMM:   9    -0.233425428734E+04    0.38344E-03   -0.85355E-04  4322   0.186E-02    0.125E-01
RMM:  10    -0.233425416912E+04    0.11822E-03   -0.37223E-04  3685   0.111E-02    0.815E-02
RMM:  11    -0.233425409772E+04    0.71401E-04   -0.18000E-04  3430   0.797E-03    0.220E-02
RMM:  12    -0.233425410727E+04   -0.95457E-05   -0.55546E-05  3267   0.552E-03
  12 F= -.23557776E+04 E0= -.23557776E+04  d E =-.128197E-01  mag=     5.0000
       N       E                     dE             d eps       ncg     rms          rms(c)
DAV:   1    -0.233334718782E+04    0.90691E+00   -0.33992E+01  4536   0.522E+00    0.201E+00
RMM:   2    -0.233429060880E+04   -0.94342E+00   -0.96889E+00  6637   0.160E+00    0.224E+00
RMM:   3    -0.233432481862E+04   -0.34210E-01   -0.11296E+00  6269   0.664E-01    0.145E+00
RMM:   4    -0.233429997129E+04    0.24847E-01   -0.94345E-02  6229   0.127E-01    0.657E-01
RMM:   5    -0.233429683139E+04    0.31399E-02   -0.85729E-03  5847   0.442E-02    0.557E-01
RMM:   6    -0.233429423972E+04    0.25917E-02   -0.63189E-03  5877   0.402E-02    0.438E-01
RMM:   7    -0.233429199758E+04    0.22421E-02   -0.66798E-03  5983   0.458E-02    0.184E-01
RMM:   8    -0.233429176762E+04    0.22996E-03   -0.11392E-03  5639   0.208E-02    0.130E-01
RMM:   9    -0.233429161906E+04    0.14856E-03   -0.36631E-04  3520   0.123E-02    0.834E-02
RMM:  10    -0.233429150040E+04    0.11866E-03   -0.17408E-04  3511   0.896E-03    0.320E-02
RMM:  11    -0.233429149493E+04    0.54726E-05   -0.59710E-05  3084   0.631E-03
  13 F= -.23558151E+04 E0= -.23558151E+04  d E =-.503473E-01  mag=     5.0000
       N       E                     dE             d eps       ncg     rms          rms(c)
DAV:   1    -0.233429603803E+04   -0.45376E-02   -0.30607E-01  4640   0.559E-01    0.188E-01
RMM:   2    -0.233430125296E+04   -0.52149E-02   -0.54447E-02  6190   0.142E-01    0.157E-01
RMM:   3    -0.233430152385E+04   -0.27089E-03   -0.51554E-03  5620   0.543E-02    0.163E-01
RMM:   4    -0.233430120116E+04    0.32270E-03   -0.48941E-04  3791   0.130E-02    0.540E-02
RMM:   5    -0.233430120044E+04    0.71216E-06   -0.12781E-04  3292   0.803E-03    0.678E-02
RMM:   6    -0.233430115375E+04    0.46694E-04   -0.98541E-05  3234   0.766E-03    0.248E-02
RMM:   7    -0.233430115073E+04    0.30221E-05   -0.35280E-05  3092   0.579E-03
  14 F= -.23558244E+04 E0= -.23558244E+04  d E =-.924969E-02  mag=     5.0000
       N       E                     dE             d eps       ncg     rms          rms(c)
DAV:   1    -0.233427201969E+04    0.29134E-01   -0.27517E+00  4560   0.167E+00    0.567E-01
RMM:   2    -0.233431889508E+04   -0.46875E-01   -0.48864E-01  6094   0.425E-01    0.484E-01
RMM:   3    -0.233432114571E+04   -0.22506E-02   -0.50821E-02  5857   0.177E-01    0.460E-01
RMM:   4    -0.233431857995E+04    0.25658E-02   -0.46738E-03  5938   0.388E-02    0.168E-01
RMM:   5    -0.233431852147E+04    0.58477E-04   -0.10988E-03  5202   0.201E-02    0.199E-01
RMM:   6    -0.233431808952E+04    0.43195E-03   -0.79899E-04  5344   0.174E-02    0.752E-02
RMM:   7    -0.233431805107E+04    0.38450E-04   -0.30797E-04  4647   0.121E-02    0.515E-02
RMM:   8    -0.233431802596E+04    0.25111E-04   -0.79021E-05  3142   0.710E-03    0.344E-02
RMM:   9    -0.233431801557E+04    0.10393E-04   -0.22398E-05  3027   0.459E-03    0.183E-02
RMM:  10    -0.233431801656E+04   -0.99390E-06   -0.11704E-05  2952   0.314E-03
  15 F= -.23558400E+04 E0= -.23558400E+04  d E =-.249031E-01  mag=     5.0000
       N       E                     dE             d eps       ncg     rms          rms(c)
DAV:   1    -0.233431357258E+04    0.44430E-02   -0.36147E-01  4704   0.606E-01    0.205E-01
RMM:   2    -0.233431979858E+04   -0.62260E-02   -0.64996E-02  6142   0.155E-01    0.175E-01
RMM:   3    -0.233432007136E+04   -0.27278E-03   -0.63808E-03  5624   0.585E-02    0.169E-01
RMM:   4    -0.233431971941E+04    0.35195E-03   -0.59320E-04  4015   0.140E-02    0.598E-02
RMM:   5    -0.233431971242E+04    0.69923E-05   -0.14616E-04  3347   0.849E-03    0.724E-02
RMM:   6    -0.233431965581E+04    0.56617E-04   -0.11453E-04  3417   0.803E-03    0.267E-02
RMM:   7    -0.233431965219E+04    0.36117E-05   -0.44730E-05  3154   0.614E-03
  16 F= -.23558412E+04 E0= -.23558412E+04  d E =-.261022E-01  mag=     5.0000
       N       E                     dE             d eps       ncg     rms          rms(c)
DAV:   1    -0.233432235171E+04   -0.26959E-02   -0.56903E-01  4560   0.708E-01    0.216E-01
RMM:   2    -0.233432917851E+04   -0.68268E-02   -0.69848E-02  6184   0.163E-01    0.208E-01
RMM:   3    -0.233432912831E+04    0.50198E-04   -0.61691E-03  5605   0.580E-02    0.160E-01
RMM:   4    -0.233432884475E+04    0.28355E-03   -0.60798E-04  3957   0.137E-02    0.602E-02
RMM:   5    -0.233432884108E+04    0.36788E-05   -0.12217E-04  3316   0.817E-03    0.677E-02
RMM:   6    -0.233432879777E+04    0.43309E-04   -0.10483E-04  3452   0.782E-03    0.329E-02
RMM:   7    -0.233432879230E+04    0.54618E-05   -0.48393E-05  3176   0.650E-03
  17 F= -.23558500E+04 E0= -.23558500E+04  d E =-.877457E-02  mag=     5.0000
       N       E                     dE             d eps       ncg     rms          rms(c)
DAV:   1    -0.233428907095E+04    0.39727E-01   -0.51163E+00  4536   0.212E+00    0.651E-01
RMM:   2    -0.233435210846E+04   -0.63038E-01   -0.64001E-01  6143   0.493E-01    0.673E-01
RMM:   3    -0.233434990845E+04    0.22000E-02   -0.53286E-02  5917   0.172E-01    0.447E-01
RMM:   4    -0.233434771125E+04    0.21972E-02   -0.53958E-03  5649   0.397E-02    0.183E-01
RMM:   5    -0.233434763334E+04    0.77902E-04   -0.10907E-03  5143   0.214E-02    0.203E-01
RMM:   6    -0.233434720959E+04    0.42375E-03   -0.91586E-04  5249   0.189E-02    0.101E-01
RMM:   7    -0.233434712205E+04    0.87539E-04   -0.40074E-04  4789   0.143E-02    0.602E-02
RMM:   8    -0.233434709322E+04    0.28835E-04   -0.77422E-05  3124   0.657E-03    0.383E-02
RMM:   9    -0.233434707653E+04    0.16691E-04   -0.23749E-05  2987   0.503E-03    0.172E-02
RMM:  10    -0.233434707362E+04    0.29048E-05   -0.12642E-05  2938   0.301E-03
  18 F= -.23558672E+04 E0= -.23558672E+04  d E =-.259583E-01  mag=     5.0000
       N       E                     dE             d eps       ncg     rms          rms(c)
DAV:   1    -0.233410844888E+04    0.23863E+00   -0.20457E+01  4536   0.425E+00    0.131E+00
RMM:   2    -0.233436544436E+04   -0.25700E+00   -0.25872E+00  6175   0.100E+00    0.144E+00
RMM:   3    -0.233435257005E+04    0.12874E-01   -0.21507E-01  5952   0.341E-01    0.815E-01
RMM:   4    -0.233434558860E+04    0.69814E-02   -0.21630E-02  5749   0.780E-02    0.367E-01
RMM:   5    -0.233434532766E+04    0.26094E-03   -0.42904E-03  5657   0.423E-02    0.420E-01
RMM:   6    -0.233434337985E+04    0.19478E-02   -0.35724E-03  5599   0.369E-02    0.185E-01
RMM:   7    -0.233434312058E+04    0.25927E-03   -0.14871E-03  5451   0.270E-02    0.119E-01
RMM:   8    -0.233434299685E+04    0.12373E-03   -0.29950E-04  4238   0.114E-02    0.725E-02
RMM:   9    -0.233434293253E+04    0.64319E-04   -0.84319E-05  3157   0.794E-03    0.331E-02
RMM:  10    -0.233434291184E+04    0.20688E-04   -0.46466E-05  3150   0.531E-03    0.144E-02
RMM:  11    -0.233434291149E+04    0.35511E-06   -0.25719E-05  3055   0.488E-03
  19 F= -.23558608E+04 E0= -.23558608E+04  d E =-.195989E-01  mag=     5.0000
       N       E                     dE             d eps       ncg     rms          rms(c)
DAV:   1    -0.233426220547E+04    0.80706E-01   -0.78896E+00  4536   0.262E+00    0.792E-01
RMM:   2    -0.233435426058E+04   -0.92055E-01   -0.95739E-01  6146   0.608E-01    0.653E-01
RMM:   3    -0.233435765222E+04   -0.33916E-02   -0.91160E-02  6025   0.214E-01    0.640E-01
RMM:   4    -0.233435284444E+04    0.48078E-02   -0.85751E-03  5980   0.506E-02    0.219E-01
RMM:   5    -0.233435268662E+04    0.15782E-03   -0.19051E-03  5267   0.253E-02    0.240E-01
RMM:   6    -0.233435215106E+04    0.53556E-03   -0.14323E-03  5453   0.230E-02    0.133E-01
RMM:   7    -0.233435198562E+04    0.16544E-03   -0.61360E-04  5189   0.173E-02    0.669E-02
RMM:   8    -0.233435194009E+04    0.45529E-04   -0.99347E-05  3237   0.768E-03    0.418E-02
RMM:   9    -0.233435192201E+04    0.18084E-04   -0.31110E-05  2997   0.542E-03    0.202E-02
RMM:  10    -0.233435192146E+04    0.54964E-06   -0.19853E-05  2971   0.351E-03
  20 F= -.23558712E+04 E0= -.23558712E+04  d E =-.299749E-01  mag=     5.0000
       N       E                     dE             d eps       ncg     rms          rms(c)
DAV:   1    -0.233434507540E+04    0.68466E-02   -0.14928E+00  4548   0.111E+00    0.334E-01
RMM:   2    -0.233436444682E+04   -0.19371E-01   -0.20060E-01  6420   0.266E-01    0.298E-01
RMM:   3    -0.233436475725E+04   -0.31043E-03   -0.18266E-02  5877   0.918E-02    0.231E-01
RMM:   4    -0.233436420732E+04    0.54993E-03   -0.17245E-03  5096   0.211E-02    0.105E-01
RMM:   5    -0.233436416183E+04    0.45489E-04   -0.32468E-04  3817   0.109E-02    0.949E-02
RMM:   6    -0.233436408806E+04    0.73765E-04   -0.26798E-04  4371   0.108E-02    0.606E-02
RMM:   7    -0.233436405120E+04    0.36861E-04   -0.11325E-04  3422   0.824E-03    0.281E-02
RMM:   8    -0.233436404531E+04    0.58895E-05   -0.18630E-05  2968   0.461E-03
  21 F= -.23558832E+04 E0= -.23558832E+04  d E =-.120529E-01  mag=     5.0000
       N       E                     dE             d eps       ncg     rms          rms(c)
DAV:   1    -0.233421108956E+04    0.15296E+00   -0.13440E+01  4536   0.333E+00    0.101E+00
RMM:   2    -0.233438714695E+04   -0.17606E+00   -0.18219E+00  6412   0.796E-01    0.922E-01
RMM:   3    -0.233438908140E+04   -0.19345E-02   -0.16927E-01  6146   0.281E-01    0.679E-01
RMM:   4    -0.233438453071E+04    0.45507E-02   -0.15825E-02  6018   0.627E-02    0.316E-01
RMM:   5    -0.233438411603E+04    0.41468E-03   -0.27836E-03  5579   0.301E-02    0.288E-01
RMM:   6    -0.233438341768E+04    0.69835E-03   -0.23523E-03  5649   0.283E-02    0.188E-01
RMM:   7    -0.233438307467E+04    0.34300E-03   -0.10051E-03  5406   0.207E-02    0.912E-02
RMM:   8    -0.233438302063E+04    0.54043E-04   -0.17258E-04  3623   0.893E-03    0.661E-02
RMM:   9    -0.233438297688E+04    0.43753E-04   -0.58747E-05  3009   0.660E-03    0.272E-02
RMM:  10    -0.233438296376E+04    0.13122E-04   -0.25358E-05  2998   0.389E-03    0.156E-02
RMM:  11    -0.233438296277E+04    0.98205E-06   -0.14528E-05  2930   0.375E-03
  22 F= -.23559020E+04 E0= -.23559020E+04  d E =-.308096E-01  mag=     5.0000
       N       E                     dE             d eps       ncg     rms          rms(c)
DAV:   1    -0.233437692742E+04    0.60363E-02   -0.52395E-01  4768   0.654E-01    0.196E-01
RMM:   2    -0.233438370151E+04   -0.67741E-02   -0.70124E-02  6426   0.157E-01    0.175E-01
RMM:   3    -0.233438382527E+04   -0.12376E-03   -0.64691E-03  5294   0.541E-02    0.136E-01
RMM:   4    -0.233438363853E+04    0.18674E-03   -0.61486E-04  3660   0.127E-02    0.619E-02
RMM:   5    -0.233438361634E+04    0.22193E-04   -0.10463E-04  3253   0.723E-03    0.532E-02
RMM:   6    -0.233438359502E+04    0.21323E-04   -0.91320E-05  3348   0.704E-03    0.364E-02
RMM:   7    -0.233438358080E+04    0.14217E-04   -0.43620E-05  3105   0.625E-03    0.169E-02
RMM:   8    -0.233438357812E+04    0.26851E-05   -0.73148E-06  2892   0.341E-03
  23 F= -.23559026E+04 E0= -.23559026E+04  d E =-.314018E-01  mag=     5.0000
       N       E                     dE             d eps       ncg     rms          rms(c)
DAV:   1    -0.233434234886E+04    0.41232E-01   -0.29574E+00  4536   0.152E+00    0.521E-01
RMM:   2    -0.233439310964E+04   -0.50761E-01   -0.54318E-01  6260   0.403E-01    0.317E-01
RMM:   3    -0.233439728698E+04   -0.41773E-02   -0.62950E-02  5841   0.182E-01    0.329E-01
RMM:   4    -0.233439621405E+04    0.10729E-02   -0.49728E-03  5747   0.324E-02    0.165E-01
RMM:   5    -0.233439597822E+04    0.23583E-03   -0.67666E-04  4877   0.145E-02    0.128E-01
RMM:   6    -0.233439590531E+04    0.72912E-04   -0.58560E-04  4556   0.142E-02    0.112E-01
RMM:   7    -0.233439578448E+04    0.12083E-03   -0.24584E-04  4336   0.991E-03    0.418E-02
RMM:   8    -0.233439576551E+04    0.18962E-04   -0.43055E-05  3138   0.571E-03    0.248E-02
RMM:   9    -0.233439576089E+04    0.46234E-05   -0.14586E-05  2945   0.358E-03
  24 F= -.23559156E+04 E0= -.23559156E+04  d E =-.129704E-01  mag=     5.0000
       N       E                     dE             d eps       ncg     rms          rms(c)
DAV:   1    -0.233433266920E+04    0.63096E-01   -0.36852E+00  4536   0.170E+00    0.583E-01
RMM:   2    -0.233439648465E+04   -0.63815E-01   -0.68221E-01  6312   0.449E-01    0.366E-01
RMM:   3    -0.233440167395E+04   -0.51893E-02   -0.78501E-02  5819   0.203E-01    0.376E-01
RMM:   4    -0.233440021219E+04    0.14618E-02   -0.62305E-03  5828   0.365E-02    0.181E-01
RMM:   5    -0.233439989593E+04    0.31626E-03   -0.79964E-04  5008   0.159E-02    0.134E-01
RMM:   6    -0.233439981944E+04    0.76490E-04   -0.69869E-04  4970   0.155E-02    0.123E-01
RMM:   7    -0.233439968428E+04    0.13516E-03   -0.29544E-04  4545   0.109E-02    0.549E-02
RMM:   8    -0.233439965259E+04    0.31694E-04   -0.56168E-05  3161   0.588E-03    0.295E-02
RMM:   9    -0.233439964570E+04    0.68843E-05   -0.19204E-05  2961   0.410E-03
  25 F= -.23559204E+04 E0= -.23559204E+04  d E =-.177745E-01  mag=     5.0000
       N       E                     dE             d eps       ncg     rms          rms(c)
DAV:   1    -0.233434725137E+04    0.52401E-01   -0.42089E+00  4536   0.168E+00    0.566E-01
RMM:   2    -0.233440956663E+04   -0.62315E-01   -0.66861E-01  6410   0.429E-01    0.374E-01
RMM:   3    -0.233441372023E+04   -0.41536E-02   -0.72043E-02  5969   0.166E-01    0.330E-01
RMM:   4    -0.233441285855E+04    0.86167E-03   -0.60835E-03  5633   0.332E-02    0.204E-01
RMM:   5    -0.233441249546E+04    0.36309E-03   -0.78222E-04  4511   0.152E-02    0.137E-01
RMM:   6    -0.233441234979E+04    0.14567E-03   -0.77598E-04  5191   0.169E-02    0.106E-01
RMM:   7    -0.233441229207E+04    0.57720E-04   -0.28919E-04  3541   0.112E-02    0.707E-02
RMM:   8    -0.233441222935E+04    0.62720E-04   -0.43476E-05  3047   0.576E-03    0.176E-02
RMM:   9    -0.233441222347E+04    0.58866E-05   -0.13666E-05  2941   0.375E-03
  26 F= -.23559340E+04 E0= -.23559340E+04  d E =-.135953E-01  mag=     5.0000
       N       E                     dE             d eps       ncg     rms          rms(c)
DAV:   1    -0.233430346737E+04    0.10876E+00   -0.73859E+00  4536   0.222E+00    0.747E-01
RMM:   2    -0.233441189116E+04   -0.10842E+00   -0.11647E+00  6416   0.567E-01    0.480E-01
RMM:   3    -0.233441979842E+04   -0.79073E-02   -0.13265E-01  5970   0.234E-01    0.417E-01
RMM:   4    -0.233441850960E+04    0.12888E-02   -0.10771E-02  6019   0.441E-02    0.272E-01
RMM:   5    -0.233441785891E+04    0.65069E-03   -0.13191E-03  4994   0.196E-02    0.182E-01
RMM:   6    -0.233441766419E+04    0.19473E-03   -0.14077E-03  5523   0.220E-02    0.164E-01
RMM:   7    -0.233441745503E+04    0.20915E-03   -0.55340E-04  4323   0.141E-02    0.848E-02
RMM:   8    -0.233441736281E+04    0.92222E-04   -0.79638E-05  3214   0.657E-03    0.246E-02
RMM:   9    -0.233441734967E+04    0.13139E-04   -0.25752E-05  2974   0.490E-03    0.174E-02
RMM:  10    -0.233441734976E+04   -0.91924E-07   -0.21572E-05  2975   0.370E-03
  27 F= -.23559405E+04 E0= -.23559405E+04  d E =-.201034E-01  mag=     5.0000
       N       E                     dE             d eps       ncg     rms          rms(c)
DAV:   1    -0.233434756472E+04    0.69785E-01   -0.57236E+00  4536   0.202E+00    0.663E-01
RMM:   2    -0.233442895844E+04   -0.81394E-01   -0.86059E-01  6400   0.511E-01    0.479E-01
RMM:   3    -0.233443395887E+04   -0.50004E-02   -0.88359E-02  6036   0.181E-01    0.443E-01
RMM:   4    -0.233443183604E+04    0.21228E-02   -0.79375E-03  5767   0.400E-02    0.216E-01
RMM:   5    -0.233443146629E+04    0.36975E-03   -0.93620E-04  4926   0.167E-02    0.174E-01
RMM:   6    -0.233443139894E+04    0.67344E-04   -0.10531E-03  5149   0.190E-02    0.170E-01
RMM:   7    -0.233443108465E+04    0.31430E-03   -0.58009E-04  5154   0.150E-02    0.574E-02
RMM:   8    -0.233443104799E+04    0.36657E-04   -0.64970E-05  3220   0.641E-03    0.233E-02
RMM:   9    -0.233443104926E+04   -0.12748E-05   -0.21993E-05  2959   0.440E-03
  28 F= -.23559550E+04 E0= -.23559550E+04  d E =-.145261E-01  mag=     5.0000
       N       E                     dE             d eps       ncg     rms          rms(c)
DAV:   1    -0.233436537355E+04    0.65674E-01   -0.47135E+00  4536   0.184E+00    0.605E-01
RMM:   2    -0.233443330979E+04   -0.67936E-01   -0.71655E-01  6375   0.464E-01    0.456E-01
RMM:   3    -0.233443704516E+04   -0.37354E-02   -0.71505E-02  5952   0.164E-01    0.419E-01
RMM:   4    -0.233443509405E+04    0.19511E-02   -0.65008E-03  5649   0.365E-02    0.193E-01
RMM:   5    -0.233443481331E+04    0.28074E-03   -0.78345E-04  4858   0.153E-02    0.161E-01
RMM:   6    -0.233443474781E+04    0.65499E-04   -0.85022E-04  5013   0.170E-02    0.155E-01
RMM:   7    -0.233443448216E+04    0.26565E-03   -0.49756E-04  5022   0.140E-02    0.494E-02
RMM:   8    -0.233443445782E+04    0.24343E-04   -0.56252E-05  3157   0.624E-03    0.240E-02
RMM:   9    -0.233443445742E+04    0.39612E-06   -0.19142E-05  2956   0.421E-03
  29 F= -.23559592E+04 E0= -.23559592E+04  d E =-.186908E-01  mag=     5.0000
       N       E                     dE             d eps       ncg     rms          rms(c)
DAV:   1    -0.233434165442E+04    0.92803E-01   -0.55685E+00  4536   0.208E+00    0.720E-01
RMM:   2    -0.233444301304E+04   -0.10136E+00   -0.10521E+00  6513   0.560E-01    0.654E-01
RMM:   3    -0.233444631429E+04   -0.33013E-02   -0.10451E-01  6100   0.204E-01    0.506E-01
RMM:   4    -0.233444339742E+04    0.29169E-02   -0.95323E-03  5841   0.439E-02    0.218E-01
RMM:   5    -0.233444323724E+04    0.16018E-03   -0.11386E-03  5260   0.186E-02    0.236E-01
RMM:   6    -0.233444265532E+04    0.58192E-03   -0.99518E-04  5128   0.184E-02    0.119E-01
RMM:   7    -0.233444250568E+04    0.14963E-03   -0.67319E-04  5381   0.161E-02    0.565E-02
RMM:   8    -0.233444247054E+04    0.35139E-04   -0.90025E-05  3356   0.753E-03    0.249E-02
RMM:   9    -0.233444247520E+04   -0.46568E-05   -0.27329E-05  2958   0.460E-03
  30 F= -.23559678E+04 E0= -.23559678E+04  d E =-.861931E-02  mag=     5.0000
       N       E                     dE             d eps       ncg     rms          rms(c)
DAV:   1    -0.233444246744E+04    0.31033E-05   -0.61999E-04  5016   0.231E-02    0.131E-02
RMM:   2    -0.233444248546E+04   -0.18018E-04   -0.10988E-04  3547   0.656E-03    0.187E-02
RMM:   3    -0.233444248363E+04    0.18254E-05   -0.15855E-05  2947   0.435E-03
  31 F= -.23559678E+04 E0= -.23559678E+04  d E =-.862122E-02  mag=     5.0000
       N       E                     dE             d eps       ncg     rms          rms(c)
DAV:   1    -0.233442513867E+04    0.17347E-01   -0.13350E+00  4560   0.109E+00    0.351E-01
RMM:   2    -0.233444643895E+04   -0.21300E-01   -0.22077E-01  6429   0.268E-01    0.284E-01
RMM:   3    -0.233444763417E+04   -0.11952E-02   -0.21850E-02  5905   0.988E-02    0.242E-01
RMM:   4    -0.233444689488E+04    0.73930E-03   -0.21838E-03  5107   0.225E-02    0.992E-02
RMM:   5    -0.233444677418E+04    0.12070E-03   -0.27796E-04  4124   0.113E-02    0.695E-02
RMM:   6    -0.233444676006E+04    0.14125E-04   -0.23197E-04  3955   0.106E-02    0.717E-02
RMM:   7    -0.233444671132E+04    0.48736E-04   -0.10425E-04  3450   0.795E-03    0.240E-02
RMM:   8    -0.233444670579E+04    0.55272E-05   -0.18373E-05  3016   0.476E-03
  32 F= -.23559726E+04 E0= -.23559726E+04  d E =-.487014E-02  mag=     5.0000
       N       E                     dE             d eps       ncg     rms          rms(c)
DAV:   1    -0.233443520786E+04    0.11503E-01   -0.74400E-01  4560   0.818E-01    0.264E-01
RMM:   2    -0.233444711215E+04   -0.11904E-01   -0.12349E-01  6422   0.201E-01    0.215E-01
RMM:   3    -0.233444778400E+04   -0.67185E-03   -0.12282E-02  5651   0.730E-02    0.185E-01
RMM:   4    -0.233444736131E+04    0.42268E-03   -0.12197E-03  4188   0.171E-02    0.743E-02
RMM:   5    -0.233444732650E+04    0.34816E-04   -0.16073E-04  3611   0.888E-03    0.733E-02
RMM:   6    -0.233444727971E+04    0.46789E-04   -0.12873E-04  3224   0.833E-03    0.463E-02
RMM:   7    -0.233444725823E+04    0.21479E-04   -0.67912E-05  3320   0.720E-03    0.191E-02
RMM:   8    -0.233444725557E+04    0.26583E-05   -0.15305E-05  2955   0.503E-03
  33 F= -.23559737E+04 E0= -.23559737E+04  d E =-.590675E-02  mag=     5.0000
       N       E                     dE             d eps       ncg     rms          rms(c)
DAV:   1    -0.233444052957E+04    0.67287E-02   -0.52694E-01  4560   0.678E-01    0.211E-01
RMM:   2    -0.233444993861E+04   -0.94090E-02   -0.98304E-02  6519   0.166E-01    0.166E-01
RMM:   3    -0.233445067715E+04   -0.73854E-03   -0.10050E-02  5576   0.621E-02    0.146E-01
RMM:   4    -0.233445043585E+04    0.24130E-03   -0.99284E-04  3723   0.137E-02    0.654E-02
RMM:   5    -0.233445040321E+04    0.32642E-04   -0.89495E-05  3126   0.688E-03    0.523E-02
RMM:   6    -0.233445038552E+04    0.17693E-04   -0.77457E-05  3072   0.643E-03    0.443E-02
RMM:   7    -0.233445036490E+04    0.20619E-04   -0.56493E-05  3241   0.600E-03    0.151E-02
RMM:   8    -0.233445036307E+04    0.18304E-05   -0.98300E-06  2953   0.404E-03
  34 F= -.23559773E+04 E0= -.23559773E+04  d E =-.358868E-02  mag=     5.0000
       N       E                     dE             d eps       ncg     rms          rms(c)
DAV:   1    -0.233436682629E+04    0.83539E-01   -0.47439E+00  4536   0.204E+00    0.631E-01
RMM:   2    -0.233445200982E+04   -0.85184E-01   -0.88780E-01  6549   0.499E-01    0.515E-01
RMM:   3    -0.233445851340E+04   -0.65036E-02   -0.92849E-02  6202   0.185E-01    0.446E-01
RMM:   4    -0.233445629721E+04    0.22162E-02   -0.90195E-03  5998   0.404E-02    0.201E-01
RMM:   5    -0.233445602750E+04    0.26972E-03   -0.79870E-04  4537   0.170E-02    0.167E-01
RMM:   6    -0.233445579765E+04    0.22984E-03   -0.70238E-04  4674   0.162E-02    0.128E-01
RMM:   7    -0.233445562554E+04    0.17211E-03   -0.53153E-04  4897   0.142E-02    0.529E-02
RMM:   8    -0.233445560179E+04    0.23746E-04   -0.88969E-05  3203   0.796E-03    0.330E-02
RMM:   9    -0.233445559471E+04    0.70835E-05   -0.25012E-05  3029   0.423E-03
  35 F= -.23559840E+04 E0= -.23559840E+04  d E =-.102723E-01  mag=     5.0000
       N       E                     dE             d eps       ncg     rms          rms(c)
DAV:   1    -0.233408830688E+04    0.36729E+00   -0.18968E+01  4536   0.408E+00    0.127E+00
RMM:   2    -0.233443384582E+04   -0.34554E+00   -0.35996E+00  6598   0.101E+00    0.107E+00
RMM:   3    -0.233446014021E+04   -0.26294E-01   -0.39407E-01  6287   0.371E-01    0.909E-01
RMM:   4    -0.233445108101E+04    0.90592E-02   -0.36483E-02  6287   0.807E-02    0.420E-01
RMM:   5    -0.233444990433E+04    0.11767E-02   -0.32475E-03  5383   0.338E-02    0.348E-01
RMM:   6    -0.233444886662E+04    0.10377E-02   -0.29622E-03  5530   0.312E-02    0.262E-01
RMM:   7    -0.233444814834E+04    0.71828E-03   -0.23508E-03  5395   0.277E-02    0.118E-01
RMM:   8    -0.233444805326E+04    0.95079E-04   -0.45972E-04  4397   0.155E-02    0.828E-02
RMM:   9    -0.233444800407E+04    0.49193E-04   -0.14189E-04  3331   0.730E-03    0.554E-02
RMM:  10    -0.233444796716E+04    0.36905E-04   -0.63900E-05  3045   0.628E-03    0.222E-02
RMM:  11    -0.233444796577E+04    0.13872E-05   -0.26885E-05  2969   0.394E-03
  36 F= -.23559793E+04 E0= -.23559793E+04  d E =-.558257E-02  mag=     5.0000
       N       E                     dE             d eps       ncg     rms          rms(c)
DAV:   1    -0.233428478063E+04    0.16319E+00   -0.91238E+00  4536   0.283E+00    0.878E-01
RMM:   2    -0.233444891267E+04   -0.16413E+00   -0.17064E+00  6610   0.697E-01    0.751E-01
RMM:   3    -0.233446160839E+04   -0.12696E-01   -0.18332E-01  6349   0.251E-01    0.632E-01
RMM:   4    -0.233445718807E+04    0.44203E-02   -0.17419E-02  6188   0.562E-02    0.281E-01
RMM:   5    -0.233445650323E+04    0.68484E-03   -0.17474E-03  5103   0.229E-02    0.208E-01
RMM:   6    -0.233445632345E+04    0.17978E-03   -0.14009E-03  5335   0.218E-02    0.204E-01
RMM:   7    -0.233445587887E+04    0.44458E-03   -0.98639E-04  5195   0.189E-02    0.660E-02
RMM:   8    -0.233445583224E+04    0.46632E-04   -0.14769E-04  3393   0.948E-03    0.353E-02
RMM:   9    -0.233445583389E+04   -0.16493E-05   -0.47780E-05  3043   0.584E-03
  37 F= -.23559851E+04 E0= -.23559851E+04  d E =-.114079E-01  mag=     5.0000
       N       E                     dE             d eps       ncg     rms          rms(c)
DAV:   1    -0.233442611736E+04    0.29715E-01   -0.17093E+00  4536   0.119E+00    0.386E-01
RMM:   2    -0.233445843014E+04   -0.32313E-01   -0.33835E-01  6522   0.300E-01    0.278E-01
RMM:   3    -0.233446128104E+04   -0.28509E-02   -0.35231E-02  6089   0.111E-01    0.261E-01
RMM:   4    -0.233446054774E+04    0.73330E-03   -0.34283E-03  5153   0.244E-02    0.124E-01
RMM:   5    -0.233446040381E+04    0.14392E-03   -0.29928E-04  3651   0.112E-02    0.938E-02
RMM:   6    -0.233446034850E+04    0.55315E-04   -0.29148E-04  3754   0.112E-02    0.835E-02
RMM:   7    -0.233446026255E+04    0.85949E-04   -0.19382E-04  4192   0.939E-03    0.272E-02
RMM:   8    -0.233446025671E+04    0.58377E-05   -0.28606E-05  2988   0.580E-03
  38 F= -.23559903E+04 E0= -.23559903E+04  d E =-.523846E-02  mag=     5.0000
       N       E                     dE             d eps       ncg     rms          rms(c)
DAV:   1    -0.233439695382E+04    0.63309E-01   -0.32189E+00  4536   0.164E+00    0.537E-01
RMM:   2    -0.233445832960E+04   -0.61376E-01   -0.64160E-01  6512   0.412E-01    0.416E-01
RMM:   3    -0.233446354854E+04   -0.52189E-02   -0.67525E-02  6192   0.154E-01    0.378E-01
RMM:   4    -0.233446196509E+04    0.15834E-02   -0.66075E-03  5823   0.341E-02    0.168E-01
RMM:   5    -0.233446174647E+04    0.21862E-03   -0.59721E-04  4284   0.150E-02    0.139E-01
RMM:   6    -0.233446158652E+04    0.15995E-03   -0.51115E-04  4439   0.140E-02    0.107E-01
RMM:   7    -0.233446145042E+04    0.13610E-03   -0.35839E-04  4742   0.120E-02    0.376E-02
RMM:   8    -0.233446143923E+04    0.11192E-04   -0.52361E-05  3051   0.707E-03    0.279E-02
RMM:   9    -0.233446143171E+04    0.75163E-05   -0.16869E-05  2966   0.363E-03
  39 F= -.23559926E+04 E0= -.23559926E+04  d E =-.754472E-02  mag=     5.0000
       N       E                     dE             d eps       ncg     rms          rms(c)
DAV:   1    -0.233442988799E+04    0.31551E-01   -0.17242E+00  4560   0.114E+00    0.387E-01
RMM:   2    -0.233446308402E+04   -0.33196E-01   -0.34888E-01  6573   0.291E-01    0.276E-01
RMM:   3    -0.233446624066E+04   -0.31566E-02   -0.37360E-02  6082   0.113E-01    0.254E-01
RMM:   4    -0.233446558130E+04    0.65936E-03   -0.35447E-03  4773   0.242E-02    0.121E-01
RMM:   5    -0.233446543520E+04    0.14611E-03   -0.29881E-04  3540   0.110E-02    0.877E-02
RMM:   6    -0.233446540587E+04    0.29329E-04   -0.25912E-04  3661   0.104E-02    0.862E-02
RMM:   7    -0.233446531502E+04    0.90851E-04   -0.18613E-04  4027   0.909E-03    0.238E-02
RMM:   8    -0.233446531248E+04    0.25398E-05   -0.25287E-05  2982   0.553E-03
  40 F= -.23559971E+04 E0= -.23559971E+04  d E =-.449082E-02  mag=     5.0000
       N       E                     dE             d eps       ncg     rms          rms(c)
DAV:   1    -0.233434003130E+04    0.12528E+00   -0.61481E+00  4536   0.216E+00    0.734E-01
RMM:   2    -0.233445890909E+04   -0.11888E+00   -0.12492E+00  6583   0.553E-01    0.529E-01
RMM:   3    -0.233447043027E+04   -0.11521E-01   -0.14064E-01  6217   0.213E-01    0.476E-01
RMM:   4    -0.233446818435E+04    0.22459E-02   -0.12743E-02  5970   0.454E-02    0.238E-01
RMM:   5    -0.233446766771E+04    0.51663E-03   -0.10455E-03  4538   0.189E-02    0.175E-01
RMM:   6    -0.233446750765E+04    0.16006E-03   -0.96089E-04  4925   0.176E-02    0.163E-01
RMM:   7    -0.233446716924E+04    0.33841E-03   -0.70798E-04  5109   0.155E-02    0.484E-02
RMM:   8    -0.233446716332E+04    0.59212E-05   -0.10455E-04  3148   0.863E-03    0.479E-02
RMM:   9    -0.233446713948E+04    0.23837E-04   -0.35692E-05  3015   0.496E-03    0.242E-02
RMM:  10    -0.233446713231E+04    0.71727E-05   -0.19285E-05  2949   0.377E-03
  41 F= -.23560001E+04 E0= -.23560001E+04  d E =-.749700E-02  mag=     5.0000
       N       E                     dE             d eps       ncg     rms          rms(c)
DAV:   1    -0.233444291958E+04    0.24220E-01   -0.13147E+00  4560   0.970E-01    0.334E-01
RMM:   2    -0.233446849342E+04   -0.25574E-01   -0.27067E-01  6600   0.252E-01    0.212E-01
RMM:   3    -0.233447112582E+04   -0.26324E-02   -0.30333E-02  5859   0.978E-02    0.192E-01
RMM:   4    -0.233447085731E+04    0.26851E-03   -0.27405E-03  4098   0.203E-02    0.110E-01
RMM:   5    -0.233447072126E+04    0.13605E-03   -0.21003E-04  3331   0.960E-03    0.699E-02
RMM:   6    -0.233447072653E+04   -0.52689E-05   -0.21852E-04  3738   0.968E-03    0.806E-02
RMM:   7    -0.233447064912E+04    0.77408E-04   -0.11303E-04  3337   0.759E-03    0.197E-02
RMM:   8    -0.233447064818E+04    0.94448E-06   -0.18917E-05  2972   0.488E-03
  42 F= -.23560042E+04 E0= -.23560042E+04  d E =-.402448E-02  mag=     5.0000
       N       E                     dE             d eps       ncg     rms          rms(c)
DAV:   1    -0.233426634400E+04    0.20431E+00   -0.97230E+00  4536   0.264E+00    0.918E-01
RMM:   2    -0.233445798142E+04   -0.19164E+00   -0.20250E+00  6624   0.696E-01    0.619E-01
RMM:   3    -0.233447754837E+04   -0.19567E-01   -0.23465E-01  6216   0.268E-01    0.551E-01
RMM:   4    -0.233447510063E+04    0.24477E-02   -0.20475E-02  6071   0.565E-02    0.313E-01
RMM:   5    -0.233447411736E+04    0.98327E-03   -0.16504E-03  4907   0.230E-02    0.208E-01
RMM:   6    -0.233447404554E+04    0.71821E-04   -0.18224E-03  5383   0.233E-02    0.222E-01
RMM:   7    -0.233447343914E+04    0.60640E-03   -0.94386E-04  5226   0.177E-02    0.658E-02
RMM:   8    -0.233447343219E+04    0.69518E-05   -0.18462E-04  3432   0.960E-03    0.635E-02
RMM:   9    -0.233447339521E+04    0.36982E-04   -0.65880E-05  3104   0.630E-03    0.371E-02
RMM:  10    -0.233447338243E+04    0.12774E-04   -0.30131E-05  2987   0.442E-03    0.174E-02
RMM:  11    -0.233447338027E+04    0.21586E-05   -0.13790E-05  2953   0.318E-03
  43 F= -.23560083E+04 E0= -.23560083E+04  d E =-.819574E-02  mag=     5.0000
       N       E                     dE             d eps       ncg     rms          rms(c)
DAV:   1    -0.233444292692E+04    0.30456E-01   -0.16121E+00  4560   0.106E+00    0.365E-01
RMM:   2    -0.233447436121E+04   -0.31434E-01   -0.33487E-01  6591   0.278E-01    0.207E-01
RMM:   3    -0.233447762841E+04   -0.32672E-02   -0.38607E-02  5854   0.111E-01    0.168E-01
RMM:   4    -0.233447761117E+04    0.17239E-04   -0.33338E-03  3954   0.219E-02    0.131E-01
RMM:   5    -0.233447741980E+04    0.19137E-03   -0.29333E-04  3686   0.105E-02    0.806E-02
RMM:   6    -0.233447740335E+04    0.16449E-04   -0.29179E-04  4013   0.104E-02    0.826E-02
RMM:   7    -0.233447732360E+04    0.79746E-04   -0.13604E-04  3619   0.778E-03    0.251E-02
RMM:   8    -0.233447731882E+04    0.47865E-05   -0.23574E-05  3042   0.511E-03
  44 F= -.23560126E+04 E0= -.23560126E+04  d E =-.423584E-02  mag=     5.0000
       N       E                     dE             d eps       ncg     rms          rms(c)
DAV:   1    -0.233424953856E+04    0.22779E+00   -0.10718E+01  4536   0.273E+00    0.952E-01
RMM:   2    -0.233446178065E+04   -0.21224E+00   -0.22578E+00  6605   0.730E-01    0.579E-01
RMM:   3    -0.233448336752E+04   -0.21587E-01   -0.26253E-01  6098   0.279E-01    0.475E-01
RMM:   4    -0.233448254383E+04    0.82369E-03   -0.22338E-02  5683   0.580E-02    0.347E-01
RMM:   5    -0.233448124210E+04    0.13017E-02   -0.19787E-03  5104   0.242E-02    0.216E-01
RMM:   6    -0.233448101670E+04    0.22540E-03   -0.21708E-03  5528   0.250E-02    0.212E-01
RMM:   7    -0.233448052500E+04    0.49170E-03   -0.91391E-04  5458   0.174E-02    0.819E-02
RMM:   8    -0.233448047842E+04    0.46577E-04   -0.21843E-04  3605   0.911E-03    0.586E-02
RMM:   9    -0.233448045416E+04    0.24260E-04   -0.80450E-05  3081   0.699E-03    0.455E-02
RMM:  10    -0.233448043455E+04    0.19612E-04   -0.34475E-05  3011   0.439E-03    0.203E-02
RMM:  11    -0.233448043166E+04    0.28953E-05   -0.15138E-05  2963   0.329E-03
  45 F= -.23560165E+04 E0= -.23560165E+04  d E =-.819836E-02  mag=     5.0000
       N       E                     dE             d eps       ncg     rms          rms(c)
DAV:   1    -0.233446297268E+04    0.17462E-01   -0.97503E-01  4656   0.793E-01    0.274E-01
RMM:   2    -0.233448187761E+04   -0.18905E-01   -0.20129E-01  6661   0.211E-01    0.159E-01
RMM:   3    -0.233448379315E+04   -0.19155E-02   -0.22324E-02  5546   0.807E-02    0.134E-01
RMM:   4    -0.233448376363E+04    0.29521E-04   -0.19576E-03  3539   0.164E-02    0.995E-02
RMM:   5    -0.233448365396E+04    0.10967E-03   -0.15926E-04  3246   0.795E-03    0.629E-02
RMM:   6    -0.233448364059E+04    0.13368E-04   -0.16490E-04  3377   0.779E-03    0.631E-02
RMM:   7    -0.233448359403E+04    0.46563E-04   -0.84737E-05  3237   0.654E-03    0.175E-02
RMM:   8    -0.233448359221E+04    0.18227E-05   -0.13994E-05  2981   0.419E-03
  46 F= -.23560198E+04 E0= -.23560198E+04  d E =-.330768E-02  mag=     5.0000
       N       E                     dE             d eps       ncg     rms          rms(c)
DAV:   1    -0.233430324451E+04    0.18035E+00   -0.87605E+00  4536   0.238E+00    0.830E-01
RMM:   2    -0.233447493161E+04   -0.17169E+00   -0.18260E+00  6668   0.639E-01    0.509E-01
RMM:   3    -0.233449225162E+04   -0.17320E-01   -0.20735E-01  6134   0.239E-01    0.422E-01
RMM:   4    -0.233449167191E+04    0.57971E-03   -0.17801E-02  5410   0.501E-02    0.309E-01
RMM:   5    -0.233449068444E+04    0.98746E-03   -0.15367E-03  4874   0.205E-02    0.200E-01
RMM:   6    -0.233449050588E+04    0.17856E-03   -0.15931E-03  5199   0.208E-02    0.195E-01
RMM:   7    -0.233449006086E+04    0.44502E-03   -0.81431E-04  5199   0.155E-02    0.677E-02
RMM:   8    -0.233449003357E+04    0.27287E-04   -0.16527E-04  3469   0.841E-03    0.506E-02
RMM:   9    -0.233449001819E+04    0.15380E-04   -0.64554E-05  3068   0.608E-03    0.406E-02
RMM:  10    -0.233449000336E+04    0.14833E-04   -0.26467E-05  2981   0.377E-03    0.180E-02
RMM:  11    -0.233449000151E+04    0.18471E-05   -0.10909E-05  2912   0.266E-03
  47 F= -.23560268E+04 E0= -.23560268E+04  d E =-.102278E-01  mag=     5.0000
       N       E                     dE             d eps       ncg     rms          rms(c)
DAV:   1    -0.233372585648E+04    0.76415E+00   -0.34981E+01  4536   0.476E+00    0.168E+00
RMM:   2    -0.233443317015E+04   -0.70731E+00   -0.75028E+00  6694   0.131E+00    0.111E+00
RMM:   3    -0.233449897228E+04   -0.65802E-01   -0.84102E-01  6221   0.483E-01    0.881E-01
RMM:   4    -0.233449517082E+04    0.38015E-02   -0.70868E-02  5879   0.102E-01    0.634E-01
RMM:   5    -0.233449109667E+04    0.40741E-02   -0.60737E-03  5462   0.396E-02    0.412E-01
RMM:   6    -0.233448989805E+04    0.11986E-02   -0.68758E-03  5789   0.411E-02    0.375E-01
RMM:   7    -0.233448840871E+04    0.14893E-02   -0.32562E-03  5847   0.297E-02    0.152E-01
RMM:   8    -0.233448831062E+04    0.98088E-04   -0.82735E-04  4874   0.159E-02    0.124E-01
RMM:   9    -0.233448819861E+04    0.11201E-03   -0.29462E-04  3296   0.108E-02    0.908E-02
RMM:  10    -0.233448812421E+04    0.74402E-04   -0.12511E-04  3193   0.710E-03    0.425E-02
RMM:  11    -0.233448811113E+04    0.13083E-04   -0.52789E-05  3046   0.511E-03    0.154E-02
RMM:  12    -0.233448811781E+04   -0.66822E-05   -0.19850E-05  2984   0.360E-03
  48 F= -.23560262E+04 E0= -.23560262E+04  d E =-.963670E-02  mag=     5.0000
       N       E                     dE             d eps       ncg     rms          rms(c)
DAV:   1    -0.233427329075E+04    0.21482E+00   -0.10231E+01  4536   0.257E+00    0.895E-01
RMM:   2    -0.233447316747E+04   -0.19988E+00   -0.21318E+00  6692   0.693E-01    0.529E-01
RMM:   3    -0.233449367917E+04   -0.20512E-01   -0.24630E-01  6054   0.258E-01    0.441E-01
RMM:   4    -0.233449364366E+04    0.35510E-04   -0.20580E-02  5789   0.516E-02    0.336E-01
RMM:   5    -0.233449244249E+04    0.12012E-02   -0.17057E-03  5011   0.221E-02    0.210E-01
RMM:   6    -0.233449220404E+04    0.23845E-03   -0.21840E-03  5551   0.235E-02    0.212E-01
RMM:   7    -0.233449172513E+04    0.47891E-03   -0.81705E-04  5010   0.163E-02    0.694E-02
RMM:   8    -0.233449168108E+04    0.44051E-04   -0.14547E-04  3196   0.846E-03    0.392E-02
RMM:   9    -0.233449167962E+04    0.14525E-05   -0.63698E-05  3158   0.560E-03
  49 F= -.23560290E+04 E0= -.23560290E+04  d E =-.124590E-01  mag=     5.0000
       N       E                     dE             d eps       ncg     rms          rms(c)
DAV:   1    -0.233444881446E+04    0.42867E-01   -0.24090E+00  4548   0.123E+00    0.427E-01
RMM:   2    -0.233449369215E+04   -0.44878E-01   -0.47928E-01  6615   0.332E-01    0.241E-01
RMM:   3    -0.233449796984E+04   -0.42777E-02   -0.51848E-02  5942   0.122E-01    0.198E-01
RMM:   4    -0.233449800112E+04   -0.31282E-04   -0.45494E-03  4432   0.244E-02    0.164E-01
RMM:   5    -0.233449769160E+04    0.30952E-03   -0.40797E-04  3838   0.122E-02    0.979E-02
RMM:   6    -0.233449764218E+04    0.49421E-04   -0.48346E-04  4639   0.127E-02    0.966E-02
RMM:   7    -0.233449754727E+04    0.94909E-04   -0.18125E-04  3406   0.867E-03    0.333E-02
RMM:   8    -0.233449753683E+04    0.10439E-04   -0.34261E-05  3102   0.514E-03    0.159E-02
RMM:   9    -0.233449753299E+04    0.38395E-05   -0.95540E-06  2938   0.316E-03
  50 F= -.23560349E+04 E0= -.23560349E+04  d E =-.592215E-02  mag=     5.0000
       N       E                     dE             d eps       ncg     rms          rms(c)
DAV:   1    -0.233435582156E+04    0.14172E+00   -0.71537E+00  4536   0.212E+00    0.740E-01
RMM:   2    -0.233448959149E+04   -0.13377E+00   -0.14315E+00  6612   0.573E-01    0.426E-01
RMM:   3    -0.233450253752E+04   -0.12946E-01   -0.15780E-01  6087   0.212E-01    0.347E-01
RMM:   4    -0.233450256285E+04   -0.25336E-04   -0.13637E-02  5697   0.426E-02    0.282E-01
RMM:   5    -0.233450173990E+04    0.82295E-03   -0.12554E-03  4826   0.193E-02    0.176E-01
RMM:   6    -0.233450152704E+04    0.21286E-03   -0.14944E-03  5402   0.207E-02    0.154E-01
RMM:   7    -0.233450130500E+04    0.22204E-03   -0.53334E-04  4346   0.140E-02    0.757E-02
RMM:   8    -0.233450124997E+04    0.55028E-04   -0.12986E-04  3405   0.735E-03    0.348E-02
RMM:   9    -0.233450123377E+04    0.16203E-04   -0.37304E-05  3033   0.547E-03    0.230E-02
RMM:  10    -0.233450123303E+04    0.74018E-06   -0.20509E-05  2937   0.359E-03
  51 F= -.23560388E+04 E0= -.23560388E+04  d E =-.977619E-02  mag=     5.0000
       N       E                     dE             d eps       ncg     rms          rms(c)
DAV:   1    -0.233444862549E+04    0.52608E-01   -0.30684E+00  4560   0.138E+00    0.471E-01
RMM:   2    -0.233450267899E+04   -0.54054E-01   -0.57687E-01  6566   0.367E-01    0.296E-01
RMM:   3    -0.233450781843E+04   -0.51394E-02   -0.60982E-02  6075   0.136E-01    0.281E-01
RMM:   4    -0.233450730564E+04    0.51279E-03   -0.55034E-03  4980   0.280E-02    0.172E-01
RMM:   5    -0.233450696780E+04    0.33784E-03   -0.51660E-04  4109   0.135E-02    0.111E-01
RMM:   6    -0.233450694034E+04    0.27465E-04   -0.55353E-04  4667   0.132E-02    0.119E-01
RMM:   7    -0.233450678697E+04    0.15337E-03   -0.26716E-04  3855   0.994E-03    0.327E-02
RMM:   8    -0.233450677735E+04    0.96163E-05   -0.40514E-05  3141   0.557E-03
  52 F= -.23560443E+04 E0= -.23560443E+04  d E =-.551139E-02  mag=     5.0000
       N       E                     dE             d eps       ncg     rms          rms(c)
DAV:   1    -0.233438796866E+04    0.11882E+00   -0.63836E+00  4536   0.200E+00    0.683E-01
RMM:   2    -0.233450064485E+04   -0.11268E+00   -0.12033E+00  6551   0.533E-01    0.430E-01
RMM:   3    -0.233451160910E+04   -0.10964E-01   -0.12990E-01  6145   0.196E-01    0.413E-01
RMM:   4    -0.233451048006E+04    0.11290E-02   -0.11543E-02  5755   0.407E-02    0.253E-01
RMM:   5    -0.233450978199E+04    0.69807E-03   -0.10612E-03  4623   0.187E-02    0.164E-01
RMM:   6    -0.233450971042E+04    0.71579E-04   -0.12402E-03  5241   0.188E-02    0.175E-01
RMM:   7    -0.233450936949E+04    0.34093E-03   -0.58686E-04  4638   0.140E-02    0.526E-02
RMM:   8    -0.233450934491E+04    0.24576E-04   -0.10002E-04  3344   0.711E-03    0.300E-02
RMM:   9    -0.233450933495E+04    0.99563E-05   -0.32237E-05  3030   0.509E-03
  53 F= -.23560468E+04 E0= -.23560468E+04  d E =-.802725E-02  mag=     5.0000
       N       E                     dE             d eps       ncg     rms          rms(c)
DAV:   1    -0.233446338124E+04    0.45964E-01   -0.28645E+00  4560   0.133E+00    0.441E-01
RMM:   2    -0.233451136541E+04   -0.47984E-01   -0.50755E-01  6619   0.347E-01    0.314E-01
RMM:   3    -0.233451588445E+04   -0.45190E-02   -0.53469E-02  6116   0.129E-01    0.308E-01
RMM:   4    -0.233451502288E+04    0.86157E-03   -0.49467E-03  4983   0.275E-02    0.155E-01
RMM:   5    -0.233451476342E+04    0.25946E-03   -0.46200E-04  3876   0.125E-02    0.109E-01
RMM:   6    -0.233451472512E+04    0.38305E-04   -0.46657E-04  4332   0.123E-02    0.112E-01
RMM:   7    -0.233451459229E+04    0.13283E-03   -0.26920E-04  4025   0.988E-03    0.277E-02
RMM:   8    -0.233451458597E+04    0.63256E-05   -0.34344E-05  3129   0.555E-03
  54 F= -.23560517E+04 E0= -.23560517E+04  d E =-.490988E-02  mag=     5.0000
       N       E                     dE             d eps       ncg     rms          rms(c)
DAV:   1    -0.233432648993E+04    0.18810E+00   -0.10687E+01  4536   0.257E+00    0.851E-01
RMM:   2    -0.233450646089E+04   -0.17997E+00   -0.19030E+00  6648   0.673E-01    0.605E-01
RMM:   3    -0.233452370737E+04   -0.17246E-01   -0.20424E-01  6287   0.242E-01    0.601E-01
RMM:   4    -0.233452040063E+04    0.33067E-02   -0.18575E-02  6014   0.532E-02    0.310E-01
RMM:   5    -0.233451940043E+04    0.10002E-02   -0.16888E-03  4818   0.230E-02    0.220E-01
RMM:   6    -0.233451923414E+04    0.16630E-03   -0.19524E-03  5421   0.235E-02    0.221E-01
RMM:   7    -0.233451865872E+04    0.57541E-03   -0.10627E-03  5119   0.179E-02    0.576E-02
RMM:   8    -0.233451863198E+04    0.26748E-04   -0.14627E-04  3396   0.914E-03    0.439E-02
RMM:   9    -0.233451862013E+04    0.11845E-04   -0.58146E-05  3081   0.588E-03    0.376E-02
RMM:  10    -0.233451860816E+04    0.11971E-04   -0.29456E-05  2974   0.400E-03    0.179E-02
RMM:  11    -0.233451860759E+04    0.56734E-06   -0.11393E-05  2942   0.262E-03
  55 F= -.23560550E+04 E0= -.23560550E+04  d E =-.825746E-02  mag=     5.0000
       N       E                     dE             d eps       ncg     rms          rms(c)
DAV:   1    -0.233447122330E+04    0.47385E-01   -0.32395E+00  4560   0.145E+00    0.477E-01
RMM:   2    -0.233452200610E+04   -0.50783E-01   -0.52951E-01  6560   0.367E-01    0.377E-01
RMM:   3    -0.233452634206E+04   -0.43360E-02   -0.55376E-02  6193   0.134E-01    0.351E-01
RMM:   4    -0.233452501686E+04    0.13252E-02   -0.52702E-03  5606   0.301E-02    0.160E-01
RMM:   5    -0.233452473212E+04    0.28475E-03   -0.59943E-04  4295   0.141E-02    0.118E-01
RMM:   6    -0.233452468192E+04    0.50191E-04   -0.54490E-04  4480   0.136E-02    0.115E-01
RMM:   7    -0.233452453995E+04    0.14197E-03   -0.27300E-04  4227   0.104E-02    0.234E-02
RMM:   8    -0.233452453451E+04    0.54413E-05   -0.27747E-05  3065   0.561E-03
  56 F= -.23560603E+04 E0= -.23560603E+04  d E =-.523553E-02  mag=     5.0000
       N       E                     dE             d eps       ncg     rms          rms(c)
DAV:   1    -0.233445124374E+04    0.73296E-01   -0.45795E+00  4536   0.172E+00    0.570E-01
RMM:   2    -0.233452327745E+04   -0.72034E-01   -0.75107E-01  6562   0.436E-01    0.456E-01
RMM:   3    -0.233452940084E+04   -0.61234E-02   -0.79464E-02  6218   0.159E-01    0.423E-01
RMM:   4    -0.233452746366E+04    0.19372E-02   -0.75052E-03  5864   0.358E-02    0.191E-01
RMM:   5    -0.233452708688E+04    0.37678E-03   -0.84691E-04  4501   0.166E-02    0.147E-01
RMM:   6    -0.233452698315E+04    0.10373E-03   -0.77863E-04  4828   0.158E-02    0.133E-01
RMM:   7    -0.233452679051E+04    0.19264E-03   -0.39624E-04  4567   0.121E-02    0.301E-02
RMM:   8    -0.233452678168E+04    0.88317E-05   -0.43741E-05  3132   0.663E-03
  57 F= -.23560617E+04 E0= -.23560617E+04  d E =-.665180E-02  mag=     5.0000
       N       E                     dE             d eps       ncg     rms          rms(c)
DAV:   1    -0.233445935369E+04    0.67437E-01   -0.48488E+00  4536   0.177E+00    0.566E-01
RMM:   2    -0.233452970517E+04   -0.70351E-01   -0.73173E-01  6566   0.436E-01    0.466E-01
RMM:   3    -0.233453507702E+04   -0.53718E-02   -0.74397E-02  6207   0.155E-01    0.422E-01
RMM:   4    -0.233453313149E+04    0.19455E-02   -0.72003E-03  5782   0.353E-02    0.189E-01
RMM:   5    -0.233453280946E+04    0.32202E-03   -0.87061E-04  4427   0.162E-02    0.157E-01
RMM:   6    -0.233453262973E+04    0.17973E-03   -0.75155E-04  4811   0.153E-02    0.122E-01
RMM:   7    -0.233453247120E+04    0.15854E-03   -0.37926E-04  4548   0.118E-02    0.286E-02
RMM:   8    -0.233453246161E+04    0.95820E-05   -0.37668E-05  3099   0.647E-03
  58 F= -.23560663E+04 E0= -.23560663E+04  d E =-.461177E-02  mag=     5.0000
       N       E                     dE             d eps       ncg     rms          rms(c)
DAV:   1    -0.233449490308E+04    0.37568E-01   -0.25794E+00  4560   0.129E+00    0.414E-01
RMM:   2    -0.233453238784E+04   -0.37485E-01   -0.38950E-01  6547   0.318E-01    0.346E-01
RMM:   3    -0.233453511507E+04   -0.27272E-02   -0.39149E-02  6104   0.113E-01    0.307E-01
RMM:   4    -0.233453408404E+04    0.10310E-02   -0.38311E-03  5128   0.258E-02    0.137E-01
RMM:   5    -0.233453391601E+04    0.16803E-03   -0.46634E-04  3929   0.121E-02    0.115E-01
RMM:   6    -0.233453381353E+04    0.10248E-03   -0.39291E-04  4100   0.116E-02    0.870E-02
RMM:   7    -0.233453373339E+04    0.80144E-04   -0.20414E-04  4040   0.930E-03    0.196E-02
RMM:   8    -0.233453372848E+04    0.49059E-05   -0.19720E-05  3032   0.528E-03
  59 F= -.23560668E+04 E0= -.23560668E+04  d E =-.509153E-02  mag=     5.0000
       N       E                     dE             d eps       ncg     rms          rms(c)
DAV:   1    -0.233448508422E+04    0.48649E-01   -0.44548E+00  4536   0.174E+00    0.522E-01
RMM:   2    -0.233453832046E+04   -0.53236E-01   -0.54924E-01  6440   0.400E-01    0.440E-01
RMM:   3    -0.233454196497E+04   -0.36445E-02   -0.54425E-02  6113   0.141E-01    0.394E-01
RMM:   4    -0.233454015135E+04    0.18136E-02   -0.54479E-03  5811   0.328E-02    0.171E-01
RMM:   5    -0.233453990792E+04    0.24343E-03   -0.78835E-04  4567   0.164E-02    0.148E-01
RMM:   6    -0.233453974640E+04    0.16152E-03   -0.68243E-04  4687   0.156E-02    0.107E-01
RMM:   7    -0.233453962713E+04    0.11928E-03   -0.27744E-04  4336   0.111E-02    0.234E-02
RMM:   8    -0.233453962067E+04    0.64529E-05   -0.24660E-05  2968   0.619E-03
  60 F= -.23560717E+04 E0= -.23560717E+04  d E =-.488466E-02  mag=     5.0000
       N       E                     dE             d eps       ncg     rms          rms(c)
DAV:   1    -0.233451863468E+04    0.20992E-01   -0.18159E+00  4560   0.111E+00    0.336E-01
RMM:   2    -0.233454042985E+04   -0.21795E-01   -0.22413E-01  6443   0.255E-01    0.293E-01
RMM:   3    -0.233454180528E+04   -0.13754E-02   -0.22049E-02  5973   0.899E-02    0.252E-01
RMM:   4    -0.233454105371E+04    0.75158E-03   -0.22198E-03  4781   0.212E-02    0.108E-01
RMM:   5    -0.233454095421E+04    0.99503E-04   -0.32534E-04  3910   0.111E-02    0.942E-02
RMM:   6    -0.233454089035E+04    0.63854E-04   -0.27202E-04  3644   0.106E-02    0.677E-02
RMM:   7    -0.233454084465E+04    0.45698E-04   -0.11601E-04  3557   0.818E-03    0.155E-02
RMM:   8    -0.233454084186E+04    0.27893E-05   -0.12828E-05  2966   0.496E-03
  61 F= -.23560722E+04 E0= -.23560722E+04  d E =-.545206E-02  mag=     5.0000
       N       E                     dE             d eps       ncg     rms          rms(c)
DAV:   1    -0.233449621401E+04    0.44631E-01   -0.47086E+00  4536   0.177E+00    0.514E-01
RMM:   2    -0.233454555054E+04   -0.49337E-01   -0.51437E-01  6334   0.400E-01    0.378E-01
RMM:   3    -0.233454909312E+04   -0.35426E-02   -0.50200E-02  6068   0.139E-01    0.376E-01
RMM:   4    -0.233454752014E+04    0.15730E-02   -0.49938E-03  5798   0.319E-02    0.172E-01
RMM:   5    -0.233454721047E+04    0.30967E-03   -0.78146E-04  4606   0.166E-02    0.128E-01
RMM:   6    -0.233454718273E+04    0.27741E-04   -0.68886E-04  4709   0.156E-02    0.124E-01
RMM:   7    -0.233454701945E+04    0.16329E-03   -0.25649E-04  4192   0.109E-02    0.248E-02
RMM:   8    -0.233454701106E+04    0.83857E-05   -0.26171E-05  2982   0.565E-03
  62 F= -.23560774E+04 E0= -.23560774E+04  d E =-.519420E-02  mag=     5.0000
       N       E                     dE             d eps       ncg     rms          rms(c)
DAV:   1    -0.233451559593E+04    0.31424E-01   -0.30379E+00  4536   0.142E+00    0.416E-01
RMM:   2    -0.233454754430E+04   -0.31948E-01   -0.33248E-01  6367   0.322E-01    0.314E-01
RMM:   3    -0.233454978287E+04   -0.22386E-02   -0.32284E-02  6025   0.111E-01    0.309E-01
RMM:   4    -0.233454869975E+04    0.10831E-02   -0.32607E-03  5422   0.260E-02    0.137E-01
RMM:   5    -0.233454850203E+04    0.19772E-03   -0.51180E-04  4356   0.137E-02    0.103E-01
RMM:   6    -0.233454847841E+04    0.23628E-04   -0.43455E-04  4224   0.128E-02    0.971E-02
RMM:   7    -0.233454837850E+04    0.99902E-04   -0.16435E-04  3779   0.918E-03    0.206E-02
RMM:   8    -0.233454837298E+04    0.55247E-05   -0.18922E-05  2978   0.517E-03
  63 F= -.23560780E+04 E0= -.23560780E+04  d E =-.575904E-02  mag=     5.0000
       N       E                     dE             d eps       ncg     rms          rms(c)
DAV:   1    -0.233453011051E+04    0.18268E-01   -0.23022E+00  4548   0.120E+00    0.345E-01
RMM:   2    -0.233455242647E+04   -0.22316E-01   -0.23130E-01  6418   0.268E-01    0.268E-01
RMM:   3    -0.233455388736E+04   -0.14609E-02   -0.22079E-02  5980   0.900E-02    0.258E-01
RMM:   4    -0.233455313188E+04    0.75548E-03   -0.22150E-03  4648   0.213E-02    0.115E-01
RMM:   5    -0.233455299479E+04    0.13709E-03   -0.36374E-04  4027   0.117E-02    0.860E-02
RMM:   6    -0.233455298339E+04    0.11405E-04   -0.31229E-04  3761   0.110E-02    0.812E-02
RMM:   7    -0.233455291555E+04    0.67838E-04   -0.11101E-04  3367   0.800E-03    0.181E-02
RMM:   8    -0.233455291171E+04    0.38350E-05   -0.14438E-05  2974   0.461E-03
  64 F= -.23560816E+04 E0= -.23560816E+04  d E =-.363368E-02  mag=     5.0000
       N       E                     dE             d eps       ncg     rms          rms(c)
DAV:   1    -0.233449301664E+04    0.59899E-01   -0.64077E+00  4536   0.200E+00    0.574E-01
RMM:   2    -0.233455520743E+04   -0.62191E-01   -0.64497E-01  6380   0.448E-01    0.439E-01
RMM:   3    -0.233455943525E+04   -0.42278E-02   -0.62147E-02  6097   0.150E-01    0.432E-01
RMM:   4    -0.233455734679E+04    0.20885E-02   -0.61922E-03  5868   0.354E-02    0.194E-01
RMM:   5    -0.233455694675E+04    0.40004E-03   -0.10190E-03  4693   0.184E-02    0.142E-01
RMM:   6    -0.233455693430E+04    0.12449E-04   -0.90875E-04  4890   0.175E-02    0.140E-01
RMM:   7    -0.233455672212E+04    0.21218E-03   -0.31019E-04  4237   0.115E-02    0.286E-02
RMM:   8    -0.233455671136E+04    0.10758E-04   -0.32655E-05  3010   0.584E-03    0.195E-02
RMM:   9    -0.233455670906E+04    0.23083E-05   -0.12545E-05  2986   0.301E-03
  65 F= -.23560839E+04 E0= -.23560839E+04  d E =-.591005E-02  mag=     5.0000
       N       E                     dE             d eps       ncg     rms          rms(c)
DAV:   1    -0.233455654103E+04    0.17033E-03   -0.51589E-01  4656   0.625E-01    0.194E-01
RMM:   2    -0.233456045850E+04   -0.39175E-02   -0.40956E-02  6061   0.131E-01    0.133E-01
RMM:   3    -0.233456073690E+04   -0.27839E-03   -0.39636E-03  5592   0.484E-02    0.149E-01
RMM:   4    -0.233456044853E+04    0.28836E-03   -0.41016E-04  3845   0.125E-02    0.564E-02
RMM:   5    -0.233456041328E+04    0.35255E-04   -0.14573E-04  3864   0.926E-03    0.429E-02
RMM:   6    -0.233456040885E+04    0.44288E-05   -0.81930E-05  3181   0.755E-03
  66 F= -.23560872E+04 E0= -.23560872E+04  d E =-.331131E-02  mag=     5.0000
       N       E                     dE             d eps       ncg     rms          rms(c)
DAV:   1    -0.233455357871E+04    0.68346E-02   -0.11883E+00  4560   0.949E-01    0.294E-01
RMM:   2    -0.233456257485E+04   -0.89961E-02   -0.94437E-02  6051   0.199E-01    0.199E-01
RMM:   3    -0.233456325980E+04   -0.68496E-03   -0.94317E-03  5824   0.722E-02    0.226E-01
RMM:   4    -0.233456260272E+04    0.65708E-03   -0.95249E-04  4998   0.186E-02    0.873E-02
RMM:   5    -0.233456254264E+04    0.60084E-04   -0.34004E-04  4509   0.126E-02    0.792E-02
RMM:   6    -0.233456249509E+04    0.47552E-04   -0.21108E-04  3902   0.107E-02    0.514E-02
RMM:   7    -0.233456246452E+04    0.30571E-04   -0.52965E-05  3180   0.694E-03    0.168E-02
RMM:   8    -0.233456246027E+04    0.42496E-05   -0.11098E-05  2956   0.400E-03
  67 F= -.23560887E+04 E0= -.23560887E+04  d E =-.477053E-02  mag=     5.0000
       N       E                     dE             d eps       ncg     rms          rms(c)
DAV:   1    -0.233456223792E+04    0.22660E-03   -0.40849E-01  4608   0.550E-01    0.159E-01
RMM:   2    -0.233456520190E+04   -0.29640E-02   -0.31456E-02  6112   0.112E-01    0.960E-02
RMM:   3    -0.233456536831E+04   -0.16641E-03   -0.28879E-03  5153   0.405E-02    0.107E-01
RMM:   4    -0.233456523684E+04    0.13147E-03   -0.27703E-04  3301   0.101E-02    0.500E-02
RMM:   5    -0.233456521077E+04    0.26063E-04   -0.93495E-05  3350   0.732E-03    0.345E-02
RMM:   6    -0.233456521120E+04   -0.43052E-06   -0.51373E-05  3091   0.648E-03
  68 F= -.23560911E+04 E0= -.23560911E+04  d E =-.243448E-02  mag=     5.0000
       N       E                     dE             d eps       ncg     rms          rms(c)
DAV:   1    -0.233454350061E+04    0.21710E-01   -0.34233E+00  4536   0.159E+00    0.459E-01
RMM:   2    -0.233456832759E+04   -0.24827E-01   -0.26409E-01  6040   0.324E-01    0.271E-01
RMM:   3    -0.233456965889E+04   -0.13313E-02   -0.24385E-02  5904   0.111E-01    0.299E-01
RMM:   4    -0.233456870084E+04    0.95805E-03   -0.23365E-03  5572   0.269E-02    0.146E-01
RMM:   5    -0.233456848054E+04    0.22030E-03   -0.78095E-04  4856   0.180E-02    0.105E-01
RMM:   6    -0.233456846768E+04    0.12862E-04   -0.44522E-04  4573   0.144E-02    0.938E-02
RMM:   7    -0.233456836531E+04    0.10236E-03   -0.10086E-04  3354   0.797E-03    0.164E-02
RMM:   8    -0.233456836300E+04    0.23183E-05   -0.15771E-05  2982   0.465E-03
  69 F= -.23560933E+04 E0= -.23560933E+04  d E =-.466891E-02  mag=     5.0000
       N       E                     dE             d eps       ncg     rms          rms(c)
DAV:   1    -0.233456791173E+04    0.45358E-03   -0.82398E-01  4576   0.757E-01    0.211E-01
RMM:   2    -0.233457190947E+04   -0.39977E-02   -0.42111E-02  5975   0.143E-01    0.122E-01
RMM:   3    -0.233457216039E+04   -0.25092E-03   -0.37169E-03  5442   0.519E-02    0.142E-01
RMM:   4    -0.233457192383E+04    0.23655E-03   -0.41586E-04  3863   0.134E-02    0.683E-02
RMM:   5    -0.233457189115E+04    0.32679E-04   -0.19568E-04  4190   0.108E-02    0.525E-02
RMM:   6    -0.233457187492E+04    0.16235E-04   -0.84667E-05  3161   0.773E-03    0.347E-02
RMM:   7    -0.233457186104E+04    0.13875E-04   -0.15252E-05  2947   0.456E-03    0.736E-03
RMM:   8    -0.233457186154E+04   -0.49194E-06   -0.43359E-06  2913   0.254E-03
  70 F= -.23560965E+04 E0= -.23560965E+04  d E =-.315783E-02  mag=     5.0000
       N       E                     dE             d eps       ncg     rms          rms(c)
DAV:   1    -0.233456788250E+04    0.39785E-02   -0.12015E+00  4548   0.913E-01    0.254E-01
RMM:   2    -0.233457366840E+04   -0.57859E-02   -0.61324E-02  5940   0.172E-01    0.137E-01
RMM:   3    -0.233457394726E+04   -0.27886E-03   -0.52639E-03  5565   0.599E-02    0.148E-01
RMM:   4    -0.233457373468E+04    0.21258E-03   -0.58579E-04  4354   0.153E-02    0.883E-02
RMM:   5    -0.233457364935E+04    0.85326E-04   -0.27406E-04  4384   0.126E-02    0.502E-02
RMM:   6    -0.233457365243E+04   -0.30735E-05   -0.10894E-04  3193   0.895E-03    0.464E-02
RMM:   7    -0.233457362596E+04    0.26469E-04   -0.23708E-05  2978   0.511E-03    0.878E-03
RMM:   8    -0.233457362566E+04    0.29420E-06   -0.57773E-06  2927   0.277E-03
  71 F= -.23560979E+04 E0= -.23560979E+04  d E =-.451265E-02  mag=     5.0000
       N       E                     dE             d eps       ncg     rms          rms(c)
DAV:   1    -0.233457237793E+04    0.12480E-02   -0.90338E-01  4560   0.822E-01    0.250E-01
RMM:   2    -0.233457760144E+04   -0.52235E-02   -0.56416E-02  5952   0.160E-01    0.137E-01
RMM:   3    -0.233457795059E+04   -0.34915E-03   -0.57383E-03  5410   0.606E-02    0.142E-01
RMM:   4    -0.233457772628E+04    0.22431E-03   -0.55317E-04  4234   0.150E-02    0.775E-02
RMM:   5    -0.233457764759E+04    0.78696E-04   -0.23583E-04  4386   0.119E-02    0.360E-02
RMM:   6    -0.233457766947E+04   -0.21886E-04   -0.81990E-05  3174   0.801E-03    0.503E-02
RMM:   7    -0.233457763736E+04    0.32111E-04   -0.27174E-05  2994   0.517E-03    0.802E-03
RMM:   8    -0.233457763661E+04    0.75778E-06   -0.49493E-06  2914   0.274E-03
  72 F= -.23561016E+04 E0= -.23561016E+04  d E =-.377959E-02  mag=     5.0000
       N       E                     dE             d eps       ncg     rms          rms(c)
DAV:   1    -0.233457515946E+04    0.24779E-02   -0.62196E-01  4576   0.682E-01    0.207E-01
RMM:   2    -0.233457876223E+04   -0.36028E-02   -0.38986E-02  5941   0.133E-01    0.111E-01
RMM:   3    -0.233457898143E+04   -0.21920E-03   -0.39210E-03  5218   0.486E-02    0.111E-01
RMM:   4    -0.233457885526E+04    0.12617E-03   -0.37349E-04  3728   0.123E-02    0.662E-02
RMM:   5    -0.233457879664E+04    0.58621E-04   -0.16431E-04  4109   0.101E-02    0.284E-02
RMM:   6    -0.233457881050E+04   -0.13859E-04   -0.54007E-05  3101   0.692E-03    0.399E-02
RMM:   7    -0.233457879053E+04    0.19968E-04   -0.19009E-05  2965   0.443E-03    0.737E-03
RMM:   8    -0.233457878994E+04    0.59039E-06   -0.36865E-06  2893   0.243E-03
  73 F= -.23561026E+04 E0= -.23561026E+04  d E =-.474504E-02  mag=     5.0000
       N       E                     dE             d eps       ncg     rms          rms(c)
DAV:   1    -0.233457653133E+04    0.22592E-02   -0.10892E+00  4536   0.862E-01    0.242E-01
RMM:   2    -0.233458246648E+04   -0.59351E-02   -0.63509E-02  5948   0.167E-01    0.149E-01
RMM:   3    -0.233458283239E+04   -0.36590E-03   -0.61335E-03  5373   0.613E-02    0.156E-01
RMM:   4    -0.233458254446E+04    0.28792E-03   -0.60219E-04  4287   0.152E-02    0.811E-02
RMM:   5    -0.233458248018E+04    0.64288E-04   -0.27672E-04  4367   0.120E-02    0.556E-02
RMM:   6    -0.233458247525E+04    0.49322E-05   -0.12367E-04  3314   0.859E-03    0.504E-02
RMM:   7    -0.233458244513E+04    0.30115E-04   -0.33917E-05  3043   0.560E-03    0.140E-02
RMM:   8    -0.233458244238E+04    0.27477E-05   -0.67812E-06  2931   0.318E-03
  74 F= -.23561059E+04 E0= -.23561059E+04  d E =-.334198E-02  mag=     5.0000
       N       E                     dE             d eps       ncg     rms          rms(c)
DAV:   1    -0.233457877484E+04    0.36703E-02   -0.89929E-01  4560   0.783E-01    0.221E-01
RMM:   2    -0.233458369094E+04   -0.49161E-02   -0.52634E-02  5940   0.152E-01    0.136E-01
RMM:   3    -0.233458398896E+04   -0.29802E-03   -0.50048E-03  5298   0.530E-02    0.143E-01
RMM:   4    -0.233458374365E+04    0.24531E-03   -0.49408E-04  3946   0.139E-02    0.732E-02
RMM:   5    -0.233458369673E+04    0.46921E-04   -0.22615E-04  4254   0.109E-02    0.571E-02
RMM:   6    -0.233458368041E+04    0.16314E-04   -0.10554E-04  3236   0.816E-03    0.437E-02
RMM:   7    -0.233458365716E+04    0.23254E-04   -0.26353E-05  3016   0.509E-03    0.110E-02
RMM:   8    -0.233458365534E+04    0.18136E-05   -0.55437E-06  2923   0.307E-03
  75 F= -.23561069E+04 E0= -.23561069E+04  d E =-.427969E-02  mag=     5.0000
       N       E                     dE             d eps       ncg     rms          rms(c)
DAV:   1    -0.233458323258E+04    0.42458E-03   -0.94354E-01  4548   0.804E-01    0.228E-01
RMM:   2    -0.233458729923E+04   -0.40667E-02   -0.43135E-02  5923   0.148E-01    0.139E-01
RMM:   3    -0.233458750580E+04   -0.20657E-03   -0.36313E-03  5280   0.510E-02    0.158E-01
RMM:   4    -0.233458721138E+04    0.29442E-03   -0.43427E-04  4221   0.140E-02    0.707E-02
RMM:   5    -0.233458718456E+04    0.26821E-04   -0.19547E-04  4018   0.102E-02    0.587E-02
RMM:   6    -0.233458716673E+04    0.17828E-04   -0.11578E-04  3288   0.819E-03    0.445E-02
RMM:   7    -0.233458714571E+04    0.21021E-04   -0.35484E-05  3063   0.590E-03    0.148E-02
RMM:   8    -0.233458714320E+04    0.25117E-05   -0.48357E-06  2899   0.291E-03
  76 F= -.23561100E+04 E0= -.23561100E+04  d E =-.310995E-02  mag=     5.0000
       N       E                     dE             d eps       ncg     rms          rms(c)
DAV:   1    -0.233458001668E+04    0.71290E-02   -0.22967E+00  4536   0.126E+00    0.355E-01
RMM:   2    -0.233458991121E+04   -0.98945E-02   -0.10501E-01  5948   0.231E-01    0.217E-01
RMM:   3    -0.233459039525E+04   -0.48404E-03   -0.87775E-03  5594   0.776E-02    0.246E-01
RMM:   4    -0.233458970561E+04    0.68964E-03   -0.10501E-03  5183   0.214E-02    0.111E-01
RMM:   5    -0.233458964267E+04    0.62944E-04   -0.49217E-04  4730   0.151E-02    0.935E-02
RMM:   6    -0.233458959452E+04    0.48148E-04   -0.28339E-04  4236   0.115E-02    0.699E-02
RMM:   7    -0.233458954209E+04    0.52430E-04   -0.81895E-05  3197   0.742E-03    0.228E-02
RMM:   8    -0.233458953549E+04    0.66006E-05   -0.10197E-05  2964   0.360E-03
  77 F= -.23561118E+04 E0= -.23561118E+04  d E =-.492144E-02  mag=     5.0000
       N       E                     dE             d eps       ncg     rms          rms(c)
DAV:   1    -0.233458721773E+04    0.23244E-02   -0.10372E+00  4560   0.827E-01    0.237E-01
RMM:   2    -0.233459344322E+04   -0.62255E-02   -0.65564E-02  6023   0.167E-01    0.166E-01
RMM:   3    -0.233459370281E+04   -0.25959E-03   -0.55319E-03  5479   0.568E-02    0.176E-01
RMM:   4    -0.233459334115E+04    0.36165E-03   -0.58356E-04  3993   0.147E-02    0.784E-02
RMM:   5    -0.233459333429E+04    0.68677E-05   -0.24673E-04  3845   0.102E-02    0.811E-02
RMM:   6    -0.233459328334E+04    0.50945E-04   -0.16784E-04  3460   0.903E-03    0.480E-02
RMM:   7    -0.233459326007E+04    0.23274E-04   -0.46091E-05  3134   0.628E-03    0.145E-02
RMM:   8    -0.233459325819E+04    0.18743E-05   -0.65799E-06  2929   0.314E-03
  78 F= -.23561150E+04 E0= -.23561150E+04  d E =-.322636E-02  mag=     5.0000
       N       E                     dE             d eps       ncg     rms          rms(c)
DAV:   1    -0.233457279401E+04    0.20466E-01   -0.40866E+00  4536   0.164E+00    0.469E-01
RMM:   2    -0.233459729367E+04   -0.24500E-01   -0.25849E-01  6013   0.329E-01    0.325E-01
RMM:   3    -0.233459829646E+04   -0.10028E-02   -0.21928E-02  5708   0.111E-01    0.343E-01
RMM:   4    -0.233459691499E+04    0.13815E-02   -0.22567E-03  5429   0.288E-02    0.155E-01
RMM:   5    -0.233459685049E+04    0.64500E-04   -0.95650E-04  5023   0.188E-02    0.151E-01
RMM:   6    -0.233459669747E+04    0.15303E-03   -0.63992E-04  4923   0.155E-02    0.994E-02
RMM:   7    -0.233459659367E+04    0.10380E-03   -0.16760E-04  3464   0.942E-03    0.302E-02
RMM:   8    -0.233459658408E+04    0.95924E-05   -0.20400E-05  3056   0.433E-03
  79 F= -.23561174E+04 E0= -.23561174E+04  d E =-.558565E-02  mag=     5.0000
       N       E                     dE             d eps       ncg     rms          rms(c)
DAV:   1    -0.233459030876E+04    0.62849E-02   -0.16217E+00  4536   0.102E+00    0.302E-01
RMM:   2    -0.233460049305E+04   -0.10184E-01   -0.10746E-01  6051   0.212E-01    0.211E-01
RMM:   3    -0.233460088166E+04   -0.38862E-03   -0.87923E-03  5628   0.701E-02    0.224E-01
RMM:   4    -0.233460031054E+04    0.57113E-03   -0.98545E-04  4766   0.186E-02    0.102E-01
[...]
       N       E                     dE             d eps       ncg     rms          rms(c)
DAV:   1    -0.233467438809E+04    0.20631E-02   -0.20473E-01  4560   0.353E-01    0.109E-01
RMM:   2    -0.233467651391E+04   -0.21258E-02   -0.22464E-02  6331   0.784E-02    0.686E-02
RMM:   3    -0.233467668245E+04   -0.16854E-03   -0.22362E-03  3968   0.306E-02    0.646E-02
RMM:   4    -0.233467664605E+04    0.36398E-04   -0.22475E-04  3132   0.782E-03    0.394E-02
RMM:   5    -0.233467663079E+04    0.15270E-04   -0.46562E-05  3012   0.491E-03    0.271E-02
RMM:   6    -0.233467662916E+04    0.16300E-05   -0.32309E-05  3006   0.457E-03
 181 F= -.23562034E+04 E0= -.23562034E+04  d E =-.159336E-02  mag=     5.0000
       N       E                     dE             d eps       ncg     rms          rms(c)
DAV:   1    -0.233465913396E+04    0.17497E-01   -0.16272E+00  4536   0.975E-01    0.307E-01
RMM:   2    -0.233467699360E+04   -0.17860E-01   -0.18859E-01  6406   0.219E-01    0.199E-01
RMM:   3    -0.233467846552E+04   -0.14719E-02   -0.18949E-02  5715   0.829E-02    0.186E-01
RMM:   4    -0.233467818383E+04    0.28169E-03   -0.18954E-03  3893   0.187E-02    0.108E-01
RMM:   5    -0.233467807114E+04    0.11269E-03   -0.31076E-04  3977   0.112E-02    0.795E-02
RMM:   6    -0.233467805600E+04    0.15142E-04   -0.24174E-04  3539   0.981E-03    0.700E-02
RMM:   7    -0.233467800012E+04    0.55879E-04   -0.78896E-05  3175   0.702E-03    0.159E-02
RMM:   8    -0.233467799671E+04    0.34125E-05   -0.11841E-05  2946   0.432E-03
 182 F= -.23562050E+04 E0= -.23562050E+04  d E =-.157502E-02  mag=     5.0000
       N       E                     dE             d eps       ncg     rms          rms(c)
DAV:   1    -0.233465387199E+04    0.24128E-01   -0.20875E+00  4536   0.110E+00    0.351E-01
RMM:   2    -0.233467685656E+04   -0.22985E-01   -0.24295E-01  6302   0.248E-01    0.230E-01
RMM:   3    -0.233467877853E+04   -0.19220E-02   -0.24535E-02  5769   0.939E-02    0.218E-01
RMM:   4    -0.233467839390E+04    0.38464E-03   -0.24706E-03  4331   0.211E-02    0.124E-01
RMM:   5    -0.233467828213E+04    0.11176E-03   -0.39357E-04  4178   0.119E-02    0.102E-01
RMM:   6    -0.233467822053E+04    0.61602E-04   -0.33130E-04  3765   0.111E-02    0.745E-02
RMM:   7    -0.233467816103E+04    0.59502E-04   -0.10808E-04  3420   0.764E-03    0.201E-02
RMM:   8    -0.233467815545E+04    0.55854E-05   -0.16048E-05  2989   0.488E-03
 183 F= -.23562054E+04 E0= -.23562054E+04  d E =-.197158E-02  mag=     5.0000
       N       E                     dE             d eps       ncg     rms          rms(c)
DAV:   1    -0.233466825661E+04    0.99044E-02   -0.90727E-01  4536   0.718E-01    0.229E-01
RMM:   2    -0.233467865306E+04   -0.10396E-01   -0.10986E-01  6423   0.163E-01    0.153E-01
RMM:   3    -0.233467953555E+04   -0.88249E-03   -0.11096E-02  5328   0.615E-02    0.141E-01
RMM:   4    -0.233467938035E+04    0.15520E-03   -0.11202E-03  3445   0.140E-02    0.813E-02
RMM:   5    -0.233467933356E+04    0.46787E-04   -0.16335E-04  3332   0.809E-03    0.663E-02
RMM:   6    -0.233467930899E+04    0.24569E-04   -0.13670E-04  3182   0.759E-03    0.483E-02
RMM:   7    -0.233467928575E+04    0.23243E-04   -0.47773E-05  3121   0.566E-03    0.132E-02
RMM:   8    -0.233467928367E+04    0.20760E-05   -0.73888E-06  2927   0.353E-03
 184 F= -.23562066E+04 E0= -.23562066E+04  d E =-.127140E-02  mag=     5.0000
       N       E                     dE             d eps       ncg     rms          rms(c)
DAV:   1    -0.233458090837E+04    0.98377E-01   -0.81569E+00  4536   0.215E+00    0.685E-01
RMM:   2    -0.233467455860E+04   -0.93650E-01   -0.98961E-01  6405   0.491E-01    0.460E-01
RMM:   3    -0.233468272609E+04   -0.81675E-02   -0.10496E-01  5954   0.186E-01    0.416E-01
RMM:   4    -0.233468151771E+04    0.12084E-02   -0.10186E-02  5632   0.408E-02    0.251E-01
RMM:   5    -0.233468103806E+04    0.47965E-03   -0.13449E-03  4835   0.205E-02    0.200E-01
RMM:   6    -0.233468085914E+04    0.17892E-03   -0.13544E-03  5068   0.198E-02    0.161E-01
RMM:   7    -0.233468058031E+04    0.27884E-03   -0.47420E-04  4672   0.127E-02    0.431E-02
RMM:   8    -0.233468056430E+04    0.16008E-04   -0.68485E-05  3089   0.717E-03    0.351E-02
RMM:   9    -0.233468055440E+04    0.98942E-05   -0.28867E-05  2996   0.405E-03
 185 F= -.23562083E+04 E0= -.23562083E+04  d E =-.297662E-02  mag=     5.0000
       N       E                     dE             d eps       ncg     rms          rms(c)
DAV:   1    -0.233465728867E+04    0.23276E-01   -0.20351E+00  4536   0.110E+00    0.359E-01
RMM:   2    -0.233468130772E+04   -0.24019E-01   -0.25391E-01  6323   0.252E-01    0.236E-01
RMM:   3    -0.233468342719E+04   -0.21195E-02   -0.26556E-02  5780   0.980E-02    0.220E-01
RMM:   4    -0.233468300385E+04    0.42333E-03   -0.26203E-03  4366   0.218E-02    0.123E-01
RMM:   5    -0.233468288978E+04    0.11407E-03   -0.38045E-04  4026   0.120E-02    0.100E-01
RMM:   6    -0.233468283847E+04    0.51306E-04   -0.32150E-04  3731   0.109E-02    0.760E-02
RMM:   7    -0.233468277670E+04    0.61776E-04   -0.10784E-04  3411   0.775E-03    0.205E-02
RMM:   8    -0.233468277303E+04    0.36634E-05   -0.18243E-05  2983   0.504E-03
 186 F= -.23562108E+04 E0= -.23562108E+04  d E =-.244441E-02  mag=     5.0000
       N       E                     dE             d eps       ncg     rms          rms(c)
DAV:   1    -0.233464447909E+04    0.38298E-01   -0.31134E+00  4536   0.136E+00    0.443E-01
RMM:   2    -0.233468114399E+04   -0.36665E-01   -0.38788E-01  6331   0.311E-01    0.288E-01
RMM:   3    -0.233468432975E+04   -0.31858E-02   -0.40037E-02  5855   0.119E-01    0.271E-01
RMM:   4    -0.233468371377E+04    0.61598E-03   -0.39926E-03  4965   0.265E-02    0.153E-01
RMM:   5    -0.233468354095E+04    0.17282E-03   -0.58404E-04  4470   0.144E-02    0.126E-01
RMM:   6    -0.233468344399E+04    0.96960E-04   -0.49262E-04  4259   0.130E-02    0.911E-02
RMM:   7    -0.233468335108E+04    0.92914E-04   -0.15614E-04  3814   0.849E-03    0.200E-02
RMM:   8    -0.233468334603E+04    0.50446E-05   -0.19403E-05  2962   0.534E-03
 187 F= -.23562116E+04 E0= -.23562116E+04  d E =-.330055E-02  mag=     5.0000
       N       E                     dE             d eps       ncg     rms          rms(c)
DAV:   1    -0.233465005328E+04    0.33298E-01   -0.27398E+00  4536   0.125E+00    0.406E-01
RMM:   2    -0.233468319679E+04   -0.33144E-01   -0.35030E-01  6457   0.287E-01    0.266E-01
RMM:   3    -0.233468608043E+04   -0.28836E-02   -0.36190E-02  5818   0.109E-01    0.238E-01
RMM:   4    -0.233468567777E+04    0.40266E-03   -0.35625E-03  4471   0.239E-02    0.145E-01
RMM:   5    -0.233468550768E+04    0.17009E-03   -0.48805E-04  4100   0.130E-02    0.111E-01
RMM:   6    -0.233468545577E+04    0.51909E-04   -0.41818E-04  3929   0.118E-02    0.894E-02
RMM:   7    -0.233468536917E+04    0.86596E-04   -0.14577E-04  3510   0.806E-03    0.205E-02
RMM:   8    -0.233468536496E+04    0.42157E-05   -0.18296E-05  2974   0.498E-03
 188 F= -.23562139E+04 E0= -.23562139E+04  d E =-.226046E-02  mag=     5.0000
       N       E                     dE             d eps       ncg     rms          rms(c)
DAV:   1    -0.233458023301E+04    0.10514E+00   -0.81957E+00  4536   0.217E+00    0.702E-01
RMM:   2    -0.233467963204E+04   -0.99399E-01   -0.10507E+00  6433   0.499E-01    0.464E-01
RMM:   3    -0.233468843873E+04   -0.88067E-02   -0.11229E-01  5951   0.190E-01    0.408E-01
RMM:   4    -0.233468736407E+04    0.10747E-02   -0.10773E-02  5619   0.410E-02    0.256E-01
RMM:   5    -0.233468682444E+04    0.53962E-03   -0.13592E-03  4797   0.209E-02    0.194E-01
RMM:   6    -0.233468667972E+04    0.14473E-03   -0.13619E-03  5094   0.196E-02    0.164E-01
RMM:   7    -0.233468638546E+04    0.29425E-03   -0.49100E-04  4706   0.127E-02    0.429E-02
RMM:   8    -0.233468637457E+04    0.10888E-04   -0.74897E-05  3057   0.711E-03    0.393E-02
RMM:   9    -0.233468635913E+04    0.15440E-04   -0.29278E-05  2997   0.413E-03    0.239E-02
RMM:  10    -0.233468635289E+04    0.62421E-05   -0.17628E-05  2977   0.307E-03
 189 F= -.23562153E+04 E0= -.23562153E+04  d E =-.367884E-02  mag=     5.0000
       N       E                     dE             d eps       ncg     rms          rms(c)
DAV:   1    -0.233465799895E+04    0.28360E-01   -0.23799E+00  4548   0.118E+00    0.378E-01
RMM:   2    -0.233468681424E+04   -0.28815E-01   -0.30505E-01  6423   0.270E-01    0.235E-01
RMM:   3    -0.233468932148E+04   -0.25072E-02   -0.31450E-02  5817   0.102E-01    0.202E-01
RMM:   4    -0.233468911736E+04    0.20413E-03   -0.31051E-03  4261   0.221E-02    0.140E-01
RMM:   5    -0.233468892818E+04    0.18918E-03   -0.41802E-04  3921   0.123E-02    0.958E-02
RMM:   6    -0.233468890963E+04    0.18549E-04   -0.37158E-04  4027   0.114E-02    0.870E-02
RMM:   7    -0.233468882477E+04    0.84864E-04   -0.13181E-04  3404   0.773E-03    0.215E-02
RMM:   8    -0.233468881949E+04    0.52750E-05   -0.17193E-05  2987   0.468E-03
 190 F= -.23562180E+04 E0= -.23562180E+04  d E =-.271475E-02  mag=     5.0000
       N       E                     dE             d eps       ncg     rms          rms(c)
DAV:   1    -0.233442259841E+04    0.26623E+00   -0.20297E+01  4536   0.345E+00    0.112E+00
RMM:   2    -0.233467347474E+04   -0.25088E+00   -0.26506E+00  6436   0.805E-01    0.753E-01
RMM:   3    -0.233469491287E+04   -0.21438E-01   -0.28626E-01  6039   0.300E-01    0.630E-01
RMM:   4    -0.233469285170E+04    0.20612E-02   -0.26838E-02  6072   0.635E-02    0.418E-01
RMM:   5    -0.233469145436E+04    0.13973E-02   -0.34077E-03  5130   0.321E-02    0.306E-01
RMM:   6    -0.233469107673E+04    0.37764E-03   -0.36814E-03  5655   0.308E-02    0.270E-01
RMM:   7    -0.233469029595E+04    0.78078E-03   -0.13666E-03  5349   0.205E-02    0.820E-02
RMM:   8    -0.233469025686E+04    0.39088E-04   -0.24454E-04  3409   0.105E-02    0.755E-02
RMM:   9    -0.233469019546E+04    0.61403E-04   -0.99835E-05  3071   0.699E-03    0.409E-02
RMM:  10    -0.233469017500E+04    0.20456E-04   -0.58478E-05  3118   0.498E-03    0.178E-02
RMM:  11    -0.233469017040E+04    0.45991E-05   -0.16014E-05  2975   0.356E-03
 191 F= -.23562201E+04 E0= -.23562201E+04  d E =-.480579E-02  mag=     5.0000
       N       E                     dE             d eps       ncg     rms          rms(c)
DAV:   1    -0.233467150335E+04    0.18672E-01   -0.14812E+00  4560   0.931E-01    0.297E-01
RMM:   2    -0.233468945537E+04   -0.17952E-01   -0.18976E-01  6428   0.214E-01    0.185E-01
RMM:   3    -0.233469102661E+04   -0.15712E-02   -0.19723E-02  5631   0.810E-02    0.159E-01
RMM:   4    -0.233469086717E+04    0.15944E-03   -0.19353E-03  3764   0.179E-02    0.112E-01
RMM:   5    -0.233469073204E+04    0.13513E-03   -0.29403E-04  3533   0.104E-02    0.677E-02
RMM:   6    -0.233469073654E+04   -0.45037E-05   -0.24050E-04  3684   0.964E-03    0.685E-02
RMM:   7    -0.233469068127E+04    0.55270E-04   -0.84193E-05  3150   0.670E-03    0.193E-02
RMM:   8    -0.233469067722E+04    0.40486E-05   -0.13407E-05  2961   0.389E-03
 192 F= -.23562204E+04 E0= -.23562204E+04  d E =-.511093E-02  mag=     5.0000
       N       E                     dE             d eps       ncg     rms          rms(c)
DAV:   1    -0.233465027957E+04    0.40402E-01   -0.32215E+00  4536   0.137E+00    0.440E-01
RMM:   2    -0.233469056803E+04   -0.40288E-01   -0.42535E-01  6484   0.318E-01    0.289E-01
RMM:   3    -0.233469409980E+04   -0.35318E-02   -0.44312E-02  5860   0.121E-01    0.258E-01
RMM:   4    -0.233469364162E+04    0.45818E-03   -0.43602E-03  4692   0.263E-02    0.159E-01
RMM:   5    -0.233469340220E+04    0.23942E-03   -0.56663E-04  4289   0.139E-02    0.116E-01
RMM:   6    -0.233469335514E+04    0.47058E-04   -0.51070E-04  4246   0.129E-02    0.101E-01
RMM:   7    -0.233469323893E+04    0.11621E-03   -0.18281E-04  3737   0.870E-03    0.239E-02
RMM:   8    -0.233469323289E+04    0.60385E-05   -0.23329E-05  2980   0.523E-03
 193 F= -.23562234E+04 E0= -.23562234E+04  d E =-.300575E-02  mag=     5.0000
       N       E                     dE             d eps       ncg     rms          rms(c)
DAV:   1    -0.233457682851E+04    0.11641E+00   -0.87164E+00  4536   0.226E+00    0.732E-01
RMM:   2    -0.233468653798E+04   -0.10971E+00   -0.11599E+00  6446   0.527E-01    0.490E-01
RMM:   3    -0.233469651244E+04   -0.99745E-02   -0.12456E-01  5980   0.199E-01    0.445E-01
RMM:   4    -0.233469516051E+04    0.13519E-02   -0.12091E-02  5698   0.435E-02    0.267E-01
RMM:   5    -0.233469458911E+04    0.57139E-03   -0.14807E-03  4902   0.215E-02    0.207E-01
RMM:   6    -0.233469436708E+04    0.22203E-03   -0.14952E-03  5161   0.205E-02    0.166E-01
RMM:   7    -0.233469406557E+04    0.30151E-03   -0.54442E-04  4837   0.134E-02    0.444E-02
RMM:   8    -0.233469405270E+04    0.12875E-04   -0.79064E-05  3074   0.753E-03    0.403E-02
RMM:   9    -0.233469403579E+04    0.16909E-04   -0.31616E-05  3005   0.436E-03    0.245E-02
RMM:  10    -0.233469402842E+04    0.73653E-05   -0.19599E-05  2992   0.336E-03
 194 F= -.23562250E+04 E0= -.23562250E+04  d E =-.454091E-02  mag=     5.0000
       N       E                     dE             d eps       ncg     rms          rms(c)
DAV:   1    -0.233465376248E+04    0.40273E-01   -0.31234E+00  4548   0.135E+00    0.432E-01
RMM:   2    -0.233469367629E+04   -0.39914E-01   -0.42044E-01  6468   0.314E-01    0.294E-01
RMM:   3    -0.233469723317E+04   -0.35569E-02   -0.43591E-02  5846   0.119E-01    0.274E-01
RMM:   4    -0.233469658890E+04    0.64426E-03   -0.43445E-03  4608   0.264E-02    0.152E-01
RMM:   5    -0.233469640531E+04    0.18359E-03   -0.54324E-04  4222   0.133E-02    0.123E-01
RMM:   6    -0.233469631146E+04    0.93856E-04   -0.47520E-04  4011   0.126E-02    0.902E-02
RMM:   7    -0.233469622360E+04    0.87856E-04   -0.17174E-04  3764   0.840E-03    0.198E-02
RMM:   8    -0.233469622097E+04    0.26280E-05   -0.18332E-05  2951   0.511E-03
 195 F= -.23562277E+04 E0= -.23562277E+04  d E =-.269241E-02  mag=     5.0000
       N       E                     dE             d eps       ncg     rms          rms(c)
DAV:   1    -0.233430778302E+04    0.38844E+00   -0.28028E+01  4536   0.405E+00    0.132E+00
RMM:   2    -0.233467342044E+04   -0.36564E+00   -0.38512E+00  6525   0.961E-01    0.937E-01
RMM:   3    -0.233470586342E+04   -0.32443E-01   -0.41895E-01  6064   0.355E-01    0.854E-01
RMM:   4    -0.233470024615E+04    0.56173E-02   -0.39889E-02  6128   0.785E-02    0.481E-01
RMM:   5    -0.233469869770E+04    0.15484E-02   -0.47343E-03  5254   0.362E-02    0.401E-01
RMM:   6    -0.233469754991E+04    0.11478E-02   -0.49992E-03  5695   0.356E-02    0.289E-01
RMM:   7    -0.233469672426E+04    0.82565E-03   -0.20387E-03  5436   0.237E-02    0.101E-01
RMM:   8    -0.233469669587E+04    0.28392E-04   -0.39898E-04  3553   0.137E-02    0.984E-02
RMM:   9    -0.233469658045E+04    0.11542E-03   -0.14520E-04  3111   0.797E-03    0.451E-02
RMM:  10    -0.233469655576E+04    0.24696E-04   -0.81569E-05  3096   0.585E-03    0.139E-02
RMM:  11    -0.233469655506E+04    0.69708E-06   -0.17692E-05  2998   0.364E-03
 196 F= -.23562295E+04 E0= -.23562295E+04  d E =-.451471E-02  mag=     5.0000
       N       E                     dE             d eps       ncg     rms          rms(c)
DAV:   1    -0.233466797470E+04    0.28581E-01   -0.21792E+00  4560   0.113E+00    0.360E-01
RMM:   2    -0.233469567802E+04   -0.27703E-01   -0.29047E-01  6482   0.262E-01    0.254E-01
RMM:   3    -0.233469811332E+04   -0.24353E-02   -0.31021E-02  5765   0.102E-01    0.222E-01
RMM:   4    -0.233469766542E+04    0.44790E-03   -0.30306E-03  4196   0.223E-02    0.130E-01
RMM:   5    -0.233469750473E+04    0.16069E-03   -0.42012E-04  3762   0.118E-02    0.916E-02
RMM:   6    -0.233469748707E+04    0.17664E-04   -0.36860E-04  3783   0.110E-02    0.851E-02
RMM:   7    -0.233469740360E+04    0.83466E-04   -0.13669E-04  3422   0.774E-03    0.188E-02
RMM:   8    -0.233469740109E+04    0.25149E-05   -0.17981E-05  2962   0.467E-03
 197 F= -.23562299E+04 E0= -.23562299E+04  d E =-.494847E-02  mag=     5.0000
       N       E                     dE             d eps       ncg     rms          rms(c)
DAV:   1    -0.233463915507E+04    0.58249E-01   -0.45867E+00  4536   0.166E+00    0.529E-01
RMM:   2    -0.233469692193E+04   -0.57767E-01   -0.60823E-01  6417   0.385E-01    0.356E-01
RMM:   3    -0.233470216811E+04   -0.52462E-02   -0.65056E-02  5918   0.149E-01    0.326E-01
RMM:   4    -0.233470129797E+04    0.87014E-03   -0.63070E-03  5280   0.323E-02    0.186E-01
RMM:   5    -0.233470096879E+04    0.32917E-03   -0.81638E-04  4682   0.169E-02    0.139E-01
RMM:   6    -0.233470090551E+04    0.63283E-04   -0.73790E-04  4789   0.152E-02    0.123E-01
RMM:   7    -0.233470072806E+04    0.17745E-03   -0.27435E-04  4257   0.103E-02    0.265E-02
RMM:   8    -0.233470072073E+04    0.73331E-05   -0.31164E-05  2961   0.577E-03
 198 F= -.23562337E+04 E0= -.23562337E+04  d E =-.375916E-02  mag=     5.0000
       N       E                     dE             d eps       ncg     rms          rms(c)
DAV:   1    -0.233454332615E+04    0.15740E+00   -0.11559E+01  4536   0.264E+00    0.852E-01
RMM:   2    -0.233469097917E+04   -0.14765E+00   -0.15567E+00  6427   0.618E-01    0.584E-01
RMM:   3    -0.233470419628E+04   -0.13217E-01   -0.16559E-01  5996   0.232E-01    0.548E-01
RMM:   4    -0.233470175331E+04    0.24430E-02   -0.16180E-02  5925   0.515E-02    0.303E-01
RMM:   5    -0.233470106255E+04    0.69076E-03   -0.20453E-03  5135   0.251E-02    0.246E-01
RMM:   6    -0.233470069158E+04    0.37097E-03   -0.20066E-03  5446   0.239E-02    0.188E-01
RMM:   7    -0.233470030468E+04    0.38690E-03   -0.73828E-04  5086   0.158E-02    0.496E-02
RMM:   8    -0.233470029291E+04    0.11766E-04   -0.10862E-04  3100   0.872E-03    0.484E-02
RMM:   9    -0.233470026776E+04    0.25153E-04   -0.45804E-05  3021   0.516E-03    0.282E-02
RMM:  10    -0.233470025803E+04    0.97309E-05   -0.27532E-05  3004   0.389E-03
 199 F= -.23562339E+04 E0= -.23562339E+04  d E =-.399314E-02  mag=     5.0000
       N       E                     dE             d eps       ncg     rms          rms(c)
DAV:   1    -0.233466975169E+04    0.30516E-01   -0.23556E+00  4536   0.119E+00    0.380E-01
RMM:   2    -0.233469939250E+04   -0.29641E-01   -0.31134E-01  6403   0.275E-01    0.259E-01
RMM:   3    -0.233470210629E+04   -0.27138E-02   -0.34027E-02  5872   0.111E-01    0.230E-01
RMM:   4    -0.233470163096E+04    0.47533E-03   -0.32674E-03  4543   0.238E-02    0.137E-01
RMM:   5    -0.233470144223E+04    0.18873E-03   -0.47278E-04  4053   0.129E-02    0.934E-02
RMM:   6    -0.233470143316E+04    0.90673E-05   -0.41844E-04  4171   0.119E-02    0.916E-02
RMM:   7    -0.233470133576E+04    0.97397E-04   -0.15243E-04  3515   0.813E-03    0.216E-02
RMM:   8    -0.233470133185E+04    0.39084E-05   -0.22364E-05  2989   0.496E-03
 200 F= -.23562347E+04 E0= -.23562347E+04  d E =-.475291E-02  mag=     5.0000
       N       E                     dE             d eps       ncg     rms          rms(c)
DAV:   1    -0.233466812613E+04    0.33210E-01   -0.26587E+00  4536   0.129E+00    0.409E-01
RMM:   2    -0.233470161223E+04   -0.33486E-01   -0.35281E-01  6358   0.297E-01    0.266E-01
RMM:   3    -0.233470441565E+04   -0.28034E-02   -0.36397E-02  5912   0.114E-01    0.234E-01
RMM:   4    -0.233470403759E+04    0.37806E-03   -0.35613E-03  4805   0.243E-02    0.143E-01
RMM:   5    -0.233470380236E+04    0.23523E-03   -0.50519E-04  4316   0.137E-02    0.884E-02
RMM:   6    -0.233470382339E+04   -0.21029E-04   -0.39684E-04  4428   0.119E-02    0.977E-02
RMM:   7    -0.233470371048E+04    0.11291E-03   -0.15486E-04  3352   0.832E-03    0.243E-02
RMM:   8    -0.233470370212E+04    0.83600E-05   -0.21529E-05  2993   0.480E-03
 201 F= -.23562373E+04 E0= -.23562373E+04  d E =-.263849E-02  mag=     5.0000
