       N       E                     dE             d eps       ncg     rms          rms(c)
DAV:   1     0.126949210965E+05    0.12695E+05   -0.83273E+05  4472   0.144E+03
DAV:   2    -0.108669972886E+04   -0.13782E+05   -0.13202E+05  5320   0.330E+02
DAV:   3    -0.247540509575E+04   -0.13887E+04   -0.13758E+04  5360   0.110E+02
DAV:   4    -0.252035446580E+04   -0.44949E+02   -0.44734E+02  6672   0.295E+01
DAV:   5    -0.252120290202E+04   -0.84844E+00   -0.84708E+00  5544   0.319E+00    0.171E+02
RMM:   6    -0.147812444538E+04    0.10431E+04   -0.19510E+03  4404   0.389E+01    0.758E+01
RMM:   7    -0.166012395673E+04   -0.18200E+03   -0.34385E+02  5031   0.145E+01    0.597E+01
RMM:   8    -0.168436850393E+04   -0.24245E+02   -0.75845E+01  5290   0.833E+00    0.382E+01
RMM:   9    -0.178059699582E+04   -0.96228E+02   -0.48297E+01  4780   0.638E+00    0.322E+01
RMM:  10    -0.192593035264E+04   -0.14533E+03   -0.68945E+01  5113   0.789E+00    0.223E+01
RMM:  11    -0.201189694271E+04   -0.85967E+02   -0.34092E+01  5035   0.518E+00    0.209E+01
RMM:  12    -0.206726157841E+04   -0.55365E+02   -0.20506E+01  4943   0.375E+00    0.164E+01
RMM:  13    -0.216936084646E+04   -0.10210E+03   -0.59534E+01  4545   0.586E+00    0.110E+01
RMM:  14    -0.227326370575E+04   -0.10390E+03   -0.97555E+01  4443   0.680E+00    0.953E+00
RMM:  15    -0.229022069938E+04   -0.16957E+02   -0.15975E+01  4523   0.372E+00    0.673E+00
RMM:  16    -0.229907625129E+04   -0.88556E+01   -0.80932E+00  4478   0.194E+00    0.360E+00
RMM:  17    -0.230658639449E+04   -0.75101E+01   -0.54921E+00  4490   0.177E+00    0.220E+00
RMM:  18    -0.230904093997E+04   -0.24545E+01   -0.22498E+00  4958   0.886E-01    0.172E+00
RMM:  19    -0.231025427513E+04   -0.12133E+01   -0.11420E+00  4583   0.567E-01    0.937E-01
RMM:  20    -0.231060337987E+04   -0.34910E+00   -0.41390E-01  4753   0.362E-01    0.647E-01
RMM:  21    -0.231076788902E+04   -0.16451E+00   -0.16586E-01  4570   0.200E-01    0.390E-01
RMM:  22    -0.231082805703E+04   -0.60168E-01   -0.50117E-02  4638   0.135E-01    0.288E-01
RMM:  23    -0.231085055332E+04   -0.22496E-01   -0.11777E-02  4821   0.700E-02    0.182E-01
RMM:  24    -0.231086725689E+04   -0.16704E-01   -0.47972E-03  4456   0.490E-02    0.117E-01
RMM:  25    -0.231088052492E+04   -0.13268E-01   -0.33072E-03  4433   0.431E-02    0.531E-02
RMM:  26    -0.231088568122E+04   -0.51563E-02   -0.14243E-03  4422   0.297E-02    0.351E-02
RMM:  27    -0.231088805959E+04   -0.23784E-02   -0.60201E-04  4302   0.169E-02    0.271E-02
RMM:  28    -0.231088940456E+04   -0.13450E-02   -0.27650E-04  3854   0.127E-02    0.168E-02
RMM:  29    -0.231088989311E+04   -0.48855E-03   -0.12020E-04  3705   0.841E-03    0.104E-02
RMM:  30    -0.231089010078E+04   -0.20768E-03   -0.54028E-05  3475   0.641E-03    0.545E-03
RMM:  31    -0.231089016505E+04   -0.64266E-04   -0.20445E-05  3035   0.452E-03    0.283E-03
RMM:  32    -0.231089017866E+04   -0.13612E-04   -0.64394E-06  2813   0.326E-03    0.133E-03
RMM:  33    -0.231089018389E+04   -0.52240E-05   -0.33190E-06  2431   0.215E-03
   1 F= -.23313392E+04 E0= -.23313392E+04  d E =-.233134E+04  mag=     1.0001
       N       E                     dE             d eps       ncg     rms          rms(c)
DAV:   1    -0.230941342127E+04    0.14768E+01   -0.79298E+01  4864   0.703E+00    0.421E+00
RMM:   2    -0.231324548946E+04   -0.38321E+01   -0.27383E+01  6364   0.275E+00    0.119E+01
RMM:   3    -0.231154870342E+04    0.16968E+01   -0.24955E+00  5773   0.831E-01    0.198E+00
RMM:   4    -0.231148824403E+04    0.60459E-01   -0.31944E-01  6016   0.237E-01    0.134E+00
RMM:   5    -0.231147299842E+04    0.15246E-01   -0.44168E-02  5866   0.106E-01    0.923E-01
RMM:   6    -0.231145860075E+04    0.14398E-01   -0.36492E-02  5543   0.106E-01    0.367E-01
RMM:   7    -0.231145839038E+04    0.21037E-03   -0.89494E-03  5004   0.629E-02    0.176E-01
RMM:   8    -0.231145863899E+04   -0.24861E-03   -0.18590E-03  4854   0.284E-02    0.116E-01
RMM:   9    -0.231145899384E+04   -0.35485E-03   -0.72451E-04  4761   0.185E-02    0.109E-01
RMM:  10    -0.231145936577E+04   -0.37193E-03   -0.45884E-04  4685   0.126E-02    0.911E-02
RMM:  11    -0.231145973360E+04   -0.36783E-03   -0.36206E-04  4163   0.117E-02    0.822E-02
RMM:  12    -0.231146044290E+04   -0.70930E-03   -0.14781E-03  4779   0.195E-02    0.628E-02
RMM:  13    -0.231146106259E+04   -0.61968E-03   -0.13243E-03  4289   0.186E-02    0.528E-02
RMM:  14    -0.231146150386E+04   -0.44128E-03   -0.76825E-04  4075   0.146E-02    0.558E-02
RMM:  15    -0.231146147292E+04    0.30938E-04   -0.58553E-05  3042   0.770E-03    0.660E-02
RMM:  16    -0.231146163720E+04   -0.16428E-03   -0.10817E-04  3319   0.570E-03    0.553E-02
RMM:  17    -0.231146205097E+04   -0.41377E-03   -0.80663E-04  4399   0.133E-02    0.440E-02
RMM:  18    -0.231146232435E+04   -0.27338E-03   -0.36786E-04  3672   0.107E-02    0.457E-02
RMM:  19    -0.231146254219E+04   -0.21784E-03   -0.30779E-04  3767   0.840E-03    0.467E-02
RMM:  20    -0.231146272424E+04   -0.18205E-03   -0.20333E-04  3442   0.729E-03    0.458E-02
RMM:  21    -0.231146264779E+04    0.76449E-04   -0.34571E-05  2925   0.589E-03    0.560E-02
RMM:  22    -0.231146269475E+04   -0.46959E-04   -0.78448E-06  2645   0.223E-03    0.514E-02
RMM:  23    -0.231146294205E+04   -0.24730E-03   -0.39389E-04  3858   0.910E-03    0.401E-02
RMM:  24    -0.231146305522E+04   -0.11316E-03   -0.10919E-04  3017   0.644E-03    0.403E-02
RMM:  25    -0.231146315133E+04   -0.96114E-04   -0.10446E-04  3273   0.479E-03    0.398E-02
RMM:  26    -0.231146321409E+04   -0.62762E-04   -0.40921E-05  2879   0.365E-03    0.388E-02
RMM:  27    -0.231146331259E+04   -0.98496E-04   -0.11004E-04  3223   0.497E-03    0.336E-02
RMM:  28    -0.231146343944E+04   -0.12685E-03   -0.25069E-04  3477   0.730E-03    0.246E-02
RMM:  29    -0.231146352714E+04   -0.87700E-04   -0.18070E-04  3324   0.653E-03    0.186E-02
RMM:  30    -0.231146357586E+04   -0.48718E-04   -0.97032E-05  3081   0.545E-03    0.144E-02
RMM:  31    -0.231146361193E+04   -0.36072E-04   -0.14040E-04  3298   0.576E-03    0.755E-03
RMM:  32    -0.231146361760E+04   -0.56726E-05   -0.11157E-05  2762   0.361E-03
   2 F= -.23319138E+04 E0= -.23319138E+04  d E =-.574557E+00  mag=     1.0000
       N       E                     dE             d eps       ncg     rms          rms(c)
DAV:   1    -0.231146359789E+04    0.14040E-04   -0.19489E-03  4688   0.338E-02    0.188E-02
RMM:   2    -0.231146367500E+04   -0.77103E-04   -0.46059E-04  4503   0.113E-02    0.618E-02
RMM:   3    -0.231146363917E+04    0.35822E-04   -0.48494E-05  2843   0.560E-03    0.960E-03
RMM:   4    -0.231146363946E+04   -0.28813E-06   -0.74845E-06  2183   0.152E-03
   3 F= -.23319138E+04 E0= -.23319138E+04  d E =-.574585E+00  mag=     1.0000
       N       E                     dE             d eps       ncg     rms          rms(c)
DAV:   1    -0.231026889950E+04    0.11947E+01   -0.63568E+01  4440   0.661E+00    0.353E+00
RMM:   2    -0.231301859667E+04   -0.27497E+01   -0.22171E+01  6392   0.238E+00    0.860E+00
RMM:   3    -0.231201703202E+04    0.10016E+01   -0.17410E+00  5332   0.828E-01    0.216E+00
RMM:   4    -0.231195477959E+04    0.62252E-01   -0.25475E-01  6309   0.214E-01    0.113E+00
RMM:   5    -0.231194398834E+04    0.10791E-01   -0.23048E-02  5650   0.689E-02    0.775E-01
RMM:   6    -0.231193587571E+04    0.81126E-02   -0.19537E-02  5742   0.763E-02    0.265E-01
RMM:   7    -0.231193552442E+04    0.35129E-03   -0.37788E-03  5314   0.410E-02    0.103E-01
RMM:   8    -0.231193550427E+04    0.20146E-04   -0.46901E-04  4240   0.135E-02    0.566E-02
RMM:   9    -0.231193556496E+04   -0.60693E-04   -0.13304E-04  3471   0.837E-03    0.208E-02
RMM:  10    -0.231193560967E+04   -0.44708E-04   -0.30660E-05  2918   0.469E-03    0.106E-02
RMM:  11    -0.231193563850E+04   -0.28823E-04   -0.12773E-05  2855   0.354E-03    0.733E-03
RMM:  12    -0.231193565886E+04   -0.20364E-04   -0.98176E-06  2828   0.320E-03    0.369E-03
RMM:  13    -0.231193566825E+04   -0.93926E-05   -0.58362E-06  2803   0.277E-03
   4 F= -.23323864E+04 E0= -.23323864E+04  d E =-.472608E+00  mag=     1.0000
       N       E                     dE             d eps       ncg     rms          rms(c)
DAV:   1    -0.231104398073E+04    0.89168E+00   -0.40096E+01  4448   0.531E+00    0.273E+00
RMM:   2    -0.231261871229E+04   -0.15747E+01   -0.13318E+01  6442   0.190E+00    0.613E+00
RMM:   3    -0.231210897374E+04    0.50974E+00   -0.97894E-01  5596   0.571E-01    0.159E+00
RMM:   4    -0.231207630618E+04    0.32668E-01   -0.13816E-01  6189   0.163E-01    0.839E-01
RMM:   5    -0.231207032053E+04    0.59856E-02   -0.13893E-02  5696   0.557E-02    0.570E-01
RMM:   6    -0.231206622947E+04    0.40911E-02   -0.11332E-02  5770   0.627E-02    0.185E-01
RMM:   7    -0.231206606434E+04    0.16513E-03   -0.17025E-03  5170   0.275E-02    0.640E-02
RMM:   8    -0.231206606823E+04   -0.38914E-05   -0.25249E-04  3905   0.980E-03    0.362E-02
RMM:   9    -0.231206611727E+04   -0.49040E-04   -0.61482E-05  3147   0.618E-03    0.139E-02
RMM:  10    -0.231206615090E+04   -0.33636E-04   -0.19624E-05  2868   0.402E-03    0.847E-03
RMM:  11    -0.231206617142E+04   -0.20516E-04   -0.92483E-06  2837   0.306E-03    0.423E-03
RMM:  12    -0.231206618593E+04   -0.14507E-04   -0.67970E-06  2786   0.278E-03    0.244E-03
RMM:  13    -0.231206619222E+04   -0.62944E-05   -0.41770E-06  2710   0.241E-03
   5 F= -.23325164E+04 E0= -.23325164E+04  d E =-.602620E+00  mag=     1.0000
       N       E                     dE             d eps       ncg     rms          rms(c)
DAV:   1    -0.231110145184E+04    0.96473E+00   -0.69588E+01  4416   0.659E+00    0.275E+00
RMM:   2    -0.231238808222E+04   -0.12866E+01   -0.13940E+01  6436   0.222E+00    0.227E+00
RMM:   3    -0.231233662648E+04    0.51456E-01   -0.95778E-01  6188   0.545E-01    0.140E+00
RMM:   4    -0.231233922279E+04   -0.25963E-02   -0.11143E-01  6028   0.132E-01    0.134E+00
RMM:   5    -0.231232756258E+04    0.11660E-01   -0.30253E-02  6136   0.806E-02    0.992E-01
RMM:   6    -0.231231678671E+04    0.10776E-01   -0.17565E-02  5124   0.814E-02    0.238E-01
RMM:   7    -0.231231652037E+04    0.26634E-03   -0.38481E-03  5019   0.343E-02    0.104E-01
RMM:   8    -0.231231627011E+04    0.25026E-03   -0.56405E-04  4523   0.158E-02    0.433E-02
RMM:   9    -0.231231624061E+04    0.29496E-04   -0.19135E-04  3787   0.898E-03    0.220E-02
RMM:  10    -0.231231623258E+04    0.80292E-05   -0.32257E-05  3005   0.515E-03
   6 F= -.23327618E+04 E0= -.23327618E+04  d E =-.245390E+00  mag=     1.0000
       N       E                     dE             d eps       ncg     rms          rms(c)
DAV:   1    -0.231230693454E+04    0.93061E-02   -0.69474E-01  4744   0.656E-01    0.257E-01
RMM:   2    -0.231231880213E+04   -0.11868E-01   -0.12795E-01  6489   0.204E-01    0.198E-01
RMM:   3    -0.231231882231E+04   -0.20178E-04   -0.74446E-03  5359   0.417E-02    0.152E-01
RMM:   4    -0.231231879720E+04    0.25110E-04   -0.98906E-04  3840   0.127E-02    0.132E-01
RMM:   5    -0.231231866932E+04    0.12788E-03   -0.29538E-04  3978   0.902E-03    0.925E-02
RMM:   6    -0.231231857419E+04    0.95126E-04   -0.18708E-04  3398   0.996E-03    0.161E-02
RMM:   7    -0.231231857496E+04   -0.77026E-06   -0.33062E-05  2926   0.435E-03
   7 F= -.23327647E+04 E0= -.23327647E+04  d E =-.248250E+00  mag=     1.0000
       N       E                     dE             d eps       ncg     rms          rms(c)
DAV:   1    -0.231231314955E+04    0.54246E-02   -0.15184E+01  4512   0.284E+00    0.109E+00
RMM:   2    -0.231244110130E+04   -0.12795E+00   -0.12506E+00  6183   0.699E-01    0.149E+00
RMM:   3    -0.231242047337E+04    0.20628E-01   -0.76775E-02  6112   0.179E-01    0.891E-01
RMM:   4    -0.231241031529E+04    0.10158E-01   -0.12851E-02  5385   0.576E-02    0.345E-01
RMM:   5    -0.231240779873E+04    0.25166E-02   -0.80953E-03  5130   0.495E-02    0.133E-01
RMM:   6    -0.231240752168E+04    0.27705E-03   -0.13151E-03  5319   0.279E-02    0.856E-02
RMM:   7    -0.231240738795E+04    0.13373E-03   -0.27387E-04  4285   0.105E-02    0.373E-02
RMM:   8    -0.231240734285E+04    0.45107E-04   -0.78688E-05  3730   0.644E-03    0.195E-02
RMM:   9    -0.231240733499E+04    0.78610E-05   -0.34874E-05  3040   0.567E-03
   8 F= -.23328525E+04 E0= -.23328525E+04  d E =-.878064E-01  mag=     1.0000
       N       E                     dE             d eps       ncg     rms          rms(c)
DAV:   1    -0.231240743895E+04   -0.96106E-04   -0.15243E-01  4960   0.274E-01    0.114E-01
RMM:   2    -0.231240879512E+04   -0.13562E-02   -0.13061E-02  6276   0.685E-02    0.152E-01
RMM:   3    -0.231240858448E+04    0.21064E-03   -0.91920E-04  4251   0.190E-02    0.913E-02
RMM:   4    -0.231240848480E+04    0.99679E-04   -0.11813E-04  3110   0.671E-03    0.340E-02
RMM:   5    -0.231240847148E+04    0.13313E-04   -0.70825E-05  3285   0.607E-03    0.102E-02
RMM:   6    -0.231240847404E+04   -0.25610E-05   -0.11944E-05  2844   0.438E-03
   9 F= -.23328537E+04 E0= -.23328537E+04  d E =-.890432E-01  mag=     1.0000
       N       E                     dE             d eps       ncg     rms          rms(c)
DAV:   1    -0.231241171912E+04   -0.32476E-02   -0.29472E+00  4480   0.148E+00    0.529E-01
RMM:   2    -0.231244961434E+04   -0.37895E-01   -0.35723E-01  6258   0.401E-01    0.806E-01
RMM:   3    -0.231244312358E+04    0.64908E-02   -0.18958E-02  6020   0.918E-02    0.418E-01
RMM:   4    -0.231244119144E+04    0.19321E-02   -0.25091E-03  5349   0.266E-02    0.128E-01
RMM:   5    -0.231244103460E+04    0.15684E-03   -0.76162E-04  4867   0.173E-02    0.521E-02
RMM:   6    -0.231244102798E+04    0.66195E-05   -0.12358E-04  3871   0.108E-02    0.195E-02
RMM:   7    -0.231244102902E+04   -0.10377E-05   -0.21661E-05  2941   0.484E-03
  10 F= -.23328869E+04 E0= -.23328869E+04  d E =-.331884E-01  mag=     1.0000
       N       E                     dE             d eps       ncg     rms          rms(c)
DAV:   1    -0.231242611659E+04    0.14911E-01   -0.24633E+00  4480   0.137E+00    0.487E-01
RMM:   2    -0.231245799816E+04   -0.31882E-01   -0.29817E-01  6266   0.367E-01    0.751E-01
RMM:   3    -0.231245229598E+04    0.57022E-02   -0.16398E-02  6015   0.847E-02    0.379E-01
RMM:   4    -0.231245070933E+04    0.15867E-02   -0.21437E-03  5288   0.244E-02    0.119E-01
RMM:   5    -0.231245058298E+04    0.12635E-03   -0.64258E-04  4816   0.161E-02    0.497E-02
RMM:   6    -0.231245057894E+04    0.40411E-05   -0.11401E-04  3731   0.101E-02    0.198E-02
RMM:   7    -0.231245057881E+04    0.13152E-06   -0.20979E-05  2937   0.482E-03
  11 F= -.23328970E+04 E0= -.23328970E+04  d E =-.433161E-01  mag=     1.0000
       N       E                     dE             d eps       ncg     rms          rms(c)
DAV:   1    -0.231246754027E+04   -0.16961E-01   -0.26644E+00  4416   0.132E+00    0.324E-01
RMM:   2    -0.231247799560E+04   -0.10455E-01   -0.93598E-02  5840   0.247E-01    0.489E-01
RMM:   3    -0.231247604633E+04    0.19493E-02   -0.74484E-03  5904   0.664E-02    0.255E-01
RMM:   4    -0.231247538677E+04    0.65956E-03   -0.87819E-04  4869   0.193E-02    0.112E-01
RMM:   5    -0.231247536170E+04    0.25073E-04   -0.64496E-04  5361   0.170E-02    0.883E-02
RMM:   6    -0.231247527018E+04    0.91521E-04   -0.27309E-04  4299   0.123E-02    0.197E-02
RMM:   7    -0.231247526575E+04    0.44264E-05   -0.26038E-05  2950   0.485E-03
  12 F= -.23329221E+04 E0= -.23329221E+04  d E =-.251243E-01  mag=     1.0000
       N       E                     dE             d eps       ncg     rms          rms(c)
DAV:   1    -0.231246677086E+04    0.84993E-02   -0.85016E+00  4384   0.236E+00    0.580E-01
RMM:   2    -0.231249993511E+04   -0.33164E-01   -0.29891E-01  5905   0.438E-01    0.859E-01
RMM:   3    -0.231249425657E+04    0.56785E-02   -0.24252E-02  6032   0.116E-01    0.462E-01
RMM:   4    -0.231249207992E+04    0.21766E-02   -0.28452E-03  5235   0.345E-02    0.199E-01
RMM:   5    -0.231249198226E+04    0.97661E-04   -0.21030E-03  5704   0.299E-02    0.154E-01
RMM:   6    -0.231249170047E+04    0.28179E-03   -0.79817E-04  5113   0.207E-02    0.368E-02
RMM:   7    -0.231249168315E+04    0.17327E-04   -0.77228E-05  3323   0.656E-03    0.193E-02
RMM:   8    -0.231249168274E+04    0.40699E-06   -0.16280E-05  2906   0.463E-03
  13 F= -.23329393E+04 E0= -.23329393E+04  d E =-.422692E-01  mag=     1.0000
       N       E                     dE             d eps       ncg     rms          rms(c)
DAV:   1    -0.231250015104E+04   -0.84679E-02   -0.23283E+00  4472   0.129E+00    0.300E-01
RMM:   2    -0.231251116019E+04   -0.11009E-01   -0.11833E-01  5914   0.237E-01    0.187E-01
RMM:   3    -0.231251198775E+04   -0.82756E-03   -0.83808E-03  5484   0.614E-02    0.271E-01
RMM:   4    -0.231251127078E+04    0.71697E-03   -0.12196E-03  4919   0.193E-02    0.112E-01
RMM:   5    -0.231251112372E+04    0.14706E-03   -0.59834E-04  4332   0.151E-02    0.433E-02
RMM:   6    -0.231251111666E+04    0.70549E-05   -0.10435E-04  3504   0.109E-02    0.216E-02
RMM:   7    -0.231251111183E+04    0.48302E-05   -0.16620E-05  2902   0.362E-03
  14 F= -.23329591E+04 E0= -.23329591E+04  d E =-.197882E-01  mag=     1.0000
       N       E                     dE             d eps       ncg     rms          rms(c)
DAV:   1    -0.231243687201E+04    0.74245E-01   -0.20906E+01  4440   0.387E+00    0.908E-01
RMM:   2    -0.231253621184E+04   -0.99340E-01   -0.10735E+00  5863   0.699E-01    0.513E-01
RMM:   3    -0.231254330648E+04   -0.70946E-02   -0.88172E-02  5574   0.196E-01    0.710E-01
RMM:   4    -0.231253928146E+04    0.40250E-02   -0.11242E-02  5957   0.572E-02    0.362E-01
RMM:   5    -0.231253772691E+04    0.15546E-02   -0.38010E-03  4650   0.391E-02    0.114E-01
RMM:   6    -0.231253771553E+04    0.11372E-04   -0.87341E-04  4613   0.255E-02    0.516E-02
RMM:   7    -0.231253770269E+04    0.12842E-04   -0.14336E-04  4108   0.901E-03    0.339E-02
RMM:   8    -0.231253769200E+04    0.10692E-04   -0.38087E-05  3017   0.591E-03    0.160E-02
RMM:   9    -0.231253769886E+04   -0.68620E-05   -0.21184E-05  2989   0.410E-03
  15 F= -.23329866E+04 E0= -.23329866E+04  d E =-.473382E-01  mag=     1.0000
       N       E                     dE             d eps       ncg     rms          rms(c)
DAV:   1    -0.231253016295E+04    0.75290E-02   -0.46689E+00  4480   0.186E+00    0.507E-01
RMM:   2    -0.231256965171E+04   -0.39489E-01   -0.35703E-01  6190   0.380E-01    0.830E-01
RMM:   3    -0.231256406358E+04    0.55881E-02   -0.26819E-02  5954   0.105E-01    0.352E-01
RMM:   4    -0.231256276157E+04    0.13020E-02   -0.29997E-03  4987   0.264E-02    0.148E-01
RMM:   5    -0.231256254149E+04    0.22008E-03   -0.10291E-03  4885   0.213E-02    0.805E-02
RMM:   6    -0.231256248414E+04    0.57352E-04   -0.26839E-04  4637   0.141E-02    0.354E-02
RMM:   7    -0.231256247475E+04    0.93904E-05   -0.32170E-05  3035   0.449E-03
  16 F= -.23330122E+04 E0= -.23330122E+04  d E =-.255696E-01  mag=     1.0000
       N       E                     dE             d eps       ncg     rms          rms(c)
DAV:   1    -0.231251017644E+04    0.52308E-01   -0.95657E+00  4448   0.269E+00    0.728E-01
RMM:   2    -0.231259068140E+04   -0.80505E-01   -0.73259E-01  6213   0.547E-01    0.118E+00
RMM:   3    -0.231258017828E+04    0.10503E-01   -0.56277E-02  6030   0.152E-01    0.528E-01
RMM:   4    -0.231257721343E+04    0.29648E-02   -0.61807E-03  5164   0.382E-02    0.215E-01
RMM:   5    -0.231257676962E+04    0.44382E-03   -0.21096E-03  5058   0.301E-02    0.120E-01
RMM:   6    -0.231257662911E+04    0.14050E-03   -0.58954E-04  5209   0.201E-02    0.519E-02
RMM:   7    -0.231257660690E+04    0.22215E-04   -0.71011E-05  3294   0.578E-03    0.211E-02
RMM:   8    -0.231257660691E+04   -0.90222E-08   -0.14204E-05  2885   0.441E-03
  17 F= -.23330274E+04 E0= -.23330274E+04  d E =-.407910E-01  mag=     1.0000
       N       E                     dE             d eps       ncg     rms          rms(c)
DAV:   1    -0.231255895708E+04    0.17650E-01   -0.43437E+00  4480   0.186E+00    0.514E-01
RMM:   2    -0.231259381166E+04   -0.34855E-01   -0.37692E-01  6183   0.376E-01    0.349E-01
RMM:   3    -0.231259670698E+04   -0.28953E-02   -0.37474E-02  5894   0.110E-01    0.447E-01
RMM:   4    -0.231259501999E+04    0.16870E-02   -0.39009E-03  5712   0.310E-02    0.206E-01
RMM:   5    -0.231259467178E+04    0.34821E-03   -0.11469E-03  5258   0.188E-02    0.124E-01
RMM:   6    -0.231259448798E+04    0.18380E-03   -0.59688E-04  5077   0.164E-02    0.466E-02
RMM:   7    -0.231259447071E+04    0.17269E-04   -0.79573E-05  3478   0.804E-03    0.184E-02
RMM:   8    -0.231259447020E+04    0.51587E-06   -0.16357E-05  2899   0.425E-03
  18 F= -.23330460E+04 E0= -.23330460E+04  d E =-.185975E-01  mag=     1.0000
       N       E                     dE             d eps       ncg     rms          rms(c)
DAV:   1    -0.231254926190E+04    0.45209E-01   -0.63998E+00  4416   0.227E+00    0.628E-01
RMM:   2    -0.231260105919E+04   -0.51797E-01   -0.55739E-01  6161   0.459E-01    0.443E-01
RMM:   3    -0.231260529392E+04   -0.42347E-02   -0.56002E-02  5914   0.139E-01    0.554E-01
RMM:   4    -0.231260258201E+04    0.27119E-02   -0.58718E-03  5872   0.385E-02    0.248E-01
RMM:   5    -0.231260207754E+04    0.50447E-03   -0.17272E-03  5415   0.229E-02    0.151E-01
RMM:   6    -0.231260179862E+04    0.27892E-03   -0.88833E-04  5292   0.196E-02    0.571E-02
RMM:   7    -0.231260177109E+04    0.27533E-04   -0.12032E-04  3914   0.957E-03    0.241E-02
RMM:   8    -0.231260176867E+04    0.24108E-05   -0.26164E-05  2947   0.452E-03
  19 F= -.23330541E+04 E0= -.23330541E+04  d E =-.267230E-01  mag=     1.0000
       N       E                     dE             d eps       ncg     rms          rms(c)
DAV:   1    -0.231256109207E+04    0.40679E-01   -0.69308E+00  4416   0.232E+00    0.633E-01
RMM:   2    -0.231262314965E+04   -0.62058E-01   -0.61265E-01  6237   0.465E-01    0.837E-01
RMM:   3    -0.231261963080E+04    0.35189E-02   -0.50168E-02  6044   0.131E-01    0.521E-01
RMM:   4    -0.231261675582E+04    0.28750E-02   -0.52239E-03  5625   0.369E-02    0.213E-01
RMM:   5    -0.231261646750E+04    0.28832E-03   -0.16344E-03  5587   0.240E-02    0.165E-01
RMM:   6    -0.231261609637E+04    0.37113E-03   -0.96713E-04  5155   0.197E-02    0.396E-02
RMM:   7    -0.231261609034E+04    0.60263E-05   -0.68110E-05  3302   0.903E-03
  20 F= -.23330696E+04 E0= -.23330696E+04  d E =-.154211E-01  mag=     1.0000
       N       E                     dE             d eps       ncg     rms          rms(c)
DAV:   1    -0.231249378684E+04    0.12231E+00   -0.15465E+01  4416   0.346E+00    0.948E-01
RMM:   2    -0.231263423080E+04   -0.14044E+00   -0.13878E+00  6242   0.698E-01    0.124E+00
RMM:   3    -0.231262520625E+04    0.90245E-02   -0.11224E-01  6046   0.196E-01    0.746E-01
RMM:   4    -0.231261932176E+04    0.58845E-02   -0.11757E-02  5710   0.550E-02    0.318E-01
RMM:   5    -0.231261869041E+04    0.63136E-03   -0.34703E-03  5787   0.352E-02    0.248E-01
RMM:   6    -0.231261784172E+04    0.84868E-03   -0.21434E-03  5295   0.290E-02    0.589E-02
RMM:   7    -0.231261782770E+04    0.14023E-04   -0.15237E-04  4071   0.130E-02    0.333E-02
RMM:   8    -0.231261782129E+04    0.64107E-05   -0.42561E-05  3090   0.538E-03
  21 F= -.23330728E+04 E0= -.23330728E+04  d E =-.186591E-01  mag=     1.0000
       N       E                     dE             d eps       ncg     rms          rms(c)
DAV:   1    -0.231260383063E+04    0.13997E-01   -0.20512E+00  4480   0.125E+00    0.331E-01
RMM:   2    -0.231262066406E+04   -0.16833E-01   -0.17425E-01  6257   0.249E-01    0.353E-01
RMM:   3    -0.231262132533E+04   -0.66127E-03   -0.17533E-02  5902   0.724E-02    0.315E-01
RMM:   4    -0.231262026004E+04    0.10653E-02   -0.16358E-03  5054   0.208E-02    0.117E-01
RMM:   5    -0.231262016795E+04    0.92086E-04   -0.50320E-04  4905   0.133E-02    0.902E-02
RMM:   6    -0.231262005831E+04    0.10965E-03   -0.31221E-04  4543   0.115E-02    0.197E-02
RMM:   7    -0.231262005667E+04    0.16401E-05   -0.18621E-05  2917   0.586E-03
  22 F= -.23330745E+04 E0= -.23330745E+04  d E =-.203655E-01  mag=     1.0000
       N       E                     dE             d eps       ncg     rms          rms(c)
DAV:   1    -0.231258456095E+04    0.35497E-01   -0.86342E+00  4416   0.251E+00    0.591E-01
RMM:   2    -0.231263250470E+04   -0.47944E-01   -0.50939E-01  6078   0.477E-01    0.413E-01
RMM:   3    -0.231263458646E+04   -0.20818E-02   -0.35165E-02  5890   0.122E-01    0.527E-01
RMM:   4    -0.231263182228E+04    0.27642E-02   -0.44030E-03  5853   0.362E-02    0.226E-01
RMM:   5    -0.231263141075E+04    0.41153E-03   -0.17100E-03  5344   0.253E-02    0.138E-01
RMM:   6    -0.231263119526E+04    0.21549E-03   -0.80245E-04  5330   0.199E-02    0.499E-02
RMM:   7    -0.231263117157E+04    0.23690E-04   -0.72373E-05  3166   0.766E-03    0.211E-02
RMM:   8    -0.231263116908E+04    0.24926E-05   -0.16746E-05  2895   0.418E-03
  23 F= -.23330871E+04 E0= -.23330871E+04  d E =-.126159E-01  mag=     1.0000
       N       E                     dE             d eps       ncg     rms          rms(c)
DAV:   1    -0.231262881933E+04    0.23522E-02   -0.46480E-01  4592   0.584E-01    0.139E-01
RMM:   2    -0.231263137122E+04   -0.25519E-02   -0.27162E-02  6141   0.110E-01    0.962E-02
RMM:   3    -0.231263148303E+04   -0.11180E-03   -0.18277E-03  4857   0.285E-02    0.122E-01
RMM:   4    -0.231263133309E+04    0.14994E-03   -0.23525E-04  3359   0.899E-03    0.525E-02
RMM:   5    -0.231263131443E+04    0.18651E-04   -0.94364E-05  3599   0.706E-03    0.345E-02
RMM:   6    -0.231263130040E+04    0.14036E-04   -0.48224E-05  3181   0.593E-03    0.996E-03
RMM:   7    -0.231263129996E+04    0.43825E-06   -0.60455E-06  2819   0.364E-03
  24 F= -.23330876E+04 E0= -.23330876E+04  d E =-.130858E-01  mag=     1.0000
       N       E                     dE             d eps       ncg     rms          rms(c)
DAV:   1    -0.231260831183E+04    0.22989E-01   -0.73316E+00  4416   0.237E+00    0.572E-01
RMM:   2    -0.231264483508E+04   -0.36523E-01   -0.39446E-01  6151   0.479E-01    0.311E-01
RMM:   3    -0.231264517110E+04   -0.33602E-03   -0.18648E-02  5832   0.973E-02    0.389E-01
RMM:   4    -0.231264387222E+04    0.12989E-02   -0.29969E-03  5716   0.311E-02    0.212E-01
RMM:   5    -0.231264353167E+04    0.34056E-03   -0.13242E-03  5407   0.236E-02    0.128E-01
RMM:   6    -0.231264331194E+04    0.21973E-03   -0.58751E-04  5229   0.177E-02    0.342E-02
RMM:   7    -0.231264330262E+04    0.93156E-05   -0.50012E-05  2990   0.623E-03
  25 F= -.23331006E+04 E0= -.23331006E+04  d E =-.129948E-01  mag=     1.0000
       N       E                     dE             d eps       ncg     rms          rms(c)
DAV:   1    -0.231257763353E+04    0.65678E-01   -0.14074E+01  4416   0.331E+00    0.800E-01
RMM:   2    -0.231264860975E+04   -0.70976E-01   -0.76481E-01  6138   0.670E-01    0.444E-01
RMM:   3    -0.231264987334E+04   -0.12636E-02   -0.37060E-02  5884   0.136E-01    0.593E-01
RMM:   4    -0.231264659665E+04    0.32767E-02   -0.60205E-03  5920   0.443E-02    0.282E-01
RMM:   5    -0.231264599683E+04    0.59982E-03   -0.25498E-03  5512   0.323E-02    0.176E-01
RMM:   6    -0.231264559175E+04    0.40509E-03   -0.11617E-03  5525   0.245E-02    0.498E-02
RMM:   7    -0.231264556899E+04    0.22756E-04   -0.94116E-05  3203   0.807E-03    0.240E-02
RMM:   8    -0.231264556741E+04    0.15807E-05   -0.27986E-05  2964   0.496E-03
  26 F= -.23331042E+04 E0= -.23331041E+04  d E =-.165587E-01  mag=     1.0000
       N       E                     dE             d eps       ncg     rms          rms(c)
DAV:   1    -0.231264156131E+04    0.40077E-02   -0.10674E+00  4480   0.913E-01    0.219E-01
RMM:   2    -0.231264688915E+04   -0.53278E-02   -0.56920E-02  6120   0.181E-01    0.136E-01
RMM:   3    -0.231264699954E+04   -0.11039E-03   -0.28972E-03  5503   0.369E-02    0.185E-01
RMM:   4    -0.231264663977E+04    0.35977E-03   -0.48019E-04  4027   0.130E-02    0.749E-02
RMM:   5    -0.231264660799E+04    0.31782E-04   -0.19795E-04  4361   0.979E-03    0.524E-02
RMM:   6    -0.231264656973E+04    0.38256E-04   -0.97204E-05  3862   0.768E-03    0.118E-02
RMM:   7    -0.231264656942E+04    0.31560E-06   -0.87254E-06  2862   0.410E-03
  27 F= -.23331048E+04 E0= -.23331048E+04  d E =-.172121E-01  mag=     1.0000
       N       E                     dE             d eps       ncg     rms          rms(c)
DAV:   1    -0.231263319726E+04    0.13372E-01   -0.58380E+00  4416   0.209E+00    0.528E-01
RMM:   2    -0.231266099712E+04   -0.27800E-01   -0.27643E-01  6042   0.409E-01    0.548E-01
RMM:   3    -0.231266035291E+04    0.64421E-03   -0.18599E-02  5978   0.968E-02    0.502E-01
RMM:   4    -0.231265760366E+04    0.27493E-02   -0.27752E-03  5429   0.344E-02    0.172E-01
RMM:   5    -0.231265738211E+04    0.22155E-03   -0.98299E-04  5367   0.194E-02    0.129E-01
RMM:   6    -0.231265717196E+04    0.21014E-03   -0.61007E-04  5004   0.183E-02    0.283E-02
RMM:   7    -0.231265716788E+04    0.40813E-05   -0.50605E-05  3172   0.849E-03
  28 F= -.23331156E+04 E0= -.23331156E+04  d E =-.108420E-01  mag=     1.0000
       N       E                     dE             d eps       ncg     rms          rms(c)
DAV:   1    -0.231255185088E+04    0.10532E+00   -0.26329E+01  4416   0.443E+00    0.113E+00
RMM:   2    -0.231268048433E+04   -0.12863E+00   -0.12766E+00  6093   0.857E-01    0.117E+00
RMM:   3    -0.231267922603E+04    0.12583E-02   -0.85731E-02  6015   0.202E-01    0.111E+00
RMM:   4    -0.231266597571E+04    0.13250E-01   -0.13104E-02  5674   0.730E-02    0.361E-01
RMM:   5    -0.231266510120E+04    0.87452E-03   -0.46644E-03  5803   0.409E-02    0.283E-01
RMM:   6    -0.231266408802E+04    0.10132E-02   -0.26502E-03  5199   0.373E-02    0.654E-02
RMM:   7    -0.231266406422E+04    0.23796E-04   -0.24657E-04  4431   0.163E-02    0.349E-02
RMM:   8    -0.231266405837E+04    0.58450E-05   -0.52576E-05  3321   0.599E-03
  29 F= -.23331229E+04 E0= -.23331229E+04  d E =-.181360E-01  mag=     1.0000
       N       E                     dE             d eps       ncg     rms          rms(c)
DAV:   1    -0.231265295200E+04    0.11112E-01   -0.32691E+00  4416   0.155E+00    0.410E-01
RMM:   2    -0.231267235414E+04   -0.19402E-01   -0.20576E-01  6213   0.326E-01    0.283E-01
RMM:   3    -0.231267243402E+04   -0.79873E-04   -0.11595E-02  5843   0.676E-02    0.317E-01
RMM:   4    -0.231267151730E+04    0.91671E-03   -0.16837E-03  5059   0.232E-02    0.163E-01
RMM:   5    -0.231267132567E+04    0.19163E-03   -0.62904E-04  4930   0.146E-02    0.106E-01
RMM:   6    -0.231267119180E+04    0.13388E-03   -0.32215E-04  4733   0.129E-02    0.265E-02
RMM:   7    -0.231267118775E+04    0.40504E-05   -0.32072E-05  2955   0.588E-03
  30 F= -.23331302E+04 E0= -.23331302E+04  d E =-.724544E-02  mag=     1.0000
       N       E                     dE             d eps       ncg     rms          rms(c)
DAV:   1    -0.231251542692E+04    0.15576E+00   -0.29395E+01  4416   0.464E+00    0.121E+00
RMM:   2    -0.231269434521E+04   -0.17892E+00   -0.19009E+00  6250   0.987E-01    0.797E-01
RMM:   3    -0.231269600435E+04   -0.16591E-02   -0.98805E-02  6033   0.202E-01    0.953E-01
RMM:   4    -0.231268803565E+04    0.79687E-02   -0.15222E-02  5953   0.667E-02    0.480E-01
RMM:   5    -0.231268635211E+04    0.16835E-02   -0.55863E-03  5875   0.416E-02    0.329E-01
RMM:   6    -0.231268510834E+04    0.12438E-02   -0.30726E-03  5295   0.388E-02    0.939E-02
RMM:   7    -0.231268505411E+04    0.54230E-04   -0.28484E-04  4048   0.155E-02    0.522E-02
RMM:   8    -0.231268504492E+04    0.91975E-05   -0.96377E-05  3322   0.692E-03
  31 F= -.23331443E+04 E0= -.23331443E+04  d E =-.213640E-01  mag=     1.0000
       N       E                     dE             d eps       ncg     rms          rms(c)
DAV:   1    -0.231193354178E+04    0.75151E+00   -0.11700E+02  4416   0.921E+00    0.237E+00
RMM:   2    -0.231268209816E+04   -0.74856E+00   -0.79846E+00  6227   0.196E+00    0.138E+00
RMM:   3    -0.231270282756E+04   -0.20729E-01   -0.46485E-01  5946   0.427E-01    0.178E+00
RMM:   4    -0.231267689627E+04    0.25931E-01   -0.59426E-02  6251   0.121E-01    0.925E-01
RMM:   5    -0.231267070996E+04    0.61863E-02   -0.18466E-02  5890   0.700E-02    0.668E-01
RMM:   6    -0.231266576494E+04    0.49450E-02   -0.17267E-02  5051   0.888E-02    0.279E-01
RMM:   7    -0.231266572054E+04    0.44403E-04   -0.14878E-03  4615   0.348E-02    0.180E-01
RMM:   8    -0.231266541703E+04    0.30351E-03   -0.70751E-04  4392   0.141E-02    0.769E-02
RMM:   9    -0.231266544108E+04   -0.24047E-04   -0.17600E-04  3590   0.104E-02    0.310E-02
RMM:  10    -0.231266544937E+04   -0.82885E-05   -0.32712E-05  2945   0.521E-03
  32 F= -.23331249E+04 E0= -.23331249E+04  d E =-.192928E-02  mag=     1.0000
       N       E                     dE             d eps       ncg     rms          rms(c)
DAV:   1    -0.231226469187E+04    0.40075E+00   -0.72856E+01  4416   0.710E+00    0.206E+00
RMM:   2    -0.231276077933E+04   -0.49609E+00   -0.49777E+00  6170   0.150E+00    0.222E+00
RMM:   3    -0.231272461601E+04    0.36163E-01   -0.38560E-01  5792   0.441E-01    0.174E+00
RMM:   4    -0.231269336237E+04    0.31254E-01   -0.46997E-02  6041   0.126E-01    0.682E-01
RMM:   5    -0.231268986267E+04    0.34997E-02   -0.12119E-02  5938   0.626E-02    0.490E-01
RMM:   6    -0.231268695634E+04    0.29063E-02   -0.72530E-03  5468   0.533E-02    0.156E-01
RMM:   7    -0.231268686873E+04    0.87609E-04   -0.92990E-04  4673   0.266E-02    0.667E-02
RMM:   8    -0.231268690656E+04   -0.37827E-04   -0.20578E-04  4212   0.120E-02    0.386E-02
RMM:   9    -0.231268689711E+04    0.94443E-05   -0.37042E-05  2987   0.701E-03
  33 F= -.23331462E+04 E0= -.23331462E+04  d E =-.232900E-01  mag=     1.0000
       N       E                     dE             d eps       ncg     rms          rms(c)
DAV:   1    -0.231266106683E+04    0.25840E-01   -0.39033E+00  4480   0.179E+00    0.560E-01
RMM:   2    -0.231270596917E+04   -0.44902E-01   -0.47877E-01  6269   0.467E-01    0.390E-01
RMM:   3    -0.231270800787E+04   -0.20387E-02   -0.31470E-02  5872   0.109E-01    0.586E-01
RMM:   4    -0.231270455024E+04    0.34576E-02   -0.39178E-03  5638   0.315E-02    0.180E-01
RMM:   5    -0.231270433303E+04    0.21720E-03   -0.12507E-03  4799   0.186E-02    0.116E-01
RMM:   6    -0.231270417072E+04    0.16231E-03   -0.44923E-04  4735   0.157E-02    0.479E-02
RMM:   7    -0.231270414763E+04    0.23092E-04   -0.57940E-05  3059   0.646E-03    0.235E-02
RMM:   8    -0.231270414747E+04    0.15995E-06   -0.23471E-05  2946   0.449E-03
  34 F= -.23331639E+04 E0= -.23331639E+04  d E =-.176284E-01  mag=     1.0000
       N       E                     dE             d eps       ncg     rms          rms(c)
DAV:   1    -0.231240799241E+04    0.29616E+00   -0.26459E+01  4480   0.472E+00    0.145E+00
RMM:   2    -0.231272659019E+04   -0.31860E+00   -0.33744E+00  6304   0.130E+00    0.110E+00
RMM:   3    -0.231273607421E+04   -0.94840E-02   -0.23467E-01  5733   0.301E-01    0.154E+00
RMM:   4    -0.231271108585E+04    0.24988E-01   -0.28018E-02  6030   0.828E-02    0.466E-01
RMM:   5    -0.231270928078E+04    0.18051E-02   -0.88596E-03  5202   0.498E-02    0.284E-01
RMM:   6    -0.231270846973E+04    0.81104E-03   -0.30603E-03  5510   0.405E-02    0.131E-01
RMM:   7    -0.231270832056E+04    0.14917E-03   -0.39489E-04  4145   0.158E-02    0.740E-02
RMM:   8    -0.231270829586E+04    0.24703E-04   -0.16984E-04  4119   0.823E-03    0.311E-02
RMM:   9    -0.231270831191E+04   -0.16057E-04   -0.33979E-05  2981   0.575E-03    0.182E-02
RMM:  10    -0.231270831561E+04   -0.36938E-05   -0.12318E-05  2843   0.378E-03
  35 F= -.23331690E+04 E0= -.23331690E+04  d E =-.227372E-01  mag=     1.0000
       N       E                     dE             d eps       ncg     rms          rms(c)
DAV:   1    -0.231266602818E+04    0.42284E-01   -0.44211E+00  4480   0.196E+00    0.598E-01
RMM:   2    -0.231271237308E+04   -0.46345E-01   -0.50411E-01  6178   0.484E-01    0.304E-01
RMM:   3    -0.231271422354E+04   -0.18505E-02   -0.47087E-02  5602   0.168E-01    0.287E-01
RMM:   4    -0.231271481472E+04   -0.59118E-03   -0.47664E-03  5669   0.325E-02    0.315E-01
RMM:   5    -0.231271375261E+04    0.10621E-02   -0.99083E-04  5004   0.180E-02    0.872E-02
RMM:   6    -0.231271368790E+04    0.64713E-04   -0.32325E-04  4625   0.126E-02    0.538E-02
RMM:   7    -0.231271366341E+04    0.24489E-04   -0.98491E-05  3523   0.728E-03    0.241E-02
RMM:   8    -0.231271366326E+04    0.14715E-06   -0.21041E-05  2902   0.499E-03
  36 F= -.23331739E+04 E0= -.23331739E+04  d E =-.277082E-01  mag=     1.0000
       N       E                     dE             d eps       ncg     rms          rms(c)
DAV:   1    -0.231269987132E+04    0.13792E-01   -0.23046E+00  4448   0.138E+00    0.437E-01
RMM:   2    -0.231272683686E+04   -0.26966E-01   -0.26690E-01  6332   0.334E-01    0.521E-01
RMM:   3    -0.231272530793E+04    0.15289E-02   -0.17458E-02  6021   0.795E-02    0.386E-01
RMM:   4    -0.231272363806E+04    0.16699E-02   -0.24717E-03  5264   0.285E-02    0.143E-01
RMM:   5    -0.231272347190E+04    0.16615E-03   -0.69578E-04  5022   0.151E-02    0.968E-02
RMM:   6    -0.231272334254E+04    0.12936E-03   -0.31580E-04  4820   0.124E-02    0.330E-02
RMM:   7    -0.231272332927E+04    0.13269E-04   -0.43598E-05  3027   0.683E-03    0.141E-02
RMM:   8    -0.231272332973E+04   -0.45917E-06   -0.14072E-05  2881   0.398E-03
  37 F= -.23331837E+04 E0= -.23331837E+04  d E =-.976802E-02  mag=     1.0000
       N       E                     dE             d eps       ncg     rms          rms(c)
DAV:   1    -0.231267442779E+04    0.48901E-01   -0.52650E+00  4448   0.209E+00    0.664E-01
RMM:   2    -0.231273672411E+04   -0.62296E-01   -0.61438E-01  6347   0.510E-01    0.806E-01
RMM:   3    -0.231273280853E+04    0.39156E-02   -0.40305E-02  6114   0.119E-01    0.581E-01
RMM:   4    -0.231272899942E+04    0.38091E-02   -0.57485E-03  5532   0.431E-02    0.213E-01
RMM:   5    -0.231272863278E+04    0.36664E-03   -0.15467E-03  5497   0.219E-02    0.146E-01
RMM:   6    -0.231272834422E+04    0.28856E-03   -0.70489E-04  5203   0.178E-02    0.491E-02
RMM:   7    -0.231272831558E+04    0.28644E-04   -0.99790E-05  3479   0.935E-03    0.211E-02
RMM:   8    -0.231272831670E+04   -0.11275E-05   -0.27644E-05  2950   0.498E-03
  38 F= -.23331888E+04 E0= -.23331888E+04  d E =-.148849E-01  mag=     1.0000
       N       E                     dE             d eps       ncg     rms          rms(c)
DAV:   1    -0.231271819923E+04    0.10116E-01   -0.28978E+00  4416   0.151E+00    0.444E-01
RMM:   2    -0.231274479272E+04   -0.26593E-01   -0.23710E-01  6369   0.339E-01    0.716E-01
RMM:   3    -0.231273943092E+04    0.53618E-02   -0.14159E-02  6076   0.772E-02    0.315E-01
RMM:   4    -0.231273838353E+04    0.10474E-02   -0.21796E-03  5361   0.272E-02    0.139E-01
RMM:   5    -0.231273823254E+04    0.15099E-03   -0.56796E-04  5029   0.145E-02    0.964E-02
RMM:   6    -0.231273812378E+04    0.10875E-03   -0.33752E-04  4662   0.132E-02    0.245E-02
RMM:   7    -0.231273812013E+04    0.36596E-05   -0.33055E-05  2946   0.754E-03
  39 F= -.23331987E+04 E0= -.23331987E+04  d E =-.990098E-02  mag=     1.0000
       N       E                     dE             d eps       ncg     rms          rms(c)
DAV:   1    -0.231257005191E+04    0.16807E+00   -0.25541E+01  4416   0.447E+00    0.130E+00
RMM:   2    -0.231280609362E+04   -0.23604E+00   -0.21179E+00  6351   0.984E-01    0.208E+00
RMM:   3    -0.231276038246E+04    0.45711E-01   -0.12454E-01  6190   0.224E-01    0.914E-01
RMM:   4    -0.231275162565E+04    0.87568E-02   -0.19414E-02  5807   0.778E-02    0.412E-01
RMM:   5    -0.231275040610E+04    0.12196E-02   -0.51365E-03  5941   0.410E-02    0.293E-01
RMM:   6    -0.231274937228E+04    0.10338E-02   -0.29578E-03  5027   0.361E-02    0.713E-02
RMM:   7    -0.231274933864E+04    0.33636E-04   -0.29462E-04  4310   0.183E-02    0.304E-02
RMM:   8    -0.231274933883E+04   -0.19229E-06   -0.52047E-05  3161   0.571E-03
  40 F= -.23332102E+04 E0= -.23332102E+04  d E =-.213423E-01  mag=     1.0000
       N       E                     dE             d eps       ncg     rms          rms(c)
DAV:   1    -0.231273367670E+04    0.15662E-01   -0.28039E+00  4480   0.152E+00    0.442E-01
RMM:   2    -0.231276148878E+04   -0.27812E-01   -0.28270E-01  6375   0.378E-01    0.412E-01
RMM:   3    -0.231276138809E+04    0.10069E-03   -0.15549E-02  6023   0.789E-02    0.422E-01
RMM:   4    -0.231275932851E+04    0.20596E-02   -0.22767E-03  5377   0.274E-02    0.133E-01
RMM:   5    -0.231275922991E+04    0.98601E-04   -0.64811E-04  4959   0.148E-02    0.953E-02
RMM:   6    -0.231275911496E+04    0.11494E-03   -0.36675E-04  4933   0.132E-02    0.238E-02
RMM:   7    -0.231275911219E+04    0.27725E-05   -0.31918E-05  2921   0.595E-03
  41 F= -.23332205E+04 E0= -.23332205E+04  d E =-.103250E-01  mag=     1.0000
       N       E                     dE             d eps       ncg     rms          rms(c)
DAV:   1    -0.231253904273E+04    0.22007E+00   -0.25139E+01  4448   0.458E+00    0.131E+00
RMM:   2    -0.231279123699E+04   -0.25219E+00   -0.25854E+00  6379   0.117E+00    0.115E+00
RMM:   3    -0.231279390753E+04   -0.26705E-02   -0.14113E-01  6139   0.239E-01    0.131E+00
RMM:   4    -0.231277448874E+04    0.19419E-01   -0.21273E-02  5896   0.838E-02    0.407E-01
RMM:   5    -0.231277348559E+04    0.10031E-02   -0.59119E-03  5736   0.433E-02    0.286E-01
RMM:   6    -0.231277248873E+04    0.99686E-03   -0.33363E-03  5635   0.390E-02    0.763E-02
RMM:   7    -0.231277245612E+04    0.32607E-04   -0.29331E-04  4288   0.149E-02    0.339E-02
RMM:   8    -0.231277245863E+04   -0.25074E-05   -0.47860E-05  3032   0.585E-03
  42 F= -.23332355E+04 E0= -.23332355E+04  d E =-.253112E-01  mag=     1.0000
       N       E                     dE             d eps       ncg     rms          rms(c)
DAV:   1    -0.231275294345E+04    0.19513E-01   -0.28649E+00  4448   0.163E+00    0.523E-01
RMM:   2    -0.231278991709E+04   -0.36974E-01   -0.35576E-01  6339   0.411E-01    0.674E-01
RMM:   3    -0.231278628642E+04    0.36307E-02   -0.21709E-02  6029   0.926E-02    0.418E-01
RMM:   4    -0.231278419531E+04    0.20911E-02   -0.31577E-03  5311   0.322E-02    0.147E-01
RMM:   5    -0.231278400205E+04    0.19326E-03   -0.81907E-04  5346   0.172E-02    0.106E-01
RMM:   6    -0.231278383595E+04    0.16610E-03   -0.51601E-04  5075   0.151E-02    0.293E-02
RMM:   7    -0.231278383378E+04    0.21679E-05   -0.57093E-05  3028   0.774E-03
  43 F= -.23332474E+04 E0= -.23332474E+04  d E =-.118986E-01  mag=     1.0000
       N       E                     dE             d eps       ncg     rms          rms(c)
DAV:   1    -0.231272931443E+04    0.54522E-01   -0.53625E+00  4416   0.223E+00    0.713E-01
RMM:   2    -0.231279853447E+04   -0.69220E-01   -0.66861E-01  6342   0.568E-01    0.908E-01
RMM:   3    -0.231279197780E+04    0.65567E-02   -0.40748E-02  6059   0.128E-01    0.572E-01
RMM:   4    -0.231278805050E+04    0.39273E-02   -0.59929E-03  5447   0.443E-02    0.202E-01
RMM:   5    -0.231278766661E+04    0.38390E-03   -0.15081E-03  5688   0.233E-02    0.144E-01
RMM:   6    -0.231278734024E+04    0.32636E-03   -0.95913E-04  5297   0.203E-02    0.399E-02
RMM:   7    -0.231278733775E+04    0.24985E-05   -0.10887E-04  3436   0.984E-03    0.177E-02
RMM:   8    -0.231278734898E+04   -0.11237E-04   -0.18653E-05  2906   0.396E-03    0.973E-03
RMM:   9    -0.231278735871E+04   -0.97297E-05   -0.70330E-06  2844   0.282E-03
  44 F= -.23332516E+04 E0= -.23332516E+04  d E =-.161389E-01  mag=     1.0000
       N       E                     dE             d eps       ncg     rms          rms(c)
DAV:   1    -0.231275199618E+04    0.35353E-01   -0.39049E+00  4416   0.194E+00    0.590E-01
RMM:   2    -0.231280507978E+04   -0.53084E-01   -0.50297E-01  6345   0.486E-01    0.827E-01
RMM:   3    -0.231279879296E+04    0.62868E-02   -0.31643E-02  6086   0.110E-01    0.447E-01
RMM:   4    -0.231279652461E+04    0.22683E-02   -0.45051E-03  5412   0.372E-02    0.178E-01
RMM:   5    -0.231279625064E+04    0.27397E-03   -0.92683E-04  5435   0.183E-02    0.126E-01
RMM:   6    -0.231279604054E+04    0.21010E-03   -0.70591E-04  5040   0.184E-02    0.329E-02
RMM:   7    -0.231279603381E+04    0.67319E-05   -0.73680E-05  3201   0.954E-03
  45 F= -.23332604E+04 E0= -.23332604E+04  d E =-.879751E-02  mag=     1.0000
       N       E                     dE             d eps       ncg     rms          rms(c)
DAV:   1    -0.231256806057E+04    0.22798E+00   -0.20502E+01  4416   0.442E+00    0.135E+00
RMM:   2    -0.231284746284E+04   -0.27940E+00   -0.26633E+00  6352   0.112E+00    0.185E+00
RMM:   3    -0.231281706491E+04    0.30398E-01   -0.17882E-01  6059   0.259E-01    0.104E+00
RMM:   4    -0.231280503634E+04    0.12029E-01   -0.25010E-02  5698   0.861E-02    0.415E-01
RMM:   5    -0.231280364950E+04    0.13868E-02   -0.50717E-03  5881   0.410E-02    0.295E-01
RMM:   6    -0.231280251027E+04    0.11392E-02   -0.36554E-03  5221   0.409E-02    0.751E-02
RMM:   7    -0.231280247675E+04    0.33515E-04   -0.38628E-04  4550   0.197E-02    0.327E-02
RMM:   8    -0.231280247069E+04    0.60605E-05   -0.60194E-05  3194   0.625E-03
  46 F= -.23332671E+04 E0= -.23332671E+04  d E =-.155135E-01  mag=     1.0000
       N       E                     dE             d eps       ncg     rms          rms(c)
DAV:   1    -0.231273083313E+04    0.71644E-01   -0.71900E+00  4416   0.251E+00    0.785E-01
RMM:   2    -0.231282019971E+04   -0.89367E-01   -0.93458E-01  6362   0.668E-01    0.665E-01
RMM:   3    -0.231282292420E+04   -0.27245E-02   -0.57054E-02  6076   0.146E-01    0.747E-01
RMM:   4    -0.231281661924E+04    0.63050E-02   -0.80366E-03  5782   0.497E-02    0.259E-01
RMM:   5    -0.231281617194E+04    0.44730E-03   -0.22996E-03  5525   0.264E-02    0.181E-01
RMM:   6    -0.231281575838E+04    0.41356E-03   -0.13332E-03  5583   0.250E-02    0.430E-02
RMM:   7    -0.231281573418E+04    0.24199E-04   -0.10374E-04  3322   0.970E-03    0.196E-02
RMM:   8    -0.231281572890E+04    0.52780E-05   -0.20869E-05  2906   0.418E-03
  47 F= -.23332804E+04 E0= -.23332804E+04  d E =-.132757E-01  mag=     1.0000
       N       E                     dE             d eps       ncg     rms          rms(c)
DAV:   1    -0.231281521179E+04    0.52239E-03   -0.51056E-02  5152   0.211E-01    0.683E-02
RMM:   2    -0.231281585288E+04   -0.64109E-03   -0.65619E-03  6324   0.551E-02    0.673E-02
RMM:   3    -0.231281585965E+04   -0.67650E-05   -0.40780E-04  3585   0.130E-02    0.637E-02
RMM:   4    -0.231281581202E+04    0.47629E-04   -0.56461E-05  2933   0.551E-03    0.208E-02
RMM:   5    -0.231281580898E+04    0.30448E-05   -0.16771E-05  2835   0.324E-03
  48 F= -.23332805E+04 E0= -.23332805E+04  d E =-.133580E-01  mag=     1.0000
       N       E                     dE             d eps       ncg     rms          rms(c)
DAV:   1    -0.231279479586E+04    0.21016E-01   -0.19359E+00  4448   0.140E+00    0.447E-01
RMM:   2    -0.231282750152E+04   -0.32706E-01   -0.34098E-01  6329   0.368E-01    0.441E-01
RMM:   3    -0.231282805698E+04   -0.55546E-03   -0.24739E-02  6030   0.886E-02    0.418E-01
RMM:   4    -0.231282607857E+04    0.19784E-02   -0.30480E-03  5382   0.294E-02    0.150E-01
RMM:   5    -0.231282589333E+04    0.18524E-03   -0.68489E-04  5001   0.148E-02    0.105E-01
RMM:   6    -0.231282573781E+04    0.15552E-03   -0.51306E-04  5202   0.160E-02    0.290E-02
RMM:   7    -0.231282572948E+04    0.83237E-05   -0.48564E-05  3021   0.738E-03
  49 F= -.23332904E+04 E0= -.23332904E+04  d E =-.992543E-02  mag=     1.0000
       N       E                     dE             d eps       ncg     rms          rms(c)
DAV:   1    -0.231257672346E+04    0.24901E+00   -0.15476E+01  4416   0.397E+00    0.127E+00
RMM:   2    -0.231284410702E+04   -0.26738E+00   -0.28118E+00  6334   0.107E+00    0.121E+00
RMM:   3    -0.231284799380E+04   -0.38868E-02   -0.18893E-01  5999   0.252E-01    0.121E+00
RMM:   4    -0.231283169331E+04    0.16300E-01   -0.24915E-02  5934   0.845E-02    0.440E-01
RMM:   5    -0.231283009153E+04    0.16018E-02   -0.51957E-03  5695   0.402E-02    0.306E-01
RMM:   6    -0.231282874534E+04    0.13462E-02   -0.42752E-03  5471   0.445E-02    0.876E-02
RMM:   7    -0.231282870029E+04    0.45051E-04   -0.41433E-04  4648   0.191E-02    0.402E-02
RMM:   8    -0.231282869369E+04    0.65957E-05   -0.81553E-05  3428   0.728E-03
  50 F= -.23332934E+04 E0= -.23332934E+04  d E =-.128999E-01  mag=     1.0000
       N       E                     dE             d eps       ncg     rms          rms(c)
DAV:   1    -0.231279013060E+04    0.38570E-01   -0.26543E+00  4432   0.165E+00    0.518E-01
RMM:   2    -0.231283473084E+04   -0.44600E-01   -0.45619E-01  6311   0.421E-01    0.560E-01
RMM:   3    -0.231283462918E+04    0.10166E-03   -0.35057E-02  6104   0.106E-01    0.443E-01
RMM:   4    -0.231283237865E+04    0.22505E-02   -0.39164E-03  5426   0.331E-02    0.167E-01
RMM:   5    -0.231283216282E+04    0.21583E-03   -0.87510E-04  5286   0.179E-02    0.120E-01
RMM:   6    -0.231283194946E+04    0.21337E-03   -0.62785E-04  5396   0.168E-02    0.321E-02
RMM:   7    -0.231283194479E+04    0.46662E-05   -0.59181E-05  3045   0.810E-03
  51 F= -.23332966E+04 E0= -.23332966E+04  d E =-.161474E-01  mag=     1.0000
       N       E                     dE             d eps       ncg     rms          rms(c)
DAV:   1    -0.231281252850E+04    0.19421E-01   -0.20710E+00  4432   0.150E+00    0.466E-01
RMM:   2    -0.231284016152E+04   -0.27633E-01   -0.29244E-01  6285   0.379E-01    0.352E-01
RMM:   3    -0.231284172510E+04   -0.15636E-02   -0.20002E-02  6010   0.908E-02    0.438E-01
RMM:   4    -0.231283944891E+04    0.22762E-02   -0.25981E-03  5603   0.300E-02    0.143E-01
RMM:   5    -0.231283927473E+04    0.17417E-03   -0.78828E-04  5130   0.168E-02    0.975E-02
RMM:   6    -0.231283913640E+04    0.13834E-03   -0.47186E-04  5325   0.163E-02    0.264E-02
RMM:   7    -0.231283912607E+04    0.10328E-04   -0.35439E-05  2978   0.733E-03    0.116E-02
RMM:   8    -0.231283912367E+04    0.23946E-05   -0.97905E-06  2861   0.327E-03
  52 F= -.23333039E+04 E0= -.23333039E+04  d E =-.729731E-02  mag=     1.0000
       N       E                     dE             d eps       ncg     rms          rms(c)
DAV:   1    -0.231282862858E+04    0.10497E-01   -0.92397E-01  4448   0.100E+00    0.313E-01
RMM:   2    -0.231284101695E+04   -0.12388E-01   -0.13061E-01  6262   0.252E-01    0.246E-01
RMM:   3    -0.231284168771E+04   -0.67076E-03   -0.89620E-03  5889   0.606E-02    0.297E-01
RMM:   4    -0.231284063658E+04    0.10511E-02   -0.11860E-03  5176   0.204E-02    0.938E-02
RMM:   5    -0.231284056229E+04    0.74288E-04   -0.36050E-04  4709   0.116E-02    0.651E-02
RMM:   6    -0.231284050013E+04    0.62163E-04   -0.20954E-04  4835   0.112E-02    0.174E-02
RMM:   7    -0.231284049538E+04    0.47491E-05   -0.17422E-05  2878   0.552E-03
  53 F= -.23333054E+04 E0= -.23333054E+04  d E =-.874800E-02  mag=     1.0000
       N       E                     dE             d eps       ncg     rms          rms(c)
DAV:   1    -0.231282682992E+04    0.13670E-01   -0.24669E+00  4432   0.145E+00    0.401E-01
RMM:   2    -0.231285061801E+04   -0.23788E-01   -0.23983E-01  6311   0.351E-01    0.422E-01
RMM:   3    -0.231284999541E+04    0.62260E-03   -0.15187E-02  6033   0.771E-02    0.359E-01
RMM:   4    -0.231284851707E+04    0.14783E-02   -0.19633E-03  5398   0.262E-02    0.144E-01
RMM:   5    -0.231284836859E+04    0.14848E-03   -0.64825E-04  5087   0.151E-02    0.102E-01
RMM:   6    -0.231284825100E+04    0.11759E-03   -0.49996E-04  5014   0.158E-02    0.240E-02
RMM:   7    -0.231284824429E+04    0.67094E-05   -0.37285E-05  2976   0.672E-03
  54 F= -.23333135E+04 E0= -.23333135E+04  d E =-.811692E-02  mag=     1.0000
       N       E                     dE             d eps       ncg     rms          rms(c)
DAV:   1    -0.231278919188E+04    0.59059E-01   -0.73199E+00  4416   0.250E+00    0.691E-01
RMM:   2    -0.231285988898E+04   -0.70697E-01   -0.71623E-01  6307   0.606E-01    0.712E-01
RMM:   3    -0.231285857321E+04    0.13158E-02   -0.45524E-02  6117   0.133E-01    0.632E-01
RMM:   4    -0.231285402902E+04    0.45442E-02   -0.59625E-03  5772   0.452E-02    0.252E-01
RMM:   5    -0.231285359930E+04    0.42972E-03   -0.19352E-03  5588   0.254E-02    0.177E-01
RMM:   6    -0.231285323997E+04    0.35933E-03   -0.15265E-03  5411   0.264E-02    0.425E-02
RMM:   7    -0.231285321934E+04    0.20630E-04   -0.11289E-04  3424   0.102E-02    0.205E-02
RMM:   8    -0.231285321764E+04    0.17014E-05   -0.25313E-05  2905   0.427E-03
  55 F= -.23333191E+04 E0= -.23333191E+04  d E =-.137183E-01  mag=     1.0000
       N       E                     dE             d eps       ncg     rms          rms(c)
DAV:   1    -0.231284177748E+04    0.11442E-01   -0.18299E+00  4480   0.128E+00    0.382E-01
RMM:   2    -0.231286278857E+04   -0.21011E-01   -0.20631E-01  6291   0.309E-01    0.460E-01
RMM:   3    -0.231286152335E+04    0.12652E-02   -0.13525E-02  5979   0.722E-02    0.316E-01
RMM:   4    -0.231286035557E+04    0.11678E-02   -0.17946E-03  5304   0.242E-02    0.125E-01
RMM:   5    -0.231286023417E+04    0.12140E-03   -0.48421E-04  4998   0.132E-02    0.879E-02
RMM:   6    -0.231286014500E+04    0.89170E-04   -0.38837E-04  4864   0.138E-02    0.215E-02
RMM:   7    -0.231286014100E+04    0.40091E-05   -0.30664E-05  2928   0.677E-03
  56 F= -.23333263E+04 E0= -.23333263E+04  d E =-.724816E-02  mag=     1.0000
       N       E                     dE             d eps       ncg     rms          rms(c)
DAV:   1    -0.231275408589E+04    0.10606E+00   -0.11030E+01  4416   0.315E+00    0.939E-01
RMM:   2    -0.231288043676E+04   -0.12635E+00   -0.12510E+00  6301   0.770E-01    0.109E+00
RMM:   3    -0.231287487933E+04    0.55574E-02   -0.89462E-02  6110   0.184E-01    0.796E-01
RMM:   4    -0.231286753196E+04    0.73474E-02   -0.11342E-02  5793   0.603E-02    0.312E-01
RMM:   5    -0.231286680654E+04    0.72542E-03   -0.29680E-03  5715   0.313E-02    0.218E-01
RMM:   6    -0.231286623657E+04    0.56997E-03   -0.23220E-03  5319   0.325E-02    0.537E-02
RMM:   7    -0.231286621553E+04    0.21035E-04   -0.17728E-04  3999   0.139E-02    0.262E-02
RMM:   8    -0.231286621434E+04    0.11951E-05   -0.37291E-05  2954   0.490E-03
  57 F= -.23333332E+04 E0= -.23333332E+04  d E =-.141053E-01  mag=     1.0000
       N       E                     dE             d eps       ncg     rms          rms(c)
DAV:   1    -0.231283663333E+04    0.29582E-01   -0.29116E+00  4464   0.160E+00    0.481E-01
RMM:   2    -0.231287600726E+04   -0.39374E-01   -0.39852E-01  6343   0.409E-01    0.522E-01
RMM:   3    -0.231287549683E+04    0.51043E-03   -0.28077E-02  6067   0.961E-02    0.425E-01
RMM:   4    -0.231287340237E+04    0.20945E-02   -0.33565E-03  5466   0.308E-02    0.166E-01
RMM:   5    -0.231287319177E+04    0.21059E-03   -0.82018E-04  5100   0.161E-02    0.115E-01
RMM:   6    -0.231287302916E+04    0.16262E-03   -0.67037E-04  5172   0.175E-02    0.312E-02
RMM:   7    -0.231287302271E+04    0.64441E-05   -0.54444E-05  3042   0.778E-03
  58 F= -.23333404E+04 E0= -.23333404E+04  d E =-.715053E-02  mag=     1.0000
       N       E                     dE             d eps       ncg     rms          rms(c)
DAV:   1    -0.231265433432E+04    0.21869E+00   -0.17548E+01  4416   0.394E+00    0.118E+00
RMM:   2    -0.231289400111E+04   -0.23967E+00   -0.24541E+00  6346   0.103E+00    0.121E+00
RMM:   3    -0.231289402897E+04   -0.27854E-04   -0.17403E-01  6090   0.242E-01    0.108E+00
RMM:   4    -0.231288061949E+04    0.13409E-01   -0.20755E-02  5881   0.774E-02    0.417E-01
RMM:   5    -0.231287929626E+04    0.13232E-02   -0.51759E-03  5734   0.383E-02    0.286E-01
RMM:   6    -0.231287827205E+04    0.10242E-02   -0.40753E-03  5418   0.418E-02    0.801E-02
RMM:   7    -0.231287822546E+04    0.46593E-04   -0.33996E-04  4410   0.173E-02    0.371E-02
RMM:   8    -0.231287821426E+04    0.11200E-04   -0.69487E-05  3226   0.639E-03    0.186E-02
RMM:   9    -0.231287821757E+04   -0.33103E-05   -0.19559E-05  2901   0.420E-03
  59 F= -.23333464E+04 E0= -.23333464E+04  d E =-.131796E-01  mag=     1.0000
       N       E                     dE             d eps       ncg     rms          rms(c)
DAV:   1    -0.231280275181E+04    0.75462E-01   -0.61921E+00  4416   0.229E+00    0.698E-01
RMM:   2    -0.231289100544E+04   -0.88254E-01   -0.92458E-01  6352   0.613E-01    0.603E-01
RMM:   3    -0.231289322595E+04   -0.22205E-02   -0.65071E-02  6029   0.141E-01    0.637E-01
RMM:   4    -0.231288869122E+04    0.45347E-02   -0.77372E-03  5767   0.440E-02    0.253E-01
RMM:   5    -0.231288820988E+04    0.48134E-03   -0.16604E-03  5371   0.223E-02    0.173E-01
RMM:   6    -0.231288784315E+04    0.36673E-03   -0.15061E-03  5469   0.256E-02    0.491E-02
RMM:   7    -0.231288781808E+04    0.25063E-04   -0.10967E-04  3296   0.969E-03    0.221E-02
RMM:   8    -0.231288781124E+04    0.68397E-05   -0.26657E-05  2932   0.412E-03
  60 F= -.23333563E+04 E0= -.23333563E+04  d E =-.994081E-02  mag=     1.0000
       N       E                     dE             d eps       ncg     rms          rms(c)
DAV:   1    -0.231280064866E+04    0.87169E-01   -0.65867E+00  4416   0.236E+00    0.722E-01
RMM:   2    -0.231289540232E+04   -0.94754E-01   -0.99182E-01  6349   0.636E-01    0.632E-01
RMM:   3    -0.231289713804E+04   -0.17357E-02   -0.63685E-02  6047   0.142E-01    0.658E-01
RMM:   4    -0.231289226874E+04    0.48693E-02   -0.80558E-03  5776   0.455E-02    0.260E-01
RMM:   5    -0.231289176243E+04    0.50630E-03   -0.17766E-03  5374   0.232E-02    0.178E-01
RMM:   6    -0.231289137122E+04    0.39121E-03   -0.15664E-03  5493   0.261E-02    0.485E-02
RMM:   7    -0.231289134349E+04    0.27731E-04   -0.12026E-04  3395   0.972E-03    0.220E-02
RMM:   8    -0.231289133384E+04    0.96470E-05   -0.28908E-05  2935   0.434E-03
  61 F= -.23333602E+04 E0= -.23333602E+04  d E =-.138212E-01  mag=     1.0000
       N       E                     dE             d eps       ncg     rms          rms(c)
DAV:   1    -0.231285777520E+04    0.33568E-01   -0.27936E+00  4448   0.160E+00    0.513E-01
RMM:   2    -0.231290065692E+04   -0.42882E-01   -0.44441E-01  6286   0.422E-01    0.506E-01
RMM:   3    -0.231290124646E+04   -0.58954E-03   -0.34161E-02  6029   0.103E-01    0.458E-01
RMM:   4    -0.231289886159E+04    0.23849E-02   -0.40532E-03  5578   0.337E-02    0.178E-01
RMM:   5    -0.231289860404E+04    0.25754E-03   -0.88366E-04  5264   0.169E-02    0.123E-01
RMM:   6    -0.231289840513E+04    0.19892E-03   -0.73077E-04  5223   0.190E-02    0.303E-02
RMM:   7    -0.231289839393E+04    0.11200E-04   -0.55072E-05  3046   0.809E-03    0.136E-02
RMM:   8    -0.231289839081E+04    0.31171E-05   -0.13234E-05  2874   0.357E-03
  62 F= -.23333674E+04 E0= -.23333674E+04  d E =-.715848E-02  mag=     1.0000
       N       E                     dE             d eps       ncg     rms          rms(c)
DAV:   1    -0.231288948043E+04    0.89135E-02   -0.67421E-01  4512   0.783E-01    0.252E-01
RMM:   2    -0.231289973373E+04   -0.10253E-01   -0.10568E-01  6292   0.205E-01    0.254E-01
RMM:   3    -0.231289987435E+04   -0.14062E-03   -0.87778E-03  5737   0.519E-02    0.221E-01
RMM:   4    -0.231289932029E+04    0.55407E-03   -0.98779E-04  4423   0.167E-02    0.865E-02
RMM:   5    -0.231289925985E+04    0.60440E-04   -0.21329E-04  4217   0.894E-03    0.603E-02
RMM:   6    -0.231289921187E+04    0.47978E-04   -0.18042E-04  4432   0.102E-02    0.148E-02
RMM:   7    -0.231289920903E+04    0.28376E-05   -0.15062E-05  2893   0.495E-03
  63 F= -.23333682E+04 E0= -.23333682E+04  d E =-.802495E-02  mag=     1.0000
       N       E                     dE             d eps       ncg     rms          rms(c)
DAV:   1    -0.231286733655E+04    0.31875E-01   -0.28604E+00  4448   0.161E+00    0.489E-01
RMM:   2    -0.231290541620E+04   -0.38080E-01   -0.40309E-01  6311   0.419E-01    0.375E-01
RMM:   3    -0.231290698813E+04   -0.15719E-02   -0.28710E-02  5986   0.975E-02    0.430E-01
RMM:   4    -0.231290491429E+04    0.20738E-02   -0.34783E-03  5555   0.308E-02    0.172E-01
RMM:   5    -0.231290469203E+04    0.22226E-03   -0.87307E-04  5146   0.171E-02    0.117E-01
RMM:   6    -0.231290452391E+04    0.16812E-03   -0.66732E-04  5311   0.182E-02    0.326E-02
RMM:   7    -0.231290451222E+04    0.11688E-04   -0.49683E-05  3022   0.721E-03    0.143E-02
RMM:   8    -0.231290451051E+04    0.17091E-05   -0.12141E-05  2875   0.325E-03
  64 F= -.23333741E+04 E0= -.23333741E+04  d E =-.583944E-02  mag=     1.0000
       N       E                     dE             d eps       ncg     rms          rms(c)
DAV:   1    -0.231285704654E+04    0.47466E-01   -0.37327E+00  4432   0.184E+00    0.558E-01
RMM:   2    -0.231290680219E+04   -0.49756E-01   -0.52693E-01  6309   0.478E-01    0.427E-01
RMM:   3    -0.231290888615E+04   -0.20840E-02   -0.37684E-02  6030   0.111E-01    0.494E-01
RMM:   4    -0.231290616769E+04    0.27185E-02   -0.45675E-03  5666   0.350E-02    0.197E-01
RMM:   5    -0.231290587634E+04    0.29135E-03   -0.11344E-03  5298   0.193E-02    0.134E-01
RMM:   6    -0.231290565728E+04    0.21906E-03   -0.88756E-04  5415   0.206E-02    0.380E-02
RMM:   7    -0.231290564162E+04    0.15659E-04   -0.67439E-05  3109   0.793E-03    0.167E-02
RMM:   8    -0.231290563956E+04    0.20623E-05   -0.15552E-05  2878   0.351E-03
  65 F= -.23333758E+04 E0= -.23333758E+04  d E =-.757979E-02  mag=     1.0000
       N       E                     dE             d eps       ncg     rms          rms(c)
DAV:   1    -0.231287171739E+04    0.33924E-01   -0.29576E+00  4432   0.166E+00    0.497E-01
RMM:   2    -0.231291109968E+04   -0.39382E-01   -0.41014E-01  6322   0.430E-01    0.435E-01
RMM:   3    -0.231291255022E+04   -0.14505E-02   -0.29468E-02  6079   0.100E-01    0.457E-01
RMM:   4    -0.231291008858E+04    0.24616E-02   -0.35380E-03  5570   0.323E-02    0.164E-01
RMM:   5    -0.231290990284E+04    0.18574E-03   -0.94916E-04  5140   0.179E-02    0.112E-01
RMM:   6    -0.231290974574E+04    0.15710E-03   -0.59797E-04  5344   0.177E-02    0.322E-02
RMM:   7    -0.231290973226E+04    0.13477E-04   -0.44120E-05  3009   0.727E-03    0.142E-02
RMM:   8    -0.231290972952E+04    0.27401E-05   -0.11487E-05  2864   0.322E-03
  66 F= -.23333806E+04 E0= -.23333806E+04  d E =-.476645E-02  mag=     1.0000
       N       E                     dE             d eps       ncg     rms          rms(c)
DAV:   1    -0.231290089622E+04    0.88360E-02   -0.71138E-01  4480   0.815E-01    0.244E-01
RMM:   2    -0.231291034690E+04   -0.94507E-02   -0.97973E-02  6306   0.208E-01    0.221E-01
RMM:   3    -0.231291064599E+04   -0.29909E-03   -0.69718E-03  5776   0.495E-02    0.221E-01
RMM:   4    -0.231291006764E+04    0.57835E-03   -0.83451E-04  4293   0.159E-02    0.792E-02
RMM:   5    -0.231291002267E+04    0.44967E-04   -0.23980E-04  4310   0.962E-03    0.547E-02
RMM:   6    -0.231290998335E+04    0.39319E-04   -0.14459E-04  4271   0.925E-03    0.151E-02
RMM:   7    -0.231290997994E+04    0.34182E-05   -0.11991E-05  2880   0.450E-03
  67 F= -.23333812E+04 E0= -.23333812E+04  d E =-.534653E-02  mag=     1.0000
       N       E                     dE             d eps       ncg     rms          rms(c)
DAV:   1    -0.231288576510E+04    0.24218E-01   -0.24416E+00  4432   0.150E+00    0.465E-01
RMM:   2    -0.231292065249E+04   -0.34887E-01   -0.33040E-01  6318   0.365E-01    0.676E-01
RMM:   3    -0.231291689164E+04    0.37609E-02   -0.25929E-02  6016   0.936E-02    0.321E-01
RMM:   4    -0.231291575267E+04    0.11390E-02   -0.32867E-03  5541   0.295E-02    0.155E-01
RMM:   5    -0.231291555437E+04    0.19830E-03   -0.60706E-04  5271   0.152E-02    0.108E-01
RMM:   6    -0.231291540790E+04    0.14647E-03   -0.58440E-04  4968   0.163E-02    0.309E-02
RMM:   7    -0.231291539780E+04    0.10103E-04   -0.56468E-05  2986   0.868E-03    0.126E-02
RMM:   8    -0.231291539533E+04    0.24698E-05   -0.11061E-05  2863   0.318E-03
  68 F= -.23333869E+04 E0= -.23333869E+04  d E =-.576303E-02  mag=     1.0000
       N       E                     dE             d eps       ncg     rms          rms(c)
DAV:   1    -0.231289242153E+04    0.22976E-01   -0.20123E+00  4432   0.136E+00    0.421E-01
RMM:   2    -0.231292109784E+04   -0.28676E-01   -0.27215E-01  6308   0.331E-01    0.608E-01
RMM:   3    -0.231291807269E+04    0.30252E-02   -0.21275E-02  5985   0.840E-02    0.290E-01
RMM:   4    -0.231291714409E+04    0.92859E-03   -0.26901E-03  5435   0.267E-02    0.141E-01
RMM:   5    -0.231291697836E+04    0.16573E-03   -0.50467E-04  5157   0.140E-02    0.986E-02
RMM:   6    -0.231291685551E+04    0.12285E-03   -0.48821E-04  4864   0.150E-02    0.282E-02
RMM:   7    -0.231291684676E+04    0.87513E-05   -0.46602E-05  2950   0.823E-03
  69 F= -.23333887E+04 E0= -.23333887E+04  d E =-.752405E-02  mag=     1.0000
       N       E                     dE             d eps       ncg     rms          rms(c)
DAV:   1    -0.231288912536E+04    0.27730E-01   -0.26594E+00  4416   0.162E+00    0.473E-01
RMM:   2    -0.231292056689E+04   -0.31442E-01   -0.33438E-01  6247   0.397E-01    0.309E-01
RMM:   3    -0.231292243935E+04   -0.18725E-02   -0.22363E-02  6009   0.917E-02    0.399E-01
RMM:   4    -0.231292059724E+04    0.18421E-02   -0.27829E-03  5731   0.292E-02    0.155E-01
RMM:   5    -0.231292038700E+04    0.21024E-03   -0.96093E-04  5059   0.194E-02    0.838E-02
RMM:   6    -0.231292031998E+04    0.67018E-04   -0.39444E-04  5056   0.154E-02    0.368E-02
RMM:   7    -0.231292029962E+04    0.20360E-04   -0.47272E-05  3032   0.624E-03    0.137E-02
RMM:   8    -0.231292029721E+04    0.24114E-05   -0.10403E-05  2869   0.347E-03
  70 F= -.23333928E+04 E0= -.23333928E+04  d E =-.407796E-02  mag=     1.0000
       N       E                     dE             d eps       ncg     rms          rms(c)
DAV:   1    -0.231291949467E+04    0.80495E-03   -0.67248E-02  4832   0.258E-01    0.759E-02
RMM:   2    -0.231292029419E+04   -0.79952E-03   -0.84414E-03  6251   0.629E-02    0.535E-02
RMM:   3    -0.231292033885E+04   -0.44664E-04   -0.57316E-04  3799   0.165E-02    0.663E-02
RMM:   4    -0.231292028672E+04    0.52138E-04   -0.71367E-05  2975   0.616E-03    0.243E-02
RMM:   5    -0.231292028107E+04    0.56463E-05   -0.27569E-05  2940   0.437E-03
  71 F= -.23333928E+04 E0= -.23333928E+04  d E =-.416112E-02  mag=     1.0000
       N       E                     dE             d eps       ncg     rms          rms(c)
DAV:   1    -0.231290786735E+04    0.12419E-01   -0.15194E+00  4448   0.124E+00    0.336E-01
RMM:   2    -0.231292343315E+04   -0.15566E-01   -0.16610E-01  6204   0.275E-01    0.234E-01
RMM:   3    -0.231292405557E+04   -0.62242E-03   -0.12050E-02  5805   0.689E-02    0.268E-01
RMM:   4    -0.231292328947E+04    0.76610E-03   -0.14844E-03  5440   0.212E-02    0.125E-01
RMM:   5    -0.231292315923E+04    0.13024E-03   -0.43486E-04  5013   0.136E-02    0.794E-02
RMM:   6    -0.231292307606E+04    0.83171E-04   -0.32811E-04  5104   0.134E-02    0.198E-02
RMM:   7    -0.231292306990E+04    0.61647E-05   -0.23255E-05  2893   0.635E-03
  72 F= -.23333958E+04 E0= -.23333958E+04  d E =-.291055E-02  mag=     1.0000
       N       E                     dE             d eps       ncg     rms          rms(c)
DAV:   1    -0.231291792916E+04    0.51469E-02   -0.53451E-01  4448   0.732E-01    0.200E-01
RMM:   2    -0.231292339961E+04   -0.54704E-02   -0.58168E-02  6201   0.163E-01    0.143E-01
RMM:   3    -0.231292367240E+04   -0.27280E-03   -0.45860E-03  5523   0.415E-02    0.165E-01
RMM:   4    -0.231292336829E+04    0.30411E-03   -0.53258E-04  4028   0.129E-02    0.719E-02
RMM:   5    -0.231292332656E+04    0.41735E-04   -0.16250E-04  4125   0.890E-03    0.468E-02
RMM:   6    -0.231292329716E+04    0.29398E-04   -0.11897E-04  4272   0.870E-03    0.119E-02
RMM:   7    -0.231292329458E+04    0.25860E-05   -0.10031E-05  2857   0.454E-03
  73 F= -.23333960E+04 E0= -.23333960E+04  d E =-.320713E-02  mag=     1.0000
       N       E                     dE             d eps       ncg     rms          rms(c)
DAV:   1    -0.231291404466E+04    0.92525E-02   -0.12607E+00  4464   0.112E+00    0.277E-01
RMM:   2    -0.231292606499E+04   -0.12020E-01   -0.12713E-01  6222   0.242E-01    0.224E-01
RMM:   3    -0.231292646577E+04   -0.40078E-03   -0.92901E-03  5790   0.596E-02    0.236E-01
RMM:   4    -0.231292586348E+04    0.60229E-03   -0.11168E-03  5015   0.184E-02    0.106E-01
RMM:   5    -0.231292577429E+04    0.89192E-04   -0.28978E-04  4580   0.109E-02    0.717E-02
RMM:   6    -0.231292570874E+04    0.65555E-04   -0.26919E-04  4902   0.123E-02    0.162E-02
RMM:   7    -0.231292570482E+04    0.39196E-05   -0.18545E-05  2902   0.601E-03
  74 F= -.23333984E+04 E0= -.23333984E+04  d E =-.236747E-02  mag=     1.0000
       N       E                     dE             d eps       ncg     rms          rms(c)
DAV:   1    -0.231290778010E+04    0.17929E-01   -0.20454E+00  4448   0.143E+00    0.354E-01
RMM:   2    -0.231292731038E+04   -0.19530E-01   -0.20683E-01  6217   0.309E-01    0.282E-01
RMM:   3    -0.231292797833E+04   -0.66795E-03   -0.15149E-02  5871   0.752E-02    0.300E-01
RMM:   4    -0.231292701579E+04    0.96254E-03   -0.18175E-03  5462   0.232E-02    0.136E-01
RMM:   5    -0.231292686912E+04    0.14667E-03   -0.46715E-04  4938   0.135E-02    0.919E-02
RMM:   6    -0.231292676065E+04    0.10847E-03   -0.43852E-04  5126   0.154E-02    0.214E-02
RMM:   7    -0.231292675349E+04    0.71658E-05   -0.29529E-05  2948   0.708E-03
  75 F= -.23333994E+04 E0= -.23333994E+04  d E =-.336103E-02  mag=     1.0000
       N       E                     dE             d eps       ncg     rms          rms(c)
DAV:   1    -0.231291427632E+04    0.12484E-01   -0.17719E+00  4464   0.133E+00    0.325E-01
RMM:   2    -0.231292991581E+04   -0.15639E-01   -0.16747E-01  6229   0.291E-01    0.206E-01
RMM:   3    -0.231293033561E+04   -0.41980E-03   -0.10378E-02  5871   0.665E-02    0.247E-01
RMM:   4    -0.231292971312E+04    0.62248E-03   -0.13109E-03  5257   0.201E-02    0.120E-01
RMM:   5    -0.231292957703E+04    0.13609E-03   -0.53132E-04  4719   0.155E-02    0.658E-02
RMM:   6    -0.231292952881E+04    0.48219E-04   -0.22937E-04  4767   0.127E-02    0.253E-02
RMM:   7    -0.231292951948E+04    0.93322E-05   -0.25024E-05  2910   0.499E-03
  76 F= -.23334023E+04 E0= -.23334023E+04  d E =-.290721E-02  mag=     1.0000
       N       E                     dE             d eps       ncg     rms          rms(c)
DAV:   1    -0.231292474910E+04    0.47797E-02   -0.59658E-01  4480   0.772E-01    0.189E-01
RMM:   2    -0.231293000643E+04   -0.52573E-02   -0.56216E-02  6240   0.168E-01    0.123E-01
RMM:   3    -0.231293016115E+04   -0.15472E-03   -0.34945E-03  5585   0.390E-02    0.148E-01
RMM:   4    -0.231292992589E+04    0.23525E-03   -0.43927E-04  3767   0.121E-02    0.684E-02
RMM:   5    -0.231292988095E+04    0.44942E-04   -0.19261E-04  4187   0.101E-02    0.376E-02
RMM:   6    -0.231292986486E+04    0.16089E-04   -0.75895E-05  3603   0.782E-03    0.141E-02
RMM:   7    -0.231292986185E+04    0.30132E-05   -0.10295E-05  2862   0.415E-03
  77 F= -.23334027E+04 E0= -.23334027E+04  d E =-.333148E-02  mag=     1.0000
       N       E                     dE             d eps       ncg     rms          rms(c)
DAV:   1    -0.231291988386E+04    0.99810E-02   -0.14863E+00  4432   0.124E+00    0.315E-01
RMM:   2    -0.231293364361E+04   -0.13760E-01   -0.13878E-01  6220   0.261E-01    0.335E-01
RMM:   3    -0.231293329707E+04    0.34654E-03   -0.99645E-03  5922   0.663E-02    0.264E-01
RMM:   4    -0.231293244335E+04    0.85372E-03   -0.12409E-03  5259   0.216E-02    0.103E-01
RMM:   5    -0.231293234666E+04    0.96697E-04   -0.39739E-04  4850   0.130E-02    0.729E-02
RMM:   6    -0.231293227278E+04    0.73872E-04   -0.30078E-04  5081   0.128E-02    0.190E-02
RMM:   7    -0.231293226829E+04    0.44938E-05   -0.22730E-05  2905   0.604E-03
  78 F= -.23334051E+04 E0= -.23334051E+04  d E =-.232094E-02  mag=     1.0000
       N       E                     dE             d eps       ncg     rms          rms(c)
DAV:   1    -0.231291982878E+04    0.12444E-01   -0.14796E+00  4432   0.124E+00    0.315E-01
RMM:   2    -0.231293358939E+04   -0.13761E-01   -0.13865E-01  6205   0.261E-01    0.336E-01
RMM:   3    -0.231293321467E+04    0.37471E-03   -0.99509E-03  5898   0.660E-02    0.262E-01
RMM:   4    -0.231293236989E+04    0.84478E-03   -0.12381E-03  5260   0.215E-02    0.103E-01
RMM:   5    -0.231293227240E+04    0.97492E-04   -0.39706E-04  4903   0.130E-02    0.731E-02
RMM:   6    -0.231293219731E+04    0.75094E-04   -0.30316E-04  5072   0.127E-02    0.192E-02
RMM:   7    -0.231293219308E+04    0.42220E-05   -0.22918E-05  2900   0.607E-03
  79 F= -.23334049E+04 E0= -.23334049E+04  d E =-.215967E-02  mag=     1.0000
       N       E                     dE             d eps       ncg     rms          rms(c)
DAV:   1    -0.231292914690E+04    0.30504E-02   -0.41337E-01  4448   0.652E-01    0.164E-01
RMM:   2    -0.231293290316E+04   -0.37563E-02   -0.37782E-02  6150   0.135E-01    0.171E-01
RMM:   3    -0.231293281116E+04    0.92007E-04   -0.28425E-03  5453   0.367E-02    0.131E-01
RMM:   4    -0.231293259733E+04    0.21383E-03   -0.34075E-04  3688   0.113E-02    0.541E-02
RMM:   5    -0.231293257008E+04    0.27251E-04   -0.11147E-04  3865   0.782E-03    0.376E-02
RMM:   6    -0.231293254969E+04    0.20390E-04   -0.87869E-05  3988   0.743E-03    0.975E-03
RMM:   7    -0.231293254856E+04    0.11332E-05   -0.79073E-06  2858   0.438E-03
  80 F= -.23334053E+04 E0= -.23334053E+04  d E =-.256073E-02  mag=     1.0000
       N       E                     dE             d eps       ncg     rms          rms(c)
DAV:   1    -0.231292504149E+04    0.75082E-02   -0.10923E+00  4448   0.107E+00    0.265E-01
RMM:   2    -0.231293485737E+04   -0.98159E-02   -0.10447E-01  6174   0.225E-01    0.197E-01
RMM:   3    -0.231293521733E+04   -0.35996E-03   -0.72472E-03  5790   0.541E-02    0.229E-01
RMM:   4    -0.231293460456E+04    0.61277E-03   -0.89759E-04  4970   0.176E-02    0.904E-02
RMM:   5    -0.231293452320E+04    0.81365E-04   -0.32196E-04  4575   0.117E-02    0.611E-02
RMM:   6    -0.231293447021E+04    0.52988E-04   -0.20654E-04  4845   0.113E-02    0.167E-02
RMM:   7    -0.231293446434E+04    0.58711E-05   -0.16381E-05  2893   0.523E-03
  81 F= -.23334069E+04 E0= -.23334069E+04  d E =-.158940E-02  mag=     1.0000
       N       E                     dE             d eps       ncg     rms          rms(c)
DAV:   1    -0.231293395966E+04    0.51055E-03   -0.72535E-02  4560   0.275E-01    0.700E-02
RMM:   2    -0.231293462297E+04   -0.66331E-03   -0.70286E-03  6184   0.584E-02    0.558E-02
RMM:   3    -0.231293464548E+04   -0.22508E-04   -0.48947E-04  3788   0.152E-02    0.621E-02
RMM:   4    -0.231293459963E+04    0.45851E-04   -0.62485E-05  2944   0.604E-03    0.232E-02
RMM:   5    -0.231293459446E+04    0.51671E-05   -0.22680E-05  2933   0.398E-03
  82 F= -.23334069E+04 E0= -.23334069E+04  d E =-.163531E-02  mag=     1.0000
       N       E                     dE             d eps       ncg     rms          rms(c)
DAV:   1    -0.231292594046E+04    0.86592E-02   -0.11261E+00  4432   0.107E+00    0.260E-01
RMM:   2    -0.231293669476E+04   -0.10754E-01   -0.11695E-01  6164   0.225E-01    0.144E-01
RMM:   3    -0.231293679301E+04   -0.98250E-04   -0.79145E-03  5609   0.556E-02    0.116E-01
RMM:   4    -0.231293684237E+04   -0.49365E-04   -0.93494E-04  4688   0.148E-02    0.125E-01
RMM:   5    -0.231293666647E+04    0.17591E-03   -0.35134E-04  4771   0.127E-02    0.587E-02
RMM:   6    -0.231293663017E+04    0.36301E-04   -0.14452E-04  4058   0.952E-03    0.191E-02
RMM:   7    -0.231293662421E+04    0.59517E-05   -0.16918E-05  2898   0.495E-03
  83 F= -.23334085E+04 E0= -.23334085E+04  d E =-.159967E-02  mag=     1.0000
       N       E                     dE             d eps       ncg     rms          rms(c)
DAV:   1    -0.231293465451E+04    0.19757E-02   -0.24308E-01  4448   0.499E-01    0.122E-01
RMM:   2    -0.231293697355E+04   -0.23190E-02   -0.25248E-02  6106   0.105E-01    0.661E-02
RMM:   3    -0.231293699839E+04   -0.24846E-04   -0.17437E-03  4943   0.291E-02    0.489E-02
RMM:   4    -0.231293701500E+04   -0.16605E-04   -0.20401E-04  3115   0.767E-03    0.590E-02
RMM:   5    -0.231293697874E+04    0.36255E-04   -0.73176E-05  3240   0.715E-03    0.292E-02
RMM:   6    -0.231293696983E+04    0.89078E-05   -0.30286E-05  2976   0.516E-03
  84 F= -.23334087E+04 E0= -.23334087E+04  d E =-.174521E-02  mag=     1.0000
       N       E                     dE             d eps       ncg     rms          rms(c)
DAV:   1    -0.231292614436E+04    0.10834E-01   -0.11835E+00  4432   0.112E+00    0.280E-01
RMM:   2    -0.231293868486E+04   -0.12541E-01   -0.13709E-01  6045   0.241E-01    0.150E-01
RMM:   3    -0.231293913724E+04   -0.45238E-03   -0.11782E-02  5603   0.720E-02    0.105E-01
RMM:   4    -0.231293908867E+04    0.48561E-04   -0.11300E-03  4577   0.158E-02    0.729E-02
RMM:   5    -0.231293903490E+04    0.53775E-04   -0.25363E-04  4601   0.129E-02    0.535E-02
RMM:   6    -0.231293903143E+04    0.34745E-05   -0.98113E-05  3199   0.778E-03
  85 F= -.23334102E+04 E0= -.23334102E+04  d E =-.151516E-02  mag=     1.0000
       N       E                     dE             d eps       ncg     rms          rms(c)
DAV:   1    -0.231293716046E+04    0.18744E-02   -0.19153E-01  4480   0.451E-01    0.115E-01
RMM:   2    -0.231293921022E+04   -0.20498E-02   -0.22512E-02  6164   0.993E-02    0.604E-02
RMM:   3    -0.231293929525E+04   -0.85032E-04   -0.19064E-03  4817   0.291E-02    0.481E-02
RMM:   4    -0.231293931209E+04   -0.16841E-04   -0.18868E-04  3122   0.729E-03    0.553E-02
RMM:   5    -0.231293927773E+04    0.34360E-04   -0.54207E-05  3041   0.581E-03    0.252E-02
RMM:   6    -0.231293927065E+04    0.70793E-05   -0.28622E-05  2982   0.548E-03
  86 F= -.23334102E+04 E0= -.23334102E+04  d E =-.153334E-02  mag=     1.0000
       N       E                     dE             d eps       ncg     rms          rms(c)
DAV:   1    -0.231293269129E+04    0.65864E-02   -0.85303E-01  4432   0.936E-01    0.223E-01
RMM:   2    -0.231294080452E+04   -0.81132E-02   -0.88329E-02  6065   0.196E-01    0.119E-01
RMM:   3    -0.231294104300E+04   -0.23848E-03   -0.68590E-03  5465   0.631E-02    0.862E-02
RMM:   4    -0.231294107289E+04   -0.29896E-04   -0.72739E-04  4416   0.133E-02    0.924E-02
RMM:   5    -0.231294101400E+04    0.58896E-04   -0.22918E-04  4440   0.108E-02    0.653E-02
RMM:   6    -0.231294096496E+04    0.49036E-04   -0.85086E-05  3582   0.712E-03    0.158E-02
RMM:   7    -0.231294096180E+04    0.31647E-05   -0.12714E-05  2855   0.522E-03
  87 F= -.23334115E+04 E0= -.23334115E+04  d E =-.127178E-02  mag=     1.0000
       N       E                     dE             d eps       ncg     rms          rms(c)
DAV:   1    -0.231293513879E+04    0.58262E-02   -0.67430E-01  4432   0.832E-01    0.199E-01
RMM:   2    -0.231294156274E+04   -0.64240E-02   -0.69915E-02  6049   0.175E-01    0.106E-01
RMM:   3    -0.231294173756E+04   -0.17482E-03   -0.53407E-03  5402   0.544E-02    0.760E-02
RMM:   4    -0.231294175087E+04   -0.13306E-04   -0.56724E-04  4237   0.119E-02    0.770E-02
RMM:   5    -0.231294172357E+04    0.27299E-04   -0.17884E-04  4211   0.959E-03    0.641E-02
[...]
RMM:   3    -0.231298786272E+04   -0.68199E-05   -0.10930E-04  2901   0.721E-03    0.217E-02
RMM:   4    -0.231298785890E+04    0.38241E-05   -0.14849E-05  2519   0.283E-03
 271 F= -.23334325E+04 E0= -.23334325E+04  d E =-.513137E-04  mag=     1.0000
       N       E                     dE             d eps       ncg     rms          rms(c)
DAV:   1    -0.231298789185E+04   -0.29127E-04   -0.35076E-03  4160   0.469E-02    0.166E-02
RMM:   2    -0.231298793342E+04   -0.41567E-04   -0.44496E-04  4774   0.120E-02    0.858E-03
RMM:   3    -0.231298793624E+04   -0.28187E-05   -0.38639E-05  2398   0.424E-03
 272 F= -.23334325E+04 E0= -.23334325E+04  d E =-.258366E-04  mag=     1.0000
       N       E                     dE             d eps       ncg     rms          rms(c)
DAV:   1    -0.231298775939E+04    0.17403E-03   -0.30587E-02  4416   0.139E-01    0.503E-02
RMM:   2    -0.231298812992E+04   -0.37053E-03   -0.39713E-03  6118   0.349E-02    0.283E-02
RMM:   3    -0.231298814804E+04   -0.18119E-04   -0.27695E-04  3146   0.107E-02    0.305E-02
RMM:   4    -0.231298814213E+04    0.59113E-05   -0.36920E-05  2897   0.373E-03
 273 F= -.23334326E+04 E0= -.23334326E+04  d E =-.772433E-04  mag=     1.0000
       N       E                     dE             d eps       ncg     rms          rms(c)
DAV:   1    -0.231298694440E+04    0.12036E-02   -0.12147E-01  4416   0.277E-01    0.102E-01
RMM:   2    -0.231298841732E+04   -0.14729E-02   -0.15796E-02  6277   0.689E-02    0.644E-02
RMM:   3    -0.231298852277E+04   -0.10544E-03   -0.11355E-03  3811   0.202E-02    0.883E-02
RMM:   4    -0.231298844196E+04    0.80811E-04   -0.14974E-04  3136   0.716E-03    0.324E-02
RMM:   5    -0.231298843114E+04    0.10812E-04   -0.55068E-05  3076   0.482E-03    0.978E-03
RMM:   6    -0.231298843120E+04   -0.52591E-07   -0.59971E-06  2817   0.332E-03
 274 F= -.23334326E+04 E0= -.23334326E+04  d E =-.574606E-04  mag=     1.0000
       N       E                     dE             d eps       ncg     rms          rms(c)
DAV:   1    -0.231298790786E+04    0.52328E-03   -0.32379E-02  4416   0.143E-01    0.510E-02
RMM:   2    -0.231298829444E+04   -0.38658E-03   -0.41360E-03  6142   0.354E-02    0.308E-02
RMM:   3    -0.231298831727E+04   -0.22829E-04   -0.29003E-04  3187   0.109E-02    0.397E-02
RMM:   4    -0.231298830132E+04    0.15945E-04   -0.37195E-05  2810   0.401E-03    0.168E-02
RMM:   5    -0.231298829894E+04    0.23801E-05   -0.11744E-05  2667   0.244E-03
 275 F= -.23334326E+04 E0= -.23334326E+04  d E =-.838900E-04  mag=     1.0000
       N       E                     dE             d eps       ncg     rms          rms(c)
DAV:   1    -0.231298833241E+04   -0.31083E-04   -0.71561E-03  4304   0.663E-02    0.231E-02
RMM:   2    -0.231298841660E+04   -0.84189E-04   -0.89638E-04  5255   0.164E-02    0.140E-02
RMM:   3    -0.231298842247E+04   -0.58761E-05   -0.70169E-05  2698   0.538E-03
 276 F= -.23334326E+04 E0= -.23334326E+04  d E =-.491482E-04  mag=     1.0000
       N       E                     dE             d eps       ncg     rms          rms(c)
DAV:   1    -0.231298794286E+04    0.47374E-03   -0.63147E-02  4416   0.197E-01    0.719E-02
RMM:   2    -0.231298870483E+04   -0.76197E-03   -0.81827E-03  6215   0.491E-02    0.392E-02
RMM:   3    -0.231298873815E+04   -0.33316E-04   -0.57580E-04  3278   0.147E-02    0.371E-02
RMM:   4    -0.231298873559E+04    0.25611E-05   -0.75730E-05  2963   0.481E-03
 277 F= -.23334327E+04 E0= -.23334327E+04  d E =-.139147E-03  mag=     1.0000
       N       E                     dE             d eps       ncg     rms          rms(c)
DAV:   1    -0.231298605968E+04    0.26785E-02   -0.25083E-01  4416   0.393E-01    0.145E-01
RMM:   2    -0.231298908217E+04   -0.30225E-02   -0.32643E-02  6278   0.973E-02    0.850E-02
RMM:   3    -0.231298927771E+04   -0.19554E-03   -0.23189E-03  4530   0.281E-02    0.113E-01
RMM:   4    -0.231298915830E+04    0.11942E-03   -0.30501E-04  3266   0.882E-03    0.481E-02
RMM:   5    -0.231298913433E+04    0.23970E-04   -0.10699E-04  3470   0.646E-03    0.149E-02
RMM:   6    -0.231298913389E+04    0.43970E-06   -0.13374E-05  2854   0.437E-03
 278 F= -.23334327E+04 E0= -.23334327E+04  d E =-.913196E-04  mag=     1.0000
       N       E                     dE             d eps       ncg     rms          rms(c)
DAV:   1    -0.231298805192E+04    0.10824E-02   -0.73443E-02  4416   0.213E-01    0.757E-02
RMM:   2    -0.231298892613E+04   -0.87421E-03   -0.94028E-03  6299   0.526E-02    0.413E-02
RMM:   3    -0.231298897033E+04   -0.44198E-04   -0.62640E-04  3351   0.145E-02    0.507E-02
RMM:   4    -0.231298894891E+04    0.21413E-04   -0.82429E-05  2968   0.537E-03    0.259E-02
RMM:   5    -0.231298894039E+04    0.85280E-05   -0.28440E-05  2964   0.352E-03
 279 F= -.23334327E+04 E0= -.23334327E+04  d E =-.137945E-03  mag=     1.0000
       N       E                     dE             d eps       ncg     rms          rms(c)
DAV:   1    -0.231298888767E+04    0.61240E-04   -0.21137E-02  4384   0.111E-01    0.385E-02
RMM:   2    -0.231298913057E+04   -0.24290E-03   -0.26029E-03  5768   0.267E-02    0.213E-02
RMM:   3    -0.231298914295E+04   -0.12381E-04   -0.18891E-04  3040   0.875E-03    0.245E-02
RMM:   4    -0.231298913851E+04    0.44467E-05   -0.22741E-05  2681   0.292E-03
 280 F= -.23334328E+04 E0= -.23334328E+04  d E =-.766092E-04  mag=     1.0000
       N       E                     dE             d eps       ncg     rms          rms(c)
DAV:   1    -0.231298737328E+04    0.17697E-02   -0.18734E-01  4448   0.330E-01    0.121E-01
RMM:   2    -0.231298957351E+04   -0.22002E-02   -0.23752E-02  6302   0.806E-02    0.659E-02
RMM:   3    -0.231298968367E+04   -0.11016E-03   -0.16481E-03  3822   0.221E-02    0.733E-02
RMM:   4    -0.231298964942E+04    0.34248E-04   -0.21028E-04  3126   0.727E-03    0.450E-02
RMM:   5    -0.231298962941E+04    0.20012E-04   -0.70241E-05  3134   0.520E-03    0.175E-02
RMM:   6    -0.231298962779E+04    0.16130E-05   -0.17252E-05  2901   0.393E-03
 281 F= -.23334329E+04 E0= -.23334329E+04  d E =-.201351E-03  mag=     1.0000
       N       E                     dE             d eps       ncg     rms          rms(c)
DAV:   1    -0.231298112541E+04    0.85040E-02   -0.75243E-01  4448   0.660E-01    0.242E-01
RMM:   2    -0.231298996116E+04   -0.88357E-02   -0.95424E-02  6293   0.162E-01    0.131E-01
RMM:   3    -0.231299043715E+04   -0.47599E-03   -0.68722E-03  5241   0.455E-02    0.150E-01
RMM:   4    -0.231299027696E+04    0.16019E-03   -0.83981E-04  3681   0.121E-02    0.867E-02
RMM:   5    -0.231299019499E+04    0.81964E-04   -0.27040E-04  4075   0.957E-03    0.298E-02
RMM:   6    -0.231299019345E+04    0.15399E-05   -0.50014E-05  2988   0.579E-03
 282 F= -.23334328E+04 E0= -.23334328E+04  d E =-.382089E-04  mag=     1.0000
       N       E                     dE             d eps       ncg     rms          rms(c)
DAV:   1    -0.231298632451E+04    0.38705E-02   -0.30054E-01  4448   0.417E-01    0.148E-01
RMM:   2    -0.231298982319E+04   -0.34987E-02   -0.37611E-02  6366   0.102E-01    0.795E-02
RMM:   3    -0.231298997146E+04   -0.14828E-03   -0.25066E-03  4416   0.270E-02    0.845E-02
RMM:   4    -0.231298993297E+04    0.38496E-04   -0.31964E-04  3245   0.835E-03    0.563E-02
RMM:   5    -0.231298989721E+04    0.35760E-04   -0.93410E-05  3341   0.598E-03    0.226E-02
RMM:   6    -0.231298989461E+04    0.25973E-05   -0.26542E-05  2975   0.457E-03
 283 F= -.23334329E+04 E0= -.23334329E+04  d E =-.199077E-03  mag=     1.0000
       N       E                     dE             d eps       ncg     rms          rms(c)
DAV:   1    -0.231298945999E+04    0.43722E-03   -0.25569E-02  4400   0.122E-01    0.461E-02
RMM:   2    -0.231298976006E+04   -0.30007E-03   -0.32609E-03  5898   0.296E-02    0.239E-02
RMM:   3    -0.231298977552E+04   -0.15462E-04   -0.24045E-04  3065   0.101E-02    0.262E-02
RMM:   4    -0.231298977188E+04    0.36379E-05   -0.30497E-05  2855   0.321E-03
 284 F= -.23334329E+04 E0= -.23334329E+04  d E =-.210940E-03  mag=     1.0000
       N       E                     dE             d eps       ncg     rms          rms(c)
DAV:   1    -0.231298936821E+04    0.40731E-03   -0.60289E-02  4416   0.187E-01    0.689E-02
RMM:   2    -0.231299010385E+04   -0.73564E-03   -0.78648E-03  6201   0.469E-02    0.418E-02
RMM:   3    -0.231299015280E+04   -0.48956E-04   -0.58331E-04  3286   0.149E-02    0.536E-02
RMM:   4    -0.231299012295E+04    0.29856E-04   -0.72389E-05  2943   0.510E-03    0.219E-02
RMM:   5    -0.231299011750E+04    0.54482E-05   -0.19333E-05  2889   0.299E-03
 285 F= -.23334331E+04 E0= -.23334331E+04  d E =-.128787E-03  mag=     1.0000
       N       E                     dE             d eps       ncg     rms          rms(c)
DAV:   1    -0.231298738237E+04    0.27406E-02   -0.26229E-01  4416   0.392E-01    0.147E-01
RMM:   2    -0.231299058624E+04   -0.32039E-02   -0.34465E-02  6269   0.981E-02    0.863E-02
RMM:   3    -0.231299079453E+04   -0.20829E-03   -0.25655E-03  4319   0.301E-02    0.109E-01
RMM:   4    -0.231299068239E+04    0.11214E-03   -0.31445E-04  3263   0.877E-03    0.493E-02
RMM:   5    -0.231299065776E+04    0.24628E-04   -0.97539E-05  3250   0.620E-03    0.214E-02
RMM:   6    -0.231299065671E+04    0.10531E-05   -0.26349E-05  2979   0.482E-03
 286 F= -.23334331E+04 E0= -.23334331E+04  d E =-.212939E-03  mag=     1.0000
       N       E                     dE             d eps       ncg     rms          rms(c)
DAV:   1    -0.231298971572E+04    0.94204E-03   -0.10900E-01  4416   0.250E-01    0.954E-02
RMM:   2    -0.231299107902E+04   -0.13633E-02   -0.14697E-02  6245   0.629E-02    0.567E-02
RMM:   3    -0.231299117512E+04   -0.96092E-04   -0.10766E-03  3583   0.193E-02    0.747E-02
RMM:   4    -0.231299112052E+04    0.54596E-04   -0.13894E-04  3065   0.648E-03    0.308E-02
RMM:   5    -0.231299111119E+04    0.93292E-05   -0.40683E-05  2968   0.397E-03
 287 F= -.23334333E+04 E0= -.23334333E+04  d E =-.138688E-03  mag=     1.0000
       N       E                     dE             d eps       ncg     rms          rms(c)
DAV:   1    -0.231298729299E+04    0.38275E-02   -0.34942E-01  4416   0.447E-01    0.170E-01
RMM:   2    -0.231299163559E+04   -0.43426E-02   -0.46807E-02  6300   0.113E-01    0.101E-01
RMM:   3    -0.231299193504E+04   -0.29944E-03   -0.35482E-03  4671   0.362E-02    0.129E-01
RMM:   4    -0.231299177464E+04    0.16040E-03   -0.43532E-04  3377   0.983E-03    0.562E-02
RMM:   5    -0.231299174570E+04    0.28942E-04   -0.12194E-04  3316   0.665E-03    0.269E-02
RMM:   6    -0.231299174342E+04    0.22810E-05   -0.38912E-05  3057   0.530E-03
 288 F= -.23334334E+04 E0= -.23334334E+04  d E =-.205176E-03  mag=     1.0000
       N       E                     dE             d eps       ncg     rms          rms(c)
DAV:   1    -0.231299077022E+04    0.97548E-03   -0.11770E-01  4416   0.260E-01    0.981E-02
RMM:   2    -0.231299217789E+04   -0.14077E-02   -0.15300E-02  6260   0.643E-02    0.519E-02
RMM:   3    -0.231299225936E+04   -0.81472E-04   -0.11044E-03  3505   0.191E-02    0.602E-02
RMM:   4    -0.231299223409E+04    0.25271E-04   -0.13886E-04  3037   0.620E-03    0.343E-02
RMM:   5    -0.231299222243E+04    0.11663E-04   -0.44092E-05  2955   0.415E-03    0.120E-02
RMM:   6    -0.231299222218E+04    0.25207E-06   -0.85513E-06  2815   0.304E-03
 289 F= -.23334335E+04 E0= -.23334335E+04  d E =-.161672E-03  mag=     1.0000
       N       E                     dE             d eps       ncg     rms          rms(c)
DAV:   1    -0.231298630908E+04    0.59133E-02   -0.54831E-01  4416   0.560E-01    0.208E-01
RMM:   2    -0.231299285046E+04   -0.65414E-02   -0.70748E-02  6275   0.139E-01    0.114E-01
RMM:   3    -0.231299324391E+04   -0.39346E-03   -0.53319E-03  4964   0.438E-02    0.132E-01
RMM:   4    -0.231299310892E+04    0.13499E-03   -0.62032E-04  3501   0.107E-02    0.734E-02
RMM:   5    -0.231299305036E+04    0.58556E-04   -0.19487E-04  3631   0.822E-03    0.262E-02
RMM:   6    -0.231299304942E+04    0.94500E-06   -0.40482E-05  3028   0.533E-03
 290 F= -.23334337E+04 E0= -.23334337E+04  d E =-.305062E-03  mag=     1.0000
       N       E                     dE             d eps       ncg     rms          rms(c)
DAV:   1    -0.231299122347E+04    0.18269E-02   -0.20253E-01  4448   0.340E-01    0.128E-01
RMM:   2    -0.231299361582E+04   -0.23923E-02   -0.25933E-02  6234   0.836E-02    0.667E-02
RMM:   3    -0.231299374153E+04   -0.12571E-03   -0.18515E-03  3876   0.244E-02    0.729E-02
RMM:   4    -0.231299371184E+04    0.29694E-04   -0.23425E-04  3141   0.749E-03    0.463E-02
RMM:   5    -0.231299369095E+04    0.20888E-04   -0.72582E-05  3056   0.529E-03    0.178E-02
RMM:   6    -0.231299369002E+04    0.92766E-06   -0.18364E-05  2902   0.399E-03
 291 F= -.23334339E+04 E0= -.23334339E+04  d E =-.238701E-03  mag=     1.0000
       N       E                     dE             d eps       ncg     rms          rms(c)
DAV:   1    -0.231298923487E+04    0.44561E-02   -0.42264E-01  4448   0.491E-01    0.183E-01
RMM:   2    -0.231299421495E+04   -0.49801E-02   -0.53839E-02  6245   0.121E-01    0.966E-02
RMM:   3    -0.231299449133E+04   -0.27638E-03   -0.40361E-03  4686   0.390E-02    0.105E-01
RMM:   4    -0.231299442419E+04    0.67138E-04   -0.46939E-04  3364   0.949E-03    0.669E-02
RMM:   5    -0.231299437506E+04    0.49130E-04   -0.15079E-04  3387   0.741E-03    0.220E-02
RMM:   6    -0.231299437471E+04    0.35358E-06   -0.29319E-05  2949   0.489E-03
 292 F= -.23334340E+04 E0= -.23334340E+04  d E =-.343001E-03  mag=     1.0000
       N       E                     dE             d eps       ncg     rms          rms(c)
DAV:   1    -0.231299170822E+04    0.26668E-02   -0.26884E-01  4416   0.391E-01    0.147E-01
RMM:   2    -0.231299502263E+04   -0.33144E-02   -0.35694E-02  6244   0.981E-02    0.845E-02
RMM:   3    -0.231299523569E+04   -0.21306E-03   -0.26075E-03  4337   0.301E-02    0.107E-01
RMM:   4    -0.231299513110E+04    0.10459E-03   -0.32396E-04  3241   0.873E-03    0.493E-02
RMM:   5    -0.231299510531E+04    0.25786E-04   -0.10033E-04  3180   0.609E-03    0.172E-02
RMM:   6    -0.231299510535E+04   -0.40483E-07   -0.18130E-05  2867   0.418E-03
 293 F= -.23334342E+04 E0= -.23334342E+04  d E =-.247014E-03  mag=     1.0000
       N       E                     dE             d eps       ncg     rms          rms(c)
DAV:   1    -0.231299199157E+04    0.31137E-02   -0.28945E-01  4416   0.406E-01    0.153E-01
RMM:   2    -0.231299557308E+04   -0.35815E-02   -0.38521E-02  6247   0.102E-01    0.894E-02
RMM:   3    -0.231299581298E+04   -0.23990E-03   -0.28958E-03  4497   0.337E-02    0.113E-01
RMM:   4    -0.231299569142E+04    0.12156E-03   -0.35214E-04  3298   0.898E-03    0.509E-02
RMM:   5    -0.231299566493E+04    0.26482E-04   -0.10477E-04  3240   0.625E-03    0.214E-02
RMM:   6    -0.231299566453E+04    0.40769E-06   -0.26506E-05  2971   0.471E-03
 294 F= -.23334343E+04 E0= -.23334343E+04  d E =-.304612E-03  mag=     1.0000
       N       E                     dE             d eps       ncg     rms          rms(c)
DAV:   1    -0.231299201114E+04    0.36538E-02   -0.35105E-01  4416   0.451E-01    0.172E-01
RMM:   2    -0.231299638614E+04   -0.43750E-02   -0.47156E-02  6246   0.114E-01    0.994E-02
RMM:   3    -0.231299668789E+04   -0.30176E-03   -0.34741E-03  4740   0.354E-02    0.130E-01
RMM:   4    -0.231299652310E+04    0.16480E-03   -0.43549E-04  3372   0.989E-03    0.555E-02
RMM:   5    -0.231299649151E+04    0.31587E-04   -0.13135E-04  3313   0.691E-03    0.202E-02
RMM:   6    -0.231299649162E+04   -0.10489E-06   -0.24182E-05  2888   0.466E-03
 295 F= -.23334346E+04 E0= -.23334346E+04  d E =-.259586E-03  mag=     1.0000
       N       E                     dE             d eps       ncg     rms          rms(c)
DAV:   1    -0.231299416478E+04    0.23267E-02   -0.21900E-01  4416   0.357E-01    0.136E-01
RMM:   2    -0.231299691494E+04   -0.27502E-02   -0.29621E-02  6228   0.903E-02    0.795E-02
RMM:   3    -0.231299710737E+04   -0.19243E-03   -0.21701E-03  4241   0.279E-02    0.105E-01
RMM:   4    -0.231299699714E+04    0.11022E-03   -0.27680E-04  3211   0.840E-03    0.434E-02
RMM:   5    -0.231299697805E+04    0.19090E-04   -0.85356E-05  3147   0.560E-03    0.151E-02
RMM:   6    -0.231299697803E+04    0.28173E-07   -0.14241E-05  2852   0.386E-03
 296 F= -.23334346E+04 E0= -.23334346E+04  d E =-.297959E-03  mag=     1.0000
       N       E                     dE             d eps       ncg     rms          rms(c)
DAV:   1    -0.231299213685E+04    0.48412E-02   -0.46411E-01  4416   0.516E-01    0.194E-01
RMM:   2    -0.231299774808E+04   -0.56112E-02   -0.60567E-02  6307   0.129E-01    0.108E-01
RMM:   3    -0.231299809467E+04   -0.34659E-03   -0.43423E-03  4930   0.378E-02    0.135E-01
RMM:   4    -0.231299793249E+04    0.16217E-03   -0.55139E-04  3468   0.106E-02    0.653E-02
RMM:   5    -0.231299788745E+04    0.45043E-04   -0.17051E-04  3589   0.779E-03    0.223E-02
RMM:   6    -0.231299788665E+04    0.79843E-06   -0.28526E-05  2894   0.490E-03
 297 F= -.23334349E+04 E0= -.23334349E+04  d E =-.290612E-03  mag=     1.0000
       N       E                     dE             d eps       ncg     rms          rms(c)
DAV:   1    -0.231299647344E+04    0.14140E-02   -0.14069E-01  4464   0.284E-01    0.108E-01
RMM:   2    -0.231299817951E+04   -0.17061E-02   -0.18475E-02  6238   0.710E-02    0.598E-02
RMM:   3    -0.231299828813E+04   -0.10863E-03   -0.13502E-03  3683   0.224E-02    0.737E-02
RMM:   4    -0.231299824137E+04    0.46768E-04   -0.17076E-04  3079   0.680E-03    0.364E-02
RMM:   5    -0.231299822884E+04    0.12522E-04   -0.48994E-05  3027   0.452E-03    0.149E-02
RMM:   6    -0.231299822867E+04    0.17718E-06   -0.13085E-05  2880   0.347E-03
 298 F= -.23334349E+04 E0= -.23334349E+04  d E =-.292349E-03  mag=     1.0000
       N       E                     dE             d eps       ncg     rms          rms(c)
DAV:   1    -0.231299236862E+04    0.58602E-02   -0.55658E-01  4448   0.566E-01    0.213E-01
RMM:   2    -0.231299902260E+04   -0.66540E-02   -0.71569E-02  6285   0.141E-01    0.120E-01
RMM:   3    -0.231299943781E+04   -0.41521E-03   -0.52151E-03  5106   0.423E-02    0.150E-01
RMM:   4    -0.231299923034E+04    0.20747E-03   -0.64428E-04  3594   0.114E-02    0.717E-02
RMM:   5    -0.231299917443E+04    0.55909E-04   -0.20754E-04  3778   0.857E-03    0.242E-02
RMM:   6    -0.231299917384E+04    0.58868E-06   -0.35022E-05  2903   0.528E-03
 299 F= -.23334352E+04 E0= -.23334352E+04  d E =-.275209E-03  mag=     1.0000
       N       E                     dE             d eps       ncg     rms          rms(c)
DAV:   1    -0.231299896295E+04    0.21149E-03   -0.28546E-02  4608   0.128E-01    0.499E-02
RMM:   2    -0.231299930988E+04   -0.34694E-03   -0.37627E-03  6019   0.324E-02    0.278E-02
RMM:   3    -0.231299933365E+04   -0.23765E-04   -0.27823E-04  3088   0.106E-02    0.365E-02
RMM:   4    -0.231299932114E+04    0.12511E-04   -0.35919E-05  2888   0.377E-03    0.161E-02
RMM:   5    -0.231299931910E+04    0.20401E-05   -0.11526E-05  2788   0.226E-03
 300 F= -.23334352E+04 E0= -.23334352E+04  d E =-.268543E-03  mag=     1.0000
       N       E                     dE             d eps       ncg     rms          rms(c)
DAV:   1    -0.231299604626E+04    0.32749E-02   -0.32925E-01  4448   0.441E-01    0.168E-01
RMM:   2    -0.231300001460E+04   -0.39683E-02   -0.42774E-02  6261   0.111E-01    0.955E-02
RMM:   3    -0.231300026973E+04   -0.25514E-03   -0.31525E-03  4687   0.340E-02    0.121E-01
RMM:   4    -0.231300012714E+04    0.14260E-03   -0.37999E-04  3327   0.950E-03    0.554E-02
RMM:   5    -0.231300009304E+04    0.34098E-04   -0.12969E-04  3493   0.722E-03    0.205E-02
RMM:   6    -0.231300009291E+04    0.12614E-06   -0.27718E-05  2978   0.514E-03
 301 F= -.23334354E+04 E0= -.23334354E+04  d E =-.235687E-03  mag=     1.0000
