       N       E                     dE             d eps       ncg     rms          rms(c)
DAV:   1     0.129716055331E+05    0.12972E+05   -0.84033E+05  4504   0.144E+03
DAV:   2    -0.105286781422E+04   -0.14024E+05   -0.13413E+05  5152   0.331E+02
DAV:   3    -0.247865520274E+04   -0.14258E+04   -0.14105E+04  5456   0.112E+02
DAV:   4    -0.252493018471E+04   -0.46275E+02   -0.46025E+02  6768   0.304E+01
DAV:   5    -0.252578060218E+04   -0.85042E+00   -0.84896E+00  6184   0.343E+00    0.170E+02
RMM:   6    -0.149689721769E+04    0.10289E+04   -0.19323E+03  4458   0.383E+01    0.737E+01
RMM:   7    -0.169189029361E+04   -0.19499E+03   -0.34044E+02  5173   0.153E+01    0.598E+01
RMM:   8    -0.169483305625E+04   -0.29428E+01   -0.81927E+01  5072   0.862E+00    0.432E+01
RMM:   9    -0.179161639432E+04   -0.96783E+02   -0.52739E+01  4681   0.748E+00    0.356E+01
RMM:  10    -0.190838288610E+04   -0.11677E+03   -0.51066E+01  5205   0.693E+00    0.296E+01
RMM:  11    -0.196289178565E+04   -0.54509E+02   -0.22319E+01  5425   0.393E+00    0.242E+01
RMM:  12    -0.206578552715E+04   -0.10289E+03   -0.43771E+01  4713   0.523E+00    0.201E+01
RMM:  13    -0.211170175812E+04   -0.45916E+02   -0.19772E+01  5185   0.349E+00    0.134E+01
RMM:  14    -0.221518118390E+04   -0.10348E+03   -0.76616E+01  4549   0.618E+00    0.992E+00
RMM:  15    -0.228166364229E+04   -0.66482E+02   -0.54137E+01  4624   0.540E+00    0.759E+00
RMM:  16    -0.230620031655E+04   -0.24537E+02   -0.21559E+01  4675   0.364E+00    0.620E+00
RMM:  17    -0.231457694772E+04   -0.83766E+01   -0.82838E+00  4789   0.204E+00    0.309E+00
RMM:  18    -0.231771934654E+04   -0.31424E+01   -0.21333E+00  4881   0.120E+00    0.129E+00
RMM:  19    -0.231857673277E+04   -0.85739E+00   -0.43834E-01  5229   0.515E-01    0.784E-01
RMM:  20    -0.231893481918E+04   -0.35809E+00   -0.12468E-01  4838   0.260E-01    0.419E-01
RMM:  21    -0.231900971066E+04   -0.74891E-01   -0.23383E-02  4802   0.152E-01    0.334E-01
RMM:  22    -0.231905911037E+04   -0.49400E-01   -0.14353E-02  4472   0.906E-02    0.155E-01
RMM:  23    -0.231908506897E+04   -0.25959E-01   -0.69464E-03  4541   0.750E-02    0.131E-01
RMM:  24    -0.231909897910E+04   -0.13910E-01   -0.39742E-03  4520   0.546E-02    0.853E-02
RMM:  25    -0.231910938848E+04   -0.10409E-01   -0.31260E-03  4458   0.468E-02    0.636E-02
RMM:  26    -0.231911470095E+04   -0.53125E-02   -0.18299E-03  4670   0.341E-02    0.358E-02
RMM:  27    -0.231911669697E+04   -0.19960E-02   -0.65368E-04  4305   0.222E-02    0.192E-02
RMM:  28    -0.231911776552E+04   -0.10686E-02   -0.32582E-04  3955   0.151E-02    0.109E-02
RMM:  29    -0.231911816940E+04   -0.40388E-03   -0.12042E-04  3705   0.115E-02    0.712E-03
RMM:  30    -0.231911836191E+04   -0.19251E-03   -0.54820E-05  3524   0.701E-03    0.377E-03
RMM:  31    -0.231911846389E+04   -0.10198E-03   -0.30337E-05  3253   0.579E-03    0.336E-03
RMM:  32    -0.231911849725E+04   -0.33358E-04   -0.13784E-05  2960   0.410E-03    0.158E-03
RMM:  33    -0.231911850799E+04   -0.10738E-04   -0.64086E-06  2736   0.294E-03    0.955E-04
RMM:  34    -0.231911850923E+04   -0.12388E-05   -0.26360E-06  2410   0.204E-03
   1 F= -.23399784E+04 E0= -.23399784E+04  d E =-.233998E+04  mag=     7.0001
       N       E                     dE             d eps       ncg     rms          rms(c)
DAV:   1    -0.231902701365E+04    0.91494E-01   -0.53452E+01  4864   0.361E+00    0.201E+00
RMM:   2    -0.231953941902E+04   -0.51241E+00   -0.54164E+00  6387   0.902E-01    0.162E+00
RMM:   3    -0.231955021818E+04   -0.10799E-01   -0.53676E-01  6023   0.358E-01    0.102E+00
RMM:   4    -0.231954404184E+04    0.61763E-02   -0.53900E-02  5585   0.793E-02    0.626E-01
RMM:   5    -0.231953959817E+04    0.44437E-02   -0.14191E-02  5459   0.490E-02    0.375E-01
RMM:   6    -0.231954007646E+04   -0.47829E-03   -0.59390E-03  5218   0.355E-02    0.388E-01
RMM:   7    -0.231953884615E+04    0.12303E-02   -0.19964E-03  4849   0.196E-02    0.152E-01
RMM:   8    -0.231953866977E+04    0.17638E-03   -0.41850E-04  3410   0.105E-02    0.627E-02
RMM:   9    -0.231953862870E+04    0.41072E-04   -0.11551E-04  3007   0.689E-03    0.228E-02
RMM:  10    -0.231953862278E+04    0.59201E-05   -0.51649E-05  3010   0.488E-03
   2 F= -.23404045E+04 E0= -.23404045E+04  d E =-.426137E+00  mag=     7.0000
       N       E                     dE             d eps       ncg     rms          rms(c)
DAV:   1    -0.231953858801E+04    0.40686E-04   -0.21358E-03  4644   0.253E-02    0.136E-02
RMM:   2    -0.231953860683E+04   -0.18819E-04   -0.20373E-04  3367   0.672E-03    0.115E-02
RMM:   3    -0.231953860755E+04   -0.71699E-06   -0.20301E-05  2817   0.367E-03
   3 F= -.23404046E+04 E0= -.23404046E+04  d E =-.426154E+00  mag=     7.0000
       N       E                     dE             d eps       ncg     rms          rms(c)
DAV:   1    -0.231921150266E+04    0.32710E+00   -0.31585E+01  4600   0.344E+00    0.209E+00
RMM:   2    -0.231986347768E+04   -0.65198E+00   -0.68825E+00  6537   0.917E-01    0.154E+00
RMM:   3    -0.231991022513E+04   -0.46747E-01   -0.79434E-01  6026   0.403E-01    0.881E-01
RMM:   4    -0.231990818983E+04    0.20353E-02   -0.67037E-02  5377   0.752E-02    0.619E-01
RMM:   5    -0.231990640357E+04    0.17863E-02   -0.10242E-02  5218   0.399E-02    0.558E-01
RMM:   6    -0.231990374108E+04    0.26625E-02   -0.78002E-03  5326   0.328E-02    0.239E-01
RMM:   7    -0.231990347543E+04    0.26565E-03   -0.14611E-03  4370   0.178E-02    0.125E-01
RMM:   8    -0.231990338162E+04    0.93811E-04   -0.47125E-04  3334   0.104E-02    0.778E-02
RMM:   9    -0.231990331305E+04    0.68568E-04   -0.13832E-04  2975   0.681E-03    0.205E-02
RMM:  10    -0.231990331378E+04   -0.72183E-06   -0.38092E-05  2969   0.381E-03
   4 F= -.23407708E+04 E0= -.23407708E+04  d E =-.366248E+00  mag=     7.0000
       N       E                     dE             d eps       ncg     rms          rms(c)
DAV:   1    -0.231973748472E+04    0.16583E+00   -0.10315E+01  4656   0.192E+00    0.117E+00
RMM:   2    -0.231994443974E+04   -0.20696E+00   -0.21913E+00  6520   0.506E-01    0.826E-01
RMM:   3    -0.231996008451E+04   -0.15645E-01   -0.24436E-01  5910   0.220E-01    0.474E-01
RMM:   4    -0.231995995177E+04    0.13274E-03   -0.21663E-02  5046   0.419E-02    0.379E-01
RMM:   5    -0.231995914212E+04    0.80966E-03   -0.26793E-03  4312   0.200E-02    0.298E-01
RMM:   6    -0.231995821910E+04    0.92302E-03   -0.26755E-03  4740   0.205E-02    0.100E-01
RMM:   7    -0.231995822256E+04   -0.34601E-05   -0.48037E-04  3568   0.105E-02    0.642E-02
RMM:   8    -0.231995819575E+04    0.26804E-04   -0.14269E-04  2991   0.656E-03    0.433E-02
RMM:   9    -0.231995817458E+04    0.21175E-04   -0.43642E-05  2905   0.454E-03    0.106E-02
RMM:  10    -0.231995817621E+04   -0.16331E-05   -0.15645E-05  2880   0.265E-03
   5 F= -.23408268E+04 E0= -.23408268E+04  d E =-.422211E+00  mag=     7.0000
       N       E                     dE             d eps       ncg     rms          rms(c)
DAV:   1    -0.231989705940E+04    0.61115E-01   -0.21609E+01  4544   0.231E+00    0.131E+00
RMM:   2    -0.232008746268E+04   -0.19040E+00   -0.20723E+00  6406   0.545E-01    0.821E-01
RMM:   3    -0.232009719937E+04   -0.97367E-02   -0.19046E-01  6048   0.194E-01    0.628E-01
RMM:   4    -0.232009441815E+04    0.27812E-02   -0.21441E-02  5630   0.491E-02    0.417E-01
RMM:   5    -0.232009331274E+04    0.11054E-02   -0.48380E-03  5093   0.297E-02    0.295E-01
RMM:   6    -0.232009310161E+04    0.21113E-03   -0.34646E-03  4893   0.255E-02    0.219E-01
RMM:   7    -0.232009272744E+04    0.37417E-03   -0.74568E-04  4311   0.140E-02    0.595E-02
RMM:   8    -0.232009269124E+04    0.36198E-04   -0.14147E-04  2957   0.708E-03    0.249E-02
RMM:   9    -0.232009268944E+04    0.17974E-05   -0.51947E-05  2980   0.472E-03
   6 F= -.23409602E+04 E0= -.23409602E+04  d E =-.133418E+00  mag=     7.0000
       N       E                     dE             d eps       ncg     rms          rms(c)
DAV:   1    -0.232007764656E+04    0.15045E-01   -0.29280E+00  4704   0.823E-01    0.493E-01
RMM:   2    -0.232010338761E+04   -0.25741E-01   -0.28229E-01  6382   0.199E-01    0.326E-01
RMM:   3    -0.232010443074E+04   -0.10431E-02   -0.24187E-02  5519   0.692E-02    0.241E-01
RMM:   4    -0.232010399469E+04    0.43606E-03   -0.28635E-03  3924   0.184E-02    0.151E-01
RMM:   5    -0.232010387889E+04    0.11579E-03   -0.70553E-04  3609   0.120E-02    0.122E-01
RMM:   6    -0.232010379586E+04    0.83030E-04   -0.42728E-04  3159   0.105E-02    0.640E-02
RMM:   7    -0.232010377162E+04    0.24239E-04   -0.81659E-05  3008   0.644E-03    0.217E-02
RMM:   8    -0.232010376921E+04    0.24193E-05   -0.17711E-05  2933   0.374E-03
   7 F= -.23409709E+04 E0= -.23409709E+04  d E =-.144124E+00  mag=     7.0000
       N       E                     dE             d eps       ncg     rms          rms(c)
DAV:   1    -0.231996554487E+04    0.13823E+00   -0.17442E+01  4512   0.218E+00    0.120E+00
RMM:   2    -0.232015207450E+04   -0.18653E+00   -0.19263E+00  6369   0.532E-01    0.104E+00
RMM:   3    -0.232015941205E+04   -0.73375E-02   -0.18014E-01  5998   0.203E-01    0.732E-01
RMM:   4    -0.232015554040E+04    0.38716E-02   -0.20029E-02  5345   0.484E-02    0.328E-01
RMM:   5    -0.232015482081E+04    0.71959E-03   -0.33704E-03  5080   0.268E-02    0.317E-01
RMM:   6    -0.232015415002E+04    0.67079E-03   -0.26816E-03  4847   0.233E-02    0.195E-01
RMM:   7    -0.232015390710E+04    0.24292E-03   -0.65939E-04  4111   0.136E-02    0.441E-02
RMM:   8    -0.232015389479E+04    0.12303E-04   -0.10010E-04  2972   0.728E-03    0.230E-02
RMM:   9    -0.232015390511E+04   -0.10320E-04   -0.66658E-05  3013   0.505E-03    0.102E-02
RMM:  10    -0.232015391299E+04   -0.78754E-05   -0.13341E-05  2923   0.360E-03
   8 F= -.23410222E+04 E0= -.23410222E+04  d E =-.513448E-01  mag=     7.0000
       N       E                     dE             d eps       ncg     rms          rms(c)
DAV:   1    -0.232015122834E+04    0.26768E-02   -0.45592E-01  4640   0.355E-01    0.195E-01
RMM:   2    -0.232015611421E+04   -0.48859E-02   -0.49754E-02  6307   0.852E-02    0.185E-01
RMM:   3    -0.232015616531E+04   -0.51106E-04   -0.39103E-03  4064   0.320E-02    0.112E-01
RMM:   4    -0.232015608658E+04    0.78732E-04   -0.48691E-04  3130   0.840E-03    0.507E-02
RMM:   5    -0.232015607035E+04    0.16230E-04   -0.78097E-05  2957   0.508E-03    0.461E-02
RMM:   6    -0.232015606212E+04    0.82313E-05   -0.58077E-05  2887   0.456E-03
   9 F= -.23410242E+04 E0= -.23410242E+04  d E =-.532941E-01  mag=     7.0000
       N       E                     dE             d eps       ncg     rms          rms(c)
DAV:   1    -0.232005726006E+04    0.98810E-01   -0.13161E+01  4512   0.197E+00    0.113E+00
RMM:   2    -0.232021771476E+04   -0.16045E+00   -0.16167E+00  6502   0.504E-01    0.110E+00
RMM:   3    -0.232021999493E+04   -0.22802E-02   -0.15477E-01  6128   0.178E-01    0.618E-01
RMM:   4    -0.232021748160E+04    0.25133E-02   -0.15582E-02  5231   0.427E-02    0.253E-01
RMM:   5    -0.232021705727E+04    0.42433E-03   -0.17770E-03  4596   0.209E-02    0.228E-01
RMM:   6    -0.232021673914E+04    0.31813E-03   -0.13696E-03  4653   0.180E-02    0.166E-01
RMM:   7    -0.232021654740E+04    0.19175E-03   -0.68103E-04  4202   0.146E-02    0.308E-02
RMM:   8    -0.232021655192E+04   -0.45257E-05   -0.76156E-05  3010   0.605E-03
  10 F= -.23410863E+04 E0= -.23410863E+04  d E =-.621352E-01  mag=     7.0000
       N       E                     dE             d eps       ncg     rms          rms(c)
DAV:   1    -0.232001502978E+04    0.20152E+00   -0.18630E+01  4496   0.235E+00    0.135E+00
RMM:   2    -0.232024178285E+04   -0.22675E+00   -0.22884E+00  6508   0.595E-01    0.129E+00
RMM:   3    -0.232024586836E+04   -0.40855E-02   -0.22130E-01  6108   0.213E-01    0.752E-01
RMM:   4    -0.232024205854E+04    0.38098E-02   -0.22984E-02  5377   0.512E-02    0.301E-01
RMM:   5    -0.232024135843E+04    0.70011E-03   -0.24473E-03  4772   0.242E-02    0.255E-01
RMM:   6    -0.232024107741E+04    0.28102E-03   -0.19584E-03  4887   0.211E-02    0.215E-01
RMM:   7    -0.232024076107E+04    0.31634E-03   -0.96892E-04  4550   0.167E-02    0.381E-02
RMM:   8    -0.232024078217E+04   -0.21104E-04   -0.11394E-04  3070   0.704E-03    0.232E-02
RMM:   9    -0.232024081172E+04   -0.29548E-04   -0.40744E-05  2997   0.480E-03    0.113E-02
RMM:  10    -0.232024083175E+04   -0.20027E-04   -0.13769E-05  2910   0.378E-03    0.673E-03
RMM:  11    -0.232024084400E+04   -0.12248E-04   -0.73177E-06  2866   0.288E-03    0.427E-03
RMM:  12    -0.232024085466E+04   -0.10661E-04   -0.57980E-06  2833   0.256E-03    0.247E-03
RMM:  13    -0.232024085879E+04   -0.41338E-05   -0.34484E-06  2664   0.230E-03
  11 F= -.23411126E+04 E0= -.23411126E+04  d E =-.884436E-01  mag=     7.0000
       N       E                     dE             d eps       ncg     rms          rms(c)
DAV:   1    -0.232015351509E+04    0.87340E-01   -0.10732E+01  4496   0.230E+00    0.110E+00
RMM:   2    -0.232026213439E+04   -0.10862E+00   -0.11330E+00  6014   0.520E-01    0.910E-01
RMM:   3    -0.232026270285E+04   -0.56846E-03   -0.98659E-02  5697   0.189E-01    0.645E-01
RMM:   4    -0.232025897649E+04    0.37264E-02   -0.11674E-02  5333   0.496E-02    0.253E-01
RMM:   5    -0.232025816591E+04    0.81058E-03   -0.25787E-03  5264   0.345E-02    0.193E-01
RMM:   6    -0.232025802123E+04    0.14469E-03   -0.16186E-03  5443   0.237E-02    0.166E-01
RMM:   7    -0.232025774420E+04    0.27703E-03   -0.43671E-04  4699   0.148E-02    0.455E-02
RMM:   8    -0.232025770790E+04    0.36303E-04   -0.82164E-05  3262   0.708E-03    0.215E-02
RMM:   9    -0.232025768998E+04    0.17918E-04   -0.57321E-05  3397   0.612E-03    0.120E-02
RMM:  10    -0.232025768722E+04    0.27623E-05   -0.15257E-05  2908   0.485E-03
  12 F= -.23411301E+04 E0= -.23411301E+04  d E =-.174726E-01  mag=     7.0000
       N       E                     dE             d eps       ncg     rms          rms(c)
DAV:   1    -0.232025359007E+04    0.40999E-02   -0.67580E-01  4640   0.579E-01    0.277E-01
RMM:   2    -0.232026022972E+04   -0.66396E-02   -0.69809E-02  6089   0.129E-01    0.213E-01
RMM:   3    -0.232026044492E+04   -0.21520E-03   -0.62540E-03  5311   0.485E-02    0.173E-01
RMM:   4    -0.232026015202E+04    0.29290E-03   -0.73559E-04  4172   0.132E-02    0.632E-02
RMM:   5    -0.232026010162E+04    0.50399E-04   -0.15980E-04  3936   0.947E-03    0.325E-02
RMM:   6    -0.232026010333E+04   -0.17067E-05   -0.78053E-05  3214   0.758E-03
  13 F= -.23411324E+04 E0= -.23411324E+04  d E =-.197331E-01  mag=     7.0000
       N       E                     dE             d eps       ncg     rms          rms(c)
DAV:   1    -0.232021039227E+04    0.49709E-01   -0.55584E+00  4528   0.136E+00    0.731E-01
RMM:   2    -0.232027861745E+04   -0.68225E-01   -0.68902E-01  6437   0.334E-01    0.717E-01
RMM:   3    -0.232027881146E+04   -0.19400E-03   -0.59082E-02  5890   0.114E-01    0.391E-01
RMM:   4    -0.232027781063E+04    0.10008E-02   -0.66251E-03  5050   0.276E-02    0.177E-01
RMM:   5    -0.232027751074E+04    0.29989E-03   -0.77869E-04  4287   0.163E-02    0.102E-01
RMM:   6    -0.232027752784E+04   -0.17105E-04   -0.60828E-04  4142   0.145E-02    0.612E-02
RMM:   7    -0.232027750776E+04    0.20080E-04   -0.13073E-04  3008   0.779E-03    0.391E-02
RMM:   8    -0.232027749184E+04    0.15925E-04   -0.22818E-05  2919   0.390E-03    0.122E-02
RMM:   9    -0.232027748995E+04    0.18852E-05   -0.16610E-05  2922   0.274E-03
  14 F= -.23411502E+04 E0= -.23411502E+04  d E =-.178425E-01  mag=     7.0000
       N       E                     dE             d eps       ncg     rms          rms(c)
DAV:   1    -0.232027026473E+04    0.72271E-02   -0.71454E-01  4624   0.486E-01    0.260E-01
RMM:   2    -0.232027886049E+04   -0.85958E-02   -0.86964E-02  6421   0.118E-01    0.249E-01
RMM:   3    -0.232027894153E+04   -0.81031E-04   -0.72367E-03  4688   0.397E-02    0.141E-01
RMM:   4    -0.232027880081E+04    0.14072E-03   -0.85960E-04  3356   0.106E-02    0.631E-02
RMM:   5    -0.232027876750E+04    0.33309E-04   -0.97660E-05  3033   0.652E-03    0.351E-02
RMM:   6    -0.232027876908E+04   -0.15766E-05   -0.70211E-05  3005   0.588E-03
  15 F= -.23411516E+04 E0= -.23411516E+04  d E =-.192702E-01  mag=     7.0000
       N       E                     dE             d eps       ncg     rms          rms(c)
DAV:   1    -0.232022395075E+04    0.54817E-01   -0.49873E+00  4496   0.156E+00    0.746E-01
RMM:   2    -0.232029233885E+04   -0.68388E-01   -0.69267E-01  6100   0.359E-01    0.662E-01
RMM:   3    -0.232029422134E+04   -0.18825E-02   -0.61105E-02  5813   0.129E-01    0.412E-01
RMM:   4    -0.232029277702E+04    0.14443E-02   -0.71414E-03  5253   0.322E-02    0.173E-01
RMM:   5    -0.232029252554E+04    0.25148E-03   -0.88606E-04  4756   0.190E-02    0.137E-01
RMM:   6    -0.232029244916E+04    0.76382E-04   -0.68306E-04  4724   0.147E-02    0.112E-01
RMM:   7    -0.232029233921E+04    0.10995E-03   -0.22030E-04  3997   0.108E-02    0.204E-02
RMM:   8    -0.232029233147E+04    0.77389E-05   -0.35978E-05  2940   0.585E-03
  16 F= -.23411655E+04 E0= -.23411655E+04  d E =-.138759E-01  mag=     7.0000
       N       E                     dE             d eps       ncg     rms          rms(c)
DAV:   1    -0.232027105212E+04    0.21287E-01   -0.16625E+00  4536   0.897E-01    0.429E-01
RMM:   2    -0.232029375118E+04   -0.22699E-01   -0.22952E-01  6209   0.210E-01    0.387E-01
RMM:   3    -0.232029430571E+04   -0.55453E-03   -0.19948E-02  5716   0.742E-02    0.236E-01
RMM:   4    -0.232029383985E+04    0.46586E-03   -0.23903E-03  4759   0.188E-02    0.102E-01
RMM:   5    -0.232029376757E+04    0.72283E-04   -0.30524E-04  3909   0.114E-02    0.924E-02
RMM:   6    -0.232029369989E+04    0.67679E-04   -0.22130E-04  3601   0.958E-03    0.527E-02
RMM:   7    -0.232029367405E+04    0.25839E-04   -0.82086E-05  3358   0.761E-03    0.118E-02
RMM:   8    -0.232029367201E+04    0.20489E-05   -0.15013E-05  2908   0.487E-03
  17 F= -.23411670E+04 E0= -.23411670E+04  d E =-.153819E-01  mag=     7.0000
       N       E                     dE             d eps       ncg     rms          rms(c)
DAV:   1    -0.232025807818E+04    0.35596E-01   -0.29618E+00  4496   0.117E+00    0.579E-01
RMM:   2    -0.232030098451E+04   -0.42906E-01   -0.43407E-01  6239   0.281E-01    0.516E-01
RMM:   3    -0.232030251921E+04   -0.15347E-02   -0.40981E-02  5851   0.103E-01    0.313E-01
RMM:   4    -0.232030176140E+04    0.75781E-03   -0.46642E-03  5031   0.247E-02    0.135E-01
RMM:   5    -0.232030164391E+04    0.11748E-03   -0.51053E-04  4169   0.133E-02    0.124E-01
RMM:   6    -0.232030151976E+04    0.12415E-03   -0.37986E-04  4088   0.112E-02    0.684E-02
RMM:   7    -0.232030148141E+04    0.38351E-04   -0.14227E-04  3585   0.902E-03    0.153E-02
RMM:   8    -0.232030147808E+04    0.33311E-05   -0.22147E-05  2924   0.512E-03
  18 F= -.23411750E+04 E0= -.23411750E+04  d E =-.801147E-02  mag=     7.0000
       N       E                     dE             d eps       ncg     rms          rms(c)
DAV:   1    -0.232028715778E+04    0.14324E-01   -0.10420E+00  4560   0.693E-01    0.344E-01
RMM:   2    -0.232030230350E+04   -0.15146E-01   -0.15321E-01  6264   0.168E-01    0.308E-01
RMM:   3    -0.232030278677E+04   -0.48326E-03   -0.14091E-02  5559   0.593E-02    0.185E-01
RMM:   4    -0.232030252658E+04    0.26019E-03   -0.16474E-03  3996   0.148E-02    0.815E-02
RMM:   5    -0.232030248481E+04    0.41770E-04   -0.18028E-04  3150   0.837E-03    0.770E-02
RMM:   6    -0.232030243117E+04    0.53636E-04   -0.13540E-04  3170   0.785E-03    0.384E-02
RMM:   7    -0.232030241760E+04    0.13574E-04   -0.59219E-05  3094   0.670E-03    0.921E-03
RMM:   8    -0.232030241671E+04    0.89117E-06   -0.11148E-05  2897   0.451E-03
  19 F= -.23411761E+04 E0= -.23411761E+04  d E =-.906035E-02  mag=     7.0000
       N       E                     dE             d eps       ncg     rms          rms(c)
DAV:   1    -0.232029854975E+04    0.38678E-02   -0.49013E-01  4560   0.541E-01    0.254E-01
RMM:   2    -0.232030633412E+04   -0.77844E-02   -0.78844E-02  6136   0.134E-01    0.231E-01
RMM:   3    -0.232030650729E+04   -0.17317E-03   -0.74492E-03  5408   0.480E-02    0.129E-01
RMM:   4    -0.232030639050E+04    0.11678E-03   -0.84408E-04  4104   0.125E-02    0.622E-02
RMM:   5    -0.232030636658E+04    0.23922E-04   -0.11810E-04  3111   0.828E-03    0.617E-02
RMM:   6    -0.232030633336E+04    0.33224E-04   -0.95846E-05  3130   0.751E-03    0.323E-02
RMM:   7    -0.232030632471E+04    0.86435E-05   -0.33440E-05  2931   0.615E-03
  20 F= -.23411800E+04 E0= -.23411800E+04  d E =-.395746E-02  mag=     7.0000
       N       E                     dE             d eps       ncg     rms          rms(c)
DAV:   1    -0.232029878486E+04    0.75485E-02   -0.52321E-01  4552   0.559E-01    0.263E-01
RMM:   2    -0.232030710960E+04   -0.83247E-02   -0.84538E-02  6131   0.139E-01    0.236E-01
RMM:   3    -0.232030731329E+04   -0.20369E-03   -0.80191E-03  5524   0.515E-02    0.135E-01
RMM:   4    -0.232030718736E+04    0.12593E-03   -0.90856E-04  4149   0.130E-02    0.654E-02
RMM:   5    -0.232030716364E+04    0.23720E-04   -0.12960E-04  3130   0.850E-03    0.656E-02
RMM:   6    -0.232030712334E+04    0.40295E-04   -0.10340E-04  3222   0.778E-03    0.313E-02
RMM:   7    -0.232030711495E+04    0.83925E-05   -0.35421E-05  2939   0.631E-03
  21 F= -.23411809E+04 E0= -.23411809E+04  d E =-.479511E-02  mag=     7.0000
       N       E                     dE             d eps       ncg     rms          rms(c)
DAV:   1    -0.232029841134E+04    0.87120E-02   -0.67768E-01  4528   0.627E-01    0.297E-01
RMM:   2    -0.232030959711E+04   -0.11186E-01   -0.11352E-01  6276   0.154E-01    0.262E-01
RMM:   3    -0.232030995619E+04   -0.35908E-03   -0.11006E-02  5600   0.575E-02    0.142E-01
RMM:   4    -0.232030982379E+04    0.13240E-03   -0.11833E-03  3800   0.132E-02    0.645E-02
RMM:   5    -0.232030978677E+04    0.37017E-04   -0.11478E-04  3099   0.776E-03    0.589E-02
RMM:   6    -0.232030976129E+04    0.25486E-04   -0.10380E-04  3097   0.714E-03    0.407E-02
RMM:   7    -0.232030974835E+04    0.12943E-04   -0.50516E-05  2962   0.651E-03    0.761E-03
RMM:   8    -0.232030974794E+04    0.40380E-06   -0.85100E-06  2890   0.415E-03
  22 F= -.23411836E+04 E0= -.23411836E+04  d E =-.270808E-02  mag=     7.0000
       N       E                     dE             d eps       ncg     rms          rms(c)
DAV:   1    -0.232030757792E+04    0.21704E-02   -0.14405E-01  4656   0.289E-01    0.137E-01
RMM:   2    -0.232030997277E+04   -0.23948E-02   -0.24241E-02  6257   0.707E-02    0.123E-01
RMM:   3    -0.232031003987E+04   -0.67103E-04   -0.23217E-03  3720   0.257E-02    0.650E-02
RMM:   4    -0.232031001193E+04    0.27944E-04   -0.25097E-04  3039   0.682E-03    0.297E-02
RMM:   5    -0.232031000329E+04    0.86350E-05   -0.26388E-05  2908   0.403E-03
  23 F= -.23411839E+04 E0= -.23411839E+04  d E =-.299781E-02  mag=     7.0000
       N       E                     dE             d eps       ncg     rms          rms(c)
DAV:   1    -0.232030814557E+04    0.18664E-02   -0.22198E-01  4528   0.427E-01    0.177E-01
RMM:   2    -0.232031156158E+04   -0.34160E-02   -0.35714E-02  5995   0.987E-02    0.119E-01
RMM:   3    -0.232031175913E+04   -0.19755E-03   -0.33922E-03  4868   0.383E-02    0.829E-02
RMM:   4    -0.232031170142E+04    0.57709E-04   -0.37389E-04  3515   0.101E-02    0.490E-02
RMM:   5    -0.232031167636E+04    0.25064E-04   -0.90768E-05  3445   0.828E-03    0.343E-02
RMM:   6    -0.232031167225E+04    0.41012E-05   -0.51189E-05  2934   0.663E-03
  24 F= -.23411857E+04 E0= -.23411857E+04  d E =-.180637E-02  mag=     7.0000
       N       E                     dE             d eps       ncg     rms          rms(c)
DAV:   1    -0.232031095098E+04    0.72538E-03   -0.43639E-02  4912   0.190E-01    0.811E-02
RMM:   2    -0.232031163441E+04   -0.68343E-03   -0.72074E-03  6183   0.459E-02    0.507E-02
RMM:   3    -0.232031167780E+04   -0.43382E-04   -0.69769E-04  3230   0.170E-02    0.362E-02
RMM:   4    -0.232031166943E+04    0.83660E-05   -0.74329E-05  2972   0.510E-03
  25 F= -.23411857E+04 E0= -.23411857E+04  d E =-.186542E-02  mag=     7.0000
       N       E                     dE             d eps       ncg     rms          rms(c)
DAV:   1    -0.232031164134E+04    0.36452E-04   -0.41594E-03  5048   0.589E-02    0.274E-02
RMM:   2    -0.232031170951E+04   -0.68168E-04   -0.68008E-04  4797   0.153E-02    0.247E-02
RMM:   3    -0.232031171240E+04   -0.28841E-05   -0.77689E-05  2916   0.721E-03
  26 F= -.23411858E+04 E0= -.23411858E+04  d E =-.188981E-02  mag=     7.0000
       N       E                     dE             d eps       ncg     rms          rms(c)
DAV:   1    -0.232031013790E+04    0.15716E-02   -0.14352E-01  4528   0.326E-01    0.142E-01
RMM:   2    -0.232031248938E+04   -0.23515E-02   -0.24552E-02  6022   0.734E-02    0.856E-02
RMM:   3    -0.232031265943E+04   -0.17005E-03   -0.24795E-03  3891   0.300E-02    0.574E-02
RMM:   4    -0.232031263665E+04    0.22781E-04   -0.24011E-04  3027   0.716E-03    0.310E-02
RMM:   5    -0.232031262392E+04    0.12737E-04   -0.33660E-05  2922   0.479E-03    0.201E-02
RMM:   6    -0.232031262345E+04    0.46422E-06   -0.23698E-05  2923   0.438E-03
  27 F= -.23411867E+04 E0= -.23411867E+04  d E =-.901140E-03  mag=     7.0000
       N       E                     dE             d eps       ncg     rms          rms(c)
DAV:   1    -0.232031102265E+04    0.16013E-02   -0.10263E-01  4560   0.276E-01    0.120E-01
RMM:   2    -0.232031271654E+04   -0.16939E-02   -0.17695E-02  6079   0.623E-02    0.700E-02
RMM:   3    -0.232031285070E+04   -0.13416E-03   -0.18685E-03  3677   0.267E-02    0.480E-02
RMM:   4    -0.232031283739E+04    0.13316E-04   -0.17899E-04  3006   0.623E-03    0.302E-02
RMM:   5    -0.232031282941E+04    0.79807E-05   -0.26403E-05  2933   0.389E-03
  28 F= -.23411869E+04 E0= -.23411869E+04  d E =-.109932E-02  mag=     7.0000
       N       E                     dE             d eps       ncg     rms          rms(c)
DAV:   1    -0.232031225964E+04    0.57774E-03   -0.78982E-02  4528   0.211E-01    0.935E-02
RMM:   2    -0.232031355495E+04   -0.12953E-02   -0.12978E-02  6295   0.500E-02    0.883E-02
RMM:   3    -0.232031359743E+04   -0.42486E-04   -0.12055E-03  3178   0.186E-02    0.435E-02
RMM:   4    -0.232031358823E+04    0.92000E-05   -0.13316E-04  2992   0.512E-03    0.226E-02
RMM:   5    -0.232031358454E+04    0.36962E-05   -0.12895E-05  2897   0.283E-03
  29 F= -.23411876E+04 E0= -.23411876E+04  d E =-.743922E-03  mag=     7.0000
       N       E                     dE             d eps       ncg     rms          rms(c)
DAV:   1    -0.232030304144E+04    0.10547E-01   -0.71325E-01  4496   0.634E-01    0.282E-01
RMM:   2    -0.232031462437E+04   -0.11583E-01   -0.11703E-01  6167   0.147E-01    0.235E-01
RMM:   3    -0.232031518685E+04   -0.56248E-03   -0.10832E-02  5278   0.570E-02    0.134E-01
RMM:   4    -0.232031508917E+04    0.97679E-04   -0.11699E-03  3408   0.126E-02    0.720E-02
RMM:   5    -0.232031506030E+04    0.28869E-04   -0.11889E-04  3008   0.683E-03    0.653E-02
RMM:   6    -0.232031501791E+04    0.42391E-04   -0.10033E-04  3005   0.694E-03    0.306E-02
RMM:   7    -0.232031501124E+04    0.66699E-05   -0.41331E-05  2961   0.590E-03
  30 F= -.23411890E+04 E0= -.23411890E+04  d E =-.213570E-02  mag=     7.0000
       N       E                     dE             d eps       ncg     rms          rms(c)
DAV:   1    -0.232026602575E+04    0.48992E-01   -0.28565E+00  4488   0.127E+00    0.571E-01
RMM:   2    -0.232031270500E+04   -0.46679E-01   -0.47189E-01  6186   0.294E-01    0.474E-01
RMM:   3    -0.232031484488E+04   -0.21399E-02   -0.43007E-02  5731   0.116E-01    0.264E-01
RMM:   4    -0.232031448242E+04    0.36246E-03   -0.46563E-03  4948   0.244E-02    0.134E-01
RMM:   5    -0.232031434252E+04    0.13989E-03   -0.43311E-04  3745   0.127E-02    0.114E-01
RMM:   6    -0.232031424612E+04    0.96402E-04   -0.36585E-04  3929   0.114E-02    0.783E-02
RMM:   7    -0.232031419457E+04    0.51552E-04   -0.16135E-04  3514   0.957E-03    0.200E-02
RMM:   8    -0.232031419096E+04    0.36091E-05   -0.22340E-05  2942   0.538E-03
  31 F= -.23411881E+04 E0= -.23411881E+04  d E =-.123800E-02  mag=     7.0000
       N       E                     dE             d eps       ncg     rms          rms(c)
DAV:   1    -0.232029480952E+04    0.19385E-01   -0.12315E+00  4492   0.829E-01    0.372E-01
RMM:   2    -0.232031461503E+04   -0.19806E-01   -0.19942E-01  6205   0.192E-01    0.317E-01
RMM:   3    -0.232031556754E+04   -0.95250E-03   -0.19115E-02  5671   0.741E-02    0.176E-01
RMM:   4    -0.232031538244E+04    0.18509E-03   -0.20004E-03  3966   0.161E-02    0.849E-02
RMM:   5    -0.232031532660E+04    0.55838E-04   -0.18984E-04  3216   0.875E-03    0.766E-02
RMM:   6    -0.232031528182E+04    0.44781E-04   -0.14683E-04  3070   0.821E-03    0.488E-02
RMM:   7    -0.232031526302E+04    0.18804E-04   -0.69880E-05  3016   0.717E-03    0.916E-03
RMM:   8    -0.232031526273E+04    0.29414E-06   -0.99852E-06  2909   0.456E-03
  32 F= -.23411892E+04 E0= -.23411892E+04  d E =-.236180E-02  mag=     7.0000
       N       E                     dE             d eps       ncg     rms          rms(c)
DAV:   1    -0.232031478548E+04    0.47754E-03   -0.71721E-02  4528   0.193E-01    0.875E-02
RMM:   2    -0.232031586208E+04   -0.10766E-02   -0.10813E-02  6229   0.447E-02    0.753E-02
RMM:   3    -0.232031590285E+04   -0.40772E-04   -0.97165E-04  3143   0.170E-02    0.406E-02
RMM:   4    -0.232031589365E+04    0.91964E-05   -0.10751E-04  2980   0.455E-03    0.196E-02
RMM:   5    -0.232031589094E+04    0.27114E-05   -0.10352E-05  2839   0.230E-03
  33 F= -.23411899E+04 E0= -.23411899E+04  d E =-.686503E-03  mag=     7.0000
       N       E                     dE             d eps       ncg     rms          rms(c)
DAV:   1    -0.232030733624E+04    0.85574E-02   -0.64440E-01  4496   0.577E-01    0.260E-01
RMM:   2    -0.232031701350E+04   -0.96773E-02   -0.97476E-02  6200   0.132E-01    0.220E-01
RMM:   3    -0.232031739893E+04   -0.38542E-03   -0.88509E-03  5105   0.495E-02    0.118E-01
RMM:   4    -0.232031732862E+04    0.70303E-04   -0.97206E-04  3262   0.108E-02    0.583E-02
RMM:   5    -0.232031728505E+04    0.43571E-04   -0.82467E-05  3030   0.630E-03    0.363E-02
RMM:   6    -0.232031728769E+04   -0.26409E-05   -0.85926E-05  3058   0.644E-03
  34 F= -.23411915E+04 E0= -.23411915E+04  d E =-.225612E-02  mag=     7.0000
       N       E                     dE             d eps       ncg     rms          rms(c)
DAV:   1    -0.232027788987E+04    0.39395E-01   -0.25784E+00  4488   0.116E+00    0.529E-01
RMM:   2    -0.232031694988E+04   -0.39060E-01   -0.39338E-01  6059   0.265E-01    0.452E-01
RMM:   3    -0.232031833835E+04   -0.13885E-02   -0.35129E-02  5634   0.993E-02    0.239E-01
RMM:   4    -0.232031806511E+04    0.27324E-03   -0.38993E-03  4659   0.209E-02    0.121E-01
RMM:   5    -0.232031796889E+04    0.96226E-04   -0.35527E-04  3424   0.108E-02    0.109E-01
RMM:   6    -0.232031787151E+04    0.97381E-04   -0.29711E-04  3702   0.100E-02    0.645E-02
RMM:   7    -0.232031784286E+04    0.28646E-04   -0.13987E-04  3377   0.871E-03    0.159E-02
RMM:   8    -0.232031784157E+04    0.12846E-05   -0.17528E-05  2932   0.491E-03
  35 F= -.23411924E+04 E0= -.23411924E+04  d E =-.314577E-02  mag=     7.0000
       N       E                     dE             d eps       ncg     rms          rms(c)
DAV:   1    -0.232031360574E+04    0.42371E-02   -0.36800E-01  4496   0.430E-01    0.191E-01
RMM:   2    -0.232031875267E+04   -0.51469E-02   -0.51777E-02  6290   0.974E-02    0.161E-01
RMM:   3    -0.232031894048E+04   -0.18781E-03   -0.45294E-03  4277   0.351E-02    0.878E-02
RMM:   4    -0.232031889791E+04    0.42568E-04   -0.50514E-04  3103   0.848E-03    0.440E-02
RMM:   5    -0.232031888211E+04    0.15800E-04   -0.50611E-05  2942   0.493E-03    0.372E-02
RMM:   6    -0.232031887367E+04    0.84354E-05   -0.42889E-05  2929   0.462E-03
  36 F= -.23411936E+04 E0= -.23411936E+04  d E =-.122787E-02  mag=     7.0000
       N       E                     dE             d eps       ncg     rms          rms(c)
DAV:   1    -0.232027256220E+04    0.46320E-01   -0.33026E+00  4488   0.129E+00    0.575E-01
RMM:   2    -0.232031895064E+04   -0.46388E-01   -0.46577E-01  6095   0.291E-01    0.496E-01
RMM:   3    -0.232032051823E+04   -0.15676E-02   -0.41884E-02  5647   0.109E-01    0.261E-01
RMM:   4    -0.232032014921E+04    0.36902E-03   -0.45538E-03  4883   0.231E-02    0.136E-01
RMM:   5    -0.232032003034E+04    0.11886E-03   -0.45337E-04  3657   0.122E-02    0.122E-01
RMM:   6    -0.232031989555E+04    0.13479E-03   -0.38333E-04  4073   0.114E-02    0.673E-02
RMM:   7    -0.232031986420E+04    0.31354E-04   -0.16422E-04  3445   0.953E-03    0.176E-02
RMM:   8    -0.232031986190E+04    0.22969E-05   -0.20914E-05  2935   0.497E-03
  37 F= -.23411952E+04 E0= -.23411952E+04  d E =-.279373E-02  mag=     7.0000
       N       E                     dE             d eps       ncg     rms          rms(c)
DAV:   1    -0.232031761209E+04    0.22521E-02   -0.28601E-01  4544   0.392E-01    0.168E-01
RMM:   2    -0.232032100003E+04   -0.33879E-02   -0.34524E-02  6118   0.840E-02    0.126E-01
RMM:   3    -0.232032114548E+04   -0.14545E-03   -0.30666E-03  4092   0.318E-02    0.850E-02
RMM:   4    -0.232032109508E+04    0.50402E-04   -0.34840E-04  3031   0.810E-03    0.404E-02
RMM:   5    -0.232032108323E+04    0.11851E-04   -0.50357E-05  2938   0.518E-03    0.350E-02
RMM:   6    -0.232032107305E+04    0.10183E-04   -0.37548E-05  2930   0.483E-03    0.186E-02
RMM:   7    -0.232032107046E+04    0.25873E-05   -0.11596E-05  2921   0.381E-03
  38 F= -.23411965E+04 E0= -.23411965E+04  d E =-.134020E-02  mag=     7.0000
       N       E                     dE             d eps       ncg     rms          rms(c)
DAV:   1    -0.232031105897E+04    0.10014E-01   -0.87459E-01  4492   0.685E-01    0.294E-01
RMM:   2    -0.232032146412E+04   -0.10405E-01   -0.10586E-01  6112   0.146E-01    0.227E-01
RMM:   3    -0.232032190617E+04   -0.44205E-03   -0.94935E-03  5418   0.550E-02    0.153E-01
RMM:   4    -0.232032173498E+04    0.17119E-03   -0.10766E-03  3655   0.129E-02    0.725E-02
RMM:   5    -0.232032170085E+04    0.34127E-04   -0.15258E-04  3055   0.812E-03    0.648E-02
RMM:   6    -0.232032166220E+04    0.38654E-04   -0.11764E-04  3120   0.775E-03    0.291E-02
RMM:   7    -0.232032165583E+04    0.63614E-05   -0.31584E-05  2953   0.604E-03
  39 F= -.23411973E+04 E0= -.23411973E+04  d E =-.215407E-02  mag=     7.0000
       N       E                     dE             d eps       ncg     rms          rms(c)
DAV:   1    -0.232031780924E+04    0.38530E-02   -0.42333E-01  4496   0.446E-01    0.197E-01
RMM:   2    -0.232032277144E+04   -0.49622E-02   -0.50349E-02  6239   0.972E-02    0.163E-01
RMM:   3    -0.232032300031E+04   -0.22888E-03   -0.48487E-03  4415   0.366E-02    0.108E-01
RMM:   4    -0.232032290421E+04    0.96107E-04   -0.49691E-04  3085   0.912E-03    0.491E-02
RMM:   5    -0.232032288780E+04    0.16404E-04   -0.68945E-05  2945   0.572E-03    0.413E-02
RMM:   6    -0.232032287632E+04    0.11483E-04   -0.53801E-05  2927   0.536E-03    0.237E-02
RMM:   7    -0.232032287238E+04    0.39467E-05   -0.14669E-05  2927   0.402E-03
  40 F= -.23411987E+04 E0= -.23411987E+04  d E =-.138513E-02  mag=     7.0000
       N       E                     dE             d eps       ncg     rms          rms(c)
DAV:   1    -0.232030625300E+04    0.16623E-01   -0.14376E+00  4492   0.822E-01    0.362E-01
RMM:   2    -0.232032305878E+04   -0.16806E-01   -0.17062E-01  6161   0.177E-01    0.294E-01
RMM:   3    -0.232032388327E+04   -0.82449E-03   -0.16535E-02  5518   0.671E-02    0.199E-01
RMM:   4    -0.232032355940E+04    0.32387E-03   -0.16924E-03  3963   0.154E-02    0.919E-02
RMM:   5    -0.232032350292E+04    0.56486E-04   -0.22214E-04  3156   0.927E-03    0.775E-02
RMM:   6    -0.232032345864E+04    0.44272E-04   -0.18700E-04  3189   0.877E-03    0.427E-02
RMM:   7    -0.232032344540E+04    0.13241E-04   -0.47632E-05  2964   0.654E-03    0.104E-02
RMM:   8    -0.232032344442E+04    0.98530E-06   -0.95647E-06  2907   0.405E-03
  41 F= -.23411996E+04 E0= -.23411996E+04  d E =-.226701E-02  mag=     7.0000
       N       E                     dE             d eps       ncg     rms          rms(c)
DAV:   1    -0.232031696729E+04    0.64781E-02   -0.64381E-01  4492   0.547E-01    0.245E-01
RMM:   2    -0.232032465244E+04   -0.76851E-02   -0.77668E-02  6188   0.120E-01    0.213E-01
RMM:   3    -0.232032491355E+04   -0.26111E-03   -0.71832E-03  4786   0.434E-02    0.130E-01
RMM:   4    -0.232032477821E+04    0.13534E-03   -0.74542E-04  3227   0.104E-02    0.614E-02
RMM:   5    -0.232032475150E+04    0.26702E-04   -0.11570E-04  2992   0.667E-03    0.497E-02
RMM:   6    -0.232032473916E+04    0.12343E-04   -0.87968E-05  2957   0.619E-03    0.336E-02
RMM:   7    -0.232032473087E+04    0.82901E-05   -0.23095E-05  2927   0.471E-03
  42 F= -.23412012E+04 E0= -.23412012E+04  d E =-.159195E-02  mag=     7.0000
       N       E                     dE             d eps       ncg     rms          rms(c)
DAV:   1    -0.232030209466E+04    0.22644E-01   -0.19028E+00  4488   0.942E-01    0.423E-01
RMM:   2    -0.232032490075E+04   -0.22806E-01   -0.23022E-01  6243   0.206E-01    0.375E-01
RMM:   3    -0.232032562450E+04   -0.72375E-03   -0.21513E-02  5628   0.757E-02    0.226E-01
RMM:   4    -0.232032521291E+04    0.41159E-03   -0.22202E-03  4193   0.172E-02    0.106E-01
RMM:   5    -0.232032513749E+04    0.75421E-04   -0.33673E-04  3424   0.105E-02    0.907E-02
RMM:   6    -0.232032508639E+04    0.51102E-04   -0.27454E-04  3408   0.969E-03    0.540E-02
RMM:   7    -0.232032506531E+04    0.21081E-04   -0.63872E-05  2979   0.699E-03    0.119E-02
RMM:   8    -0.232032506418E+04    0.11338E-05   -0.13380E-05  2934   0.414E-03
  43 F= -.23412020E+04 E0= -.23412020E+04  d E =-.245373E-02  mag=     7.0000
       N       E                     dE             d eps       ncg     rms          rms(c)
DAV:   1    -0.232031549692E+04    0.95684E-02   -0.76501E-01  4492   0.641E-01    0.289E-01
RMM:   2    -0.232032608751E+04   -0.10591E-01   -0.10727E-01  6164   0.144E-01    0.257E-01
RMM:   3    -0.232032645105E+04   -0.36354E-03   -0.10177E-02  5275   0.537E-02    0.153E-01
RMM:   4    -0.232032627174E+04    0.17931E-03   -0.10539E-03  3521   0.123E-02    0.714E-02
RMM:   5    -0.232032623598E+04    0.35756E-04   -0.14769E-04  3076   0.786E-03    0.614E-02
RMM:   6    -0.232032621284E+04    0.23143E-04   -0.12503E-04  3072   0.742E-03    0.371E-02
RMM:   7    -0.232032620413E+04    0.87106E-05   -0.32602E-05  2933   0.570E-03
  44 F= -.23412036E+04 E0= -.23412036E+04  d E =-.153701E-02  mag=     7.0000
       N       E                     dE             d eps       ncg     rms          rms(c)
DAV:   1    -0.232031742935E+04    0.87835E-02   -0.62022E-01  4492   0.578E-01    0.263E-01
RMM:   2    -0.232032608098E+04   -0.86516E-02   -0.87623E-02  6241   0.130E-01    0.234E-01
RMM:   3    -0.232032637241E+04   -0.29143E-03   -0.85883E-03  5188   0.510E-02    0.136E-01
RMM:   4    -0.232032623011E+04    0.14230E-03   -0.86933E-04  3342   0.113E-02    0.642E-02
RMM:   5    -0.232032620165E+04    0.28458E-04   -0.12108E-04  3021   0.719E-03    0.554E-02
RMM:   6    -0.232032618324E+04    0.18407E-04   -0.10044E-04  2991   0.680E-03    0.334E-02
RMM:   7    -0.232032617568E+04    0.75603E-05   -0.27808E-05  2930   0.532E-03
  45 F= -.23412039E+04 E0= -.23412039E+04  d E =-.186540E-02  mag=     7.0000
       N       E                     dE             d eps       ncg     rms          rms(c)
DAV:   1    -0.232031949031E+04    0.66929E-02   -0.42621E-01  4496   0.499E-01    0.236E-01
RMM:   2    -0.232032698093E+04   -0.74906E-02   -0.75720E-02  6340   0.118E-01    0.220E-01
RMM:   3    -0.232032727479E+04   -0.29386E-03   -0.76947E-03  5005   0.458E-02    0.118E-01
RMM:   4    -0.232032718029E+04    0.94499E-04   -0.78983E-04  3218   0.104E-02    0.600E-02
RMM:   5    -0.232032716182E+04    0.18469E-04   -0.88956E-05  2952   0.601E-03    0.553E-02
RMM:   6    -0.232032713572E+04    0.26099E-04   -0.74969E-05  2938   0.593E-03    0.247E-02
RMM:   7    -0.232032713306E+04    0.26629E-05   -0.25050E-05  2934   0.478E-03
  46 F= -.23412051E+04 E0= -.23412051E+04  d E =-.115778E-02  mag=     7.0000
       N       E                     dE             d eps       ncg     rms          rms(c)
DAV:   1    -0.232032157025E+04    0.55655E-02   -0.31786E-01  4512   0.431E-01    0.203E-01
RMM:   2    -0.232032714670E+04   -0.55765E-02   -0.56421E-02  6363   0.102E-01    0.188E-01
RMM:   3    -0.232032737433E+04   -0.22763E-03   -0.57162E-03  4589   0.396E-02    0.102E-01
RMM:   4    -0.232032730387E+04    0.70453E-04   -0.58732E-04  3125   0.932E-03    0.519E-02
RMM:   5    -0.232032728984E+04    0.14038E-04   -0.67533E-05  2933   0.542E-03    0.476E-02
RMM:   6    -0.232032727032E+04    0.19520E-04   -0.56786E-05  2930   0.526E-03    0.215E-02
RMM:   7    -0.232032726800E+04    0.23136E-05   -0.18621E-05  2934   0.420E-03
  47 F= -.23412054E+04 E0= -.23412054E+04  d E =-.146268E-02  mag=     7.0000
       N       E                     dE             d eps       ncg     rms          rms(c)
DAV:   1    -0.232032095961E+04    0.63107E-02   -0.36496E-01  4496   0.513E-01    0.236E-01
RMM:   2    -0.232032806494E+04   -0.71053E-02   -0.72186E-02  6152   0.120E-01    0.207E-01
RMM:   3    -0.232032838169E+04   -0.31675E-03   -0.72302E-03  5170   0.488E-02    0.118E-01
RMM:   4    -0.232032828158E+04    0.10011E-03   -0.76888E-04  3303   0.109E-02    0.570E-02
RMM:   5    -0.232032826261E+04    0.18969E-04   -0.88044E-05  2954   0.640E-03    0.529E-02
RMM:   6    -0.232032823570E+04    0.26908E-04   -0.67916E-05  2940   0.618E-03    0.234E-02
RMM:   7    -0.232032823219E+04    0.35141E-05   -0.27027E-05  2942   0.536E-03
  48 F= -.23412064E+04 E0= -.23412064E+04  d E =-.105418E-02  mag=     7.0000
       N       E                     dE             d eps       ncg     rms          rms(c)
DAV:   1    -0.232032638581E+04    0.18499E-02   -0.94376E-02  4608   0.261E-01    0.121E-01
RMM:   2    -0.232032824151E+04   -0.18557E-02   -0.18849E-02  6296   0.629E-02    0.107E-01
RMM:   3    -0.232032832100E+04   -0.79491E-04   -0.18837E-03  3590   0.249E-02    0.608E-02
RMM:   4    -0.232032829566E+04    0.25344E-04   -0.20132E-04  3012   0.651E-03    0.294E-02
RMM:   5    -0.232032829074E+04    0.49142E-05   -0.24652E-05  2908   0.368E-03
  49 F= -.23412065E+04 E0= -.23412065E+04  d E =-.115690E-02  mag=     7.0000
       N       E                     dE             d eps       ncg     rms          rms(c)
DAV:   1    -0.232031979420E+04    0.85015E-02   -0.40918E-01  4496   0.510E-01    0.243E-01
RMM:   2    -0.232032896136E+04   -0.91672E-02   -0.92283E-02  6252   0.125E-01    0.230E-01
RMM:   3    -0.232032931596E+04   -0.35460E-03   -0.87557E-03  5083   0.482E-02    0.115E-01
RMM:   4    -0.232032924459E+04    0.71367E-04   -0.94837E-04  3217   0.109E-02    0.575E-02
RMM:   5    -0.232032921984E+04    0.24749E-04   -0.69655E-05  2938   0.573E-03    0.478E-02
RMM:   6    -0.232032920958E+04    0.10260E-04   -0.65117E-05  2928   0.543E-03    0.367E-02
RMM:   7    -0.232032919971E+04    0.98742E-05   -0.36864E-05  2924   0.499E-03
  50 F= -.23412076E+04 E0= -.23412076E+04  d E =-.103853E-02  mag=     7.0000
       N       E                     dE             d eps       ncg     rms          rms(c)
DAV:   1    -0.232030488631E+04    0.24323E-01   -0.10679E+00  4488   0.822E-01    0.398E-01
RMM:   2    -0.232032890639E+04   -0.24020E-01   -0.24199E-01  6315   0.203E-01    0.377E-01
RMM:   3    -0.232032982990E+04   -0.92351E-03   -0.22937E-02  5682   0.785E-02    0.193E-01
RMM:   4    -0.232032962312E+04    0.20678E-03   -0.24886E-03  4024   0.172E-02    0.937E-02
RMM:   5    -0.232032956789E+04    0.55228E-04   -0.18404E-04  3036   0.822E-03    0.831E-02
RMM:   6    -0.232032951446E+04    0.53436E-04   -0.15750E-04  3071   0.772E-03    0.496E-02
RMM:   7    -0.232032949770E+04    0.16755E-04   -0.10086E-04  3082   0.762E-03    0.116E-02
RMM:   8    -0.232032949693E+04    0.76799E-06   -0.12705E-05  2913   0.473E-03
  51 F= -.23412081E+04 E0= -.23412081E+04  d E =-.153135E-02  mag=     7.0000
       N       E                     dE             d eps       ncg     rms          rms(c)
DAV:   1    -0.232032662217E+04    0.28755E-02   -0.15185E-01  4544   0.304E-01    0.150E-01
RMM:   2    -0.232033007068E+04   -0.34485E-02   -0.34588E-02  6358   0.756E-02    0.147E-01
RMM:   3    -0.232033017820E+04   -0.10752E-03   -0.32369E-03  3590   0.283E-02    0.692E-02
RMM:   4    -0.232033015913E+04    0.19074E-04   -0.36127E-04  3032   0.709E-03    0.332E-02
RMM:   5    -0.232033015132E+04    0.78105E-05   -0.22811E-05  2885   0.324E-03
  52 F= -.23412088E+04 E0= -.23412088E+04  d E =-.715555E-03  mag=     7.0000
       N       E                     dE             d eps       ncg     rms          rms(c)
DAV:   1    -0.232029989907E+04    0.30260E-01   -0.13640E+00  4488   0.912E-01    0.439E-01
RMM:   2    -0.232033059185E+04   -0.30693E-01   -0.30848E-01  6342   0.225E-01    0.418E-01
RMM:   3    -0.232033179666E+04   -0.12048E-02   -0.29561E-02  5741   0.846E-02    0.206E-01
RMM:   4    -0.232033159965E+04    0.19700E-03   -0.31947E-03  4001   0.182E-02    0.102E-01
RMM:   5    -0.232033150855E+04    0.91104E-04   -0.19326E-04  3094   0.849E-03    0.804E-02
RMM:   6    -0.232033149215E+04    0.16401E-04   -0.21123E-04  3214   0.822E-03    0.733E-02
RMM:   7    -0.232033145012E+04    0.42034E-04   -0.12646E-04  3039   0.790E-03    0.138E-02
RMM:   8    -0.232033144873E+04    0.13861E-05   -0.15122E-05  2916   0.460E-03
  53 F= -.23412102E+04 E0= -.23412102E+04  d E =-.217769E-02  mag=     7.0000
       N       E                     dE             d eps       ncg     rms          rms(c)
DAV:   1    -0.232020427352E+04    0.12718E+00   -0.54648E+00  4488   0.182E+00    0.893E-01
RMM:   2    -0.232032791725E+04   -0.12364E+00   -0.12438E+00  6279   0.451E-01    0.850E-01
RMM:   3    -0.232033283858E+04   -0.49213E-02   -0.12218E-01  5910   0.168E-01    0.429E-01
RMM:   4    -0.232033190197E+04    0.93661E-03   -0.12824E-02  5277   0.363E-02    0.207E-01
RMM:   5    -0.232033160296E+04    0.29901E-03   -0.82443E-04  3922   0.150E-02    0.175E-01
RMM:   6    -0.232033138766E+04    0.21530E-03   -0.73379E-04  4275   0.134E-02    0.122E-01
RMM:   7    -0.232033127837E+04    0.10930E-03   -0.52238E-04  4249   0.137E-02    0.275E-02
RMM:   8    -0.232033127193E+04    0.64386E-05   -0.53974E-05  2952   0.608E-03
  54 F= -.23412103E+04 E0= -.23412103E+04  d E =-.224120E-02  mag=     7.0000
       N       E                     dE             d eps       ncg     rms          rms(c)
DAV:   1    -0.232030763538E+04    0.23643E-01   -0.10506E+00  4488   0.796E-01    0.391E-01
RMM:   2    -0.232033126754E+04   -0.23632E-01   -0.23641E-01  6356   0.197E-01    0.388E-01
RMM:   3    -0.232033203003E+04   -0.76248E-03   -0.22975E-02  5613   0.759E-02    0.181E-01
RMM:   4    -0.232033190251E+04    0.12752E-03   -0.24642E-03  3733   0.161E-02    0.898E-02
RMM:   5    -0.232033185181E+04    0.50697E-04   -0.16044E-04  2994   0.724E-03    0.813E-02
RMM:   6    -0.232033179376E+04    0.58049E-04   -0.12083E-04  2997   0.669E-03    0.477E-02
RMM:   7    -0.232033178001E+04    0.13753E-04   -0.12336E-04  3060   0.744E-03    0.118E-02
RMM:   8    -0.232033177937E+04    0.64509E-06   -0.12611E-05  2917   0.445E-03
  55 F= -.23412107E+04 E0= -.23412107E+04  d E =-.265843E-02  mag=     7.0000
       N       E                     dE             d eps       ncg     rms          rms(c)
DAV:   1    -0.232031561313E+04    0.16167E-01   -0.77115E-01  4488   0.688E-01    0.334E-01
RMM:   2    -0.232033268837E+04   -0.17075E-01   -0.17212E-01  6194   0.171E-01    0.308E-01
RMM:   3    -0.232033343208E+04   -0.74371E-03   -0.16636E-02  5504   0.687E-02    0.157E-01
RMM:   4    -0.232033331634E+04    0.11574E-03   -0.17986E-03  3607   0.144E-02    0.757E-02
RMM:   5    -0.232033327371E+04    0.42631E-04   -0.11545E-04  2958   0.688E-03    0.655E-02
RMM:   6    -0.232033324085E+04    0.32859E-04   -0.10302E-04  2981   0.640E-03    0.449E-02
RMM:   7    -0.232033322424E+04    0.16610E-04   -0.77641E-05  2982   0.669E-03    0.918E-03
RMM:   8    -0.232033322378E+04    0.45571E-06   -0.10044E-05  2909   0.423E-03
  56 F= -.23412123E+04 E0= -.23412123E+04  d E =-.157457E-02  mag=     7.0000
       N       E                     dE             d eps       ncg     rms          rms(c)
DAV:   1    -0.232030749566E+04    0.25729E-01   -0.11409E+00  4488   0.836E-01    0.408E-01
RMM:   2    -0.232033287643E+04   -0.25381E-01   -0.25563E-01  6123   0.208E-01    0.383E-01
RMM:   3    -0.232033389886E+04   -0.10224E-02   -0.24673E-02  5672   0.798E-02    0.191E-01
RMM:   4    -0.232033373663E+04    0.16223E-03   -0.26843E-03  4197   0.172E-02    0.921E-02
RMM:   5    -0.232033367374E+04    0.62891E-04   -0.16621E-04  3015   0.795E-03    0.800E-02
RMM:   6    -0.232033362636E+04    0.47386E-04   -0.15174E-04  3089   0.739E-03    0.552E-02
RMM:   7    -0.232033360219E+04    0.24165E-04   -0.11564E-04  3131   0.782E-03    0.115E-02
RMM:   8    -0.232033360130E+04    0.89561E-06   -0.14120E-05  2916   0.467E-03
  57 F= -.23412128E+04 E0= -.23412128E+04  d E =-.208509E-02  mag=     7.0000
       N       E                     dE             d eps       ncg     rms          rms(c)
DAV:   1    -0.232032546884E+04    0.81334E-02   -0.41694E-01  4528   0.525E-01    0.241E-01
RMM:   2    -0.232033395561E+04   -0.84868E-02   -0.86080E-02  6123   0.126E-01    0.208E-01
RMM:   3    -0.232033440267E+04   -0.44706E-03   -0.85050E-03  5007   0.493E-02    0.114E-01
RMM:   4    -0.232033434125E+04    0.61419E-04   -0.91030E-04  3209   0.109E-02    0.537E-02
RMM:   5    -0.232033431883E+04    0.22423E-04   -0.64231E-05  2938   0.556E-03    0.465E-02
RMM:   6    -0.232033430252E+04    0.16309E-04   -0.56821E-05  2934   0.517E-03    0.322E-02
RMM:   7    -0.232033429382E+04    0.87010E-05   -0.37466E-05  2919   0.523E-03
  58 F= -.23412136E+04 E0= -.23412136E+04  d E =-.821778E-03  mag=     7.0000
       N       E                     dE             d eps       ncg     rms          rms(c)
DAV:   1    -0.232032898204E+04    0.53205E-02   -0.24991E-01  4560   0.407E-01    0.187E-01
RMM:   2    -0.232033406925E+04   -0.50872E-02   -0.51715E-02  6344   0.993E-02    0.160E-01
RMM:   3    -0.232033435741E+04   -0.28816E-03   -0.52392E-03  4510   0.398E-02    0.891E-02
RMM:   4    -0.232033431997E+04    0.37438E-04   -0.55032E-04  3056   0.898E-03    0.419E-02
RMM:   5    -0.232033430721E+04    0.12757E-04   -0.40432E-05  2929   0.460E-03    0.368E-02
RMM:   6    -0.232033429641E+04    0.10800E-04   -0.34091E-05  2913   0.418E-03    0.240E-02
RMM:   7    -0.232033429144E+04    0.49704E-05   -0.22577E-05  2915   0.416E-03
  59 F= -.23412137E+04 E0= -.23412137E+04  d E =-.913600E-03  mag=     7.0000
       N       E                     dE             d eps       ncg     rms          rms(c)
DAV:   1    -0.232032977123E+04    0.45252E-02   -0.26210E-01  4512   0.436E-01    0.184E-01
RMM:   2    -0.232033462755E+04   -0.48563E-02   -0.49660E-02  6252   0.997E-02    0.144E-01
RMM:   3    -0.232033495594E+04   -0.32839E-03   -0.51946E-03  4488   0.413E-02    0.876E-02
RMM:   4    -0.232033491863E+04    0.37307E-04   -0.52766E-04  3065   0.923E-03    0.424E-02
RMM:   5    -0.232033490467E+04    0.13964E-04   -0.42597E-05  2932   0.508E-03    0.351E-02
RMM:   6    -0.232033489706E+04    0.76123E-05   -0.38349E-05  2917   0.469E-03
  60 F= -.23412143E+04 E0= -.23412143E+04  d E =-.617524E-03  mag=     7.0000
       N       E                     dE             d eps       ncg     rms          rms(c)
DAV:   1    -0.232033246680E+04    0.24379E-02   -0.12794E-01  4592   0.305E-01    0.129E-01
RMM:   2    -0.232033485811E+04   -0.23913E-02   -0.24574E-02  6250   0.695E-02    0.941E-02
RMM:   3    -0.232033502235E+04   -0.16424E-03   -0.24432E-03  3533   0.270E-02    0.612E-02
RMM:   4    -0.232033500407E+04    0.18285E-04   -0.25688E-04  3008   0.685E-03    0.314E-02
RMM:   5    -0.232033499810E+04    0.59673E-05   -0.22229E-05  2919   0.360E-03
  61 F= -.23412144E+04 E0= -.23412144E+04  d E =-.724496E-03  mag=     7.0000
       N       E                     dE             d eps       ncg     rms          rms(c)
DAV:   1    -0.232033320798E+04    0.17961E-02   -0.16447E-01  4512   0.375E-01    0.140E-01
RMM:   2    -0.232033549592E+04   -0.22879E-02   -0.23740E-02  5987   0.771E-02    0.991E-02
RMM:   3    -0.232033563649E+04   -0.14057E-03   -0.23992E-03  3977   0.314E-02    0.720E-02
RMM:   4    -0.232033560207E+04    0.34415E-04   -0.25316E-04  3009   0.781E-03    0.349E-02
RMM:   5    -0.232033558996E+04    0.12114E-04   -0.41792E-05  2942   0.540E-03    0.265E-02
RMM:   6    -0.232033558771E+04    0.22442E-05   -0.32519E-05  2911   0.528E-03
  62 F= -.23412149E+04 E0= -.23412149E+04  d E =-.495127E-03  mag=     7.0000
       N       E                     dE             d eps       ncg     rms          rms(c)
DAV:   1    -0.232033523041E+04    0.35955E-03   -0.27330E-02  4808   0.153E-01    0.586E-02
RMM:   2    -0.232033561136E+04   -0.38095E-03   -0.40217E-03  6109   0.331E-02    0.344E-02
RMM:   3    -0.232033564035E+04   -0.28991E-04   -0.42512E-04  2982   0.133E-02    0.247E-02
RMM:   4    -0.232033563793E+04    0.24220E-05   -0.43000E-05  2959   0.351E-03
  63 F= -.23412149E+04 E0= -.23412149E+04  d E =-.506062E-03  mag=     7.0000
       N       E                     dE             d eps       ncg     rms          rms(c)
DAV:   1    -0.232033381089E+04    0.18295E-02   -0.18190E-01  4496   0.385E-01    0.132E-01
RMM:   2    -0.232033603607E+04   -0.22252E-02   -0.22958E-02  5890   0.751E-02    0.953E-02
RMM:   3    -0.232033616662E+04   -0.13055E-03   -0.22591E-03  3959   0.317E-02    0.672E-02
RMM:   4    -0.232033614091E+04    0.25701E-04   -0.24076E-04  3011   0.744E-03    0.344E-02
RMM:   5    -0.232033613194E+04    0.89705E-05   -0.36803E-05  2924   0.500E-03
  64 F= -.23412154E+04 E0= -.23412154E+04  d E =-.440309E-03  mag=     7.0000
       N       E                     dE             d eps       ncg     rms          rms(c)
DAV:   1    -0.232033464992E+04    0.14910E-02   -0.12364E-01  4528   0.317E-01    0.111E-01
RMM:   2    -0.232033616840E+04   -0.15185E-02   -0.15681E-02  6235   0.642E-02    0.857E-02
RMM:   3    -0.232033626548E+04   -0.97073E-04   -0.16812E-03  3576   0.253E-02    0.638E-02
RMM:   4    -0.232033624328E+04    0.22201E-04   -0.17300E-04  2996   0.674E-03    0.315E-02
RMM:   5    -0.232033624056E+04    0.27177E-05   -0.28854E-05  2945   0.400E-03
  65 F= -.23412154E+04 E0= -.23412154E+04  d E =-.503022E-03  mag=     7.0000
       N       E                     dE             d eps       ncg     rms          rms(c)
DAV:   1    -0.232033500054E+04    0.12427E-02   -0.14291E-01  4496   0.345E-01    0.117E-01
RMM:   2    -0.232033657624E+04   -0.15757E-02   -0.16391E-02  6061   0.672E-02    0.808E-02
RMM:   3    -0.232033668996E+04   -0.11372E-03   -0.17508E-03  3805   0.280E-02    0.617E-02
RMM:   4    -0.232033666576E+04    0.24196E-04   -0.17490E-04  2982   0.694E-03    0.318E-02
RMM:   5    -0.232033666115E+04    0.46152E-05   -0.31182E-05  2939   0.441E-03
  66 F= -.23412159E+04 E0= -.23412159E+04  d E =-.458174E-03  mag=     7.0000
       N       E                     dE             d eps       ncg     rms          rms(c)
DAV:   1    -0.232033452071E+04    0.21451E-02   -0.19273E-01  4496   0.399E-01    0.136E-01
RMM:   2    -0.232033664476E+04   -0.21240E-02   -0.22086E-02  6065   0.780E-02    0.961E-02
RMM:   3    -0.232033678834E+04   -0.14358E-03   -0.23117E-03  4001   0.324E-02    0.731E-02
RMM:   4    -0.232033675657E+04    0.31772E-04   -0.23961E-04  3005   0.790E-03    0.361E-02
RMM:   5    -0.232033675048E+04    0.60882E-05   -0.41706E-05  2936   0.510E-03
  67 F= -.23412160E+04 E0= -.23412160E+04  d E =-.589198E-03  mag=     7.0000
       N       E                     dE             d eps       ncg     rms          rms(c)
DAV:   1    -0.232033501006E+04    0.17465E-02   -0.20540E-01  4496   0.403E-01    0.135E-01
RMM:   2    -0.232033709651E+04   -0.20865E-02   -0.21677E-02  6103   0.795E-02    0.953E-02
RMM:   3    -0.232033724545E+04   -0.14894E-03   -0.23546E-03  4087   0.326E-02    0.734E-02
RMM:   4    -0.232033721219E+04    0.33262E-04   -0.23479E-04  3003   0.804E-03    0.388E-02
RMM:   5    -0.232033720667E+04    0.55199E-05   -0.43857E-05  2949   0.514E-03
  68 F= -.23412165E+04 E0= -.23412165E+04  d E =-.496976E-03  mag=     7.0000
       N       E                     dE             d eps       ncg     rms          rms(c)
DAV:   1    -0.232033656829E+04    0.64390E-03   -0.60789E-02  4576   0.219E-01    0.747E-02
RMM:   2    -0.232033719720E+04   -0.62891E-03   -0.64980E-03  6212   0.441E-02    0.622E-02
RMM:   3    -0.232033723176E+04   -0.34562E-04   -0.72602E-04  3201   0.172E-02    0.439E-02
RMM:   4    -0.232033721909E+04    0.12673E-04   -0.72380E-05  2966   0.509E-03    0.227E-02
RMM:   5    -0.232033721809E+04    0.99775E-06   -0.18244E-05  2930   0.327E-03
  69 F= -.23412166E+04 E0= -.23412166E+04  d E =-.529883E-03  mag=     7.0000
       N       E                     dE             d eps       ncg     rms          rms(c)
DAV:   1    -0.232033621016E+04    0.10089E-02   -0.15446E-01  4496   0.355E-01    0.120E-01
RMM:   2    -0.232033756431E+04   -0.13541E-02   -0.14178E-02  5937   0.679E-02    0.744E-02
RMM:   3    -0.232033764675E+04   -0.82441E-04   -0.13848E-03  3889   0.278E-02    0.631E-02
RMM:   4    -0.232033761780E+04    0.28954E-04   -0.14972E-04  2988   0.725E-03    0.297E-02
RMM:   5    -0.232033760914E+04    0.86567E-05   -0.32221E-05  2929   0.512E-03
  70 F= -.23412169E+04 E0= -.23412169E+04  d E =-.344373E-03  mag=     7.0000
       N       E                     dE             d eps       ncg     rms          rms(c)
DAV:   1    -0.232033746490E+04    0.15290E-03   -0.17424E-02  4832   0.119E-01    0.440E-02
RMM:   2    -0.232033763571E+04   -0.17082E-03   -0.16793E-03  5770   0.254E-02    0.480E-02
RMM:   3    -0.232033763221E+04    0.35046E-05   -0.19284E-04  2944   0.100E-02    0.261E-02
RMM:   4    -0.232033762733E+04    0.48798E-05   -0.20114E-05  2925   0.345E-03
  71 F= -.23412169E+04 E0= -.23412169E+04  d E =-.346470E-03  mag=     7.0000
       N       E                     dE             d eps       ncg     rms          rms(c)
DAV:   1    -0.232033647968E+04    0.11525E-02   -0.17988E-01  4480   0.380E-01    0.122E-01
RMM:   2    -0.232033804880E+04   -0.15691E-02   -0.16464E-02  5797   0.717E-02    0.711E-02
RMM:   3    -0.232033813566E+04   -0.86854E-04   -0.15185E-03  3895   0.299E-02    0.565E-02
RMM:   4    -0.232033811934E+04    0.16312E-04   -0.16522E-04  3023   0.714E-03    0.349E-02
RMM:   5    -0.232033810915E+04    0.10193E-04   -0.36978E-05  2921   0.522E-03    0.257E-02
RMM:   6    -0.232033810575E+04    0.34007E-05   -0.26435E-05  2911   0.488E-03
  72 F= -.23412173E+04 E0= -.23412173E+04  d E =-.347004E-03  mag=     7.0000
       N       E                     dE             d eps       ncg     rms          rms(c)
DAV:   1    -0.232033795635E+04    0.15280E-03   -0.20675E-02  4736   0.129E-01    0.424E-02
RMM:   2    -0.232033813648E+04   -0.18013E-03   -0.19208E-03  5871   0.260E-02    0.206E-02
RMM:   3    -0.232033814914E+04   -0.12660E-04   -0.20270E-04  2945   0.103E-02    0.128E-02
RMM:   4    -0.232033814944E+04   -0.29850E-06   -0.19444E-05  2935   0.281E-03
  73 F= -.23412173E+04 E0= -.23412173E+04  d E =-.345511E-03  mag=     7.0000
       N       E                     dE             d eps       ncg     rms          rms(c)
DAV:   1    -0.232033698587E+04    0.11633E-02   -0.17003E-01  4480   0.387E-01    0.127E-01
RMM:   2    -0.232033855324E+04   -0.15674E-02   -0.16338E-02  5729   0.732E-02    0.829E-02
RMM:   3    -0.232033864092E+04   -0.87682E-04   -0.16224E-03  3993   0.313E-02    0.686E-02
RMM:   4    -0.232033860741E+04    0.33518E-04   -0.17420E-04  3035   0.754E-03    0.340E-02
RMM:   5    -0.232033860005E+04    0.73590E-05   -0.37097E-05  2936   0.515E-03
  74 F= -.23412175E+04 E0= -.23412175E+04  d E =-.282920E-03  mag=     7.0000
       N       E                     dE             d eps       ncg     rms          rms(c)
DAV:   1    -0.232033858831E+04    0.19102E-04   -0.17899E-03  5408   0.405E-02    0.194E-02
RMM:   2    -0.232033861152E+04   -0.23211E-04   -0.19628E-04  3293   0.921E-03    0.308E-02
RMM:   3    -0.232033860453E+04    0.69906E-05   -0.26845E-05  2788   0.528E-03
  75 F= -.23412175E+04 E0= -.23412175E+04  d E =-.269455E-03  mag=     7.0000
       N       E                     dE             d eps       ncg     rms          rms(c)
DAV:   1    -0.232033762275E+04    0.98876E-03   -0.11586E-01  4496   0.328E-01    0.111E-01
RMM:   2    -0.232033894429E+04   -0.13215E-02   -0.13598E-02  5822   0.640E-02    0.830E-02
RMM:   3    -0.232033900735E+04   -0.63066E-04   -0.12921E-03  3823   0.263E-02    0.588E-02
RMM:   4    -0.232033898140E+04    0.25948E-04   -0.14319E-04  3003   0.671E-03    0.273E-02
RMM:   5    -0.232033897380E+04    0.76073E-05   -0.26799E-05  2916   0.477E-03
  76 F= -.23412178E+04 E0= -.23412178E+04  d E =-.237405E-03  mag=     7.0000
       N       E                     dE             d eps       ncg     rms          rms(c)
DAV:   1    -0.232033894573E+04    0.35672E-04   -0.40085E-03  5320   0.615E-02    0.266E-02
RMM:   2    -0.232033900203E+04   -0.56294E-04   -0.49700E-04  4387   0.141E-02    0.402E-02
RMM:   3    -0.232033899247E+04    0.95591E-05   -0.68561E-05  2901   0.718E-03
  77 F= -.23412178E+04 E0= -.23412178E+04  d E =-.230894E-03  mag=     7.0000
       N       E                     dE             d eps       ncg     rms          rms(c)
DAV:   1    -0.232033794167E+04    0.10604E-02   -0.10578E-01  4480   0.313E-01    0.111E-01
RMM:   2    -0.232033934611E+04   -0.14044E-02   -0.14313E-02  5894   0.627E-02    0.895E-02
RMM:   3    -0.232033940104E+04   -0.54932E-04   -0.13257E-03  3716   0.250E-02    0.576E-02
RMM:   4    -0.232033937654E+04    0.24497E-04   -0.14343E-04  2998   0.646E-03    0.273E-02
RMM:   5    -0.232033936981E+04    0.67323E-05   -0.23981E-05  2917   0.449E-03
  78 F= -.23412180E+04 E0= -.23412180E+04  d E =-.258573E-03  mag=     7.0000
       N       E                     dE             d eps       ncg     rms          rms(c)
DAV:   1    -0.232033917917E+04    0.19737E-03   -0.17876E-02  4544   0.129E-01    0.473E-02
RMM:   2    -0.232033942310E+04   -0.24393E-03   -0.24444E-03  5851   0.279E-02    0.473E-02
RMM:   3    -0.232033942764E+04   -0.45354E-05   -0.25255E-04  2960   0.108E-02    0.280E-02
RMM:   4    -0.232033942264E+04    0.49947E-05   -0.27242E-05  2941   0.359E-03
  79 F= -.23412180E+04 E0= -.23412180E+04  d E =-.261891E-03  mag=     7.0000
       N       E                     dE             d eps       ncg     rms          rms(c)
DAV:   1    -0.232033858493E+04    0.84271E-03   -0.91103E-02  4464   0.286E-01    0.978E-02
RMM:   2    -0.232033977663E+04   -0.11917E-02   -0.12270E-02  5942   0.568E-02    0.631E-02
RMM:   3    -0.232033985029E+04   -0.73661E-04   -0.11813E-03  3589   0.232E-02    0.452E-02
RMM:   4    -0.232033983950E+04    0.10793E-04   -0.11557E-04  2990   0.568E-03    0.268E-02
RMM:   5    -0.232033983210E+04    0.73914E-05   -0.19630E-05  2895   0.401E-03
  80 F= -.23412183E+04 E0= -.23412183E+04  d E =-.245236E-03  mag=     7.0000
       N       E                     dE             d eps       ncg     rms          rms(c)
DAV:   1    -0.232033897711E+04    0.86239E-03   -0.75551E-02  4464   0.260E-01    0.931E-02
RMM:   2    -0.232033999202E+04   -0.10149E-02   -0.10306E-02  6146   0.532E-02    0.792E-02
RMM:   3    -0.232034003953E+04   -0.47512E-04   -0.10413E-03  3373   0.200E-02    0.530E-02
RMM:   4    -0.232034002057E+04    0.18967E-04   -0.10233E-04  2980   0.573E-03    0.256E-02
RMM:   5    -0.232034001806E+04    0.25077E-05   -0.19384E-05  2928   0.334E-03
  81 F= -.23412183E+04 E0= -.23412183E+04  d E =-.280727E-03  mag=     7.0000
       N       E                     dE             d eps       ncg     rms          rms(c)
DAV:   1    -0.232033958067E+04    0.43989E-03   -0.65091E-02  4512   0.236E-01    0.809E-02
RMM:   2    -0.232034039395E+04   -0.81328E-03   -0.82395E-03  6076   0.468E-02    0.695E-02
RMM:   3    -0.232034041989E+04   -0.25939E-04   -0.73030E-04  3243   0.175E-02    0.429E-02
RMM:   4    -0.232034040714E+04    0.12754E-04   -0.83163E-05  2980   0.506E-03    0.210E-02
RMM:   5    -0.232034040327E+04    0.38614E-05   -0.12638E-05  2897   0.334E-03
  82 F= -.23412185E+04 E0= -.23412185E+04  d E =-.239753E-03  mag=     7.0000
       N       E                     dE             d eps       ncg     rms          rms(c)
DAV:   1    -0.232033738471E+04    0.30224E-02   -0.27267E-01  4480   0.483E-01    0.167E-01
RMM:   2    -0.232034080218E+04   -0.34175E-02   -0.34750E-02  6009   0.954E-02    0.135E-01
RMM:   3    -0.232034093040E+04   -0.12821E-03   -0.30520E-03  4419   0.352E-02    0.873E-02
RMM:   4    -0.232034087769E+04    0.52701E-04   -0.34426E-04  3052   0.886E-03    0.399E-02
RMM:   5    -0.232034086191E+04    0.15781E-04   -0.40953E-05  2929   0.582E-03    0.244E-02
RMM:   6    -0.232034086675E+04   -0.48351E-05   -0.42907E-05  2924   0.581E-03
  83 F= -.23412187E+04 E0= -.23412187E+04  d E =-.405141E-03  mag=     7.0000
       N       E                     dE             d eps       ncg     rms          rms(c)
DAV:   1    -0.232034004459E+04    0.81732E-03   -0.11276E-01  4464   0.308E-01    0.107E-01
RMM:   2    -0.232034133313E+04   -0.12885E-02   -0.13216E-02  6139   0.611E-02    0.809E-02
RMM:   3    -0.232034138653E+04   -0.53396E-04   -0.11464E-03  3629   0.211E-02    0.581E-02
RMM:   4    -0.232034136303E+04    0.23497E-04   -0.12802E-04  2982   0.606E-03    0.256E-02
RMM:   5    -0.232034135712E+04    0.59056E-05   -0.17199E-05  2899   0.393E-03
  84 F= -.23412190E+04 E0= -.23412190E+04  d E =-.311621E-03  mag=     7.0000
       N       E                     dE             d eps       ncg     rms          rms(c)
DAV:   1    -0.232033981815E+04    0.15449E-02   -0.16196E-01  4464   0.368E-01    0.127E-01
RMM:   2    -0.232034166582E+04   -0.18477E-02   -0.18889E-02  6065   0.720E-02    0.985E-02
RMM:   3    -0.232034173885E+04   -0.73027E-04   -0.16384E-03  3871   0.261E-02    0.694E-02
RMM:   4    -0.232034170404E+04    0.34810E-04   -0.18419E-04  3002   0.720E-03    0.310E-02
RMM:   5    -0.232034169726E+04    0.67776E-05   -0.27980E-05  2935   0.467E-03
  85 F= -.23412191E+04 E0= -.23412191E+04  d E =-.436676E-03  mag=     7.0000
       N       E                     dE             d eps       ncg     rms          rms(c)
DAV:   1    -0.232034122534E+04    0.47870E-03   -0.10042E-01  4464   0.283E-01    0.993E-02
RMM:   2    -0.232034215755E+04   -0.93221E-03   -0.94173E-03  6087   0.552E-02    0.957E-02
RMM:   3    -0.232034215165E+04    0.58988E-05   -0.85227E-04  3610   0.201E-02    0.584E-02
RMM:   4    -0.232034212618E+04    0.25463E-04   -0.96606E-05  2968   0.611E-03    0.287E-02
RMM:   5    -0.232034212593E+04    0.25640E-06   -0.27123E-05  2937   0.416E-03
  86 F= -.23412194E+04 E0= -.23412194E+04  d E =-.303940E-03  mag=     7.0000
       N       E                     dE             d eps       ncg     rms          rms(c)
DAV:   1    -0.232034183904E+04    0.28715E-03   -0.45568E-02  4512   0.191E-01    0.650E-02
RMM:   2    -0.232034224405E+04   -0.40501E-03   -0.42261E-03  6059   0.374E-02    0.488E-02
RMM:   3    -0.232034225683E+04   -0.12786E-04   -0.37148E-04  3115   0.137E-02    0.372E-02
RMM:   4    -0.232034224517E+04    0.11665E-04   -0.42557E-05  2959   0.437E-03    0.183E-02
RMM:   5    -0.232034224192E+04    0.32454E-05   -0.11546E-05  2900   0.319E-03
  87 F= -.23412195E+04 E0= -.23412195E+04  d E =-.335447E-03  mag=     7.0000
       N       E                     dE             d eps       ncg     rms          rms(c)
DAV:   1    -0.232034176630E+04    0.47887E-03   -0.11816E-01  4480   0.299E-01    0.996E-02
RMM:   2    -0.232034262530E+04   -0.85900E-03   -0.89016E-03  5955   0.555E-02    0.787E-02
RMM:   3    -0.232034263605E+04   -0.10758E-04   -0.74504E-04  3664   0.207E-02    0.592E-02
RMM:   4    -0.232034260768E+04    0.28370E-04   -0.90059E-05  2967   0.618E-03    0.274E-02
RMM:   5    -0.232034260685E+04    0.83129E-06   -0.26793E-05  2931   0.427E-03
  88 F= -.23412197E+04 E0= -.23412197E+04  d E =-.270110E-03  mag=     7.0000
       N       E                     dE             d eps       ncg     rms          rms(c)
DAV:   1    -0.232034246597E+04    0.14171E-03   -0.27937E-02  4576   0.146E-01    0.496E-02
RMM:   2    -0.232034266829E+04   -0.20231E-03   -0.20996E-03  5839   0.285E-02    0.410E-02
RMM:   3    -0.232034267069E+04   -0.24039E-05   -0.19558E-04  2978   0.106E-02    0.297E-02
RMM:   4    -0.232034266366E+04    0.70266E-05   -0.22889E-05  2932   0.368E-03
  89 F= -.23412198E+04 E0= -.23412198E+04  d E =-.280445E-03  mag=     7.0000
       N       E                     dE             d eps       ncg     rms          rms(c)
DAV:   1    -0.232034236995E+04    0.30074E-03   -0.12189E-01  4496   0.308E-01    0.100E-01
RMM:   2    -0.232034303642E+04   -0.66646E-03   -0.71619E-03  5670   0.535E-02    0.628E-02
RMM:   3    -0.232034304504E+04   -0.86229E-05   -0.54149E-04  3745   0.213E-02    0.578E-02
RMM:   4    -0.232034301835E+04    0.26694E-04   -0.81864E-05  2964   0.603E-03    0.287E-02
RMM:   5    -0.232034301386E+04    0.44842E-05   -0.27793E-05  2938   0.461E-03
  90 F= -.23412200E+04 E0= -.23412200E+04  d E =-.262580E-03  mag=     7.0000
       N       E                     dE             d eps       ncg     rms          rms(c)
DAV:   1    -0.232034296112E+04    0.57227E-04   -0.16688E-02  4768   0.114E-01    0.409E-02
RMM:   2    -0.232034306266E+04   -0.10154E-03   -0.10163E-03  5403   0.226E-02    0.430E-02
RMM:   3    -0.232034305365E+04    0.90099E-05   -0.10466E-04  2942   0.871E-03    0.227E-02
RMM:   4    -0.232034304921E+04    0.44362E-05   -0.12915E-05  2921   0.337E-03
  91 F= -.23412200E+04 E0= -.23412200E+04  d E =-.265213E-03  mag=     7.0000
       N       E                     dE             d eps       ncg     rms          rms(c)
DAV:   1    -0.232034276101E+04    0.29264E-03   -0.13629E-01  4496   0.322E-01    0.101E-01
RMM:   2    -0.232034343192E+04   -0.67091E-03   -0.72758E-03  5630   0.547E-02    0.619E-02
RMM:   3    -0.232034343767E+04   -0.57508E-05   -0.54022E-04  3785   0.221E-02    0.575E-02
RMM:   4    -0.232034341299E+04    0.24681E-04   -0.77453E-05  2966   0.606E-03    0.306E-02
RMM:   5    -0.232034340842E+04    0.45749E-05   -0.31186E-05  2941   0.477E-03
  92 F= -.23412203E+04 E0= -.23412203E+04  d E =-.241365E-03  mag=     7.0000
       N       E                     dE             d eps       ncg     rms          rms(c)
DAV:   1    -0.232034337992E+04    0.33075E-04   -0.13403E-02  4792   0.101E-01    0.361E-02
RMM:   2    -0.232034345639E+04   -0.76475E-04   -0.75301E-04  5113   0.199E-02    0.400E-02
RMM:   3    -0.232034344680E+04    0.95921E-05   -0.77326E-05  2930   0.785E-03
  93 F= -.23412203E+04 E0= -.23412203E+04  d E =-.242379E-03  mag=     7.0000
       N       E                     dE             d eps       ncg     rms          rms(c)
DAV:   1    -0.232034319663E+04    0.25976E-03   -0.13343E-01  4496   0.324E-01    0.108E-01
RMM:   2    -0.232034384432E+04   -0.64769E-03   -0.70845E-03  5616   0.557E-02    0.685E-02
RMM:   3    -0.232034384153E+04    0.27912E-05   -0.52158E-04  3798   0.211E-02    0.616E-02
RMM:   4    -0.232034381043E+04    0.31097E-04   -0.79782E-05  2980   0.642E-03    0.298E-02
RMM:   5    -0.232034380564E+04    0.47856E-05   -0.36402E-05  2955   0.523E-03
  94 F= -.23412205E+04 E0= -.23412205E+04  d E =-.222610E-03  mag=     7.0000
       N       E                     dE             d eps       ncg     rms          rms(c)
DAV:   1    -0.232034380419E+04    0.62401E-05   -0.37310E-03  5336   0.548E-02    0.244E-02
RMM:   2    -0.232034383401E+04   -0.29819E-04   -0.23636E-04  3767   0.117E-02    0.386E-02
RMM:   3    -0.232034382121E+04    0.12804E-04   -0.29437E-05  2879   0.600E-03    0.108E-02
RMM:   4    -0.232034382027E+04    0.93121E-06   -0.44518E-06  2791   0.227E-03
  95 F= -.23412205E+04 E0= -.23412205E+04  d E =-.214021E-03  mag=     7.0000
       N       E                     dE             d eps       ncg     rms          rms(c)
DAV:   1    -0.232034349529E+04    0.32591E-03   -0.12340E-01  4496   0.312E-01    0.997E-02
RMM:   2    -0.232034412948E+04   -0.63419E-03   -0.69195E-03  5554   0.537E-02    0.542E-02
RMM:   3    -0.232034412941E+04    0.72134E-07   -0.48482E-04  3842   0.221E-02    0.415E-02
RMM:   4    -0.232034412101E+04    0.83967E-05   -0.74705E-05  3000   0.594E-03
  96 F= -.23412207E+04 E0= -.23412207E+04  d E =-.200538E-03  mag=     7.0000
       N       E                     dE             d eps       ncg     rms          rms(c)
DAV:   1    -0.232034411620E+04    0.13204E-04   -0.13333E-03  5400   0.328E-02    0.169E-02
RMM:   2    -0.232034412588E+04   -0.96781E-05   -0.88600E-05  3091   0.704E-03
  97 F= -.23412207E+04 E0= -.23412207E+04  d E =-.194534E-03  mag=     7.0000
       N       E                     dE             d eps       ncg     rms          rms(c)
DAV:   1    -0.232034398132E+04    0.13489E-03   -0.77352E-02  4496   0.260E-01    0.909E-02
RMM:   2    -0.232034438565E+04   -0.40434E-03   -0.44464E-03  5853   0.471E-02    0.532E-02
RMM:   3    -0.232034439062E+04   -0.49665E-05   -0.34934E-04  3734   0.195E-02    0.502E-02
RMM:   4    -0.232034436783E+04    0.22788E-04   -0.58044E-05  2955   0.583E-03    0.243E-02
RMM:   5    -0.232034436236E+04    0.54671E-05   -0.24232E-05  2927   0.472E-03
  98 F= -.23412209E+04 E0= -.23412209E+04  d E =-.181728E-03  mag=     7.0000
       N       E                     dE             d eps       ncg     rms          rms(c)
DAV:   1    -0.232034436335E+04    0.44794E-05   -0.25840E-04  5304   0.163E-02    0.149E-02
RMM:   2    -0.232034437408E+04   -0.10731E-04   -0.40358E-05  2897   0.443E-03    0.342E-02
RMM:   3    -0.232034436307E+04    0.11017E-04   -0.10231E-05  2549   0.292E-03    0.362E-03
RMM:   4    -0.232034436286E+04    0.20722E-06   -0.12177E-06  1900   0.949E-04
  99 F= -.23412209E+04 E0= -.23412209E+04  d E =-.178928E-03  mag=     7.0000
       N       E                     dE             d eps       ncg     rms          rms(c)
DAV:   1    -0.232034421796E+04    0.14511E-03   -0.57355E-02  4480   0.223E-01    0.750E-02
RMM:   2    -0.232034455958E+04   -0.34162E-03   -0.37111E-03  5433   0.394E-02    0.419E-02
RMM:   3    -0.232034456186E+04   -0.22794E-05   -0.27283E-04  3382   0.162E-02    0.369E-02
RMM:   4    -0.232034455102E+04    0.10839E-04   -0.41319E-05  2950   0.477E-03    0.204E-02
RMM:   5    -0.232034454710E+04    0.39147E-05   -0.15643E-05  2903   0.383E-03
 100 F= -.23412210E+04 E0= -.23412210E+04  d E =-.119678E-03  mag=     7.0000
       N       E                     dE             d eps       ncg     rms          rms(c)
DAV:   1    -0.232034454888E+04    0.21372E-05   -0.96802E-05  5288   0.104E-02    0.123E-02
RMM:   2    -0.232034455598E+04   -0.71021E-05   -0.23682E-05  2729   0.298E-03
 101 F= -.23412210E+04 E0= -.23412210E+04  d E =-.125821E-03  mag=     7.0000
       N       E                     dE             d eps       ncg     rms          rms(c)
DAV:   1    -0.232034443565E+04    0.11323E-03   -0.49977E-02  4480   0.212E-01    0.727E-02
RMM:   2    -0.232034475326E+04   -0.31762E-03   -0.34215E-03  5692   0.382E-02    0.460E-02
RMM:   3    -0.232034475810E+04   -0.48404E-05   -0.27494E-04  3435   0.160E-02    0.418E-02
RMM:   4    -0.232034474257E+04    0.15538E-04   -0.39160E-05  2939   0.468E-03    0.181E-02
RMM:   5    -0.232034473878E+04    0.37828E-05   -0.14371E-05  2903   0.364E-03
 102 F= -.23412211E+04 E0= -.23412211E+04  d E =-.108964E-03  mag=     7.0000
       N       E                     dE             d eps       ncg     rms          rms(c)
DAV:   1    -0.232034474195E+04    0.61409E-06   -0.20624E-04  5256   0.144E-02    0.126E-02
RMM:   2    -0.232034474962E+04   -0.76718E-05   -0.31270E-05  2826   0.382E-03
 103 F= -.23412211E+04 E0= -.23412211E+04  d E =-.114817E-03  mag=     7.0000
       N       E                     dE             d eps       ncg     rms          rms(c)
DAV:   1    -0.232034457890E+04    0.16306E-03   -0.51089E-02  4496   0.215E-01    0.724E-02
RMM:   2    -0.232034493675E+04   -0.35786E-03   -0.37801E-03  5796   0.394E-02    0.483E-02
RMM:   3    -0.232034494428E+04   -0.75214E-05   -0.30529E-04  3527   0.168E-02    0.419E-02
RMM:   4    -0.232034492893E+04    0.15341E-04   -0.42402E-05  2954   0.467E-03    0.179E-02
RMM:   5    -0.232034492552E+04    0.34141E-05   -0.12826E-05  2898   0.352E-03
 104 F= -.23412212E+04 E0= -.23412212E+04  d E =-.118053E-03  mag=     7.0000
       N       E                     dE             d eps       ncg     rms          rms(c)
DAV:   1    -0.232034490490E+04    0.24033E-04   -0.56282E-03  4888   0.715E-02    0.267E-02
RMM:   2    -0.232034494914E+04   -0.44237E-04   -0.42806E-04  4530   0.148E-02    0.289E-02
RMM:   3    -0.232034494531E+04    0.38262E-05   -0.45144E-05  2905   0.682E-03
 105 F= -.23412212E+04 E0= -.23412212E+04  d E =-.118309E-03  mag=     7.0000
       N       E                     dE             d eps       ncg     rms          rms(c)
DAV:   1    -0.232034484427E+04    0.10487E-03   -0.38732E-02  4496   0.180E-01    0.616E-02
RMM:   2    -0.232034515186E+04   -0.30759E-03   -0.31593E-03  5824   0.334E-02    0.524E-02
RMM:   3    -0.232034515036E+04    0.15036E-05   -0.26083E-04  3045   0.121E-02    0.357E-02
RMM:   4    -0.232034513989E+04    0.10465E-04   -0.34964E-05  2956   0.397E-03    0.168E-02
RMM:   5    -0.232034513967E+04    0.22171E-06   -0.11025E-05  2906   0.282E-03
 106 F= -.23412213E+04 E0= -.23412213E+04  d E =-.120043E-03  mag=     7.0000
       N       E                     dE             d eps       ncg     rms          rms(c)
DAV:   1    -0.232034500463E+04    0.13526E-03   -0.28042E-02  4512   0.153E-01    0.511E-02
RMM:   2    -0.232034522098E+04   -0.21635E-03   -0.22654E-03  5853   0.288E-02    0.373E-02
RMM:   3    -0.232034522569E+04   -0.47058E-05   -0.18756E-04  2970   0.109E-02    0.297E-02
RMM:   4    -0.232034521835E+04    0.73410E-05   -0.25116E-05  2940   0.349E-03
 107 F= -.23412213E+04 E0= -.23412213E+04  d E =-.135092E-03  mag=     7.0000
       N       E                     dE             d eps       ncg     rms          rms(c)
DAV:   1    -0.232034518014E+04    0.45554E-04   -0.30472E-02  4496   0.160E-01    0.530E-02
RMM:   2    -0.232034542114E+04   -0.24101E-03   -0.25255E-03  5797   0.294E-02    0.364E-02
RMM:   3    -0.232034542763E+04   -0.64889E-05   -0.21054E-04  3019   0.116E-02    0.294E-02
RMM:   4    -0.232034542088E+04    0.67561E-05   -0.29168E-05  2941   0.347E-03
 108 F= -.23412215E+04 E0= -.23412215E+04  d E =-.127238E-03  mag=     7.0000
       N       E                     dE             d eps       ncg     rms          rms(c)
DAV:   1    -0.232034523183E+04    0.19580E-03   -0.41213E-02  4496   0.186E-01    0.616E-02
RMM:   2    -0.232034555406E+04   -0.32222E-03   -0.34031E-03  5669   0.338E-02    0.402E-02
[...]
DAV:   1    -0.232036099553E+04   -0.16161E-04   -0.41038E-03  4488   0.630E-02    0.209E-02
RMM:   2    -0.232036102180E+04   -0.26272E-04   -0.27851E-04  4201   0.121E-02    0.157E-02
RMM:   3    -0.232036102235E+04   -0.54522E-06   -0.26844E-05  2831   0.599E-03
 244 F= -.23412297E+04 E0= -.23412297E+04  d E =-.344760E-04  mag=     7.0000
       N       E                     dE             d eps       ncg     rms          rms(c)
DAV:   1    -0.232036102178E+04    0.20984E-07   -0.24662E-03  4540   0.489E-02    0.175E-02
RMM:   2    -0.232036103678E+04   -0.15002E-04   -0.16888E-04  3535   0.962E-03    0.123E-02
RMM:   3    -0.232036103726E+04   -0.47412E-06   -0.17862E-05  2842   0.497E-03
 245 F= -.23412297E+04 E0= -.23412297E+04  d E =-.431916E-04  mag=     7.0000
       N       E                     dE             d eps       ncg     rms          rms(c)
DAV:   1    -0.232036105249E+04   -0.15711E-04   -0.39760E-03  4472   0.618E-02    0.209E-02
RMM:   2    -0.232036107921E+04   -0.26716E-04   -0.28385E-04  4110   0.119E-02    0.161E-02
RMM:   3    -0.232036107979E+04   -0.58008E-06   -0.28124E-05  2863   0.585E-03
 246 F= -.23412297E+04 E0= -.23412297E+04  d E =-.263846E-04  mag=     7.0000
       N       E                     dE             d eps       ncg     rms          rms(c)
DAV:   1    -0.232036108308E+04   -0.38723E-05   -0.13192E-03  4760   0.357E-02    0.137E-02
RMM:   2    -0.232036109150E+04   -0.84201E-05   -0.95064E-05  3159   0.723E-03
 247 F= -.23412297E+04 E0= -.23412297E+04  d E =-.287660E-04  mag=     7.0000
       N       E                     dE             d eps       ncg     rms          rms(c)
DAV:   1    -0.232036111908E+04   -0.35999E-04   -0.44930E-03  4488   0.659E-02    0.230E-02
RMM:   2    -0.232036115429E+04   -0.35212E-04   -0.35052E-04  4209   0.140E-02    0.243E-02
RMM:   3    -0.232036115183E+04    0.24651E-05   -0.35197E-05  2893   0.638E-03
 248 F= -.23412298E+04 E0= -.23412298E+04  d E =-.300885E-04  mag=     7.0000
       N       E                     dE             d eps       ncg     rms          rms(c)
DAV:   1    -0.232036116271E+04   -0.84156E-05   -0.19531E-03  4576   0.433E-02    0.161E-02
RMM:   2    -0.232036117561E+04   -0.12901E-04   -0.14071E-04  3345   0.881E-03    0.134E-02
RMM:   3    -0.232036117595E+04   -0.34399E-06   -0.17164E-05  2804   0.477E-03
 249 F= -.23412298E+04 E0= -.23412298E+04  d E =-.341516E-04  mag=     7.0000
       N       E                     dE             d eps       ncg     rms          rms(c)
DAV:   1    -0.232036120134E+04   -0.25727E-04   -0.46955E-03  4488   0.667E-02    0.215E-02
RMM:   2    -0.232036123572E+04   -0.34378E-04   -0.36307E-04  4293   0.129E-02    0.159E-02
RMM:   3    -0.232036123641E+04   -0.69216E-06   -0.32431E-05  2869   0.599E-03
 250 F= -.23412298E+04 E0= -.23412298E+04  d E =-.324473E-04  mag=     7.0000
       N       E                     dE             d eps       ncg     rms          rms(c)
DAV:   1    -0.232036124536E+04   -0.96416E-05   -0.29866E-03  4520   0.532E-02    0.184E-02
RMM:   2    -0.232036126625E+04   -0.20891E-04   -0.22818E-04  3697   0.104E-02    0.130E-02
RMM:   3    -0.232036126708E+04   -0.83647E-06   -0.23836E-05  2842   0.528E-03
 251 F= -.23412298E+04 E0= -.23412298E+04  d E =-.407776E-04  mag=     7.0000
       N       E                     dE             d eps       ncg     rms          rms(c)
DAV:   1    -0.232036127903E+04   -0.12784E-04   -0.50375E-03  4488   0.696E-02    0.227E-02
RMM:   2    -0.232036131589E+04   -0.36857E-04   -0.38942E-04  4456   0.134E-02    0.157E-02
RMM:   3    -0.232036131722E+04   -0.13324E-05   -0.37346E-05  2879   0.617E-03
 252 F= -.23412298E+04 E0= -.23412298E+04  d E =-.359154E-04  mag=     7.0000
       N       E                     dE             d eps       ncg     rms          rms(c)
DAV:   1    -0.232036130388E+04    0.12012E-04   -0.51756E-03  4488   0.705E-02    0.242E-02
RMM:   2    -0.232036134144E+04   -0.37564E-04   -0.39939E-04  4468   0.134E-02    0.184E-02
RMM:   3    -0.232036134237E+04   -0.93332E-06   -0.38966E-05  2897   0.607E-03
 253 F= -.23412299E+04 E0= -.23412299E+04  d E =-.466420E-04  mag=     7.0000
       N       E                     dE             d eps       ncg     rms          rms(c)
DAV:   1    -0.232036135011E+04   -0.86670E-05   -0.33883E-03  4568   0.562E-02    0.189E-02
RMM:   2    -0.232036137585E+04   -0.25743E-04   -0.27059E-04  3802   0.109E-02    0.148E-02
RMM:   3    -0.232036137686E+04   -0.10129E-05   -0.29109E-05  2855   0.551E-03
 254 F= -.23412299E+04 E0= -.23412299E+04  d E =-.201524E-04  mag=     7.0000
       N       E                     dE             d eps       ncg     rms          rms(c)
DAV:   1    -0.232036137242E+04    0.34314E-05   -0.41617E-03  4488   0.622E-02    0.208E-02
RMM:   2    -0.232036140449E+04   -0.32072E-04   -0.33005E-04  4041   0.118E-02    0.186E-02
RMM:   3    -0.232036140450E+04   -0.92114E-08   -0.30848E-05  2872   0.558E-03
 255 F= -.23412299E+04 E0= -.23412299E+04  d E =-.319224E-04  mag=     7.0000
       N       E                     dE             d eps       ncg     rms          rms(c)
DAV:   1    -0.232036144126E+04   -0.36765E-04   -0.27985E-03  4540   0.522E-02    0.179E-02
RMM:   2    -0.232036146135E+04   -0.20092E-04   -0.21201E-04  3703   0.103E-02    0.137E-02
RMM:   3    -0.232036146202E+04   -0.67365E-06   -0.22337E-05  2732   0.542E-03
 256 F= -.23412299E+04 E0= -.23412299E+04  d E =-.334523E-04  mag=     7.0000
       N       E                     dE             d eps       ncg     rms          rms(c)
DAV:   1    -0.232036146335E+04   -0.20017E-05   -0.98115E-03  4488   0.975E-02    0.326E-02
RMM:   2    -0.232036153307E+04   -0.69724E-04   -0.73917E-04  5212   0.182E-02    0.244E-02
RMM:   3    -0.232036153349E+04   -0.41898E-06   -0.62211E-05  2926   0.764E-03
 257 F= -.23412299E+04 E0= -.23412299E+04  d E =-.598847E-04  mag=     7.0000
       N       E                     dE             d eps       ncg     rms          rms(c)
DAV:   1    -0.232036155201E+04   -0.18940E-04   -0.50495E-03  4520   0.689E-02    0.231E-02
RMM:   2    -0.232036158759E+04   -0.35579E-04   -0.38286E-04  4314   0.130E-02    0.163E-02
RMM:   3    -0.232036158896E+04   -0.13721E-05   -0.38755E-05  2903   0.605E-03
 258 F= -.23412300E+04 E0= -.23412300E+04  d E =-.232430E-04  mag=     7.0000
       N       E                     dE             d eps       ncg     rms          rms(c)
DAV:   1    -0.232036159910E+04   -0.11510E-04   -0.31588E-03  4712   0.544E-02    0.194E-02
RMM:   2    -0.232036162149E+04   -0.22385E-04   -0.23541E-04  3728   0.104E-02    0.168E-02
RMM:   3    -0.232036162180E+04   -0.30755E-06   -0.25906E-05  2865   0.531E-03
 259 F= -.23412300E+04 E0= -.23412300E+04  d E =-.305585E-04  mag=     7.0000
       N       E                     dE             d eps       ncg     rms          rms(c)
DAV:   1    -0.232036163991E+04   -0.18425E-04   -0.59161E-03  4488   0.748E-02    0.242E-02
RMM:   2    -0.232036168037E+04   -0.40454E-04   -0.42334E-04  4605   0.140E-02    0.187E-02
RMM:   3    -0.232036168061E+04   -0.24628E-06   -0.36036E-05  2879   0.626E-03
 260 F= -.23412300E+04 E0= -.23412300E+04  d E =-.404129E-04  mag=     7.0000
       N       E                     dE             d eps       ncg     rms          rms(c)
DAV:   1    -0.232036165669E+04    0.23679E-04   -0.92438E-03  4488   0.934E-02    0.307E-02
RMM:   2    -0.232036171757E+04   -0.60877E-04   -0.65267E-04  5067   0.171E-02    0.217E-02
RMM:   3    -0.232036171855E+04   -0.98378E-06   -0.56526E-05  2911   0.688E-03
 261 F= -.23412300E+04 E0= -.23412300E+04  d E =-.553273E-04  mag=     7.0000
       N       E                     dE             d eps       ncg     rms          rms(c)
DAV:   1    -0.232036172501E+04   -0.74428E-05   -0.65602E-03  4488   0.772E-02    0.245E-02
RMM:   2    -0.232036176717E+04   -0.42164E-04   -0.45213E-04  4522   0.142E-02    0.167E-02
RMM:   3    -0.232036176874E+04   -0.15699E-05   -0.44094E-05  2904   0.646E-03
 262 F= -.23412301E+04 E0= -.23412301E+04  d E =-.295190E-04  mag=     7.0000
       N       E                     dE             d eps       ncg     rms          rms(c)
DAV:   1    -0.232036171915E+04    0.48024E-04   -0.15691E-02  4488   0.119E-01    0.370E-02
RMM:   2    -0.232036182272E+04   -0.10357E-03   -0.10743E-03  5325   0.210E-02    0.314E-02
RMM:   3    -0.232036182203E+04    0.68701E-06   -0.90978E-05  2962   0.831E-03
 263 F= -.23412301E+04 E0= -.23412301E+04  d E =-.509204E-04  mag=     7.0000
       N       E                     dE             d eps       ncg     rms          rms(c)
DAV:   1    -0.232036185889E+04   -0.36169E-04   -0.68828E-03  4556   0.795E-02    0.258E-02
RMM:   2    -0.232036190074E+04   -0.41849E-04   -0.44354E-04  4596   0.145E-02    0.199E-02
RMM:   3    -0.232036190161E+04   -0.87301E-06   -0.43353E-05  2894   0.652E-03
 264 F= -.23412301E+04 E0= -.23412301E+04  d E =-.423057E-04  mag=     7.0000
       N       E                     dE             d eps       ncg     rms          rms(c)
DAV:   1    -0.232036175414E+04    0.14660E-03   -0.50535E-02  4488   0.215E-01    0.636E-02
RMM:   2    -0.232036206094E+04   -0.30680E-03   -0.31998E-03  5580   0.366E-02    0.507E-02
RMM:   3    -0.232036205823E+04    0.27081E-05   -0.25235E-04  3206   0.140E-02    0.382E-02
RMM:   4    -0.232036204524E+04    0.12998E-04   -0.34576E-05  2955   0.430E-03    0.190E-02
RMM:   5    -0.232036204329E+04    0.19417E-05   -0.14517E-05  2906   0.343E-03
 265 F= -.23412302E+04 E0= -.23412302E+04  d E =-.833144E-04  mag=     7.0000
       N       E                     dE             d eps       ncg     rms          rms(c)
DAV:   1    -0.232036208059E+04   -0.35353E-04   -0.99796E-03  4536   0.946E-02    0.276E-02
RMM:   2    -0.232036214107E+04   -0.60477E-04   -0.61661E-04  4890   0.175E-02    0.265E-02
RMM:   3    -0.232036213967E+04    0.13981E-05   -0.61745E-05  2926   0.733E-03
 266 F= -.23412302E+04 E0= -.23412302E+04  d E =-.458970E-04  mag=     7.0000
       N       E                     dE             d eps       ncg     rms          rms(c)
DAV:   1    -0.232036214747E+04   -0.64012E-05   -0.15232E-02  4520   0.117E-01    0.343E-02
RMM:   2    -0.232036223680E+04   -0.89328E-04   -0.93403E-04  5223   0.204E-02    0.286E-02
RMM:   3    -0.232036223589E+04    0.90248E-06   -0.75623E-05  2957   0.793E-03
 267 F= -.23412302E+04 E0= -.23412302E+04  d E =-.801909E-04  mag=     7.0000
       N       E                     dE             d eps       ncg     rms          rms(c)
DAV:   1    -0.232036201076E+04    0.22603E-03   -0.60883E-02  4488   0.233E-01    0.661E-02
RMM:   2    -0.232036236789E+04   -0.35713E-03   -0.37557E-03  5634   0.396E-02    0.502E-02
RMM:   3    -0.232036236409E+04    0.37976E-05   -0.26473E-04  3217   0.136E-02    0.385E-02
RMM:   4    -0.232036235221E+04    0.11881E-04   -0.38343E-05  2963   0.453E-03    0.206E-02
RMM:   5    -0.232036234780E+04    0.44091E-05   -0.17345E-05  2918   0.401E-03
 268 F= -.23412302E+04 E0= -.23412302E+04  d E =-.682534E-04  mag=     7.0000
       N       E                     dE             d eps       ncg     rms          rms(c)
DAV:   1    -0.232036237225E+04   -0.20038E-04   -0.57375E-03  4800   0.707E-02    0.191E-02
RMM:   2    -0.232036240530E+04   -0.33052E-04   -0.35193E-04  4211   0.135E-02    0.103E-02
RMM:   3    -0.232036240655E+04   -0.12490E-05   -0.29731E-05  2891   0.604E-03
 269 F= -.23412303E+04 E0= -.23412303E+04  d E =-.276061E-04  mag=     7.0000
       N       E                     dE             d eps       ncg     rms          rms(c)
DAV:   1    -0.232036239960E+04    0.57060E-05   -0.17180E-02  4504   0.122E-01    0.320E-02
RMM:   2    -0.232036249976E+04   -0.10017E-03   -0.10524E-03  5207   0.208E-02    0.220E-02
RMM:   3    -0.232036249992E+04   -0.15764E-06   -0.70814E-05  2964   0.785E-03
 270 F= -.23412303E+04 E0= -.23412303E+04  d E =-.677687E-04  mag=     7.0000
       N       E                     dE             d eps       ncg     rms          rms(c)
DAV:   1    -0.232036225694E+04    0.24283E-03   -0.68618E-02  4488   0.244E-01    0.647E-02
RMM:   2    -0.232036265657E+04   -0.39963E-03   -0.41767E-03  5602   0.405E-02    0.483E-02
RMM:   3    -0.232036265729E+04   -0.71785E-06   -0.30430E-04  3273   0.149E-02    0.363E-02
RMM:   4    -0.232036264829E+04    0.89959E-05   -0.42222E-05  2975   0.435E-03
 271 F= -.23412303E+04 E0= -.23412303E+04  d E =-.109770E-03  mag=     7.0000
       N       E                     dE             d eps       ncg     rms          rms(c)
DAV:   1    -0.232036273170E+04   -0.74411E-04   -0.43765E-03  4776   0.664E-02    0.254E-02
RMM:   2    -0.232036275604E+04   -0.24335E-04   -0.23273E-04  4191   0.124E-02    0.280E-02
RMM:   3    -0.232036275173E+04    0.43102E-05   -0.30547E-05  2901   0.660E-03
 272 F= -.23412304E+04 E0= -.23412304E+04  d E =-.968995E-04  mag=     7.0000
       N       E                     dE             d eps       ncg     rms          rms(c)
DAV:   1    -0.232036272998E+04    0.26060E-04   -0.38726E-02  4488   0.196E-01    0.647E-02
RMM:   2    -0.232036290872E+04   -0.17874E-03   -0.20366E-03  5529   0.337E-02    0.379E-02
RMM:   3    -0.232036290388E+04    0.48387E-05   -0.13908E-04  3197   0.120E-02    0.370E-02
RMM:   4    -0.232036289109E+04    0.12792E-04   -0.27731E-05  2927   0.463E-03    0.178E-02
RMM:   5    -0.232036288688E+04    0.42075E-05   -0.15190E-05  2901   0.410E-03
 273 F= -.23412306E+04 E0= -.23412306E+04  d E =-.213010E-03  mag=     7.0000
       N       E                     dE             d eps       ncg     rms          rms(c)
DAV:   1    -0.232036292378E+04   -0.32694E-04   -0.21297E-03  5192   0.467E-02    0.168E-02
RMM:   2    -0.232036293603E+04   -0.12253E-04   -0.11637E-04  3564   0.993E-03    0.191E-02
RMM:   3    -0.232036293383E+04    0.22041E-05   -0.15160E-05  2813   0.546E-03
 274 F= -.23412306E+04 E0= -.23412306E+04  d E =-.373334E-04  mag=     7.0000
       N       E                     dE             d eps       ncg     rms          rms(c)
DAV:   1    -0.232036295557E+04   -0.19532E-04   -0.33224E-03  4560   0.578E-02    0.196E-02
RMM:   2    -0.232036297016E+04   -0.14597E-04   -0.16302E-04  3844   0.109E-02    0.152E-02
RMM:   3    -0.232036296991E+04    0.25077E-06   -0.17215E-05  2882   0.541E-03
 275 F= -.23412306E+04 E0= -.23412306E+04  d E =-.615429E-04  mag=     7.0000
       N       E                     dE             d eps       ncg     rms          rms(c)
DAV:   1    -0.232036290946E+04    0.60704E-04   -0.13218E-02  4488   0.115E-01    0.370E-02
RMM:   2    -0.232036296822E+04   -0.58760E-04   -0.66868E-04  5257   0.204E-02    0.219E-02
RMM:   3    -0.232036296596E+04    0.22578E-05   -0.46646E-05  2948   0.807E-03
 276 F= -.23412306E+04 E0= -.23412306E+04  d E =-.338336E-04  mag=     7.0000
       N       E                     dE             d eps       ncg     rms          rms(c)
DAV:   1    -0.232036294541E+04    0.22808E-04   -0.70290E-03  4488   0.843E-02    0.257E-02
RMM:   2    -0.232036298215E+04   -0.36738E-04   -0.35673E-04  4847   0.155E-02    0.249E-02
RMM:   3    -0.232036297911E+04    0.30448E-05   -0.37166E-05  2754   0.753E-03
 277 F= -.23412306E+04 E0= -.23412306E+04  d E =-.640823E-04  mag=     7.0000
       N       E                     dE             d eps       ncg     rms          rms(c)
DAV:   1    -0.232036301556E+04   -0.33412E-04   -0.38649E-03  4488   0.623E-02    0.195E-02
RMM:   2    -0.232036303170E+04   -0.16136E-04   -0.17885E-04  4086   0.111E-02    0.106E-02
RMM:   3    -0.232036303222E+04   -0.51975E-06   -0.17893E-05  2769   0.551E-03
 278 F= -.23412307E+04 E0= -.23412307E+04  d E =-.328710E-04  mag=     7.0000
       N       E                     dE             d eps       ncg     rms          rms(c)
DAV:   1    -0.232036304918E+04   -0.17482E-04   -0.29220E-03  4592   0.541E-02    0.184E-02
RMM:   2    -0.232036306006E+04   -0.10883E-04   -0.13367E-04  3665   0.975E-03    0.883E-03
RMM:   3    -0.232036305970E+04    0.36585E-06   -0.12650E-05  2858   0.497E-03
 279 F= -.23412307E+04 E0= -.23412307E+04  d E =-.426667E-04  mag=     7.0000
       N       E                     dE             d eps       ncg     rms          rms(c)
DAV:   1    -0.232036310074E+04   -0.40681E-04   -0.21538E-03  4480   0.478E-02    0.174E-02
RMM:   2    -0.232036310997E+04   -0.92300E-05   -0.98440E-05  3604   0.923E-03
 280 F= -.23412307E+04 E0= -.23412307E+04  d E =-.370115E-04  mag=     7.0000
       N       E                     dE             d eps       ncg     rms          rms(c)
DAV:   1    -0.232036311992E+04   -0.19177E-04   -0.58404E-04  5216   0.259E-02    0.150E-02
RMM:   2    -0.232036312573E+04   -0.58116E-05   -0.40258E-05  2971   0.629E-03
 281 F= -.23412307E+04 E0= -.23412307E+04  d E =-.460170E-04  mag=     7.0000
       N       E                     dE             d eps       ncg     rms          rms(c)
DAV:   1    -0.232036314720E+04   -0.27277E-04   -0.11644E-03  4504   0.361E-02    0.140E-02
RMM:   2    -0.232036315107E+04   -0.38695E-05   -0.48030E-05  3214   0.806E-03
 282 F= -.23412307E+04 E0= -.23412307E+04  d E =-.135277E-04  mag=     7.0000
       N       E                     dE             d eps       ncg     rms          rms(c)
DAV:   1    -0.232036316152E+04   -0.14318E-04   -0.39970E-04  4784   0.216E-02    0.132E-02
RMM:   2    -0.232036316616E+04   -0.46414E-05   -0.26579E-05  2884   0.546E-03
 283 F= -.23412307E+04 E0= -.23412307E+04  d E =-.217465E-04  mag=     7.0000
       N       E                     dE             d eps       ncg     rms          rms(c)
DAV:   1    -0.232036318237E+04   -0.20852E-04   -0.12596E-03  4520   0.367E-02    0.136E-02
RMM:   2    -0.232036318586E+04   -0.34950E-05   -0.46840E-05  3218   0.808E-03
 284 F= -.23412307E+04 E0= -.23412307E+04  d E =-.901905E-05  mag=     7.0000
       N       E                     dE             d eps       ncg     rms          rms(c)
DAV:   1    -0.232036318997E+04   -0.75977E-05   -0.90629E-05  5256   0.110E-02    0.107E-02
RMM:   2    -0.232036319373E+04   -0.37682E-05   -0.14224E-05  2522   0.315E-03
 285 F= -.23412307E+04 E0= -.23412307E+04  d E =-.141613E-04  mag=     7.0000
       N       E                     dE             d eps       ncg     rms          rms(c)
DAV:   1    -0.232036320558E+04   -0.15612E-04   -0.11864E-03  4468   0.347E-02    0.112E-02
RMM:   2    -0.232036320886E+04   -0.32838E-05   -0.41536E-05  2956   0.671E-03
 286 F= -.23412308E+04 E0= -.23412308E+04  d E =-.102834E-04  mag=     7.0000
       N       E                     dE             d eps       ncg     rms          rms(c)
DAV:   1    -0.232036321349E+04   -0.79165E-05   -0.33235E-04  4544   0.185E-02    0.876E-03
RMM:   2    -0.232036321535E+04   -0.18603E-05   -0.16165E-05  2642   0.465E-03
 287 F= -.23412308E+04 E0= -.23412308E+04  d E =-.141940E-04  mag=     7.0000
       N       E                     dE             d eps       ncg     rms          rms(c)
DAV:   1    -0.232036322612E+04   -0.12627E-04   -0.80521E-04  4412   0.282E-02    0.979E-03
RMM:   2    -0.232036322878E+04   -0.26617E-05   -0.30370E-05  2801   0.626E-03
 288 F= -.23412308E+04 E0= -.23412308E+04  d E =-.117521E-04  mag=     7.0000
       N       E                     dE             d eps       ncg     rms          rms(c)
DAV:   1    -0.232036323343E+04   -0.73046E-05   -0.49357E-04  4304   0.222E-02    0.995E-03
RMM:   2    -0.232036323632E+04   -0.28916E-05   -0.22990E-05  2788   0.540E-03
 289 F= -.23412308E+04 E0= -.23412308E+04  d E =-.179727E-04  mag=     7.0000
       N       E                     dE             d eps       ncg     rms          rms(c)
DAV:   1    -0.232036325115E+04   -0.17721E-04   -0.10339E-03  4408   0.318E-02    0.109E-02
RMM:   2    -0.232036325469E+04   -0.35384E-05   -0.39922E-05  2971   0.701E-03
 290 F= -.23412308E+04 E0= -.23412308E+04  d E =-.132847E-04  mag=     7.0000
