       N       E                     dE             d eps       ncg     rms          rms(c)
DAV:   1     0.128057652247E+05    0.12806E+05   -0.83663E+05  4464   0.144E+03
DAV:   2    -0.108170468089E+04   -0.13887E+05   -0.13307E+05  5328   0.330E+02
DAV:   3    -0.248317550732E+04   -0.14015E+04   -0.13883E+04  5360   0.111E+02
DAV:   4    -0.252853794717E+04   -0.45362E+02   -0.45113E+02  6680   0.295E+01
DAV:   5    -0.252938231632E+04   -0.84437E+00   -0.84273E+00  5656   0.329E+00    0.171E+02
RMM:   6    -0.148829459294E+04    0.10411E+04   -0.19517E+03  4430   0.389E+01    0.751E+01
RMM:   7    -0.165575489389E+04   -0.16746E+03   -0.33571E+02  5087   0.146E+01    0.554E+01
RMM:   8    -0.169753460951E+04   -0.41780E+02   -0.74236E+01  5236   0.844E+00    0.428E+01
RMM:   9    -0.176230408295E+04   -0.64769E+02   -0.59762E+01  5205   0.618E+00    0.363E+01
RMM:  10    -0.191797350972E+04   -0.15567E+03   -0.74687E+01  5010   0.817E+00    0.318E+01
RMM:  11    -0.198037489820E+04   -0.62401E+02   -0.32467E+01  5199   0.507E+00    0.177E+01
RMM:  12    -0.207875395049E+04   -0.98379E+02   -0.41023E+01  4609   0.503E+00    0.135E+01
RMM:  13    -0.221437697159E+04   -0.13562E+03   -0.10385E+02  4478   0.728E+00    0.881E+00
RMM:  14    -0.229626922269E+04   -0.81892E+02   -0.79237E+01  4495   0.604E+00    0.586E+00
RMM:  15    -0.231196648762E+04   -0.15697E+02   -0.17868E+01  4670   0.354E+00    0.299E+00
RMM:  16    -0.231803795941E+04   -0.60715E+01   -0.67439E+00  4789   0.168E+00    0.189E+00
RMM:  17    -0.231931915523E+04   -0.12812E+01   -0.11795E+00  4914   0.994E-01    0.135E+00
RMM:  18    -0.231986334638E+04   -0.54419E+00   -0.31940E-01  5031   0.374E-01    0.557E-01
RMM:  19    -0.232003749117E+04   -0.17414E+00   -0.76873E-02  4925   0.244E-01    0.286E-01
RMM:  20    -0.232009567953E+04   -0.58188E-01   -0.26707E-02  4607   0.126E-01    0.158E-01
RMM:  21    -0.232011724137E+04   -0.21562E-01   -0.98043E-03  4476   0.919E-02    0.929E-02
RMM:  22    -0.232013221338E+04   -0.14972E-01   -0.61378E-03  4472   0.650E-02    0.640E-02
RMM:  23    -0.232014074930E+04   -0.85359E-02   -0.31140E-03  4548   0.498E-02    0.409E-02
RMM:  24    -0.232014509780E+04   -0.43485E-02   -0.16963E-03  4631   0.318E-02    0.308E-02
RMM:  25    -0.232014702959E+04   -0.19318E-02   -0.74958E-04  4170   0.233E-02    0.171E-02
RMM:  26    -0.232014751117E+04   -0.48158E-03   -0.22857E-04  4167   0.128E-02    0.765E-03
RMM:  27    -0.232014775835E+04   -0.24718E-03   -0.62316E-05  3606   0.707E-03    0.489E-03
RMM:  28    -0.232014787965E+04   -0.12130E-03   -0.24074E-05  3124   0.471E-03    0.294E-03
RMM:  29    -0.232014794228E+04   -0.62627E-04   -0.12648E-05  2890   0.346E-03    0.190E-03
RMM:  30    -0.232014796791E+04   -0.25629E-04   -0.72343E-06  2784   0.282E-03    0.107E-03
RMM:  31    -0.232014797264E+04   -0.47343E-05   -0.32431E-06  2416   0.222E-03
   1 F= -.23405954E+04 E0= -.23405946E+04  d E =-.234060E+04  mag=     2.9831
       N       E                     dE             d eps       ncg     rms          rms(c)
DAV:   1    -0.232017357733E+04   -0.25609E-01   -0.14962E+01  5040   0.347E+00    0.947E-01
RMM:   2    -0.232024036298E+04   -0.66786E-01   -0.70711E-01  6030   0.667E-01    0.682E-01
RMM:   3    -0.232024442555E+04   -0.40626E-02   -0.59107E-02  5941   0.191E-01    0.983E-01
RMM:   4    -0.232023585589E+04    0.85697E-02   -0.83279E-03  5687   0.643E-02    0.307E-01
RMM:   5    -0.232023463741E+04    0.12185E-02   -0.48693E-03  5365   0.458E-02    0.227E-01
RMM:   6    -0.232023409942E+04    0.53800E-03   -0.19391E-03  5679   0.341E-02    0.788E-02
RMM:   7    -0.232023403051E+04    0.68902E-04   -0.19480E-04  4117   0.102E-02    0.299E-02
RMM:   8    -0.232023401055E+04    0.19959E-04   -0.45316E-05  3272   0.658E-03    0.186E-02
RMM:   9    -0.232023399965E+04    0.10907E-04   -0.33798E-05  3250   0.517E-03    0.738E-03
RMM:  10    -0.232023399611E+04    0.35327E-05   -0.96881E-06  2831   0.428E-03
   2 F= -.23406841E+04 E0= -.23406837E+04  d E =-.886701E-01  mag=     2.9905
       N       E                     dE             d eps       ncg     rms          rms(c)
DAV:   1    -0.232023381742E+04    0.18223E-03   -0.33130E-01  4872   0.518E-01    0.141E-01
RMM:   2    -0.232023530975E+04   -0.14923E-02   -0.15809E-02  6083   0.993E-02    0.105E-01
RMM:   3    -0.232023538922E+04   -0.79472E-04   -0.12896E-03  5101   0.295E-02    0.146E-01
RMM:   4    -0.232023519969E+04    0.18953E-03   -0.19324E-04  3725   0.102E-02    0.456E-02
RMM:   5    -0.232023517229E+04    0.27400E-04   -0.11968E-04  4021   0.792E-03    0.339E-02
RMM:   6    -0.232023515965E+04    0.12645E-04   -0.40939E-05  3198   0.631E-03    0.120E-02
RMM:   7    -0.232023515804E+04    0.16049E-05   -0.66588E-06  2787   0.336E-03
   3 F= -.23406857E+04 E0= -.23406853E+04  d E =-.902312E-01  mag=     2.9919
       N       E                     dE             d eps       ncg     rms          rms(c)
DAV:   1    -0.232023758195E+04   -0.24223E-02   -0.94980E+00  4544   0.301E+00    0.755E-01
RMM:   2    -0.232030480519E+04   -0.67223E-01   -0.67480E-01  6358   0.619E-01    0.820E-01
RMM:   3    -0.232030285430E+04    0.19509E-02   -0.47825E-02  6120   0.168E-01    0.712E-01
RMM:   4    -0.232029818796E+04    0.46663E-02   -0.61208E-03  5716   0.512E-02    0.227E-01
RMM:   5    -0.232029750134E+04    0.68662E-03   -0.20521E-03  5116   0.312E-02    0.124E-01
RMM:   6    -0.232029736901E+04    0.13234E-03   -0.94590E-04  5279   0.232E-02    0.664E-02
RMM:   7    -0.232029730606E+04    0.62950E-04   -0.16694E-04  4406   0.110E-02    0.234E-02
RMM:   8    -0.232029729806E+04    0.79996E-05   -0.18193E-05  2960   0.454E-03
   4 F= -.23407496E+04 E0= -.23407494E+04  d E =-.639230E-01  mag=     2.9950
       N       E                     dE             d eps       ncg     rms          rms(c)
DAV:   1    -0.232026622306E+04    0.31083E-01   -0.74232E+00  4544   0.268E+00    0.662E-01
RMM:   2    -0.232031895133E+04   -0.52728E-01   -0.52967E-01  6328   0.551E-01    0.724E-01
RMM:   3    -0.232031716726E+04    0.17841E-02   -0.37231E-02  6057   0.149E-01    0.617E-01
RMM:   4    -0.232031363827E+04    0.35290E-02   -0.47208E-03  5671   0.451E-02    0.200E-01
RMM:   5    -0.232031308511E+04    0.55316E-03   -0.16101E-03  5114   0.280E-02    0.109E-01
RMM:   6    -0.232031297496E+04    0.11015E-03   -0.74668E-04  5281   0.208E-02    0.589E-02
RMM:   7    -0.232031292303E+04    0.51934E-04   -0.13173E-04  4160   0.988E-03    0.207E-02
RMM:   8    -0.232031291536E+04    0.76649E-05   -0.15812E-05  2945   0.444E-03
   5 F= -.23407668E+04 E0= -.23407667E+04  d E =-.811536E-01  mag=     2.9969
       N       E                     dE             d eps       ncg     rms          rms(c)
DAV:   1    -0.232031505158E+04   -0.21286E-02   -0.66649E+00  4512   0.256E+00    0.576E-01
RMM:   2    -0.232035045309E+04   -0.35402E-01   -0.37940E-01  6144   0.489E-01    0.364E-01
RMM:   3    -0.232035159200E+04   -0.11389E-02   -0.22966E-02  5768   0.145E-01    0.518E-01
RMM:   4    -0.232034928592E+04    0.23061E-02   -0.31884E-03  6048   0.402E-02    0.215E-01
RMM:   5    -0.232034867872E+04    0.60720E-03   -0.18794E-03  4635   0.325E-02    0.737E-02
RMM:   6    -0.232034866431E+04    0.14408E-04   -0.28571E-04  4343   0.217E-02    0.300E-02
RMM:   7    -0.232034866003E+04    0.42803E-05   -0.72338E-05  3694   0.592E-03
   6 F= -.23408035E+04 E0= -.23408034E+04  d E =-.366316E-01  mag=     2.9981
       N       E                     dE             d eps       ncg     rms          rms(c)
DAV:   1    -0.232033925971E+04    0.94046E-02   -0.32214E+00  4544   0.178E+00    0.401E-01
RMM:   2    -0.232035644044E+04   -0.17181E-01   -0.18364E-01  6154   0.339E-01    0.260E-01
RMM:   3    -0.232035704781E+04   -0.60738E-03   -0.11245E-02  5739   0.101E-01    0.371E-01
RMM:   4    -0.232035584698E+04    0.12008E-02   -0.15725E-03  5838   0.283E-02    0.148E-01
RMM:   5    -0.232035556261E+04    0.28437E-03   -0.94617E-04  4549   0.232E-02    0.513E-02
RMM:   6    -0.232035555298E+04    0.96303E-05   -0.14989E-04  3971   0.156E-02    0.239E-02
RMM:   7    -0.232035554800E+04    0.49780E-05   -0.37558E-05  3152   0.465E-03
   7 F= -.23408110E+04 E0= -.23408109E+04  d E =-.441495E-01  mag=     2.9988
       N       E                     dE             d eps       ncg     rms          rms(c)
DAV:   1    -0.232034854515E+04    0.70078E-02   -0.70034E+00  4480   0.265E+00    0.633E-01
RMM:   2    -0.232039009086E+04   -0.41546E-01   -0.42256E-01  5845   0.492E-01    0.726E-01
RMM:   3    -0.232038936318E+04    0.72768E-03   -0.46611E-02  5435   0.227E-01    0.610E-01
RMM:   4    -0.232038602818E+04    0.33350E-02   -0.47145E-03  5810   0.486E-02    0.214E-01
RMM:   5    -0.232038555892E+04    0.46926E-03   -0.15319E-03  5602   0.274E-02    0.150E-01
RMM:   6    -0.232038524213E+04    0.31679E-03   -0.12175E-03  5189   0.256E-02    0.351E-02
RMM:   7    -0.232038523352E+04    0.86082E-05   -0.82028E-05  3898   0.121E-02
   8 F= -.23408418E+04 E0= -.23408417E+04  d E =-.308162E-01  mag=     2.9992
       N       E                     dE             d eps       ncg     rms          rms(c)
DAV:   1    -0.232036550762E+04    0.19735E-01   -0.49170E+00  4480   0.222E+00    0.532E-01
RMM:   2    -0.232039484879E+04   -0.29341E-01   -0.29586E-01  5860   0.413E-01    0.633E-01
RMM:   3    -0.232039389267E+04    0.95612E-03   -0.31598E-02  5502   0.183E-01    0.507E-01
RMM:   4    -0.232039157619E+04    0.23165E-02   -0.32347E-03  5715   0.407E-02    0.179E-01
RMM:   5    -0.232039124361E+04    0.33259E-03   -0.10827E-03  5523   0.234E-02    0.125E-01
RMM:   6    -0.232039101540E+04    0.22821E-03   -0.86028E-04  5120   0.217E-02    0.292E-02
RMM:   7    -0.232039100608E+04    0.93220E-05   -0.60343E-05  3655   0.103E-02
   9 F= -.23408485E+04 E0= -.23408485E+04  d E =-.375387E-01  mag=     2.9994
       N       E                     dE             d eps       ncg     rms          rms(c)
DAV:   1    -0.232038655869E+04    0.44567E-02   -0.65178E+00  4448   0.254E+00    0.504E-01
RMM:   2    -0.232041820169E+04   -0.31643E-01   -0.33381E-01  5994   0.447E-01    0.383E-01
RMM:   3    -0.232041954635E+04   -0.13447E-02   -0.24162E-02  5569   0.158E-01    0.504E-01
RMM:   4    -0.232041734430E+04    0.22020E-02   -0.27787E-03  5710   0.369E-02    0.183E-01
RMM:   5    -0.232041688498E+04    0.45932E-03   -0.14979E-03  4808   0.280E-02    0.765E-02
RMM:   6    -0.232041685842E+04    0.26560E-04   -0.32700E-04  4656   0.182E-02    0.371E-02
RMM:   7    -0.232041684910E+04    0.93173E-05   -0.69504E-05  3592   0.680E-03
  10 F= -.23408742E+04 E0= -.23408741E+04  d E =-.256430E-01  mag=     2.9995
       N       E                     dE             d eps       ncg     rms          rms(c)
DAV:   1    -0.232017761692E+04    0.23924E+00   -0.53613E+01  4432   0.729E+00    0.145E+00
RMM:   2    -0.232043908752E+04   -0.26147E+00   -0.27609E+00  5978   0.128E+00    0.111E+00
RMM:   3    -0.232045331649E+04   -0.14229E-01   -0.20534E-01  5545   0.440E-01    0.155E+00
RMM:   4    -0.232043321383E+04    0.20103E-01   -0.24207E-02  6054   0.107E-01    0.536E-01
RMM:   5    -0.232042941915E+04    0.37947E-02   -0.11379E-02  5105   0.757E-02    0.245E-01
RMM:   6    -0.232042902552E+04    0.39363E-03   -0.35771E-03  5373   0.488E-02    0.128E-01
RMM:   7    -0.232042893011E+04    0.95409E-04   -0.85992E-04  5393   0.218E-02    0.700E-02
RMM:   8    -0.232042888342E+04    0.46688E-04   -0.14115E-04  4017   0.102E-02    0.358E-02
RMM:   9    -0.232042888122E+04    0.22012E-05   -0.46757E-05  3284   0.587E-03
  11 F= -.23408857E+04 E0= -.23408857E+04  d E =-.371747E-01  mag=     2.9996
       N       E                     dE             d eps       ncg     rms          rms(c)
DAV:   1    -0.232040126078E+04    0.27623E-01   -0.72548E+00  4448   0.267E+00    0.534E-01
RMM:   2    -0.232043708611E+04   -0.35825E-01   -0.37371E-01  5982   0.470E-01    0.465E-01
RMM:   3    -0.232043847283E+04   -0.13867E-02   -0.29682E-02  5444   0.171E-01    0.559E-01
RMM:   4    -0.232043564333E+04    0.28295E-02   -0.32094E-03  5750   0.393E-02    0.189E-01
RMM:   5    -0.232043518057E+04    0.46276E-03   -0.17227E-03  4633   0.288E-02    0.852E-02
RMM:   6    -0.232043514386E+04    0.36712E-04   -0.43075E-04  4749   0.209E-02    0.440E-02
RMM:   7    -0.232043512522E+04    0.18634E-04   -0.72852E-05  3566   0.742E-03    0.189E-02
RMM:   8    -0.232043512309E+04    0.21316E-05   -0.12263E-05  2894   0.477E-03
  12 F= -.23408921E+04 E0= -.23408921E+04  d E =-.435889E-01  mag=     2.9997
       N       E                     dE             d eps       ncg     rms          rms(c)
DAV:   1    -0.232040378668E+04    0.31339E-01   -0.10116E+01  4448   0.321E+00    0.774E-01
RMM:   2    -0.232046385317E+04   -0.60066E-01   -0.62410E-01  6052   0.586E-01    0.612E-01
RMM:   3    -0.232046743333E+04   -0.35802E-02   -0.48594E-02  5517   0.178E-01    0.788E-01
RMM:   4    -0.232046194044E+04    0.54929E-02   -0.66688E-03  5823   0.519E-02    0.241E-01
RMM:   5    -0.232046120626E+04    0.73417E-03   -0.21412E-03  4973   0.330E-02    0.106E-01
RMM:   6    -0.232046117774E+04    0.28529E-04   -0.88208E-04  4885   0.252E-02    0.521E-02
RMM:   7    -0.232046116586E+04    0.11877E-04   -0.14359E-04  4392   0.103E-02    0.286E-02
RMM:   8    -0.232046116169E+04    0.41672E-05   -0.28206E-05  2969   0.524E-03
  13 F= -.23409183E+04 E0= -.23409183E+04  d E =-.261963E-01  mag=     2.9997
       N       E                     dE             d eps       ncg     rms          rms(c)
DAV:   1    -0.232043839660E+04    0.22769E-01   -0.49058E+00  4464   0.224E+00    0.540E-01
RMM:   2    -0.232046741200E+04   -0.29015E-01   -0.30247E-01  6070   0.408E-01    0.412E-01
RMM:   3    -0.232046928199E+04   -0.18700E-02   -0.23094E-02  5535   0.122E-01    0.544E-01
RMM:   4    -0.232046662992E+04    0.26521E-02   -0.32099E-03  5694   0.359E-02    0.167E-01
RMM:   5    -0.232046626674E+04    0.36318E-03   -0.10457E-03  4809   0.232E-02    0.736E-02
RMM:   6    -0.232046625810E+04    0.86409E-05   -0.41681E-04  4716   0.181E-02    0.366E-02
RMM:   7    -0.232046625292E+04    0.51790E-05   -0.68628E-05  3698   0.735E-03
  14 F= -.23409235E+04 E0= -.23409235E+04  d E =-.314033E-01  mag=     2.9997
       N       E                     dE             d eps       ncg     rms          rms(c)
DAV:   1    -0.232042664386E+04    0.39614E-01   -0.76962E+00  4448   0.281E+00    0.684E-01
RMM:   2    -0.232049567883E+04   -0.69035E-01   -0.66417E-01  6201   0.568E-01    0.950E-01
RMM:   3    -0.232049159817E+04    0.40807E-02   -0.53370E-02  5618   0.156E-01    0.578E-01
RMM:   4    -0.232048891917E+04    0.26790E-02   -0.62881E-03  5516   0.424E-02    0.216E-01
RMM:   5    -0.232048838252E+04    0.53665E-03   -0.14807E-03  5166   0.278E-02    0.114E-01
RMM:   6    -0.232048832633E+04    0.56189E-04   -0.84438E-04  4789   0.224E-02    0.509E-02
RMM:   7    -0.232048831275E+04    0.13583E-04   -0.15309E-04  4252   0.125E-02    0.259E-02
RMM:   8    -0.232048831808E+04   -0.53292E-05   -0.20833E-05  2966   0.442E-03
  15 F= -.23409456E+04 E0= -.23409455E+04  d E =-.220477E-01  mag=     2.9996
       N       E                     dE             d eps       ncg     rms          rms(c)
DAV:   1    -0.232040120835E+04    0.87104E-01   -0.11782E+01  4432   0.348E+00    0.848E-01
RMM:   2    -0.232050817448E+04   -0.10697E+00   -0.10280E+00  6208   0.712E-01    0.119E+00
RMM:   3    -0.232050093087E+04    0.72436E-02   -0.81915E-02  5606   0.194E-01    0.697E-01
RMM:   4    -0.232049707590E+04    0.38550E-02   -0.96294E-03  5581   0.527E-02    0.268E-01
RMM:   5    -0.232049628790E+04    0.78801E-03   -0.22364E-03  5240   0.344E-02    0.145E-01
RMM:   6    -0.232049618543E+04    0.10247E-03   -0.13771E-03  4894   0.278E-02    0.673E-02
RMM:   7    -0.232049614991E+04    0.35517E-04   -0.24648E-04  4676   0.159E-02    0.309E-02
RMM:   8    -0.232049615701E+04   -0.70964E-05   -0.31917E-05  3072   0.494E-03
  16 F= -.23409534E+04 E0= -.23409534E+04  d E =-.298983E-01  mag=     2.9996
       N       E                     dE             d eps       ncg     rms          rms(c)
DAV:   1    -0.232043033485E+04    0.65815E-01   -0.10003E+01  4448   0.321E+00    0.752E-01
RMM:   2    -0.232052436718E+04   -0.94032E-01   -0.93748E-01  6261   0.655E-01    0.900E-01
RMM:   3    -0.232052261204E+04    0.17551E-02   -0.70947E-02  5698   0.171E-01    0.661E-01
RMM:   4    -0.232051899859E+04    0.36135E-02   -0.83839E-03  5642   0.476E-02    0.253E-01
RMM:   5    -0.232051828090E+04    0.71769E-03   -0.19485E-03  5165   0.300E-02    0.128E-01
RMM:   6    -0.232051820656E+04    0.74331E-04   -0.10567E-03  4818   0.255E-02    0.426E-02
RMM:   7    -0.232051822906E+04   -0.22491E-04   -0.14460E-04  4269   0.126E-02    0.300E-02
RMM:   8    -0.232051823326E+04   -0.41993E-05   -0.26879E-05  2964   0.485E-03
  17 F= -.23409749E+04 E0= -.23409749E+04  d E =-.214907E-01  mag=     2.9996
       N       E                     dE             d eps       ncg     rms          rms(c)
DAV:   1    -0.232035805409E+04    0.16017E+00   -0.19389E+01  4432   0.447E+00    0.105E+00
RMM:   2    -0.232054373652E+04   -0.18568E+00   -0.18342E+00  6285   0.924E-01    0.130E+00
RMM:   3    -0.232053793879E+04    0.57977E-02   -0.13885E-01  5722   0.239E-01    0.883E-01
RMM:   4    -0.232053168432E+04    0.62545E-02   -0.16522E-02  5679   0.663E-02    0.353E-01
RMM:   5    -0.232053036854E+04    0.13158E-02   -0.36372E-03  5235   0.418E-02    0.179E-01
RMM:   6    -0.232053019807E+04    0.17047E-03   -0.21280E-03  4870   0.353E-02    0.566E-02
RMM:   7    -0.232053023640E+04   -0.38324E-04   -0.27770E-04  4607   0.188E-02    0.381E-02
RMM:   8    -0.232053024904E+04   -0.12637E-04   -0.66092E-05  3597   0.603E-03    0.265E-02
RMM:   9    -0.232053025150E+04   -0.24609E-05   -0.16861E-05  2906   0.444E-03
  18 F= -.23409861E+04 E0= -.23409861E+04  d E =-.327285E-01  mag=     2.9997
       N       E                     dE             d eps       ncg     rms          rms(c)
DAV:   1    -0.232041986661E+04    0.11038E+00   -0.13583E+01  4448   0.374E+00    0.894E-01
RMM:   2    -0.232055616392E+04   -0.13630E+00   -0.14465E+00  6262   0.783E-01    0.539E-01
RMM:   3    -0.232055909717E+04   -0.29332E-02   -0.11101E-01  5967   0.199E-01    0.411E-01
RMM:   4    -0.232055863980E+04    0.45737E-03   -0.11300E-02  5842   0.514E-02    0.381E-01
RMM:   5    -0.232055774321E+04    0.89659E-03   -0.26763E-03  5679   0.329E-02    0.258E-01
RMM:   6    -0.232055704783E+04    0.69538E-03   -0.19235E-03  5003   0.271E-02    0.118E-01
RMM:   7    -0.232055692760E+04    0.12023E-03   -0.48672E-04  4595   0.210E-02    0.399E-02
RMM:   8    -0.232055693044E+04   -0.28386E-05   -0.11091E-04  3747   0.884E-03    0.276E-02
RMM:   9    -0.232055692824E+04    0.22017E-05   -0.22919E-05  2910   0.572E-03
  19 F= -.23410122E+04 E0= -.23410122E+04  d E =-.260579E-01  mag=     2.9997
       N       E                     dE             d eps       ncg     rms          rms(c)
DAV:   1    -0.232052526831E+04    0.31662E-01   -0.36563E+00  4544   0.194E+00    0.461E-01
RMM:   2    -0.232056126183E+04   -0.35994E-01   -0.38263E-01  6229   0.401E-01    0.268E-01
RMM:   3    -0.232056208074E+04   -0.81892E-03   -0.30205E-02  5914   0.109E-01    0.180E-01
RMM:   4    -0.232056192777E+04    0.15298E-03   -0.30862E-03  5508   0.259E-02    0.145E-01
RMM:   5    -0.232056183157E+04    0.96198E-04   -0.78892E-04  5262   0.201E-02    0.145E-01
RMM:   6    -0.232056170862E+04    0.12295E-03   -0.36196E-04  4909   0.123E-02    0.916E-02
RMM:   7    -0.232056163098E+04    0.77641E-04   -0.10487E-04  3777   0.854E-03    0.185E-02
RMM:   8    -0.232056163208E+04   -0.11021E-05   -0.18163E-05  2895   0.503E-03
  20 F= -.23410166E+04 E0= -.23410166E+04  d E =-.304564E-01  mag=     2.9998
       N       E                     dE             d eps       ncg     rms          rms(c)
DAV:   1    -0.232053303896E+04    0.28592E-01   -0.48184E+00  4440   0.222E+00    0.560E-01
RMM:   2    -0.232057758054E+04   -0.44542E-01   -0.46410E-01  6224   0.452E-01    0.457E-01
RMM:   3    -0.232057897318E+04   -0.13926E-02   -0.34546E-02  5830   0.124E-01    0.508E-01
RMM:   4    -0.232057668915E+04    0.22840E-02   -0.41614E-03  5607   0.351E-02    0.192E-01
RMM:   5    -0.232057623225E+04    0.45691E-03   -0.10482E-03  5341   0.221E-02    0.107E-01
RMM:   6    -0.232057612333E+04    0.10892E-03   -0.61726E-04  5244   0.173E-02    0.605E-02
RMM:   7    -0.232057608675E+04    0.36580E-04   -0.15336E-04  4273   0.104E-02    0.233E-02
RMM:   8    -0.232057608432E+04    0.24336E-05   -0.23793E-05  2921   0.510E-03
  21 F= -.23410303E+04 E0= -.23410303E+04  d E =-.137208E-01  mag=     2.9998
       N       E                     dE             d eps       ncg     rms          rms(c)
DAV:   1    -0.232056204322E+04    0.14044E-01   -0.18589E+00  4496   0.138E+00    0.348E-01
RMM:   2    -0.232057923262E+04   -0.17189E-01   -0.17891E-01  6208   0.279E-01    0.288E-01
RMM:   3    -0.232057976968E+04   -0.53706E-03   -0.13066E-02  5764   0.792E-02    0.321E-01
RMM:   4    -0.232057883968E+04    0.93001E-03   -0.15960E-03  5152   0.220E-02    0.118E-01
RMM:   5    -0.232057866182E+04    0.17786E-03   -0.41445E-04  4853   0.142E-02    0.657E-02
RMM:   6    -0.232057861558E+04    0.46238E-04   -0.23733E-04  4772   0.115E-02    0.375E-02
RMM:   7    -0.232057859984E+04    0.15739E-04   -0.57000E-05  3371   0.719E-03    0.139E-02
RMM:   8    -0.232057859926E+04    0.57992E-06   -0.10673E-05  2868   0.415E-03
  22 F= -.23410324E+04 E0= -.23410324E+04  d E =-.157849E-01  mag=     2.9998
       N       E                     dE             d eps       ncg     rms          rms(c)
DAV:   1    -0.232056203830E+04    0.16562E-01   -0.34328E+00  4440   0.184E+00    0.417E-01
RMM:   2    -0.232058963620E+04   -0.27598E-01   -0.28462E-01  6178   0.355E-01    0.358E-01
RMM:   3    -0.232059070693E+04   -0.10707E-02   -0.21183E-02  5681   0.985E-02    0.383E-01
RMM:   4    -0.232058943014E+04    0.12768E-02   -0.26307E-03  5389   0.270E-02    0.148E-01
RMM:   5    -0.232058917696E+04    0.25318E-03   -0.51992E-04  4764   0.159E-02    0.799E-02
RMM:   6    -0.232058913580E+04    0.41154E-04   -0.41003E-04  4936   0.148E-02    0.467E-02
RMM:   7    -0.232058911545E+04    0.20356E-04   -0.80030E-05  3654   0.874E-03    0.182E-02
RMM:   8    -0.232058911512E+04    0.32631E-06   -0.14161E-05  2881   0.427E-03
  23 F= -.23410427E+04 E0= -.23410426E+04  d E =-.102875E-01  mag=     2.9998
       N       E                     dE             d eps       ncg     rms          rms(c)
DAV:   1    -0.232039860709E+04    0.19051E+00   -0.25377E+01  4432   0.501E+00    0.115E+00
RMM:   2    -0.232060789441E+04   -0.20929E+00   -0.21249E+00  6229   0.983E-01    0.113E+00
RMM:   3    -0.232061242260E+04   -0.45282E-02   -0.16934E-01  5711   0.263E-01    0.104E+00
RMM:   4    -0.232060339659E+04    0.90260E-02   -0.19949E-02  5710   0.740E-02    0.407E-01
RMM:   5    -0.232060167265E+04    0.17239E-02   -0.40870E-03  5253   0.434E-02    0.217E-01
RMM:   6    -0.232060137690E+04    0.29575E-03   -0.29347E-03  5067   0.378E-02    0.123E-01
RMM:   7    -0.232060126752E+04    0.10938E-03   -0.65027E-04  4935   0.239E-02    0.582E-02
RMM:   8    -0.232060124661E+04    0.20914E-04   -0.12772E-04  3714   0.906E-03    0.350E-02
RMM:   9    -0.232060124177E+04    0.48362E-05   -0.33647E-05  2939   0.597E-03
  24 F= -.23410542E+04 E0= -.23410542E+04  d E =-.218070E-01  mag=     2.9999
       N       E                     dE             d eps       ncg     rms          rms(c)
DAV:   1    -0.232057730910E+04    0.23938E-01   -0.44230E+00  4440   0.212E+00    0.512E-01
RMM:   2    -0.232061593053E+04   -0.38621E-01   -0.38563E-01  6192   0.423E-01    0.576E-01
RMM:   3    -0.232061607880E+04   -0.14827E-03   -0.31531E-02  5661   0.115E-01    0.470E-01
RMM:   4    -0.232061420668E+04    0.18721E-02   -0.37927E-03  5514   0.323E-02    0.161E-01
RMM:   5    -0.232061389238E+04    0.31430E-03   -0.78605E-04  4902   0.193E-02    0.841E-02
RMM:   6    -0.232061384831E+04    0.44068E-04   -0.44909E-04  4754   0.170E-02    0.374E-02
RMM:   7    -0.232061384718E+04    0.11286E-05   -0.80991E-05  3826   0.939E-03
  25 F= -.23410668E+04 E0= -.23410668E+04  d E =-.126459E-01  mag=     2.9999
       N       E                     dE             d eps       ncg     rms          rms(c)
DAV:   1    -0.232027871788E+04    0.33513E+00   -0.39700E+01  4432   0.635E+00    0.159E+00
RMM:   2    -0.232065785347E+04   -0.37914E+00   -0.36387E+00  6197   0.132E+00    0.219E+00
RMM:   3    -0.232063102695E+04    0.26827E-01   -0.28595E-01  5561   0.348E-01    0.127E+00
RMM:   4    -0.232061916181E+04    0.11865E-01   -0.32805E-02  5565   0.957E-02    0.474E-01
RMM:   5    -0.232061688988E+04    0.22719E-02   -0.65467E-03  5053   0.580E-02    0.249E-01
RMM:   6    -0.232061647713E+04    0.41274E-03   -0.37772E-03  4870   0.492E-02    0.910E-02
RMM:   7    -0.232061648878E+04   -0.11649E-04   -0.64922E-04  5202   0.279E-02    0.539E-02
RMM:   8    -0.232061647541E+04    0.13371E-04   -0.10972E-04  4040   0.766E-03    0.386E-02
RMM:   9    -0.232061646486E+04    0.10553E-04   -0.43791E-05  3064   0.654E-03    0.130E-02
RMM:  10    -0.232061646900E+04   -0.41411E-05   -0.24321E-05  2943   0.459E-03
  26 F= -.23410696E+04 E0= -.23410696E+04  d E =-.154390E-01  mag=     2.9998
       N       E                     dE             d eps       ncg     rms          rms(c)
DAV:   1    -0.232055943563E+04    0.57029E-01   -0.75632E+00  4432   0.278E+00    0.649E-01
RMM:   2    -0.232062317449E+04   -0.63739E-01   -0.65633E-01  6140   0.537E-01    0.579E-01
RMM:   3    -0.232062681998E+04   -0.36455E-02   -0.49897E-02  5680   0.157E-01    0.696E-01
RMM:   4    -0.232062239411E+04    0.44259E-02   -0.62621E-03  5902   0.430E-02    0.202E-01
RMM:   5    -0.232062181275E+04    0.58136E-03   -0.12040E-03  4906   0.240E-02    0.110E-01
RMM:   6    -0.232062172287E+04    0.89872E-04   -0.78219E-04  4773   0.249E-02    0.462E-02
RMM:   7    -0.232062170322E+04    0.19650E-04   -0.11262E-04  4174   0.103E-02    0.231E-02
RMM:   8    -0.232062169955E+04    0.36749E-05   -0.17439E-05  2917   0.454E-03
  27 F= -.23410748E+04 E0= -.23410748E+04  d E =-.205859E-01  mag=     2.9999
       N       E                     dE             d eps       ncg     rms          rms(c)
DAV:   1    -0.232058022596E+04    0.41477E-01   -0.59349E+00  4432   0.250E+00    0.626E-01
RMM:   2    -0.232064088490E+04   -0.60659E-01   -0.59055E-01  6242   0.528E-01    0.852E-01
RMM:   3    -0.232063763962E+04    0.32453E-02   -0.46606E-02  5723   0.137E-01    0.511E-01
RMM:   4    -0.232063547468E+04    0.21649E-02   -0.54318E-03  5542   0.372E-02    0.192E-01
RMM:   5    -0.232063499595E+04    0.47873E-03   -0.10999E-03  5172   0.237E-02    0.104E-01
RMM:   6    -0.232063492360E+04    0.72352E-04   -0.79069E-04  4902   0.208E-02    0.448E-02
RMM:   7    -0.232063490423E+04    0.19365E-04   -0.11071E-04  4029   0.111E-02    0.227E-02
RMM:   8    -0.232063490395E+04    0.28132E-06   -0.19312E-05  2945   0.396E-03
  28 F= -.23410877E+04 E0= -.23410877E+04  d E =-.129518E-01  mag=     2.9999
       N       E                     dE             d eps       ncg     rms          rms(c)
DAV:   1    -0.232051674808E+04    0.11816E+00   -0.13244E+01  4432   0.374E+00    0.944E-01
RMM:   2    -0.232065549821E+04   -0.13875E+00   -0.13386E+00  6257   0.802E-01    0.134E+00
RMM:   3    -0.232064533242E+04    0.10166E-01   -0.10580E-01  5693   0.211E-01    0.724E-01
RMM:   4    -0.232064120067E+04    0.41318E-02   -0.12313E-02  5614   0.561E-02    0.286E-01
RMM:   5    -0.232064028788E+04    0.91278E-03   -0.24241E-03  5233   0.351E-02    0.166E-01
RMM:   6    -0.232064012013E+04    0.16776E-03   -0.19470E-03  5024   0.314E-02    0.806E-02
RMM:   7    -0.232064004793E+04    0.72203E-04   -0.29387E-04  4881   0.173E-02    0.319E-02
RMM:   8    -0.232064005357E+04   -0.56417E-05   -0.42600E-05  3127   0.497E-03
  29 F= -.23410925E+04 E0= -.23410925E+04  d E =-.177489E-01  mag=     2.9998
       N       E                     dE             d eps       ncg     rms          rms(c)
DAV:   1    -0.232059609815E+04    0.43950E-01   -0.60635E+00  4472   0.251E+00    0.590E-01
RMM:   2    -0.232065404680E+04   -0.57949E-01   -0.58207E-01  6265   0.528E-01    0.683E-01
RMM:   3    -0.232065321646E+04    0.83034E-03   -0.42458E-02  5825   0.133E-01    0.533E-01
RMM:   4    -0.232065081926E+04    0.23972E-02   -0.50661E-03  5675   0.370E-02    0.195E-01
RMM:   5    -0.232065038013E+04    0.43913E-03   -0.10649E-03  5044   0.227E-02    0.103E-01
RMM:   6    -0.232065035782E+04    0.22308E-04   -0.67011E-04  5130   0.202E-02    0.594E-02
RMM:   7    -0.232065033486E+04    0.22958E-04   -0.13676E-04  4257   0.100E-02    0.252E-02
RMM:   8    -0.232065033424E+04    0.61924E-06   -0.20310E-05  2897   0.459E-03
  30 F= -.23411029E+04 E0= -.23411029E+04  d E =-.104086E-01  mag=     2.9998
       N       E                     dE             d eps       ncg     rms          rms(c)
DAV:   1    -0.232038719100E+04    0.26314E+00   -0.30024E+01  4464   0.558E+00    0.132E+00
RMM:   2    -0.232068072696E+04   -0.29354E+00   -0.29289E+00  6270   0.119E+00    0.158E+00
RMM:   3    -0.232067269028E+04    0.80367E-02   -0.21708E-01  5803   0.299E-01    0.115E+00
RMM:   4    -0.232066186881E+04    0.10821E-01   -0.25341E-02  5743   0.828E-02    0.433E-01
RMM:   5    -0.232065980718E+04    0.20616E-02   -0.54558E-03  5094   0.510E-02    0.220E-01
RMM:   6    -0.232065961742E+04    0.18976E-03   -0.30684E-03  5003   0.437E-02    0.106E-01
RMM:   7    -0.232065960401E+04    0.13416E-04   -0.55028E-04  5259   0.216E-02    0.623E-02
RMM:   8    -0.232065957214E+04    0.31873E-04   -0.10779E-04  3490   0.795E-03    0.315E-02
RMM:   9    -0.232065957228E+04   -0.14773E-06   -0.35377E-05  2950   0.564E-03
  31 F= -.23411125E+04 E0= -.23411125E+04  d E =-.199649E-01  mag=     2.9998
       N       E                     dE             d eps       ncg     rms          rms(c)
DAV:   1    -0.232060759573E+04    0.51976E-01   -0.73371E+00  4440   0.271E+00    0.679E-01
RMM:   2    -0.232067818173E+04   -0.70586E-01   -0.75362E-01  6241   0.585E-01    0.479E-01
RMM:   3    -0.232067952410E+04   -0.13424E-02   -0.48889E-02  5935   0.145E-01    0.566E-01
RMM:   4    -0.232067691242E+04    0.26117E-02   -0.60337E-03  5857   0.417E-02    0.253E-01
RMM:   5    -0.232067634538E+04    0.56705E-03   -0.15295E-03  5680   0.260E-02    0.159E-01
RMM:   6    -0.232067605722E+04    0.28816E-03   -0.10945E-03  5342   0.224E-02    0.648E-02
RMM:   7    -0.232067601849E+04    0.38725E-04   -0.16646E-04  4292   0.126E-02    0.242E-02
RMM:   8    -0.232067601347E+04    0.50257E-05   -0.31734E-05  2978   0.564E-03
  32 F= -.23411291E+04 E0= -.23411291E+04  d E =-.165925E-01  mag=     2.9998
       N       E                     dE             d eps       ncg     rms          rms(c)
DAV:   1    -0.232065062990E+04    0.25389E-01   -0.30642E+00  4480   0.175E+00    0.443E-01
RMM:   2    -0.232068024511E+04   -0.29615E-01   -0.31510E-01  6251   0.377E-01    0.336E-01
RMM:   3    -0.232068085844E+04   -0.61333E-03   -0.20052E-02  5907   0.950E-02    0.395E-01
RMM:   4    -0.232067952007E+04    0.13384E-02   -0.25328E-03  5577   0.276E-02    0.161E-01
RMM:   5    -0.232067929025E+04    0.22983E-03   -0.64490E-04  5260   0.172E-02    0.102E-01
RMM:   6    -0.232067916517E+04    0.12507E-03   -0.46301E-04  5117   0.153E-02    0.406E-02
RMM:   7    -0.232067914735E+04    0.17818E-04   -0.66399E-05  3480   0.867E-03    0.150E-02
RMM:   8    -0.232067914460E+04    0.27499E-05   -0.13193E-05  2876   0.415E-03
  33 F= -.23411323E+04 E0= -.23411323E+04  d E =-.198284E-01  mag=     2.9998
       N       E                     dE             d eps       ncg     rms          rms(c)
DAV:   1    -0.232062387578E+04    0.55272E-01   -0.77849E+00  4432   0.274E+00    0.660E-01
RMM:   2    -0.232069585953E+04   -0.71984E-01   -0.76605E-01  6234   0.579E-01    0.419E-01
RMM:   3    -0.232069684924E+04   -0.98971E-03   -0.44896E-02  5865   0.147E-01    0.504E-01
RMM:   4    -0.232069485618E+04    0.19931E-02   -0.54157E-03  5882   0.397E-02    0.263E-01
RMM:   5    -0.232069422683E+04    0.62935E-03   -0.15614E-03  5500   0.257E-02    0.152E-01
RMM:   6    -0.232069393412E+04    0.29271E-03   -0.11198E-03  5449   0.232E-02    0.559E-02
RMM:   7    -0.232069391470E+04    0.19415E-04   -0.12755E-04  4010   0.111E-02    0.223E-02
RMM:   8    -0.232069391018E+04    0.45201E-05   -0.22447E-05  2923   0.474E-03
  34 F= -.23411472E+04 E0= -.23411472E+04  d E =-.148680E-01  mag=     2.9999
       N       E                     dE             d eps       ncg     rms          rms(c)
DAV:   1    -0.232064863404E+04    0.45281E-01   -0.54648E+00  4432   0.229E+00    0.555E-01
RMM:   2    -0.232069919235E+04   -0.50558E-01   -0.53719E-01  6211   0.482E-01    0.366E-01
RMM:   3    -0.232070002171E+04   -0.82936E-03   -0.30862E-02  5841   0.123E-01    0.454E-01
RMM:   4    -0.232069830801E+04    0.17137E-02   -0.38014E-03  5766   0.336E-02    0.216E-01
RMM:   5    -0.232069788990E+04    0.41812E-03   -0.11309E-03  5377   0.215E-02    0.129E-01
RMM:   6    -0.232069767306E+04    0.21684E-03   -0.79969E-04  5345   0.199E-02    0.458E-02
RMM:   7    -0.232069766035E+04    0.12709E-04   -0.93476E-05  3616   0.973E-03    0.185E-02
RMM:   8    -0.232069765705E+04    0.33067E-05   -0.15545E-05  2889   0.420E-03
  35 F= -.23411510E+04 E0= -.23411510E+04  d E =-.187091E-01  mag=     2.9999
       N       E                     dE             d eps       ncg     rms          rms(c)
DAV:   1    -0.232063961855E+04    0.58042E-01   -0.93935E+00  4432   0.295E+00    0.697E-01
RMM:   2    -0.232071362318E+04   -0.74005E-01   -0.76636E-01  6253   0.611E-01    0.617E-01
RMM:   3    -0.232071557655E+04   -0.19534E-02   -0.47741E-02  5918   0.147E-01    0.724E-01
RMM:   4    -0.232071097824E+04    0.45983E-02   -0.63222E-03  5818   0.444E-02    0.233E-01
RMM:   5    -0.232071050236E+04    0.47588E-03   -0.16475E-03  5458   0.264E-02    0.160E-01
RMM:   6    -0.232071020245E+04    0.29991E-03   -0.10808E-03  5405   0.234E-02    0.638E-02
RMM:   7    -0.232071017651E+04    0.25937E-04   -0.16655E-04  4263   0.125E-02    0.225E-02
RMM:   8    -0.232071017550E+04    0.10142E-05   -0.27677E-05  2937   0.539E-03
  36 F= -.23411643E+04 E0= -.23411643E+04  d E =-.133215E-01  mag=     2.9999
       N       E                     dE             d eps       ncg     rms          rms(c)
DAV:   1    -0.232066861899E+04    0.41558E-01   -0.58124E+00  4432   0.232E+00    0.551E-01
RMM:   2    -0.232071449810E+04   -0.45879E-01   -0.47370E-01  6242   0.482E-01    0.503E-01
RMM:   3    -0.232071555318E+04   -0.10551E-02   -0.29340E-02  5896   0.116E-01    0.571E-01
RMM:   4    -0.232071267234E+04    0.28808E-02   -0.39029E-03  5708   0.349E-02    0.182E-01
RMM:   5    -0.232071238419E+04    0.28816E-03   -0.10388E-03  5309   0.210E-02    0.126E-01
RMM:   6    -0.232071219492E+04    0.18927E-03   -0.68130E-04  5272   0.188E-02    0.489E-02
RMM:   7    -0.232071217992E+04    0.14998E-04   -0.99744E-05  3788   0.101E-02    0.173E-02
RMM:   8    -0.232071217990E+04    0.18394E-07   -0.18191E-05  2901   0.450E-03
  37 F= -.23411670E+04 E0= -.23411670E+04  d E =-.159678E-01  mag=     2.9999
       N       E                     dE             d eps       ncg     rms          rms(c)
DAV:   1    -0.232063908552E+04    0.73094E-01   -0.10254E+01  4432   0.307E+00    0.778E-01
RMM:   2    -0.232073164849E+04   -0.92563E-01   -0.91641E-01  6307   0.676E-01    0.954E-01
RMM:   3    -0.232072895212E+04    0.26964E-02   -0.64946E-02  5960   0.164E-01    0.712E-01
RMM:   4    -0.232072463965E+04    0.43125E-02   -0.77972E-03  5645   0.460E-02    0.239E-01
RMM:   5    -0.232072395562E+04    0.68403E-03   -0.17333E-03  5031   0.291E-02    0.133E-01
RMM:   6    -0.232072388284E+04    0.72779E-04   -0.10934E-03  5366   0.255E-02    0.778E-02
RMM:   7    -0.232072382719E+04    0.55655E-04   -0.21555E-04  4475   0.112E-02    0.271E-02
RMM:   8    -0.232072382563E+04    0.15579E-05   -0.27562E-05  2938   0.527E-03
  38 F= -.23411793E+04 E0= -.23411793E+04  d E =-.122735E-01  mag=     2.9999
       N       E                     dE             d eps       ncg     rms          rms(c)
DAV:   1    -0.232067409122E+04    0.49736E-01   -0.62651E+00  4440   0.240E+00    0.608E-01
RMM:   2    -0.232073063539E+04   -0.56544E-01   -0.55999E-01  6300   0.528E-01    0.745E-01
RMM:   3    -0.232072894575E+04    0.16896E-02   -0.39557E-02  5957   0.128E-01    0.553E-01
RMM:   4    -0.232072631004E+04    0.26357E-02   -0.47406E-03  5589   0.358E-02    0.187E-01
RMM:   5    -0.232072588023E+04    0.42981E-03   -0.10533E-03  4980   0.228E-02    0.106E-01
RMM:   6    -0.232072583483E+04    0.45402E-04   -0.67361E-04  5232   0.201E-02    0.606E-02
RMM:   7    -0.232072580278E+04    0.32044E-04   -0.12946E-04  3970   0.894E-03    0.206E-02
RMM:   8    -0.232072580420E+04   -0.14203E-05   -0.16829E-05  2893   0.464E-03
  39 F= -.23411817E+04 E0= -.23411817E+04  d E =-.147470E-01  mag=     2.9999
       N       E                     dE             d eps       ncg     rms          rms(c)
DAV:   1    -0.232064510624E+04    0.80697E-01   -0.94568E+00  4432   0.299E+00    0.795E-01
RMM:   2    -0.232074916446E+04   -0.10406E+00   -0.10042E+00  6310   0.685E-01    0.110E+00
RMM:   3    -0.232074206027E+04    0.71042E-02   -0.71123E-02  5957   0.168E-01    0.643E-01
RMM:   4    -0.232073864303E+04    0.34172E-02   -0.83305E-03  5574   0.450E-02    0.242E-01
RMM:   5    -0.232073794327E+04    0.69977E-03   -0.18101E-03  5059   0.300E-02    0.121E-01
RMM:   6    -0.232073789541E+04    0.47857E-04   -0.92246E-04  4831   0.252E-02    0.450E-02
RMM:   7    -0.232073790748E+04   -0.12069E-04   -0.15299E-04  4062   0.101E-02    0.320E-02
RMM:   8    -0.232073790391E+04    0.35744E-05   -0.31070E-05  2986   0.551E-03
  40 F= -.23411939E+04 E0= -.23411939E+04  d E =-.121549E-01  mag=     2.9999
       N       E                     dE             d eps       ncg     rms          rms(c)
DAV:   1    -0.232069060797E+04    0.47300E-01   -0.50590E+00  4440   0.218E+00    0.582E-01
RMM:   2    -0.232074620590E+04   -0.55598E-01   -0.53660E-01  6295   0.503E-01    0.808E-01
RMM:   3    -0.232074246193E+04    0.37440E-02   -0.37978E-02  5967   0.125E-01    0.470E-01
RMM:   4    -0.232074061406E+04    0.18479E-02   -0.44660E-03  5495   0.329E-02    0.177E-01
RMM:   5    -0.232074021958E+04    0.39448E-03   -0.97355E-04  5016   0.222E-02    0.889E-02
RMM:   6    -0.232074019680E+04    0.22780E-04   -0.50240E-04  4729   0.187E-02    0.388E-02
RMM:   7    -0.232074019647E+04    0.32867E-06   -0.91806E-05  3644   0.781E-03
  41 F= -.23411962E+04 E0= -.23411962E+04  d E =-.144978E-01  mag=     2.9999
       N       E                     dE             d eps       ncg     rms          rms(c)
DAV:   1    -0.232065842634E+04    0.81770E-01   -0.90355E+00  4464   0.290E+00    0.757E-01
RMM:   2    -0.232075919325E+04   -0.10077E+00   -0.10253E+00  6276   0.655E-01    0.791E-01
RMM:   3    -0.232075834906E+04    0.84419E-03   -0.69586E-02  5975   0.160E-01    0.720E-01
RMM:   4    -0.232075391449E+04    0.44346E-02   -0.84153E-03  5822   0.458E-02    0.262E-01
RMM:   5    -0.232075331862E+04    0.59588E-03   -0.16428E-03  5543   0.261E-02    0.173E-01
RMM:   6    -0.232075302796E+04    0.29065E-03   -0.13393E-03  5330   0.242E-02    0.805E-02
RMM:   7    -0.232075298896E+04    0.39001E-04   -0.23607E-04  4418   0.135E-02    0.279E-02
RMM:   8    -0.232075299337E+04   -0.44084E-05   -0.38640E-05  3000   0.619E-03
  42 F= -.23412089E+04 E0= -.23412089E+04  d E =-.126416E-01  mag=     2.9999
       N       E                     dE             d eps       ncg     rms          rms(c)
DAV:   1    -0.232065452127E+04    0.98468E-01   -0.98617E+00  4464   0.303E+00    0.789E-01
RMM:   2    -0.232076362369E+04   -0.10910E+00   -0.11083E+00  6282   0.685E-01    0.821E-01
RMM:   3    -0.232076343544E+04    0.18825E-03   -0.79837E-02  5967   0.172E-01    0.742E-01
RMM:   4    -0.232075864826E+04    0.47872E-02   -0.93155E-03  5827   0.480E-02    0.276E-01
RMM:   5    -0.232075795977E+04    0.68849E-03   -0.17921E-03  5551   0.273E-02    0.179E-01
RMM:   6    -0.232075765079E+04    0.30898E-03   -0.14949E-03  5328   0.254E-02    0.873E-02
RMM:   7    -0.232075759378E+04    0.57005E-04   -0.27488E-04  4533   0.143E-02    0.301E-02
RMM:   8    -0.232075759682E+04   -0.30319E-05   -0.46440E-05  3048   0.654E-03
  43 F= -.23412133E+04 E0= -.23412133E+04  d E =-.171184E-01  mag=     2.9999
       N       E                     dE             d eps       ncg     rms          rms(c)
DAV:   1    -0.232065707127E+04    0.10052E+00   -0.96534E+00  4432   0.298E+00    0.765E-01
RMM:   2    -0.232077531897E+04   -0.11825E+00   -0.12123E+00  6292   0.687E-01    0.764E-01
RMM:   3    -0.232077654472E+04   -0.12257E-02   -0.87313E-02  5949   0.174E-01    0.719E-01
RMM:   4    -0.232077207664E+04    0.44681E-02   -0.98052E-03  5827   0.472E-02    0.291E-01
RMM:   5    -0.232077131983E+04    0.75680E-03   -0.17058E-03  5552   0.258E-02    0.185E-01
RMM:   6    -0.232077095696E+04    0.36288E-03   -0.16479E-03  5293   0.256E-02    0.906E-02
RMM:   7    -0.232077090616E+04    0.50800E-04   -0.31110E-04  4389   0.148E-02    0.333E-02
RMM:   8    -0.232077090924E+04   -0.30801E-05   -0.55324E-05  3097   0.694E-03
  44 F= -.23412264E+04 E0= -.23412263E+04  d E =-.130099E-01  mag=     2.9999
       N       E                     dE             d eps       ncg     rms          rms(c)
DAV:   1    -0.232032481370E+04    0.44609E+00   -0.37218E+01  4432   0.590E+00    0.151E+00
RMM:   2    -0.232078817489E+04   -0.46336E+00   -0.47168E+00  6304   0.136E+00    0.151E+00
RMM:   3    -0.232079505301E+04   -0.68781E-02   -0.34726E-01  5966   0.345E-01    0.146E+00
RMM:   4    -0.232077680001E+04    0.18253E-01   -0.38487E-02  5834   0.947E-02    0.577E-01
RMM:   5    -0.232077403133E+04    0.27687E-02   -0.72313E-03  5718   0.520E-02    0.357E-01
RMM:   6    -0.232077287869E+04    0.11526E-02   -0.58334E-03  5349   0.470E-02    0.196E-01
RMM:   7    -0.232077259162E+04    0.28707E-03   -0.13499E-03  4849   0.289E-02    0.721E-02
RMM:   8    -0.232077260267E+04   -0.11048E-04   -0.25791E-04  4237   0.143E-02    0.539E-02
RMM:   9    -0.232077259634E+04    0.63273E-05   -0.59071E-05  3068   0.749E-03
  45 F= -.23412276E+04 E0= -.23412276E+04  d E =-.142244E-01  mag=     2.9999
       N       E                     dE             d eps       ncg     rms          rms(c)
DAV:   1    -0.232068372433E+04    0.88878E-01   -0.78102E+00  4432   0.270E+00    0.685E-01
RMM:   2    -0.232078062411E+04   -0.96900E-01   -0.99284E-01  6293   0.618E-01    0.713E-01
RMM:   3    -0.232078105909E+04   -0.43498E-03   -0.68628E-02  5925   0.163E-01    0.685E-01
RMM:   4    -0.232077680582E+04    0.42533E-02   -0.80041E-03  5892   0.422E-02    0.257E-01
RMM:   5    -0.232077619076E+04    0.61506E-03   -0.12866E-03  5098   0.208E-02    0.174E-01
RMM:   6    -0.232077581178E+04    0.37898E-03   -0.15721E-03  5044   0.292E-02    0.655E-02
RMM:   7    -0.232077579024E+04    0.21537E-04   -0.22362E-04  4328   0.129E-02    0.309E-02
RMM:   8    -0.232077578259E+04    0.76558E-05   -0.29188E-05  2944   0.538E-03
  46 F= -.23412310E+04 E0= -.23412309E+04  d E =-.176071E-01  mag=     2.9999
       N       E                     dE             d eps       ncg     rms          rms(c)
DAV:   1    -0.232065028286E+04    0.12551E+00   -0.12534E+01  4432   0.337E+00    0.891E-01
RMM:   2    -0.232079750364E+04   -0.14722E+00   -0.14557E+00  6296   0.772E-01    0.111E+00
RMM:   3    -0.232079386461E+04    0.36390E-02   -0.10877E-01  5931   0.199E-01    0.799E-01
RMM:   4    -0.232078829925E+04    0.55654E-02   -0.12254E-02  5643   0.529E-02    0.296E-01
RMM:   5    -0.232078740955E+04    0.88970E-03   -0.24111E-03  5439   0.315E-02    0.178E-01
RMM:   6    -0.232078716162E+04    0.24793E-03   -0.15754E-03  5451   0.266E-02    0.103E-01
RMM:   7    -0.232078706700E+04    0.94622E-04   -0.37680E-04  4724   0.148E-02    0.359E-02
RMM:   8    -0.232078706807E+04   -0.10775E-05   -0.52485E-05  3087   0.716E-03
  47 F= -.23412423E+04 E0= -.23412423E+04  d E =-.113654E-01  mag=     2.9999
       N       E                     dE             d eps       ncg     rms          rms(c)
DAV:   1    -0.232074192948E+04    0.45138E-01   -0.42196E+00  4480   0.196E+00    0.522E-01
RMM:   2    -0.232079189117E+04   -0.49962E-01   -0.49110E-01  6269   0.451E-01    0.669E-01
RMM:   3    -0.232079024668E+04    0.16445E-02   -0.35994E-02  5938   0.118E-01    0.460E-01
RMM:   4    -0.232078837239E+04    0.18743E-02   -0.41379E-03  5427   0.306E-02    0.170E-01
RMM:   5    -0.232078807199E+04    0.30040E-03   -0.78194E-04  5150   0.183E-02    0.106E-01
RMM:   6    -0.232078797021E+04    0.10178E-03   -0.54620E-04  5142   0.163E-02    0.583E-02
RMM:   7    -0.232078794247E+04    0.27743E-04   -0.11852E-04  3794   0.918E-03    0.205E-02
RMM:   8    -0.232078794502E+04   -0.25552E-05   -0.17974E-05  2889   0.494E-03
  48 F= -.23412433E+04 E0= -.23412433E+04  d E =-.123087E-01  mag=     2.9999
       N       E                     dE             d eps       ncg     rms          rms(c)
DAV:   1    -0.232066046764E+04    0.12747E+00   -0.14177E+01  4432   0.344E+00    0.914E-01
RMM:   2    -0.232081074549E+04   -0.15028E+00   -0.14709E+00  6319   0.787E-01    0.121E+00
RMM:   3    -0.232080449553E+04    0.62500E-02   -0.11076E-01  5936   0.196E-01    0.801E-01
RMM:   4    -0.232079922327E+04    0.52723E-02   -0.12744E-02  5634   0.520E-02    0.298E-01
RMM:   5    -0.232079836014E+04    0.86313E-03   -0.22023E-03  5323   0.303E-02    0.183E-01
RMM:   6    -0.232079815777E+04    0.20237E-03   -0.17280E-03  5387   0.277E-02    0.107E-01
RMM:   7    -0.232079805885E+04    0.98917E-04   -0.36501E-04  4672   0.148E-02    0.360E-02
RMM:   8    -0.232079806418E+04   -0.53271E-05   -0.53175E-05  3050   0.681E-03
  49 F= -.23412537E+04 E0= -.23412537E+04  d E =-.104574E-01  mag=     2.9999
       N       E                     dE             d eps       ncg     rms          rms(c)
DAV:   1    -0.232065917421E+04    0.13888E+00   -0.14621E+01  4432   0.348E+00    0.929E-01
RMM:   2    -0.232081421485E+04   -0.15504E+00   -0.15169E+00  6312   0.798E-01    0.123E+00
RMM:   3    -0.232080755694E+04    0.66579E-02   -0.11411E-01  5937   0.199E-01    0.810E-01
RMM:   4    -0.232080219699E+04    0.53599E-02   -0.13126E-02  5636   0.527E-02    0.302E-01
RMM:   5    -0.232080131871E+04    0.87829E-03   -0.22721E-03  5295   0.307E-02    0.185E-01
RMM:   6    -0.232080112571E+04    0.19300E-03   -0.17852E-03  5395   0.282E-02    0.108E-01
RMM:   7    -0.232080102733E+04    0.98381E-04   -0.37416E-04  4692   0.150E-02    0.367E-02
RMM:   8    -0.232080103471E+04   -0.73843E-05   -0.55009E-05  3066   0.685E-03
  50 F= -.23412571E+04 E0= -.23412571E+04  d E =-.138053E-01  mag=     2.9999
       N       E                     dE             d eps       ncg     rms          rms(c)
DAV:   1    -0.232066677129E+04    0.13426E+00   -0.15498E+01  4464   0.352E+00    0.985E-01
RMM:   2    -0.232082970873E+04   -0.16294E+00   -0.15779E+00  6297   0.820E-01    0.134E+00
RMM:   3    -0.232081990211E+04    0.98066E-02   -0.11803E-01  5943   0.206E-01    0.824E-01
RMM:   4    -0.232081425438E+04    0.56477E-02   -0.13589E-02  5646   0.542E-02    0.303E-01
RMM:   5    -0.232081325694E+04    0.99744E-03   -0.27099E-03  5161   0.340E-02    0.170E-01
RMM:   6    -0.232081315601E+04    0.10092E-03   -0.16373E-03  5386   0.292E-02    0.967E-02
RMM:   7    -0.232081308087E+04    0.75144E-04   -0.34190E-04  4714   0.131E-02    0.405E-02
RMM:   8    -0.232081307530E+04    0.55670E-05   -0.51953E-05  3014   0.642E-03
  51 F= -.23412696E+04 E0= -.23412696E+04  d E =-.125656E-01  mag=     2.9999
       N       E                     dE             d eps       ncg     rms          rms(c)
DAV:   1    -0.232079322947E+04    0.19851E-01   -0.21794E+00  4560   0.132E+00    0.369E-01
RMM:   2    -0.232081587299E+04   -0.22644E-01   -0.22017E-01  6300   0.305E-01    0.490E-01
RMM:   3    -0.232081468438E+04    0.11886E-02   -0.16141E-02  5877   0.782E-02    0.316E-01
RMM:   4    -0.232081382816E+04    0.85622E-03   -0.18819E-03  5224   0.205E-02    0.114E-01
RMM:   5    -0.232081368752E+04    0.14064E-03   -0.36909E-04  4549   0.131E-02    0.677E-02
RMM:   6    -0.232081366560E+04    0.21927E-04   -0.25106E-04  4570   0.119E-02    0.381E-02
RMM:   7    -0.232081365316E+04    0.12438E-04   -0.50412E-05  3163   0.638E-03    0.142E-02
RMM:   8    -0.232081365346E+04   -0.30131E-06   -0.88161E-06  2856   0.379E-03
  52 F= -.23412704E+04 E0= -.23412704E+04  d E =-.133479E-01  mag=     3.0000
       N       E                     dE             d eps       ncg     rms          rms(c)
DAV:   1    -0.232067839473E+04    0.13526E+00   -0.15415E+01  4432   0.350E+00    0.930E-01
RMM:   2    -0.232084145356E+04   -0.16306E+00   -0.15957E+00  6346   0.812E-01    0.126E+00
RMM:   3    -0.232083317123E+04    0.82823E-02   -0.11202E-01  6017   0.194E-01    0.817E-01
RMM:   4    -0.232082761017E+04    0.55611E-02   -0.12858E-02  5641   0.524E-02    0.301E-01
RMM:   5    -0.232082665356E+04    0.95661E-03   -0.25277E-03  5366   0.325E-02    0.184E-01
RMM:   6    -0.232082643389E+04    0.21967E-03   -0.16614E-03  5488   0.276E-02    0.105E-01
RMM:   7    -0.232082633489E+04    0.98999E-04   -0.35334E-04  4523   0.137E-02    0.363E-02
RMM:   8    -0.232082633332E+04    0.15738E-05   -0.49562E-05  2995   0.685E-03
  53 F= -.23412836E+04 E0= -.23412836E+04  d E =-.131629E-01  mag=     3.0000
       N       E                     dE             d eps       ncg     rms          rms(c)
DAV:   1    -0.232050788949E+04    0.31845E+00   -0.32989E+01  4432   0.511E+00    0.137E+00
RMM:   2    -0.232086032800E+04   -0.35244E+00   -0.34505E+00  6347   0.120E+00    0.184E+00
RMM:   3    -0.232084295875E+04    0.17369E-01   -0.24310E-01  6000   0.287E-01    0.122E+00
RMM:   4    -0.232083075430E+04    0.12204E-01   -0.27774E-02  5704   0.780E-02    0.440E-01
RMM:   5    -0.232082871702E+04    0.20373E-02   -0.53855E-03  5312   0.473E-02    0.261E-01
RMM:   6    -0.232082833676E+04    0.38027E-03   -0.34120E-03  5564   0.397E-02    0.159E-01
RMM:   7    -0.232082811406E+04    0.22269E-03   -0.79869E-04  5136   0.198E-02    0.559E-02
RMM:   8    -0.232082810478E+04    0.92860E-05   -0.11501E-04  3327   0.925E-03    0.333E-02
RMM:   9    -0.232082810348E+04    0.12929E-05   -0.36331E-05  2963   0.549E-03
  54 F= -.23412861E+04 E0= -.23412861E+04  d E =-.156819E-01  mag=     3.0000
       N       E                     dE             d eps       ncg     rms          rms(c)
DAV:   1    -0.232078429324E+04    0.43812E-01   -0.47892E+00  4440   0.194E+00    0.516E-01
RMM:   2    -0.232083549350E+04   -0.51200E-01   -0.49943E-01  6342   0.451E-01    0.719E-01
RMM:   3    -0.232083214274E+04    0.33508E-02   -0.31688E-02  6042   0.108E-01    0.451E-01
RMM:   4    -0.232083030322E+04    0.18395E-02   -0.38286E-03  5475   0.288E-02    0.170E-01
RMM:   5    -0.232083003304E+04    0.27018E-03   -0.70143E-04  4899   0.168E-02    0.119E-01
RMM:   6    -0.232082987673E+04    0.15631E-03   -0.62692E-04  4967   0.192E-02    0.453E-02
RMM:   7    -0.232082986537E+04    0.11367E-04   -0.89667E-05  3381   0.864E-03    0.223E-02
RMM:   8    -0.232082986203E+04    0.33393E-05   -0.11380E-05  2881   0.406E-03
  55 F= -.23412876E+04 E0= -.23412876E+04  d E =-.171495E-01  mag=     3.0000
       N       E                     dE             d eps       ncg     rms          rms(c)
DAV:   1    -0.232073370539E+04    0.96160E-01   -0.11086E+01  4432   0.297E+00    0.760E-01
RMM:   2    -0.232084771548E+04   -0.11401E+00   -0.11584E+00  6339   0.680E-01    0.805E-01
RMM:   3    -0.232084829026E+04   -0.57478E-03   -0.83795E-02  6044   0.164E-01    0.741E-01
RMM:   4    -0.232084347078E+04    0.48195E-02   -0.93873E-03  5801   0.457E-02    0.277E-01
RMM:   5    -0.232084277133E+04    0.69945E-03   -0.17051E-03  5528   0.254E-02    0.188E-01
RMM:   6    -0.232084235679E+04    0.41454E-03   -0.16446E-03  5283   0.257E-02    0.842E-02
RMM:   7    -0.232084230232E+04    0.54471E-04   -0.25079E-04  4236   0.140E-02    0.306E-02
RMM:   8    -0.232084229824E+04    0.40781E-05   -0.43732E-05  3007   0.604E-03
  56 F= -.23413004E+04 E0= -.23413004E+04  d E =-.128805E-01  mag=     3.0000
       N       E                     dE             d eps       ncg     rms          rms(c)
DAV:   1    -0.232057561939E+04    0.26668E+00   -0.27649E+01  4432   0.469E+00    0.121E+00
RMM:   2    -0.232086309078E+04   -0.28747E+00   -0.29290E+00  6338   0.108E+00    0.125E+00
RMM:   3    -0.232086482690E+04   -0.17361E-02   -0.20188E-01  6051   0.257E-01    0.123E+00
RMM:   4    -0.232085191912E+04    0.12908E-01   -0.23117E-02  5901   0.734E-02    0.435E-01
RMM:   5    -0.232085028356E+04    0.16356E-02   -0.42517E-03  5711   0.404E-02    0.297E-01
RMM:   6    -0.232084929753E+04    0.98603E-03   -0.39759E-03  5319   0.391E-02    0.138E-01
RMM:   7    -0.232084915893E+04    0.13861E-03   -0.63027E-04  4666   0.222E-02    0.505E-02
RMM:   8    -0.232084915241E+04    0.65189E-05   -0.12458E-04  3660   0.952E-03    0.329E-02
RMM:   9    -0.232084914914E+04    0.32653E-05   -0.31005E-05  2944   0.553E-03
  57 F= -.23413080E+04 E0= -.23413080E+04  d E =-.204674E-01  mag=     3.0000
       N       E                     dE             d eps       ncg     rms          rms(c)
DAV:   1    -0.232070740882E+04    0.14174E+00   -0.15222E+01  4432   0.350E+00    0.902E-01
RMM:   2    -0.232087252479E+04   -0.16512E+00   -0.16568E+00  6337   0.808E-01    0.106E+00
RMM:   3    -0.232087067760E+04    0.18472E-02   -0.11863E-01  6061   0.195E-01    0.874E-01
RMM:   4    -0.232086407422E+04    0.66034E-02   -0.13163E-02  5794   0.533E-02    0.315E-01
RMM:   5    -0.232086317672E+04    0.89750E-03   -0.24521E-03  5589   0.306E-02    0.212E-01
RMM:   6    -0.232086272539E+04    0.45133E-03   -0.19483E-03  5385   0.282E-02    0.103E-01
RMM:   7    -0.232086265283E+04    0.72563E-04   -0.33956E-04  4402   0.153E-02    0.352E-02
RMM:   8    -0.232086265305E+04   -0.22299E-06   -0.56135E-05  3081   0.705E-03
  58 F= -.23413221E+04 E0= -.23413221E+04  d E =-.140843E-01  mag=     3.0000
       N       E                     dE             d eps       ncg     rms          rms(c)
DAV:   1    -0.231995536148E+04    0.90729E+00   -0.85507E+01  4432   0.831E+00    0.216E+00
RMM:   2    -0.232090544493E+04   -0.95008E+00   -0.96661E+00  6337   0.195E+00    0.215E+00
RMM:   3    -0.232092032982E+04   -0.14885E-01   -0.64866E-01  6049   0.457E-01    0.238E+00
RMM:   4    -0.232087234492E+04    0.47985E-01   -0.75550E-02  5935   0.135E-01    0.757E-01
RMM:   5    -0.232086777907E+04    0.45659E-02   -0.13778E-02  5648   0.703E-02    0.509E-01
RMM:   6    -0.232086550522E+04    0.22739E-02   -0.10064E-02  5456   0.617E-02    0.275E-01
RMM:   7    -0.232086499054E+04    0.51467E-03   -0.24035E-03  5021   0.374E-02    0.105E-01
RMM:   8    -0.232086495143E+04    0.39109E-04   -0.45450E-04  4510   0.184E-02    0.632E-02
RMM:   9    -0.232086493101E+04    0.20426E-04   -0.10227E-04  3450   0.895E-03    0.258E-02
RMM:  10    -0.232086493367E+04   -0.26631E-05   -0.55323E-05  3090   0.609E-03
  59 F= -.23413258E+04 E0= -.23413258E+04  d E =-.178036E-01  mag=     3.0000
       N       E                     dE             d eps       ncg     rms          rms(c)
DAV:   1    -0.232072104398E+04    0.14389E+00   -0.14438E+01  4432   0.340E+00    0.902E-01
RMM:   2    -0.232088698943E+04   -0.16595E+00   -0.16245E+00  6329   0.807E-01    0.131E+00
RMM:   3    -0.232087589252E+04    0.11097E-01   -0.11054E-01  6039   0.200E-01    0.776E-01
RMM:   4    -0.232087048433E+04    0.54082E-02   -0.12487E-02  5743   0.504E-02    0.310E-01
RMM:   5    -0.232086965651E+04    0.82782E-03   -0.22672E-03  5327   0.270E-02    0.225E-01
RMM:   6    -0.232086904538E+04    0.61112E-03   -0.23411E-03  5101   0.355E-02    0.760E-02
RMM:   7    -0.232086902845E+04    0.16931E-04   -0.30153E-04  4429   0.150E-02    0.414E-02
RMM:   8    -0.232086901172E+04    0.16737E-04   -0.38325E-05  3016   0.541E-03    0.186E-02
RMM:   9    -0.232086900995E+04    0.17617E-05   -0.22922E-05  2996   0.380E-03
  60 F= -.23413293E+04 E0= -.23413293E+04  d E =-.212806E-01  mag=     3.0000
       N       E                     dE             d eps       ncg     rms          rms(c)
DAV:   1    -0.232070528709E+04    0.16372E+00   -0.18891E+01  4432   0.380E+00    0.102E+00
RMM:   2    -0.232090089437E+04   -0.19561E+00   -0.19302E+00  6344   0.883E-01    0.134E+00
RMM:   3    -0.232089300002E+04    0.78944E-02   -0.13195E-01  6060   0.208E-01    0.962E-01
RMM:   4    -0.232088518318E+04    0.78168E-02   -0.15076E-02  5739   0.577E-02    0.336E-01
RMM:   5    -0.232088412547E+04    0.10577E-02   -0.31561E-03  5545   0.349E-02    0.220E-01
RMM:   6    -0.232088370043E+04    0.42504E-03   -0.21819E-03  5502   0.299E-02    0.112E-01
RMM:   7    -0.232088359094E+04    0.10948E-03   -0.38457E-04  4502   0.152E-02    0.375E-02
RMM:   8    -0.232088358546E+04    0.54827E-05   -0.61142E-05  3091   0.736E-03
  61 F= -.23413440E+04 E0= -.23413440E+04  d E =-.147075E-01  mag=     3.0000
       N       E                     dE             d eps       ncg     rms          rms(c)
DAV:   1    -0.232021708763E+04    0.66650E+00   -0.68222E+01  4432   0.723E+00    0.194E+00
RMM:   2    -0.232093617557E+04   -0.71909E+00   -0.71527E+00  6335   0.170E+00    0.238E+00
RMM:   3    -0.232092019869E+04    0.15977E-01   -0.49234E-01  5983   0.398E-01    0.198E+00
RMM:   4    -0.232088760190E+04    0.32597E-01   -0.56551E-02  5810   0.115E-01    0.649E-01
RMM:   5    -0.232088394018E+04    0.36617E-02   -0.11459E-02  5531   0.649E-02    0.421E-01
RMM:   6    -0.232088264695E+04    0.12932E-02   -0.78450E-03  5561   0.548E-02    0.238E-01
RMM:   7    -0.232088215955E+04    0.48740E-03   -0.17207E-03  5178   0.304E-02    0.816E-02
RMM:   8    -0.232088213054E+04    0.29007E-04   -0.26599E-04  4228   0.138E-02    0.511E-02
RMM:   9    -0.232088211599E+04    0.14558E-04   -0.74640E-05  3288   0.737E-03    0.209E-02
RMM:  10    -0.232088211579E+04    0.19767E-06   -0.36878E-05  2971   0.528E-03
  62 F= -.23413428E+04 E0= -.23413428E+04  d E =-.134949E-01  mag=     3.0000
       N       E                     dE             d eps       ncg     rms          rms(c)
DAV:   1    -0.232070068470E+04    0.18143E+00   -0.19693E+01  4432   0.387E+00    0.107E+00
RMM:   2    -0.232091603297E+04   -0.21535E+00   -0.20734E+00  6342   0.915E-01    0.165E+00
RMM:   3    -0.232089681753E+04    0.19215E-01   -0.14267E-01  6064   0.228E-01    0.896E-01
RMM:   4    -0.232088961385E+04    0.72037E-02   -0.16032E-02  5721   0.577E-02    0.352E-01
RMM:   5    -0.232088857032E+04    0.10435E-02   -0.30806E-03  5304   0.319E-02    0.257E-01
RMM:   6    -0.232088778335E+04    0.78698E-03   -0.29642E-03  5159   0.404E-02    0.884E-02
RMM:   7    -0.232088775218E+04    0.31169E-04   -0.36726E-04  4635   0.166E-02    0.486E-02
RMM:   8    -0.232088773487E+04    0.17310E-04   -0.47351E-05  3054   0.615E-03    0.219E-02
RMM:   9    -0.232088773382E+04    0.10475E-05   -0.26123E-05  3016   0.413E-03
  63 F= -.23413483E+04 E0= -.23413483E+04  d E =-.189754E-01  mag=     3.0000
       N       E                     dE             d eps       ncg     rms          rms(c)
DAV:   1    -0.232072540481E+04    0.16233E+00   -0.20458E+01  4432   0.387E+00    0.104E+00
RMM:   2    -0.232091414701E+04   -0.18874E+00   -0.18737E+00  6306   0.884E-01    0.126E+00
RMM:   3    -0.232090937263E+04    0.47744E-02   -0.13396E-01  6004   0.211E-01    0.101E+00
RMM:   4    -0.232090077510E+04    0.85975E-02   -0.15175E-02  5776   0.599E-02    0.345E-01
RMM:   5    -0.232089969276E+04    0.10823E-02   -0.32973E-03  5615   0.360E-02    0.233E-01
RMM:   6    -0.232089917642E+04    0.51635E-03   -0.25252E-03  5485   0.321E-02    0.111E-01
RMM:   7    -0.232089907627E+04    0.10014E-03   -0.37207E-04  4482   0.163E-02    0.381E-02
RMM:   8    -0.232089906916E+04    0.71109E-05   -0.65770E-05  3120   0.725E-03
  64 F= -.23413599E+04 E0= -.23413599E+04  d E =-.115910E-01  mag=     3.0000
       N       E                     dE             d eps       ncg     rms          rms(c)
DAV:   1    -0.232089132596E+04    0.77503E-02   -0.94409E-01  4544   0.830E-01    0.228E-01
RMM:   2    -0.232090010103E+04   -0.87751E-02   -0.86272E-02  6303   0.190E-01    0.291E-01
RMM:   3    -0.232089975892E+04    0.34212E-03   -0.59703E-03  5618   0.471E-02    0.211E-01
RMM:   4    -0.232089937894E+04    0.37998E-03   -0.69137E-04  4215   0.130E-02    0.733E-02
RMM:   5    -0.232089932876E+04    0.50175E-04   -0.15207E-04  3712   0.841E-03    0.499E-02
RMM:   6    -0.232089930317E+04    0.25598E-04   -0.11990E-04  3870   0.846E-03    0.225E-02
RMM:   7    -0.232089929928E+04    0.38886E-05   -0.18239E-05  2911   0.512E-03
  65 F= -.23413602E+04 E0= -.23413602E+04  d E =-.118746E-01  mag=     3.0000
       N       E                     dE             d eps       ncg     rms          rms(c)
DAV:   1    -0.232080213465E+04    0.97169E-01   -0.13240E+01  4432   0.309E+00    0.804E-01
RMM:   2    -0.232092090094E+04   -0.11877E+00   -0.11645E+00  6326   0.697E-01    0.107E+00
RMM:   3    -0.232091552197E+04    0.53790E-02   -0.81142E-02  6046   0.167E-01    0.739E-01
RMM:   4    -0.232091103625E+04    0.44857E-02   -0.91133E-03  5639   0.454E-02    0.257E-01
RMM:   5    -0.232091039139E+04    0.64486E-03   -0.18953E-03  5391   0.275E-02    0.171E-01
RMM:   6    -0.232091012962E+04    0.26177E-03   -0.12985E-03  5445   0.238E-02    0.830E-02
RMM:   7    -0.232091007635E+04    0.53273E-04   -0.22113E-04  4154   0.121E-02    0.278E-02
RMM:   8    -0.232091007743E+04   -0.10837E-05   -0.33507E-05  2950   0.581E-03
  66 F= -.23413713E+04 E0= -.23413713E+04  d E =-.111412E-01  mag=     3.0000
       N       E                     dE             d eps       ncg     rms          rms(c)
DAV:   1    -0.232077883728E+04    0.13124E+00   -0.16546E+01  4432   0.344E+00    0.900E-01
RMM:   2    -0.232092778084E+04   -0.14894E+00   -0.14604E+00  6316   0.780E-01    0.120E+00
RMM:   3    -0.232092093316E+04    0.68477E-02   -0.10188E-01  6026   0.187E-01    0.827E-01
RMM:   4    -0.232091536736E+04    0.55658E-02   -0.11517E-02  5667   0.507E-02    0.287E-01
RMM:   5    -0.232091455025E+04    0.81711E-03   -0.23643E-03  5374   0.307E-02    0.189E-01
RMM:   6    -0.232091423854E+04    0.31171E-03   -0.16085E-03  5492   0.264E-02    0.953E-02
RMM:   7    -0.232091416749E+04    0.71049E-04   -0.28937E-04  4330   0.135E-02    0.314E-02
RMM:   8    -0.232091416912E+04   -0.16363E-05   -0.42633E-05  2989   0.637E-03
  67 F= -.23413758E+04 E0= -.23413758E+04  d E =-.156282E-01  mag=     3.0000
       N       E                     dE             d eps       ncg     rms          rms(c)
DAV:   1    -0.232085281898E+04    0.61349E-01   -0.86243E+00  4432   0.249E+00    0.634E-01
RMM:   2    -0.232092833346E+04   -0.75514E-01   -0.75919E-01  6294   0.558E-01    0.722E-01
RMM:   3    -0.232092782477E+04    0.50869E-03   -0.53631E-02  6019   0.138E-01    0.632E-01
RMM:   4    -0.232092439299E+04    0.34318E-02   -0.60176E-03  5667   0.377E-02    0.218E-01
RMM:   5    -0.232092395727E+04    0.43571E-03   -0.12671E-03  5329   0.220E-02    0.150E-01
RMM:   6    -0.232092369215E+04    0.26512E-03   -0.10513E-03  5203   0.209E-02    0.621E-02
RMM:   7    -0.232092366731E+04    0.24843E-04   -0.15073E-04  3832   0.116E-02    0.233E-02
RMM:   8    -0.232092366763E+04   -0.31680E-06   -0.26662E-05  2936   0.495E-03
  68 F= -.23413852E+04 E0= -.23413852E+04  d E =-.939209E-02  mag=     3.0000
       N       E                     dE             d eps       ncg     rms          rms(c)
DAV:   1    -0.232053615243E+04    0.38751E+00   -0.46458E+01  4432   0.579E+00    0.148E+00
RMM:   2    -0.232094527349E+04   -0.40912E+00   -0.41685E+00  6275   0.131E+00    0.148E+00
RMM:   3    -0.232095254918E+04   -0.72757E-02   -0.30626E-01  6010   0.316E-01    0.160E+00
RMM:   4    -0.232093115419E+04    0.21395E-01   -0.32851E-02  5868   0.918E-02    0.517E-01
RMM:   5    -0.232092894948E+04    0.22047E-02   -0.73165E-03  5713   0.505E-02    0.362E-01
RMM:   6    -0.232092744520E+04    0.15043E-02   -0.57969E-03  5209   0.459E-02    0.163E-01
RMM:   7    -0.232092724322E+04    0.20198E-03   -0.98630E-04  4643   0.287E-02    0.612E-02
RMM:   8    -0.232092723378E+04    0.94450E-05   -0.22105E-04  4130   0.118E-02    0.396E-02
RMM:   9    -0.232092722801E+04    0.57698E-05   -0.46459E-05  3084   0.669E-03
  69 F= -.23413885E+04 E0= -.23413885E+04  d E =-.126674E-01  mag=     3.0000
       N       E                     dE             d eps       ncg     rms          rms(c)
DAV:   1    -0.232087971308E+04    0.47521E-01   -0.60289E+00  4448   0.208E+00    0.531E-01
RMM:   2    -0.232093388632E+04   -0.54173E-01   -0.53721E-01  6287   0.467E-01    0.693E-01
RMM:   3    -0.232093150809E+04    0.23782E-02   -0.36142E-02  5992   0.114E-01    0.497E-01
RMM:   4    -0.232092933841E+04    0.21697E-02   -0.41289E-03  5541   0.301E-02    0.181E-01
RMM:   5    -0.232092904430E+04    0.29411E-03   -0.85217E-04  4934   0.170E-02    0.128E-01
RMM:   6    -0.232092884367E+04    0.20063E-03   -0.78700E-04  4950   0.206E-02    0.421E-02
RMM:   7    -0.232092883589E+04    0.77744E-05   -0.94495E-05  3421   0.937E-03
  70 F= -.23413902E+04 E0= -.23413902E+04  d E =-.143853E-01  mag=     3.0000
       N       E                     dE             d eps       ncg     rms          rms(c)
DAV:   1    -0.232087673198E+04    0.52112E-01   -0.68876E+00  4432   0.223E+00    0.560E-01
RMM:   2    -0.232093869978E+04   -0.61968E-01   -0.64012E-01  6263   0.499E-01    0.495E-01
RMM:   3    -0.232093987102E+04   -0.11712E-02   -0.43781E-02  5984   0.121E-01    0.569E-01
RMM:   4    -0.232093714758E+04    0.27234E-02   -0.48788E-03  5777   0.343E-02    0.217E-01
RMM:   5    -0.232093677175E+04    0.37583E-03   -0.10470E-03  5246   0.193E-02    0.147E-01
RMM:   6    -0.232093648911E+04    0.28264E-03   -0.97232E-04  5096   0.200E-02    0.532E-02
RMM:   7    -0.232093647201E+04    0.17098E-04   -0.11741E-04  3652   0.116E-02    0.213E-02
RMM:   8    -0.232093646880E+04    0.32176E-05   -0.23218E-05  2931   0.455E-03
  71 F= -.23413976E+04 E0= -.23413976E+04  d E =-.746017E-02  mag=     3.0000
       N       E                     dE             d eps       ncg     rms          rms(c)
DAV:   1    -0.232088971108E+04    0.46761E-01   -0.56728E+00  4440   0.203E+00    0.515E-01
RMM:   2    -0.232094097266E+04   -0.51262E-01   -0.52777E-01  6252   0.455E-01    0.481E-01
RMM:   3    -0.232094199800E+04   -0.10253E-02   -0.36241E-02  5959   0.112E-01    0.534E-01
RMM:   4    -0.232093957922E+04    0.24188E-02   -0.41009E-03  5694   0.315E-02    0.192E-01
RMM:   5    -0.232093928413E+04    0.29509E-03   -0.88166E-04  5121   0.176E-02    0.133E-01
RMM:   6    -0.232093906429E+04    0.21984E-03   -0.77281E-04  5051   0.183E-02    0.482E-02
RMM:   7    -0.232093905141E+04    0.12888E-04   -0.97165E-05  3512   0.105E-02    0.192E-02
RMM:   8    -0.232093904866E+04    0.27448E-05   -0.18777E-05  2906   0.428E-03
  72 F= -.23414000E+04 E0= -.23414000E+04  d E =-.987287E-02  mag=     3.0000
       N       E                     dE             d eps       ncg     rms          rms(c)
DAV:   1    -0.232090949929E+04    0.29552E-01   -0.38696E+00  4448   0.175E+00    0.468E-01
RMM:   2    -0.232094804540E+04   -0.38546E-01   -0.38454E-01  6211   0.398E-01    0.575E-01
RMM:   3    -0.232094708591E+04    0.95949E-03   -0.26281E-02  5910   0.101E-01    0.460E-01
RMM:   4    -0.232094522455E+04    0.18614E-02   -0.30722E-03  5502   0.276E-02    0.153E-01
RMM:   5    -0.232094501150E+04    0.21304E-03   -0.70585E-04  5079   0.167E-02    0.105E-01
RMM:   6    -0.232094488082E+04    0.13069E-03   -0.47109E-04  5077   0.152E-02    0.434E-02
RMM:   7    -0.232094486551E+04    0.15311E-04   -0.66431E-05  3286   0.840E-03    0.153E-02
RMM:   8    -0.232094486453E+04    0.97827E-06   -0.12232E-05  2871   0.406E-03
  73 F= -.23414058E+04 E0= -.23414058E+04  d E =-.575015E-02  mag=     3.0000
       N       E                     dE             d eps       ncg     rms          rms(c)
DAV:   1    -0.232092013007E+04    0.24735E-01   -0.28292E+00  4440   0.150E+00    0.400E-01
RMM:   2    -0.232094838312E+04   -0.28253E-01   -0.28108E-01  6233   0.341E-01    0.503E-01
RMM:   3    -0.232094756710E+04    0.81602E-03   -0.19158E-02  5895   0.868E-02    0.390E-01
RMM:   4    -0.232094622810E+04    0.13390E-02   -0.22437E-03  5364   0.236E-02    0.130E-01
RMM:   5    -0.232094606839E+04    0.15971E-03   -0.51634E-04  4897   0.145E-02    0.901E-02
RMM:   6    -0.232094596765E+04    0.10074E-03   -0.34894E-04  4889   0.133E-02    0.369E-02
RMM:   7    -0.232094595587E+04    0.11775E-04   -0.48226E-05  3125   0.758E-03    0.132E-02
RMM:   8    -0.232094595509E+04    0.78289E-06   -0.96413E-06  2866   0.374E-03
  74 F= -.23414068E+04 E0= -.23414068E+04  d E =-.677672E-02  mag=     3.0000
       N       E                     dE             d eps       ncg     rms          rms(c)
DAV:   1    -0.232092249353E+04    0.23462E-01   -0.31618E+00  4432   0.159E+00    0.395E-01
RMM:   2    -0.232095256335E+04   -0.30070E-01   -0.29576E-01  6270   0.354E-01    0.529E-01
RMM:   3    -0.232095148618E+04    0.10772E-02   -0.20837E-02  5888   0.871E-02    0.361E-01
RMM:   4    -0.232095036694E+04    0.11192E-02   -0.23149E-03  5328   0.229E-02    0.135E-01
RMM:   5    -0.232095018060E+04    0.18634E-03   -0.47230E-04  4769   0.141E-02    0.905E-02
RMM:   6    -0.232095009255E+04    0.88048E-04   -0.40225E-04  4943   0.141E-02    0.412E-02
RMM:   7    -0.232095007747E+04    0.15077E-04   -0.55890E-05  3143   0.753E-03    0.148E-02
RMM:   8    -0.232095007687E+04    0.60670E-06   -0.98630E-06  2863   0.367E-03
  75 F= -.23414110E+04 E0= -.23414110E+04  d E =-.419953E-02  mag=     2.9999
       N       E                     dE             d eps       ncg     rms          rms(c)
DAV:   1    -0.232086818615E+04    0.81891E-01   -0.96144E+00  4432   0.278E+00    0.687E-01
RMM:   2    -0.232095946844E+04   -0.91282E-01   -0.90342E-01  6267   0.617E-01    0.886E-01
RMM:   3    -0.232095706451E+04    0.24039E-02   -0.64876E-02  5929   0.150E-01    0.650E-01
RMM:   4    -0.232095345323E+04    0.36113E-02   -0.71546E-03  5685   0.403E-02    0.235E-01
RMM:   5    -0.232095287533E+04    0.57790E-03   -0.14785E-03  5347   0.245E-02    0.157E-01
RMM:   6    -0.232095262281E+04    0.25251E-03   -0.12014E-03  5305   0.230E-02    0.760E-02
RMM:   7    -0.232095257068E+04    0.52137E-04   -0.18711E-04  4110   0.120E-02    0.259E-02
RMM:   8    -0.232095256834E+04    0.23413E-05   -0.29778E-05  2935   0.536E-03
  76 F= -.23414136E+04 E0= -.23414136E+04  d E =-.680643E-02  mag=     2.9999
       N       E                     dE             d eps       ncg     rms          rms(c)
DAV:   1    -0.232093012952E+04    0.22441E-01   -0.36841E+00  4440   0.175E+00    0.451E-01
RMM:   2    -0.232096124765E+04   -0.31118E-01   -0.30114E-01  6169   0.378E-01    0.609E-01
RMM:   3    -0.232095968997E+04    0.15577E-02   -0.21637E-02  5816   0.968E-02    0.407E-01
RMM:   4    -0.232095824822E+04    0.14418E-02   -0.24475E-03  5377   0.261E-02    0.134E-01
RMM:   5    -0.232095803492E+04    0.21330E-03   -0.60635E-04  5076   0.173E-02    0.874E-02
RMM:   6    -0.232095796148E+04    0.73435E-04   -0.39093E-04  5028   0.147E-02    0.440E-02
RMM:   7    -0.232095794137E+04    0.20110E-04   -0.57780E-05  3269   0.742E-03    0.145E-02
RMM:   8    -0.232095794094E+04    0.43871E-06   -0.98352E-06  2866   0.394E-03
  77 F= -.23414194E+04 E0= -.23414194E+04  d E =-.572855E-02  mag=     2.9999
       N       E                     dE             d eps       ncg     rms          rms(c)
DAV:   1    -0.232092574611E+04    0.32195E-01   -0.43066E+00  4432   0.189E+00    0.487E-01
RMM:   2    -0.232096201219E+04   -0.36266E-01   -0.35167E-01  6168   0.407E-01    0.651E-01
RMM:   3    -0.232096027377E+04    0.17384E-02   -0.25324E-02  5807   0.104E-01    0.440E-01
RMM:   4    -0.232095858265E+04    0.16911E-02   -0.28465E-03  5427   0.282E-02    0.145E-01
RMM:   5    -0.232095832668E+04    0.25597E-03   -0.71586E-04  5180   0.187E-02    0.945E-02
RMM:   6    -0.232095823884E+04    0.87840E-04   -0.46010E-04  5124   0.157E-02    0.474E-02
RMM:   7    -0.232095821560E+04    0.23240E-04   -0.68657E-05  3395   0.783E-03    0.157E-02
RMM:   8    -0.232095821513E+04    0.47107E-06   -0.11905E-05  2879   0.415E-03
  78 F= -.23414200E+04 E0= -.23414200E+04  d E =-.637664E-02  mag=     2.9999
       N       E                     dE             d eps       ncg     rms          rms(c)
DAV:   1    -0.232095458476E+04    0.36308E-02   -0.56365E-01  4512   0.683E-01    0.173E-01
RMM:   2    -0.232095922726E+04   -0.46425E-02   -0.45273E-02  6167   0.145E-01    0.222E-01
RMM:   3    -0.232095906797E+04    0.15929E-03   -0.31697E-03  5458   0.365E-02    0.161E-01
RMM:   4    -0.232095883095E+04    0.23702E-03   -0.36277E-04  3838   0.104E-02    0.528E-02
RMM:   5    -0.232095879709E+04    0.33864E-04   -0.97963E-05  3605   0.732E-03    0.342E-02
RMM:   6    -0.232095878516E+04    0.11921E-04   -0.63504E-05  3321   0.734E-03    0.145E-02
RMM:   7    -0.232095878329E+04    0.18777E-05   -0.10443E-05  2873   0.456E-03
  79 F= -.23414204E+04 E0= -.23414204E+04  d E =-.681082E-02  mag=     2.9999
       N       E                     dE             d eps       ncg     rms          rms(c)
DAV:   1    -0.232093706043E+04    0.21725E-01   -0.38464E+00  4432   0.180E+00    0.453E-01
RMM:   2    -0.232096778506E+04   -0.30725E-01   -0.28970E-01  6130   0.374E-01    0.673E-01
RMM:   3    -0.232096503289E+04    0.27522E-02   -0.20284E-02  5780   0.952E-02    0.371E-01
RMM:   4    -0.232096381460E+04    0.12183E-02   -0.22927E-03  5270   0.255E-02    0.133E-01
RMM:   5    -0.232096354544E+04    0.26915E-03   -0.61791E-04  4839   0.187E-02    0.703E-02
RMM:   6    -0.232096351939E+04    0.26048E-04   -0.28793E-04  4616   0.146E-02    0.365E-02
RMM:   7    -0.232096350653E+04    0.12866E-04   -0.52558E-05  3255   0.611E-03    0.158E-02
RMM:   8    -0.232096350548E+04    0.10464E-05   -0.79757E-06  2857   0.390E-03
  80 F= -.23414255E+04 E0= -.23414255E+04  d E =-.506898E-02  mag=     2.9999
       N       E                     dE             d eps       ncg     rms          rms(c)
DAV:   1    -0.232094943598E+04    0.14071E-01   -0.21635E+00  4432   0.135E+00    0.342E-01
RMM:   2    -0.232096687392E+04   -0.17438E-01   -0.16362E-01  6156   0.281E-01    0.517E-01
RMM:   3    -0.232096515554E+04    0.17184E-02   -0.11388E-02  5738   0.721E-02    0.275E-01
RMM:   4    -0.232096448616E+04    0.66938E-03   -0.12911E-03  5082   0.191E-02    0.991E-02
RMM:   5    -0.232096433440E+04    0.15175E-03   -0.34016E-04  4521   0.143E-02    0.531E-02
RMM:   6    -0.232096432022E+04    0.14184E-04   -0.15823E-04  4250   0.115E-02    0.269E-02
RMM:   7    -0.232096431396E+04    0.62594E-05   -0.29201E-05  3025   0.520E-03
  81 F= -.23414266E+04 E0= -.23414266E+04  d E =-.613225E-02  mag=     2.9999
       N       E                     dE             d eps       ncg     rms          rms(c)
DAV:   1    -0.232094463064E+04    0.19690E-01   -0.34333E+00  4432   0.173E+00    0.414E-01
RMM:   2    -0.232097099955E+04   -0.26369E-01   -0.25632E-01  6127   0.353E-01    0.546E-01
RMM:   3    -0.232096943694E+04    0.15626E-02   -0.15473E-02  5769   0.866E-02    0.379E-01
RMM:   4    -0.232096810514E+04    0.13318E-02   -0.18599E-03  5406   0.249E-02    0.131E-01
RMM:   5    -0.232096789429E+04    0.21085E-03   -0.63686E-04  4989   0.184E-02    0.776E-02
RMM:   6    -0.232096784470E+04    0.49594E-04   -0.30478E-04  4844   0.140E-02    0.375E-02
RMM:   7    -0.232096783213E+04    0.12568E-04   -0.45618E-05  3130   0.615E-03    0.141E-02
RMM:   8    -0.232096783188E+04    0.24831E-06   -0.74844E-06  2859   0.378E-03
  82 F= -.23414306E+04 E0= -.23414306E+04  d E =-.398837E-02  mag=     2.9999
       N       E                     dE             d eps       ncg     rms          rms(c)
DAV:   1    -0.232096330919E+04    0.45229E-02   -0.68720E-01  4512   0.776E-01    0.186E-01
RMM:   2    -0.232096854262E+04   -0.52334E-02   -0.50623E-02  6114   0.157E-01    0.247E-01
RMM:   3    -0.232096825638E+04    0.28624E-03   -0.33580E-03  5510   0.414E-02    0.165E-01
RMM:   4    -0.232096799899E+04    0.25739E-03   -0.38267E-04  4132   0.113E-02    0.586E-02
RMM:   5    -0.232096795540E+04    0.43595E-04   -0.12629E-04  3947   0.873E-03    0.350E-02
RMM:   6    -0.232096794411E+04    0.11290E-04   -0.63616E-05  3348   0.740E-03    0.171E-02
RMM:   7    -0.232096794163E+04    0.24784E-05   -0.12370E-05  2885   0.455E-03
  83 F= -.23414309E+04 E0= -.23414309E+04  d E =-.430735E-02  mag=     2.9999
       N       E                     dE             d eps       ncg     rms          rms(c)
DAV:   1    -0.232094178260E+04    0.26162E-01   -0.39015E+00  4432   0.190E+00    0.440E-01
RMM:   2    -0.232097387503E+04   -0.32092E-01   -0.32211E-01  6134   0.393E-01    0.524E-01
RMM:   3    -0.232097321722E+04    0.65781E-03   -0.18547E-02  5777   0.958E-02    0.448E-01
RMM:   4    -0.232097142712E+04    0.17901E-02   -0.23969E-03  5500   0.277E-02    0.143E-01
RMM:   5    -0.232097121785E+04    0.20927E-03   -0.71250E-04  5216   0.181E-02    0.979E-02
RMM:   6    -0.232097109281E+04    0.12504E-03   -0.43396E-04  5106   0.156E-02    0.368E-02
RMM:   7    -0.232097108244E+04    0.10366E-04   -0.44076E-05  3087   0.764E-03    0.140E-02
RMM:   8    -0.232097108245E+04   -0.31141E-08   -0.83972E-06  2860   0.360E-03
  84 F= -.23414346E+04 E0= -.23414346E+04  d E =-.372767E-02  mag=     2.9999
       N       E                     dE             d eps       ncg     rms          rms(c)
DAV:   1    -0.232096118082E+04    0.99016E-02   -0.12986E+00  4440   0.110E+00    0.256E-01
RMM:   2    -0.232097194413E+04   -0.10763E-01   -0.10724E-01  6095   0.226E-01    0.318E-01
RMM:   3    -0.232097162874E+04    0.31539E-03   -0.64595E-03  5687   0.579E-02    0.253E-01
RMM:   4    -0.232097103738E+04    0.59136E-03   -0.78769E-04  4924   0.159E-02    0.828E-02
RMM:   5    -0.232097096422E+04    0.73159E-04   -0.23521E-04  4414   0.107E-02    0.568E-02
RMM:   6    -0.232097092031E+04    0.43913E-04   -0.15097E-04  4426   0.983E-03    0.212E-02
RMM:   7    -0.232097091704E+04    0.32760E-05   -0.16360E-05  2909   0.547E-03
  85 F= -.23414348E+04 E0= -.23414348E+04  d E =-.389823E-02  mag=     3.0000
       N       E                     dE             d eps       ncg     rms          rms(c)
DAV:   1    -0.232095560654E+04    0.15314E-01   -0.22108E+00  4432   0.146E+00    0.325E-01
RMM:   2    -0.232097512131E+04   -0.19515E-01   -0.19083E-01  6127   0.302E-01    0.452E-01
RMM:   3    -0.232097428376E+04    0.83754E-03   -0.12334E-02  5761   0.740E-02    0.293E-01
RMM:   4    -0.232097349564E+04    0.78812E-03   -0.14060E-03  5191   0.198E-02    0.108E-01
RMM:   5    -0.232097335482E+04    0.14083E-03   -0.34974E-04  4676   0.137E-02    0.693E-02
RMM:   6    -0.232097330634E+04    0.48479E-04   -0.23194E-04  4617   0.123E-02    0.328E-02
RMM:   7    -0.232097329648E+04    0.98568E-05   -0.31473E-05  2994   0.614E-03
  86 F= -.23414377E+04 E0= -.23414377E+04  d E =-.288911E-02  mag=     3.0000
       N       E                     dE             d eps       ncg     rms          rms(c)
[...]
 259 F= -.23414932E+04 E0= -.23414932E+04  d E =-.104934E-03  mag=     3.0000
       N       E                     dE             d eps       ncg     rms          rms(c)
DAV:   1    -0.232103589913E+04    0.68847E-04   -0.30080E-02  4416   0.149E-01    0.486E-02
RMM:   2    -0.232103604644E+04   -0.14731E-03   -0.16036E-03  5997   0.287E-02    0.306E-02
RMM:   3    -0.232103605381E+04   -0.73646E-05   -0.10697E-04  3101   0.940E-03    0.435E-02
RMM:   4    -0.232103603839E+04    0.15417E-04   -0.20135E-05  2892   0.423E-03    0.186E-02
RMM:   5    -0.232103603569E+04    0.26959E-05   -0.10061E-05  2850   0.286E-03
 260 F= -.23414933E+04 E0= -.23414933E+04  d E =-.888406E-04  mag=     3.0000
       N       E                     dE             d eps       ncg     rms          rms(c)
DAV:   1    -0.232103601795E+04    0.20439E-04   -0.26035E-03  4832   0.439E-02    0.148E-02
RMM:   2    -0.232103603111E+04   -0.13165E-04   -0.14691E-04  4284   0.948E-03    0.811E-03
RMM:   3    -0.232103603088E+04    0.23676E-06   -0.12595E-05  2763   0.416E-03
 261 F= -.23414933E+04 E0= -.23414933E+04  d E =-.896593E-04  mag=     3.0000
       N       E                     dE             d eps       ncg     rms          rms(c)
DAV:   1    -0.232103602262E+04    0.84971E-05   -0.31145E-02  4432   0.153E-01    0.510E-02
RMM:   2    -0.232103616474E+04   -0.14212E-03   -0.14946E-03  5948   0.281E-02    0.416E-02
RMM:   3    -0.232103617756E+04   -0.12822E-04   -0.11284E-04  3098   0.986E-03    0.580E-02
RMM:   4    -0.232103614609E+04    0.31474E-04   -0.22394E-05  2903   0.455E-03    0.148E-02
RMM:   5    -0.232103614372E+04    0.23700E-05   -0.11652E-05  2884   0.323E-03
 262 F= -.23414934E+04 E0= -.23414934E+04  d E =-.106658E-03  mag=     3.0000
       N       E                     dE             d eps       ncg     rms          rms(c)
DAV:   1    -0.232103613016E+04    0.15934E-04   -0.50362E-03  4704   0.615E-02    0.209E-02
RMM:   2    -0.232103615398E+04   -0.23824E-04   -0.25184E-04  5018   0.125E-02    0.168E-02
RMM:   3    -0.232103615643E+04   -0.24535E-05   -0.21081E-05  2866   0.520E-03
 263 F= -.23414934E+04 E0= -.23414934E+04  d E =-.116872E-03  mag=     3.0000
       N       E                     dE             d eps       ncg     rms          rms(c)
DAV:   1    -0.232103611323E+04    0.40746E-04   -0.29963E-02  4416   0.147E-01    0.493E-02
RMM:   2    -0.232103624927E+04   -0.13604E-03   -0.14086E-03  5942   0.280E-02    0.449E-02
RMM:   3    -0.232103625576E+04   -0.64890E-05   -0.10552E-04  3082   0.895E-03    0.543E-02
RMM:   4    -0.232103622859E+04    0.27169E-04   -0.21442E-05  2901   0.449E-03    0.153E-02
RMM:   5    -0.232103622655E+04    0.20381E-05   -0.11406E-05  2882   0.323E-03
 264 F= -.23414935E+04 E0= -.23414935E+04  d E =-.841270E-04  mag=     3.0000
       N       E                     dE             d eps       ncg     rms          rms(c)
DAV:   1    -0.232103621791E+04    0.10676E-04   -0.12192E-03  4968   0.298E-02    0.106E-02
RMM:   2    -0.232103622351E+04   -0.55933E-05   -0.60915E-05  3429   0.633E-03
 265 F= -.23414935E+04 E0= -.23414935E+04  d E =-.839753E-04  mag=     3.0000
       N       E                     dE             d eps       ncg     rms          rms(c)
DAV:   1    -0.232103615416E+04    0.63756E-04   -0.30135E-02  4440   0.144E-01    0.501E-02
RMM:   2    -0.232103628701E+04   -0.13285E-03   -0.13136E-03  6023   0.275E-02    0.521E-02
RMM:   3    -0.232103629011E+04   -0.30944E-05   -0.12729E-04  3137   0.108E-02    0.544E-02
RMM:   4    -0.232103626243E+04    0.27675E-04   -0.20294E-05  2895   0.447E-03    0.133E-02
RMM:   5    -0.232103626052E+04    0.19140E-05   -0.10991E-05  2871   0.317E-03
 266 F= -.23414936E+04 E0= -.23414936E+04  d E =-.875414E-04  mag=     3.0000
       N       E                     dE             d eps       ncg     rms          rms(c)
DAV:   1    -0.232103622639E+04    0.36046E-04   -0.42789E-03  4696   0.544E-02    0.183E-02
RMM:   2    -0.232103624350E+04   -0.17118E-04   -0.18965E-04  4610   0.113E-02    0.904E-03
RMM:   3    -0.232103624337E+04    0.13557E-06   -0.14065E-05  2827   0.469E-03
 267 F= -.23414936E+04 E0= -.23414936E+04  d E =-.896186E-04  mag=     3.0000
       N       E                     dE             d eps       ncg     rms          rms(c)
DAV:   1    -0.232103622930E+04    0.14202E-04   -0.26923E-02  4408   0.134E-01    0.448E-02
RMM:   2    -0.232103633291E+04   -0.10361E-03   -0.10687E-03  5902   0.242E-02    0.407E-02
RMM:   3    -0.232103634543E+04   -0.12520E-04   -0.11213E-04  3066   0.924E-03    0.554E-02
RMM:   4    -0.232103631959E+04    0.25841E-04   -0.19605E-05  2909   0.424E-03    0.123E-02
RMM:   5    -0.232103631828E+04    0.13108E-05   -0.91853E-06  2854   0.264E-03
 268 F= -.23414937E+04 E0= -.23414937E+04  d E =-.940897E-04  mag=     3.0000
       N       E                     dE             d eps       ncg     rms          rms(c)
DAV:   1    -0.232103629501E+04    0.24580E-04   -0.67512E-03  4440   0.672E-02    0.223E-02
RMM:   2    -0.232103631971E+04   -0.24701E-04   -0.27485E-04  5078   0.127E-02    0.116E-02
RMM:   3    -0.232103631911E+04    0.60108E-06   -0.20666E-05  2871   0.507E-03
 269 F= -.23414937E+04 E0= -.23414937E+04  d E =-.104583E-03  mag=     3.0000
       N       E                     dE             d eps       ncg     rms          rms(c)
DAV:   1    -0.232103635508E+04   -0.35369E-04   -0.23472E-02  4440   0.129E-01    0.474E-02
RMM:   2    -0.232103645762E+04   -0.10253E-03   -0.90519E-04  5834   0.227E-02    0.616E-02
RMM:   3    -0.232103643982E+04    0.17793E-04   -0.89470E-05  3037   0.879E-03    0.444E-02
RMM:   4    -0.232103642094E+04    0.18883E-04   -0.16144E-05  2885   0.397E-03    0.119E-02
RMM:   5    -0.232103641942E+04    0.15207E-05   -0.93929E-06  2860   0.307E-03
 270 F= -.23414938E+04 E0= -.23414938E+04  d E =-.100647E-03  mag=     3.0000
       N       E                     dE             d eps       ncg     rms          rms(c)
DAV:   1    -0.232103640919E+04    0.11749E-04   -0.50602E-03  4704   0.600E-02    0.212E-02
RMM:   2    -0.232103642689E+04   -0.17704E-04   -0.19803E-04  4834   0.117E-02    0.137E-02
RMM:   3    -0.232103643030E+04   -0.34026E-05   -0.17967E-05  2869   0.534E-03
 271 F= -.23414938E+04 E0= -.23414938E+04  d E =-.111688E-03  mag=     3.0000
       N       E                     dE             d eps       ncg     rms          rms(c)
DAV:   1    -0.232103639827E+04    0.28627E-04   -0.27359E-02  4440   0.138E-01    0.477E-02
RMM:   2    -0.232103650855E+04   -0.11028E-03   -0.11930E-03  5956   0.265E-02    0.356E-02
RMM:   3    -0.232103652196E+04   -0.13417E-04   -0.89104E-05  3118   0.858E-03    0.546E-02
RMM:   4    -0.232103649568E+04    0.26287E-04   -0.21771E-05  2897   0.440E-03    0.150E-02
RMM:   5    -0.232103649386E+04    0.18169E-05   -0.97252E-06  2873   0.297E-03
 272 F= -.23414939E+04 E0= -.23414939E+04  d E =-.686052E-04  mag=     3.0000
       N       E                     dE             d eps       ncg     rms          rms(c)
DAV:   1    -0.232103648578E+04    0.98939E-05   -0.15728E-03  4904   0.333E-02    0.118E-02
RMM:   2    -0.232103649261E+04   -0.68257E-05   -0.72432E-05  3702   0.700E-03
 273 F= -.23414939E+04 E0= -.23414939E+04  d E =-.685930E-04  mag=     3.0000
       N       E                     dE             d eps       ncg     rms          rms(c)
DAV:   1    -0.232103648043E+04    0.53479E-05   -0.24837E-02  4432   0.131E-01    0.477E-02
RMM:   2    -0.232103658050E+04   -0.10006E-03   -0.97188E-04  5886   0.244E-02    0.512E-02
RMM:   3    -0.232103658013E+04    0.36700E-06   -0.10354E-04  3063   0.995E-03    0.512E-02
RMM:   4    -0.232103655553E+04    0.24603E-04   -0.18091E-05  2890   0.438E-03    0.120E-02
RMM:   5    -0.232103655387E+04    0.16539E-05   -0.10086E-05  2857   0.303E-03
 274 F= -.23414940E+04 E0= -.23414940E+04  d E =-.870317E-04  mag=     3.0000
       N       E                     dE             d eps       ncg     rms          rms(c)
DAV:   1    -0.232103653722E+04    0.18311E-04   -0.30159E-03  4776   0.455E-02    0.158E-02
RMM:   2    -0.232103654762E+04   -0.10400E-04   -0.11725E-04  3824   0.933E-03    0.797E-03
RMM:   3    -0.232103654783E+04   -0.21583E-06   -0.11540E-05  2796   0.476E-03
 275 F= -.23414940E+04 E0= -.23414940E+04  d E =-.900697E-04  mag=     3.0000
       N       E                     dE             d eps       ncg     rms          rms(c)
DAV:   1    -0.232103655872E+04   -0.11106E-04   -0.19320E-02  4416   0.116E-01    0.400E-02
RMM:   2    -0.232103662535E+04   -0.66626E-04   -0.75930E-04  5871   0.213E-02    0.232E-02
RMM:   3    -0.232103662989E+04   -0.45363E-05   -0.64378E-05  2952   0.799E-03
 276 F= -.23414941E+04 E0= -.23414941E+04  d E =-.958251E-04  mag=     3.0000
       N       E                     dE             d eps       ncg     rms          rms(c)
DAV:   1    -0.232103661473E+04    0.10624E-04   -0.25467E-03  4896   0.427E-02    0.241E-02
RMM:   2    -0.232103664431E+04   -0.29589E-04   -0.12403E-04  3980   0.836E-03    0.531E-02
RMM:   3    -0.232103662049E+04    0.23826E-04   -0.21659E-05  2877   0.457E-03    0.140E-02
RMM:   4    -0.232103661893E+04    0.15540E-05   -0.61047E-06  2815   0.227E-03
 277 F= -.23414940E+04 E0= -.23414940E+04  d E =-.899096E-04  mag=     3.0000
       N       E                     dE             d eps       ncg     rms          rms(c)
DAV:   1    -0.232103667356E+04   -0.53076E-04   -0.15955E-02  4456   0.111E-01    0.396E-02
RMM:   2    -0.232103672790E+04   -0.54332E-04   -0.64113E-04  5840   0.204E-02    0.184E-02
RMM:   3    -0.232103672432E+04    0.35805E-05   -0.41807E-05  2928   0.776E-03
 278 F= -.23414941E+04 E0= -.23414941E+04  d E =-.679546E-04  mag=     3.0000
       N       E                     dE             d eps       ncg     rms          rms(c)
DAV:   1    -0.232103673204E+04   -0.41416E-05   -0.37555E-04  5200   0.181E-02    0.257E-02
RMM:   2    -0.232103680483E+04   -0.72797E-04   -0.88416E-05  3228   0.586E-03    0.934E-02
RMM:   3    -0.232103672768E+04    0.77157E-04   -0.31529E-05  2802   0.496E-03    0.625E-03
RMM:   4    -0.232103672706E+04    0.62142E-06   -0.43270E-06  2372   0.157E-03
 279 F= -.23414941E+04 E0= -.23414941E+04  d E =-.648768E-04  mag=     3.0000
       N       E                     dE             d eps       ncg     rms          rms(c)
DAV:   1    -0.232103675974E+04   -0.32064E-04   -0.13454E-02  4424   0.100E-01    0.335E-02
RMM:   2    -0.232103682520E+04   -0.65458E-04   -0.68364E-04  5964   0.201E-02    0.278E-02
RMM:   3    -0.232103683120E+04   -0.60049E-05   -0.52140E-05  2987   0.711E-03
 280 F= -.23414942E+04 E0= -.23414942E+04  d E =-.706365E-04  mag=     3.0000
       N       E                     dE             d eps       ncg     rms          rms(c)
DAV:   1    -0.232103682221E+04    0.29921E-05   -0.32231E-03  4552   0.500E-02    0.213E-02
RMM:   2    -0.232103683545E+04   -0.13240E-04   -0.16955E-04  4505   0.102E-02    0.126E-02
RMM:   3    -0.232103683491E+04    0.54046E-06   -0.16683E-05  2933   0.510E-03
 281 F= -.23414942E+04 E0= -.23414942E+04  d E =-.578135E-04  mag=     3.0000
       N       E                     dE             d eps       ncg     rms          rms(c)
DAV:   1    -0.232103685804E+04   -0.22595E-04   -0.10177E-02  4432   0.846E-02    0.290E-02
RMM:   2    -0.232103690175E+04   -0.43708E-04   -0.46144E-04  5733   0.161E-02    0.233E-02
RMM:   3    -0.232103690737E+04   -0.56237E-05   -0.41598E-05  2905   0.649E-03
 282 F= -.23414942E+04 E0= -.23414942E+04  d E =-.652510E-04  mag=     3.0000
       N       E                     dE             d eps       ncg     rms          rms(c)
DAV:   1    -0.232103689242E+04    0.93264E-05   -0.51911E-03  4440   0.608E-02    0.241E-02
RMM:   2    -0.232103691299E+04   -0.20568E-04   -0.24409E-04  4913   0.118E-02    0.151E-02
RMM:   3    -0.232103691658E+04   -0.35907E-05   -0.23220E-05  2892   0.480E-03
 283 F= -.23414942E+04 E0= -.23414942E+04  d E =-.693047E-04  mag=     3.0000
       N       E                     dE             d eps       ncg     rms          rms(c)
DAV:   1    -0.232103692606E+04   -0.13073E-04   -0.11080E-02  4432   0.901E-02    0.328E-02
RMM:   2    -0.232103696996E+04   -0.43893E-04   -0.49737E-04  5792   0.169E-02    0.180E-02
RMM:   3    -0.232103696973E+04    0.23149E-06   -0.38792E-05  2928   0.628E-03
 284 F= -.23414943E+04 E0= -.23414943E+04  d E =-.587726E-04  mag=     3.0000
       N       E                     dE             d eps       ncg     rms          rms(c)
DAV:   1    -0.232103695891E+04    0.11051E-04   -0.37831E-03  4656   0.528E-02    0.260E-02
RMM:   2    -0.232103699230E+04   -0.33394E-04   -0.19464E-04  4502   0.107E-02    0.496E-02
RMM:   3    -0.232103697370E+04    0.18601E-04   -0.27575E-05  2890   0.506E-03    0.187E-02
RMM:   4    -0.232103697051E+04    0.31925E-05   -0.46098E-06  2807   0.222E-03
 285 F= -.23414943E+04 E0= -.23414943E+04  d E =-.628494E-04  mag=     3.0000
       N       E                     dE             d eps       ncg     rms          rms(c)
DAV:   1    -0.232103701790E+04   -0.44200E-04   -0.11690E-02  4432   0.907E-02    0.312E-02
RMM:   2    -0.232103706113E+04   -0.43228E-04   -0.49288E-04  5692   0.164E-02    0.151E-02
RMM:   3    -0.232103705963E+04    0.14954E-05   -0.36776E-05  2880   0.648E-03
 286 F= -.23414944E+04 E0= -.23414944E+04  d E =-.536983E-04  mag=     3.0000
       N       E                     dE             d eps       ncg     rms          rms(c)
DAV:   1    -0.232103707264E+04   -0.11515E-04   -0.31562E-03  4592   0.475E-02    0.251E-02
RMM:   2    -0.232103711501E+04   -0.42363E-04   -0.17199E-04  4209   0.927E-03    0.620E-02
RMM:   3    -0.232103708239E+04    0.32612E-04   -0.29447E-05  2885   0.509E-03    0.132E-02
RMM:   4    -0.232103708040E+04    0.19969E-05   -0.43582E-06  2809   0.199E-03
 287 F= -.23414944E+04 E0= -.23414944E+04  d E =-.559521E-04  mag=     3.0000
       N       E                     dE             d eps       ncg     rms          rms(c)
DAV:   1    -0.232103712843E+04   -0.46038E-04   -0.12900E-02  4432   0.960E-02    0.319E-02
RMM:   2    -0.232103719536E+04   -0.66923E-04   -0.69913E-04  5885   0.195E-02    0.269E-02
RMM:   3    -0.232103720088E+04   -0.55267E-05   -0.58669E-05  3016   0.740E-03
 288 F= -.23414944E+04 E0= -.23414944E+04  d E =-.737194E-04  mag=     3.0000
       N       E                     dE             d eps       ncg     rms          rms(c)
DAV:   1    -0.232103720097E+04   -0.56180E-05   -0.60857E-03  4448   0.666E-02    0.261E-02
RMM:   2    -0.232103722953E+04   -0.28552E-04   -0.33999E-04  5228   0.139E-02    0.158E-02
RMM:   3    -0.232103722937E+04    0.15768E-06   -0.31062E-05  2983   0.607E-03
 289 F= -.23414944E+04 E0= -.23414944E+04  d E =-.699715E-04  mag=     3.0000
       N       E                     dE             d eps       ncg     rms          rms(c)
DAV:   1    -0.232103726491E+04   -0.35389E-04   -0.12582E-02  4432   0.961E-02    0.352E-02
RMM:   2    -0.232103733429E+04   -0.69370E-04   -0.65414E-04  5889   0.193E-02    0.408E-02
RMM:   3    -0.232103733260E+04    0.16851E-05   -0.63795E-05  2979   0.737E-03
 290 F= -.23414945E+04 E0= -.23414945E+04  d E =-.727725E-04  mag=     3.0000
       N       E                     dE             d eps       ncg     rms          rms(c)
DAV:   1    -0.232103733116E+04    0.31253E-05   -0.26968E-03  4800   0.448E-02    0.202E-02
RMM:   2    -0.232103734354E+04   -0.12378E-04   -0.14573E-04  4344   0.918E-03    0.166E-02
RMM:   3    -0.232103734674E+04   -0.32042E-05   -0.19019E-05  2895   0.460E-03
 291 F= -.23414945E+04 E0= -.23414945E+04  d E =-.726898E-04  mag=     3.0000
       N       E                     dE             d eps       ncg     rms          rms(c)
DAV:   1    -0.232103737062E+04   -0.27079E-04   -0.67759E-03  4432   0.741E-02    0.282E-02
RMM:   2    -0.232103739851E+04   -0.27888E-04   -0.31705E-04  5522   0.145E-02    0.178E-02
RMM:   3    -0.232103740590E+04   -0.73921E-05   -0.36911E-05  2899   0.638E-03
 292 F= -.23414946E+04 E0= -.23414946E+04  d E =-.603723E-04  mag=     3.0000
       N       E                     dE             d eps       ncg     rms          rms(c)
DAV:   1    -0.232103739210E+04    0.64017E-05   -0.24478E-03  4680   0.451E-02    0.205E-02
RMM:   2    -0.232103740144E+04   -0.93376E-05   -0.12155E-04  4069   0.874E-03    0.132E-02
RMM:   3    -0.232103740384E+04   -0.24003E-05   -0.14428E-05  2850   0.439E-03
 293 F= -.23414946E+04 E0= -.23414946E+04  d E =-.590593E-04  mag=     3.0000
       N       E                     dE             d eps       ncg     rms          rms(c)
DAV:   1    -0.232103742176E+04   -0.20323E-04   -0.77317E-03  4432   0.760E-02    0.281E-02
RMM:   2    -0.232103746109E+04   -0.39325E-04   -0.38014E-04  5588   0.149E-02    0.306E-02
RMM:   3    -0.232103746150E+04   -0.40545E-06   -0.41131E-05  2921   0.617E-03
 294 F= -.23414946E+04 E0= -.23414946E+04  d E =-.424352E-04  mag=     3.0000
       N       E                     dE             d eps       ncg     rms          rms(c)
DAV:   1    -0.232103745777E+04    0.33189E-05   -0.10469E-03  5016   0.288E-02    0.148E-02
RMM:   2    -0.232103746198E+04   -0.42140E-05   -0.56958E-05  3298   0.568E-03
 295 F= -.23414946E+04 E0= -.23414946E+04  d E =-.372621E-04  mag=     3.0000
       N       E                     dE             d eps       ncg     rms          rms(c)
DAV:   1    -0.232103751279E+04   -0.55019E-04   -0.77948E-03  4432   0.793E-02    0.310E-02
RMM:   2    -0.232103755178E+04   -0.38987E-04   -0.36790E-04  5518   0.160E-02    0.348E-02
RMM:   3    -0.232103755023E+04    0.15416E-05   -0.39495E-05  2903   0.701E-03
 296 F= -.23414947E+04 E0= -.23414947E+04  d E =-.641522E-04  mag=     3.0000
       N       E                     dE             d eps       ncg     rms          rms(c)
DAV:   1    -0.232103754894E+04    0.28339E-05   -0.86224E-04  5104   0.270E-02    0.144E-02
RMM:   2    -0.232103755145E+04   -0.25088E-05   -0.40909E-05  3161   0.539E-03
 297 F= -.23414947E+04 E0= -.23414947E+04  d E =-.571949E-04  mag=     3.0000
       N       E                     dE             d eps       ncg     rms          rms(c)
DAV:   1    -0.232103760204E+04   -0.53095E-04   -0.60891E-03  4424   0.720E-02    0.299E-02
RMM:   2    -0.232103764756E+04   -0.45526E-04   -0.32183E-04  5522   0.154E-02    0.494E-02
RMM:   3    -0.232103763116E+04    0.16406E-04   -0.38170E-05  2943   0.698E-03    0.243E-02
RMM:   4    -0.232103762533E+04    0.58238E-05   -0.59659E-06  2835   0.290E-03
 298 F= -.23414947E+04 E0= -.23414947E+04  d E =-.419924E-04  mag=     3.0000
       N       E                     dE             d eps       ncg     rms          rms(c)
DAV:   1    -0.232103763498E+04   -0.38257E-05   -0.11291E-03  4936   0.308E-02    0.121E-02
RMM:   2    -0.232103764017E+04   -0.51855E-05   -0.58647E-05  3705   0.660E-03
 299 F= -.23414947E+04 E0= -.23414947E+04  d E =-.427284E-04  mag=     3.0000
       N       E                     dE             d eps       ncg     rms          rms(c)
DAV:   1    -0.232103763440E+04    0.57922E-06   -0.22509E-04  4360   0.146E-02    0.120E-02
RMM:   2    -0.232103765055E+04   -0.16151E-04   -0.24831E-05  2723   0.378E-03    0.431E-02
RMM:   3    -0.232103763430E+04    0.16250E-04   -0.82531E-06  2317   0.323E-03    0.204E-03
RMM:   4    -0.232103763430E+04    0.16007E-08   -0.81226E-07  1437   0.901E-04
 300 F= -.23414947E+04 E0= -.23414947E+04  d E =-.428467E-04  mag=     3.0000
       N       E                     dE             d eps       ncg     rms          rms(c)
DAV:   1    -0.232103765969E+04   -0.25389E-04   -0.66424E-03  4432   0.733E-02    0.255E-02
RMM:   2    -0.232103768304E+04   -0.23346E-04   -0.27160E-04  5579   0.132E-02    0.130E-02
RMM:   3    -0.232103768492E+04   -0.18821E-05   -0.19660E-05  2854   0.515E-03
 301 F= -.23414947E+04 E0= -.23414947E+04  d E =-.388336E-04  mag=     3.0000
