       N       E                     dE             d eps       ncg     rms          rms(c)
DAV:   1     0.132600090400E+05    0.13260E+05   -0.85255E+05  4560   0.145E+03
DAV:   2    -0.101665700791E+04   -0.14277E+05   -0.13655E+05  5008   0.332E+02
DAV:   3    -0.249494337934E+04   -0.14783E+04   -0.14595E+04  5568   0.115E+02
DAV:   4    -0.254216003108E+04   -0.47217E+02   -0.46960E+02  6808   0.300E+01
DAV:   5    -0.254299040193E+04   -0.83037E+00   -0.82863E+00  6312   0.351E+00    0.171E+02
RMM:   6    -0.150340925264E+04    0.10396E+04   -0.19717E+03  4508   0.384E+01    0.724E+01
RMM:   7    -0.166412365313E+04   -0.16071E+03   -0.28995E+02  5230   0.143E+01    0.477E+01
RMM:   8    -0.172714932134E+04   -0.63026E+02   -0.40396E+01  5460   0.708E+00    0.366E+01
RMM:   9    -0.185736776910E+04   -0.13022E+03   -0.64527E+01  5143   0.794E+00    0.361E+01
RMM:  10    -0.195190036418E+04   -0.94533E+02   -0.46669E+01  5422   0.656E+00    0.227E+01
RMM:  11    -0.203935242382E+04   -0.87452E+02   -0.35638E+01  5432   0.500E+00    0.206E+01
RMM:  12    -0.210164651182E+04   -0.62294E+02   -0.23810E+01  5218   0.394E+00    0.132E+01
RMM:  13    -0.224095770138E+04   -0.13931E+03   -0.11657E+02  4542   0.765E+00    0.108E+01
RMM:  14    -0.229377427688E+04   -0.52817E+02   -0.43204E+01  4724   0.505E+00    0.101E+01
RMM:  15    -0.231803400391E+04   -0.24260E+02   -0.22124E+01  5188   0.348E+00    0.814E+00
RMM:  16    -0.232659351826E+04   -0.85595E+01   -0.81768E+00  4874   0.200E+00    0.669E+00
RMM:  17    -0.232874431566E+04   -0.21508E+01   -0.17027E+00  5353   0.106E+00    0.546E+00
RMM:  18    -0.233254677212E+04   -0.38025E+01   -0.21977E+00  4557   0.940E-01    0.230E+00
RMM:  19    -0.233447570021E+04   -0.19289E+01   -0.11073E+00  4613   0.677E-01    0.173E+00
RMM:  20    -0.233518485961E+04   -0.70916E+00   -0.80098E-01  4675   0.445E-01    0.866E-01
RMM:  21    -0.233549652556E+04   -0.31167E+00   -0.49696E-01  4808   0.338E-01    0.487E-01
RMM:  22    -0.233563956238E+04   -0.14304E+00   -0.15713E-01  4816   0.208E-01    0.304E-01
RMM:  23    -0.233570572222E+04   -0.66160E-01   -0.43440E-02  4896   0.113E-01    0.229E-01
RMM:  24    -0.233573745198E+04   -0.31730E-01   -0.90418E-03  4848   0.640E-02    0.141E-01
RMM:  25    -0.233576679050E+04   -0.29339E-01   -0.70753E-03  4526   0.555E-02    0.875E-02
RMM:  26    -0.233577881491E+04   -0.12024E-01   -0.27885E-03  4698   0.416E-02    0.609E-02
RMM:  27    -0.233578522321E+04   -0.64083E-02   -0.16395E-03  4557   0.263E-02    0.375E-02
RMM:  28    -0.233578824701E+04   -0.30238E-02   -0.86813E-04  4271   0.226E-02    0.194E-02
RMM:  29    -0.233578885420E+04   -0.60719E-03   -0.24760E-04  4286   0.119E-02    0.122E-02
RMM:  30    -0.233578912982E+04   -0.27563E-03   -0.71359E-05  3647   0.662E-03    0.563E-03
RMM:  31    -0.233578922468E+04   -0.94859E-04   -0.20433E-05  3049   0.478E-03    0.350E-03
RMM:  32    -0.233578927979E+04   -0.55102E-04   -0.12738E-05  2919   0.346E-03    0.198E-03
RMM:  33    -0.233578930323E+04   -0.23440E-04   -0.67938E-06  2852   0.301E-03    0.110E-03
RMM:  34    -0.233578931274E+04   -0.95100E-05   -0.38296E-06  2483   0.220E-03
   1 F= -.23573546E+04 E0= -.23573546E+04  d E =-.235735E+04  mag=     4.0001
       N       E                     dE             d eps       ncg     rms          rms(c)
DAV:   1    -0.233549591431E+04    0.29339E+00   -0.38988E+01  4944   0.552E+00    0.190E+00
RMM:   2    -0.233604085850E+04   -0.54494E+00   -0.62222E+00  6575   0.155E+00    0.128E+00
RMM:   3    -0.233605370329E+04   -0.12845E-01   -0.42879E-01  6439   0.426E-01    0.141E+00
RMM:   4    -0.233603545857E+04    0.18245E-01   -0.50156E-02  6688   0.111E-01    0.655E-01
RMM:   5    -0.233603363630E+04    0.18223E-02   -0.18183E-02  5726   0.678E-02    0.782E-01
RMM:   6    -0.233602864311E+04    0.49932E-02   -0.14472E-02  5684   0.736E-02    0.435E-01
RMM:   7    -0.233602637485E+04    0.22683E-02   -0.37762E-03  5238   0.340E-02    0.871E-02
RMM:   8    -0.233602634604E+04    0.28813E-04   -0.57370E-04  4637   0.211E-02    0.987E-02
RMM:   9    -0.233602621118E+04    0.13486E-03   -0.25915E-04  4317   0.101E-02    0.446E-02
RMM:  10    -0.233602616106E+04    0.50114E-04   -0.10682E-04  3839   0.799E-03    0.176E-02
RMM:  11    -0.233602615348E+04    0.75804E-05   -0.30951E-05  3160   0.577E-03
   2 F= -.23575905E+04 E0= -.23575905E+04  d E =-.235838E+00  mag=     4.0000
       N       E                     dE             d eps       ncg     rms          rms(c)
DAV:   1    -0.233602321941E+04    0.29417E-02   -0.71211E-01  5066   0.732E-01    0.269E-01
RMM:   2    -0.233603245738E+04   -0.92380E-02   -0.10353E-01  6577   0.191E-01    0.247E-01
RMM:   3    -0.233603294624E+04   -0.48886E-03   -0.10394E-02  6085   0.636E-02    0.267E-01
RMM:   4    -0.233603223987E+04    0.70636E-03   -0.10487E-03  4873   0.179E-02    0.955E-02
RMM:   5    -0.233603223097E+04    0.89074E-05   -0.36685E-04  4244   0.107E-02    0.108E-01
RMM:   6    -0.233603210222E+04    0.12874E-03   -0.28725E-04  4476   0.107E-02    0.415E-02
RMM:   7    -0.233603209837E+04    0.38562E-05   -0.91866E-05  3183   0.740E-03
   3 F= -.23575965E+04 E0= -.23575965E+04  d E =-.241893E+00  mag=     4.0000
       N       E                     dE             d eps       ncg     rms          rms(c)
DAV:   1    -0.233585991075E+04    0.17219E+00   -0.40619E+01  4624   0.580E+00    0.162E+00
RMM:   2    -0.233627367010E+04   -0.41376E+00   -0.43725E+00  6548   0.123E+00    0.126E+00
RMM:   3    -0.233628839431E+04   -0.14724E-01   -0.37875E-01  6312   0.417E-01    0.131E+00
RMM:   4    -0.233626927975E+04    0.19115E-01   -0.40030E-02  6612   0.104E-01    0.527E-01
RMM:   5    -0.233626570263E+04    0.35771E-02   -0.87161E-03  5180   0.522E-02    0.270E-01
RMM:   6    -0.233626506518E+04    0.63745E-03   -0.63017E-03  5771   0.490E-02    0.174E-01
RMM:   7    -0.233626485047E+04    0.21472E-03   -0.10974E-03  5496   0.241E-02    0.117E-01
RMM:   8    -0.233626467843E+04    0.17203E-03   -0.15269E-04  3288   0.790E-03    0.462E-02
RMM:   9    -0.233626465572E+04    0.22718E-04   -0.13489E-04  3200   0.763E-03    0.274E-02
RMM:  10    -0.233626465084E+04    0.48744E-05   -0.49634E-05  3065   0.533E-03
   4 F= -.23578300E+04 E0= -.23578300E+04  d E =-.233520E+00  mag=     4.0000
       N       E                     dE             d eps       ncg     rms          rms(c)
DAV:   1    -0.233587101836E+04    0.39364E+00   -0.48879E+01  4592   0.631E+00    0.180E+00
RMM:   2    -0.233637103036E+04   -0.50001E+00   -0.52823E+00  6533   0.133E+00    0.140E+00
RMM:   3    -0.233638498827E+04   -0.13958E-01   -0.44739E-01  6280   0.446E-01    0.144E+00
RMM:   4    -0.233636201810E+04    0.22970E-01   -0.48489E-02  6586   0.114E-01    0.578E-01
RMM:   5    -0.233635778029E+04    0.42378E-02   -0.98507E-03  5110   0.561E-02    0.297E-01
RMM:   6    -0.233635676189E+04    0.10184E-02   -0.78399E-03  5628   0.536E-02    0.114E-01
RMM:   7    -0.233635681835E+04   -0.56459E-04   -0.91741E-04  5481   0.241E-02    0.136E-01
RMM:   8    -0.233635662137E+04    0.19698E-03   -0.21194E-04  3407   0.859E-03    0.511E-02
RMM:   9    -0.233635661025E+04    0.11123E-04   -0.15908E-04  3257   0.807E-03    0.417E-02
RMM:  10    -0.233635658795E+04    0.22298E-04   -0.68484E-05  3102   0.586E-03    0.182E-02
RMM:  11    -0.233635658636E+04    0.15896E-05   -0.12376E-05  2927   0.389E-03
   5 F= -.23579231E+04 E0= -.23579231E+04  d E =-.326644E+00  mag=     4.0000
       N       E                     dE             d eps       ncg     rms          rms(c)
DAV:   1    -0.233625434095E+04    0.10225E+00   -0.29212E+01  4608   0.484E+00    0.130E+00
RMM:   2    -0.233652656133E+04   -0.27222E+00   -0.29250E+00  6483   0.954E-01    0.941E-01
RMM:   3    -0.233655224198E+04   -0.25681E-01   -0.35288E-01  6242   0.380E-01    0.970E-01
RMM:   4    -0.233654215576E+04    0.10086E-01   -0.29255E-02  6542   0.843E-02    0.474E-01
RMM:   5    -0.233653993848E+04    0.22173E-02   -0.59137E-03  5694   0.434E-02    0.317E-01
RMM:   6    -0.233653965299E+04    0.28549E-03   -0.48043E-03  5530   0.360E-02    0.335E-01
RMM:   7    -0.233653828088E+04    0.13721E-02   -0.28937E-03  5834   0.327E-02    0.831E-02
RMM:   8    -0.233653821817E+04    0.62708E-04   -0.32216E-04  4254   0.128E-02    0.706E-02
RMM:   9    -0.233653816380E+04    0.54371E-04   -0.11749E-04  3150   0.723E-03    0.448E-02
RMM:  10    -0.233653812761E+04    0.36191E-04   -0.11301E-04  3214   0.668E-03    0.121E-02
RMM:  11    -0.233653812368E+04    0.39308E-05   -0.25102E-05  3010   0.438E-03
   6 F= -.23581059E+04 E0= -.23581059E+04  d E =-.182754E+00  mag=     4.0000
       N       E                     dE             d eps       ncg     rms          rms(c)
DAV:   1    -0.233480354034E+04    0.17346E+01   -0.18473E+02  4536   0.122E+01    0.347E+00
RMM:   2    -0.233675005960E+04   -0.19465E+01   -0.20578E+01  6480   0.251E+00    0.323E+00
RMM:   3    -0.233687726389E+04   -0.12720E+00   -0.22596E+00  6263   0.944E-01    0.321E+00
RMM:   4    -0.233676174209E+04    0.11552E+00   -0.19371E-01  6596   0.229E-01    0.131E+00
RMM:   5    -0.233674694928E+04    0.14793E-01   -0.39955E-02  5823   0.998E-02    0.819E-01
RMM:   6    -0.233674406776E+04    0.28815E-02   -0.40577E-02  5196   0.105E-01    0.856E-01
RMM:   7    -0.233673592488E+04    0.81429E-02   -0.17324E-02  5619   0.871E-02    0.307E-01
RMM:   8    -0.233673535300E+04    0.57188E-03   -0.28397E-03  4963   0.319E-02    0.181E-01
RMM:   9    -0.233673497663E+04    0.37637E-03   -0.94402E-04  4406   0.278E-02    0.551E-02
RMM:  10    -0.233673497464E+04    0.19854E-05   -0.40661E-04  4471   0.109E-02    0.541E-02
RMM:  11    -0.233673494393E+04    0.30709E-04   -0.97934E-05  3261   0.827E-03    0.270E-02
RMM:  12    -0.233673493924E+04    0.46988E-05   -0.28311E-05  3056   0.457E-03
   7 F= -.23583060E+04 E0= -.23583060E+04  d E =-.382892E+00  mag=     3.9998
       N       E                     dE             d eps       ncg     rms          rms(c)
DAV:   1    -0.233668397067E+04    0.50973E-01   -0.22453E+01  4608   0.397E+00    0.141E+00
RMM:   2    -0.233686566361E+04   -0.18169E+00   -0.19539E+00  6166   0.820E-01    0.940E-01
RMM:   3    -0.233688666874E+04   -0.21005E-01   -0.23190E-01  6038   0.347E-01    0.129E+00
RMM:   4    -0.233686777139E+04    0.18897E-01   -0.21818E-02  6400   0.858E-02    0.412E-01
RMM:   5    -0.233686581970E+04    0.19517E-02   -0.84353E-03  5490   0.533E-02    0.305E-01
RMM:   6    -0.233686550723E+04    0.31246E-03   -0.43077E-03  5793   0.387E-02    0.262E-01
RMM:   7    -0.233686471235E+04    0.79488E-03   -0.97275E-04  5570   0.201E-02    0.534E-02
RMM:   8    -0.233686470472E+04    0.76310E-05   -0.20290E-04  3923   0.102E-02    0.680E-02
RMM:   9    -0.233686464158E+04    0.63140E-04   -0.10606E-04  3238   0.698E-03    0.272E-02
RMM:  10    -0.233686462217E+04    0.19412E-04   -0.54419E-05  3429   0.584E-03    0.103E-02
RMM:  11    -0.233686462027E+04    0.18992E-05   -0.16068E-05  2960   0.500E-03
   8 F= -.23584364E+04 E0= -.23584364E+04  d E =-.130321E+00  mag=     4.0000
       N       E                     dE             d eps       ncg     rms          rms(c)
DAV:   1    -0.233682605195E+04    0.38570E-01   -0.74050E+00  4672   0.230E+00    0.804E-01
RMM:   2    -0.233688428327E+04   -0.58231E-01   -0.63298E-01  6150   0.469E-01    0.496E-01
RMM:   3    -0.233689129076E+04   -0.70075E-02   -0.73759E-02  6011   0.198E-01    0.709E-01
RMM:   4    -0.233688563256E+04    0.56582E-02   -0.70592E-03  6267   0.483E-02    0.235E-01
RMM:   5    -0.233688505275E+04    0.57981E-03   -0.28997E-03  5384   0.318E-02    0.192E-01
RMM:   6    -0.233688478500E+04    0.26775E-03   -0.13630E-03  5405   0.227E-02    0.124E-01
RMM:   7    -0.233688461232E+04    0.17268E-03   -0.25595E-04  4610   0.107E-02    0.314E-02
RMM:   8    -0.233688461191E+04    0.40724E-06   -0.65540E-05  3104   0.728E-03
   9 F= -.23584567E+04 E0= -.23584567E+04  d E =-.150633E+00  mag=     4.0000
       N       E                     dE             d eps       ncg     rms          rms(c)
DAV:   1    -0.233685352061E+04    0.31092E-01   -0.15838E+01  4560   0.292E+00    0.100E+00
RMM:   2    -0.233699271511E+04   -0.13919E+00   -0.14569E+00  6519   0.634E-01    0.845E-01
RMM:   3    -0.233699964840E+04   -0.69333E-02   -0.14958E-01  6233   0.227E-01    0.876E-01
RMM:   4    -0.233699165499E+04    0.79934E-02   -0.14355E-02  6422   0.580E-02    0.336E-01
RMM:   5    -0.233699126101E+04    0.39398E-03   -0.35876E-03  5676   0.293E-02    0.339E-01
RMM:   6    -0.233699011061E+04    0.11504E-02   -0.31122E-03  5755   0.294E-02    0.169E-01
RMM:   7    -0.233698984502E+04    0.26559E-03   -0.10367E-03  5318   0.179E-02    0.587E-02
RMM:   8    -0.233698984894E+04   -0.39157E-05   -0.18309E-04  3269   0.105E-02    0.591E-02
RMM:   9    -0.233698981244E+04    0.36494E-04   -0.49693E-05  3008   0.509E-03    0.246E-02
RMM:  10    -0.233698981056E+04    0.18877E-05   -0.34924E-05  3016   0.420E-03
  10 F= -.23585621E+04 E0= -.23585621E+04  d E =-.105463E+00  mag=     4.0000
       N       E                     dE             d eps       ncg     rms          rms(c)
DAV:   1    -0.233618610487E+04    0.80371E+00   -0.99378E+01  4536   0.741E+00    0.275E+00
RMM:   2    -0.233719733038E+04   -0.10112E+01   -0.10413E+01  6524   0.171E+00    0.265E+00
RMM:   3    -0.233719607845E+04    0.12519E-02   -0.10770E+00  6153   0.624E-01    0.224E+00
RMM:   4    -0.233714559876E+04    0.50480E-01   -0.10285E-01  6677   0.159E-01    0.953E-01
RMM:   5    -0.233714244435E+04    0.31544E-02   -0.26105E-02  6140   0.775E-02    0.901E-01
RMM:   6    -0.233713354797E+04    0.88964E-02   -0.19579E-02  6173   0.727E-02    0.429E-01
RMM:   7    -0.233713205267E+04    0.14953E-02   -0.87174E-03  5613   0.499E-02    0.205E-01
RMM:   8    -0.233713206415E+04   -0.11482E-04   -0.22526E-03  5133   0.314E-02    0.203E-01
RMM:   9    -0.233713164827E+04    0.41588E-03   -0.44619E-04  4498   0.125E-02    0.735E-02
RMM:  10    -0.233713161552E+04    0.32743E-04   -0.23140E-04  3624   0.963E-03    0.236E-02
RMM:  11    -0.233713163504E+04   -0.19520E-04   -0.53932E-05  3174   0.566E-03    0.989E-03
RMM:  12    -0.233713165122E+04   -0.16177E-04   -0.13580E-05  2943   0.443E-03    0.529E-03
RMM:  13    -0.233713165998E+04   -0.87558E-05   -0.67218E-06  2860   0.322E-03
  11 F= -.23587040E+04 E0= -.23587040E+04  d E =-.247348E+00  mag=     4.0000
       N       E                     dE             d eps       ncg     rms          rms(c)
DAV:   1    -0.233708907758E+04    0.42574E-01   -0.55080E+00  4656   0.179E+00    0.595E-01
RMM:   2    -0.233713664902E+04   -0.47571E-01   -0.50580E-01  6512   0.387E-01    0.448E-01
RMM:   3    -0.233713976316E+04   -0.31141E-02   -0.51836E-02  6130   0.131E-01    0.506E-01
RMM:   4    -0.233713714561E+04    0.26176E-02   -0.48632E-03  5945   0.343E-02    0.194E-01
RMM:   5    -0.233713707853E+04    0.67081E-04   -0.13176E-03  5351   0.185E-02    0.206E-01
RMM:   6    -0.233713661511E+04    0.46342E-03   -0.11014E-03  5114   0.186E-02    0.842E-02
RMM:   7    -0.233713656485E+04    0.50258E-04   -0.27507E-04  4552   0.104E-02    0.344E-02
RMM:   8    -0.233713656214E+04    0.27089E-05   -0.53748E-05  3009   0.653E-03
  12 F= -.23587088E+04 E0= -.23587088E+04  d E =-.252104E+00  mag=     4.0000
       N       E                     dE             d eps       ncg     rms          rms(c)
DAV:   1    -0.233697654649E+04    0.16002E+00   -0.35219E+01  4536   0.496E+00    0.158E+00
RMM:   2    -0.233725519359E+04   -0.27865E+00   -0.29457E+00  6384   0.103E+00    0.937E-01
RMM:   3    -0.233727182894E+04   -0.16635E-01   -0.29516E-01  6142   0.365E-01    0.931E-01
RMM:   4    -0.233726157307E+04    0.10256E-01   -0.28446E-02  6695   0.887E-02    0.460E-01
RMM:   5    -0.233725930524E+04    0.22678E-02   -0.80368E-03  5216   0.539E-02    0.276E-01
RMM:   6    -0.233725952735E+04   -0.22212E-03   -0.49090E-03  6008   0.438E-02    0.292E-01
RMM:   7    -0.233725858815E+04    0.93921E-03   -0.13721E-03  5865   0.222E-02    0.946E-02
RMM:   8    -0.233725858923E+04   -0.10780E-05   -0.35488E-04  3482   0.106E-02    0.962E-02
RMM:   9    -0.233725847564E+04    0.11358E-03   -0.14086E-04  3385   0.760E-03    0.310E-02
RMM:  10    -0.233725846965E+04    0.59987E-05   -0.55023E-05  3098   0.563E-03
  13 F= -.23588309E+04 E0= -.23588309E+04  d E =-.122088E+00  mag=     4.0000
       N       E                     dE             d eps       ncg     rms          rms(c)
DAV:   1    -0.233701327510E+04    0.24520E+00   -0.35987E+01  4536   0.503E+00    0.160E+00
RMM:   2    -0.233729950408E+04   -0.28623E+00   -0.30235E+00  6385   0.104E+00    0.972E-01
RMM:   3    -0.233731600668E+04   -0.16503E-01   -0.30122E-01  6181   0.368E-01    0.963E-01
RMM:   4    -0.233730488280E+04    0.11124E-01   -0.29294E-02  6649   0.905E-02    0.465E-01
RMM:   5    -0.233730277845E+04    0.21044E-02   -0.86504E-03  5263   0.544E-02    0.302E-01
RMM:   6    -0.233730296186E+04   -0.18341E-03   -0.52520E-03  5940   0.457E-02    0.310E-01
RMM:   7    -0.233730187878E+04    0.10831E-02   -0.15447E-03  5789   0.238E-02    0.117E-01
RMM:   8    -0.233730180538E+04    0.73397E-04   -0.39655E-04  3653   0.110E-02    0.898E-02
RMM:   9    -0.233730170726E+04    0.98116E-04   -0.13120E-04  3421   0.767E-03    0.281E-02
RMM:  10    -0.233730170603E+04    0.12387E-05   -0.57826E-05  3229   0.591E-03
  14 F= -.23588739E+04 E0= -.23588739E+04  d E =-.165119E+00  mag=     4.0000
       N       E                     dE             d eps       ncg     rms          rms(c)
DAV:   1    -0.233698356518E+04    0.31814E+00   -0.46664E+01  4536   0.584E+00    0.176E+00
RMM:   2    -0.233742399203E+04   -0.44043E+00   -0.47143E+00  6450   0.120E+00    0.112E+00
RMM:   3    -0.233745397330E+04   -0.29981E-01   -0.43512E-01  6280   0.417E-01    0.136E+00
RMM:   4    -0.233743279002E+04    0.21183E-01   -0.41188E-02  6661   0.107E-01    0.568E-01
RMM:   5    -0.233743093409E+04    0.18559E-02   -0.13212E-02  5698   0.595E-02    0.535E-01
RMM:   6    -0.233742847557E+04    0.24585E-02   -0.96819E-03  5983   0.552E-02    0.334E-01
RMM:   7    -0.233742706487E+04    0.14107E-02   -0.27862E-03  5989   0.314E-02    0.104E-01
RMM:   8    -0.233742704504E+04    0.19831E-04   -0.58254E-04  4546   0.155E-02    0.107E-01
RMM:   9    -0.233742687514E+04    0.16990E-03   -0.28226E-04  4119   0.992E-03    0.340E-02
RMM:  10    -0.233742685254E+04    0.22609E-04   -0.84663E-05  3274   0.644E-03    0.150E-02
RMM:  11    -0.233742685008E+04    0.24526E-05   -0.21154E-05  2987   0.502E-03
  15 F= -.23589998E+04 E0= -.23589998E+04  d E =-.125934E+00  mag=     4.0000
       N       E                     dE             d eps       ncg     rms          rms(c)
DAV:   1    -0.233726640076E+04    0.16045E+00   -0.20031E+01  4536   0.382E+00    0.114E+00
RMM:   2    -0.233744954136E+04   -0.18314E+00   -0.19531E+00  6421   0.773E-01    0.759E-01
RMM:   3    -0.233746226857E+04   -0.12727E-01   -0.18609E-01  6283   0.274E-01    0.887E-01
RMM:   4    -0.233745282788E+04    0.94407E-02   -0.17863E-02  6462   0.702E-02    0.365E-01
RMM:   5    -0.233745238003E+04    0.44785E-03   -0.58205E-03  5701   0.399E-02    0.374E-01
RMM:   6    -0.233745088128E+04    0.14987E-02   -0.41290E-03  5869   0.364E-02    0.187E-01
RMM:   7    -0.233745046260E+04    0.41867E-03   -0.10595E-03  5669   0.201E-02    0.767E-02
RMM:   8    -0.233745043568E+04    0.26920E-04   -0.24360E-04  3497   0.100E-02    0.656E-02
RMM:   9    -0.233745036732E+04    0.68362E-04   -0.10514E-04  3275   0.720E-03    0.196E-02
RMM:  10    -0.233745035899E+04    0.83276E-05   -0.42971E-05  3122   0.513E-03
  16 F= -.23590237E+04 E0= -.23590237E+04  d E =-.149816E+00  mag=     4.0000
       N       E                     dE             d eps       ncg     rms          rms(c)
DAV:   1    -0.233725605300E+04    0.19431E+00   -0.33173E+01  4536   0.513E+00    0.151E+00
RMM:   2    -0.233751179442E+04   -0.25574E+00   -0.28090E+00  6202   0.100E+00    0.905E-01
RMM:   3    -0.233752453590E+04   -0.12741E-01   -0.26135E-01  6102   0.370E-01    0.981E-01
RMM:   4    -0.233751492625E+04    0.96096E-02   -0.25129E-02  6669   0.876E-02    0.499E-01
RMM:   5    -0.233751206407E+04    0.28622E-02   -0.96259E-03  5475   0.568E-02    0.317E-01
RMM:   6    -0.233751216258E+04   -0.98511E-04   -0.67035E-03  6021   0.493E-02    0.325E-01
RMM:   7    -0.233751074191E+04    0.14207E-02   -0.19185E-03  5981   0.262E-02    0.658E-02
RMM:   8    -0.233751066057E+04    0.81340E-04   -0.28885E-04  3902   0.107E-02    0.410E-02
RMM:   9    -0.233751066522E+04   -0.46511E-05   -0.11680E-04  3199   0.744E-03    0.469E-02
RMM:  10    -0.233751063584E+04    0.29381E-04   -0.45150E-05  3043   0.551E-03    0.146E-02
RMM:  11    -0.233751063236E+04    0.34748E-05   -0.15197E-05  2954   0.416E-03
  17 F= -.23590846E+04 E0= -.23590846E+04  d E =-.608404E-01  mag=     4.0000
       N       E                     dE             d eps       ncg     rms          rms(c)
DAV:   1    -0.233750884344E+04    0.17924E-02   -0.30899E-01  5040   0.496E-01    0.142E-01
RMM:   2    -0.233751114292E+04   -0.22995E-02   -0.24983E-02  6284   0.957E-02    0.896E-02
RMM:   3    -0.233751124005E+04   -0.97131E-04   -0.21330E-03  5145   0.337E-02    0.994E-02
RMM:   4    -0.233751112846E+04    0.11159E-03   -0.22226E-04  3217   0.904E-03    0.462E-02
RMM:   5    -0.233751111262E+04    0.15833E-04   -0.94250E-05  3360   0.706E-03    0.385E-02
RMM:   6    -0.233751109873E+04    0.13891E-04   -0.64001E-05  3134   0.656E-03    0.224E-02
RMM:   7    -0.233751109155E+04    0.71836E-05   -0.15330E-05  2978   0.451E-03
  18 F= -.23590851E+04 E0= -.23590851E+04  d E =-.613494E-01  mag=     4.0000
       N       E                     dE             d eps       ncg     rms          rms(c)
DAV:   1    -0.233748683469E+04    0.24264E-01   -0.11128E+01  4536   0.319E+00    0.827E-01
RMM:   2    -0.233755032897E+04   -0.63494E-01   -0.67936E-01  6114   0.572E-01    0.552E-01
RMM:   3    -0.233755377053E+04   -0.34416E-02   -0.56574E-02  5993   0.211E-01    0.659E-01
RMM:   4    -0.233754869679E+04    0.50737E-02   -0.68261E-03  6339   0.534E-02    0.251E-01
RMM:   5    -0.233754816060E+04    0.53619E-03   -0.31208E-03  5079   0.373E-02    0.208E-01
RMM:   6    -0.233754796008E+04    0.20052E-03   -0.17311E-03  5481   0.278E-02    0.156E-01
RMM:   7    -0.233754766986E+04    0.29022E-03   -0.37620E-04  4945   0.130E-02    0.353E-02
RMM:   8    -0.233754766925E+04    0.60657E-06   -0.84102E-05  3103   0.730E-03
  19 F= -.23591224E+04 E0= -.23591224E+04  d E =-.373369E-01  mag=     4.0000
       N       E                     dE             d eps       ncg     rms          rms(c)
DAV:   1    -0.233753296872E+04    0.14701E-01   -0.36354E+00  4560   0.183E+00    0.475E-01
RMM:   2    -0.233755358962E+04   -0.20621E-01   -0.22026E-01  6114   0.329E-01    0.318E-01
RMM:   3    -0.233755484900E+04   -0.12594E-02   -0.19236E-02  5961   0.119E-01    0.380E-01
RMM:   4    -0.233755312318E+04    0.17258E-02   -0.22669E-03  5942   0.306E-02    0.143E-01
RMM:   5    -0.233755292042E+04    0.20276E-03   -0.10315E-03  4944   0.223E-02    0.111E-01
RMM:   6    -0.233755288478E+04    0.35633E-04   -0.52959E-04  4790   0.164E-02    0.914E-02
RMM:   7    -0.233755278312E+04    0.10166E-03   -0.12447E-04  3798   0.800E-03    0.185E-02
RMM:   8    -0.233755278138E+04    0.17386E-05   -0.24710E-05  2988   0.520E-03
  20 F= -.23591279E+04 E0= -.23591279E+04  d E =-.428658E-01  mag=     4.0000
       N       E                     dE             d eps       ncg     rms          rms(c)
DAV:   1    -0.233753647189E+04    0.16311E-01   -0.82183E+00  4536   0.277E+00    0.688E-01
RMM:   2    -0.233758581509E+04   -0.49343E-01   -0.53561E-01  6193   0.501E-01    0.413E-01
RMM:   3    -0.233758774111E+04   -0.19260E-02   -0.46783E-02  5921   0.171E-01    0.417E-01
RMM:   4    -0.233758617333E+04    0.15678E-02   -0.51494E-03  6313   0.405E-02    0.238E-01
RMM:   5    -0.233758551428E+04    0.65905E-03   -0.18751E-03  4903   0.286E-02    0.128E-01
RMM:   6    -0.233758563379E+04   -0.11951E-03   -0.11029E-03  5342   0.227E-02    0.152E-01
RMM:   7    -0.233758534964E+04    0.28415E-03   -0.32406E-04  4614   0.115E-02    0.292E-02
RMM:   8    -0.233758534497E+04    0.46684E-05   -0.50875E-05  3038   0.550E-03
  21 F= -.23591606E+04 E0= -.23591606E+04  d E =-.326788E-01  mag=     4.0000
       N       E                     dE             d eps       ncg     rms          rms(c)
DAV:   1    -0.233745379098E+04    0.13156E+00   -0.26250E+01  4536   0.494E+00    0.125E+00
RMM:   2    -0.233761182626E+04   -0.15804E+00   -0.17208E+00  6192   0.897E-01    0.745E-01
RMM:   3    -0.233761901973E+04   -0.71935E-02   -0.16633E-01  5950   0.318E-01    0.716E-01
RMM:   4    -0.233761479281E+04    0.42269E-02   -0.16876E-02  6564   0.731E-02    0.438E-01
RMM:   5    -0.233761259411E+04    0.21987E-02   -0.59870E-03  5043   0.495E-02    0.227E-01
RMM:   6    -0.233761288875E+04   -0.29464E-03   -0.35948E-03  5826   0.398E-02    0.260E-01
RMM:   7    -0.233761204899E+04    0.83976E-03   -0.10620E-03  5609   0.199E-02    0.627E-02
RMM:   8    -0.233761203867E+04    0.10322E-04   -0.19274E-04  3355   0.785E-03    0.576E-02
RMM:   9    -0.233761199439E+04    0.44281E-04   -0.76532E-05  3097   0.636E-03    0.260E-02
RMM:  10    -0.233761198598E+04    0.84051E-05   -0.34247E-05  3099   0.486E-03
  22 F= -.23591874E+04 E0= -.23591874E+04  d E =-.595074E-01  mag=     4.0000
       N       E                     dE             d eps       ncg     rms          rms(c)
DAV:   1    -0.233758373149E+04    0.28263E-01   -0.64205E+00  4576   0.255E+00    0.749E-01
RMM:   2    -0.233763424810E+04   -0.50517E-01   -0.55679E-01  6179   0.508E-01    0.346E-01
RMM:   3    -0.233763621101E+04   -0.19629E-02   -0.55008E-02  5716   0.188E-01    0.224E-01
RMM:   4    -0.233763645834E+04   -0.24733E-03   -0.59715E-03  5465   0.435E-02    0.264E-01
RMM:   5    -0.233763577261E+04    0.68573E-03   -0.18804E-03  5672   0.303E-02    0.123E-01
RMM:   6    -0.233763561862E+04    0.15399E-03   -0.39143E-04  4966   0.141E-02    0.296E-02
RMM:   7    -0.233763561818E+04    0.43432E-06   -0.55993E-05  3115   0.902E-03
  23 F= -.23592102E+04 E0= -.23592102E+04  d E =-.228081E-01  mag=     4.0000
       N       E                     dE             d eps       ncg     rms          rms(c)
DAV:   1    -0.233762883329E+04    0.67853E-02   -0.11784E+00  4752   0.109E+00    0.324E-01
RMM:   2    -0.233763815366E+04   -0.93204E-02   -0.10266E-01  6171   0.219E-01    0.153E-01
RMM:   3    -0.233763858963E+04   -0.43597E-03   -0.10178E-02  5662   0.803E-02    0.123E-01
RMM:   4    -0.233763857633E+04    0.13306E-04   -0.10897E-03  5132   0.185E-02    0.116E-01
RMM:   5    -0.233763841054E+04    0.16579E-03   -0.39300E-04  4757   0.143E-02    0.521E-02
RMM:   6    -0.233763842422E+04   -0.13684E-04   -0.15080E-04  3517   0.952E-03    0.570E-02
RMM:   7    -0.233763838154E+04    0.42677E-04   -0.46709E-05  3044   0.612E-03    0.100E-02
RMM:   8    -0.233763838015E+04    0.13950E-05   -0.93949E-06  2945   0.351E-03
  24 F= -.23592127E+04 E0= -.23592127E+04  d E =-.252183E-01  mag=     4.0000
       N       E                     dE             d eps       ncg     rms          rms(c)
DAV:   1    -0.233760939596E+04    0.28986E-01   -0.51086E+00  4548   0.229E+00    0.575E-01
RMM:   2    -0.233765480327E+04   -0.45407E-01   -0.49113E-01  6247   0.452E-01    0.315E-01
RMM:   3    -0.233765761691E+04   -0.28136E-02   -0.49923E-02  5892   0.161E-01    0.243E-01
RMM:   4    -0.233765767187E+04   -0.54958E-04   -0.49862E-03  6074   0.343E-02    0.230E-01
RMM:   5    -0.233765703874E+04    0.63314E-03   -0.14458E-03  5175   0.238E-02    0.113E-01
RMM:   6    -0.233765709820E+04   -0.59463E-04   -0.71738E-04  5099   0.183E-02    0.120E-01
RMM:   7    -0.233765690967E+04    0.18853E-03   -0.19365E-04  3803   0.991E-03    0.277E-02
RMM:   8    -0.233765690762E+04    0.20504E-05   -0.40997E-05  2995   0.541E-03
  25 F= -.23592305E+04 E0= -.23592305E+04  d E =-.178141E-01  mag=     4.0000
       N       E                     dE             d eps       ncg     rms          rms(c)
DAV:   1    -0.233761411114E+04    0.42799E-01   -0.52731E+00  4536   0.232E+00    0.588E-01
RMM:   2    -0.233766116757E+04   -0.47056E-01   -0.50866E-01  6250   0.459E-01    0.328E-01
RMM:   3    -0.233766420729E+04   -0.30397E-02   -0.51993E-02  5936   0.164E-01    0.272E-01
RMM:   4    -0.233766400670E+04    0.20059E-03   -0.51652E-03  6185   0.350E-02    0.224E-01
RMM:   5    -0.233766342658E+04    0.58012E-03   -0.13857E-03  5063   0.236E-02    0.123E-01
RMM:   6    -0.233766349679E+04   -0.70219E-04   -0.82531E-04  5165   0.192E-02    0.133E-01
RMM:   7    -0.233766326599E+04    0.23080E-03   -0.23329E-04  4151   0.103E-02    0.296E-02
RMM:   8    -0.233766326423E+04    0.17651E-05   -0.48290E-05  3012   0.614E-03
  26 F= -.23592361E+04 E0= -.23592361E+04  d E =-.234495E-01  mag=     4.0000
       N       E                     dE             d eps       ncg     rms          rms(c)
DAV:   1    -0.233763497885E+04    0.28287E-01   -0.58203E+00  4536   0.238E+00    0.628E-01
RMM:   2    -0.233767954509E+04   -0.44566E-01   -0.47952E-01  6164   0.454E-01    0.428E-01
RMM:   3    -0.233768234636E+04   -0.28013E-02   -0.49489E-02  6017   0.164E-01    0.415E-01
RMM:   4    -0.233768043763E+04    0.19087E-02   -0.50857E-03  6321   0.379E-02    0.199E-01
RMM:   5    -0.233767996517E+04    0.47246E-03   -0.15267E-03  4940   0.245E-02    0.116E-01
RMM:   6    -0.233768012759E+04   -0.16242E-03   -0.10293E-03  5290   0.220E-02    0.150E-01
RMM:   7    -0.233767983140E+04    0.29619E-03   -0.28741E-04  4477   0.112E-02    0.353E-02
RMM:   8    -0.233767982766E+04    0.37479E-05   -0.55673E-05  3004   0.612E-03
  27 F= -.23592521E+04 E0= -.23592521E+04  d E =-.159881E-01  mag=     4.0000
       N       E                     dE             d eps       ncg     rms          rms(c)
DAV:   1    -0.233766137011E+04    0.18461E-01   -0.28221E+00  4560   0.166E+00    0.440E-01
RMM:   2    -0.233768316162E+04   -0.21792E-01   -0.23380E-01  6185   0.318E-01    0.309E-01
RMM:   3    -0.233768445167E+04   -0.12900E-02   -0.23593E-02  5985   0.113E-01    0.299E-01
RMM:   4    -0.233768344422E+04    0.10074E-02   -0.24669E-03  5926   0.268E-02    0.138E-01
RMM:   5    -0.233768323577E+04    0.20845E-03   -0.77924E-04  4761   0.177E-02    0.866E-02
RMM:   6    -0.233768331020E+04   -0.74428E-04   -0.50543E-04  4689   0.158E-02    0.109E-01
RMM:   7    -0.233768315878E+04    0.15142E-03   -0.15004E-04  3787   0.861E-03    0.253E-02
RMM:   8    -0.233768315567E+04    0.31162E-05   -0.28162E-05  2964   0.560E-03
  28 F= -.23592550E+04 E0= -.23592550E+04  d E =-.189115E-01  mag=     4.0000
       N       E                     dE             d eps       ncg     rms          rms(c)
DAV:   1    -0.233765620510E+04    0.26954E-01   -0.40712E+00  4536   0.206E+00    0.535E-01
RMM:   2    -0.233769466518E+04   -0.38460E-01   -0.41248E-01  6160   0.400E-01    0.362E-01
RMM:   3    -0.233769754267E+04   -0.28775E-02   -0.42461E-02  5995   0.150E-01    0.369E-01
RMM:   4    -0.233769621086E+04    0.13318E-02   -0.43186E-03  6158   0.343E-02    0.182E-01
RMM:   5    -0.233769591591E+04    0.29495E-03   -0.13065E-03  4978   0.228E-02    0.138E-01
RMM:   6    -0.233769585840E+04    0.57508E-04   -0.82909E-04  5177   0.198E-02    0.112E-01
RMM:   7    -0.233769571111E+04    0.14729E-03   -0.22910E-04  4607   0.103E-02    0.389E-02
RMM:   8    -0.233769569755E+04    0.13561E-04   -0.45115E-05  2968   0.650E-03    0.246E-02
RMM:   9    -0.233769568681E+04    0.10738E-04   -0.15248E-05  2988   0.313E-03    0.104E-02
RMM:  10    -0.233769568507E+04    0.17434E-05   -0.12225E-05  2992   0.310E-03
  29 F= -.23592674E+04 E0= -.23592674E+04  d E =-.123535E-01  mag=     4.0000
       N       E                     dE             d eps       ncg     rms          rms(c)
DAV:   1    -0.233768970962E+04    0.59772E-02   -0.75053E-01  4656   0.883E-01    0.229E-01
RMM:   2    -0.233769680984E+04   -0.71002E-02   -0.75944E-02  6171   0.171E-01    0.158E-01
RMM:   3    -0.233769729460E+04   -0.48475E-03   -0.76003E-03  5804   0.636E-02    0.157E-01
RMM:   4    -0.233769705042E+04    0.24417E-03   -0.78907E-04  4325   0.149E-02    0.782E-02
RMM:   5    -0.233769700092E+04    0.49502E-04   -0.24188E-04  4335   0.111E-02    0.644E-02
RMM:   6    -0.233769697773E+04    0.23196E-04   -0.16228E-04  3341   0.956E-03    0.455E-02
RMM:   7    -0.233769695413E+04    0.23600E-04   -0.44764E-05  3115   0.641E-03    0.172E-02
RMM:   8    -0.233769695147E+04    0.26590E-05   -0.11009E-05  2919   0.438E-03
  30 F= -.23592686E+04 E0= -.23592686E+04  d E =-.135419E-01  mag=     4.0000
       N       E                     dE             d eps       ncg     rms          rms(c)
DAV:   1    -0.233767128137E+04    0.25673E-01   -0.40373E+00  4536   0.204E+00    0.544E-01
RMM:   2    -0.233770811307E+04   -0.36832E-01   -0.39737E-01  6133   0.392E-01    0.291E-01
RMM:   3    -0.233771039438E+04   -0.22813E-02   -0.38467E-02  5823   0.148E-01    0.277E-01
RMM:   4    -0.233770999786E+04    0.39653E-03   -0.40328E-03  6064   0.323E-02    0.191E-01
RMM:   5    -0.233770961984E+04    0.37802E-03   -0.11235E-03  4987   0.212E-02    0.117E-01
RMM:   6    -0.233770964341E+04   -0.23570E-04   -0.69294E-04  4781   0.185E-02    0.109E-01
RMM:   7    -0.233770949317E+04    0.15024E-03   -0.18010E-04  4272   0.929E-03    0.298E-02
RMM:   8    -0.233770948895E+04    0.42207E-05   -0.36802E-05  2975   0.586E-03
  31 F= -.23592809E+04 E0= -.23592809E+04  d E =-.123204E-01  mag=     4.0000
       N       E                     dE             d eps       ncg     rms          rms(c)
DAV:   1    -0.233767386726E+04    0.35626E-01   -0.41261E+00  4536   0.206E+00    0.551E-01
RMM:   2    -0.233771153898E+04   -0.37672E-01   -0.40675E-01  6157   0.396E-01    0.294E-01
RMM:   3    -0.233771386479E+04   -0.23258E-02   -0.39335E-02  5819   0.151E-01    0.275E-01
RMM:   4    -0.233771347126E+04    0.39353E-03   -0.41213E-03  6095   0.328E-02    0.193E-01
RMM:   5    -0.233771308038E+04    0.39088E-03   -0.11495E-03  5016   0.214E-02    0.118E-01
RMM:   6    -0.233771310251E+04   -0.22132E-04   -0.70165E-04  4779   0.185E-02    0.110E-01
RMM:   7    -0.233771294991E+04    0.15260E-03   -0.18205E-04  4340   0.931E-03    0.302E-02
RMM:   8    -0.233771294542E+04    0.44900E-05   -0.38921E-05  2969   0.593E-03
  32 F= -.23592841E+04 E0= -.23592841E+04  d E =-.155310E-01  mag=     4.0000
       N       E                     dE             d eps       ncg     rms          rms(c)
DAV:   1    -0.233770361703E+04    0.93329E-02   -0.22483E+00  4548   0.146E+00    0.374E-01
RMM:   2    -0.233772081168E+04   -0.17195E-01   -0.18378E-01  6207   0.272E-01    0.216E-01
RMM:   3    -0.233772178585E+04   -0.97417E-03   -0.16258E-02  5812   0.943E-02    0.207E-01
RMM:   4    -0.233772138950E+04    0.39635E-03   -0.18566E-03  5624   0.228E-02    0.127E-01
RMM:   5    -0.233772122335E+04    0.16615E-03   -0.57401E-04  4522   0.160E-02    0.646E-02
RMM:   6    -0.233772126766E+04   -0.44304E-04   -0.30603E-04  4077   0.131E-02    0.734E-02
RMM:   7    -0.233772119297E+04    0.74688E-04   -0.78461E-05  3175   0.693E-03    0.186E-02
RMM:   8    -0.233772119248E+04    0.49284E-06   -0.17276E-05  2945   0.429E-03
  33 F= -.23592920E+04 E0= -.23592920E+04  d E =-.790272E-02  mag=     4.0000
       N       E                     dE             d eps       ncg     rms          rms(c)
DAV:   1    -0.233764375376E+04    0.77439E-01   -0.10841E+01  4536   0.321E+00    0.820E-01
RMM:   2    -0.233772680560E+04   -0.83052E-01   -0.88867E-01  6202   0.596E-01    0.467E-01
RMM:   3    -0.233773153396E+04   -0.47284E-02   -0.79946E-02  5893   0.207E-01    0.444E-01
RMM:   4    -0.233772981850E+04    0.17155E-02   -0.89322E-03  6466   0.492E-02    0.283E-01
RMM:   5    -0.233772893824E+04    0.88027E-03   -0.26704E-03  4866   0.327E-02    0.139E-01
RMM:   6    -0.233772914719E+04   -0.20896E-03   -0.15214E-03  5216   0.270E-02    0.159E-01
RMM:   7    -0.233772879325E+04    0.35395E-03   -0.39618E-04  4651   0.126E-02    0.403E-02
RMM:   8    -0.233772878770E+04    0.55452E-05   -0.78373E-05  3032   0.640E-03
  34 F= -.23592988E+04 E0= -.23592988E+04  d E =-.147018E-01  mag=     4.0000
       N       E                     dE             d eps       ncg     rms          rms(c)
DAV:   1    -0.233772418989E+04    0.46034E-02   -0.19713E+00  4560   0.141E+00    0.382E-01
RMM:   2    -0.233773825332E+04   -0.14063E-01   -0.14569E-01  6140   0.259E-01    0.278E-01
RMM:   3    -0.233773924753E+04   -0.99420E-03   -0.14157E-02  5912   0.947E-02    0.308E-01
RMM:   4    -0.233773802420E+04    0.12233E-02   -0.16753E-03  5841   0.254E-02    0.108E-01
RMM:   5    -0.233773808232E+04   -0.58121E-04   -0.65677E-04  5005   0.163E-02    0.117E-01
RMM:   6    -0.233773791520E+04    0.16712E-03   -0.37770E-04  4593   0.128E-02    0.453E-02
RMM:   7    -0.233773790390E+04    0.11300E-04   -0.68665E-05  3160   0.707E-03    0.313E-02
RMM:   8    -0.233773789499E+04    0.89116E-05   -0.21506E-05  2938   0.471E-03
  35 F= -.23593078E+04 E0= -.23593078E+04  d E =-.900565E-02  mag=     4.0000
       N       E                     dE             d eps       ncg     rms          rms(c)
DAV:   1    -0.233767232652E+04    0.65577E-01   -0.97724E+00  4536   0.313E+00    0.846E-01
RMM:   2    -0.233774107130E+04   -0.68745E-01   -0.71870E-01  6135   0.578E-01    0.573E-01
RMM:   3    -0.233774688988E+04   -0.58186E-02   -0.71561E-02  5959   0.214E-01    0.677E-01
RMM:   4    -0.233774099078E+04    0.58991E-02   -0.82898E-03  6354   0.557E-02    0.240E-01
RMM:   5    -0.233774106973E+04   -0.78954E-04   -0.30890E-03  5284   0.343E-02    0.239E-01
RMM:   6    -0.233774041530E+04    0.65443E-03   -0.17908E-03  5750   0.273E-02    0.109E-01
RMM:   7    -0.233774030470E+04    0.11060E-03   -0.31774E-04  4820   0.125E-02    0.592E-02
RMM:   8    -0.233774027674E+04    0.27962E-04   -0.87537E-05  3003   0.737E-03    0.328E-02
RMM:   9    -0.233774026666E+04    0.10080E-04   -0.25205E-05  3017   0.388E-03    0.124E-02
RMM:  10    -0.233774026927E+04   -0.26151E-05   -0.13212E-05  2963   0.358E-03
  36 F= -.23593099E+04 E0= -.23593099E+04  d E =-.111338E-01  mag=     4.0000
       N       E                     dE             d eps       ncg     rms          rms(c)
DAV:   1    -0.233773082084E+04    0.94458E-02   -0.16611E+00  4560   0.129E+00    0.347E-01
RMM:   2    -0.233774251193E+04   -0.11691E-01   -0.12122E-01  6136   0.238E-01    0.244E-01
RMM:   3    -0.233774334667E+04   -0.83474E-03   -0.11817E-02  5912   0.867E-02    0.270E-01
RMM:   4    -0.233774238817E+04    0.95850E-03   -0.13673E-03  5719   0.230E-02    0.981E-02
RMM:   5    -0.233774239301E+04   -0.48422E-05   -0.50664E-04  4788   0.150E-02    0.952E-02
RMM:   6    -0.233774229970E+04    0.93315E-04   -0.27922E-04  3982   0.116E-02    0.478E-02
RMM:   7    -0.233774227839E+04    0.21307E-04   -0.52251E-05  3062   0.662E-03    0.238E-02
RMM:   8    -0.233774227405E+04    0.43360E-05   -0.16790E-05  2937   0.453E-03
  37 F= -.23593120E+04 E0= -.23593120E+04  d E =-.132433E-01  mag=     4.0000
       N       E                     dE             d eps       ncg     rms          rms(c)
DAV:   1    -0.233772963941E+04    0.12639E-01   -0.33432E+00  4536   0.174E+00    0.475E-01
RMM:   2    -0.233775299258E+04   -0.23353E-01   -0.24022E-01  6160   0.328E-01    0.397E-01
RMM:   3    -0.233775395149E+04   -0.95890E-03   -0.23382E-02  5956   0.120E-01    0.389E-01
RMM:   4    -0.233775206417E+04    0.18873E-02   -0.25086E-03  6022   0.311E-02    0.139E-01
RMM:   5    -0.233775208195E+04   -0.17777E-04   -0.11233E-03  5237   0.200E-02    0.143E-01
RMM:   6    -0.233775184313E+04    0.23882E-03   -0.66754E-04  5043   0.164E-02    0.604E-02
RMM:   7    -0.233775180356E+04    0.39571E-04   -0.11746E-04  3749   0.806E-03    0.326E-02
RMM:   8    -0.233775179493E+04    0.86345E-05   -0.29126E-05  2949   0.535E-03
  38 F= -.23593215E+04 E0= -.23593215E+04  d E =-.944770E-02  mag=     4.0000
       N       E                     dE             d eps       ncg     rms          rms(c)
DAV:   1    -0.233772784759E+04    0.23956E-01   -0.39988E+00  4536   0.190E+00    0.524E-01
RMM:   2    -0.233775611580E+04   -0.28268E-01   -0.28967E-01  6176   0.360E-01    0.447E-01
RMM:   3    -0.233775706261E+04   -0.94682E-03   -0.27251E-02  5979   0.130E-01    0.429E-01
RMM:   4    -0.233775477429E+04    0.22883E-02   -0.30221E-03  6037   0.341E-02    0.152E-01
RMM:   5    -0.233775482866E+04   -0.54367E-04   -0.13577E-03  5318   0.218E-02    0.161E-01
RMM:   6    -0.233775451455E+04    0.31411E-03   -0.80357E-04  5224   0.178E-02    0.664E-02
RMM:   7    -0.233775447394E+04    0.40611E-04   -0.15407E-04  3933   0.874E-03    0.415E-02
RMM:   8    -0.233775445782E+04    0.16121E-04   -0.38298E-05  2954   0.571E-03    0.201E-02
RMM:   9    -0.233775445281E+04    0.50042E-05   -0.10388E-05  2972   0.282E-03
  39 F= -.23593241E+04 E0= -.23593241E+04  d E =-.120206E-01  mag=     4.0000
       N       E                     dE             d eps       ncg     rms          rms(c)
DAV:   1    -0.233774060475E+04    0.13853E-01   -0.40908E+00  4536   0.190E+00    0.486E-01
RMM:   2    -0.233776323179E+04   -0.22627E-01   -0.23669E-01  6105   0.339E-01    0.350E-01
RMM:   3    -0.233776470152E+04   -0.14697E-02   -0.21169E-02  5851   0.119E-01    0.397E-01
RMM:   4    -0.233776287471E+04    0.18268E-02   -0.24396E-03  6016   0.313E-02    0.146E-01
RMM:   5    -0.233776276988E+04    0.10483E-03   -0.11547E-03  4921   0.216E-02    0.114E-01
RMM:   6    -0.233776270079E+04    0.69093E-04   -0.59719E-04  4672   0.171E-02    0.740E-02
RMM:   7    -0.233776262371E+04    0.77076E-04   -0.91884E-05  3494   0.738E-03    0.158E-02
RMM:   8    -0.233776262206E+04    0.16539E-05   -0.15340E-05  2990   0.451E-03
  40 F= -.23593319E+04 E0= -.23593319E+04  d E =-.789505E-02  mag=     4.0000
       N       E                     dE             d eps       ncg     rms          rms(c)
DAV:   1    -0.233774395398E+04    0.18670E-01   -0.39925E+00  4536   0.188E+00    0.481E-01
RMM:   2    -0.233776606389E+04   -0.22110E-01   -0.23112E-01  6090   0.336E-01    0.351E-01
RMM:   3    -0.233776750309E+04   -0.14392E-02   -0.20807E-02  5839   0.118E-01    0.398E-01
RMM:   4    -0.233776570239E+04    0.18007E-02   -0.23762E-03  6028   0.309E-02    0.144E-01
RMM:   5    -0.233776561662E+04    0.85770E-04   -0.11265E-03  4934   0.213E-02    0.117E-01
RMM:   6    -0.233776553122E+04    0.85399E-04   -0.59496E-04  4718   0.168E-02    0.717E-02
RMM:   7    -0.233776546031E+04    0.70905E-04   -0.88331E-05  3495   0.729E-03    0.155E-02
RMM:   8    -0.233776545774E+04    0.25760E-05   -0.14608E-05  2985   0.448E-03
  41 F= -.23593345E+04 E0= -.23593345E+04  d E =-.104528E-01  mag=     4.0000
       N       E                     dE             d eps       ncg     rms          rms(c)
DAV:   1    -0.233775446815E+04    0.10992E-01   -0.42651E+00  4536   0.198E+00    0.530E-01
RMM:   2    -0.233777554298E+04   -0.21075E-01   -0.22917E-01  6028   0.344E-01    0.254E-01
RMM:   3    -0.233777602828E+04   -0.48530E-03   -0.19390E-02  5462   0.125E-01    0.187E-01
RMM:   4    -0.233777634614E+04   -0.31785E-03   -0.25955E-03  5752   0.316E-02    0.236E-01
RMM:   5    -0.233777567993E+04    0.66621E-03   -0.11745E-03  5150   0.235E-02    0.529E-02
RMM:   6    -0.233777567786E+04    0.20675E-05   -0.16048E-04  4052   0.116E-02    0.290E-02
RMM:   7    -0.233777568228E+04   -0.44182E-05   -0.48272E-05  2992   0.635E-03
  42 F= -.23593447E+04 E0= -.23593447E+04  d E =-.101793E-01  mag=     4.0000
       N       E                     dE             d eps       ncg     rms          rms(c)
DAV:   1    -0.233776699481E+04    0.86831E-02   -0.20973E+00  4560   0.139E+00    0.372E-01
RMM:   2    -0.233777730658E+04   -0.10312E-01   -0.11205E-01  6002   0.240E-01    0.181E-01
RMM:   3    -0.233777763439E+04   -0.32781E-03   -0.99137E-03  5428   0.907E-02    0.146E-01
RMM:   4    -0.233777770099E+04   -0.66602E-04   -0.12163E-03  5397   0.216E-02    0.158E-01
RMM:   5    -0.233777742310E+04    0.27789E-03   -0.57858E-04  4908   0.170E-02    0.394E-02
RMM:   6    -0.233777743869E+04   -0.15589E-04   -0.95809E-05  3381   0.963E-03    0.409E-02
RMM:   7    -0.233777742116E+04    0.17527E-04   -0.37697E-05  2966   0.497E-03    0.172E-02
RMM:   8    -0.233777741967E+04    0.14903E-05   -0.67369E-06  2927   0.307E-03
  43 F= -.23593464E+04 E0= -.23593464E+04  d E =-.118828E-01  mag=     4.0000
       N       E                     dE             d eps       ncg     rms          rms(c)
DAV:   1    -0.233776450471E+04    0.12916E-01   -0.38619E+00  4536   0.178E+00    0.476E-01
RMM:   2    -0.233778506161E+04   -0.20557E-01   -0.22192E-01  6041   0.316E-01    0.255E-01
RMM:   3    -0.233778582953E+04   -0.76792E-03   -0.20262E-02  5843   0.113E-01    0.235E-01
RMM:   4    -0.233778563348E+04    0.19604E-03   -0.21029E-03  5652   0.264E-02    0.185E-01
RMM:   5    -0.233778528916E+04    0.34432E-03   -0.10596E-03  4819   0.207E-02    0.800E-02
RMM:   6    -0.233778534056E+04   -0.51407E-04   -0.40007E-04  4238   0.145E-02    0.916E-02
RMM:   7    -0.233778524314E+04    0.97427E-04   -0.10660E-04  3106   0.687E-03    0.207E-02
RMM:   8    -0.233778524507E+04   -0.19335E-05   -0.18415E-05  2983   0.410E-03
  44 F= -.23593544E+04 E0= -.23593544E+04  d E =-.803912E-02  mag=     4.0000
       N       E                     dE             d eps       ncg     rms          rms(c)
DAV:   1    -0.233776436123E+04    0.20882E-01   -0.42909E+00  4536   0.188E+00    0.502E-01
RMM:   2    -0.233778712298E+04   -0.22762E-01   -0.24568E-01  6051   0.333E-01    0.273E-01
RMM:   3    -0.233778808532E+04   -0.96235E-03   -0.22473E-02  5877   0.118E-01    0.256E-01
RMM:   4    -0.233778780814E+04    0.27718E-03   -0.23887E-03  5799   0.279E-02    0.191E-01
RMM:   5    -0.233778749731E+04    0.31083E-03   -0.11632E-03  4870   0.215E-02    0.104E-01
RMM:   6    -0.233778748994E+04    0.73696E-05   -0.51626E-04  4480   0.157E-02    0.911E-02
RMM:   7    -0.233778739312E+04    0.96819E-04   -0.10970E-04  3162   0.729E-03    0.208E-02
RMM:   8    -0.233778739843E+04   -0.53083E-05   -0.22574E-05  2993   0.441E-03
  45 F= -.23593568E+04 E0= -.23593568E+04  d E =-.104186E-01  mag=     4.0000
       N       E                     dE             d eps       ncg     rms          rms(c)
DAV:   1    -0.233777725525E+04    0.10138E-01   -0.24849E+00  4548   0.151E+00    0.408E-01
RMM:   2    -0.233779353534E+04   -0.16280E-01   -0.17235E-01  6237   0.284E-01    0.239E-01
RMM:   3    -0.233779449730E+04   -0.96196E-03   -0.15710E-02  5994   0.969E-02    0.254E-01
RMM:   4    -0.233779399040E+04    0.50690E-03   -0.16900E-03  5643   0.240E-02    0.131E-01
RMM:   5    -0.233779390666E+04    0.83738E-04   -0.67651E-04  4703   0.171E-02    0.988E-02
RMM:   6    -0.233779386464E+04    0.42016E-04   -0.37176E-04  4161   0.136E-02    0.741E-02
RMM:   7    -0.233779380123E+04    0.63417E-04   -0.78402E-05  3126   0.688E-03    0.219E-02
RMM:   8    -0.233779380074E+04    0.48985E-06   -0.19379E-05  2957   0.469E-03
  46 F= -.23593636E+04 E0= -.23593636E+04  d E =-.679180E-02  mag=     4.0000
       N       E                     dE             d eps       ncg     rms          rms(c)
DAV:   1    -0.233775794851E+04    0.35853E-01   -0.54083E+00  4536   0.223E+00    0.603E-01
RMM:   2    -0.233779340677E+04   -0.35458E-01   -0.37513E-01  6223   0.418E-01    0.359E-01
RMM:   3    -0.233779558546E+04   -0.21787E-02   -0.34527E-02  6021   0.145E-01    0.390E-01
RMM:   4    -0.233779433480E+04    0.12507E-02   -0.36965E-03  6185   0.356E-02    0.191E-01
RMM:   5    -0.233779415707E+04    0.17773E-03   -0.15079E-03  4894   0.246E-02    0.145E-01
RMM:   6    -0.233779406148E+04    0.95588E-04   -0.83060E-04  4903   0.193E-02    0.109E-01
RMM:   7    -0.233779392190E+04    0.13959E-03   -0.17133E-04  3874   0.888E-03    0.335E-02
RMM:   8    -0.233779391791E+04    0.39849E-05   -0.42254E-05  3007   0.599E-03
  47 F= -.23593643E+04 E0= -.23593643E+04  d E =-.748668E-02  mag=     4.0000
       N       E                     dE             d eps       ncg     rms          rms(c)
DAV:   1    -0.233778926807E+04    0.46538E-02   -0.90282E-01  4576   0.908E-01    0.242E-01
RMM:   2    -0.233779506690E+04   -0.57988E-02   -0.61322E-02  6241   0.171E-01    0.142E-01
RMM:   3    -0.233779542146E+04   -0.35457E-03   -0.58186E-03  5878   0.589E-02    0.151E-01
RMM:   4    -0.233779523798E+04    0.18349E-03   -0.60121E-04  4084   0.145E-02    0.779E-02
RMM:   5    -0.233779519374E+04    0.44239E-04   -0.23576E-04  4152   0.114E-02    0.481E-02
RMM:   6    -0.233779519734E+04   -0.36044E-05   -0.12209E-04  3198   0.874E-03    0.453E-02
RMM:   7    -0.233779517194E+04    0.25400E-04   -0.31989E-05  2958   0.557E-03    0.133E-02
RMM:   8    -0.233779517154E+04    0.39669E-06   -0.75781E-06  2911   0.327E-03
  48 F= -.23593653E+04 E0= -.23593653E+04  d E =-.850384E-02  mag=     4.0000
       N       E                     dE             d eps       ncg     rms          rms(c)
DAV:   1    -0.233778666013E+04    0.85118E-02   -0.24533E+00  4548   0.150E+00    0.409E-01
RMM:   2    -0.233780165546E+04   -0.14995E-01   -0.16009E-01  6203   0.277E-01    0.219E-01
RMM:   3    -0.233780236610E+04   -0.71064E-03   -0.13849E-02  5898   0.959E-02    0.220E-01
RMM:   4    -0.233780200924E+04    0.35686E-03   -0.15452E-03  5796   0.234E-02    0.129E-01
RMM:   5    -0.233780187411E+04    0.13513E-03   -0.67664E-04  4703   0.178E-02    0.734E-02
RMM:   6    -0.233780187988E+04   -0.57646E-05   -0.28303E-04  3885   0.133E-02    0.675E-02
RMM:   7    -0.233780181165E+04    0.68224E-04   -0.65556E-05  3067   0.638E-03    0.149E-02
RMM:   8    -0.233780181088E+04    0.77269E-06   -0.13310E-05  2958   0.405E-03
  49 F= -.23593722E+04 E0= -.23593722E+04  d E =-.689281E-02  mag=     4.0000
       N       E                     dE             d eps       ncg     rms          rms(c)
DAV:   1    -0.233777308363E+04    0.28728E-01   -0.49613E+00  4536   0.213E+00    0.584E-01
RMM:   2    -0.233780362152E+04   -0.30538E-01   -0.32578E-01  6216   0.394E-01    0.318E-01
RMM:   3    -0.233780512257E+04   -0.15011E-02   -0.27501E-02  5990   0.131E-01    0.331E-01
RMM:   4    -0.233780426879E+04    0.85378E-03   -0.30878E-03  6186   0.330E-02    0.182E-01
RMM:   5    -0.233780406230E+04    0.20649E-03   -0.14077E-03  4857   0.245E-02    0.120E-01
RMM:   6    -0.233780402553E+04    0.36779E-04   -0.62380E-04  4708   0.180E-02    0.983E-02
RMM:   7    -0.233780389591E+04    0.12961E-03   -0.13578E-04  3497   0.807E-03    0.268E-02
RMM:   8    -0.233780389707E+04   -0.11620E-05   -0.35888E-05  2986   0.541E-03
  50 F= -.23593747E+04 E0= -.23593747E+04  d E =-.934195E-02  mag=     4.0000
       N       E                     dE             d eps       ncg     rms          rms(c)
DAV:   1    -0.233779514354E+04    0.87524E-02   -0.22546E+00  4536   0.139E+00    0.375E-01
RMM:   2    -0.233780889219E+04   -0.13749E-01   -0.14641E-01  6247   0.257E-01    0.195E-01
RMM:   3    -0.233780963517E+04   -0.74298E-03   -0.12268E-02  5794   0.841E-02    0.172E-01
RMM:   4    -0.233780949202E+04    0.14315E-03   -0.14540E-03  5500   0.216E-02    0.127E-01
RMM:   5    -0.233780935773E+04    0.13429E-03   -0.54726E-04  4637   0.159E-02    0.603E-02
RMM:   6    -0.233780939484E+04   -0.37114E-04   -0.20713E-04  3350   0.110E-02    0.713E-02
RMM:   7    -0.233780933122E+04    0.63621E-04   -0.61136E-05  3013   0.602E-03    0.131E-02
RMM:   8    -0.233780933160E+04   -0.37269E-06   -0.10087E-05  2951   0.337E-03
  51 F= -.23593801E+04 E0= -.23593801E+04  d E =-.541802E-02  mag=     4.0000
       N       E                     dE             d eps       ncg     rms          rms(c)
DAV:   1    -0.233777019566E+04    0.39136E-01   -0.67796E+00  4536   0.240E+00    0.651E-01
RMM:   2    -0.233781162927E+04   -0.41434E-01   -0.44209E-01  6237   0.444E-01    0.336E-01
RMM:   3    -0.233781378961E+04   -0.21603E-02   -0.37003E-02  5865   0.145E-01    0.290E-01
RMM:   4    -0.233781343879E+04    0.35082E-03   -0.43388E-03  6218   0.369E-02    0.222E-01
RMM:   5    -0.233781296036E+04    0.47843E-03   -0.16563E-03  4961   0.267E-02    0.758E-02
RMM:   6    -0.233781303821E+04   -0.77854E-04   -0.40356E-04  4468   0.166E-02    0.923E-02
RMM:   7    -0.233781294461E+04    0.93601E-04   -0.14597E-04  3204   0.722E-03    0.263E-02
RMM:   8    -0.233781293792E+04    0.66958E-05   -0.22992E-05  3006   0.446E-03
  52 F= -.23593837E+04 E0= -.23593837E+04  d E =-.900262E-02  mag=     4.0000
       N       E                     dE             d eps       ncg     rms          rms(c)
DAV:   1    -0.233780764409E+04    0.53005E-02   -0.15787E+00  4560   0.124E+00    0.359E-01
RMM:   2    -0.233781987456E+04   -0.12230E-01   -0.12989E-01  6201   0.239E-01    0.207E-01
RMM:   3    -0.233782106688E+04   -0.11923E-02   -0.13070E-02  5923   0.894E-02    0.247E-01
RMM:   4    -0.233782035924E+04    0.70764E-03   -0.14332E-03  5659   0.224E-02    0.108E-01
RMM:   5    -0.233782031289E+04    0.46351E-04   -0.55017E-04  4738   0.158E-02    0.784E-02
RMM:   6    -0.233782027387E+04    0.39025E-04   -0.23099E-04  3644   0.114E-02    0.485E-02
RMM:   7    -0.233782024718E+04    0.26688E-04   -0.37704E-05  2975   0.563E-03    0.196E-02
RMM:   8    -0.233782024629E+04    0.88643E-06   -0.13248E-05  2916   0.398E-03
  53 F= -.23593907E+04 E0= -.23593907E+04  d E =-.704273E-02  mag=     4.0000
       N       E                     dE             d eps       ncg     rms          rms(c)
DAV:   1    -0.233781228887E+04    0.79583E-02   -0.12648E+00  4576   0.111E+00    0.321E-01
RMM:   2    -0.233782202462E+04   -0.97357E-02   -0.10405E-01  6196   0.214E-01    0.168E-01
RMM:   3    -0.233782282617E+04   -0.80156E-03   -0.10008E-02  5818   0.781E-02    0.181E-01
RMM:   4    -0.233782251392E+04    0.31226E-03   -0.10983E-03  5333   0.193E-02    0.105E-01
RMM:   5    -0.233782243911E+04    0.74802E-04   -0.42207E-04  4567   0.144E-02    0.627E-02
RMM:   6    -0.233782242606E+04    0.13051E-04   -0.16828E-04  3332   0.103E-02    0.470E-02
RMM:   7    -0.233782239904E+04    0.27028E-04   -0.34651E-05  2963   0.536E-03    0.161E-02
RMM:   8    -0.233782239891E+04    0.12646E-06   -0.11427E-05  2920   0.367E-03
  54 F= -.23593926E+04 E0= -.23593926E+04  d E =-.895906E-02  mag=     4.0000
       N       E                     dE             d eps       ncg     rms          rms(c)
DAV:   1    -0.233781553204E+04    0.68670E-02   -0.19302E+00  4536   0.137E+00    0.397E-01
RMM:   2    -0.233782861062E+04   -0.13079E-01   -0.14082E-01  6130   0.257E-01    0.194E-01
RMM:   3    -0.233782935185E+04   -0.74123E-03   -0.12812E-02  5878   0.925E-02    0.181E-01
RMM:   4    -0.233782918745E+04    0.16440E-03   -0.14330E-03  5577   0.220E-02    0.144E-01
RMM:   5    -0.233782899764E+04    0.18981E-03   -0.60524E-04  4811   0.174E-02    0.611E-02
RMM:   6    -0.233782901337E+04   -0.15724E-04   -0.23454E-04  3819   0.115E-02    0.628E-02
RMM:   7    -0.233782895922E+04    0.54147E-04   -0.63419E-05  3029   0.621E-03    0.120E-02
RMM:   8    -0.233782895747E+04    0.17469E-05   -0.11945E-05  2964   0.373E-03
  55 F= -.23593986E+04 E0= -.23593986E+04  d E =-.599633E-02  mag=     4.0000
       N       E                     dE             d eps       ncg     rms          rms(c)
DAV:   1    -0.233782140139E+04    0.75578E-02   -0.13251E+00  4576   0.113E+00    0.329E-01
RMM:   2    -0.233783040628E+04   -0.90049E-02   -0.96968E-02  6135   0.214E-01    0.161E-01
RMM:   3    -0.233783088507E+04   -0.47879E-03   -0.85389E-03  5838   0.749E-02    0.150E-01
RMM:   4    -0.233783076393E+04    0.12113E-03   -0.96976E-04  5219   0.182E-02    0.119E-01
RMM:   5    -0.233783063108E+04    0.13285E-03   -0.41831E-04  4561   0.148E-02    0.522E-02
RMM:   6    -0.233783063872E+04   -0.76328E-05   -0.16390E-04  3435   0.100E-02    0.517E-02
RMM:   7    -0.233783060186E+04    0.36859E-04   -0.45060E-05  2988   0.590E-03    0.102E-02
RMM:   8    -0.233783060026E+04    0.15946E-05   -0.93650E-06  2958   0.351E-03
  56 F= -.23593998E+04 E0= -.23593998E+04  d E =-.717393E-02  mag=     4.0000
       N       E                     dE             d eps       ncg     rms          rms(c)
DAV:   1    -0.233782482020E+04    0.57817E-02   -0.20083E+00  4536   0.140E+00    0.388E-01
RMM:   2    -0.233783604395E+04   -0.11224E-01   -0.11870E-01  6071   0.256E-01    0.222E-01
RMM:   3    -0.233783671017E+04   -0.66622E-03   -0.10015E-02  5852   0.899E-02    0.263E-01
RMM:   4    -0.233783606791E+04    0.64227E-03   -0.12711E-03  5665   0.229E-02    0.113E-01
RMM:   5    -0.233783606107E+04    0.68393E-05   -0.58133E-04  4902   0.174E-02    0.959E-02
RMM:   6    -0.233783596809E+04    0.92981E-04   -0.27290E-04  4085   0.120E-02    0.481E-02
RMM:   7    -0.233783594361E+04    0.24478E-04   -0.47178E-05  3013   0.589E-03    0.208E-02
RMM:   8    -0.233783594150E+04    0.21095E-05   -0.16770E-05  2934   0.419E-03
  57 F= -.23594044E+04 E0= -.23594044E+04  d E =-.458443E-02  mag=     4.0000
       N       E                     dE             d eps       ncg     rms          rms(c)
DAV:   1    -0.233783465453E+04    0.12891E-02   -0.34833E-01  4672   0.582E-01    0.162E-01
RMM:   2    -0.233783660792E+04   -0.19534E-02   -0.20656E-02  6100   0.107E-01    0.920E-02
RMM:   3    -0.233783672440E+04   -0.11648E-03   -0.17295E-03  5333   0.359E-02    0.109E-01
RMM:   4    -0.233783661230E+04    0.11210E-03   -0.21824E-04  3345   0.986E-03    0.482E-02
RMM:   5    -0.233783661287E+04   -0.56565E-06   -0.10366E-04  3480   0.844E-03    0.443E-02
RMM:   6    -0.233783659191E+04    0.20955E-04   -0.54325E-05  3026   0.672E-03    0.195E-02
RMM:   7    -0.233783658810E+04    0.38167E-05   -0.11546E-05  2940   0.419E-03
  58 F= -.23594047E+04 E0= -.23594047E+04  d E =-.491796E-02  mag=     4.0000
       N       E                     dE             d eps       ncg     rms          rms(c)
DAV:   1    -0.233783382735E+04    0.27646E-02   -0.20516E+00  4536   0.140E+00    0.364E-01
RMM:   2    -0.233784356554E+04   -0.97382E-02   -0.10176E-01  6096   0.246E-01    0.220E-01
RMM:   3    -0.233784393500E+04   -0.36946E-03   -0.72244E-03  5730   0.805E-02    0.246E-01
RMM:   4    -0.233784331651E+04    0.61849E-03   -0.10550E-03  5711   0.224E-02    0.106E-01
RMM:   5    -0.233784342164E+04   -0.10513E-03   -0.56854E-04  5013   0.166E-02    0.122E-01
RMM:   6    -0.233784323242E+04    0.18922E-03   -0.28948E-04  4455   0.119E-02    0.318E-02
RMM:   7    -0.233784322699E+04    0.54358E-05   -0.36505E-05  3009   0.550E-03
  59 F= -.23594107E+04 E0= -.23594107E+04  d E =-.599218E-02  mag=     4.0000
       N       E                     dE             d eps       ncg     rms          rms(c)
DAV:   1    -0.233783263192E+04    0.10601E-01   -0.26912E+00  4536   0.160E+00    0.419E-01
RMM:   2    -0.233784545850E+04   -0.12827E-01   -0.13381E-01  6069   0.281E-01    0.254E-01
RMM:   3    -0.233784593247E+04   -0.47397E-03   -0.94870E-03  5775   0.907E-02    0.283E-01
RMM:   4    -0.233784512049E+04    0.81198E-03   -0.13844E-03  5848   0.255E-02    0.121E-01
RMM:   5    -0.233784524952E+04   -0.12902E-03   -0.74510E-04  5111   0.187E-02    0.135E-01
RMM:   6    -0.233784501945E+04    0.23007E-03   -0.36297E-04  4756   0.132E-02    0.379E-02
RMM:   7    -0.233784501097E+04    0.84777E-05   -0.47378E-05  3014   0.563E-03
  60 F= -.23594118E+04 E0= -.23594118E+04  d E =-.705401E-02  mag=     4.0000
       N       E                     dE             d eps       ncg     rms          rms(c)
DAV:   1    -0.233784408849E+04    0.93096E-03   -0.22975E-01  4672   0.467E-01    0.120E-01
RMM:   2    -0.233784518685E+04   -0.10984E-02   -0.11284E-02  6187   0.827E-02    0.864E-02
RMM:   3    -0.233784522652E+04   -0.39678E-04   -0.87812E-04  4742   0.260E-02    0.930E-02
RMM:   4    -0.233784512301E+04    0.10352E-03   -0.11542E-04  3153   0.842E-03    0.365E-02
RMM:   5    -0.233784513549E+04   -0.12481E-04   -0.67102E-05  3057   0.648E-03    0.453E-02
RMM:   6    -0.233784511064E+04    0.24845E-04   -0.46753E-05  3061   0.641E-03    0.745E-03
RMM:   7    -0.233784511103E+04   -0.38141E-06   -0.75691E-06  2924   0.419E-03
  61 F= -.23594121E+04 E0= -.23594121E+04  d E =-.736277E-02  mag=     4.0000
       N       E                     dE             d eps       ncg     rms          rms(c)
DAV:   1    -0.233784435040E+04    0.76024E-03   -0.15377E+00  4560   0.118E+00    0.313E-01
RMM:   2    -0.233785046964E+04   -0.61192E-02   -0.64709E-02  5989   0.202E-01    0.186E-01
RMM:   3    -0.233785067081E+04   -0.20117E-03   -0.46583E-03  5648   0.659E-02    0.207E-01
RMM:   4    -0.233785019278E+04    0.47803E-03   -0.70613E-04  5601   0.187E-02    0.884E-02
RMM:   5    -0.233785026419E+04   -0.71412E-04   -0.41195E-04  4691   0.142E-02    0.105E-01
RMM:   6    -0.233785012557E+04    0.13862E-03   -0.19882E-04  3933   0.104E-02    0.273E-02
RMM:   7    -0.233785012050E+04    0.50718E-05   -0.25687E-05  2995   0.537E-03
  62 F= -.23594165E+04 E0= -.23594165E+04  d E =-.445005E-02  mag=     4.0000
       N       E                     dE             d eps       ncg     rms          rms(c)
DAV:   1    -0.233784146114E+04    0.86644E-02   -0.26536E+00  4536   0.155E+00    0.414E-01
RMM:   2    -0.233785207805E+04   -0.10617E-01   -0.11230E-01  5995   0.266E-01    0.243E-01
RMM:   3    -0.233785245365E+04   -0.37560E-03   -0.81561E-03  5720   0.891E-02    0.270E-01
RMM:   4    -0.233785165146E+04    0.80219E-03   -0.12361E-03  5950   0.247E-02    0.115E-01
RMM:   5    -0.233785174281E+04   -0.91346E-04   -0.69648E-04  4986   0.181E-02    0.126E-01
RMM:   6    -0.233785154915E+04    0.19365E-03   -0.31758E-04  4599   0.126E-02    0.404E-02
RMM:   7    -0.233785153580E+04    0.13351E-04   -0.39907E-05  3010   0.543E-03    0.214E-02
RMM:   8    -0.233785153345E+04    0.23561E-05   -0.15727E-05  2928   0.392E-03
  63 F= -.23594172E+04 E0= -.23594172E+04  d E =-.514503E-02  mag=     4.0000
       N       E                     dE             d eps       ncg     rms          rms(c)
DAV:   1    -0.233785033803E+04    0.11978E-02   -0.36923E-01  4592   0.577E-01    0.152E-01
RMM:   2    -0.233785179310E+04   -0.14551E-02   -0.15436E-02  6041   0.989E-02    0.891E-02
RMM:   3    -0.233785183619E+04   -0.43091E-04   -0.11047E-03  5074   0.319E-02    0.961E-02
RMM:   4    -0.233785172994E+04    0.10625E-03   -0.16273E-04  3459   0.948E-03    0.427E-02
RMM:   5    -0.233785173943E+04   -0.94951E-05   -0.93046E-05  3403   0.795E-03
  64 F= -.23594177E+04 E0= -.23594177E+04  d E =-.561657E-02  mag=     4.0000
       N       E                     dE             d eps       ncg     rms          rms(c)
DAV:   1    -0.233785289779E+04   -0.11679E-02   -0.60661E-01  4528   0.763E-01    0.207E-01
RMM:   2    -0.233785508304E+04   -0.21852E-02   -0.22830E-02  5948   0.132E-01    0.127E-01
RMM:   3    -0.233785527334E+04   -0.19030E-03   -0.19059E-03  5624   0.447E-02    0.166E-01
RMM:   4    -0.233785493010E+04    0.34324E-03   -0.31462E-04  4621   0.133E-02    0.563E-02
RMM:   5    -0.233785495203E+04   -0.21930E-04   -0.16568E-04  4303   0.104E-02    0.634E-02
RMM:   6    -0.233785489770E+04    0.54333E-04   -0.87099E-05  3098   0.795E-03    0.177E-02
RMM:   7    -0.233785489686E+04    0.83768E-06   -0.16810E-05  2961   0.495E-03
  65 F= -.23594205E+04 E0= -.23594205E+04  d E =-.279015E-02  mag=     4.0000
       N       E                     dE             d eps       ncg     rms          rms(c)
DAV:   1    -0.233785364702E+04    0.12507E-02   -0.78757E-01  4536   0.869E-01    0.238E-01
RMM:   2    -0.233785641785E+04   -0.27708E-02   -0.29214E-02  5856   0.147E-01    0.132E-01
RMM:   3    -0.233785661789E+04   -0.20004E-03   -0.23155E-03  5510   0.542E-02    0.166E-01
RMM:   4    -0.233785626364E+04    0.35425E-03   -0.38856E-04  5198   0.150E-02    0.662E-02
RMM:   5    -0.233785628705E+04   -0.23405E-04   -0.22806E-04  4438   0.119E-02    0.693E-02
RMM:   6    -0.233785622523E+04    0.61824E-04   -0.95364E-05  3102   0.826E-03    0.219E-02
RMM:   7    -0.233785622304E+04    0.21821E-05   -0.19762E-05  2959   0.486E-03
  66 F= -.23594214E+04 E0= -.23594214E+04  d E =-.370170E-02  mag=     4.0000
       N       E                     dE             d eps       ncg     rms          rms(c)
DAV:   1    -0.233785660945E+04   -0.38423E-03   -0.56804E-01  4536   0.766E-01    0.197E-01
RMM:   2    -0.233785907229E+04   -0.24628E-02   -0.26089E-02  5981   0.130E-01    0.104E-01
RMM:   3    -0.233785924335E+04   -0.17106E-03   -0.21912E-03  5437   0.480E-02    0.126E-01
RMM:   4    -0.233785906420E+04    0.17914E-03   -0.28327E-04  3964   0.122E-02    0.583E-02
RMM:   5    -0.233785904199E+04    0.22218E-04   -0.13924E-04  4173   0.106E-02    0.280E-02
RMM:   6    -0.233785905079E+04   -0.88058E-05   -0.45149E-05  2981   0.707E-03
  67 F= -.23594240E+04 E0= -.23594240E+04  d E =-.262740E-02  mag=     4.0000
       N       E                     dE             d eps       ncg     rms          rms(c)
DAV:   1    -0.233785096364E+04    0.80783E-02   -0.24254E+00  4520   0.158E+00    0.405E-01
RMM:   2    -0.233786149441E+04   -0.10531E-01   -0.11167E-01  5935   0.267E-01    0.211E-01
RMM:   3    -0.233786210065E+04   -0.60624E-03   -0.86016E-03  5609   0.892E-02    0.253E-01
RMM:   4    -0.233786140096E+04    0.69969E-03   -0.11765E-03  5720   0.240E-02    0.124E-01
RMM:   5    -0.233786131888E+04    0.82080E-04   -0.59195E-04  4829   0.188E-02    0.749E-02
RMM:   6    -0.233786131380E+04    0.50749E-05   -0.22396E-04  3725   0.122E-02    0.638E-02
RMM:   7    -0.233786126767E+04    0.46134E-04   -0.44933E-05  2976   0.550E-03    0.130E-02
RMM:   8    -0.233786126754E+04    0.13340E-06   -0.11800E-05  2964   0.368E-03
  68 F= -.23594258E+04 E0= -.23594258E+04  d E =-.444168E-02  mag=     4.0000
       N       E                     dE             d eps       ncg     rms          rms(c)
DAV:   1    -0.233785999895E+04    0.12687E-02   -0.76135E-01  4576   0.889E-01    0.219E-01
RMM:   2    -0.233786410264E+04   -0.41037E-02   -0.43877E-02  6001   0.156E-01    0.111E-01
RMM:   3    -0.233786433987E+04   -0.23723E-03   -0.39611E-03  5525   0.561E-02    0.109E-01
RMM:   4    -0.233786427958E+04    0.60295E-04   -0.42744E-04  4127   0.132E-02    0.818E-02
RMM:   5    -0.233786421817E+04    0.61409E-04   -0.17709E-04  4188   0.115E-02    0.248E-02
RMM:   6    -0.233786422569E+04   -0.75238E-05   -0.42794E-05  3013   0.730E-03
  69 F= -.23594288E+04 E0= -.23594288E+04  d E =-.300094E-02  mag=     4.0000
       N       E                     dE             d eps       ncg     rms          rms(c)
DAV:   1    -0.233784809302E+04    0.16125E-01   -0.32108E+00  4520   0.183E+00    0.450E-01
RMM:   2    -0.233786543942E+04   -0.17346E-01   -0.18614E-01  5965   0.322E-01    0.222E-01
RMM:   3    -0.233786623462E+04   -0.79520E-03   -0.16302E-02  5631   0.111E-01    0.192E-01
RMM:   4    -0.233786623063E+04    0.39901E-05   -0.18118E-03  5590   0.265E-02    0.184E-01
RMM:   5    -0.233786591483E+04    0.31580E-03   -0.80091E-04  4952   0.210E-02    0.609E-02
RMM:   6    -0.233786592675E+04   -0.11926E-04   -0.19736E-04  4290   0.128E-02    0.501E-02
RMM:   7    -0.233786590037E+04    0.26381E-04   -0.65084E-05  3036   0.568E-03    0.207E-02
RMM:   8    -0.233786589624E+04    0.41303E-05   -0.12310E-05  2965   0.361E-03
  70 F= -.23594306E+04 E0= -.23594306E+04  d E =-.477750E-02  mag=     4.0000
       N       E                     dE             d eps       ncg     rms          rms(c)
DAV:   1    -0.233786396141E+04    0.19390E-02   -0.91841E-01  4656   0.959E-01    0.235E-01
RMM:   2    -0.233786873931E+04   -0.47779E-02   -0.50745E-02  5994   0.168E-01    0.116E-01
RMM:   3    -0.233786887298E+04   -0.13367E-03   -0.38625E-03  5359   0.566E-02    0.938E-02
RMM:   4    -0.233786889402E+04   -0.21040E-04   -0.49237E-04  4344   0.144E-02    0.987E-02
RMM:   5    -0.233786880823E+04    0.85782E-04   -0.23857E-04  4242   0.121E-02    0.356E-02
RMM:   6    -0.233786881494E+04   -0.67068E-05   -0.65079E-05  3037   0.747E-03
  71 F= -.23594336E+04 E0= -.23594336E+04  d E =-.296289E-02  mag=     4.0000
       N       E                     dE             d eps       ncg     rms          rms(c)
DAV:   1    -0.233784163951E+04    0.27169E-01   -0.55676E+00  4536   0.236E+00    0.578E-01
RMM:   2    -0.233787060847E+04   -0.28969E-01   -0.30716E-01  5985   0.412E-01    0.292E-01
RMM:   3    -0.233787169139E+04   -0.10829E-02   -0.23618E-02  5625   0.135E-01    0.271E-01
RMM:   4    -0.233787136267E+04    0.32871E-03   -0.29586E-03  5970   0.343E-02    0.216E-01
RMM:   5    -0.233787096824E+04    0.39443E-03   -0.13004E-03  4920   0.266E-02    0.811E-02
RMM:   6    -0.233787106216E+04   -0.93922E-04   -0.39617E-04  4548   0.162E-02    0.107E-01
RMM:   7    -0.233787094442E+04    0.11775E-03   -0.12937E-04  3059   0.713E-03    0.208E-02
RMM:   8    -0.233787094211E+04    0.23035E-05   -0.24258E-05  3011   0.426E-03
  72 F= -.23594358E+04 E0= -.23594358E+04  d E =-.522637E-02  mag=     4.0000
       N       E                     dE             d eps       ncg     rms          rms(c)
DAV:   1    -0.233786694218E+04    0.40022E-02   -0.17651E+00  4560   0.130E+00    0.328E-01
RMM:   2    -0.233787553033E+04   -0.85882E-02   -0.90864E-02  6013   0.227E-01    0.171E-01
RMM:   3    -0.233787580564E+04   -0.27531E-03   -0.67330E-03  5542   0.775E-02    0.173E-01
RMM:   4    -0.233787556951E+04    0.23613E-03   -0.90435E-04  5360   0.200E-02    0.113E-01
RMM:   5    -0.233787545916E+04    0.11036E-03   -0.42936E-04  4587   0.159E-02    0.444E-02
RMM:   6    -0.233787549284E+04   -0.33680E-04   -0.12796E-04  3258   0.101E-02    0.627E-02
RMM:   7    -0.233787544856E+04    0.44279E-04   -0.46423E-05  2959   0.540E-03    0.112E-02
RMM:   8    -0.233787544805E+04    0.50692E-06   -0.98481E-06  2955   0.330E-03
  73 F= -.23594402E+04 E0= -.23594402E+04  d E =-.440547E-02  mag=     4.0000
       N       E                     dE             d eps       ncg     rms          rms(c)
DAV:   1    -0.233786010391E+04    0.15345E-01   -0.36869E+00  4536   0.188E+00    0.473E-01
RMM:   2    -0.233787794532E+04   -0.17841E-01   -0.18892E-01  6007   0.327E-01    0.247E-01
RMM:   3    -0.233787852459E+04   -0.57927E-03   -0.14087E-02  5678   0.112E-01    0.248E-01
RMM:   4    -0.233787800934E+04    0.51525E-03   -0.18649E-03  6032   0.288E-02    0.160E-01
RMM:   5    -0.233787783698E+04    0.17236E-03   -0.92827E-04  4808   0.218E-02    0.863E-02
RMM:   6    -0.233787783210E+04    0.48815E-05   -0.32756E-04  4182   0.143E-02    0.766E-02
RMM:   7    -0.233787775981E+04    0.72291E-04   -0.78493E-05  3052   0.637E-03    0.238E-02
RMM:   8    -0.233787775850E+04    0.13088E-05   -0.24076E-05  2970   0.447E-03
  74 F= -.23594424E+04 E0= -.23594424E+04  d E =-.659170E-02  mag=     4.0000
       N       E                     dE             d eps       ncg     rms          rms(c)
DAV:   1    -0.233787279373E+04    0.49661E-02   -0.17103E+00  4608   0.126E+00    0.337E-01
RMM:   2    -0.233788186992E+04   -0.90762E-02   -0.96051E-02  6003   0.227E-01    0.182E-01
RMM:   3    -0.233788224829E+04   -0.37837E-03   -0.75164E-03  5631   0.790E-02    0.193E-01
RMM:   4    -0.233788193698E+04    0.31131E-03   -0.99138E-04  5523   0.206E-02    0.115E-01
RMM:   5    -0.233788190158E+04    0.35395E-04   -0.48876E-04  4602   0.159E-02    0.824E-02
RMM:   6    -0.233788183901E+04    0.62573E-04   -0.20083E-04  3505   0.109E-02    0.432E-02
RMM:   7    -0.233788181774E+04    0.21274E-04   -0.32632E-05  2967   0.562E-03    0.118E-02
RMM:   8    -0.233788181931E+04   -0.15772E-05   -0.10784E-05  2952   0.380E-03
  75 F= -.23594466E+04 E0= -.23594466E+04  d E =-.420970E-02  mag=     4.0000
       N       E                     dE             d eps       ncg     rms          rms(c)
DAV:   1    -0.233787683762E+04    0.49801E-02   -0.11071E+00  4608   0.101E+00    0.271E-01
RMM:   2    -0.233788271039E+04   -0.58728E-02   -0.62223E-02  6019   0.182E-01    0.146E-01
RMM:   3    -0.233788293503E+04   -0.22464E-03   -0.48060E-03  5591   0.609E-02    0.153E-01
RMM:   4    -0.233788274970E+04    0.18533E-03   -0.63104E-04  4956   0.164E-02    0.943E-02
RMM:   5    -0.233788272326E+04    0.26434E-04   -0.31101E-04  4322   0.132E-02    0.668E-02
RMM:   6    -0.233788268166E+04    0.41603E-04   -0.13046E-04  3183   0.913E-03    0.351E-02
RMM:   7    -0.233788266751E+04    0.14154E-04   -0.23699E-05  2967   0.527E-03    0.874E-03
RMM:   8    -0.233788266801E+04   -0.50469E-06   -0.68061E-06  2921   0.328E-03
  76 F= -.23594476E+04 E0= -.23594476E+04  d E =-.518623E-02  mag=     4.0000
       N       E                     dE             d eps       ncg     rms          rms(c)
DAV:   1    -0.233787252232E+04    0.10145E-01   -0.19558E+00  4536   0.137E+00    0.369E-01
RMM:   2    -0.233788606697E+04   -0.13545E-01   -0.14152E-01  6072   0.260E-01    0.241E-01
RMM:   3    -0.233788694276E+04   -0.87579E-03   -0.12656E-02  5853   0.885E-02    0.284E-01
RMM:   4    -0.233788614863E+04    0.79413E-03   -0.14697E-03  5537   0.233E-02    0.114E-01
RMM:   5    -0.233788612175E+04    0.26883E-04   -0.56922E-04  4607   0.161E-02    0.900E-02
RMM:   6    -0.233788607021E+04    0.51542E-04   -0.30735E-04  4294   0.124E-02    0.573E-02
RMM:   7    -0.233788603668E+04    0.33529E-04   -0.51497E-05  3007   0.640E-03    0.167E-02
RMM:   8    -0.233788603994E+04   -0.32544E-05   -0.15767E-05  2953   0.418E-03
  77 F= -.23594515E+04 E0= -.23594515E+04  d E =-.393229E-02  mag=     4.0000
       N       E                     dE             d eps       ncg     rms          rms(c)
DAV:   1    -0.233787642305E+04    0.96136E-02   -0.14132E+00  4592   0.116E+00    0.315E-01
RMM:   2    -0.233788625866E+04   -0.98356E-02   -0.10264E-01  6083   0.221E-01    0.207E-01
RMM:   3    -0.233788691735E+04   -0.65869E-03   -0.91651E-03  5830   0.756E-02    0.246E-01
RMM:   4    -0.233788630827E+04    0.60908E-03   -0.10702E-03  5232   0.200E-02    0.966E-02
RMM:   5    -0.233788629216E+04    0.16114E-04   -0.41423E-04  4452   0.140E-02    0.779E-02
RMM:   6    -0.233788625190E+04    0.40257E-04   -0.22405E-04  3763   0.108E-02    0.478E-02
RMM:   7    -0.233788622920E+04    0.22700E-04   -0.37676E-05  2977   0.614E-03    0.129E-02
RMM:   8    -0.233788623278E+04   -0.35759E-05   -0.11662E-05  2954   0.390E-03
  78 F= -.23594522E+04 E0= -.23594522E+04  d E =-.460969E-02  mag=     4.0000
       N       E                     dE             d eps       ncg     rms          rms(c)
DAV:   1    -0.233787530849E+04    0.10921E-01   -0.16484E+00  4548   0.128E+00    0.341E-01
RMM:   2    -0.233788914709E+04   -0.13839E-01   -0.14390E-01  6118   0.249E-01    0.237E-01
RMM:   3    -0.233789019648E+04   -0.10494E-02   -0.13378E-02  5909   0.849E-02    0.277E-01
RMM:   4    -0.233788942839E+04    0.76810E-03   -0.14832E-03  5327   0.220E-02    0.103E-01
RMM:   5    -0.233788940279E+04    0.25597E-04   -0.44497E-04  4479   0.143E-02    0.801E-02
RMM:   6    -0.233788937433E+04    0.28458E-04   -0.25478E-04  4023   0.114E-02    0.555E-02
RMM:   7    -0.233788934513E+04    0.29198E-04   -0.48261E-05  3001   0.649E-03    0.158E-02
RMM:   8    -0.233788934837E+04   -0.32352E-05   -0.14466E-05  2956   0.416E-03
  79 F= -.23594559E+04 E0= -.23594559E+04  d E =-.370817E-02  mag=     4.0000
       N       E                     dE             d eps       ncg     rms          rms(c)
DAV:   1    -0.233786133402E+04    0.28011E-01   -0.33987E+00  4536   0.184E+00    0.490E-01
RMM:   2    -0.233788983507E+04   -0.28501E-01   -0.29668E-01  6125   0.358E-01    0.341E-01
RMM:   3    -0.233789204766E+04   -0.22126E-02   -0.27900E-02  5951   0.122E-01    0.400E-01
RMM:   4    -0.233789046291E+04    0.15847E-02   -0.30875E-03  5905   0.315E-02    0.149E-01
RMM:   5    -0.233789043073E+04    0.32186E-04   -0.92929E-04  4949   0.195E-02    0.125E-01
RMM:   6    -0.233789032891E+04    0.10182E-03   -0.55406E-04  5129   0.155E-02    0.771E-02
RMM:   7    -0.233789027474E+04    0.54170E-04   -0.97880E-05  3413   0.773E-03    0.249E-02
RMM:   8    -0.233789027913E+04   -0.43942E-05   -0.29574E-05  2974   0.526E-03
  80 F= -.23594577E+04 E0= -.23594577E+04  d E =-.550775E-02  mag=     4.0000
       N       E                     dE             d eps       ncg     rms          rms(c)
DAV:   1    -0.233787352312E+04    0.16752E-01   -0.21540E+00  4608   0.147E+00    0.424E-01
RMM:   2    -0.233789367211E+04   -0.20149E-01   -0.21281E-01  6165   0.295E-01    0.258E-01
RMM:   3    -0.233789542576E+04   -0.17536E-02   -0.20479E-02  5972   0.104E-01    0.313E-01
RMM:   4    -0.233789439440E+04    0.10314E-02   -0.22714E-03  5741   0.264E-02    0.129E-01
RMM:   5    -0.233789429211E+04    0.10229E-03   -0.62167E-04  4664   0.170E-02    0.766E-02
RMM:   6    -0.233789433565E+04   -0.43540E-04   -0.33253E-04  4429   0.129E-02    0.836E-02
RMM:   7    -0.233789424833E+04    0.87323E-04   -0.91703E-05  3099   0.727E-03    0.213E-02
RMM:   8    -0.233789424877E+04   -0.44033E-06   -0.23876E-05  2970   0.489E-03
  81 F= -.23594623E+04 E0= -.23594623E+04  d E =-.457103E-02  mag=     4.0000
       N       E                     dE             d eps       ncg     rms          rms(c)
DAV:   1    -0.233787759717E+04    0.16651E-01   -0.17614E+00  4608   0.133E+00    0.383E-01
RMM:   2    -0.233789410112E+04   -0.16504E-01   -0.17423E-01  6158   0.267E-01    0.235E-01
RMM:   3    -0.233789554976E+04   -0.14486E-02   -0.16817E-02  5956   0.939E-02    0.285E-01
RMM:   4    -0.233789470432E+04    0.84544E-03   -0.18502E-03  5577   0.239E-02    0.118E-01
RMM:   5    -0.233789462186E+04    0.82457E-04   -0.51402E-04  4545   0.155E-02    0.722E-02
RMM:   6    -0.233789464823E+04   -0.26364E-04   -0.28415E-04  4183   0.120E-02    0.746E-02
RMM:   7    -0.233789457881E+04    0.69415E-04   -0.76172E-05  3057   0.702E-03    0.197E-02
RMM:   8    -0.233789457868E+04    0.12947E-06   -0.20341E-05  2968   0.473E-03
  82 F= -.23594632E+04 E0= -.23594632E+04  d E =-.545563E-02  mag=     3.9999
       N       E                     dE             d eps       ncg     rms          rms(c)
DAV:   1    -0.233787904075E+04    0.15538E-01   -0.17164E+00  4552   0.128E+00    0.382E-01
RMM:   2    -0.233789713921E+04   -0.18098E-01   -0.19168E-01  6300   0.265E-01    0.233E-01
RMM:   3    -0.233789864553E+04   -0.15063E-02   -0.19110E-02  6003   0.926E-02    0.256E-01
RMM:   4    -0.233789797878E+04    0.66675E-03   -0.19577E-03  5432   0.230E-02    0.123E-01
RMM:   5    -0.233789791001E+04    0.68767E-04   -0.52934E-04  4390   0.148E-02    0.864E-02
RMM:   6    -0.233789792004E+04   -0.10029E-04   -0.29071E-04  3653   0.114E-02    0.848E-02
RMM:   7    -0.233789785066E+04    0.69385E-04   -0.87518E-05  3097   0.742E-03    0.164E-02
RMM:   8    -0.233789785148E+04   -0.81910E-06   -0.19909E-05  2979   0.505E-03
  83 F= -.23594669E+04 E0= -.23594669E+04  d E =-.373482E-02  mag=     3.9999
       N       E                     dE             d eps       ncg     rms          rms(c)
DAV:   1    -0.233786935176E+04    0.28499E-01   -0.27012E+00  4536   0.161E+00    0.478E-01
RMM:   2    -0.233789775535E+04   -0.28404E-01   -0.30074E-01  6277   0.332E-01    0.292E-01
RMM:   3    -0.233790017782E+04   -0.24225E-02   -0.30261E-02  6045   0.117E-01    0.323E-01
RMM:   4    -0.233789910851E+04    0.10693E-02   -0.30896E-03  5920   0.289E-02    0.154E-01
RMM:   5    -0.233789901299E+04    0.95514E-04   -0.84041E-04  4670   0.180E-02    0.112E-01
[...]
RMM:   8    -0.233808215664E+04    0.22039E-04   -0.41633E-05  2971   0.505E-03    0.168E-02
RMM:   9    -0.233808215384E+04    0.27961E-05   -0.78751E-06  2951   0.303E-03
 175 F= -.23596341E+04 E0= -.23596341E+04  d E =-.188953E-02  mag=     3.9999
       N       E                     dE             d eps       ncg     rms          rms(c)
DAV:   1    -0.233807688054E+04    0.52761E-02   -0.86493E-01  4528   0.898E-01    0.273E-01
RMM:   2    -0.233808423062E+04   -0.73501E-02   -0.76753E-02  6093   0.180E-01    0.204E-01
RMM:   3    -0.233808476234E+04   -0.53172E-03   -0.68036E-03  5845   0.612E-02    0.235E-01
RMM:   4    -0.233808421512E+04    0.54721E-03   -0.82088E-04  4837   0.167E-02    0.908E-02
RMM:   5    -0.233808430020E+04   -0.85076E-04   -0.32517E-04  3947   0.114E-02    0.127E-01
RMM:   6    -0.233808412976E+04    0.17044E-03   -0.23720E-04  4355   0.105E-02    0.292E-02
RMM:   7    -0.233808412924E+04    0.51904E-06   -0.43853E-05  3048   0.667E-03
 176 F= -.23596357E+04 E0= -.23596357E+04  d E =-.167873E-02  mag=     3.9999
       N       E                     dE             d eps       ncg     rms          rms(c)
DAV:   1    -0.233808068941E+04    0.34403E-02   -0.43175E-01  4584   0.634E-01    0.195E-01
RMM:   2    -0.233808434664E+04   -0.36572E-02   -0.38462E-02  6096   0.127E-01    0.141E-01
RMM:   3    -0.233808461998E+04   -0.27335E-03   -0.34669E-03  5642   0.455E-02    0.163E-01
RMM:   4    -0.233808436402E+04    0.25597E-03   -0.40975E-04  3750   0.120E-02    0.613E-02
RMM:   5    -0.233808441413E+04   -0.50120E-04   -0.16836E-04  3426   0.898E-03    0.931E-02
RMM:   6    -0.233808432688E+04    0.87252E-04   -0.11200E-04  3266   0.803E-03    0.223E-02
RMM:   7    -0.233808432355E+04    0.33377E-05   -0.20852E-05  2980   0.544E-03
 177 F= -.23596357E+04 E0= -.23596357E+04  d E =-.166550E-02  mag=     3.9999
       N       E                     dE             d eps       ncg     rms          rms(c)
DAV:   1    -0.233808376464E+04    0.56224E-03   -0.72417E-02  4664   0.260E-01    0.781E-02
RMM:   2    -0.233808437828E+04   -0.61364E-03   -0.63424E-03  6204   0.526E-02    0.618E-02
RMM:   3    -0.233808441498E+04   -0.36696E-04   -0.57010E-04  3601   0.177E-02    0.650E-02
RMM:   4    -0.233808436846E+04    0.46511E-04   -0.65280E-05  3010   0.605E-03    0.264E-02
RMM:   5    -0.233808437548E+04   -0.70198E-05   -0.28450E-05  2965   0.402E-03
 178 F= -.23596359E+04 E0= -.23596359E+04  d E =-.180192E-02  mag=     3.9999
       N       E                     dE             d eps       ncg     rms          rms(c)
DAV:   1    -0.233808097213E+04    0.33963E-02   -0.61257E-01  4552   0.745E-01    0.214E-01
RMM:   2    -0.233808600291E+04   -0.50308E-02   -0.53245E-02  6124   0.148E-01    0.143E-01
RMM:   3    -0.233808639590E+04   -0.39299E-03   -0.46757E-03  5704   0.501E-02    0.180E-01
RMM:   4    -0.233808610234E+04    0.29356E-03   -0.53625E-04  3797   0.132E-02    0.763E-02
RMM:   5    -0.233808614082E+04   -0.38483E-04   -0.19651E-04  3567   0.948E-03    0.978E-02
RMM:   6    -0.233808604145E+04    0.99374E-04   -0.16647E-04  3708   0.926E-03    0.287E-02
RMM:   7    -0.233808603947E+04    0.19799E-05   -0.38247E-05  3024   0.615E-03
 179 F= -.23596373E+04 E0= -.23596372E+04  d E =-.138303E-02  mag=     3.9999
       N       E                     dE             d eps       ncg     rms          rms(c)
DAV:   1    -0.233808271868E+04    0.33228E-02   -0.45926E-01  4552   0.646E-01    0.189E-01
RMM:   2    -0.233808650435E+04   -0.37857E-02   -0.40272E-02  6132   0.129E-01    0.124E-01
RMM:   3    -0.233808677862E+04   -0.27428E-03   -0.35094E-03  5548   0.453E-02    0.148E-01
RMM:   4    -0.233808657765E+04    0.20097E-03   -0.39519E-04  3505   0.116E-02    0.609E-02
RMM:   5    -0.233808660227E+04   -0.24621E-04   -0.16468E-04  3651   0.935E-03    0.785E-02
RMM:   6    -0.233808654959E+04    0.52684E-04   -0.92406E-05  3046   0.747E-03    0.330E-02
RMM:   7    -0.233808654008E+04    0.95074E-05   -0.21388E-05  2973   0.498E-03
 180 F= -.23596375E+04 E0= -.23596375E+04  d E =-.164217E-02  mag=     3.9999
       N       E                     dE             d eps       ncg     rms          rms(c)
DAV:   1    -0.233808201724E+04    0.45323E-02   -0.79434E-01  4520   0.852E-01    0.241E-01
RMM:   2    -0.233808802115E+04   -0.60039E-02   -0.64513E-02  6114   0.166E-01    0.139E-01
RMM:   3    -0.233808842761E+04   -0.40646E-03   -0.58362E-03  5649   0.594E-02    0.159E-01
RMM:   4    -0.233808823149E+04    0.19612E-03   -0.61442E-04  4003   0.139E-02    0.817E-02
RMM:   5    -0.233808821308E+04    0.18411E-04   -0.25289E-04  4250   0.116E-02    0.738E-02
RMM:   6    -0.233808819286E+04    0.20226E-04   -0.12636E-04  3128   0.822E-03    0.578E-02
RMM:   7    -0.233808815956E+04    0.33298E-04   -0.32459E-05  2970   0.556E-03    0.926E-03
RMM:   8    -0.233808815905E+04    0.51108E-06   -0.77638E-06  2935   0.344E-03
 181 F= -.23596388E+04 E0= -.23596388E+04  d E =-.128328E-02  mag=     3.9999
       N       E                     dE             d eps       ncg     rms          rms(c)
DAV:   1    -0.233808750644E+04    0.65312E-03   -0.11302E-01  4640   0.321E-01    0.912E-02
RMM:   2    -0.233808836371E+04   -0.85728E-03   -0.92109E-03  6057   0.625E-02    0.525E-02
RMM:   3    -0.233808842112E+04   -0.57410E-04   -0.82315E-04  3746   0.208E-02    0.620E-02
RMM:   4    -0.233808839360E+04    0.27522E-04   -0.88193E-05  3029   0.628E-03    0.317E-02
RMM:   5    -0.233808839804E+04   -0.44417E-05   -0.39046E-05  3008   0.477E-03
 182 F= -.23596389E+04 E0= -.23596389E+04  d E =-.139677E-02  mag=     3.9999
       N       E                     dE             d eps       ncg     rms          rms(c)
DAV:   1    -0.233808724008E+04    0.11535E-02   -0.39992E-01  4544   0.620E-01    0.177E-01
RMM:   2    -0.233808979792E+04   -0.25578E-02   -0.27740E-02  6049   0.117E-01    0.107E-01
RMM:   3    -0.233809001483E+04   -0.21691E-03   -0.26795E-03  5294   0.426E-02    0.135E-01
RMM:   4    -0.233808984354E+04    0.17128E-03   -0.31084E-04  3588   0.114E-02    0.612E-02
RMM:   5    -0.233808988305E+04   -0.39507E-04   -0.15768E-04  3772   0.916E-03    0.949E-02
RMM:   6    -0.233808980298E+04    0.80069E-04   -0.10992E-04  3285   0.815E-03    0.196E-02
RMM:   7    -0.233808979925E+04    0.37336E-05   -0.15489E-05  2950   0.513E-03
 183 F= -.23596401E+04 E0= -.23596400E+04  d E =-.115426E-02  mag=     3.9999
       N       E                     dE             d eps       ncg     rms          rms(c)
DAV:   1    -0.233808953772E+04    0.26526E-03   -0.68306E-02  4704   0.256E-01    0.731E-02
RMM:   2    -0.233808997482E+04   -0.43710E-03   -0.47859E-03  6107   0.490E-02    0.384E-02
RMM:   3    -0.233808999637E+04   -0.21548E-04   -0.42228E-04  3704   0.183E-02    0.391E-02
RMM:   4    -0.233808998987E+04    0.64951E-05   -0.49007E-05  2998   0.520E-03
 184 F= -.23596402E+04 E0= -.23596401E+04  d E =-.124343E-02  mag=     3.9999
       N       E                     dE             d eps       ncg     rms          rms(c)
DAV:   1    -0.233808923148E+04    0.76489E-03   -0.36805E-01  4568   0.597E-01    0.175E-01
RMM:   2    -0.233809112090E+04   -0.18894E-02   -0.20121E-02  5910   0.104E-01    0.119E-01
RMM:   3    -0.233809144532E+04   -0.32442E-03   -0.21304E-03  5043   0.402E-02    0.197E-01
RMM:   4    -0.233809106932E+04    0.37600E-03   -0.28624E-04  3766   0.115E-02    0.473E-02
RMM:   5    -0.233809106457E+04    0.47563E-05   -0.13520E-04  4188   0.929E-03    0.428E-02
RMM:   6    -0.233809105128E+04    0.13290E-04   -0.61299E-05  3063   0.689E-03    0.230E-02
RMM:   7    -0.233809104537E+04    0.59080E-05   -0.10942E-05  2924   0.408E-03
 185 F= -.23596410E+04 E0= -.23596410E+04  d E =-.836291E-03  mag=     4.0000
       N       E                     dE             d eps       ncg     rms          rms(c)
DAV:   1    -0.233809086316E+04    0.18812E-03   -0.64744E-02  4720   0.251E-01    0.731E-02
RMM:   2    -0.233809118966E+04   -0.32650E-03   -0.35898E-03  6029   0.451E-02    0.355E-02
RMM:   3    -0.233809121286E+04   -0.23196E-04   -0.34078E-04  3709   0.180E-02    0.451E-02
RMM:   4    -0.233809119742E+04    0.15437E-04   -0.41042E-05  2967   0.507E-03    0.236E-02
RMM:   5    -0.233809119664E+04    0.78058E-06   -0.22509E-05  2966   0.408E-03
 186 F= -.23596410E+04 E0= -.23596410E+04  d E =-.896023E-03  mag=     4.0000
       N       E                     dE             d eps       ncg     rms          rms(c)
DAV:   1    -0.233809025238E+04    0.94504E-03   -0.43562E-01  4504   0.640E-01    0.170E-01
RMM:   2    -0.233809231715E+04   -0.20648E-02   -0.22642E-02  6007   0.111E-01    0.870E-02
RMM:   3    -0.233809239377E+04   -0.76623E-04   -0.18925E-03  5058   0.413E-02    0.799E-02
RMM:   4    -0.233809237526E+04    0.18519E-04   -0.21830E-04  3521   0.102E-02    0.719E-02
RMM:   5    -0.233809234473E+04    0.30524E-04   -0.14574E-04  3913   0.980E-03    0.488E-02
RMM:   6    -0.233809233587E+04    0.88615E-05   -0.55476E-05  2991   0.694E-03
 187 F= -.23596419E+04 E0= -.23596419E+04  d E =-.876381E-03  mag=     4.0000
       N       E                     dE             d eps       ncg     rms          rms(c)
DAV:   1    -0.233809201382E+04    0.33091E-03   -0.99038E-02  4576   0.305E-01    0.832E-02
RMM:   2    -0.233809249811E+04   -0.48429E-03   -0.52773E-03  5978   0.537E-02    0.454E-02
RMM:   3    -0.233809252809E+04   -0.29979E-04   -0.45919E-04  3788   0.196E-02    0.519E-02
RMM:   4    -0.233809250451E+04    0.23575E-04   -0.53760E-05  3006   0.588E-03    0.311E-02
RMM:   5    -0.233809250954E+04   -0.50304E-05   -0.32347E-05  3003   0.453E-03
 188 F= -.23596420E+04 E0= -.23596420E+04  d E =-.924845E-03  mag=     4.0000
       N       E                     dE             d eps       ncg     rms          rms(c)
DAV:   1    -0.233809177439E+04    0.73013E-03   -0.39150E-01  4516   0.608E-01    0.160E-01
RMM:   2    -0.233809362235E+04   -0.18480E-02   -0.19828E-02  6005   0.104E-01    0.107E-01
RMM:   3    -0.233809379871E+04   -0.17637E-03   -0.19425E-03  5084   0.386E-02    0.139E-01
RMM:   4    -0.233809361382E+04    0.18490E-03   -0.23089E-04  3540   0.103E-02    0.505E-02
RMM:   5    -0.233809364683E+04   -0.33012E-04   -0.13329E-04  3400   0.866E-03    0.765E-02
RMM:   6    -0.233809358731E+04    0.59521E-04   -0.71948E-05  3115   0.722E-03    0.208E-02
RMM:   7    -0.233809358487E+04    0.24364E-05   -0.14415E-05  2929   0.492E-03
 189 F= -.23596428E+04 E0= -.23596428E+04  d E =-.801665E-03  mag=     4.0000
       N       E                     dE             d eps       ncg     rms          rms(c)
DAV:   1    -0.233809295819E+04    0.62912E-03   -0.19984E-01  4528   0.435E-01    0.114E-01
RMM:   2    -0.233809389778E+04   -0.93960E-03   -0.10153E-02  6003   0.745E-02    0.681E-02
RMM:   3    -0.233809399156E+04   -0.93779E-04   -0.98475E-04  4392   0.299E-02    0.947E-02
RMM:   4    -0.233809390612E+04    0.85443E-04   -0.11263E-04  3079   0.794E-03    0.379E-02
RMM:   5    -0.233809392174E+04   -0.15618E-04   -0.65801E-05  3101   0.639E-03    0.538E-02
RMM:   6    -0.233809388976E+04    0.31980E-04   -0.40591E-05  2980   0.591E-03    0.130E-02
RMM:   7    -0.233809388910E+04    0.65118E-06   -0.98505E-06  2926   0.405E-03
 190 F= -.23596429E+04 E0= -.23596429E+04  d E =-.911195E-03  mag=     4.0000
       N       E                     dE             d eps       ncg     rms          rms(c)
DAV:   1    -0.233809319932E+04    0.69044E-03   -0.41594E-01  4512   0.624E-01    0.157E-01
RMM:   2    -0.233809510201E+04   -0.19027E-02   -0.20538E-02  5976   0.105E-01    0.988E-02
RMM:   3    -0.233809525285E+04   -0.15083E-03   -0.18831E-03  4951   0.410E-02    0.129E-01
RMM:   4    -0.233809511637E+04    0.13647E-03   -0.22635E-04  3493   0.102E-02    0.563E-02
RMM:   5    -0.233809513921E+04   -0.22840E-04   -0.13117E-04  3294   0.848E-03    0.734E-02
RMM:   6    -0.233809508400E+04    0.55214E-04   -0.82403E-05  3250   0.764E-03    0.208E-02
RMM:   7    -0.233809508300E+04    0.99333E-06   -0.16082E-05  2940   0.517E-03
 191 F= -.23596438E+04 E0= -.23596438E+04  d E =-.906314E-03  mag=     4.0000
       N       E                     dE             d eps       ncg     rms          rms(c)
DAV:   1    -0.233809417444E+04    0.90956E-03   -0.28777E-01  4536   0.520E-01    0.132E-01
RMM:   2    -0.233809549791E+04   -0.13235E-02   -0.14279E-02  5894   0.884E-02    0.814E-02
RMM:   3    -0.233809560890E+04   -0.11099E-03   -0.13536E-03  4710   0.366E-02    0.107E-01
RMM:   4    -0.233809551021E+04    0.98688E-04   -0.15608E-04  3193   0.881E-03    0.462E-02
RMM:   5    -0.233809552673E+04   -0.16521E-04   -0.92169E-05  3181   0.747E-03    0.615E-02
RMM:   6    -0.233809548864E+04    0.38092E-04   -0.55510E-05  3021   0.660E-03    0.182E-02
RMM:   7    -0.233809548590E+04    0.27413E-05   -0.11209E-05  2913   0.453E-03
 192 F= -.23596440E+04 E0= -.23596439E+04  d E =-.107075E-02  mag=     4.0000
       N       E                     dE             d eps       ncg     rms          rms(c)
DAV:   1    -0.233809416186E+04    0.13268E-02   -0.57682E-01  4552   0.731E-01    0.185E-01
RMM:   2    -0.233809668984E+04   -0.25280E-02   -0.27635E-02  5981   0.123E-01    0.970E-02
RMM:   3    -0.233809681390E+04   -0.12406E-03   -0.24342E-03  5019   0.477E-02    0.106E-01
RMM:   4    -0.233809675881E+04    0.55087E-04   -0.27554E-04  3679   0.110E-02    0.766E-02
RMM:   5    -0.233809673331E+04    0.25496E-04   -0.16674E-04  3978   0.995E-03    0.598E-02
RMM:   6    -0.233809670907E+04    0.24239E-04   -0.84456E-05  3071   0.754E-03    0.363E-02
RMM:   7    -0.233809669522E+04    0.13858E-04   -0.17893E-05  2926   0.486E-03    0.978E-03
RMM:   8    -0.233809669543E+04   -0.21495E-06   -0.68501E-06  2894   0.309E-03
 193 F= -.23596449E+04 E0= -.23596449E+04  d E =-.936842E-03  mag=     4.0000
       N       E                     dE             d eps       ncg     rms          rms(c)
DAV:   1    -0.233809470439E+04    0.19908E-02   -0.50439E-01  4536   0.684E-01    0.173E-01
RMM:   2    -0.233809692948E+04   -0.22251E-02   -0.24234E-02  5805   0.114E-01    0.949E-02
RMM:   3    -0.233809705244E+04   -0.12296E-03   -0.21560E-03  4986   0.433E-02    0.114E-01
RMM:   4    -0.233809696662E+04    0.85828E-04   -0.25019E-04  3646   0.103E-02    0.680E-02
RMM:   5    -0.233809696390E+04    0.27172E-05   -0.14670E-04  3549   0.906E-03    0.666E-02
RMM:   6    -0.233809691895E+04    0.44952E-04   -0.87939E-05  3218   0.764E-03    0.251E-02
RMM:   7    -0.233809691347E+04    0.54813E-05   -0.15802E-05  2932   0.505E-03
 194 F= -.23596449E+04 E0= -.23596448E+04  d E =-.901559E-03  mag=     4.0000
       N       E                     dE             d eps       ncg     rms          rms(c)
DAV:   1    -0.233809646490E+04    0.45405E-03   -0.10556E-01  4584   0.313E-01    0.771E-02
RMM:   2    -0.233809692917E+04   -0.46427E-03   -0.50156E-03  5919   0.524E-02    0.455E-02
RMM:   3    -0.233809696110E+04   -0.31928E-04   -0.45478E-04  3773   0.193E-02    0.588E-02
RMM:   4    -0.233809692767E+04    0.33427E-04   -0.53849E-05  3004   0.586E-03    0.277E-02
RMM:   5    -0.233809693211E+04   -0.44361E-05   -0.33252E-05  2977   0.442E-03
 195 F= -.23596450E+04 E0= -.23596450E+04  d E =-.103565E-02  mag=     4.0000
       N       E                     dE             d eps       ncg     rms          rms(c)
DAV:   1    -0.233809556919E+04    0.13585E-02   -0.53448E-01  4520   0.700E-01    0.171E-01
RMM:   2    -0.233809805653E+04   -0.24873E-02   -0.26886E-02  5921   0.119E-01    0.978E-02
RMM:   3    -0.233809818224E+04   -0.12571E-03   -0.24998E-03  5072   0.471E-02    0.103E-01
RMM:   4    -0.233809811260E+04    0.69638E-04   -0.25928E-04  3588   0.106E-02    0.645E-02
RMM:   5    -0.233809812067E+04   -0.80664E-05   -0.13903E-04  3574   0.919E-03    0.719E-02
RMM:   6    -0.233809807483E+04    0.45846E-04   -0.85336E-05  3102   0.762E-03    0.303E-02
RMM:   7    -0.233809807008E+04    0.47496E-05   -0.24052E-05  2953   0.527E-03
 196 F= -.23596459E+04 E0= -.23596459E+04  d E =-.938531E-03  mag=     4.0000
       N       E                     dE             d eps       ncg     rms          rms(c)
DAV:   1    -0.233809613967E+04    0.19352E-02   -0.47803E-01  4512   0.661E-01    0.165E-01
RMM:   2    -0.233809835758E+04   -0.22179E-02   -0.24161E-02  6016   0.113E-01    0.859E-02
RMM:   3    -0.233809845825E+04   -0.10066E-03   -0.22437E-03  4998   0.443E-02    0.753E-02
RMM:   4    -0.233809844640E+04    0.11848E-04   -0.24246E-04  3457   0.103E-02    0.673E-02
RMM:   5    -0.233809843111E+04    0.15291E-04   -0.12800E-04  3519   0.883E-03    0.609E-02
RMM:   6    -0.233809840711E+04    0.23996E-04   -0.70908E-05  3063   0.728E-03    0.342E-02
RMM:   7    -0.233809839790E+04    0.92142E-05   -0.17474E-05  2929   0.483E-03
 197 F= -.23596461E+04 E0= -.23596460E+04  d E =-.107885E-02  mag=     4.0000
       N       E                     dE             d eps       ncg     rms          rms(c)
DAV:   1    -0.233809715123E+04    0.12559E-02   -0.46905E-01  4544   0.646E-01    0.156E-01
RMM:   2    -0.233809934140E+04   -0.21902E-02   -0.23716E-02  5996   0.109E-01    0.864E-02
RMM:   3    -0.233809946806E+04   -0.12666E-03   -0.22281E-03  4922   0.430E-02    0.886E-02
RMM:   4    -0.233809942755E+04    0.40512E-04   -0.22659E-04  3325   0.975E-03    0.610E-02
RMM:   5    -0.233809942425E+04    0.32978E-05   -0.12381E-04  3561   0.872E-03    0.565E-02
RMM:   6    -0.233809940278E+04    0.21468E-04   -0.61120E-05  3022   0.688E-03    0.331E-02
RMM:   7    -0.233809939403E+04    0.87485E-05   -0.17928E-05  2928   0.435E-03
 198 F= -.23596469E+04 E0= -.23596469E+04  d E =-.854047E-03  mag=     4.0000
       N       E                     dE             d eps       ncg     rms          rms(c)
DAV:   1    -0.233809587053E+04    0.35323E-02   -0.85030E-01  4512   0.870E-01    0.209E-01
RMM:   2    -0.233809984543E+04   -0.39749E-02   -0.43099E-02  6017   0.147E-01    0.111E-01
RMM:   3    -0.233810001873E+04   -0.17329E-03   -0.38398E-03  5253   0.563E-02    0.954E-02
RMM:   4    -0.233809999609E+04    0.22635E-04   -0.40926E-04  4064   0.128E-02    0.817E-02
RMM:   5    -0.233809994912E+04    0.46974E-04   -0.22574E-04  4159   0.114E-02    0.461E-02
RMM:   6    -0.233809994732E+04    0.17977E-05   -0.75108E-05  3076   0.760E-03
 199 F= -.23596473E+04 E0= -.23596473E+04  d E =-.121900E-02  mag=     4.0000
       N       E                     dE             d eps       ncg     rms          rms(c)
DAV:   1    -0.233809801891E+04    0.19302E-02   -0.72478E-01  4568   0.808E-01    0.200E-01
RMM:   2    -0.233810130657E+04   -0.32877E-02   -0.35827E-02  5897   0.136E-01    0.106E-01
RMM:   3    -0.233810143631E+04   -0.12973E-03   -0.31385E-03  5215   0.492E-02    0.977E-02
RMM:   4    -0.233810139906E+04    0.37242E-04   -0.35035E-04  3995   0.118E-02    0.774E-02
RMM:   5    -0.233810138053E+04    0.18538E-04   -0.18209E-04  3937   0.101E-02    0.694E-02
RMM:   6    -0.233810135063E+04    0.29901E-04   -0.95696E-05  3123   0.793E-03    0.429E-02
RMM:   7    -0.233810133769E+04    0.12934E-04   -0.24131E-05  2945   0.526E-03    0.209E-02
RMM:   8    -0.233810133356E+04    0.41363E-05   -0.94466E-06  2898   0.326E-03
 200 F= -.23596485E+04 E0= -.23596484E+04  d E =-.116850E-02  mag=     4.0000
       N       E                     dE             d eps       ncg     rms          rms(c)
DAV:   1    -0.233810055625E+04    0.78144E-03   -0.24335E-01  4640   0.468E-01    0.115E-01
RMM:   2    -0.233810164826E+04   -0.10920E-02   -0.11834E-02  5906   0.781E-02    0.645E-02
RMM:   3    -0.233810170483E+04   -0.56563E-04   -0.10134E-03  4364   0.298E-02    0.741E-02
RMM:   4    -0.233810166945E+04    0.35375E-04   -0.11508E-04  3135   0.756E-03    0.465E-02
RMM:   5    -0.233810167290E+04   -0.34536E-05   -0.70253E-05  3058   0.653E-03
 201 F= -.23596487E+04 E0= -.23596486E+04  d E =-.138305E-02  mag=     4.0000
