       N       E                     dE             d eps       ncg     rms          rms(c)
DAV:   1     0.121602425465E+05    0.12160E+05   -0.83531E+05  4640   0.141E+03
DAV:   2    -0.129341216263E+04   -0.13454E+05   -0.12949E+05  5120   0.319E+02
DAV:   3    -0.249380824917E+04   -0.12004E+04   -0.11909E+04  5520   0.101E+02
DAV:   4    -0.251890070890E+04   -0.25092E+02   -0.24967E+02  5600   0.175E+01
DAV:   5    -0.251958735616E+04   -0.68665E+00   -0.68550E+00  5920   0.254E+00    0.170E+02
RMM:   6    -0.147856614691E+04    0.10410E+04   -0.18845E+03  4503   0.375E+01    0.722E+01
RMM:   7    -0.163998953647E+04   -0.16142E+03   -0.26724E+02  5038   0.132E+01    0.483E+01
RMM:   8    -0.170191357347E+04   -0.61924E+02   -0.37170E+01  5167   0.679E+00    0.380E+01
RMM:   9    -0.182829285705E+04   -0.12638E+03   -0.69508E+01  5140   0.786E+00    0.358E+01
RMM:  10    -0.193454775952E+04   -0.10625E+03   -0.51231E+01  5397   0.674E+00    0.199E+01
RMM:  11    -0.203754778366E+04   -0.10300E+03   -0.44607E+01  4864   0.517E+00    0.170E+01
RMM:  12    -0.210819962013E+04   -0.70652E+02   -0.28452E+01  4828   0.410E+00    0.131E+01
RMM:  13    -0.224362250326E+04   -0.13542E+03   -0.12167E+02  4540   0.766E+00    0.851E+00
RMM:  14    -0.228769664211E+04   -0.44074E+02   -0.39489E+01  4521   0.472E+00    0.675E+00
RMM:  15    -0.230373958178E+04   -0.16043E+02   -0.16918E+01  4769   0.286E+00    0.982E+00
RMM:  16    -0.230553979503E+04   -0.18002E+01   -0.26227E+00  5203   0.123E+00    0.821E+00
RMM:  17    -0.230707835786E+04   -0.15386E+01   -0.12730E+00  4548   0.630E-01    0.693E+00
RMM:  18    -0.230932884764E+04   -0.22505E+01   -0.18977E+00  4521   0.783E-01    0.286E+00
RMM:  19    -0.231098325629E+04   -0.16544E+01   -0.97132E-01  4795   0.555E-01    0.141E+00
RMM:  20    -0.231114447439E+04   -0.16122E+00   -0.19559E-01  4969   0.356E-01    0.116E+00
RMM:  21    -0.231126152986E+04   -0.11706E+00   -0.69884E-02  4726   0.157E-01    0.602E-01
RMM:  22    -0.231137601708E+04   -0.11449E+00   -0.41236E-02  4526   0.148E-01    0.346E-01
RMM:  23    -0.231144432042E+04   -0.68303E-01   -0.23885E-02  4600   0.978E-02    0.293E-01
RMM:  24    -0.231147022756E+04   -0.25907E-01   -0.78914E-03  4652   0.707E-02    0.205E-01
RMM:  25    -0.231150019730E+04   -0.29970E-01   -0.74287E-03  4498   0.586E-02    0.113E-01
RMM:  26    -0.231151560684E+04   -0.15410E-01   -0.34266E-03  4587   0.510E-02    0.783E-02
RMM:  27    -0.231152239172E+04   -0.67849E-02   -0.16097E-03  4808   0.319E-02    0.575E-02
RMM:  28    -0.231152735136E+04   -0.49596E-02   -0.10810E-03  4192   0.254E-02    0.311E-02
RMM:  29    -0.231152946993E+04   -0.21186E-02   -0.61876E-04  4279   0.190E-02    0.171E-02
RMM:  30    -0.231153014235E+04   -0.67242E-03   -0.22432E-04  4033   0.123E-02    0.108E-02
RMM:  31    -0.231153037251E+04   -0.23016E-03   -0.84481E-05  3718   0.815E-03    0.602E-03
RMM:  32    -0.231153044023E+04   -0.67722E-04   -0.25761E-05  3241   0.539E-03    0.334E-03
RMM:  33    -0.231153046861E+04   -0.28378E-04   -0.10753E-05  2952   0.357E-03    0.202E-03
RMM:  34    -0.231153048168E+04   -0.13070E-04   -0.57571E-06  2870   0.269E-03    0.109E-03
RMM:  35    -0.231153048662E+04   -0.49380E-05   -0.26146E-06  2516   0.196E-03
   1 F= -.23319482E+04 E0= -.23319482E+04  d E =-.309447E-07  mag=     2.9999
       N       E                     dE             d eps       ncg     rms          rms(c)
DAV:   1    -0.231150116326E+04    0.29318E-01   -0.20028E+00  4480   0.575E-01    0.332E-01
RMM:   2    -0.231150191445E+04   -0.75119E-03   -0.16228E-02  4550   0.505E-02    0.303E-01
RMM:   3    -0.231150153049E+04    0.38396E-03   -0.20751E-03  4894   0.214E-02    0.286E-01
RMM:   4    -0.231150097447E+04    0.55602E-03   -0.16375E-03  4483   0.168E-02    0.124E-01
RMM:   5    -0.231150078742E+04    0.18706E-03   -0.25306E-04  3690   0.907E-03    0.383E-02
RMM:   6    -0.231150079220E+04   -0.47785E-05   -0.48133E-05  3051   0.454E-03
   2 F= -.23319194E+04 E0= -.23319194E+04  d E =-.183833E-07  mag=     3.0000
       N       E                     dE             d eps       ncg     rms          rms(c)
DAV:   1    -0.231152663667E+04   -0.25849E-01   -0.79237E+00  4480   0.114E+00    0.660E-01
RMM:   2    -0.231152936588E+04   -0.27292E-02   -0.62394E-02  4769   0.101E-01    0.597E-01
RMM:   3    -0.231152795955E+04    0.14063E-02   -0.80716E-03  5483   0.447E-02    0.557E-01
RMM:   4    -0.231152580332E+04    0.21562E-02   -0.61186E-03  5362   0.317E-02    0.224E-01
RMM:   5    -0.231152519005E+04    0.61327E-03   -0.94017E-04  4800   0.157E-02    0.761E-02
RMM:   6    -0.231152522811E+04   -0.38059E-04   -0.16833E-04  3212   0.682E-03    0.449E-02
RMM:   7    -0.231152523169E+04   -0.35778E-05   -0.40095E-05  2981   0.447E-03
   3 F= -.23319422E+04 E0= -.23319422E+04  d E =-.531452E-07  mag=     3.0000
       N       E                     dE             d eps       ncg     rms          rms(c)
DAV:   1    -0.231151749500E+04    0.77331E-02   -0.36251E+00  4640   0.842E-01    0.430E-01
RMM:   2    -0.231151901718E+04   -0.15222E-02   -0.21562E-02  4279   0.589E-02    0.351E-01
RMM:   3    -0.231151914417E+04   -0.12700E-03   -0.36620E-03  5445   0.240E-02    0.429E-01
RMM:   4    -0.231151778808E+04    0.13561E-02   -0.17012E-03  4444   0.180E-02    0.798E-02
RMM:   5    -0.231151777779E+04    0.10292E-04   -0.22646E-04  3302   0.827E-03    0.616E-02
RMM:   6    -0.231151776629E+04    0.11495E-04   -0.47534E-05  2955   0.405E-03    0.387E-02
RMM:   7    -0.231151775852E+04    0.77740E-05   -0.20046E-05  2868   0.281E-03
   4 F= -.23319356E+04 E0= -.23319356E+04  d E =-.353192E-07  mag=     3.0000
       N       E                     dE             d eps       ncg     rms          rms(c)
DAV:   1    -0.231153116984E+04   -0.13404E-01   -0.73675E+00  4480   0.122E+00    0.619E-01
RMM:   2    -0.231153162504E+04   -0.45520E-03   -0.29500E-02  4512   0.725E-02    0.362E-01
RMM:   3    -0.231153173659E+04   -0.11155E-03   -0.52174E-03  5618   0.337E-02    0.359E-01
RMM:   4    -0.231153102753E+04    0.70906E-03   -0.21800E-03  4967   0.182E-02    0.240E-01
RMM:   5    -0.231153070156E+04    0.32597E-03   -0.57826E-04  4120   0.110E-02    0.953E-02
RMM:   6    -0.231153066548E+04    0.36075E-04   -0.15203E-04  3128   0.668E-03    0.346E-02
RMM:   7    -0.231153067756E+04   -0.12081E-04   -0.36072E-05  3000   0.398E-03    0.278E-02
RMM:   8    -0.231153067538E+04    0.21804E-05   -0.12194E-05  2840   0.259E-03
   5 F= -.23319483E+04 E0= -.23319483E+04  d E =-.265103E-07  mag=     3.0000
       N       E                     dE             d eps       ncg     rms          rms(c)
DAV:   1    -0.231152575060E+04    0.49270E-02   -0.37653E+00  4640   0.875E-01    0.514E-01
RMM:   2    -0.231152642293E+04   -0.67233E-03   -0.24745E-02  4382   0.647E-02    0.355E-01
RMM:   3    -0.231152751066E+04   -0.10877E-02   -0.55535E-03  5050   0.341E-02    0.518E-01
RMM:   4    -0.231152527551E+04    0.22351E-02   -0.25087E-03  5331   0.210E-02    0.149E-01
RMM:   5    -0.231152521785E+04    0.57663E-04   -0.41788E-04  3371   0.832E-03    0.578E-02
RMM:   6    -0.231152525440E+04   -0.36549E-04   -0.70192E-05  3017   0.545E-03    0.448E-02
RMM:   7    -0.231152524811E+04    0.62907E-05   -0.35535E-05  2929   0.339E-03
   6 F= -.23319432E+04 E0= -.23319432E+04  d E =-.512192E-08  mag=     3.0000
       N       E                     dE             d eps       ncg     rms          rms(c)
DAV:   1    -0.231148859480E+04    0.36660E-01   -0.79973E+00  4480   0.118E+00    0.832E-01
RMM:   2    -0.231149055366E+04   -0.19589E-02   -0.80834E-02  4643   0.115E-01    0.654E-01
RMM:   3    -0.231149284041E+04   -0.22868E-02   -0.18145E-02  5607   0.604E-02    0.928E-01
RMM:   4    -0.231148531776E+04    0.75227E-02   -0.69653E-03  5611   0.362E-02    0.269E-01
RMM:   5    -0.231148503671E+04    0.28105E-03   -0.28091E-03  4367   0.212E-02    0.141E-01
RMM:   6    -0.231148509666E+04   -0.59950E-04   -0.39241E-04  3537   0.105E-02    0.849E-02
RMM:   7    -0.231148506773E+04    0.28935E-04   -0.12382E-04  3076   0.605E-03    0.498E-02
RMM:   8    -0.231148505203E+04    0.15695E-04   -0.72022E-05  2998   0.484E-03    0.210E-02
RMM:   9    -0.231148506164E+04   -0.96065E-05   -0.11481E-05  2924   0.319E-03
   7 F= -.23319025E+04 E0= -.23319025E+04  d E =-.152174E-06  mag=     3.0000
       N       E                     dE             d eps       ncg     rms          rms(c)
DAV:   1    -0.231153245505E+04   -0.47403E-01   -0.79163E+00  4640   0.120E+00    0.551E-01
RMM:   2    -0.231153489808E+04   -0.24430E-02   -0.72478E-02  4425   0.104E-01    0.352E-01
RMM:   3    -0.231153278056E+04    0.21175E-02   -0.72730E-03  5530   0.387E-02    0.319E-01
RMM:   4    -0.231153224694E+04    0.53362E-03   -0.31977E-03  5069   0.227E-02    0.291E-01
RMM:   5    -0.231153151178E+04    0.73516E-03   -0.66061E-04  4404   0.120E-02    0.798E-02
RMM:   6    -0.231153151390E+04   -0.21170E-05   -0.18128E-04  3169   0.729E-03    0.367E-02
RMM:   7    -0.231153155299E+04   -0.39093E-04   -0.46871E-05  3045   0.479E-03    0.342E-02
RMM:   8    -0.231153157103E+04   -0.18041E-04   -0.20299E-05  2908   0.323E-03    0.128E-02
RMM:   9    -0.231153159834E+04   -0.27312E-04   -0.10209E-05  2898   0.271E-03    0.115E-02
RMM:  10    -0.231153161454E+04   -0.16200E-04   -0.63008E-06  2807   0.246E-03    0.647E-03
RMM:  11    -0.231153162969E+04   -0.15148E-04   -0.44355E-06  2714   0.203E-03    0.278E-03
RMM:  12    -0.231153164713E+04   -0.17437E-04   -0.46191E-06  2720   0.190E-03    0.209E-03
RMM:  13    -0.231153165288E+04   -0.57471E-05   -0.20743E-06  2560   0.168E-03
   8 F= -.23319507E+04 E0= -.23319507E+04  d E =-.406967E-07  mag=     3.0000
       N       E                     dE             d eps       ncg     rms          rms(c)
DAV:   1    -0.231150602643E+04    0.25621E-01   -0.20338E+01  4480   0.182E+00    0.691E-01
RMM:   2    -0.231151064294E+04   -0.46165E-02   -0.12533E-01  4775   0.145E-01    0.570E-01
RMM:   3    -0.231150925730E+04    0.13856E-02   -0.13088E-02  5983   0.535E-02    0.686E-01
RMM:   4    -0.231150502640E+04    0.42309E-02   -0.59338E-03  5293   0.318E-02    0.200E-01
RMM:   5    -0.231150432348E+04    0.70292E-03   -0.13984E-03  4646   0.172E-02    0.762E-02
RMM:   6    -0.231150428279E+04    0.40692E-04   -0.22287E-04  3554   0.980E-03    0.528E-02
RMM:   7    -0.231150426367E+04    0.19119E-04   -0.89937E-05  3150   0.623E-03    0.303E-02
RMM:   8    -0.231150425809E+04    0.55874E-05   -0.32047E-05  2990   0.466E-03
   9 F= -.23319203E+04 E0= -.23319203E+04  d E =-.232470E-07  mag=     3.0000
       N       E                     dE             d eps       ncg     rms          rms(c)
DAV:   1    -0.231152800035E+04   -0.23737E-01   -0.10010E+01  4480   0.132E+00    0.393E-01
RMM:   2    -0.231153219512E+04   -0.41948E-02   -0.64569E-02  4347   0.100E-01    0.256E-01
RMM:   3    -0.231153210368E+04    0.91438E-04   -0.47024E-03  5633   0.304E-02    0.432E-01
RMM:   4    -0.231153044547E+04    0.16582E-02   -0.18289E-03  4506   0.172E-02    0.837E-02
RMM:   5    -0.231153039015E+04    0.55324E-04   -0.46916E-04  3545   0.868E-03    0.423E-02
RMM:   6    -0.231153037357E+04    0.16575E-04   -0.50544E-05  3081   0.521E-03    0.162E-02
RMM:   7    -0.231153037251E+04    0.10600E-05   -0.15420E-05  2959   0.300E-03
  10 F= -.23319476E+04 E0= -.23319476E+04  d E =-.249241E-07  mag=     3.0000
       N       E                     dE             d eps       ncg     rms          rms(c)
DAV:   1    -0.231152383915E+04    0.65344E-02   -0.20048E+01  4480   0.182E+00    0.493E-01
RMM:   2    -0.231152866366E+04   -0.48245E-02   -0.82260E-02  4345   0.120E-01    0.297E-01
RMM:   3    -0.231152824933E+04    0.41433E-03   -0.58338E-03  5487   0.400E-02    0.414E-01
RMM:   4    -0.231152686182E+04    0.13875E-02   -0.24234E-03  4906   0.200E-02    0.168E-01
RMM:   5    -0.231152668140E+04    0.18042E-03   -0.69448E-04  3943   0.106E-02    0.592E-02
RMM:   6    -0.231152670400E+04   -0.22605E-04   -0.95446E-05  3090   0.646E-03    0.422E-02
RMM:   7    -0.231152670901E+04   -0.50037E-05   -0.32919E-05  2913   0.334E-03
  11 F= -.23319449E+04 E0= -.23319449E+04  d E =-.380461E-07  mag=     3.0000
       N       E                     dE             d eps       ncg     rms          rms(c)
DAV:   1    -0.231151189558E+04    0.14808E-01   -0.10021E+01  4480   0.133E+00    0.581E-01
RMM:   2    -0.231151401264E+04   -0.21171E-02   -0.66110E-02  4368   0.102E-01    0.313E-01
RMM:   3    -0.231151248711E+04    0.15255E-02   -0.38575E-03  5349   0.299E-02    0.259E-01
RMM:   4    -0.231151281776E+04   -0.33066E-03   -0.25623E-03  4908   0.199E-02    0.353E-01
RMM:   5    -0.231151189739E+04    0.92038E-03   -0.10659E-03  4277   0.139E-02    0.820E-02
RMM:   6    -0.231151192913E+04   -0.31742E-04   -0.17399E-04  3166   0.589E-03    0.545E-02
RMM:   7    -0.231151191976E+04    0.93658E-05   -0.44833E-05  2944   0.388E-03
  12 F= -.23319304E+04 E0= -.23319304E+04  d E =-.465099E-07  mag=     3.0000
       N       E                     dE             d eps       ncg     rms          rms(c)
DAV:   1    -0.231153214733E+04   -0.20218E-01   -0.19845E+01  4480   0.185E+00    0.104E+00
RMM:   2    -0.231153598958E+04   -0.38422E-02   -0.16253E-01  4708   0.162E-01    0.643E-01
RMM:   3    -0.231153050508E+04    0.54845E-02   -0.12652E-02  5550   0.580E-02    0.515E-01
RMM:   4    -0.231153123361E+04   -0.72853E-03   -0.76705E-03  5646   0.332E-02    0.621E-01
RMM:   5    -0.231152833915E+04    0.28945E-02   -0.44446E-03  5288   0.267E-02    0.169E-01
RMM:   6    -0.231152863213E+04   -0.29299E-03   -0.73852E-04  3669   0.115E-02    0.115E-01
RMM:   7    -0.231152859384E+04    0.38295E-04   -0.22241E-04  3191   0.702E-03    0.577E-02
RMM:   8    -0.231152859566E+04   -0.18222E-05   -0.91656E-05  3033   0.485E-03
  13 F= -.23319455E+04 E0= -.23319455E+04  d E =-.170659E-07  mag=     3.0000
       N       E                     dE             d eps       ncg     rms          rms(c)
DAV:   1    -0.231154060956E+04   -0.12016E-01   -0.99868E+00  4480   0.139E+00    0.599E-01
RMM:   2    -0.231154209505E+04   -0.14855E-02   -0.62113E-02  4453   0.108E-01    0.361E-01
RMM:   3    -0.231154064337E+04    0.14517E-02   -0.54799E-03  5639   0.330E-02    0.377E-01
RMM:   4    -0.231153998729E+04    0.65608E-03   -0.23462E-03  4997   0.184E-02    0.292E-01
RMM:   5    -0.231153942494E+04    0.56235E-03   -0.13848E-03  4295   0.152E-02    0.877E-02
RMM:   6    -0.231153945912E+04   -0.34181E-04   -0.24021E-04  3275   0.101E-02    0.558E-02
RMM:   7    -0.231153944736E+04    0.11760E-04   -0.49113E-05  3030   0.396E-03    0.249E-02
RMM:   8    -0.231153944361E+04    0.37483E-05   -0.18955E-05  2881   0.282E-03
  14 F= -.23319578E+04 E0= -.23319578E+04  d E =-.786706E-08  mag=     3.0000
       N       E                     dE             d eps       ncg     rms          rms(c)
DAV:   1    -0.231150463252E+04    0.34815E-01   -0.20085E+01  4480   0.197E+00    0.593E-01
RMM:   2    -0.231150811186E+04   -0.34793E-02   -0.78779E-02  4433   0.117E-01    0.349E-01
RMM:   3    -0.231150719105E+04    0.92080E-03   -0.70846E-03  5747   0.405E-02    0.389E-01
RMM:   4    -0.231150635094E+04    0.84012E-03   -0.29365E-03  5258   0.217E-02    0.276E-01
RMM:   5    -0.231150582767E+04    0.52327E-03   -0.75896E-04  4397   0.127E-02    0.630E-02
RMM:   6    -0.231150584036E+04   -0.12694E-04   -0.11750E-04  3095   0.690E-03    0.535E-02
RMM:   7    -0.231150583196E+04    0.84030E-05   -0.51488E-05  3020   0.411E-03
  15 F= -.23319229E+04 E0= -.23319229E+04  d E =-.129741E-06  mag=     3.0000
       N       E                     dE             d eps       ncg     rms          rms(c)
DAV:   1    -0.231152365404E+04   -0.17814E-01   -0.99163E+00  4480   0.144E+00    0.405E-01
RMM:   2    -0.231152639381E+04   -0.27398E-02   -0.48210E-02  4251   0.922E-02    0.245E-01
RMM:   3    -0.231152631786E+04    0.75948E-04   -0.38247E-03  4880   0.310E-02    0.336E-01
RMM:   4    -0.231152553380E+04    0.78406E-03   -0.17531E-03  4854   0.177E-02    0.147E-01
RMM:   5    -0.231152538645E+04    0.14734E-03   -0.26415E-04  3531   0.865E-03    0.329E-02
RMM:   6    -0.231152538643E+04    0.25510E-07   -0.33449E-05  3028   0.409E-03
  16 F= -.23319427E+04 E0= -.23319427E+04  d E =-.225842E-07  mag=     3.0000
       N       E                     dE             d eps       ncg     rms          rms(c)
DAV:   1    -0.231152793887E+04   -0.25524E-02   -0.20196E+01  4480   0.197E+00    0.570E-01
RMM:   2    -0.231153218605E+04   -0.42472E-02   -0.79215E-02  4285   0.128E-01    0.340E-01
RMM:   3    -0.231153341136E+04   -0.12253E-02   -0.85180E-03  5245   0.540E-02    0.571E-01
RMM:   4    -0.231153083702E+04    0.25743E-02   -0.31076E-03  5079   0.237E-02    0.146E-01
RMM:   5    -0.231153079468E+04    0.42338E-04   -0.60159E-04  3582   0.120E-02    0.770E-02
RMM:   6    -0.231153079854E+04   -0.38578E-05   -0.14289E-04  3202   0.678E-03    0.445E-02
RMM:   7    -0.231153080218E+04   -0.36342E-05   -0.35219E-05  2985   0.422E-03
  17 F= -.23319489E+04 E0= -.23319489E+04  d E =-.405902E-07  mag=     3.0000
       N       E                     dE             d eps       ncg     rms          rms(c)
DAV:   1    -0.231150699210E+04    0.23806E-01   -0.10125E+01  4480   0.139E+00    0.452E-01
RMM:   2    -0.231150906443E+04   -0.20723E-02   -0.47906E-02  4162   0.929E-02    0.239E-01
RMM:   3    -0.231150867716E+04    0.38726E-03   -0.35491E-03  5057   0.314E-02    0.289E-01
RMM:   4    -0.231150817076E+04    0.50640E-03   -0.16600E-03  4540   0.161E-02    0.187E-01
RMM:   5    -0.231150793157E+04    0.23919E-03   -0.40810E-04  3830   0.959E-03    0.454E-02
RMM:   6    -0.231150793133E+04    0.23794E-06   -0.61840E-05  3022   0.493E-03
  18 F= -.23319265E+04 E0= -.23319265E+04  d E =-.690928E-07  mag=     3.0000
       N       E                     dE             d eps       ncg     rms          rms(c)
DAV:   1    -0.231152591628E+04   -0.17985E-01   -0.20296E+01  4480   0.198E+00    0.925E-01
RMM:   2    -0.231152433502E+04    0.15813E-02   -0.12789E-01  4435   0.152E-01    0.497E-01
RMM:   3    -0.231152095910E+04    0.33759E-02   -0.13837E-02  5111   0.676E-02    0.408E-01
RMM:   4    -0.231152084387E+04    0.11523E-03   -0.53704E-03  5533   0.298E-02    0.407E-01
RMM:   5    -0.231151961577E+04    0.12281E-02   -0.21686E-03  4899   0.208E-02    0.148E-01
RMM:   6    -0.231151950373E+04    0.11204E-03   -0.24474E-04  3418   0.798E-03    0.473E-02
RMM:   7    -0.231151951174E+04   -0.80125E-05   -0.55117E-05  3056   0.466E-03
  19 F= -.23319364E+04 E0= -.23319364E+04  d E =-.125455E-07  mag=     3.0000
       N       E                     dE             d eps       ncg     rms          rms(c)
DAV:   1    -0.231152981439E+04   -0.10311E-01   -0.52732E+00  4480   0.102E+00    0.587E-01
RMM:   2    -0.231153072578E+04   -0.91139E-03   -0.70076E-02  4604   0.103E-01    0.422E-01
RMM:   3    -0.231152784112E+04    0.28847E-02   -0.55831E-03  4834   0.405E-02    0.249E-01
RMM:   4    -0.231152819589E+04   -0.35477E-03   -0.27489E-03  5182   0.205E-02    0.342E-01
RMM:   5    -0.231152714591E+04    0.10500E-02   -0.14486E-03  4948   0.167E-02    0.633E-02
RMM:   6    -0.231152712925E+04    0.16653E-04   -0.14414E-04  3234   0.598E-03    0.364E-02
RMM:   7    -0.231152712506E+04    0.41970E-05   -0.29487E-05  2990   0.338E-03
  20 F= -.23319436E+04 E0= -.23319436E+04  d E =-.236080E-07  mag=     3.0000
       N       E                     dE             d eps       ncg     rms          rms(c)
DAV:   1    -0.231154822610E+04   -0.21097E-01   -0.10440E+00  4480   0.338E-01    0.743E-01
RMM:   2    -0.231154479103E+04    0.34351E-02   -0.52234E-02  5460   0.728E-02    0.583E-01
RMM:   3    -0.231154031945E+04    0.44716E-02   -0.68673E-03  4962   0.422E-02    0.286E-01
RMM:   4    -0.231154037968E+04   -0.60228E-04   -0.34048E-03  4931   0.226E-02    0.320E-01
RMM:   5    -0.231153992084E+04    0.45884E-03   -0.16706E-03  4717   0.170E-02    0.171E-01
RMM:   6    -0.231153993579E+04   -0.14953E-04   -0.34293E-04  3448   0.869E-03    0.804E-02
RMM:   7    -0.231153996163E+04   -0.25838E-04   -0.13089E-04  3088   0.530E-03    0.332E-02
RMM:   8    -0.231153999994E+04   -0.38316E-04   -0.55721E-05  3017   0.445E-03    0.189E-02
RMM:   9    -0.231154001775E+04   -0.17805E-04   -0.10865E-05  2882   0.301E-03    0.142E-02
RMM:  10    -0.231154003436E+04   -0.16612E-04   -0.76077E-06  2762   0.212E-03    0.733E-03
RMM:  11    -0.231154005336E+04   -0.19001E-04   -0.56954E-06  2747   0.205E-03    0.327E-03
RMM:  12    -0.231154006650E+04   -0.13134E-04   -0.33073E-06  2611   0.171E-03    0.187E-03
RMM:  13    -0.231154007548E+04   -0.89866E-05   -0.26139E-06  2589   0.155E-03
  21 F= -.23319588E+04 E0= -.23319588E+04  d E =-.352416E-07  mag=     3.0000
       N       E                     dE             d eps       ncg     rms          rms(c)
DAV:   1    -0.231152992794E+04    0.10139E-01   -0.48933E-01  4480   0.223E-01    0.273E-01
RMM:   2    -0.231152969233E+04    0.23561E-03   -0.76461E-03  4842   0.288E-02    0.204E-01
RMM:   3    -0.231152908189E+04    0.61044E-03   -0.97599E-04  3885   0.164E-02    0.885E-02
RMM:   4    -0.231152919587E+04   -0.11397E-03   -0.51569E-04  3783   0.936E-03    0.138E-01
RMM:   5    -0.231152905075E+04    0.14512E-03   -0.19327E-04  3245   0.676E-03    0.464E-02
RMM:   6    -0.231152904477E+04    0.59743E-05   -0.32684E-05  2931   0.337E-03
  22 F= -.23319469E+04 E0= -.23319469E+04  d E =-.802790E-07  mag=     3.0000
       N       E                     dE             d eps       ncg     rms          rms(c)
DAV:   1    -0.231153070845E+04   -0.16577E-02   -0.96562E-01  4480   0.313E-01    0.341E-01
RMM:   2    -0.231153177997E+04   -0.10715E-02   -0.64696E-03  4261   0.289E-02    0.343E-01
RMM:   3    -0.231153144336E+04    0.33661E-03   -0.16319E-03  4210   0.183E-02    0.287E-01
RMM:   4    -0.231153110663E+04    0.33673E-03   -0.77373E-04  3784   0.110E-02    0.202E-01
RMM:   5    -0.231153087565E+04    0.23098E-03   -0.10306E-03  4006   0.124E-02    0.923E-02
RMM:   6    -0.231153091045E+04   -0.34797E-04   -0.19795E-04  3087   0.667E-03    0.417E-02
RMM:   7    -0.231153089911E+04    0.11339E-04   -0.70143E-05  2912   0.405E-03    0.185E-02
RMM:   8    -0.231153090401E+04   -0.49032E-05   -0.96367E-06  2781   0.242E-03
  23 F= -.23319485E+04 E0= -.23319485E+04  d E =-.115316E-07  mag=     3.0000
       N       E                     dE             d eps       ncg     rms          rms(c)
DAV:   1    -0.231153825742E+04   -0.73583E-02   -0.48160E-01  4480   0.227E-01    0.174E-01
RMM:   2    -0.231153880840E+04   -0.55098E-03   -0.27230E-03  3982   0.190E-02    0.213E-01
RMM:   3    -0.231153854036E+04    0.26804E-03   -0.64218E-04  3725   0.106E-02    0.130E-01
RMM:   4    -0.231153844161E+04    0.98750E-04   -0.22813E-04  3229   0.662E-03    0.571E-02
RMM:   5    -0.231153844346E+04   -0.18546E-05   -0.10784E-04  3047   0.494E-03    0.297E-02
RMM:   6    -0.231153844645E+04   -0.29897E-05   -0.19271E-05  2736   0.327E-03
  24 F= -.23319553E+04 E0= -.23319553E+04  d E =-.200847E-07  mag=     3.0000
       N       E                     dE             d eps       ncg     rms          rms(c)
DAV:   1    -0.231151650824E+04    0.21935E-01   -0.94801E-01  4480   0.326E-01    0.233E-01
RMM:   2    -0.231151733098E+04   -0.82274E-03   -0.51389E-03  4489   0.278E-02    0.283E-01
RMM:   3    -0.231151685097E+04    0.48002E-03   -0.10156E-03  4082   0.141E-02    0.182E-01
RMM:   4    -0.231151671413E+04    0.13684E-03   -0.33324E-04  3361   0.823E-03    0.100E-01
RMM:   5    -0.231151670722E+04    0.69161E-05   -0.28821E-04  3296   0.674E-03    0.546E-02
RMM:   6    -0.231151670777E+04   -0.55144E-06   -0.52766E-05  2919   0.465E-03
  25 F= -.23319353E+04 E0= -.23319353E+04  d E =-.467137E-07  mag=     3.0000
