       N       E                     dE             d eps       ncg     rms          rms(c)
DAV:   1     0.131979700848E+05    0.13198E+05   -0.84801E+05  4544   0.145E+03
DAV:   2    -0.101066155650E+04   -0.14209E+05   -0.13568E+05  4952   0.332E+02
DAV:   3    -0.248940137366E+04   -0.14787E+04   -0.14604E+04  5576   0.115E+02
DAV:   4    -0.253494752480E+04   -0.45546E+02   -0.45299E+02  6712   0.288E+01
DAV:   5    -0.253578747347E+04   -0.83995E+00   -0.83817E+00  6240   0.347E+00    0.171E+02
RMM:   6    -0.149570963949E+04    0.10401E+04   -0.19626E+03  4489   0.385E+01    0.753E+01
RMM:   7    -0.167486553791E+04   -0.17916E+03   -0.35348E+02  5169   0.149E+01    0.546E+01
RMM:   8    -0.170429941284E+04   -0.29434E+02   -0.56605E+01  5456   0.741E+00    0.383E+01
RMM:   9    -0.180754697182E+04   -0.10325E+03   -0.66147E+01  5314   0.679E+00    0.381E+01
RMM:  10    -0.194321558530E+04   -0.13567E+03   -0.72783E+01  5280   0.813E+00    0.291E+01
RMM:  11    -0.200012208671E+04   -0.56907E+02   -0.25609E+01  5346   0.441E+00    0.196E+01
RMM:  12    -0.208347513038E+04   -0.83353E+02   -0.32854E+01  4836   0.461E+00    0.161E+01
RMM:  13    -0.213868940798E+04   -0.55214E+02   -0.21580E+01  5205   0.379E+00    0.137E+01
RMM:  14    -0.226955982446E+04   -0.13087E+03   -0.11851E+02  4484   0.752E+00    0.944E+00
RMM:  15    -0.230783753717E+04   -0.38278E+02   -0.37125E+01  4581   0.456E+00    0.111E+01
RMM:  16    -0.231348423931E+04   -0.56467E+01   -0.80039E+00  5284   0.240E+00    0.503E+00
RMM:  17    -0.232034443017E+04   -0.68602E+01   -0.62182E+00  4523   0.145E+00    0.321E+00
RMM:  18    -0.232398503040E+04   -0.36406E+01   -0.26314E+00  4891   0.115E+00    0.263E+00
RMM:  19    -0.232483114420E+04   -0.84611E+00   -0.79616E-01  5175   0.582E-01    0.241E+00
RMM:  20    -0.232537133331E+04   -0.54019E+00   -0.38243E-01  4761   0.300E-01    0.213E+00
RMM:  21    -0.232600833730E+04   -0.63700E+00   -0.68946E-01  4561   0.402E-01    0.144E+00
RMM:  22    -0.232623419755E+04   -0.22586E+00   -0.20011E-01  4615   0.276E-01    0.103E+00
RMM:  23    -0.232630491662E+04   -0.70719E-01   -0.50741E-02  4912   0.136E-01    0.189E+00
RMM:  24    -0.232629950985E+04    0.54068E-02   -0.10265E-02  5281   0.735E-02    0.169E+00
RMM:  25    -0.232630476923E+04   -0.52594E-02   -0.53013E-03  4829   0.405E-02    0.136E+00
RMM:  26    -0.232632141352E+04   -0.16644E-01   -0.17607E-02  4549   0.748E-02    0.134E+00
RMM:  27    -0.232632606073E+04   -0.46472E-02   -0.62222E-03  4540   0.522E-02    0.136E+00
RMM:  28    -0.232631718391E+04    0.88768E-02   -0.25324E-02  4708   0.769E-02    0.200E+00
RMM:  29    -0.232632029978E+04   -0.31159E-02   -0.12893E-03  4205   0.332E-02    0.190E+00
RMM:  30    -0.232632932098E+04   -0.90212E-02   -0.66244E-03  4615   0.462E-02    0.161E+00
RMM:  31    -0.232634975749E+04   -0.20437E-01   -0.26080E-02  4769   0.782E-02    0.639E-01
RMM:  32    -0.232636246969E+04   -0.12712E-01   -0.84810E-03  4923   0.523E-02    0.676E-01
RMM:  33    -0.232637565204E+04   -0.13182E-01   -0.58338E-03  4661   0.434E-02    0.996E-01
RMM:  34    -0.232639277538E+04   -0.17123E-01   -0.12219E-02  4898   0.579E-02    0.182E+00
RMM:  35    -0.232638865618E+04    0.41192E-02   -0.14921E-03  4503   0.257E-02    0.156E+00
RMM:  36    -0.232638976057E+04   -0.11044E-02   -0.20072E-04  3547   0.811E-03    0.165E+00
RMM:  37    -0.232638275907E+04    0.70015E-02   -0.15900E-02  4720   0.578E-02    0.107E+00
RMM:  38    -0.232637587866E+04    0.68804E-02   -0.17408E-02  4777   0.668E-02    0.126E+00
RMM:  39    -0.232636721197E+04    0.86667E-02   -0.84482E-03  5239   0.442E-02    0.162E+00
RMM:  40    -0.232635795913E+04    0.92528E-02   -0.40735E-03  5239   0.288E-02    0.199E+00
RMM:  41    -0.232636509321E+04   -0.71341E-02   -0.11359E-03  4321   0.161E-02    0.168E+00
RMM:  42    -0.232637890337E+04   -0.13810E-01   -0.10704E-02  5040   0.458E-02    0.105E+00
RMM:  43    -0.232639903550E+04   -0.20132E-01   -0.32487E-02  5112   0.831E-02    0.138E+00
RMM:  44    -0.232641836265E+04   -0.19327E-01   -0.15832E-02  5045   0.619E-02    0.216E+00
RMM:  45    -0.232644020176E+04   -0.21839E-01   -0.11136E-02  5554   0.475E-02    0.243E+00
RMM:  46    -0.232644115631E+04   -0.95454E-03   -0.96001E-04  4231   0.184E-02    0.241E+00
RMM:  47    -0.232644251470E+04   -0.13584E-02   -0.17161E-04  3394   0.659E-03    0.242E+00
RMM:  48    -0.232644200661E+04    0.50809E-03   -0.11211E-05  2913   0.403E-03    0.241E+00
RMM:  49    -0.232644468229E+04   -0.26757E-02   -0.96286E-05  2983   0.467E-03    0.241E+00
RMM:  50    -0.232644638835E+04   -0.17061E-02   -0.58680E-05  2917   0.400E-03    0.240E+00
RMM:  51    -0.232644057123E+04    0.58171E-02   -0.40535E-04  3329   0.859E-03    0.241E+00
RMM:  52    -0.232644868253E+04   -0.81113E-02   -0.76685E-04  3942   0.121E-02    0.238E+00
RMM:  53    -0.232646650655E+04   -0.17824E-01   -0.53251E-03  5127   0.316E-02    0.204E+00
RMM:  54    -0.232647653814E+04   -0.10032E-01   -0.29356E-03  4681   0.250E-02    0.173E+00
RMM:  55    -0.232648535413E+04   -0.88160E-02   -0.28532E-03  5163   0.230E-02    0.137E+00
RMM:  56    -0.232648444644E+04    0.90770E-03   -0.12685E-04  3167   0.711E-03    0.142E+00
RMM:  57    -0.232648623578E+04   -0.17893E-02   -0.13709E-04  3174   0.568E-03    0.133E+00
RMM:  58    -0.232648704461E+04   -0.80883E-03   -0.47930E-05  2937   0.408E-03    0.128E+00
RMM:  59    -0.232649246451E+04   -0.54199E-02   -0.14275E-03  4626   0.163E-02    0.959E-01
RMM:  60    -0.232649251971E+04   -0.55205E-04   -0.65682E-05  2986   0.589E-03    0.963E-01
RMM:  61    -0.232649440071E+04   -0.18810E-02   -0.35698E-04  3631   0.811E-03    0.817E-01
RMM:  62    -0.232649441827E+04   -0.17558E-04   -0.19131E-05  2852   0.348E-03    0.818E-01
RMM:  63    -0.232649453870E+04   -0.12044E-03   -0.22667E-05  2851   0.275E-03    0.815E-01
RMM:  64    -0.232649456671E+04   -0.28007E-04   -0.11791E-04  3085   0.506E-03    0.782E-01
RMM:  65    -0.232649794954E+04   -0.33828E-02   -0.12344E-03  4429   0.152E-02    0.481E-01
RMM:  66    -0.232649416899E+04    0.37806E-02   -0.21327E-03  4629   0.191E-02    0.892E-01
RMM:  67    -0.232650085523E+04   -0.66862E-02   -0.59752E-03  5088   0.335E-02    0.174E-01
RMM:  68    -0.232650120835E+04   -0.35312E-03   -0.55393E-04  3647   0.147E-02    0.200E-01
RMM:  69    -0.232650212510E+04   -0.91676E-03   -0.33311E-03  4925   0.241E-02    0.320E-01
RMM:  70    -0.232650197732E+04    0.14779E-03   -0.59009E-04  3789   0.125E-02    0.416E-01
RMM:  71    -0.232650181148E+04    0.16584E-03   -0.51478E-03  5020   0.312E-02    0.291E-01
RMM:  72    -0.232650251124E+04   -0.69976E-03   -0.80115E-04  4176   0.135E-02    0.233E-02
RMM:  73    -0.232650237922E+04    0.13202E-03   -0.64504E-04  3626   0.113E-02    0.210E-01
RMM:  74    -0.232650208212E+04    0.29709E-03   -0.31128E-04  3382   0.837E-03    0.339E-01
RMM:  75    -0.232650253160E+04   -0.44947E-03   -0.47862E-04  3509   0.101E-02    0.123E-01
RMM:  76    -0.232650258498E+04   -0.53381E-04   -0.80033E-05  2935   0.545E-03    0.804E-02
RMM:  77    -0.232650261119E+04   -0.26210E-04   -0.51334E-05  2940   0.383E-03    0.472E-02
RMM:  78    -0.232650261895E+04   -0.77617E-05   -0.72011E-06  2669   0.253E-03
   1 F= -.23479345E+04 E0= -.23479345E+04  d E =-.234793E+04  mag=     0.9928
       N       E                     dE             d eps       ncg     rms          rms(c)
DAV:   1    -0.232636983458E+04    0.13278E+00   -0.33497E+01  4688   0.387E+00    0.152E+00
RMM:   2    -0.232674500623E+04   -0.37517E+00   -0.38225E+00  6119   0.101E+00    0.197E+00
RMM:   3    -0.232671647632E+04    0.28530E-01   -0.36756E-01  5726   0.463E-01    0.987E-01
RMM:   4    -0.232671195877E+04    0.45176E-02   -0.46777E-02  5879   0.105E-01    0.906E-01
RMM:   5    -0.232670560860E+04    0.63502E-02   -0.14939E-02  6040   0.705E-02    0.655E-01
RMM:   6    -0.232670118792E+04    0.44207E-02   -0.95304E-03  5929   0.521E-02    0.451E-01
RMM:   7    -0.232669893575E+04    0.22522E-02   -0.57018E-03  5978   0.406E-02    0.331E-01
RMM:   8    -0.232669765102E+04    0.12847E-02   -0.17992E-03  5706   0.222E-02    0.113E-01
RMM:   9    -0.232669727242E+04    0.37860E-03   -0.46348E-04  4819   0.124E-02    0.465E-02
RMM:  10    -0.232669712839E+04    0.14402E-03   -0.19494E-04  4586   0.111E-02    0.251E-02
RMM:  11    -0.232669709601E+04    0.32384E-04   -0.89189E-05  4208   0.771E-03    0.129E-02
RMM:  12    -0.232669710841E+04   -0.12405E-04   -0.38660E-05  3295   0.598E-03    0.742E-03
RMM:  13    -0.232669712939E+04   -0.20974E-04   -0.15692E-05  2936   0.485E-03    0.429E-03
RMM:  14    -0.232669715065E+04   -0.21264E-04   -0.93336E-06  2862   0.375E-03    0.275E-03
RMM:  15    -0.232669716423E+04   -0.13582E-04   -0.47697E-06  2846   0.304E-03    0.158E-03
RMM:  16    -0.232669717195E+04   -0.77162E-05   -0.28841E-06  2723   0.207E-03
   2 F= -.23481326E+04 E0= -.23481326E+04  d E =-.198068E+00  mag=     0.9999
       N       E                     dE             d eps       ncg     rms          rms(c)
DAV:   1    -0.232669701205E+04    0.15218E-03   -0.16764E-01  5072   0.286E-01    0.109E-01
RMM:   2    -0.232669889879E+04   -0.18867E-02   -0.20232E-02  6215   0.744E-02    0.119E-01
RMM:   3    -0.232669882708E+04    0.71707E-04   -0.14805E-03  4070   0.224E-02    0.764E-02
RMM:   4    -0.232669878631E+04    0.40770E-04   -0.22211E-04  3158   0.824E-03    0.570E-02
RMM:   5    -0.232669876568E+04    0.20628E-04   -0.79405E-05  3050   0.615E-03    0.540E-02
RMM:   6    -0.232669874145E+04    0.24234E-04   -0.50094E-05  2989   0.535E-03    0.349E-02
RMM:   7    -0.232669872361E+04    0.17835E-04   -0.35487E-05  2980   0.482E-03    0.206E-02
RMM:   8    -0.232669871908E+04    0.45352E-05   -0.10514E-05  2857   0.384E-03
   3 F= -.23481339E+04 E0= -.23481339E+04  d E =-.199355E+00  mag=     1.0000
       N       E                     dE             d eps       ncg     rms          rms(c)
DAV:   1    -0.232668487237E+04    0.13851E-01   -0.44035E+00  4624   0.205E+00    0.732E-01
RMM:   2    -0.232672472919E+04   -0.39857E-01   -0.43995E-01  6138   0.453E-01    0.397E-01
RMM:   3    -0.232672940149E+04   -0.46723E-02   -0.43888E-02  5984   0.172E-01    0.665E-01
RMM:   4    -0.232672450408E+04    0.48974E-02   -0.54463E-03  6435   0.454E-02    0.228E-01
RMM:   5    -0.232672413081E+04    0.37327E-03   -0.20586E-03  5375   0.273E-02    0.213E-01
RMM:   6    -0.232672373197E+04    0.39884E-03   -0.11022E-03  5524   0.217E-02    0.143E-01
RMM:   7    -0.232672348201E+04    0.24996E-03   -0.42235E-04  5032   0.133E-02    0.397E-02
RMM:   8    -0.232672344438E+04    0.37630E-04   -0.52766E-05  3162   0.708E-03    0.250E-02
RMM:   9    -0.232672343432E+04    0.10058E-04   -0.30988E-05  2993   0.464E-03    0.227E-02
RMM:  10    -0.232672341649E+04    0.17830E-04   -0.21626E-05  2976   0.445E-03    0.721E-03
RMM:  11    -0.232672341286E+04    0.36308E-05   -0.10665E-05  2887   0.409E-03
   4 F= -.23481586E+04 E0= -.23481586E+04  d E =-.247167E-01  mag=     1.0000
       N       E                     dE             d eps       ncg     rms          rms(c)
DAV:   1    -0.232672334942E+04    0.67072E-04   -0.16072E-02  5392   0.124E-01    0.433E-02
RMM:   2    -0.232672349586E+04   -0.14644E-03   -0.16255E-03  6270   0.288E-02    0.221E-02
RMM:   3    -0.232672350921E+04   -0.13355E-04   -0.15220E-04  3080   0.106E-02    0.352E-02
RMM:   4    -0.232672349646E+04    0.12750E-04   -0.19714E-05  2949   0.378E-03    0.146E-02
RMM:   5    -0.232672349513E+04    0.13300E-05   -0.86162E-06  2895   0.248E-03
   5 F= -.23481587E+04 E0= -.23481587E+04  d E =-.248010E-01  mag=     1.0000
       N       E                     dE             d eps       ncg     rms          rms(c)
DAV:   1    -0.232667536953E+04    0.48127E-01   -0.29287E+00  4576   0.169E+00    0.549E-01
RMM:   2    -0.232674054334E+04   -0.65174E-01   -0.70775E-01  6612   0.456E-01    0.428E-01
RMM:   3    -0.232674623802E+04   -0.56947E-02   -0.80643E-02  6260   0.184E-01    0.405E-01
RMM:   4    -0.232674488205E+04    0.13560E-02   -0.67455E-03  5939   0.365E-02    0.230E-01
RMM:   5    -0.232674460119E+04    0.28086E-03   -0.11486E-03  4628   0.172E-02    0.168E-01
RMM:   6    -0.232674432683E+04    0.27436E-03   -0.99378E-04  5518   0.161E-02    0.149E-01
RMM:   7    -0.232674415621E+04    0.17062E-03   -0.45707E-04  4507   0.130E-02    0.768E-02
RMM:   8    -0.232674410845E+04    0.47759E-04   -0.13652E-04  3179   0.714E-03    0.426E-02
RMM:   9    -0.232674408331E+04    0.25140E-04   -0.27172E-05  2965   0.494E-03    0.145E-02
RMM:  10    -0.232674407922E+04    0.40831E-05   -0.18005E-05  2974   0.329E-03
   6 F= -.23481780E+04 E0= -.23481780E+04  d E =-.193194E-01  mag=     1.0000
       N       E                     dE             d eps       ncg     rms          rms(c)
DAV:   1    -0.232672400249E+04    0.20081E-01   -0.10150E+00  4592   0.999E-01    0.325E-01
RMM:   2    -0.232674681603E+04   -0.22814E-01   -0.24874E-01  6604   0.271E-01    0.248E-01
RMM:   3    -0.232674886597E+04   -0.20499E-02   -0.28784E-02  5995   0.109E-01    0.235E-01
RMM:   4    -0.232674842207E+04    0.44390E-03   -0.23556E-03  4781   0.215E-02    0.141E-01
RMM:   5    -0.232674831468E+04    0.10739E-03   -0.38485E-04  3401   0.108E-02    0.983E-02
RMM:   6    -0.232674821467E+04    0.10001E-03   -0.37560E-04  4753   0.107E-02    0.858E-02
RMM:   7    -0.232674815849E+04    0.56179E-04   -0.15863E-04  3494   0.834E-03    0.433E-02
RMM:   8    -0.232674814531E+04    0.13180E-04   -0.49222E-05  3002   0.559E-03    0.261E-02
RMM:   9    -0.232674813631E+04    0.90027E-05   -0.12244E-05  2900   0.360E-03
   7 F= -.23481813E+04 E0= -.23481813E+04  d E =-.226526E-01  mag=     1.0000
       N       E                     dE             d eps       ncg     rms          rms(c)
DAV:   1    -0.232673624294E+04    0.11902E-01   -0.17571E+00  4560   0.134E+00    0.384E-01
RMM:   2    -0.232675816109E+04   -0.21918E-01   -0.22721E-01  6512   0.301E-01    0.338E-01
RMM:   3    -0.232675879046E+04   -0.62937E-03   -0.22785E-02  6140   0.107E-01    0.308E-01
RMM:   4    -0.232675796110E+04    0.82936E-03   -0.28117E-03  5400   0.276E-02    0.179E-01
RMM:   5    -0.232675766443E+04    0.29667E-03   -0.67729E-04  5145   0.145E-02    0.140E-01
RMM:   6    -0.232675745668E+04    0.20775E-03   -0.59748E-04  5153   0.156E-02    0.912E-02
RMM:   7    -0.232675737402E+04    0.82666E-04   -0.26194E-04  4377   0.120E-02    0.635E-02
RMM:   8    -0.232675732477E+04    0.49246E-04   -0.86453E-05  3241   0.622E-03    0.210E-02
RMM:   9    -0.232675731251E+04    0.12258E-04   -0.12468E-05  2945   0.420E-03    0.929E-03
RMM:  10    -0.232675730554E+04    0.69743E-05   -0.13554E-05  2924   0.315E-03
   8 F= -.23481901E+04 E0= -.23481901E+04  d E =-.878926E-02  mag=     1.0000
       N       E                     dE             d eps       ncg     rms          rms(c)
DAV:   1    -0.232675329661E+04    0.40159E-02   -0.44524E-01  4688   0.677E-01    0.193E-01
RMM:   2    -0.232675887645E+04   -0.55798E-02   -0.57650E-02  6504   0.153E-01    0.174E-01
RMM:   3    -0.232675900027E+04   -0.12383E-03   -0.57128E-03  5567   0.525E-02    0.155E-01
RMM:   4    -0.232675879434E+04    0.20594E-03   -0.71100E-04  3616   0.142E-02    0.912E-02
RMM:   5    -0.232675871392E+04    0.80415E-04   -0.17259E-04  3394   0.889E-03    0.696E-02
RMM:   6    -0.232675865861E+04    0.55311E-04   -0.16707E-04  4181   0.947E-03    0.455E-02
RMM:   7    -0.232675863777E+04    0.20838E-04   -0.69294E-05  3120   0.737E-03    0.321E-02
RMM:   8    -0.232675862522E+04    0.12551E-04   -0.26269E-05  2989   0.480E-03    0.107E-02
RMM:   9    -0.232675862219E+04    0.30274E-05   -0.55730E-06  2860   0.316E-03
   9 F= -.23481912E+04 E0= -.23481912E+04  d E =-.991476E-02  mag=     1.0000
       N       E                     dE             d eps       ncg     rms          rms(c)
DAV:   1    -0.232674858020E+04    0.10045E-01   -0.10300E+00  4560   0.105E+00    0.297E-01
RMM:   2    -0.232676564647E+04   -0.17066E-01   -0.17629E-01  6607   0.249E-01    0.271E-01
RMM:   3    -0.232676623012E+04   -0.58364E-03   -0.17954E-02  6145   0.862E-02    0.209E-01
RMM:   4    -0.232676589890E+04    0.33121E-03   -0.19728E-03  4589   0.211E-02    0.141E-01
RMM:   5    -0.232676573409E+04    0.16482E-03   -0.32907E-04  3869   0.107E-02    0.104E-01
RMM:   6    -0.232676562578E+04    0.10831E-03   -0.35907E-04  4676   0.127E-02    0.643E-02
RMM:   7    -0.232676560002E+04    0.25758E-04   -0.13769E-04  3296   0.900E-03    0.481E-02
RMM:   8    -0.232676557585E+04    0.24172E-04   -0.41507E-05  3012   0.540E-03    0.153E-02
RMM:   9    -0.232676557220E+04    0.36452E-05   -0.74188E-06  2927   0.341E-03
  10 F= -.23481979E+04 E0= -.23481979E+04  d E =-.663117E-02  mag=     1.0000
       N       E                     dE             d eps       ncg     rms          rms(c)
DAV:   1    -0.232672396704E+04    0.41609E-01   -0.27962E+00  4540   0.173E+00    0.490E-01
RMM:   2    -0.232677014859E+04   -0.46182E-01   -0.47839E-01  6607   0.409E-01    0.441E-01
RMM:   3    -0.232677196329E+04   -0.18147E-02   -0.49392E-02  6364   0.143E-01    0.348E-01
RMM:   4    -0.232677101834E+04    0.94495E-03   -0.53688E-03  5698   0.346E-02    0.231E-01
RMM:   5    -0.232677058444E+04    0.43390E-03   -0.87347E-04  5046   0.158E-02    0.173E-01
RMM:   6    -0.232677027403E+04    0.31040E-03   -0.97683E-04  5288   0.196E-02    0.102E-01
RMM:   7    -0.232677021509E+04    0.58939E-04   -0.36658E-04  4370   0.134E-02    0.801E-02
RMM:   8    -0.232677014628E+04    0.68815E-04   -0.10397E-04  3214   0.665E-03    0.256E-02
RMM:   9    -0.232677013472E+04    0.11561E-04   -0.17058E-05  2994   0.441E-03    0.130E-02
RMM:  10    -0.232677013016E+04    0.45615E-05   -0.14038E-05  2929   0.293E-03
  11 F= -.23482019E+04 E0= -.23482019E+04  d E =-.106745E-01  mag=     1.0000
       N       E                     dE             d eps       ncg     rms          rms(c)
DAV:   1    -0.232676106285E+04    0.90719E-02   -0.90840E-01  4560   0.987E-01    0.277E-01
RMM:   2    -0.232677407149E+04   -0.13009E-01   -0.13848E-01  6474   0.230E-01    0.178E-01
RMM:   3    -0.232677523499E+04   -0.11635E-02   -0.13393E-02  6087   0.797E-02    0.241E-01
RMM:   4    -0.232677463195E+04    0.60304E-03   -0.14286E-03  4935   0.195E-02    0.106E-01
RMM:   5    -0.232677460235E+04    0.29608E-04   -0.30659E-04  3557   0.105E-02    0.981E-02
RMM:   6    -0.232677450737E+04    0.94979E-04   -0.20160E-04  4043   0.103E-02    0.619E-02
RMM:   7    -0.232677448312E+04    0.24243E-04   -0.13333E-04  3189   0.846E-03    0.399E-02
RMM:   8    -0.232677446400E+04    0.19123E-04   -0.28392E-05  3017   0.540E-03    0.125E-02
RMM:   9    -0.232677446159E+04    0.24125E-05   -0.61246E-06  2904   0.318E-03
  12 F= -.23482057E+04 E0= -.23482057E+04  d E =-.379780E-02  mag=     1.0000
       N       E                     dE             d eps       ncg     rms          rms(c)
DAV:   1    -0.232677157895E+04    0.28851E-02   -0.24319E-01  4592   0.512E-01    0.144E-01
RMM:   2    -0.232677509754E+04   -0.35186E-02   -0.37376E-02  6473   0.120E-01    0.958E-02
RMM:   3    -0.232677540232E+04   -0.30478E-03   -0.35718E-03  5323   0.416E-02    0.128E-01
RMM:   4    -0.232677523060E+04    0.17171E-03   -0.38509E-04  3294   0.107E-02    0.559E-02
RMM:   5    -0.232677522128E+04    0.93293E-05   -0.84206E-05  3048   0.657E-03
  13 F= -.23482062E+04 E0= -.23482062E+04  d E =-.428315E-02  mag=     1.0000
       N       E                     dE             d eps       ncg     rms          rms(c)
DAV:   1    -0.232677173885E+04    0.34918E-02   -0.67318E-01  4560   0.804E-01    0.208E-01
RMM:   2    -0.232677871582E+04   -0.69770E-02   -0.71439E-02  6544   0.169E-01    0.205E-01
RMM:   3    -0.232677916550E+04   -0.44969E-03   -0.74814E-03  6027   0.595E-02    0.205E-01
RMM:   4    -0.232677871679E+04    0.44872E-03   -0.74587E-04  4303   0.149E-02    0.747E-02
RMM:   5    -0.232677873722E+04   -0.20428E-04   -0.17584E-04  3181   0.898E-03    0.900E-02
RMM:   6    -0.232677865040E+04    0.86812E-04   -0.15691E-04  4120   0.944E-03    0.428E-02
RMM:   7    -0.232677863108E+04    0.19319E-04   -0.58525E-05  3135   0.651E-03    0.172E-02
RMM:   8    -0.232677862872E+04    0.23631E-05   -0.13037E-05  2915   0.418E-03
  14 F= -.23482094E+04 E0= -.23482094E+04  d E =-.322759E-02  mag=     1.0000
       N       E                     dE             d eps       ncg     rms          rms(c)
DAV:   1    -0.232676458004E+04    0.14051E-01   -0.15798E+00  4540   0.123E+00    0.323E-01
RMM:   2    -0.232678124730E+04   -0.16667E-01   -0.16810E-01  6452   0.258E-01    0.349E-01
RMM:   3    -0.232678210568E+04   -0.85838E-03   -0.17472E-02  6182   0.915E-02    0.333E-01
RMM:   4    -0.232678095257E+04    0.11531E-02   -0.17931E-03  5441   0.228E-02    0.111E-01
RMM:   5    -0.232678094705E+04    0.55179E-05   -0.36994E-04  3976   0.118E-02    0.121E-01
RMM:   6    -0.232678078593E+04    0.16112E-03   -0.38320E-04  4771   0.131E-02    0.678E-02
RMM:   7    -0.232678074836E+04    0.37571E-04   -0.15277E-04  3366   0.969E-03    0.404E-02
RMM:   8    -0.232678072747E+04    0.20888E-04   -0.36681E-05  2967   0.564E-03    0.147E-02
RMM:   9    -0.232678072402E+04    0.34543E-05   -0.77180E-06  2924   0.353E-03
  15 F= -.23482112E+04 E0= -.23482112E+04  d E =-.505463E-02  mag=     1.0000
       N       E                     dE             d eps       ncg     rms          rms(c)
DAV:   1    -0.232677892423E+04    0.18032E-02   -0.43754E-01  4560   0.634E-01    0.169E-01
RMM:   2    -0.232678337214E+04   -0.44479E-02   -0.45010E-02  6500   0.134E-01    0.169E-01
RMM:   3    -0.232678368673E+04   -0.31458E-03   -0.45182E-03  5621   0.468E-02    0.181E-01
RMM:   4    -0.232678333172E+04    0.35500E-03   -0.46628E-04  3460   0.122E-02    0.532E-02
RMM:   5    -0.232678334032E+04   -0.85912E-05   -0.10866E-04  3137   0.749E-03    0.637E-02
RMM:   6    -0.232678329399E+04    0.46328E-04   -0.10439E-04  3428   0.785E-03    0.298E-02
RMM:   7    -0.232678329009E+04    0.39003E-05   -0.36976E-05  2997   0.575E-03
  16 F= -.23482137E+04 E0= -.23482137E+04  d E =-.249216E-02  mag=     1.0000
       N       E                     dE             d eps       ncg     rms          rms(c)
DAV:   1    -0.232675108119E+04    0.32213E-01   -0.34840E+00  4524   0.179E+00    0.478E-01
RMM:   2    -0.232678647486E+04   -0.35394E-01   -0.35891E-01  6521   0.381E-01    0.474E-01
RMM:   3    -0.232678900770E+04   -0.25328E-02   -0.36394E-02  6295   0.133E-01    0.508E-01
RMM:   4    -0.232678620933E+04    0.27984E-02   -0.37364E-03  5895   0.334E-02    0.149E-01
RMM:   5    -0.232678624182E+04   -0.32490E-04   -0.86511E-04  5171   0.168E-02    0.172E-01
RMM:   6    -0.232678590886E+04    0.33296E-03   -0.72950E-04  5272   0.170E-02    0.885E-02
RMM:   7    -0.232678585625E+04    0.52614E-04   -0.25952E-04  4111   0.112E-02    0.572E-02
RMM:   8    -0.232678581592E+04    0.40325E-04   -0.65486E-05  3020   0.623E-03    0.220E-02
RMM:   9    -0.232678580939E+04    0.65332E-05   -0.16614E-05  2977   0.404E-03
  17 F= -.23482161E+04 E0= -.23482161E+04  d E =-.481516E-02  mag=     1.0000
       N       E                     dE             d eps       ncg     rms          rms(c)
DAV:   1    -0.232678074115E+04    0.50748E-02   -0.72644E-01  4560   0.791E-01    0.203E-01
RMM:   2    -0.232678829581E+04   -0.75547E-02   -0.78559E-02  6554   0.171E-01    0.160E-01
RMM:   3    -0.232678910159E+04   -0.80578E-03   -0.78103E-03  5702   0.572E-02    0.218E-01
RMM:   4    -0.232678860185E+04    0.49974E-03   -0.82625E-04  3820   0.149E-02    0.681E-02
RMM:   5    -0.232678858745E+04    0.14399E-04   -0.16596E-04  3539   0.902E-03    0.673E-02
RMM:   6    -0.232678854515E+04    0.42306E-04   -0.11502E-04  3140   0.811E-03    0.361E-02
RMM:   7    -0.232678853427E+04    0.10876E-04   -0.38382E-05  3018   0.594E-03    0.150E-02
RMM:   8    -0.232678853241E+04    0.18568E-05   -0.10721E-05  2893   0.424E-03
  18 F= -.23482185E+04 E0= -.23482185E+04  d E =-.246927E-02  mag=     1.0000
       N       E                     dE             d eps       ncg     rms          rms(c)
DAV:   1    -0.232672203743E+04    0.66497E-01   -0.65282E+00  4520   0.237E+00    0.610E-01
RMM:   2    -0.232679031628E+04   -0.68279E-01   -0.71027E-01  6562   0.515E-01    0.480E-01
RMM:   3    -0.232679748111E+04   -0.71648E-02   -0.70810E-02  6275   0.172E-01    0.653E-01
RMM:   4    -0.232679301101E+04    0.44701E-02   -0.75111E-03  6180   0.438E-02    0.207E-01
RMM:   5    -0.232679257427E+04    0.43673E-03   -0.14582E-03  5221   0.231E-02    0.135E-01
RMM:   6    -0.232679261654E+04   -0.42271E-04   -0.96283E-04  5159   0.197E-02    0.141E-01
RMM:   7    -0.232679237606E+04    0.24048E-03   -0.29193E-04  4559   0.113E-02    0.466E-02
RMM:   8    -0.232679236202E+04    0.14043E-04   -0.78278E-05  3052   0.710E-03    0.369E-02
RMM:   9    -0.232679234441E+04    0.17611E-04   -0.25731E-05  2963   0.387E-03    0.164E-02
RMM:  10    -0.232679234134E+04    0.30699E-05   -0.15215E-05  2917   0.318E-03
  19 F= -.23482216E+04 E0= -.23482216E+04  d E =-.553905E-02  mag=     1.0000
       N       E                     dE             d eps       ncg     rms          rms(c)
DAV:   1    -0.232677826106E+04    0.14083E-01   -0.15950E+00  4524   0.115E+00    0.322E-01
RMM:   2    -0.232679596068E+04   -0.17700E-01   -0.18848E-01  6522   0.261E-01    0.162E-01
RMM:   3    -0.232679729215E+04   -0.13315E-02   -0.19309E-02  5959   0.893E-02    0.144E-01
RMM:   4    -0.232679724502E+04    0.47129E-04   -0.19133E-03  4857   0.198E-02    0.124E-01
RMM:   5    -0.232679718703E+04    0.57989E-04   -0.44265E-04  4373   0.133E-02    0.114E-01
RMM:   6    -0.232679705166E+04    0.13537E-03   -0.23492E-04  3792   0.100E-02    0.506E-02
RMM:   7    -0.232679702428E+04    0.27382E-04   -0.56762E-05  3160   0.674E-03    0.176E-02
RMM:   8    -0.232679702670E+04   -0.24230E-05   -0.20391E-05  2925   0.508E-03
  20 F= -.23482259E+04 E0= -.23482259E+04  d E =-.432634E-02  mag=     1.0000
       N       E                     dE             d eps       ncg     rms          rms(c)
DAV:   1    -0.232677533843E+04    0.21686E-01   -0.19999E+00  4520   0.129E+00    0.363E-01
RMM:   2    -0.232679761952E+04   -0.22281E-01   -0.23741E-01  6528   0.292E-01    0.186E-01
RMM:   3    -0.232679930538E+04   -0.16859E-02   -0.23812E-02  6040   0.971E-02    0.180E-01
RMM:   4    -0.232679916619E+04    0.13919E-03   -0.24147E-03  5292   0.222E-02    0.148E-01
RMM:   5    -0.232679909526E+04    0.70924E-04   -0.51764E-04  4392   0.137E-02    0.129E-01
RMM:   6    -0.232679889407E+04    0.20120E-03   -0.33937E-04  4351   0.118E-02    0.501E-02
RMM:   7    -0.232679887190E+04    0.22164E-04   -0.84123E-05  3354   0.745E-03    0.283E-02
RMM:   8    -0.232679886726E+04    0.46458E-05   -0.30358E-05  2935   0.567E-03
  21 F= -.23482274E+04 E0= -.23482274E+04  d E =-.577079E-02  mag=     1.0000
       N       E                     dE             d eps       ncg     rms          rms(c)
DAV:   1    -0.232677810937E+04    0.20763E-01   -0.18758E+00  4520   0.119E+00    0.341E-01
RMM:   2    -0.232680145843E+04   -0.23349E-01   -0.24789E-01  6601   0.281E-01    0.206E-01
RMM:   3    -0.232680339686E+04   -0.19384E-02   -0.26915E-02  6133   0.965E-02    0.194E-01
RMM:   4    -0.232680306886E+04    0.32800E-03   -0.25569E-03  4903   0.219E-02    0.116E-01
RMM:   5    -0.232680303589E+04    0.32962E-04   -0.39873E-04  4122   0.121E-02    0.125E-01
RMM:   6    -0.232680288589E+04    0.15001E-03   -0.35122E-04  3992   0.117E-02    0.575E-02
RMM:   7    -0.232680289450E+04   -0.86128E-05   -0.11235E-04  3392   0.735E-03    0.607E-02
RMM:   8    -0.232680285255E+04    0.41947E-04   -0.43677E-05  2959   0.577E-03    0.163E-02
RMM:   9    -0.232680284953E+04    0.30212E-05   -0.88584E-06  2913   0.289E-03
  22 F= -.23482312E+04 E0= -.23482312E+04  d E =-.379447E-02  mag=     1.0000
       N       E                     dE             d eps       ncg     rms          rms(c)
DAV:   1    -0.232677136907E+04    0.31483E-01   -0.25110E+00  4520   0.138E+00    0.393E-01
RMM:   2    -0.232680255098E+04   -0.31182E-01   -0.33109E-01  6608   0.325E-01    0.236E-01
RMM:   3    -0.232680521895E+04   -0.26680E-02   -0.36686E-02  6169   0.114E-01    0.224E-01
RMM:   4    -0.232680480568E+04    0.41328E-03   -0.34265E-03  5233   0.253E-02    0.136E-01
RMM:   5    -0.232680477446E+04    0.31220E-04   -0.50985E-04  4362   0.132E-02    0.152E-01
RMM:   6    -0.232680455020E+04    0.22426E-03   -0.49716E-04  4402   0.135E-02    0.674E-02
RMM:   7    -0.232680456137E+04   -0.11166E-04   -0.16922E-04  3865   0.818E-03    0.718E-02
RMM:   8    -0.232680450221E+04    0.59158E-04   -0.65147E-05  2997   0.644E-03    0.197E-02
RMM:   9    -0.232680449795E+04    0.42558E-05   -0.12906E-05  2947   0.324E-03
  23 F= -.23482326E+04 E0= -.23482326E+04  d E =-.522983E-02  mag=     1.0000
       N       E                     dE             d eps       ncg     rms          rms(c)
DAV:   1    -0.232677637392E+04    0.28128E-01   -0.26702E+00  4520   0.144E+00    0.418E-01
RMM:   2    -0.232680760181E+04   -0.31228E-01   -0.32844E-01  6515   0.331E-01    0.295E-01
RMM:   3    -0.232681090921E+04   -0.33074E-02   -0.35775E-02  6296   0.121E-01    0.374E-01
RMM:   4    -0.232680944153E+04    0.14677E-02   -0.35420E-03  5881   0.282E-02    0.160E-01
RMM:   5    -0.232680935330E+04    0.88225E-04   -0.61079E-04  4375   0.140E-02    0.142E-01
RMM:   6    -0.232680912263E+04    0.23067E-03   -0.50343E-04  4646   0.138E-02    0.776E-02
RMM:   7    -0.232680912106E+04    0.15762E-05   -0.30741E-04  4086   0.113E-02    0.690E-02
RMM:   8    -0.232680905970E+04    0.61356E-04   -0.72172E-05  3082   0.653E-03    0.173E-02
RMM:   9    -0.232680905524E+04    0.44663E-05   -0.12122E-05  2939   0.389E-03
  24 F= -.23482368E+04 E0= -.23482368E+04  d E =-.419728E-02  mag=     1.0000
       N       E                     dE             d eps       ncg     rms          rms(c)
DAV:   1    -0.232678731733E+04    0.21742E-01   -0.18737E+00  4520   0.121E+00    0.350E-01
RMM:   2    -0.232680922417E+04   -0.21907E-01   -0.23032E-01  6529   0.277E-01    0.247E-01
RMM:   3    -0.232681152391E+04   -0.22997E-02   -0.24966E-02  6238   0.101E-01    0.311E-01
RMM:   4    -0.232681050471E+04    0.10192E-02   -0.24932E-03  5485   0.237E-02    0.134E-01
RMM:   5    -0.232681044256E+04    0.62154E-04   -0.42706E-04  3868   0.119E-02    0.120E-01
RMM:   6    -0.232681027923E+04    0.16333E-03   -0.35924E-04  4410   0.121E-02    0.651E-02
RMM:   7    -0.232681027636E+04    0.28715E-05   -0.21890E-04  3736   0.973E-03    0.568E-02
RMM:   8    -0.232681023469E+04    0.41672E-04   -0.50617E-05  3018   0.609E-03    0.148E-02
RMM:   9    -0.232681023163E+04    0.30581E-05   -0.93613E-06  2920   0.343E-03
  25 F= -.23482377E+04 E0= -.23482377E+04  d E =-.507553E-02  mag=     1.0000
       N       E                     dE             d eps       ncg     rms          rms(c)
DAV:   1    -0.232678613940E+04    0.24095E-01   -0.21948E+00  4520   0.124E+00    0.351E-01
RMM:   2    -0.232681414965E+04   -0.28010E-01   -0.28585E-01  6655   0.294E-01    0.373E-01
RMM:   3    -0.232681621902E+04   -0.20694E-02   -0.31867E-02  6314   0.106E-01    0.348E-01
RMM:   4    -0.232681499697E+04    0.12221E-02   -0.30364E-03  5230   0.247E-02    0.138E-01
RMM:   5    -0.232681493748E+04    0.59486E-04   -0.44577E-04  3847   0.114E-02    0.136E-01
RMM:   6    -0.232681472069E+04    0.21680E-03   -0.44423E-04  4496   0.128E-02    0.675E-02
RMM:   7    -0.232681471477E+04    0.59198E-05   -0.27207E-04  3873   0.105E-02    0.555E-02
RMM:   8    -0.232681467584E+04    0.38928E-04   -0.59000E-05  3070   0.603E-03    0.183E-02
RMM:   9    -0.232681467111E+04    0.47311E-05   -0.11582E-05  2926   0.352E-03
  26 F= -.23482416E+04 E0= -.23482416E+04  d E =-.396387E-02  mag=     1.0000
       N       E                     dE             d eps       ncg     rms          rms(c)
DAV:   1    -0.232671768819E+04    0.96988E-01   -0.77063E+00  4520   0.233E+00    0.661E-01
RMM:   2    -0.232681691107E+04   -0.99223E-01   -0.10124E+00  6653   0.554E-01    0.707E-01
RMM:   3    -0.232682397084E+04   -0.70598E-02   -0.11251E-01  6436   0.199E-01    0.656E-01
RMM:   4    -0.232681962455E+04    0.43463E-02   -0.10692E-02  6058   0.460E-02    0.261E-01
RMM:   5    -0.232681940239E+04    0.22215E-03   -0.15889E-03  5229   0.202E-02    0.254E-01
RMM:   6    -0.232681863382E+04    0.76857E-03   -0.15380E-03  5421   0.218E-02    0.124E-01
RMM:   7    -0.232681860112E+04    0.32698E-04   -0.87163E-04  5149   0.176E-02    0.100E-01
RMM:   8    -0.232681847461E+04    0.12652E-03   -0.19951E-04  3652   0.870E-03    0.346E-02
RMM:   9    -0.232681845623E+04    0.18378E-04   -0.37605E-05  2991   0.524E-03    0.229E-02
RMM:  10    -0.232681844791E+04    0.83201E-05   -0.20368E-05  2977   0.328E-03
  27 F= -.23482445E+04 E0= -.23482445E+04  d E =-.687126E-02  mag=     1.0000
       N       E                     dE             d eps       ncg     rms          rms(c)
DAV:   1    -0.232676898430E+04    0.49472E-01   -0.37615E+00  4520   0.164E+00    0.510E-01
RMM:   2    -0.232682276498E+04   -0.53781E-01   -0.54769E-01  6625   0.403E-01    0.534E-01
RMM:   3    -0.232682664191E+04   -0.38769E-02   -0.61811E-02  6402   0.148E-01    0.521E-01
RMM:   4    -0.232682390486E+04    0.27370E-02   -0.59544E-03  5727   0.351E-02    0.190E-01
RMM:   5    -0.232682371963E+04    0.18523E-03   -0.92235E-04  4763   0.159E-02    0.178E-01
RMM:   6    -0.232682334657E+04    0.37306E-03   -0.98163E-04  5272   0.184E-02    0.972E-02
RMM:   7    -0.232682334104E+04    0.55324E-05   -0.44418E-04  4301   0.130E-02    0.888E-02
RMM:   8    -0.232682324291E+04    0.98135E-04   -0.10160E-04  3126   0.671E-03    0.192E-02
RMM:   9    -0.232682323708E+04    0.58218E-05   -0.16994E-05  2950   0.427E-03
  28 F= -.23482489E+04 E0= -.23482489E+04  d E =-.434606E-02  mag=     1.0000
       N       E                     dE             d eps       ncg     rms          rms(c)
DAV:   1    -0.232681554323E+04    0.76997E-02   -0.57149E-01  4592   0.639E-01    0.200E-01
RMM:   2    -0.232682373792E+04   -0.81947E-02   -0.83172E-02  6614   0.157E-01    0.212E-01
RMM:   3    -0.232682428486E+04   -0.54695E-03   -0.92818E-03  5823   0.583E-02    0.203E-01
RMM:   4    -0.232682387450E+04    0.41037E-03   -0.90948E-04  3503   0.141E-02    0.745E-02
RMM:   5    -0.232682384404E+04    0.30451E-04   -0.13773E-04  3140   0.757E-03    0.691E-02
RMM:   6    -0.232682378979E+04    0.54251E-04   -0.15960E-04  3620   0.842E-03    0.397E-02
RMM:   7    -0.232682378642E+04    0.33689E-05   -0.73240E-05  3021   0.640E-03
  29 F= -.23482493E+04 E0= -.23482493E+04  d E =-.472758E-02  mag=     1.0000
       N       E                     dE             d eps       ncg     rms          rms(c)
DAV:   1    -0.232679033847E+04    0.33451E-01   -0.22993E+00  4520   0.129E+00    0.414E-01
RMM:   2    -0.232682714561E+04   -0.36807E-01   -0.38090E-01  6649   0.329E-01    0.390E-01
RMM:   3    -0.232683006060E+04   -0.29150E-02   -0.40431E-02  6323   0.119E-01    0.433E-01
RMM:   4    -0.232682821844E+04    0.18422E-02   -0.40911E-03  5414   0.289E-02    0.153E-01
RMM:   5    -0.232682807390E+04    0.14454E-03   -0.58606E-04  4030   0.127E-02    0.140E-01
RMM:   6    -0.232682782290E+04    0.25100E-03   -0.63081E-04  4857   0.151E-02    0.668E-02
RMM:   7    -0.232682784531E+04   -0.22417E-04   -0.26991E-04  3633   0.103E-02    0.756E-02
RMM:   8    -0.232682777698E+04    0.68332E-04   -0.77073E-05  3029   0.644E-03    0.172E-02
RMM:   9    -0.232682777318E+04    0.38027E-05   -0.13336E-05  2946   0.384E-03
  30 F= -.23482529E+04 E0= -.23482529E+04  d E =-.361078E-02  mag=     1.0000
       N       E                     dE             d eps       ncg     rms          rms(c)
DAV:   1    -0.232677371332E+04    0.54064E-01   -0.33749E+00  4520   0.156E+00    0.501E-01
RMM:   2    -0.232682790409E+04   -0.54191E-01   -0.55885E-01  6622   0.398E-01    0.487E-01
RMM:   3    -0.232683205454E+04   -0.41505E-02   -0.59687E-02  6358   0.144E-01    0.526E-01
RMM:   4    -0.232682932149E+04    0.27331E-02   -0.59619E-03  5721   0.348E-02    0.184E-01
RMM:   5    -0.232682911217E+04    0.20932E-03   -0.85884E-04  4531   0.151E-02    0.170E-01
RMM:   6    -0.232682874116E+04    0.37100E-03   -0.93562E-04  5163   0.179E-02    0.817E-02
RMM:   7    -0.232682876855E+04   -0.27388E-04   -0.39896E-04  4146   0.121E-02    0.908E-02
RMM:   8    -0.232682866940E+04    0.99146E-04   -0.11044E-04  3098   0.688E-03    0.212E-02
RMM:   9    -0.232682866364E+04    0.57615E-05   -0.19451E-05  2965   0.441E-03
  31 F= -.23482533E+04 E0= -.23482533E+04  d E =-.406799E-02  mag=     1.0000
       N       E                     dE             d eps       ncg     rms          rms(c)
DAV:   1    -0.232682088302E+04    0.77864E-02   -0.49220E-01  4560   0.596E-01    0.188E-01
RMM:   2    -0.232682869763E+04   -0.78146E-02   -0.80867E-02  6608   0.151E-01    0.172E-01
RMM:   3    -0.232682929099E+04   -0.59336E-03   -0.85129E-03  5607   0.538E-02    0.191E-01
RMM:   4    -0.232682893832E+04    0.35268E-03   -0.85617E-04  3417   0.134E-02    0.710E-02
RMM:   5    -0.232682890485E+04    0.33462E-04   -0.11844E-04  3097   0.683E-03    0.643E-02
RMM:   6    -0.232682884850E+04    0.56351E-04   -0.14623E-04  3426   0.798E-03    0.294E-02
RMM:   7    -0.232682885479E+04   -0.62852E-05   -0.59553E-05  3044   0.588E-03
  32 F= -.23482537E+04 E0= -.23482537E+04  d E =-.442185E-02  mag=     1.0000
       N       E                     dE             d eps       ncg     rms          rms(c)
DAV:   1    -0.232679984058E+04    0.29008E-01   -0.21046E+00  4520   0.124E+00    0.376E-01
RMM:   2    -0.232683155794E+04   -0.31717E-01   -0.33089E-01  6612   0.308E-01    0.318E-01
RMM:   3    -0.232683444509E+04   -0.28871E-02   -0.34244E-02  6274   0.108E-01    0.384E-01
RMM:   4    -0.232683297116E+04    0.14739E-02   -0.34708E-03  5190   0.262E-02    0.140E-01
RMM:   5    -0.232683287952E+04    0.91632E-04   -0.49129E-04  3878   0.116E-02    0.137E-01
RMM:   6    -0.232683264931E+04    0.23022E-03   -0.48818E-04  4465   0.131E-02    0.683E-02
RMM:   7    -0.232683263523E+04    0.14072E-04   -0.27580E-04  4006   0.102E-02    0.585E-02
RMM:   8    -0.232683259444E+04    0.40799E-04   -0.70128E-05  3069   0.631E-03    0.200E-02
RMM:   9    -0.232683258846E+04    0.59767E-05   -0.12576E-05  2924   0.366E-03
  33 F= -.23482569E+04 E0= -.23482569E+04  d E =-.321755E-02  mag=     1.0000
       N       E                     dE             d eps       ncg     rms          rms(c)
DAV:   1    -0.232681084020E+04    0.21754E-01   -0.14950E+00  4520   0.104E+00    0.322E-01
RMM:   2    -0.232683348055E+04   -0.22640E-01   -0.23615E-01  6644   0.260E-01    0.278E-01
RMM:   3    -0.232683550055E+04   -0.20200E-02   -0.24478E-02  6233   0.918E-02    0.328E-01
RMM:   4    -0.232683442254E+04    0.10780E-02   -0.25059E-03  4705   0.224E-02    0.120E-01
RMM:   5    -0.232683436016E+04    0.62378E-04   -0.35787E-04  3481   0.102E-02    0.117E-01
RMM:   6    -0.232683419874E+04    0.16142E-03   -0.34220E-04  4147   0.114E-02    0.594E-02
RMM:   7    -0.232683418694E+04    0.11795E-04   -0.20523E-04  3649   0.904E-03    0.491E-02
RMM:   8    -0.232683415879E+04    0.28156E-04   -0.50667E-05  3020   0.585E-03    0.171E-02
RMM:   9    -0.232683415440E+04    0.43818E-05   -0.94172E-06  2897   0.331E-03
  34 F= -.23482581E+04 E0= -.23482581E+04  d E =-.435900E-02  mag=     1.0000
       N       E                     dE             d eps       ncg     rms          rms(c)
DAV:   1    -0.232682083552E+04    0.13323E-01   -0.10974E+00  4520   0.954E-01    0.296E-01
RMM:   2    -0.232683691805E+04   -0.16083E-01   -0.16971E-01  6524   0.230E-01    0.221E-01
RMM:   3    -0.232683815525E+04   -0.12372E-02   -0.17195E-02  6136   0.822E-02    0.236E-01
RMM:   4    -0.232683746126E+04    0.69399E-03   -0.16631E-03  4917   0.199E-02    0.942E-02
RMM:   5    -0.232683746021E+04    0.10568E-05   -0.39598E-04  4192   0.119E-02    0.109E-01
RMM:   6    -0.232683734039E+04    0.11981E-03   -0.21009E-04  3656   0.967E-03    0.572E-02
RMM:   7    -0.232683731534E+04    0.25053E-04   -0.85034E-05  3248   0.736E-03    0.271E-02
RMM:   8    -0.232683730789E+04    0.74447E-05   -0.25543E-05  2929   0.558E-03
  35 F= -.23482609E+04 E0= -.23482609E+04  d E =-.287677E-02  mag=     1.0000
       N       E                     dE             d eps       ncg     rms          rms(c)
DAV:   1    -0.232682653036E+04    0.10785E-01   -0.77842E-01  4528   0.803E-01    0.250E-01
RMM:   2    -0.232683794098E+04   -0.11411E-01   -0.12060E-01  6528   0.194E-01    0.184E-01
RMM:   3    -0.232683882432E+04   -0.88334E-03   -0.12233E-02  6015   0.683E-02    0.198E-01
RMM:   4    -0.232683833520E+04    0.48911E-03   -0.11764E-03  4255   0.168E-02    0.784E-02
RMM:   5    -0.232683832426E+04    0.10940E-04   -0.29470E-04  3919   0.107E-02    0.872E-02
RMM:   6    -0.232683825381E+04    0.70456E-04   -0.14068E-04  3246   0.848E-03    0.503E-02
RMM:   7    -0.232683823439E+04    0.19421E-04   -0.57259E-05  3069   0.656E-03    0.229E-02
RMM:   8    -0.232683822908E+04    0.53082E-05   -0.18989E-05  2926   0.502E-03
  36 F= -.23482616E+04 E0= -.23482616E+04  d E =-.356891E-02  mag=     1.0000
       N       E                     dE             d eps       ncg     rms          rms(c)
DAV:   1    -0.232682716449E+04    0.11070E-01   -0.81924E-01  4524   0.804E-01    0.244E-01
RMM:   2    -0.232684028473E+04   -0.13120E-01   -0.13774E-01  6628   0.197E-01    0.203E-01
RMM:   3    -0.232684122018E+04   -0.93545E-03   -0.14267E-02  6024   0.701E-02    0.195E-01
RMM:   4    -0.232684076458E+04    0.45560E-03   -0.13616E-03  3965   0.166E-02    0.777E-02
RMM:   5    -0.232684068279E+04    0.81786E-04   -0.22577E-04  3636   0.905E-03    0.469E-02
RMM:   6    -0.232684069723E+04   -0.14438E-04   -0.12727E-04  3286   0.787E-03    0.630E-02
RMM:   7    -0.232684066231E+04    0.34918E-04   -0.57124E-05  3044   0.633E-03    0.242E-02
RMM:   8    -0.232684065770E+04    0.46081E-05   -0.15828E-05  2903   0.376E-03
  37 F= -.23482638E+04 E0= -.23482638E+04  d E =-.218796E-02  mag=     1.0000
       N       E                     dE             d eps       ncg     rms          rms(c)
DAV:   1    -0.232672202996E+04    0.11863E+00   -0.73664E+00  4520   0.241E+00    0.730E-01
RMM:   2    -0.232683951381E+04   -0.11748E+00   -0.12403E+00  6652   0.597E-01    0.588E-01
RMM:   3    -0.232684986198E+04   -0.10348E-01   -0.13894E-01  6414   0.216E-01    0.615E-01
RMM:   4    -0.232684535794E+04    0.45040E-02   -0.12785E-02  6289   0.500E-02    0.240E-01
RMM:   5    -0.232684462254E+04    0.73541E-03   -0.19273E-03  5315   0.229E-02    0.151E-01
RMM:   6    -0.232684493211E+04   -0.30958E-03   -0.12859E-03  5541   0.200E-02    0.248E-01
RMM:   7    -0.232684432225E+04    0.60987E-03   -0.63926E-04  4768   0.148E-02    0.523E-02
RMM:   8    -0.232684429513E+04    0.27114E-04   -0.11797E-04  3164   0.709E-03    0.362E-02
RMM:   9    -0.232684428817E+04    0.69577E-05   -0.46448E-05  3031   0.500E-03
  38 F= -.23482667E+04 E0= -.23482667E+04  d E =-.512252E-02  mag=     1.0000
       N       E                     dE             d eps       ncg     rms          rms(c)
DAV:   1    -0.232682139103E+04    0.22904E-01   -0.16313E+00  4520   0.114E+00    0.356E-01
RMM:   2    -0.232684705348E+04   -0.25662E-01   -0.26888E-01  6608   0.284E-01    0.303E-01
RMM:   3    -0.232684909782E+04   -0.20443E-02   -0.27805E-02  6269   0.101E-01    0.317E-01
RMM:   4    -0.232684802477E+04    0.10731E-02   -0.29002E-03  5347   0.250E-02    0.144E-01
RMM:   5    -0.232684794552E+04    0.79247E-04   -0.45349E-04  3636   0.113E-02    0.122E-01
RMM:   6    -0.232684779392E+04    0.15159E-03   -0.34898E-04  4208   0.114E-02    0.802E-02
RMM:   7    -0.232684773087E+04    0.63053E-04   -0.23553E-04  4149   0.965E-03    0.263E-02
RMM:   8    -0.232684772399E+04    0.68781E-05   -0.26378E-05  2948   0.600E-03
  39 F= -.23482698E+04 E0= -.23482698E+04  d E =-.301576E-02  mag=     1.0000
       N       E                     dE             d eps       ncg     rms          rms(c)
DAV:   1    -0.232683011347E+04    0.17617E-01   -0.11575E+00  4520   0.963E-01    0.299E-01
RMM:   2    -0.232684832377E+04   -0.18210E-01   -0.19083E-01  6586   0.239E-01    0.253E-01
RMM:   3    -0.232684976323E+04   -0.14395E-02   -0.19509E-02  6169   0.837E-02    0.266E-01
RMM:   4    -0.232684900898E+04    0.75425E-03   -0.20448E-03  4799   0.209E-02    0.122E-01
RMM:   5    -0.232684895460E+04    0.54386E-04   -0.32024E-04  3433   0.991E-03    0.104E-01
RMM:   6    -0.232684883797E+04    0.11663E-03   -0.26091E-04  3943   0.101E-02    0.645E-02
RMM:   7    -0.232684879927E+04    0.38696E-04   -0.15795E-04  3713   0.823E-03    0.234E-02
RMM:   8    -0.232684879518E+04    0.40884E-05   -0.23393E-05  2937   0.566E-03
  40 F= -.23482705E+04 E0= -.23482705E+04  d E =-.373859E-02  mag=     1.0000
       N       E                     dE             d eps       ncg     rms          rms(c)
DAV:   1    -0.232683042667E+04    0.18373E-01   -0.13264E+00  4520   0.105E+00    0.313E-01
RMM:   2    -0.232685105187E+04   -0.20625E-01   -0.21587E-01  6592   0.256E-01    0.267E-01
RMM:   3    -0.232685292711E+04   -0.18752E-02   -0.22138E-02  6201   0.906E-02    0.323E-01
RMM:   4    -0.232685183681E+04    0.10903E-02   -0.23500E-03  4817   0.226E-02    0.117E-01
RMM:   5    -0.232685177069E+04    0.66113E-04   -0.34508E-04  3747   0.105E-02    0.108E-01
RMM:   6    -0.232685164228E+04    0.12841E-03   -0.30682E-04  4002   0.110E-02    0.592E-02
RMM:   7    -0.232685163126E+04    0.11027E-04   -0.17283E-04  3587   0.864E-03    0.462E-02
RMM:   8    -0.232685160859E+04    0.22667E-04   -0.46962E-05  2972   0.602E-03    0.189E-02
RMM:   9    -0.232685160485E+04    0.37383E-05   -0.97962E-06  2908   0.316E-03
  41 F= -.23482731E+04 E0= -.23482731E+04  d E =-.260273E-02  mag=     1.0000
       N       E                     dE             d eps       ncg     rms          rms(c)
DAV:   1    -0.232681522984E+04    0.36379E-01   -0.23681E+00  4520   0.140E+00    0.418E-01
RMM:   2    -0.232685231650E+04   -0.37087E-01   -0.38592E-01  6602   0.342E-01    0.375E-01
RMM:   3    -0.232685546512E+04   -0.31486E-02   -0.40024E-02  6309   0.122E-01    0.428E-01
RMM:   4    -0.232685353787E+04    0.19273E-02   -0.42174E-03  5616   0.301E-02    0.160E-01
RMM:   5    -0.232685339479E+04    0.14308E-03   -0.58815E-04  4213   0.130E-02    0.141E-01
RMM:   6    -0.232685317178E+04    0.22302E-03   -0.55280E-04  4707   0.139E-02    0.816E-02
RMM:   7    -0.232685314844E+04    0.23337E-04   -0.32011E-04  4155   0.110E-02    0.660E-02
RMM:   8    -0.232685310078E+04    0.47658E-04   -0.88790E-05  3080   0.672E-03    0.255E-02
RMM:   9    -0.232685309290E+04    0.78773E-05   -0.17504E-05  2956   0.415E-03
  42 F= -.23482743E+04 E0= -.23482743E+04  d E =-.382398E-02  mag=     1.0000
       N       E                     dE             d eps       ncg     rms          rms(c)
DAV:   1    -0.232683187267E+04    0.21228E-01   -0.15471E+00  4520   0.115E+00    0.337E-01
RMM:   2    -0.232685558424E+04   -0.23712E-01   -0.24800E-01  6561   0.275E-01    0.291E-01
RMM:   3    -0.232685748692E+04   -0.19027E-02   -0.25024E-02  6204   0.992E-02    0.347E-01
RMM:   4    -0.232685623433E+04    0.12526E-02   -0.26433E-03  5040   0.244E-02    0.127E-01
RMM:   5    -0.232685613812E+04    0.96213E-04   -0.38532E-04  3719   0.109E-02    0.113E-01
RMM:   6    -0.232685597170E+04    0.16642E-03   -0.40372E-04  4477   0.127E-02    0.549E-02
RMM:   7    -0.232685598280E+04   -0.11108E-04   -0.17498E-04  3353   0.867E-03    0.589E-02
RMM:   8    -0.232685594104E+04    0.41768E-04   -0.52016E-05  2997   0.593E-03    0.154E-02
RMM:   9    -0.232685593781E+04    0.32238E-05   -0.10151E-05  2919   0.337E-03
  43 F= -.23482771E+04 E0= -.23482771E+04  d E =-.275902E-02  mag=     1.0000
       N       E                     dE             d eps       ncg     rms          rms(c)
DAV:   1    -0.232682777711E+04    0.28164E-01   -0.18822E+00  4520   0.127E+00    0.371E-01
RMM:   2    -0.232685661176E+04   -0.28835E-01   -0.30137E-01  6569   0.304E-01    0.320E-01
RMM:   3    -0.232685893372E+04   -0.23220E-02   -0.30437E-02  6238   0.109E-01    0.383E-01
RMM:   4    -0.232685740633E+04    0.15274E-02   -0.32103E-03  5316   0.269E-02    0.139E-01
RMM:   5    -0.232685728915E+04    0.11717E-03   -0.46960E-04  3937   0.118E-02    0.125E-01
RMM:   6    -0.232685708438E+04    0.20478E-03   -0.49341E-04  4660   0.138E-02    0.604E-02
RMM:   7    -0.232685709747E+04   -0.13088E-04   -0.21392E-04  3501   0.943E-03    0.653E-02
RMM:   8    -0.232685704575E+04    0.51714E-04   -0.64963E-05  3029   0.626E-03    0.170E-02
RMM:   9    -0.232685704160E+04    0.41489E-05   -0.12458E-05  2938   0.364E-03
  44 F= -.23482781E+04 E0= -.23482781E+04  d E =-.377705E-02  mag=     1.0000
       N       E                     dE             d eps       ncg     rms          rms(c)
DAV:   1    -0.232684002686E+04    0.17019E-01   -0.14013E+00  4520   0.110E+00    0.312E-01
RMM:   2    -0.232685883387E+04   -0.18807E-01   -0.19850E-01  6510   0.250E-01    0.230E-01
RMM:   3    -0.232686054333E+04   -0.17095E-02   -0.19626E-02  6135   0.898E-02    0.302E-01
RMM:   4    -0.232685959797E+04    0.94535E-03   -0.20873E-03  4959   0.220E-02    0.115E-01
RMM:   5    -0.232685957266E+04    0.25308E-04   -0.37893E-04  3965   0.113E-02    0.123E-01
RMM:   6    -0.232685938520E+04    0.18747E-03   -0.33743E-04  4420   0.117E-02    0.512E-02
RMM:   7    -0.232685937108E+04    0.14118E-04   -0.14953E-04  3408   0.864E-03    0.372E-02
RMM:   8    -0.232685935595E+04    0.15129E-04   -0.39517E-05  2958   0.583E-03    0.168E-02
RMM:   9    -0.232685935174E+04    0.42119E-05   -0.84211E-06  2903   0.315E-03
  45 F= -.23482802E+04 E0= -.23482802E+04  d E =-.213910E-02  mag=     1.0000
       N       E                     dE             d eps       ncg     rms          rms(c)
DAV:   1    -0.232685616811E+04    0.31878E-02   -0.24988E-01  4624   0.463E-01    0.133E-01
RMM:   2    -0.232685953613E+04   -0.33680E-02   -0.35475E-02  6506   0.106E-01    0.101E-01
RMM:   3    -0.232685983478E+04   -0.29865E-03   -0.34818E-03  4978   0.383E-02    0.130E-01
RMM:   4    -0.232685965854E+04    0.17623E-03   -0.37376E-04  3191   0.102E-02    0.487E-02
RMM:   5    -0.232685965498E+04    0.35591E-05   -0.67739E-05  3063   0.574E-03
  46 F= -.23482805E+04 E0= -.23482805E+04  d E =-.237171E-02  mag=     1.0000
       N       E                     dE             d eps       ncg     rms          rms(c)
DAV:   1    -0.232685328201E+04    0.63765E-02   -0.59296E-01  4560   0.728E-01    0.203E-01
RMM:   2    -0.232686094531E+04   -0.76633E-02   -0.80283E-02  6504   0.160E-01    0.169E-01
RMM:   3    -0.232686157454E+04   -0.62924E-03   -0.91069E-03  5908   0.611E-02    0.171E-01
RMM:   4    -0.232686121542E+04    0.35913E-03   -0.77038E-04  3808   0.146E-02    0.648E-02
RMM:   5    -0.232686117713E+04    0.38283E-04   -0.26309E-04  4270   0.106E-02    0.556E-02
RMM:   6    -0.232686116340E+04    0.13731E-04   -0.90177E-05  3088   0.797E-03    0.464E-02
RMM:   7    -0.232686114587E+04    0.17536E-04   -0.28664E-05  2992   0.490E-03    0.192E-02
RMM:   8    -0.232686114164E+04    0.42221E-05   -0.11049E-05  2902   0.346E-03
  47 F= -.23482818E+04 E0= -.23482818E+04  d E =-.136109E-02  mag=     1.0000
       N       E                     dE             d eps       ncg     rms          rms(c)
DAV:   1    -0.232685832523E+04    0.28206E-02   -0.23627E-01  4560   0.460E-01    0.129E-01
RMM:   2    -0.232686135988E+04   -0.30346E-02   -0.32206E-02  6425   0.102E-01    0.915E-02
RMM:   3    -0.232686163151E+04   -0.27163E-03   -0.35309E-03  4895   0.377E-02    0.101E-01
RMM:   4    -0.232686150926E+04    0.12225E-03   -0.31484E-04  3138   0.954E-03    0.418E-02
RMM:   5    -0.232686150775E+04    0.15196E-05   -0.82939E-05  3127   0.641E-03
  48 F= -.23482821E+04 E0= -.23482821E+04  d E =-.164895E-02  mag=     1.0000
       N       E                     dE             d eps       ncg     rms          rms(c)
DAV:   1    -0.232685282594E+04    0.86833E-02   -0.66959E-01  4536   0.795E-01    0.226E-01
RMM:   2    -0.232686273366E+04   -0.99077E-02   -0.10415E-01  6456   0.180E-01    0.189E-01
RMM:   3    -0.232686360870E+04   -0.87504E-03   -0.12370E-02  5970   0.706E-02    0.206E-01
RMM:   4    -0.232686313749E+04    0.47121E-03   -0.10749E-03  4026   0.165E-02    0.864E-02
RMM:   5    -0.232686313454E+04    0.29487E-05   -0.20451E-04  3322   0.890E-03    0.993E-02
RMM:   6    -0.232686302290E+04    0.11164E-03   -0.23303E-04  4164   0.101E-02    0.395E-02
RMM:   7    -0.232686301685E+04    0.60484E-05   -0.80891E-05  3037   0.741E-03
  49 F= -.23482835E+04 E0= -.23482835E+04  d E =-.140099E-02  mag=     1.0000
       N       E                     dE             d eps       ncg     rms          rms(c)
DAV:   1    -0.232685801318E+04    0.50097E-02   -0.34164E-01  4544   0.568E-01    0.164E-01
RMM:   2    -0.232686306014E+04   -0.50470E-02   -0.53837E-02  6410   0.130E-01    0.118E-01
RMM:   3    -0.232686349780E+04   -0.43765E-03   -0.60037E-03  5646   0.496E-02    0.129E-01
RMM:   4    -0.232686329168E+04    0.20612E-03   -0.52048E-04  3306   0.117E-02    0.514E-02
RMM:   5    -0.232686328275E+04    0.89286E-05   -0.11356E-04  3158   0.740E-03    0.527E-02
RMM:   6    -0.232686325052E+04    0.32227E-04   -0.87516E-05  3107   0.716E-03    0.254E-02
RMM:   7    -0.232686325705E+04   -0.65274E-05   -0.32216E-05  2976   0.554E-03
  50 F= -.23482837E+04 E0= -.23482837E+04  d E =-.156471E-02  mag=     1.0000
       N       E                     dE             d eps       ncg     rms          rms(c)
DAV:   1    -0.232685844172E+04    0.48088E-02   -0.35535E-01  4544   0.572E-01    0.159E-01
RMM:   2    -0.232686403292E+04   -0.55912E-02   -0.59832E-02  6541   0.132E-01    0.107E-01
RMM:   3    -0.232686456759E+04   -0.53467E-03   -0.68615E-03  5485   0.495E-02    0.117E-01
RMM:   4    -0.232686442240E+04    0.14519E-03   -0.59006E-04  3256   0.113E-02    0.550E-02
RMM:   5    -0.232686441478E+04    0.76189E-05   -0.91118E-05  3092   0.637E-03
  51 F= -.23482846E+04 E0= -.23482846E+04  d E =-.959180E-03  mag=     1.0000
       N       E                     dE             d eps       ncg     rms          rms(c)
DAV:   1    -0.232683847386E+04    0.25949E-01   -0.16291E+00  4520   0.123E+00    0.337E-01
RMM:   2    -0.232686433610E+04   -0.25862E-01   -0.27312E-01  6511   0.281E-01    0.266E-01
RMM:   3    -0.232686682952E+04   -0.24934E-02   -0.32332E-02  6143   0.108E-01    0.299E-01
RMM:   4    -0.232686588643E+04    0.94309E-03   -0.28045E-03  4934   0.245E-02    0.129E-01
RMM:   5    -0.232686588722E+04   -0.78428E-06   -0.44229E-04  4160   0.115E-02    0.150E-01
RMM:   6    -0.232686563200E+04    0.25521E-03   -0.44284E-04  4597   0.123E-02    0.627E-02
RMM:   7    -0.232686562763E+04    0.43760E-05   -0.22647E-04  3606   0.101E-02    0.562E-02
RMM:   8    -0.232686559087E+04    0.36756E-04   -0.58887E-05  3021   0.626E-03    0.155E-02
RMM:   9    -0.232686558786E+04    0.30103E-05   -0.11214E-05  2918   0.363E-03
  52 F= -.23482854E+04 E0= -.23482854E+04  d E =-.170873E-02  mag=     1.0000
       N       E                     dE             d eps       ncg     rms          rms(c)
DAV:   1    -0.232685964665E+04    0.59442E-02   -0.46173E-01  4560   0.671E-01    0.205E-01
RMM:   2    -0.232686681414E+04   -0.71675E-02   -0.77623E-02  6317   0.158E-01    0.986E-02
RMM:   3    -0.232686739821E+04   -0.58407E-03   -0.83589E-03  5802   0.594E-02    0.974E-02
RMM:   4    -0.232686738723E+04    0.10982E-04   -0.77595E-04  3392   0.125E-02    0.833E-02
RMM:   5    -0.232686732993E+04    0.57298E-04   -0.13115E-04  3257   0.822E-03    0.588E-02
RMM:   6    -0.232686730836E+04    0.21571E-04   -0.97570E-05  3077   0.759E-03    0.440E-02
RMM:   7    -0.232686728761E+04    0.20747E-04   -0.48260E-05  3066   0.620E-03    0.149E-02
RMM:   8    -0.232686728621E+04    0.14000E-05   -0.12822E-05  2903   0.470E-03
  53 F= -.23482868E+04 E0= -.23482868E+04  d E =-.139538E-02  mag=     1.0000
       N       E                     dE             d eps       ncg     rms          rms(c)
DAV:   1    -0.232686444507E+04    0.28425E-02   -0.19612E-01  4624   0.437E-01    0.134E-01
RMM:   2    -0.232686749293E+04   -0.30479E-02   -0.33041E-02  6315   0.102E-01    0.638E-02
RMM:   3    -0.232686774546E+04   -0.25254E-03   -0.35432E-03  4736   0.365E-02    0.669E-02
RMM:   4    -0.232686773606E+04    0.94005E-05   -0.32804E-04  3110   0.870E-03    0.530E-02
RMM:   5    -0.232686771578E+04    0.20280E-04   -0.57785E-05  3073   0.558E-03    0.407E-02
RMM:   6    -0.232686770069E+04    0.15095E-04   -0.42663E-05  2955   0.542E-03    0.245E-02
RMM:   7    -0.232686769550E+04    0.51818E-05   -0.19720E-05  2982   0.415E-03
  54 F= -.23482870E+04 E0= -.23482870E+04  d E =-.160744E-02  mag=     1.0000
       N       E                     dE             d eps       ncg     rms          rms(c)
DAV:   1    -0.232686237931E+04    0.53214E-02   -0.33953E-01  4544   0.561E-01    0.177E-01
RMM:   2    -0.232686837330E+04   -0.59940E-02   -0.64922E-02  6490   0.136E-01    0.851E-02
RMM:   3    -0.232686896672E+04   -0.59342E-03   -0.72533E-03  5360   0.510E-02    0.114E-01
RMM:   4    -0.232686890542E+04    0.61300E-04   -0.65598E-04  3220   0.110E-02    0.570E-02
RMM:   5    -0.232686887434E+04    0.31079E-04   -0.93123E-05  3086   0.642E-03    0.476E-02
RMM:   6    -0.232686886033E+04    0.14018E-04   -0.65734E-05  3071   0.597E-03    0.365E-02
RMM:   7    -0.232686884924E+04    0.11085E-04   -0.35197E-05  2957   0.504E-03    0.181E-02
RMM:   8    -0.232686884619E+04    0.30464E-05   -0.92854E-06  2892   0.372E-03
  55 F= -.23482880E+04 E0= -.23482880E+04  d E =-.974618E-03  mag=     1.0000
       N       E                     dE             d eps       ncg     rms          rms(c)
DAV:   1    -0.232686398158E+04    0.48677E-02   -0.27699E-01  4528   0.507E-01    0.161E-01
RMM:   2    -0.232686888379E+04   -0.49022E-02   -0.52984E-02  6363   0.122E-01    0.820E-02
RMM:   3    -0.232686940415E+04   -0.52037E-03   -0.59593E-03  5127   0.459E-02    0.121E-01
RMM:   4    -0.232686930203E+04    0.10213E-03   -0.54268E-04  3200   0.104E-02    0.502E-02
RMM:   5    -0.232686929288E+04    0.91476E-05   -0.84222E-05  3053   0.591E-03
  56 F= -.23482883E+04 E0= -.23482883E+04  d E =-.126398E-02  mag=     1.0000
       N       E                     dE             d eps       ncg     rms          rms(c)
DAV:   1    -0.232686364349E+04    0.56585E-02   -0.38347E-01  4520   0.617E-01    0.196E-01
RMM:   2    -0.232686999234E+04   -0.63488E-02   -0.67606E-02  6382   0.145E-01    0.107E-01
RMM:   3    -0.232687074559E+04   -0.75325E-03   -0.77593E-03  5699   0.568E-02    0.174E-01
RMM:   4    -0.232687046803E+04    0.27756E-03   -0.72683E-04  3367   0.131E-02    0.568E-02
RMM:   5    -0.232687048964E+04   -0.21609E-04   -0.15103E-04  3197   0.807E-03    0.803E-02
RMM:   6    -0.232687042405E+04    0.65590E-04   -0.94337E-05  3202   0.741E-03    0.324E-02
RMM:   7    -0.232687042170E+04    0.23487E-05   -0.41602E-05  2982   0.591E-03
  57 F= -.23482892E+04 E0= -.23482892E+04  d E =-.915485E-03  mag=     1.0000
       N       E                     dE             d eps       ncg     rms          rms(c)
DAV:   1    -0.232686875533E+04    0.16687E-02   -0.10302E-01  4608   0.320E-01    0.104E-01
RMM:   2    -0.232687046438E+04   -0.17091E-02   -0.18425E-02  6444   0.763E-02    0.475E-02
RMM:   3    -0.232687064377E+04   -0.17939E-03   -0.20752E-03  3959   0.295E-02    0.730E-02
RMM:   4    -0.232687060950E+04    0.34271E-04   -0.19390E-04  3049   0.770E-03    0.297E-02
RMM:   5    -0.232687060083E+04    0.86680E-05   -0.30184E-05  2999   0.417E-03
  58 F= -.23482892E+04 E0= -.23482892E+04  d E =-.984816E-03  mag=     1.0000
       N       E                     dE             d eps       ncg     rms          rms(c)
DAV:   1    -0.232686468452E+04    0.59250E-02   -0.35883E-01  4524   0.594E-01    0.184E-01
RMM:   2    -0.232687122297E+04   -0.65385E-02   -0.69571E-02  6350   0.145E-01    0.944E-02
RMM:   3    -0.232687188823E+04   -0.66526E-03   -0.78288E-03  5599   0.580E-02    0.135E-01
RMM:   4    -0.232687175960E+04    0.12863E-03   -0.71025E-04  3237   0.119E-02    0.610E-02
RMM:   5    -0.232687175596E+04    0.36342E-05   -0.11544E-04  3167   0.699E-03    0.646E-02
RMM:   6    -0.232687170720E+04    0.48764E-04   -0.80731E-05  3053   0.682E-03    0.245E-02
RMM:   7    -0.232687170880E+04   -0.15985E-05   -0.31294E-05  3001   0.522E-03
  59 F= -.23482900E+04 E0= -.23482900E+04  d E =-.807347E-03  mag=     1.0000
       N       E                     dE             d eps       ncg     rms          rms(c)
DAV:   1    -0.232686849990E+04    0.32073E-02   -0.18102E-01  4560   0.422E-01    0.133E-01
RMM:   2    -0.232687181827E+04   -0.33184E-02   -0.35185E-02  6502   0.103E-01    0.802E-02
RMM:   3    -0.232687221499E+04   -0.39672E-03   -0.41169E-03  4958   0.418E-02    0.122E-01
RMM:   4    -0.232687206537E+04    0.14961E-03   -0.37455E-04  3156   0.989E-03    0.402E-02
RMM:   5    -0.232687207643E+04   -0.11054E-04   -0.63517E-05  3079   0.531E-03    0.547E-02
RMM:   6    -0.232687204208E+04    0.34353E-04   -0.43055E-05  2970   0.524E-03    0.151E-02
RMM:   7    -0.232687204074E+04    0.13368E-05   -0.15288E-05  2975   0.385E-03
  60 F= -.23482902E+04 E0= -.23482902E+04  d E =-.927164E-03  mag=     1.0000
       N       E                     dE             d eps       ncg     rms          rms(c)
DAV:   1    -0.232686487441E+04    0.71677E-02   -0.41412E-01  4520   0.658E-01    0.209E-01
RMM:   2    -0.232687283975E+04   -0.79653E-02   -0.84470E-02  6388   0.164E-01    0.129E-01
RMM:   3    -0.232687366302E+04   -0.82327E-03   -0.93487E-03  5877   0.654E-02    0.168E-01
RMM:   4    -0.232687332246E+04    0.34056E-03   -0.84532E-04  3615   0.146E-02    0.545E-02
RMM:   5    -0.232687327648E+04    0.45981E-04   -0.13807E-04  3683   0.855E-03    0.270E-02
RMM:   6    -0.232687328141E+04   -0.49321E-05   -0.46902E-05  3080   0.651E-03
  61 F= -.23482910E+04 E0= -.23482910E+04  d E =-.860495E-03  mag=     1.0000
       N       E                     dE             d eps       ncg     rms          rms(c)
DAV:   1    -0.232687208374E+04    0.11927E-02   -0.67456E-02  4704   0.266E-01    0.868E-02
RMM:   2    -0.232687340950E+04   -0.13258E-02   -0.13809E-02  6424   0.666E-02    0.741E-02
RMM:   3    -0.232687357814E+04   -0.16863E-03   -0.16743E-03  3802   0.272E-02    0.991E-02
RMM:   4    -0.232687347120E+04    0.10694E-03   -0.14886E-04  3066   0.786E-03    0.278E-02
RMM:   5    -0.232687347099E+04    0.21269E-06   -0.31534E-05  2983   0.365E-03
  62 F= -.23482911E+04 E0= -.23482911E+04  d E =-.896903E-03  mag=     1.0000
       N       E                     dE             d eps       ncg     rms          rms(c)
DAV:   1    -0.232686547513E+04    0.79961E-02   -0.44355E-01  4520   0.671E-01    0.211E-01
RMM:   2    -0.232687415763E+04   -0.86825E-02   -0.90922E-02  6417   0.167E-01    0.155E-01
RMM:   3    -0.232687516078E+04   -0.10032E-02   -0.10498E-02  5773   0.652E-02    0.209E-01
RMM:   4    -0.232687465966E+04    0.50112E-03   -0.94898E-04  3654   0.157E-02    0.684E-02
RMM:   5    -0.232687466992E+04   -0.10259E-04   -0.17302E-04  3176   0.812E-03    0.790E-02
RMM:   6    -0.232687459298E+04    0.76937E-04   -0.11153E-04  3592   0.766E-03    0.276E-02
RMM:   7    -0.232687459211E+04    0.87637E-06   -0.41306E-05  3018   0.591E-03
  63 F= -.23482918E+04 E0= -.23482918E+04  d E =-.767030E-03  mag=     1.0000
       N       E                     dE             d eps       ncg     rms          rms(c)
DAV:   1    -0.232687296417E+04    0.16288E-02   -0.87980E-02  4592   0.299E-01    0.961E-02
RMM:   2    -0.232687470595E+04   -0.17418E-02   -0.18355E-02  6532   0.756E-02    0.680E-02
RMM:   3    -0.232687490453E+04   -0.19858E-03   -0.19889E-03  4081   0.285E-02    0.962E-02
RMM:   4    -0.232687480082E+04    0.10370E-03   -0.19052E-04  3087   0.840E-03    0.306E-02
RMM:   5    -0.232687480241E+04   -0.15845E-05   -0.37042E-05  2983   0.402E-03
  64 F= -.23482919E+04 E0= -.23482919E+04  d E =-.820230E-03  mag=     1.0000
       N       E                     dE             d eps       ncg     rms          rms(c)
DAV:   1    -0.232686537684E+04    0.94240E-02   -0.54767E-01  4520   0.742E-01    0.231E-01
RMM:   2    -0.232687549299E+04   -0.10116E-01   -0.10565E-01  6473   0.182E-01    0.174E-01
RMM:   3    -0.232687677715E+04   -0.12842E-02   -0.11985E-02  5900   0.689E-02    0.260E-01
RMM:   4    -0.232687602522E+04    0.75192E-03   -0.11173E-03  3944   0.174E-02    0.659E-02
RMM:   5    -0.232687602882E+04   -0.35984E-05   -0.23734E-04  3624   0.947E-03    0.802E-02
RMM:   6    -0.232687595340E+04    0.75425E-04   -0.12241E-04  3401   0.796E-03    0.304E-02
RMM:   7    -0.232687594346E+04    0.99369E-05   -0.36811E-05  3013   0.604E-03
  65 F= -.23482926E+04 E0= -.23482926E+04  d E =-.764076E-03  mag=     1.0000
       N       E                     dE             d eps       ncg     rms          rms(c)
DAV:   1    -0.232687491407E+04    0.10393E-02   -0.60235E-02  4720   0.246E-01    0.790E-02
RMM:   2    -0.232687603966E+04   -0.11256E-02   -0.11770E-02  6546   0.618E-02    0.614E-02
RMM:   3    -0.232687618570E+04   -0.14604E-03   -0.13255E-03  3624   0.229E-02    0.912E-02
RMM:   4    -0.232687609374E+04    0.91960E-04   -0.12679E-04  3028   0.746E-03    0.210E-02
RMM:   5    -0.232687609435E+04   -0.61472E-06   -0.27627E-05  2965   0.353E-03
  66 F= -.23482927E+04 E0= -.23482927E+04  d E =-.790393E-03  mag=     1.0000
       N       E                     dE             d eps       ncg     rms          rms(c)
DAV:   1    -0.232686947601E+04    0.66177E-02   -0.40604E-01  4520   0.638E-01    0.197E-01
RMM:   2    -0.232687685089E+04   -0.73749E-02   -0.77314E-02  6485   0.157E-01    0.136E-01
RMM:   3    -0.232687777629E+04   -0.92540E-03   -0.87094E-03  5754   0.582E-02    0.217E-01
RMM:   4    -0.232687726774E+04    0.50855E-03   -0.81734E-04  3458   0.147E-02    0.552E-02
RMM:   5    -0.232687725568E+04    0.12066E-04   -0.15008E-04  3314   0.800E-03    0.587E-02
RMM:   6    -0.232687722089E+04    0.34791E-04   -0.84311E-05  3116   0.693E-03    0.294E-02
RMM:   7    -0.232687721794E+04    0.29434E-05   -0.33850E-05  2974   0.561E-03
  67 F= -.23482935E+04 E0= -.23482935E+04  d E =-.785476E-03  mag=     1.0000
       N       E                     dE             d eps       ncg     rms          rms(c)
DAV:   1    -0.232686691932E+04    0.10302E-01   -0.56779E-01  4520   0.754E-01    0.235E-01
RMM:   2    -0.232687723350E+04   -0.10314E-01   -0.10852E-01  6567   0.186E-01    0.157E-01
RMM:   3    -0.232687857602E+04   -0.13425E-02   -0.12268E-02  5936   0.698E-02    0.261E-01
RMM:   4    -0.232687784455E+04    0.73147E-03   -0.11541E-03  3841   0.174E-02    0.626E-02
RMM:   5    -0.232687780694E+04    0.37612E-04   -0.18576E-04  3653   0.886E-03    0.540E-02
RMM:   6    -0.232687779042E+04    0.16518E-04   -0.10485E-04  3121   0.750E-03    0.420E-02
RMM:   7    -0.232687777388E+04    0.16534E-04   -0.39419E-05  2985   0.599E-03    0.191E-02
RMM:   8    -0.232687777031E+04    0.35687E-05   -0.14332E-05  2916   0.447E-03
  68 F= -.23482936E+04 E0= -.23482936E+04  d E =-.941131E-03  mag=     1.0000
       N       E                     dE             d eps       ncg     rms          rms(c)
DAV:   1    -0.232687207775E+04    0.56961E-02   -0.35142E-01  4520   0.579E-01    0.177E-01
RMM:   2    -0.232687828151E+04   -0.62038E-02   -0.65708E-02  6518   0.143E-01    0.925E-02
RMM:   3    -0.232687893827E+04   -0.65676E-03   -0.69253E-03  5499   0.490E-02    0.155E-01
RMM:   4    -0.232687871197E+04    0.22630E-03   -0.66928E-04  3285   0.121E-02    0.510E-02
RMM:   5    -0.232687868952E+04    0.22449E-04   -0.93471E-05  3164   0.657E-03    0.418E-02
RMM:   6    -0.232687867711E+04    0.12416E-04   -0.57565E-05  3011   0.577E-03    0.279E-02
RMM:   7    -0.232687867134E+04    0.57663E-05   -0.18260E-05  2946   0.436E-03
  69 F= -.23482942E+04 E0= -.23482942E+04  d E =-.627819E-03  mag=     1.0000
       N       E                     dE             d eps       ncg     rms          rms(c)
DAV:   1    -0.232686074604E+04    0.17931E-01   -0.99426E-01  4520   0.974E-01    0.298E-01
RMM:   2    -0.232687829199E+04   -0.17546E-01   -0.18587E-01  6583   0.241E-01    0.152E-01
RMM:   3    -0.232688009258E+04   -0.18006E-02   -0.19926E-02  6003   0.847E-02    0.243E-01
RMM:   4    -0.232687955650E+04    0.53608E-03   -0.18850E-03  3998   0.200E-02    0.889E-02
RMM:   5    -0.232687949662E+04    0.59884E-04   -0.25594E-04  3879   0.103E-02    0.748E-02
RMM:   6    -0.232687946086E+04    0.35756E-04   -0.16009E-04  3366   0.841E-03    0.531E-02
RMM:   7    -0.232687942641E+04    0.34448E-04   -0.53835E-05  3016   0.658E-03    0.115E-02
RMM:   8    -0.232687942574E+04    0.67186E-06   -0.10954E-05  2951   0.440E-03
  70 F= -.23482945E+04 E0= -.23482945E+04  d E =-.928770E-03  mag=     1.0000
       N       E                     dE             d eps       ncg     rms          rms(c)
DAV:   1    -0.232687037315E+04    0.90533E-02   -0.57180E-01  4520   0.731E-01    0.228E-01
RMM:   2    -0.232688013801E+04   -0.97649E-02   -0.10378E-01  6502   0.181E-01    0.972E-02
RMM:   3    -0.232688088263E+04   -0.74462E-03   -0.10795E-02  5727   0.615E-02    0.952E-02
RMM:   4    -0.232688088830E+04   -0.56708E-05   -0.10133E-03  3429   0.137E-02    0.778E-02
RMM:   5    -0.232688083233E+04    0.55969E-04   -0.13881E-04  3283   0.860E-03    0.495E-02
RMM:   6    -0.232688083005E+04    0.22820E-05   -0.78336E-05  3085   0.667E-03
  71 F= -.23482956E+04 E0= -.23482956E+04  d E =-.109204E-02  mag=     1.0000
       N       E                     dE             d eps       ncg     rms          rms(c)
DAV:   1    -0.232686044922E+04    0.20383E-01   -0.11529E+00  4520   0.104E+00    0.324E-01
RMM:   2    -0.232688016185E+04   -0.19713E-01   -0.20952E-01  6463   0.257E-01    0.138E-01
RMM:   3    -0.232688163188E+04   -0.14700E-02   -0.22005E-02  5955   0.871E-02    0.121E-01
RMM:   4    -0.232688171675E+04   -0.84865E-04   -0.20259E-03  4076   0.190E-02    0.120E-01
RMM:   5    -0.232688160401E+04    0.11273E-03   -0.28087E-04  3785   0.112E-02    0.798E-02
RMM:   6    -0.232688156822E+04    0.35795E-04   -0.18669E-04  3854   0.890E-03    0.626E-02
RMM:   7    -0.232688152573E+04    0.42487E-04   -0.68439E-05  3023   0.656E-03    0.284E-02
RMM:   8    -0.232688152044E+04    0.52884E-05   -0.27703E-05  2947   0.492E-03
  72 F= -.23482959E+04 E0= -.23482959E+04  d E =-.134660E-02  mag=     1.0000
       N       E                     dE             d eps       ncg     rms          rms(c)
DAV:   1    -0.232687380841E+04    0.77173E-02   -0.46700E-01  4560   0.648E-01    0.201E-01
RMM:   2    -0.232688203951E+04   -0.82311E-02   -0.87155E-02  6573   0.162E-01    0.918E-02
RMM:   3    -0.232688272355E+04   -0.68405E-03   -0.91780E-03  5537   0.550E-02    0.107E-01
RMM:   4    -0.232688266127E+04    0.62287E-04   -0.84894E-04  3300   0.123E-02    0.594E-02
RMM:   5    -0.232688263146E+04    0.29810E-04   -0.99769E-05  3189   0.676E-03    0.470E-02
RMM:   6    -0.232688262905E+04    0.24022E-05   -0.63131E-05  3014   0.603E-03
  73 F= -.23482967E+04 E0= -.23482967E+04  d E =-.774385E-03  mag=     1.0000
       N       E                     dE             d eps       ncg     rms          rms(c)
DAV:   1    -0.232680986984E+04    0.72762E-01   -0.39324E+00  4520   0.188E+00    0.584E-01
RMM:   2    -0.232687944230E+04   -0.69572E-01   -0.73602E-01  6566   0.472E-01    0.276E-01
RMM:   3    -0.232688543244E+04   -0.59901E-02   -0.78757E-02  6136   0.160E-01    0.352E-01
RMM:   4    -0.232688465058E+04    0.78186E-03   -0.72030E-03  5775   0.354E-02    0.184E-01
RMM:   5    -0.232688454037E+04    0.11021E-03   -0.87018E-04  4900   0.155E-02    0.186E-01
RMM:   6    -0.232688425511E+04    0.28526E-03   -0.64594E-04  4406   0.153E-02    0.106E-01
RMM:   7    -0.232688415332E+04    0.10179E-03   -0.29340E-04  4531   0.103E-02    0.573E-02
RMM:   8    -0.232688412390E+04    0.29421E-04   -0.10547E-04  3091   0.788E-03    0.326E-02
RMM:   9    -0.232688410965E+04    0.14252E-04   -0.25813E-05  2977   0.439E-03    0.150E-02
RMM:  10    -0.232688410687E+04    0.27740E-05   -0.80244E-06  2926   0.301E-03
  74 F= -.23482972E+04 E0= -.23482972E+04  d E =-.130553E-02  mag=     1.0000
       N       E                     dE             d eps       ncg     rms          rms(c)
DAV:   1    -0.232686545500E+04    0.18655E-01   -0.11191E+00  4520   0.100E+00    0.317E-01
RMM:   2    -0.232688481996E+04   -0.19365E-01   -0.20394E-01  6518   0.251E-01    0.164E-01
RMM:   3    -0.232688665063E+04   -0.18307E-02   -0.21608E-02  6004   0.868E-02    0.225E-01
RMM:   4    -0.232688614921E+04    0.50142E-03   -0.20743E-03  4329   0.207E-02    0.971E-02
RMM:   5    -0.232688614463E+04    0.45756E-05   -0.28891E-04  3679   0.107E-02    0.107E-01
RMM:   6    -0.232688602760E+04    0.11703E-03   -0.19508E-04  3673   0.897E-03    0.454E-02
RMM:   7    -0.232688600541E+04    0.22191E-04   -0.63297E-05  3076   0.678E-03    0.161E-02
RMM:   8    -0.232688600450E+04    0.90897E-06   -0.18147E-05  2964   0.499E-03
  75 F= -.23482986E+04 E0= -.23482986E+04  d E =-.137359E-02  mag=     1.0000
       N       E                     dE             d eps       ncg     rms          rms(c)
DAV:   1    -0.232687240865E+04    0.13597E-01   -0.77848E-01  4528   0.837E-01    0.266E-01
RMM:   2    -0.232688591120E+04   -0.13503E-01   -0.14219E-01  6506   0.209E-01    0.140E-01
RMM:   3    -0.232688721801E+04   -0.13068E-02   -0.14963E-02  5895   0.712E-02    0.198E-01
RMM:   4    -0.232688682219E+04    0.39582E-03   -0.14499E-03  3873   0.175E-02    0.821E-02
RMM:   5    -0.232688682754E+04   -0.53469E-05   -0.20700E-04  3328   0.912E-03    0.934E-02
RMM:   6    -0.232688673159E+04    0.95945E-04   -0.14232E-04  3386   0.804E-03    0.333E-02
RMM:   7    -0.232688672519E+04    0.64059E-05   -0.47342E-05  3015   0.628E-03
  76 F= -.23482989E+04 E0= -.23482989E+04  d E =-.166355E-02  mag=     1.0000
       N       E                     dE             d eps       ncg     rms          rms(c)
DAV:   1    -0.232687811889E+04    0.86127E-02   -0.57535E-01  4560   0.718E-01    0.231E-01
RMM:   2    -0.232688790091E+04   -0.97820E-02   -0.10173E-01  6475   0.177E-01    0.167E-01
RMM:   3    -0.232688902466E+04   -0.11237E-02   -0.11202E-02  5817   0.654E-02    0.239E-01
RMM:   4    -0.232688837485E+04    0.64980E-03   -0.10931E-03  3829   0.168E-02    0.717E-02
RMM:   5    -0.232688837225E+04    0.25984E-05   -0.19222E-04  3209   0.829E-03    0.783E-02
RMM:   6    -0.232688829730E+04    0.74956E-04   -0.11948E-04  3560   0.791E-03    0.268E-02
RMM:   7    -0.232688829012E+04    0.71825E-05   -0.44025E-05  3062   0.605E-03
  77 F= -.23483001E+04 E0= -.23483001E+04  d E =-.121683E-02  mag=     1.0000
       N       E                     dE             d eps       ncg     rms          rms(c)
DAV:   1    -0.232687891665E+04    0.93807E-02   -0.56829E-01  4524   0.713E-01    0.229E-01
RMM:   2    -0.232688856649E+04   -0.96498E-02   -0.10045E-01  6509   0.176E-01    0.163E-01
RMM:   3    -0.232688968441E+04   -0.11179E-02   -0.10932E-02  5834   0.646E-02    0.238E-01
RMM:   4    -0.232688904442E+04    0.63998E-03   -0.10776E-03  3797   0.167E-02    0.710E-02
RMM:   5    -0.232688904141E+04    0.30125E-05   -0.19312E-04  3218   0.831E-03    0.786E-02
RMM:   6    -0.232688896503E+04    0.76382E-04   -0.12204E-04  3591   0.801E-03    0.258E-02
RMM:   7    -0.232688896066E+04    0.43720E-05   -0.46725E-05  3038   0.616E-03
  78 F= -.23483004E+04 E0= -.23483004E+04  d E =-.154469E-02  mag=     1.0000
       N       E                     dE             d eps       ncg     rms          rms(c)
DAV:   1    -0.232687588549E+04    0.13080E-01   -0.85347E-01  4520   0.855E-01    0.271E-01
RMM:   2    -0.232689010828E+04   -0.14223E-01   -0.14790E-01  6538   0.209E-01    0.196E-01
RMM:   3    -0.232689161754E+04   -0.15093E-02   -0.15999E-02  5924   0.764E-02    0.266E-01
RMM:   4    -0.232689081741E+04    0.80013E-03   -0.16042E-03  4183   0.194E-02    0.871E-02
RMM:   5    -0.232689080618E+04    0.11229E-04   -0.24570E-04  3266   0.879E-03    0.926E-02
RMM:   6    -0.232689070590E+04    0.10028E-03   -0.16078E-04  3727   0.867E-03    0.344E-02
RMM:   7    -0.232689069461E+04    0.11294E-04   -0.67167E-05  3149   0.656E-03    0.160E-02
RMM:   8    -0.232689069253E+04    0.20840E-05   -0.12566E-05  2948   0.435E-03
  79 F= -.23483016E+04 E0= -.23483016E+04  d E =-.124406E-02  mag=     1.0000
       N       E                     dE             d eps       ncg     rms          rms(c)
DAV:   1    -0.232688185866E+04    0.88360E-02   -0.54696E-01  4560   0.685E-01    0.217E-01
RMM:   2    -0.232689099054E+04   -0.91319E-02   -0.94845E-02  6481   0.166E-01    0.160E-01
RMM:   3    -0.232689195087E+04   -0.96033E-03   -0.10175E-02  5670   0.586E-02    0.215E-01
RMM:   4    -0.232689142698E+04    0.52389E-03   -0.10251E-03  3660   0.154E-02    0.696E-02
RMM:   5    -0.232689142001E+04    0.69729E-05   -0.16121E-04  3150   0.739E-03    0.743E-02
RMM:   6    -0.232689135203E+04    0.67983E-04   -0.10356E-04  3311   0.719E-03    0.244E-02
RMM:   7    -0.232689134736E+04    0.46731E-05   -0.40991E-05  3054   0.562E-03
  80 F= -.23483019E+04 E0= -.23483019E+04  d E =-.151221E-02  mag=     1.0000
       N       E                     dE             d eps       ncg     rms          rms(c)
DAV:   1    -0.232687494390E+04    0.16408E-01   -0.10922E+00  4520   0.974E-01    0.306E-01
RMM:   2    -0.232689268174E+04   -0.17738E-01   -0.18431E-01  6506   0.237E-01    0.214E-01
RMM:   3    -0.232689423655E+04   -0.15548E-02   -0.19082E-02  6136   0.846E-02    0.256E-01
RMM:   4    -0.232689343136E+04    0.80518E-03   -0.19088E-03  4894   0.207E-02    0.802E-02
RMM:   5    -0.232689338791E+04    0.43456E-04   -0.26966E-04  4154   0.101E-02    0.761E-02
RMM:   6    -0.232689336358E+04    0.24325E-04   -0.14075E-04  3171   0.874E-03    0.657E-02
RMM:   7    -0.232689332381E+04    0.39777E-04   -0.68549E-05  3145   0.682E-03    0.216E-02
RMM:   8    -0.232689331919E+04    0.46175E-05   -0.16696E-05  2941   0.492E-03
  81 F= -.23483032E+04 E0= -.23483032E+04  d E =-.131520E-02  mag=     1.0000
       N       E                     dE             d eps       ncg     rms          rms(c)
DAV:   1    -0.232689021425E+04    0.31096E-02   -0.20763E-01  4624   0.425E-01    0.135E-01
RMM:   2    -0.232689359926E+04   -0.33850E-02   -0.35145E-02  6432   0.103E-01    0.956E-02
RMM:   3    -0.232689390075E+04   -0.30149E-03   -0.36920E-03  5035   0.364E-02    0.115E-01
RMM:   4    -0.232689373655E+04    0.16420E-03   -0.36556E-04  3189   0.973E-03    0.346E-02
RMM:   5    -0.232689372343E+04    0.13121E-04   -0.50539E-05  3018   0.553E-03    0.248E-02
RMM:   6    -0.232689372361E+04   -0.18820E-06   -0.30716E-05  2988   0.477E-03
  82 F= -.23483033E+04 E0= -.23483033E+04  d E =-.143575E-02  mag=     1.0000
       N       E                     dE             d eps       ncg     rms          rms(c)
DAV:   1    -0.232687910680E+04    0.14617E-01   -0.94089E-01  4520   0.903E-01    0.289E-01
RMM:   2    -0.232689541714E+04   -0.16310E-01   -0.16544E-01  6469   0.225E-01    0.272E-01
RMM:   3    -0.232689645858E+04   -0.10414E-02   -0.17273E-02  6165   0.796E-02    0.287E-01
RMM:   4    -0.232689563965E+04    0.81893E-03   -0.17407E-03  4818   0.199E-02    0.112E-01
[...]
       N       E                     dE             d eps       ncg     rms          rms(c)
DAV:   1    -0.232703061462E+04    0.88502E-02   -0.11720E+00  4528   0.720E-01    0.223E-01
RMM:   2    -0.232703954387E+04   -0.89292E-02   -0.93082E-02  6262   0.161E-01    0.183E-01
RMM:   3    -0.232704001896E+04   -0.47509E-03   -0.91825E-03  5702   0.586E-02    0.217E-01
RMM:   4    -0.232703954208E+04    0.47688E-03   -0.88787E-04  3731   0.141E-02    0.980E-02
RMM:   5    -0.232703948251E+04    0.59567E-04   -0.18751E-04  3177   0.850E-03    0.786E-02
RMM:   6    -0.232703939816E+04    0.84345E-04   -0.22461E-04  4050   0.955E-03    0.394E-02
RMM:   7    -0.232703940001E+04   -0.18464E-05   -0.81494E-05  3020   0.715E-03
 179 F= -.23484324E+04 E0= -.23484324E+04  d E =-.299697E-02  mag=     1.0000
       N       E                     dE             d eps       ncg     rms          rms(c)
DAV:   1    -0.232702448633E+04    0.14912E-01   -0.21783E+00  4520   0.965E-01    0.295E-01
RMM:   2    -0.232704091052E+04   -0.16424E-01   -0.17411E-01  6330   0.213E-01    0.197E-01
RMM:   3    -0.232704192565E+04   -0.10151E-02   -0.18074E-02  5834   0.788E-02    0.229E-01
RMM:   4    -0.232704145790E+04    0.46775E-03   -0.16129E-03  3996   0.176E-02    0.127E-01
RMM:   5    -0.232704138901E+04    0.68886E-04   -0.30218E-04  3515   0.993E-03    0.109E-01
RMM:   6    -0.232704126573E+04    0.12328E-03   -0.30421E-04  4062   0.105E-02    0.728E-02
RMM:   7    -0.232704124676E+04    0.18961E-04   -0.18927E-04  3157   0.878E-03    0.589E-02
RMM:   8    -0.232704121072E+04    0.36049E-04   -0.48814E-05  3036   0.582E-03    0.164E-02
RMM:   9    -0.232704120707E+04    0.36437E-05   -0.76044E-06  2899   0.298E-03
 180 F= -.23484346E+04 E0= -.23484346E+04  d E =-.217952E-02  mag=     1.0000
       N       E                     dE             d eps       ncg     rms          rms(c)
DAV:   1    -0.232701442718E+04    0.26784E-01   -0.35644E+00  4520   0.123E+00    0.374E-01
RMM:   2    -0.232704140965E+04   -0.26982E-01   -0.28533E-01  6312   0.271E-01    0.250E-01
RMM:   3    -0.232704304599E+04   -0.16363E-02   -0.29446E-02  5929   0.101E-01    0.289E-01
RMM:   4    -0.232704231461E+04    0.73137E-03   -0.26417E-03  4766   0.222E-02    0.166E-01
RMM:   5    -0.232704219224E+04    0.12237E-03   -0.49432E-04  4053   0.121E-02    0.141E-01
RMM:   6    -0.232704195591E+04    0.23633E-03   -0.53049E-04  4730   0.133E-02    0.816E-02
RMM:   7    -0.232704194736E+04    0.85456E-05   -0.28653E-04  3426   0.103E-02    0.749E-02
RMM:   8    -0.232704188718E+04    0.60184E-04   -0.71728E-05  3066   0.629E-03    0.215E-02
RMM:   9    -0.232704188099E+04    0.61923E-05   -0.12150E-05  2923   0.361E-03
 181 F= -.23484358E+04 E0= -.23484358E+04  d E =-.333718E-02  mag=     1.0000
       N       E                     dE             d eps       ncg     rms          rms(c)
DAV:   1    -0.232703635153E+04    0.55356E-02   -0.82261E-01  4560   0.663E-01    0.208E-01
RMM:   2    -0.232704353423E+04   -0.71827E-02   -0.77458E-02  6174   0.147E-01    0.116E-01
RMM:   3    -0.232704396816E+04   -0.43394E-03   -0.78879E-03  5745   0.580E-02    0.138E-01
RMM:   4    -0.232704384059E+04    0.12757E-03   -0.69428E-04  3437   0.122E-02    0.838E-02
RMM:   5    -0.232704378511E+04    0.55481E-04   -0.20327E-04  3753   0.946E-03    0.700E-02
RMM:   6    -0.232704374822E+04    0.36886E-04   -0.13602E-04  3161   0.842E-03    0.507E-02
RMM:   7    -0.232704372253E+04    0.25693E-04   -0.59611E-05  3039   0.657E-03    0.200E-02
RMM:   8    -0.232704371825E+04    0.42791E-05   -0.15321E-05  2913   0.480E-03
 182 F= -.23484380E+04 E0= -.23484380E+04  d E =-.220604E-02  mag=     1.0000
       N       E                     dE             d eps       ncg     rms          rms(c)
DAV:   1    -0.232703561947E+04    0.81031E-02   -0.89046E-01  4544   0.690E-01    0.217E-01
RMM:   2    -0.232704341090E+04   -0.77914E-02   -0.84091E-02  6151   0.154E-01    0.119E-01
RMM:   3    -0.232704384305E+04   -0.43215E-03   -0.83960E-03  5719   0.571E-02    0.139E-01
RMM:   4    -0.232704372144E+04    0.12161E-03   -0.74975E-04  3499   0.125E-02    0.883E-02
RMM:   5    -0.232704365894E+04    0.62499E-04   -0.22643E-04  3925   0.987E-03    0.731E-02
RMM:   6    -0.232704361303E+04    0.45905E-04   -0.14540E-04  3218   0.849E-03    0.500E-02
RMM:   7    -0.232704358861E+04    0.24421E-04   -0.59701E-05  3043   0.654E-03    0.227E-02
RMM:   8    -0.232704358270E+04    0.59142E-05   -0.16867E-05  2916   0.483E-03
 183 F= -.23484382E+04 E0= -.23484382E+04  d E =-.245657E-02  mag=     1.0000
       N       E                     dE             d eps       ncg     rms          rms(c)
DAV:   1    -0.232704299743E+04    0.59118E-03   -0.97057E-02  4720   0.228E-01    0.700E-02
RMM:   2    -0.232704384262E+04   -0.84519E-03   -0.90117E-03  6302   0.511E-02    0.438E-02
RMM:   3    -0.232704390018E+04   -0.57555E-04   -0.93149E-04  3342   0.198E-02    0.594E-02
RMM:   4    -0.232704386860E+04    0.31581E-04   -0.83804E-05  2979   0.573E-03    0.272E-02
RMM:   5    -0.232704386136E+04    0.72369E-05   -0.23207E-05  2982   0.352E-03
 184 F= -.23484384E+04 E0= -.23484384E+04  d E =-.260764E-02  mag=     1.0000
       N       E                     dE             d eps       ncg     rms          rms(c)
DAV:   1    -0.232703430843E+04    0.95602E-02   -0.10538E+00  4528   0.778E-01    0.236E-01
RMM:   2    -0.232704481591E+04   -0.10507E-01   -0.11258E-01  6306   0.175E-01    0.133E-01
RMM:   3    -0.232704555617E+04   -0.74025E-03   -0.11377E-02  5854   0.659E-02    0.177E-01
RMM:   4    -0.232704531635E+04    0.23981E-03   -0.10411E-03  3605   0.146E-02    0.867E-02
RMM:   5    -0.232704522431E+04    0.92042E-04   -0.21245E-04  3721   0.910E-03    0.610E-02
RMM:   6    -0.232704521563E+04    0.86789E-05   -0.16069E-04  3527   0.847E-03    0.633E-02
RMM:   7    -0.232704517477E+04    0.40866E-04   -0.67726E-05  3033   0.671E-03    0.188E-02
RMM:   8    -0.232704517240E+04    0.23700E-05   -0.16585E-05  2925   0.430E-03
 185 F= -.23484401E+04 E0= -.23484401E+04  d E =-.171231E-02  mag=     1.0000
       N       E                     dE             d eps       ncg     rms          rms(c)
DAV:   1    -0.232704006428E+04    0.51105E-02   -0.49138E-01  4544   0.531E-01    0.162E-01
RMM:   2    -0.232704498953E+04   -0.49253E-02   -0.53014E-02  6212   0.119E-01    0.873E-02
RMM:   3    -0.232704525884E+04   -0.26930E-03   -0.51629E-03  5213   0.427E-02    0.981E-02
RMM:   4    -0.232704520844E+04    0.50395E-04   -0.46645E-04  3108   0.959E-03    0.643E-02
RMM:   5    -0.232704517142E+04    0.37020E-04   -0.10775E-04  3160   0.696E-03    0.516E-02
RMM:   6    -0.232704515416E+04    0.17265E-04   -0.70208E-05  2981   0.646E-03    0.371E-02
RMM:   7    -0.232704514035E+04    0.13801E-04   -0.32642E-05  2991   0.480E-03    0.105E-02
RMM:   8    -0.232704513896E+04    0.13939E-05   -0.68117E-06  2881   0.359E-03
 186 F= -.23484403E+04 E0= -.23484403E+04  d E =-.195492E-02  mag=     1.0000
       N       E                     dE             d eps       ncg     rms          rms(c)
DAV:   1    -0.232703891305E+04    0.62273E-02   -0.82398E-01  4528   0.709E-01    0.210E-01
RMM:   2    -0.232704633271E+04   -0.74197E-02   -0.79489E-02  6219   0.157E-01    0.119E-01
RMM:   3    -0.232704682086E+04   -0.48814E-03   -0.77893E-03  5566   0.588E-02    0.165E-01
RMM:   4    -0.232704658223E+04    0.23862E-03   -0.72694E-04  3489   0.130E-02    0.790E-02
RMM:   5    -0.232704656568E+04    0.16555E-04   -0.19801E-04  3550   0.935E-03    0.759E-02
RMM:   6    -0.232704649333E+04    0.72345E-04   -0.13329E-04  3530   0.863E-03    0.363E-02
RMM:   7    -0.232704648860E+04    0.47350E-05   -0.51541E-05  3006   0.629E-03
 187 F= -.23484419E+04 E0= -.23484419E+04  d E =-.160388E-02  mag=     1.0000
       N       E                     dE             d eps       ncg     rms          rms(c)
DAV:   1    -0.232704137158E+04    0.51218E-02   -0.55809E-01  4528   0.583E-01    0.175E-01
RMM:   2    -0.232704641075E+04   -0.50392E-02   -0.54090E-02  6369   0.130E-01    0.102E-01
RMM:   3    -0.232704675174E+04   -0.34099E-03   -0.53007E-03  5295   0.490E-02    0.141E-01
RMM:   4    -0.232704657239E+04    0.17935E-03   -0.50039E-04  3315   0.114E-02    0.651E-02
RMM:   5    -0.232704655742E+04    0.14969E-04   -0.12530E-04  3218   0.752E-03    0.649E-02
RMM:   6    -0.232704652164E+04    0.35782E-04   -0.90124E-05  3047   0.725E-03    0.406E-02
RMM:   7    -0.232704650462E+04    0.17014E-04   -0.41998E-05  3027   0.589E-03    0.113E-02
RMM:   8    -0.232704650352E+04    0.11037E-05   -0.80289E-06  2900   0.385E-03
 188 F= -.23484422E+04 E0= -.23484422E+04  d E =-.182975E-02  mag=     1.0000
       N       E                     dE             d eps       ncg     rms          rms(c)
DAV:   1    -0.232704241925E+04    0.40854E-02   -0.57233E-01  4528   0.577E-01    0.170E-01
RMM:   2    -0.232704741807E+04   -0.49988E-02   -0.53135E-02  6278   0.127E-01    0.112E-01
RMM:   3    -0.232704781550E+04   -0.39743E-03   -0.51356E-03  5091   0.454E-02    0.165E-01
RMM:   4    -0.232704753146E+04    0.28404E-03   -0.51229E-04  3322   0.115E-02    0.612E-02
RMM:   5    -0.232704753124E+04    0.21380E-06   -0.12161E-04  3119   0.705E-03    0.662E-02
RMM:   6    -0.232704748045E+04    0.50794E-04   -0.93533E-05  3108   0.698E-03    0.345E-02
RMM:   7    -0.232704747344E+04    0.70063E-05   -0.43194E-05  2975   0.584E-03
 189 F= -.23484434E+04 E0= -.23484434E+04  d E =-.120225E-02  mag=     1.0000
       N       E                     dE             d eps       ncg     rms          rms(c)
DAV:   1    -0.232702767771E+04    0.19803E-01   -0.22333E+00  4520   0.114E+00    0.337E-01
RMM:   2    -0.232704721489E+04   -0.19537E-01   -0.20774E-01  6399   0.253E-01    0.221E-01
RMM:   3    -0.232704885732E+04   -0.16424E-02   -0.20180E-02  5907   0.913E-02    0.332E-01
RMM:   4    -0.232704770578E+04    0.11515E-02   -0.20184E-03  5054   0.222E-02    0.119E-01
RMM:   5    -0.232704771169E+04   -0.59077E-05   -0.48223E-04  4501   0.121E-02    0.135E-01
RMM:   6    -0.232704751054E+04    0.20115E-03   -0.34548E-04  4759   0.113E-02    0.667E-02
RMM:   7    -0.232704747638E+04    0.34165E-04   -0.15244E-04  3193   0.861E-03    0.374E-02
RMM:   8    -0.232704746168E+04    0.14700E-04   -0.36665E-05  2949   0.561E-03    0.183E-02
RMM:   9    -0.232704745662E+04    0.50628E-05   -0.77357E-06  2897   0.299E-03
 190 F= -.23484438E+04 E0= -.23484438E+04  d E =-.164953E-02  mag=     1.0000
       N       E                     dE             d eps       ncg     rms          rms(c)
DAV:   1    -0.232704617559E+04    0.12861E-02   -0.17686E-01  4576   0.321E-01    0.929E-02
RMM:   2    -0.232704770979E+04   -0.15342E-02   -0.16269E-02  6329   0.704E-02    0.600E-02
RMM:   3    -0.232704782385E+04   -0.11405E-03   -0.15689E-03  3587   0.250E-02    0.886E-02
RMM:   4    -0.232704774464E+04    0.79201E-04   -0.15570E-04  3054   0.749E-03    0.335E-02
RMM:   5    -0.232704774341E+04    0.12375E-05   -0.36884E-05  2971   0.408E-03
 191 F= -.23484440E+04 E0= -.23484440E+04  d E =-.180510E-02  mag=     1.0000
       N       E                     dE             d eps       ncg     rms          rms(c)
DAV:   1    -0.232704305426E+04    0.46904E-02   -0.64904E-01  4528   0.621E-01    0.191E-01
RMM:   2    -0.232704888095E+04   -0.58267E-02   -0.61898E-02  6261   0.140E-01    0.128E-01
RMM:   3    -0.232704937108E+04   -0.49013E-03   -0.61683E-03  5469   0.514E-02    0.189E-01
RMM:   4    -0.232704900350E+04    0.36759E-03   -0.62458E-04  3546   0.127E-02    0.695E-02
RMM:   5    -0.232704898396E+04    0.19532E-04   -0.13633E-04  3181   0.766E-03    0.670E-02
RMM:   6    -0.232704893343E+04    0.50532E-04   -0.12286E-04  3284   0.809E-03    0.398E-02
RMM:   7    -0.232704892320E+04    0.10230E-04   -0.63040E-05  3029   0.661E-03    0.284E-02
RMM:   8    -0.232704891479E+04    0.84122E-05   -0.18036E-05  2937   0.449E-03
 192 F= -.23484454E+04 E0= -.23484454E+04  d E =-.147547E-02  mag=     1.0000
       N       E                     dE             d eps       ncg     rms          rms(c)
DAV:   1    -0.232704358069E+04    0.53425E-02   -0.59490E-01  4528   0.595E-01    0.183E-01
RMM:   2    -0.232704894049E+04   -0.53598E-02   -0.56927E-02  6183   0.134E-01    0.123E-01
RMM:   3    -0.232704933499E+04   -0.39450E-03   -0.55851E-03  5418   0.484E-02    0.164E-01
RMM:   4    -0.232704903803E+04    0.29696E-03   -0.55463E-04  3501   0.122E-02    0.656E-02
RMM:   5    -0.232704904849E+04   -0.10457E-04   -0.14151E-04  3152   0.767E-03    0.777E-02
RMM:   6    -0.232704898474E+04    0.63754E-04   -0.12061E-04  3405   0.782E-03    0.424E-02
RMM:   7    -0.232704897029E+04    0.14447E-04   -0.55823E-05  2984   0.641E-03    0.242E-02
RMM:   8    -0.232704896391E+04    0.63820E-05   -0.15231E-05  2945   0.389E-03
 193 F= -.23484458E+04 E0= -.23484458E+04  d E =-.181827E-02  mag=     1.0000
       N       E                     dE             d eps       ncg     rms          rms(c)
DAV:   1    -0.232704246222E+04    0.65081E-02   -0.82903E-01  4520   0.697E-01    0.207E-01
RMM:   2    -0.232704979522E+04   -0.73330E-02   -0.77976E-02  6294   0.155E-01    0.130E-01
RMM:   3    -0.232705028849E+04   -0.49328E-03   -0.80135E-03  5668   0.574E-02    0.156E-01
RMM:   4    -0.232705003409E+04    0.25440E-03   -0.72969E-04  3588   0.133E-02    0.741E-02
RMM:   5    -0.232705002495E+04    0.91404E-05   -0.16714E-04  3357   0.851E-03    0.756E-02
RMM:   6    -0.232704996440E+04    0.60550E-04   -0.15162E-04  3601   0.870E-03    0.465E-02
RMM:   7    -0.232704995763E+04    0.67677E-05   -0.66943E-05  2994   0.660E-03
 194 F= -.23484471E+04 E0= -.23484471E+04  d E =-.128083E-02  mag=     1.0000
       N       E                     dE             d eps       ncg     rms          rms(c)
DAV:   1    -0.232704426639E+04    0.56980E-02   -0.61642E-01  4528   0.602E-01    0.181E-01
RMM:   2    -0.232704974457E+04   -0.54782E-02   -0.58374E-02  6384   0.135E-01    0.113E-01
RMM:   3    -0.232705011489E+04   -0.37032E-03   -0.59724E-03  5463   0.506E-02    0.139E-01
RMM:   4    -0.232704991700E+04    0.19789E-03   -0.55309E-04  3367   0.119E-02    0.632E-02
RMM:   5    -0.232704989948E+04    0.17525E-04   -0.12254E-04  3219   0.744E-03    0.588E-02
RMM:   6    -0.232704985792E+04    0.41562E-04   -0.11996E-04  3197   0.800E-03    0.291E-02
RMM:   7    -0.232704985416E+04    0.37595E-05   -0.39848E-05  3026   0.587E-03
 195 F= -.23484472E+04 E0= -.23484472E+04  d E =-.142736E-02  mag=     1.0000
       N       E                     dE             d eps       ncg     rms          rms(c)
DAV:   1    -0.232704466997E+04    0.51880E-02   -0.70257E-01  4520   0.623E-01    0.182E-01
RMM:   2    -0.232705064888E+04   -0.59789E-02   -0.63797E-02  6433   0.137E-01    0.104E-01
RMM:   3    -0.232705102894E+04   -0.38006E-03   -0.64892E-03  5493   0.505E-02    0.125E-01
RMM:   4    -0.232705091214E+04    0.11680E-03   -0.58321E-04  3228   0.114E-02    0.708E-02
RMM:   5    -0.232705089398E+04    0.18155E-04   -0.12804E-04  3119   0.721E-03    0.682E-02
RMM:   6    -0.232705084684E+04    0.47143E-04   -0.10997E-04  3062   0.719E-03    0.373E-02
RMM:   7    -0.232705084378E+04    0.30583E-05   -0.58847E-05  2984   0.590E-03
 196 F= -.23484484E+04 E0= -.23484484E+04  d E =-.116910E-02  mag=     1.0000
       N       E                     dE             d eps       ncg     rms          rms(c)
DAV:   1    -0.232703405975E+04    0.16787E-01   -0.19424E+00  4520   0.104E+00    0.302E-01
RMM:   2    -0.232705060216E+04   -0.16542E-01   -0.17640E-01  6387   0.227E-01    0.173E-01
RMM:   3    -0.232705159605E+04   -0.99389E-03   -0.18130E-02  5868   0.846E-02    0.187E-01
RMM:   4    -0.232705135651E+04    0.23954E-03   -0.16026E-03  4150   0.183E-02    0.123E-01
RMM:   5    -0.232705129506E+04    0.61448E-04   -0.30076E-04  3893   0.106E-02    0.109E-01
RMM:   6    -0.232705117541E+04    0.11965E-03   -0.29962E-04  4219   0.107E-02    0.691E-02
RMM:   7    -0.232705116251E+04    0.12898E-04   -0.16310E-04  3145   0.847E-03    0.594E-02
RMM:   8    -0.232705112450E+04    0.38019E-04   -0.43564E-05  2987   0.579E-03    0.153E-02
RMM:   9    -0.232705112131E+04    0.31905E-05   -0.76495E-06  2918   0.296E-03
 197 F= -.23484490E+04 E0= -.23484490E+04  d E =-.174906E-02  mag=     1.0000
       N       E                     dE             d eps       ncg     rms          rms(c)
DAV:   1    -0.232704481078E+04    0.63137E-02   -0.89891E-01  4520   0.708E-01    0.206E-01
RMM:   2    -0.232705235995E+04   -0.75492E-02   -0.80545E-02  6198   0.153E-01    0.118E-01
RMM:   3    -0.232705273465E+04   -0.37471E-03   -0.79224E-03  5631   0.568E-02    0.126E-01
RMM:   4    -0.232705264610E+04    0.88555E-04   -0.69974E-04  3309   0.119E-02    0.895E-02
RMM:   5    -0.232705260805E+04    0.38052E-04   -0.15339E-04  3252   0.818E-03    0.751E-02
RMM:   6    -0.232705254183E+04    0.66217E-04   -0.15521E-04  3440   0.860E-03    0.378E-02
RMM:   7    -0.232705253814E+04    0.36934E-05   -0.63703E-05  3048   0.655E-03
 198 F= -.23484506E+04 E0= -.23484506E+04  d E =-.164727E-02  mag=     1.0000
       N       E                     dE             d eps       ncg     rms          rms(c)
DAV:   1    -0.232703566285E+04    0.16879E-01   -0.19894E+00  4520   0.105E+00    0.310E-01
RMM:   2    -0.232705240523E+04   -0.16742E-01   -0.17878E-01  6247   0.229E-01    0.182E-01
RMM:   3    -0.232705336647E+04   -0.96124E-03   -0.17916E-02  5942   0.869E-02    0.213E-01
RMM:   4    -0.232705303985E+04    0.32662E-03   -0.15684E-03  4377   0.180E-02    0.128E-01
RMM:   5    -0.232705296799E+04    0.71859E-04   -0.36262E-04  4118   0.112E-02    0.112E-01
RMM:   6    -0.232705283876E+04    0.12923E-03   -0.33423E-04  4565   0.112E-02    0.680E-02
RMM:   7    -0.232705281637E+04    0.22389E-04   -0.16017E-04  3210   0.868E-03    0.524E-02
RMM:   8    -0.232705278458E+04    0.31796E-04   -0.43477E-05  2957   0.578E-03    0.157E-02
RMM:   9    -0.232705278011E+04    0.44684E-05   -0.73433E-06  2903   0.306E-03
 199 F= -.23484512E+04 E0= -.23484512E+04  d E =-.223661E-02  mag=     1.0000
       N       E                     dE             d eps       ncg     rms          rms(c)
DAV:   1    -0.232704229532E+04    0.10489E-01   -0.13562E+00  4520   0.859E-01    0.247E-01
RMM:   2    -0.232705368614E+04   -0.11391E-01   -0.12049E-01  6296   0.185E-01    0.163E-01
RMM:   3    -0.232705436975E+04   -0.68361E-03   -0.11814E-02  5864   0.671E-02    0.211E-01
RMM:   4    -0.232705397419E+04    0.39556E-03   -0.10716E-03  3674   0.149E-02    0.991E-02
RMM:   5    -0.232705394214E+04    0.32047E-04   -0.24377E-04  3388   0.924E-03    0.935E-02
RMM:   6    -0.232705384527E+04    0.96871E-04   -0.23695E-04  3935   0.981E-03    0.515E-02
RMM:   7    -0.232705383708E+04    0.81925E-05   -0.10119E-04  3052   0.734E-03    0.420E-02
RMM:   8    -0.232705381757E+04    0.19511E-04   -0.28140E-05  2946   0.480E-03    0.122E-02
RMM:   9    -0.232705381534E+04    0.22286E-05   -0.46310E-06  2887   0.254E-03
 200 F= -.23484526E+04 E0= -.23484526E+04  d E =-.136669E-02  mag=     1.0000
       N       E                     dE             d eps       ncg     rms          rms(c)
DAV:   1    -0.232704435712E+04    0.94605E-02   -0.11228E+00  4520   0.782E-01    0.225E-01
RMM:   2    -0.232705378450E+04   -0.94274E-02   -0.99732E-02  6264   0.169E-01    0.147E-01
RMM:   3    -0.232705434247E+04   -0.55798E-03   -0.97560E-03  5793   0.615E-02    0.190E-01
RMM:   4    -0.232705402581E+04    0.31667E-03   -0.88471E-04  3458   0.136E-02    0.902E-02
RMM:   5    -0.232705400022E+04    0.25590E-04   -0.19866E-04  3273   0.861E-03    0.855E-02
RMM:   6    -0.232705391991E+04    0.80304E-04   -0.19828E-04  3676   0.906E-03    0.472E-02
RMM:   7    -0.232705391212E+04    0.77968E-05   -0.84706E-05  3025   0.693E-03
 201 F= -.23484530E+04 E0= -.23484530E+04  d E =-.176836E-02  mag=     1.0000
