       N       E                     dE             d eps       ncg     rms          rms(c)
DAV:   1     0.131536121064E+05    0.13154E+05   -0.84203E+05  4520   0.144E+03
DAV:   2    -0.999629162814E+03   -0.14153E+05   -0.13524E+05  4936   0.332E+02
DAV:   3    -0.247303571492E+04   -0.14734E+04   -0.14551E+04  5536   0.115E+02
DAV:   4    -0.251979672470E+04   -0.46761E+02   -0.46515E+02  6696   0.300E+01
DAV:   5    -0.252066428318E+04   -0.86756E+00   -0.86589E+00  6384   0.357E+00    0.170E+02
RMM:   6    -0.148657514019E+04    0.10341E+04   -0.19572E+03  4462   0.383E+01    0.725E+01
RMM:   7    -0.166790605434E+04   -0.18133E+03   -0.29576E+02  5211   0.147E+01    0.555E+01
RMM:   8    -0.170564366981E+04   -0.37738E+02   -0.83062E+01  5230   0.827E+00    0.447E+01
RMM:   9    -0.177699729380E+04   -0.71354E+02   -0.54878E+01  5056   0.736E+00    0.379E+01
RMM:  10    -0.186987726348E+04   -0.92880E+02   -0.53344E+01  5152   0.701E+00    0.326E+01
RMM:  11    -0.196078845840E+04   -0.90911E+02   -0.39599E+01  5168   0.569E+00    0.250E+01
RMM:  12    -0.202412608630E+04   -0.63338E+02   -0.24320E+01  5129   0.435E+00    0.195E+01
RMM:  13    -0.210490365203E+04   -0.80778E+02   -0.35883E+01  4841   0.464E+00    0.156E+01
RMM:  14    -0.219074846169E+04   -0.85845E+02   -0.51749E+01  4656   0.547E+00    0.101E+01
RMM:  15    -0.227411823308E+04   -0.83370E+02   -0.72836E+01  4680   0.606E+00    0.670E+00
RMM:  16    -0.230418294582E+04   -0.30065E+02   -0.31554E+01  4631   0.416E+00    0.382E+00
RMM:  17    -0.231071835350E+04   -0.65354E+01   -0.80474E+00  5105   0.211E+00    0.253E+00
RMM:  18    -0.231264379833E+04   -0.19254E+01   -0.16962E+00  5133   0.923E-01    0.203E+00
RMM:  19    -0.231331974102E+04   -0.67594E+00   -0.27151E-01  5227   0.406E-01    0.304E+00
RMM:  20    -0.231344965198E+04   -0.12991E+00   -0.87789E-02  5190   0.224E-01    0.209E+00
RMM:  21    -0.231366774571E+04   -0.21809E+00   -0.15351E-01  4548   0.273E-01    0.166E+00
RMM:  22    -0.231380943088E+04   -0.14169E+00   -0.63147E-02  4639   0.180E-01    0.207E+00
RMM:  23    -0.231373482154E+04    0.74609E-01   -0.37843E-02  5014   0.124E-01    0.317E+00
RMM:  24    -0.231399564490E+04   -0.26082E+00   -0.64520E-02  4620   0.140E-01    0.155E+00
RMM:  25    -0.231412441820E+04   -0.12877E+00   -0.33149E-02  4467   0.150E-01    0.139E+00
RMM:  26    -0.231423393204E+04   -0.10951E+00   -0.49619E-02  4653   0.147E-01    0.294E+00
RMM:  27    -0.231427114946E+04   -0.37217E-01   -0.14771E-02  4858   0.836E-02    0.335E+00
RMM:  28    -0.231429762466E+04   -0.26475E-01   -0.76845E-03  5404   0.405E-02    0.333E+00
RMM:  29    -0.231430128550E+04   -0.36608E-02   -0.50098E-04  4193   0.169E-02    0.333E+00
RMM:  30    -0.231429888163E+04    0.24039E-02   -0.60352E-05  3192   0.472E-03    0.334E+00
RMM:  31    -0.231432257900E+04   -0.23697E-01   -0.24191E-03  4600   0.225E-02    0.316E+00
RMM:  32    -0.231440299888E+04   -0.80420E-01   -0.47119E-02  4972   0.943E-02    0.170E+00
RMM:  33    -0.231441145488E+04   -0.84560E-02   -0.41409E-03  4472   0.420E-02    0.156E+00
RMM:  34    -0.231443676324E+04   -0.25308E-01   -0.82408E-03  4526   0.497E-02    0.148E+00
RMM:  35    -0.231447323564E+04   -0.36472E-01   -0.34557E-02  4757   0.910E-02    0.299E-01
RMM:  36    -0.231448271927E+04   -0.94836E-02   -0.78301E-03  4621   0.582E-02    0.182E-01
RMM:  37    -0.231448593769E+04   -0.32184E-02   -0.24904E-03  4747   0.296E-02    0.211E-01
RMM:  38    -0.231448880575E+04   -0.28681E-02   -0.87795E-04  4206   0.185E-02    0.220E-01
RMM:  39    -0.231449150237E+04   -0.26966E-02   -0.88924E-04  4193   0.178E-02    0.102E-01
RMM:  40    -0.231449203121E+04   -0.52885E-03   -0.16840E-04  3888   0.112E-02    0.595E-02
RMM:  41    -0.231449259731E+04   -0.56609E-03   -0.13093E-04  3701   0.712E-03    0.796E-02
RMM:  42    -0.231449304050E+04   -0.44320E-03   -0.14307E-04  3790   0.793E-03    0.260E-02
RMM:  43    -0.231449315672E+04   -0.11622E-03   -0.49976E-05  3150   0.555E-03    0.237E-02
RMM:  44    -0.231449324071E+04   -0.83992E-04   -0.37856E-05  3100   0.464E-03    0.195E-02
RMM:  45    -0.231449326908E+04   -0.28371E-04   -0.76613E-06  2806   0.333E-03    0.156E-02
RMM:  46    -0.231449328436E+04   -0.15280E-04   -0.63241E-06  2554   0.243E-03    0.519E-03
RMM:  47    -0.231449329023E+04   -0.58645E-05   -0.31401E-06  2493   0.211E-03
   1 F= -.23357707E+04 E0= -.23357707E+04  d E =-.233577E+04  mag=     2.0015
       N       E                     dE             d eps       ncg     rms          rms(c)
DAV:   1    -0.231448381918E+04    0.94652E-02   -0.47141E+00  4960   0.180E+00    0.611E-01
RMM:   2    -0.231459232088E+04   -0.10850E+00   -0.11257E+00  6415   0.498E-01    0.547E-01
RMM:   3    -0.231460472401E+04   -0.12403E-01   -0.14071E-01  5913   0.235E-01    0.660E-01
RMM:   4    -0.231460146666E+04    0.32574E-02   -0.11341E-02  5867   0.428E-02    0.282E-01
RMM:   5    -0.231460100309E+04    0.46357E-03   -0.15830E-03  5205   0.192E-02    0.253E-01
RMM:   6    -0.231460014672E+04    0.85637E-03   -0.24102E-03  5660   0.254E-02    0.108E-01
RMM:   7    -0.231460017852E+04   -0.31803E-04   -0.58900E-04  4700   0.141E-02    0.113E-01
RMM:   8    -0.231460002626E+04    0.15226E-03   -0.13228E-04  3024   0.732E-03    0.348E-02
RMM:   9    -0.231460000636E+04    0.19904E-04   -0.28689E-05  2958   0.430E-03    0.187E-02
RMM:  10    -0.231460000127E+04    0.50903E-05   -0.18325E-05  2920   0.358E-03
   2 F= -.23358771E+04 E0= -.23358771E+04  d E =-.106458E+00  mag=     2.0004
       N       E                     dE             d eps       ncg     rms          rms(c)
DAV:   1    -0.231452801927E+04    0.71987E-01   -0.42567E+00  4672   0.172E+00    0.582E-01
RMM:   2    -0.231462849782E+04   -0.10048E+00   -0.10355E+00  6343   0.484E-01    0.585E-01
RMM:   3    -0.231464060067E+04   -0.12103E-01   -0.13437E-01  5729   0.252E-01    0.674E-01
RMM:   4    -0.231463670872E+04    0.38920E-02   -0.10446E-02  5772   0.427E-02    0.262E-01
RMM:   5    -0.231463644599E+04    0.26273E-03   -0.16120E-03  5216   0.194E-02    0.264E-01
RMM:   6    -0.231463570811E+04    0.73788E-03   -0.19271E-03  5479   0.224E-02    0.154E-01
RMM:   7    -0.231463567765E+04    0.30458E-04   -0.92969E-04  4796   0.163E-02    0.132E-01
RMM:   8    -0.231463544013E+04    0.23752E-03   -0.15628E-04  3222   0.800E-03    0.311E-02
RMM:   9    -0.231463542436E+04    0.15766E-04   -0.27557E-05  2953   0.472E-03    0.167E-02
RMM:  10    -0.231463542018E+04    0.41815E-05   -0.17620E-05  2925   0.375E-03
   3 F= -.23359126E+04 E0= -.23359126E+04  d E =-.141915E+00  mag=     2.0001
       N       E                     dE             d eps       ncg     rms          rms(c)
DAV:   1    -0.231463800249E+04   -0.25781E-02   -0.21245E+00  4672   0.153E+00    0.545E-01
RMM:   2    -0.231465273055E+04   -0.14728E-01   -0.16539E-01  5944   0.321E-01    0.366E-01
RMM:   3    -0.231465641962E+04   -0.36891E-02   -0.17245E-02  5871   0.123E-01    0.685E-01
RMM:   4    -0.231465139497E+04    0.50246E-02   -0.30352E-03  5800   0.384E-02    0.130E-01
RMM:   5    -0.231465131339E+04    0.81579E-04   -0.13990E-03  5087   0.282E-02    0.150E-01
RMM:   6    -0.231465105945E+04    0.25395E-03   -0.53754E-04  4730   0.166E-02    0.705E-02
RMM:   7    -0.231465099480E+04    0.64651E-04   -0.10486E-04  3703   0.707E-03    0.332E-02
RMM:   8    -0.231465098105E+04    0.13746E-04   -0.38719E-05  2954   0.563E-03    0.235E-02
RMM:   9    -0.231465096783E+04    0.13220E-04   -0.17767E-05  2902   0.389E-03    0.830E-03
RMM:  10    -0.231465096415E+04    0.36850E-05   -0.10581E-05  2885   0.374E-03
   4 F= -.23359284E+04 E0= -.23359284E+04  d E =-.158598E-01  mag=     2.0000
       N       E                     dE             d eps       ncg     rms          rms(c)
DAV:   1    -0.231465096644E+04    0.13881E-05   -0.16308E-04  4664   0.141E-02    0.591E-03
RMM:   2    -0.231465096830E+04   -0.18573E-05   -0.14967E-05  2966   0.366E-03
   5 F= -.23359284E+04 E0= -.23359284E+04  d E =-.158611E-01  mag=     2.0000
       N       E                     dE             d eps       ncg     rms          rms(c)
DAV:   1    -0.231462378325E+04    0.27183E-01   -0.25808E+00  4576   0.155E+00    0.464E-01
RMM:   2    -0.231466613966E+04   -0.42356E-01   -0.45313E-01  6433   0.372E-01    0.276E-01
RMM:   3    -0.231467035517E+04   -0.42155E-02   -0.43443E-02  6029   0.124E-01    0.402E-01
RMM:   4    -0.231466883752E+04    0.15176E-02   -0.42688E-03  5458   0.305E-02    0.173E-01
RMM:   5    -0.231466889311E+04   -0.55588E-04   -0.82285E-04  4602   0.144E-02    0.197E-01
RMM:   6    -0.231466846489E+04    0.42822E-03   -0.62639E-04  4900   0.153E-02    0.636E-02
RMM:   7    -0.231466848122E+04   -0.16332E-04   -0.21714E-04  4037   0.982E-03    0.646E-02
RMM:   8    -0.231466842076E+04    0.60463E-04   -0.80200E-05  3006   0.660E-03    0.176E-02
RMM:   9    -0.231466841683E+04    0.39340E-05   -0.11589E-05  2907   0.391E-03
   6 F= -.23359462E+04 E0= -.23359462E+04  d E =-.177596E-01  mag=     2.0000
       N       E                     dE             d eps       ncg     rms          rms(c)
DAV:   1    -0.231449499959E+04    0.17342E+00   -0.10649E+01  4544   0.315E+00    0.946E-01
RMM:   2    -0.231466906056E+04   -0.17406E+00   -0.18570E+00  6405   0.748E-01    0.593E-01
RMM:   3    -0.231468688948E+04   -0.17829E-01   -0.18793E-01  6110   0.259E-01    0.825E-01
RMM:   4    -0.231468020349E+04    0.66860E-02   -0.17699E-02  6197   0.629E-02    0.361E-01
RMM:   5    -0.231468042946E+04   -0.22597E-03   -0.33060E-03  5320   0.272E-02    0.408E-01
RMM:   6    -0.231467858865E+04    0.18408E-02   -0.23484E-03  5585   0.283E-02    0.124E-01
RMM:   7    -0.231467848290E+04    0.10575E-03   -0.78566E-04  5058   0.180E-02    0.751E-02
RMM:   8    -0.231467843725E+04    0.45648E-04   -0.22509E-04  3512   0.107E-02    0.537E-02
RMM:   9    -0.231467839747E+04    0.39782E-04   -0.42214E-05  2957   0.580E-03    0.205E-02
RMM:  10    -0.231467839378E+04    0.36826E-05   -0.31876E-05  2938   0.462E-03
   7 F= -.23359568E+04 E0= -.23359568E+04  d E =-.284016E-01  mag=     2.0000
       N       E                     dE             d eps       ncg     rms          rms(c)
DAV:   1    -0.231466837057E+04    0.10027E-01   -0.97500E-01  4608   0.935E-01    0.280E-01
RMM:   2    -0.231468593968E+04   -0.17569E-01   -0.18819E-01  6472   0.232E-01    0.148E-01
RMM:   3    -0.231468727043E+04   -0.13308E-02   -0.18074E-02  5789   0.750E-02    0.141E-01
RMM:   4    -0.231468719809E+04    0.72345E-04   -0.16376E-03  3742   0.173E-02    0.106E-01
RMM:   5    -0.231468716249E+04    0.35600E-04   -0.25428E-04  3504   0.992E-03    0.108E-01
RMM:   6    -0.231468706067E+04    0.10182E-03   -0.18427E-04  3424   0.865E-03    0.475E-02
RMM:   7    -0.231468706694E+04   -0.62719E-05   -0.64503E-05  3107   0.660E-03
   8 F= -.23359657E+04 E0= -.23359657E+04  d E =-.888067E-02  mag=     2.0000
       N       E                     dE             d eps       ncg     rms          rms(c)
DAV:   1    -0.231453080609E+04    0.15625E+00   -0.87691E+00  4520   0.281E+00    0.850E-01
RMM:   2    -0.231468905221E+04   -0.15825E+00   -0.16915E+00  6468   0.691E-01    0.481E-01
RMM:   3    -0.231470218897E+04   -0.13137E-01   -0.16934E-01  6002   0.231E-01    0.509E-01
RMM:   4    -0.231470008064E+04    0.21083E-02   -0.14835E-02  5883   0.523E-02    0.307E-01
RMM:   5    -0.231469903240E+04    0.10482E-02   -0.21541E-03  5024   0.272E-02    0.145E-01
RMM:   6    -0.231469923009E+04   -0.19770E-03   -0.12826E-03  5346   0.212E-02    0.174E-01
RMM:   7    -0.231469885923E+04    0.37087E-03   -0.63482E-04  4803   0.148E-02    0.784E-02
RMM:   8    -0.231469883435E+04    0.24879E-04   -0.15091E-04  3079   0.740E-03    0.661E-02
RMM:   9    -0.231469879206E+04    0.42287E-04   -0.44969E-05  2925   0.522E-03    0.225E-02
RMM:  10    -0.231469879150E+04    0.56022E-06   -0.28741E-05  2910   0.366E-03
   9 F= -.23359781E+04 E0= -.23359781E+04  d E =-.212645E-01  mag=     2.0000
       N       E                     dE             d eps       ncg     rms          rms(c)
DAV:   1    -0.231470207332E+04   -0.32813E-02   -0.17470E-01  4832   0.438E-01    0.171E-01
RMM:   2    -0.231470452322E+04   -0.24499E-02   -0.25718E-02  6131   0.101E-01    0.136E-01
RMM:   3    -0.231470488753E+04   -0.36431E-03   -0.29959E-03  5550   0.417E-02    0.193E-01
RMM:   4    -0.231470451572E+04    0.37181E-03   -0.32969E-04  3827   0.120E-02    0.500E-02
RMM:   5    -0.231470452019E+04   -0.44677E-05   -0.13449E-04  3150   0.872E-03    0.535E-02
RMM:   6    -0.231470447959E+04    0.40599E-04   -0.76990E-05  3514   0.735E-03    0.167E-02
RMM:   7    -0.231470448380E+04   -0.42132E-05   -0.23082E-05  2920   0.555E-03
  10 F= -.23359840E+04 E0= -.23359840E+04  d E =-.589590E-02  mag=     2.0000
       N       E                     dE             d eps       ncg     rms          rms(c)
DAV:   1    -0.231469730391E+04    0.71757E-02   -0.83934E-01  4544   0.960E-01    0.377E-01
RMM:   2    -0.231470903101E+04   -0.11727E-01   -0.12376E-01  6103   0.221E-01    0.291E-01
RMM:   3    -0.231471084235E+04   -0.18113E-02   -0.14382E-02  5965   0.922E-02    0.425E-01
RMM:   4    -0.231470904093E+04    0.18014E-02   -0.16100E-03  5517   0.256E-02    0.109E-01
RMM:   5    -0.231470905818E+04   -0.17256E-04   -0.64872E-04  4887   0.168E-02    0.117E-01
RMM:   6    -0.231470885694E+04    0.20124E-03   -0.34339E-04  4917   0.123E-02    0.349E-02
RMM:   7    -0.231470886262E+04   -0.56798E-05   -0.77504E-05  3072   0.823E-03
  11 F= -.23359888E+04 E0= -.23359888E+04  d E =-.107194E-01  mag=     2.0000
       N       E                     dE             d eps       ncg     rms          rms(c)
DAV:   1    -0.231470809671E+04    0.76024E-03   -0.27713E-01  4704   0.503E-01    0.168E-01
RMM:   2    -0.231471302387E+04   -0.49272E-02   -0.52159E-02  6330   0.120E-01    0.135E-01
RMM:   3    -0.231471362337E+04   -0.59951E-03   -0.56380E-03  5402   0.463E-02    0.181E-01
RMM:   4    -0.231471331551E+04    0.30787E-03   -0.55977E-04  3330   0.118E-02    0.545E-02
RMM:   5    -0.231471330353E+04    0.11980E-04   -0.91602E-05  3006   0.663E-03    0.508E-02
RMM:   6    -0.231471327724E+04    0.26290E-04   -0.75277E-05  2996   0.620E-03    0.283E-02
RMM:   7    -0.231471328109E+04   -0.38520E-05   -0.38320E-05  3006   0.553E-03
  12 F= -.23359936E+04 E0= -.23359936E+04  d E =-.476040E-02  mag=     2.0000
       N       E                     dE             d eps       ncg     rms          rms(c)
DAV:   1    -0.231467336505E+04    0.39912E-01   -0.24917E+00  4512   0.151E+00    0.507E-01
RMM:   2    -0.231471830128E+04   -0.44936E-01   -0.46971E-01  6385   0.357E-01    0.457E-01
RMM:   3    -0.231472308114E+04   -0.47799E-02   -0.50547E-02  6137   0.137E-01    0.539E-01
RMM:   4    -0.231472033669E+04    0.27444E-02   -0.50262E-03  5788   0.342E-02    0.170E-01
RMM:   5    -0.231472022182E+04    0.11487E-03   -0.86237E-04  4540   0.158E-02    0.154E-01
RMM:   6    -0.231471997096E+04    0.25086E-03   -0.61350E-04  4858   0.144E-02    0.905E-02
RMM:   7    -0.231471997619E+04   -0.52231E-05   -0.34316E-04  4137   0.118E-02    0.846E-02
RMM:   8    -0.231471987275E+04    0.10343E-03   -0.11867E-04  3370   0.752E-03    0.189E-02
RMM:   9    -0.231471986751E+04    0.52439E-05   -0.14291E-05  2937   0.458E-03
  13 F= -.23360012E+04 E0= -.23360012E+04  d E =-.123653E-01  mag=     2.0000
       N       E                     dE             d eps       ncg     rms          rms(c)
DAV:   1    -0.231471611044E+04    0.37623E-02   -0.45942E-01  4560   0.633E-01    0.208E-01
RMM:   2    -0.231472576842E+04   -0.96580E-02   -0.10114E-01  6459   0.165E-01    0.177E-01
RMM:   3    -0.231472661847E+04   -0.85005E-03   -0.10575E-02  5664   0.600E-02    0.184E-01
RMM:   4    -0.231472626530E+04    0.35316E-03   -0.95406E-04  3511   0.141E-02    0.785E-02
RMM:   5    -0.231472625405E+04    0.11250E-04   -0.14807E-04  3048   0.755E-03    0.753E-02
RMM:   6    -0.231472619331E+04    0.60740E-04   -0.11177E-04  3180   0.697E-03    0.442E-02
RMM:   7    -0.231472618830E+04    0.50083E-05   -0.86327E-05  3045   0.685E-03
  14 F= -.23360080E+04 E0= -.23360080E+04  d E =-.685394E-02  mag=     2.0000
       N       E                     dE             d eps       ncg     rms          rms(c)
DAV:   1    -0.231464542150E+04    0.80772E-01   -0.41211E+00  4504   0.190E+00    0.621E-01
RMM:   2    -0.231473157618E+04   -0.86155E-01   -0.90549E-01  6519   0.491E-01    0.512E-01
RMM:   3    -0.231473983843E+04   -0.82623E-02   -0.96819E-02  6155   0.180E-01    0.544E-01
RMM:   4    -0.231473670890E+04    0.31295E-02   -0.85131E-03  5884   0.413E-02    0.230E-01
RMM:   5    -0.231473665973E+04    0.49163E-04   -0.13725E-03  4859   0.186E-02    0.230E-01
RMM:   6    -0.231473609503E+04    0.56470E-03   -0.90510E-04  5184   0.167E-02    0.134E-01
RMM:   7    -0.231473604483E+04    0.50198E-04   -0.73659E-04  4817   0.154E-02    0.101E-01
RMM:   8    -0.231473590423E+04    0.14060E-03   -0.19968E-04  3851   0.933E-03    0.258E-02
RMM:   9    -0.231473589396E+04    0.10279E-04   -0.20564E-05  2950   0.499E-03    0.151E-02
RMM:  10    -0.231473588980E+04    0.41528E-05   -0.17362E-05  2904   0.350E-03
  15 F= -.23360194E+04 E0= -.23360194E+04  d E =-.181630E-01  mag=     2.0000
       N       E                     dE             d eps       ncg     rms          rms(c)
DAV:   1    -0.231472839305E+04    0.75009E-02   -0.35306E-01  4720   0.555E-01    0.181E-01
RMM:   2    -0.231473579102E+04   -0.73980E-02   -0.77394E-02  6489   0.144E-01    0.156E-01
RMM:   3    -0.231473643600E+04   -0.64497E-03   -0.81909E-03  5362   0.521E-02    0.160E-01
RMM:   4    -0.231473616433E+04    0.27166E-03   -0.73339E-04  3343   0.125E-02    0.688E-02
RMM:   5    -0.231473615568E+04    0.86509E-05   -0.11481E-04  3026   0.683E-03    0.663E-02
RMM:   6    -0.231473610884E+04    0.46844E-04   -0.86487E-05  3083   0.626E-03    0.396E-02
RMM:   7    -0.231473610369E+04    0.51465E-05   -0.67930E-05  2977   0.622E-03
  16 F= -.23360200E+04 E0= -.23360200E+04  d E =-.188486E-01  mag=     2.0000
       N       E                     dE             d eps       ncg     rms          rms(c)
DAV:   1    -0.231472011722E+04    0.15992E-01   -0.96547E-01  4512   0.906E-01    0.305E-01
RMM:   2    -0.231474002549E+04   -0.19908E-01   -0.20774E-01  6498   0.235E-01    0.252E-01
RMM:   3    -0.231474182079E+04   -0.17953E-02   -0.22156E-02  5913   0.870E-02    0.262E-01
RMM:   4    -0.231474106352E+04    0.75727E-03   -0.19760E-03  4226   0.200E-02    0.109E-01
RMM:   5    -0.231474103746E+04    0.26061E-04   -0.30706E-04  3207   0.977E-03    0.106E-01
RMM:   6    -0.231474091776E+04    0.11971E-03   -0.21495E-04  3778   0.892E-03    0.662E-02
RMM:   7    -0.231474089618E+04    0.21578E-04   -0.16632E-04  3261   0.833E-03    0.462E-02
RMM:   8    -0.231474086828E+04    0.27901E-04   -0.46922E-05  3013   0.597E-03    0.111E-02
RMM:   9    -0.231474086662E+04    0.16567E-05   -0.66764E-06  2884   0.384E-03
  17 F= -.23360255E+04 E0= -.23360255E+04  d E =-.542140E-02  mag=     2.0000
       N       E                     dE             d eps       ncg     rms          rms(c)
DAV:   1    -0.231466647616E+04    0.74392E-01   -0.36033E+00  4496   0.175E+00    0.588E-01
RMM:   2    -0.231474112262E+04   -0.74646E-01   -0.77430E-01  6467   0.447E-01    0.522E-01
RMM:   3    -0.231474755802E+04   -0.64354E-02   -0.83122E-02  6122   0.167E-01    0.525E-01
RMM:   4    -0.231474461126E+04    0.29468E-02   -0.73706E-03  5863   0.380E-02    0.219E-01
RMM:   5    -0.231474446162E+04    0.14964E-03   -0.11621E-03  4349   0.164E-02    0.201E-01
RMM:   6    -0.231474400981E+04    0.45181E-03   -0.80968E-04  5109   0.154E-02    0.124E-01
RMM:   7    -0.231474393289E+04    0.76915E-04   -0.60576E-04  4626   0.137E-02    0.886E-02
RMM:   8    -0.231474382485E+04    0.10805E-03   -0.17255E-04  3851   0.857E-03    0.208E-02
RMM:   9    -0.231474381710E+04    0.77461E-05   -0.16238E-05  2941   0.494E-03
  18 F= -.23360297E+04 E0= -.23360297E+04  d E =-.965029E-02  mag=     2.0000
       N       E                     dE             d eps       ncg     rms          rms(c)
DAV:   1    -0.231472360446E+04    0.20220E-01   -0.12030E+00  4544   0.939E-01    0.338E-01
RMM:   2    -0.231474923698E+04   -0.25633E-01   -0.26277E-01  6517   0.254E-01    0.346E-01
RMM:   3    -0.231475085218E+04   -0.16152E-02   -0.26268E-02  6017   0.891E-02    0.307E-01
RMM:   4    -0.231474997586E+04    0.87632E-03   -0.25319E-03  4805   0.220E-02    0.140E-01
RMM:   5    -0.231474986327E+04    0.11259E-03   -0.37005E-04  3174   0.990E-03    0.111E-01
RMM:   6    -0.231474974859E+04    0.11468E-03   -0.31443E-04  4029   0.104E-02    0.793E-02
RMM:   7    -0.231474970486E+04    0.43731E-04   -0.20494E-04  3321   0.884E-03    0.504E-02
RMM:   8    -0.231474967082E+04    0.34034E-04   -0.57188E-05  3009   0.615E-03    0.123E-02
RMM:   9    -0.231474966861E+04    0.22104E-05   -0.74286E-06  2889   0.380E-03
  19 F= -.23360363E+04 E0= -.23360363E+04  d E =-.663162E-02  mag=     2.0000
       N       E                     dE             d eps       ncg     rms          rms(c)
DAV:   1    -0.231465888717E+04    0.90784E-01   -0.43542E+00  4496   0.178E+00    0.642E-01
RMM:   2    -0.231475139005E+04   -0.92503E-01   -0.94788E-01  6518   0.480E-01    0.664E-01
RMM:   3    -0.231475755317E+04   -0.61631E-02   -0.98619E-02  6224   0.173E-01    0.587E-01
RMM:   4    -0.231475433790E+04    0.32153E-02   -0.91517E-03  5808   0.417E-02    0.264E-01
RMM:   5    -0.231475395843E+04    0.37947E-03   -0.13576E-03  4350   0.176E-02    0.212E-01
RMM:   6    -0.231475351187E+04    0.44657E-03   -0.11008E-03  5206   0.180E-02    0.145E-01
RMM:   7    -0.231475339458E+04    0.11729E-03   -0.74075E-04  4687   0.148E-02    0.103E-01
RMM:   8    -0.231475324678E+04    0.14780E-03   -0.21925E-04  3755   0.924E-03    0.234E-02
RMM:   9    -0.231475323614E+04    0.10641E-04   -0.21309E-05  2932   0.520E-03    0.147E-02
RMM:  10    -0.231475323217E+04    0.39705E-05   -0.21118E-05  2903   0.355E-03
  20 F= -.23360414E+04 E0= -.23360414E+04  d E =-.116928E-01  mag=     2.0000
       N       E                     dE             d eps       ncg     rms          rms(c)
DAV:   1    -0.231472313809E+04    0.30098E-01   -0.18354E+00  4496   0.114E+00    0.421E-01
RMM:   2    -0.231476008214E+04   -0.36944E-01   -0.38029E-01  6537   0.311E-01    0.394E-01
RMM:   3    -0.231476259192E+04   -0.25098E-02   -0.36756E-02  6085   0.106E-01    0.383E-01
RMM:   4    -0.231476126768E+04    0.13242E-02   -0.35938E-03  5184   0.264E-02    0.172E-01
RMM:   5    -0.231476110327E+04    0.16440E-03   -0.61054E-04  3327   0.118E-02    0.132E-01
RMM:   6    -0.231476094648E+04    0.15680E-03   -0.45457E-04  4355   0.123E-02    0.900E-02
RMM:   7    -0.231476090636E+04    0.40114E-04   -0.26756E-04  3496   0.983E-03    0.635E-02
RMM:   8    -0.231476085163E+04    0.54735E-04   -0.75373E-05  3029   0.664E-03    0.154E-02
RMM:   9    -0.231476084834E+04    0.32877E-05   -0.92695E-06  2910   0.391E-03
  21 F= -.23360501E+04 E0= -.23360501E+04  d E =-.872457E-02  mag=     2.0000
       N       E                     dE             d eps       ncg     rms          rms(c)
DAV:   1    -0.231461832688E+04    0.14252E+00   -0.71387E+00  4496   0.224E+00    0.833E-01
RMM:   2    -0.231476221618E+04   -0.14389E+00   -0.14774E+00  6528   0.613E-01    0.799E-01
RMM:   3    -0.231477207846E+04   -0.98623E-02   -0.14935E-01  6197   0.216E-01    0.753E-01
RMM:   4    -0.231476698404E+04    0.50944E-02   -0.14123E-02  6023   0.524E-02    0.342E-01
RMM:   5    -0.231476630859E+04    0.67545E-03   -0.23461E-03  4921   0.218E-02    0.261E-01
RMM:   6    -0.231476567699E+04    0.63161E-03   -0.17027E-03  5332   0.220E-02    0.174E-01
RMM:   7    -0.231476556567E+04    0.11131E-03   -0.10851E-03  5025   0.174E-02    0.134E-01
RMM:   8    -0.231476531582E+04    0.24986E-03   -0.33701E-04  4076   0.108E-02    0.319E-02
RMM:   9    -0.231476529774E+04    0.18079E-04   -0.32589E-05  2953   0.546E-03    0.191E-02
RMM:  10    -0.231476529185E+04    0.58921E-05   -0.30047E-05  2910   0.393E-03
  22 F= -.23360568E+04 E0= -.23360568E+04  d E =-.153950E-01  mag=     2.0000
       N       E                     dE             d eps       ncg     rms          rms(c)
DAV:   1    -0.231474046986E+04    0.24828E-01   -0.15076E+00  4544   0.100E+00    0.382E-01
RMM:   2    -0.231477067458E+04   -0.30205E-01   -0.31325E-01  6524   0.284E-01    0.311E-01
RMM:   3    -0.231477308088E+04   -0.24063E-02   -0.31460E-02  6018   0.975E-02    0.313E-01
RMM:   4    -0.231477200167E+04    0.10792E-02   -0.28792E-03  4658   0.234E-02    0.139E-01
RMM:   5    -0.231477198987E+04    0.11794E-04   -0.48108E-04  3352   0.113E-02    0.138E-01
RMM:   6    -0.231477180928E+04    0.18060E-03   -0.38879E-04  4084   0.113E-02    0.811E-02
RMM:   7    -0.231477179412E+04    0.15155E-04   -0.21935E-04  3317   0.889E-03    0.601E-02
RMM:   8    -0.231477174675E+04    0.47369E-04   -0.59444E-05  2978   0.617E-03    0.143E-02
RMM:   9    -0.231477174430E+04    0.24539E-05   -0.76700E-06  2892   0.337E-03
  23 F= -.23360643E+04 E0= -.23360643E+04  d E =-.750841E-02  mag=     2.0000
       N       E                     dE             d eps       ncg     rms          rms(c)
DAV:   1    -0.231462220988E+04    0.14954E+00   -0.73881E+00  4496   0.223E+00    0.850E-01
RMM:   2    -0.231477053304E+04   -0.14832E+00   -0.15331E+00  6520   0.630E-01    0.718E-01
RMM:   3    -0.231478274595E+04   -0.12213E-01   -0.16354E-01  6181   0.226E-01    0.705E-01
RMM:   4    -0.231477726078E+04    0.54852E-02   -0.14279E-02  5993   0.521E-02    0.314E-01
RMM:   5    -0.231477717298E+04    0.87802E-04   -0.23308E-03  5106   0.226E-02    0.307E-01
RMM:   6    -0.231477620690E+04    0.96609E-03   -0.17642E-03  5343   0.219E-02    0.163E-01
RMM:   7    -0.231477623421E+04   -0.27316E-04   -0.11178E-03  5033   0.173E-02    0.143E-01
RMM:   8    -0.231477594997E+04    0.28424E-03   -0.36686E-04  3828   0.109E-02    0.348E-02
RMM:   9    -0.231477593006E+04    0.19909E-04   -0.36423E-05  2948   0.545E-03    0.209E-02
RMM:  10    -0.231477592385E+04    0.62086E-05   -0.31132E-05  2911   0.397E-03
  24 F= -.23360709E+04 E0= -.23360709E+04  d E =-.140734E-01  mag=     2.0000
       N       E                     dE             d eps       ncg     rms          rms(c)
DAV:   1    -0.231472828524E+04    0.47645E-01   -0.24728E+00  4504   0.128E+00    0.485E-01
RMM:   2    -0.231477957170E+04   -0.51286E-01   -0.52879E-01  6482   0.362E-01    0.403E-01
RMM:   3    -0.231478384403E+04   -0.42723E-02   -0.57302E-02  6091   0.129E-01    0.381E-01
RMM:   4    -0.231478194486E+04    0.18992E-02   -0.48768E-03  5272   0.303E-02    0.155E-01
RMM:   5    -0.231478170613E+04    0.23873E-03   -0.73484E-04  4452   0.149E-02    0.975E-02
RMM:   6    -0.231478186798E+04   -0.16185E-03   -0.51577E-04  4123   0.129E-02    0.154E-01
RMM:   7    -0.231478164099E+04    0.22700E-03   -0.23709E-04  3322   0.947E-03    0.536E-02
RMM:   8    -0.231478161019E+04    0.30800E-04   -0.61300E-05  2953   0.616E-03    0.232E-02
RMM:   9    -0.231478160446E+04    0.57231E-05   -0.10698E-05  2889   0.312E-03
  25 F= -.23360777E+04 E0= -.23360777E+04  d E =-.688476E-02  mag=     2.0000
       N       E                     dE             d eps       ncg     rms          rms(c)
DAV:   1    -0.231473678829E+04    0.44822E-01   -0.21222E+00  4504   0.118E+00    0.449E-01
RMM:   2    -0.231478081985E+04   -0.44032E-01   -0.45349E-01  6470   0.336E-01    0.376E-01
RMM:   3    -0.231478441789E+04   -0.35980E-02   -0.48985E-02  6072   0.120E-01    0.351E-01
RMM:   4    -0.231478280119E+04    0.16167E-02   -0.41726E-03  5152   0.281E-02    0.143E-01
RMM:   5    -0.231478259998E+04    0.20120E-03   -0.63027E-04  4325   0.140E-02    0.936E-02
RMM:   6    -0.231478273401E+04   -0.13403E-03   -0.44356E-04  3856   0.121E-02    0.145E-01
RMM:   7    -0.231478253591E+04    0.19810E-03   -0.21018E-04  3306   0.916E-03    0.486E-02
RMM:   8    -0.231478250985E+04    0.26055E-04   -0.53159E-05  2950   0.601E-03    0.216E-02
RMM:   9    -0.231478250506E+04    0.47896E-05   -0.97686E-06  2887   0.308E-03
  26 F= -.23360798E+04 E0= -.23360798E+04  d E =-.892778E-02  mag=     2.0000
       N       E                     dE             d eps       ncg     rms          rms(c)
DAV:   1    -0.231476792650E+04    0.14583E-01   -0.91849E-01  4576   0.844E-01    0.299E-01
RMM:   2    -0.231478501951E+04   -0.17093E-01   -0.17674E-01  6329   0.222E-01    0.237E-01
RMM:   3    -0.231478648092E+04   -0.14614E-02   -0.18750E-02  5965   0.800E-02    0.247E-01
RMM:   4    -0.231478569062E+04    0.79030E-03   -0.16355E-03  4554   0.195E-02    0.103E-01
RMM:   5    -0.231478576635E+04   -0.75733E-04   -0.36491E-04  3871   0.109E-02    0.144E-01
RMM:   6    -0.231478554567E+04    0.22068E-03   -0.27096E-04  3878   0.103E-02    0.439E-02
RMM:   7    -0.231478554315E+04    0.25123E-05   -0.10555E-04  3206   0.783E-03    0.352E-02
RMM:   8    -0.231478552803E+04    0.15122E-04   -0.29424E-05  2912   0.554E-03    0.115E-02
RMM:   9    -0.231478552664E+04    0.13898E-05   -0.63147E-06  2883   0.285E-03
  27 F= -.23360831E+04 E0= -.23360831E+04  d E =-.336469E-02  mag=     2.0000
       N       E                     dE             d eps       ncg     rms          rms(c)
DAV:   1    -0.231478300640E+04    0.25216E-02   -0.13870E-01  4736   0.328E-01    0.116E-01
RMM:   2    -0.231478558025E+04   -0.25739E-02   -0.26627E-02  6346   0.868E-02    0.917E-02
RMM:   3    -0.231478580295E+04   -0.22270E-03   -0.28039E-03  4272   0.315E-02    0.983E-02
RMM:   4    -0.231478568235E+04    0.12060E-03   -0.24877E-04  3070   0.867E-03    0.422E-02
RMM:   5    -0.231478569236E+04   -0.10010E-04   -0.54873E-05  2976   0.495E-03    0.560E-02
RMM:   6    -0.231478565642E+04    0.35939E-04   -0.45390E-05  2927   0.505E-03    0.145E-02
RMM:   7    -0.231478565582E+04    0.59900E-06   -0.16141E-05  2941   0.408E-03
  28 F= -.23360834E+04 E0= -.23360834E+04  d E =-.363085E-02  mag=     2.0000
       N       E                     dE             d eps       ncg     rms          rms(c)
DAV:   1    -0.231478274832E+04    0.29081E-02   -0.39794E-01  4512   0.622E-01    0.201E-01
RMM:   2    -0.231478721313E+04   -0.44648E-02   -0.46356E-02  6177   0.137E-01    0.144E-01
RMM:   3    -0.231478776252E+04   -0.54938E-03   -0.46352E-03  5693   0.498E-02    0.211E-01
RMM:   4    -0.231478728121E+04    0.48130E-03   -0.52057E-04  3973   0.137E-02    0.674E-02
RMM:   5    -0.231478730068E+04   -0.19468E-04   -0.15456E-04  3198   0.871E-03    0.809E-02
RMM:   6    -0.231478721773E+04    0.82953E-04   -0.13099E-04  3791   0.877E-03    0.261E-02
RMM:   7    -0.231478721976E+04   -0.20309E-05   -0.44973E-05  2963   0.646E-03
  29 F= -.23360852E+04 E0= -.23360852E+04  d E =-.175595E-02  mag=     2.0000
       N       E                     dE             d eps       ncg     rms          rms(c)
DAV:   1    -0.231478399187E+04    0.32259E-02   -0.26872E-01  4544   0.511E-01    0.166E-01
RMM:   2    -0.231478701548E+04   -0.30236E-02   -0.31372E-02  6157   0.113E-01    0.117E-01
RMM:   3    -0.231478738105E+04   -0.36558E-03   -0.31648E-03  5419   0.423E-02    0.170E-01
RMM:   4    -0.231478706704E+04    0.31402E-03   -0.34998E-04  3369   0.115E-02    0.564E-02
RMM:   5    -0.231478707939E+04   -0.12354E-04   -0.10644E-04  3064   0.758E-03    0.669E-02
RMM:   6    -0.231478702348E+04    0.55909E-04   -0.88189E-05  3301   0.751E-03    0.236E-02
RMM:   7    -0.231478702414E+04   -0.66208E-06   -0.35683E-05  2938   0.592E-03
  30 F= -.23360851E+04 E0= -.23360851E+04  d E =-.171993E-02  mag=     2.0000
       N       E                     dE             d eps       ncg     rms          rms(c)
DAV:   1    -0.231478667360E+04    0.34988E-03   -0.53841E-02  4624   0.228E-01    0.727E-02
RMM:   2    -0.231478727311E+04   -0.59950E-03   -0.61605E-03  6114   0.504E-02    0.579E-02
RMM:   3    -0.231478734032E+04   -0.67208E-04   -0.59306E-04  3404   0.170E-02    0.801E-02
RMM:   4    -0.231478727341E+04    0.66909E-04   -0.69928E-05  2981   0.610E-03    0.243E-02
RMM:   5    -0.231478727514E+04   -0.17288E-05   -0.21520E-05  2910   0.365E-03
  31 F= -.23360853E+04 E0= -.23360853E+04  d E =-.189984E-02  mag=     2.0000
       N       E                     dE             d eps       ncg     rms          rms(c)
DAV:   1    -0.231478509761E+04    0.21758E-02   -0.37163E-01  4504   0.581E-01    0.157E-01
RMM:   2    -0.231478863727E+04   -0.35397E-02   -0.35594E-02  6248   0.120E-01    0.160E-01
RMM:   3    -0.231478886689E+04   -0.22962E-03   -0.32129E-03  5266   0.394E-02    0.167E-01
RMM:   4    -0.231478859545E+04    0.27144E-03   -0.35545E-04  3343   0.114E-02    0.597E-02
RMM:   5    -0.231478857343E+04    0.22022E-04   -0.94612E-05  3040   0.716E-03    0.500E-02
RMM:   6    -0.231478854740E+04    0.26033E-04   -0.10305E-04  3541   0.786E-03    0.304E-02
RMM:   7    -0.231478854460E+04    0.27922E-05   -0.34005E-05  2952   0.571E-03
  32 F= -.23360867E+04 E0= -.23360867E+04  d E =-.143543E-02  mag=     2.0000
       N       E                     dE             d eps       ncg     rms          rms(c)
DAV:   1    -0.231478348900E+04    0.50584E-02   -0.56931E-01  4504   0.721E-01    0.194E-01
RMM:   2    -0.231478889522E+04   -0.54062E-02   -0.54703E-02  6249   0.150E-01    0.187E-01
RMM:   3    -0.231478929459E+04   -0.39936E-03   -0.49019E-03  5669   0.500E-02    0.207E-01
RMM:   4    -0.231478886754E+04    0.42704E-03   -0.54726E-04  3951   0.139E-02    0.724E-02
RMM:   5    -0.231478885330E+04    0.14244E-04   -0.14976E-04  3125   0.837E-03    0.688E-02
RMM:   6    -0.231478880578E+04    0.47519E-04   -0.14969E-04  3884   0.912E-03    0.426E-02
RMM:   7    -0.231478879331E+04    0.12466E-04   -0.58649E-05  2975   0.670E-03    0.260E-02
RMM:   8    -0.231478878442E+04    0.88955E-05   -0.11297E-05  2889   0.352E-03
  33 F= -.23360872E+04 E0= -.23360872E+04  d E =-.188173E-02  mag=     2.0000
       N       E                     dE             d eps       ncg     rms          rms(c)
DAV:   1    -0.231478745129E+04    0.13420E-02   -0.26351E-01  4512   0.494E-01    0.135E-01
RMM:   2    -0.231478988398E+04   -0.24327E-02   -0.24355E-02  6146   0.101E-01    0.136E-01
RMM:   3    -0.231479003329E+04   -0.14931E-03   -0.20704E-03  4893   0.326E-02    0.145E-01
RMM:   4    -0.231478981179E+04    0.22150E-03   -0.24041E-04  3198   0.100E-02    0.456E-02
RMM:   5    -0.231478981606E+04   -0.42660E-05   -0.72998E-05  3002   0.646E-03
  34 F= -.23360883E+04 E0= -.23360883E+04  d E =-.113625E-02  mag=     2.0000
       N       E                     dE             d eps       ncg     rms          rms(c)
DAV:   1    -0.231478381641E+04    0.59954E-02   -0.71289E-01  4496   0.813E-01    0.221E-01
RMM:   2    -0.231479034937E+04   -0.65330E-02   -0.65455E-02  6259   0.166E-01    0.217E-01
RMM:   3    -0.231479074014E+04   -0.39077E-03   -0.56329E-03  5806   0.557E-02    0.228E-01
RMM:   4    -0.231479016365E+04    0.57649E-03   -0.65597E-04  4616   0.158E-02    0.799E-02
RMM:   5    -0.231479019513E+04   -0.31479E-04   -0.20490E-04  3236   0.953E-03    0.951E-02
RMM:   6    -0.231479007534E+04    0.11979E-03   -0.19508E-04  4195   0.103E-02    0.221E-02
RMM:   7    -0.231479007564E+04   -0.29773E-06   -0.34551E-05  2983   0.682E-03
  35 F= -.23360888E+04 E0= -.23360888E+04  d E =-.156865E-02  mag=     2.0000
       N       E                     dE             d eps       ncg     rms          rms(c)
DAV:   1    -0.231478836377E+04    0.17116E-02   -0.28272E-01  4536   0.502E-01    0.132E-01
RMM:   2    -0.231479113318E+04   -0.27694E-02   -0.27917E-02  6199   0.104E-01    0.130E-01
RMM:   3    -0.231479130834E+04   -0.17516E-03   -0.25965E-03  4851   0.368E-02    0.137E-01
RMM:   4    -0.231479110651E+04    0.20183E-03   -0.26426E-04  3164   0.101E-02    0.498E-02
RMM:   5    -0.231479111335E+04   -0.68465E-05   -0.75513E-05  2980   0.614E-03
  36 F= -.23360899E+04 E0= -.23360899E+04  d E =-.113288E-02  mag=     2.0000
       N       E                     dE             d eps       ncg     rms          rms(c)
DAV:   1    -0.231478298299E+04    0.81235E-02   -0.89197E-01  4496   0.892E-01    0.232E-01
RMM:   2    -0.231479165129E+04   -0.86683E-02   -0.87541E-02  6258   0.183E-01    0.229E-01
RMM:   3    -0.231479215429E+04   -0.50300E-03   -0.80765E-03  5857   0.636E-02    0.232E-01
RMM:   4    -0.231479157065E+04    0.58364E-03   -0.84121E-04  4500   0.167E-02    0.904E-02
RMM:   5    -0.231479161592E+04   -0.45274E-04   -0.25691E-04  3386   0.995E-03    0.111E-01
RMM:   6    -0.231479145104E+04    0.16488E-03   -0.24349E-04  4256   0.109E-02    0.297E-02
RMM:   7    -0.231479144966E+04    0.13861E-05   -0.52385E-05  3049   0.718E-03
  37 F= -.23360904E+04 E0= -.23360904E+04  d E =-.164076E-02  mag=     2.0000
       N       E                     dE             d eps       ncg     rms          rms(c)
DAV:   1    -0.231478978347E+04    0.16676E-02   -0.32216E-01  4544   0.524E-01    0.147E-01
RMM:   2    -0.231479264743E+04   -0.28640E-02   -0.28876E-02  6117   0.107E-01    0.134E-01
RMM:   3    -0.231479282900E+04   -0.18157E-03   -0.27212E-03  4904   0.392E-02    0.150E-01
RMM:   4    -0.231479257663E+04    0.25238E-03   -0.29136E-04  3195   0.106E-02    0.575E-02
RMM:   5    -0.231479257222E+04    0.44057E-05   -0.93524E-05  2988   0.662E-03
  38 F= -.23360917E+04 E0= -.23360917E+04  d E =-.125008E-02  mag=     2.0000
       N       E                     dE             d eps       ncg     rms          rms(c)
DAV:   1    -0.231477957108E+04    0.13006E-01   -0.15810E+00  4528   0.116E+00    0.321E-01
RMM:   2    -0.231479347397E+04   -0.13903E-01   -0.14008E-01  6089   0.234E-01    0.294E-01
RMM:   3    -0.231479429746E+04   -0.82349E-03   -0.13529E-02  5850   0.874E-02    0.315E-01
RMM:   4    -0.231479316022E+04    0.11372E-02   -0.14172E-03  5325   0.220E-02    0.123E-01
RMM:   5    -0.231479322773E+04   -0.67509E-04   -0.49511E-04  3744   0.129E-02    0.147E-01
RMM:   6    -0.231479295225E+04    0.27548E-03   -0.37978E-04  4572   0.126E-02    0.386E-02
RMM:   7    -0.231479294519E+04    0.70653E-05   -0.96318E-05  3218   0.880E-03
  39 F= -.23360923E+04 E0= -.23360923E+04  d E =-.190811E-02  mag=     2.0000
       N       E                     dE             d eps       ncg     rms          rms(c)
DAV:   1    -0.231479184857E+04    0.11037E-02   -0.22899E-01  4608   0.421E-01    0.115E-01
RMM:   2    -0.231479386580E+04   -0.20172E-02   -0.20324E-02  6184   0.867E-02    0.106E-01
RMM:   3    -0.231479398298E+04   -0.11718E-03   -0.18364E-03  4204   0.299E-02    0.119E-01
RMM:   4    -0.231479383426E+04    0.14871E-03   -0.19879E-04  3073   0.902E-03    0.455E-02
RMM:   5    -0.231479383761E+04   -0.33456E-05   -0.57012E-05  2965   0.496E-03
  40 F= -.23360933E+04 E0= -.23360933E+04  d E =-.102498E-02  mag=     2.0000
       N       E                     dE             d eps       ncg     rms          rms(c)
DAV:   1    -0.231477775870E+04    0.16076E-01   -0.20571E+00  4496   0.126E+00    0.339E-01
RMM:   2    -0.231479598527E+04   -0.18227E-01   -0.18188E-01  6085   0.255E-01    0.339E-01
RMM:   3    -0.231479670398E+04   -0.71871E-03   -0.16183E-02  5840   0.882E-02    0.343E-01
RMM:   4    -0.231479546726E+04    0.12367E-02   -0.17634E-03  5345   0.229E-02    0.139E-01
RMM:   5    -0.231479549124E+04   -0.23987E-04   -0.50779E-04  3532   0.122E-02    0.148E-01
RMM:   6    -0.231479525206E+04    0.23918E-03   -0.44966E-04  4474   0.132E-02    0.584E-02
RMM:   7    -0.231479526185E+04   -0.97879E-05   -0.20015E-04  3327   0.101E-02    0.569E-02
RMM:   8    -0.231479521661E+04    0.45238E-04   -0.51363E-05  2987   0.563E-03    0.117E-02
RMM:   9    -0.231479521554E+04    0.10710E-05   -0.80134E-06  2913   0.301E-03
  41 F= -.23360951E+04 E0= -.23360951E+04  d E =-.280136E-02  mag=     2.0000
       N       E                     dE             d eps       ncg     rms          rms(c)
DAV:   1    -0.231479112958E+04    0.40870E-02   -0.48385E-01  4504   0.613E-01    0.165E-01
RMM:   2    -0.231479543215E+04   -0.43026E-02   -0.42849E-02  6092   0.124E-01    0.167E-01
RMM:   3    -0.231479560798E+04   -0.17583E-03   -0.38170E-03  5156   0.435E-02    0.171E-01
RMM:   4    -0.231479530565E+04    0.30233E-03   -0.41945E-04  3291   0.115E-02    0.679E-02
RMM:   5    -0.231479529833E+04    0.73151E-05   -0.10914E-04  3005   0.678E-03    0.660E-02
RMM:   6    -0.231479525411E+04    0.44215E-04   -0.10517E-04  3175   0.711E-03    0.314E-02
RMM:   7    -0.231479525483E+04   -0.71317E-06   -0.53386E-05  3033   0.591E-03
  42 F= -.23360953E+04 E0= -.23360953E+04  d E =-.303385E-02  mag=     2.0000
       N       E                     dE             d eps       ncg     rms          rms(c)
DAV:   1    -0.231479395677E+04    0.12973E-02   -0.31376E-01  4512   0.518E-01    0.159E-01
RMM:   2    -0.231479691743E+04   -0.29607E-02   -0.30338E-02  6067   0.109E-01    0.128E-01
RMM:   3    -0.231479722315E+04   -0.30572E-03   -0.28681E-03  5065   0.411E-02    0.177E-01
RMM:   4    -0.231479688434E+04    0.33881E-03   -0.32965E-04  3230   0.114E-02    0.532E-02
RMM:   5    -0.231479690298E+04   -0.18635E-04   -0.11521E-04  3037   0.758E-03    0.662E-02
RMM:   6    -0.231479685225E+04    0.50727E-04   -0.85822E-05  3142   0.721E-03    0.223E-02
RMM:   7    -0.231479685405E+04   -0.17964E-05   -0.30567E-05  2955   0.581E-03
  43 F= -.23360971E+04 E0= -.23360971E+04  d E =-.172805E-02  mag=     2.0000
       N       E                     dE             d eps       ncg     rms          rms(c)
DAV:   1    -0.231479314563E+04    0.37066E-02   -0.45564E-01  4504   0.624E-01    0.191E-01
RMM:   2    -0.231479746352E+04   -0.43179E-02   -0.44186E-02  6054   0.132E-01    0.156E-01
RMM:   3    -0.231479789705E+04   -0.43353E-03   -0.41654E-03  5414   0.503E-02    0.213E-01
RMM:   4    -0.231479740886E+04    0.48819E-03   -0.47781E-04  3713   0.134E-02    0.637E-02
RMM:   5    -0.231479743949E+04   -0.30636E-04   -0.16610E-04  3089   0.877E-03    0.818E-02
RMM:   6    -0.231479735834E+04    0.81152E-04   -0.12720E-04  3529   0.847E-03    0.246E-02
RMM:   7    -0.231479736000E+04   -0.16629E-05   -0.38741E-05  2980   0.619E-03
  44 F= -.23360977E+04 E0= -.23360977E+04  d E =-.238862E-02  mag=     2.0000
       N       E                     dE             d eps       ncg     rms          rms(c)
DAV:   1    -0.231479519712E+04    0.21612E-02   -0.36754E-01  4504   0.547E-01    0.165E-01
RMM:   2    -0.231479864230E+04   -0.34452E-02   -0.35440E-02  6091   0.115E-01    0.139E-01
RMM:   3    -0.231479890943E+04   -0.26713E-03   -0.32216E-03  5156   0.419E-02    0.175E-01
RMM:   4    -0.231479858142E+04    0.32802E-03   -0.36653E-04  3242   0.115E-02    0.570E-02
RMM:   5    -0.231479860736E+04   -0.25944E-04   -0.12817E-04  3050   0.773E-03    0.726E-02
RMM:   6    -0.231479854055E+04    0.66806E-04   -0.93300E-05  3187   0.740E-03    0.201E-02
RMM:   7    -0.231479853899E+04    0.15676E-05   -0.24681E-05  2995   0.545E-03
  45 F= -.23360990E+04 E0= -.23360990E+04  d E =-.130149E-02  mag=     2.0000
       N       E                     dE             d eps       ncg     rms          rms(c)
DAV:   1    -0.231479616398E+04    0.23766E-02   -0.28001E-01  4544   0.477E-01    0.144E-01
RMM:   2    -0.231479882238E+04   -0.26584E-02   -0.27203E-02  6195   0.102E-01    0.125E-01
RMM:   3    -0.231479901683E+04   -0.19445E-03   -0.24375E-03  4678   0.361E-02    0.155E-01
RMM:   4    -0.231479875768E+04    0.25915E-03   -0.28066E-04  3136   0.106E-02    0.507E-02
RMM:   5    -0.231479877300E+04   -0.15320E-04   -0.97955E-05  3005   0.683E-03    0.625E-02
RMM:   6    -0.231479872458E+04    0.48417E-04   -0.73267E-05  3070   0.669E-03    0.181E-02
RMM:   7    -0.231479872446E+04    0.12609E-06   -0.23334E-05  2981   0.514E-03
  46 F= -.23360993E+04 E0= -.23360993E+04  d E =-.159404E-02  mag=     2.0000
       N       E                     dE             d eps       ncg     rms          rms(c)
DAV:   1    -0.231479649118E+04    0.22334E-02   -0.38961E-01  4504   0.599E-01    0.167E-01
RMM:   2    -0.231480009161E+04   -0.36004E-02   -0.35656E-02  6128   0.122E-01    0.171E-01
RMM:   3    -0.231480016039E+04   -0.68788E-04   -0.30890E-03  5323   0.423E-02    0.155E-01
RMM:   4    -0.231479989832E+04    0.26208E-03   -0.37727E-04  3587   0.119E-02    0.665E-02
RMM:   5    -0.231479990002E+04   -0.17016E-05   -0.11927E-04  3083   0.769E-03    0.681E-02
RMM:   6    -0.231479984586E+04    0.54161E-04   -0.10000E-04  3554   0.752E-03    0.306E-02
RMM:   7    -0.231479984473E+04    0.11246E-05   -0.43048E-05  2954   0.615E-03
  47 F= -.23361006E+04 E0= -.23361006E+04  d E =-.130522E-02  mag=     2.0000
       N       E                     dE             d eps       ncg     rms          rms(c)
DAV:   1    -0.231479639544E+04    0.34504E-02   -0.41176E-01  4504   0.615E-01    0.172E-01
RMM:   2    -0.231480021388E+04   -0.38184E-02   -0.37838E-02  6073   0.126E-01    0.175E-01
RMM:   3    -0.231480029940E+04   -0.85516E-04   -0.32694E-03  5369   0.447E-02    0.162E-01
RMM:   4    -0.231480001444E+04    0.28495E-03   -0.39734E-04  3655   0.122E-02    0.680E-02
RMM:   5    -0.231480001731E+04   -0.28694E-05   -0.12878E-04  3097   0.793E-03    0.707E-02
RMM:   6    -0.231479995836E+04    0.58951E-04   -0.10766E-04  3641   0.774E-03    0.312E-02
RMM:   7    -0.231479995705E+04    0.13138E-05   -0.47701E-05  2956   0.635E-03
  48 F= -.23361009E+04 E0= -.23361009E+04  d E =-.160839E-02  mag=     2.0000
       N       E                     dE             d eps       ncg     rms          rms(c)
DAV:   1    -0.231479732467E+04    0.26337E-02   -0.38142E-01  4520   0.608E-01    0.172E-01
RMM:   2    -0.231480121216E+04   -0.38875E-02   -0.37407E-02  6093   0.126E-01    0.197E-01
RMM:   3    -0.231480115190E+04    0.60265E-04   -0.31612E-03  5387   0.443E-02    0.152E-01
RMM:   4    -0.231480090602E+04    0.24588E-03   -0.39575E-04  3686   0.120E-02    0.711E-02
RMM:   5    -0.231480088625E+04    0.19765E-04   -0.11503E-04  3034   0.759E-03    0.613E-02
RMM:   6    -0.231480084585E+04    0.40407E-04   -0.97899E-05  3613   0.723E-03    0.349E-02
RMM:   7    -0.231480083938E+04    0.64710E-05   -0.46939E-05  2948   0.631E-03
  49 F= -.23361020E+04 E0= -.23361020E+04  d E =-.110427E-02  mag=     2.0000
       N       E                     dE             d eps       ncg     rms          rms(c)
DAV:   1    -0.231479769672E+04    0.31491E-02   -0.34289E-01  4520   0.576E-01    0.163E-01
RMM:   2    -0.231480119455E+04   -0.34978E-02   -0.33646E-02  6091   0.119E-01    0.187E-01
RMM:   3    -0.231480114149E+04    0.53062E-04   -0.28488E-03  5298   0.425E-02    0.145E-01
RMM:   4    -0.231480091991E+04    0.22158E-03   -0.35571E-04  3491   0.114E-02    0.678E-02
RMM:   5    -0.231480090153E+04    0.18382E-04   -0.10429E-04  3013   0.724E-03    0.581E-02
RMM:   6    -0.231480086511E+04    0.36419E-04   -0.88422E-05  3452   0.692E-03    0.334E-02
RMM:   7    -0.231480085893E+04    0.61775E-05   -0.42744E-05  2941   0.603E-03
  50 F= -.23361023E+04 E0= -.23361023E+04  d E =-.133512E-02  mag=     2.0000
       N       E                     dE             d eps       ncg     rms          rms(c)
DAV:   1    -0.231479872215E+04    0.21430E-02   -0.24214E-01  4512   0.482E-01    0.148E-01
RMM:   2    -0.231480166743E+04   -0.29453E-02   -0.28244E-02  6099   0.106E-01    0.179E-01
RMM:   3    -0.231480164021E+04    0.27221E-04   -0.25643E-03  5060   0.389E-02    0.136E-01
RMM:   4    -0.231480145033E+04    0.18988E-03   -0.30023E-04  3354   0.107E-02    0.594E-02
RMM:   5    -0.231480143755E+04    0.12779E-04   -0.85167E-05  2991   0.693E-03    0.530E-02
RMM:   6    -0.231480140462E+04    0.32931E-04   -0.74516E-05  3269   0.679E-03    0.253E-02
RMM:   7    -0.231480140351E+04    0.11042E-05   -0.33248E-05  2941   0.572E-03
  51 F= -.23361031E+04 E0= -.23361031E+04  d E =-.829730E-03  mag=     2.0000
       N       E                     dE             d eps       ncg     rms          rms(c)
DAV:   1    -0.231480041640E+04    0.98821E-03   -0.80654E-02  4640   0.279E-01    0.861E-02
RMM:   2    -0.231480139904E+04   -0.98264E-03   -0.94535E-03  6171   0.617E-02    0.102E-01
RMM:   3    -0.231480139471E+04    0.43331E-05   -0.87836E-04  3847   0.228E-02    0.799E-02
RMM:   4    -0.231480132952E+04    0.65192E-04   -0.10131E-04  3020   0.710E-03    0.345E-02
RMM:   5    -0.231480132549E+04    0.40254E-05   -0.30455E-05  2932   0.442E-03
  52 F= -.23361032E+04 E0= -.23361032E+04  d E =-.917020E-03  mag=     2.0000
       N       E                     dE             d eps       ncg     rms          rms(c)
DAV:   1    -0.231479911010E+04    0.22194E-02   -0.20005E-01  4512   0.454E-01    0.141E-01
RMM:   2    -0.231480198355E+04   -0.28734E-02   -0.27776E-02  6100   0.101E-01    0.168E-01
RMM:   3    -0.231480203813E+04   -0.54583E-04   -0.26859E-03  4910   0.372E-02    0.135E-01
RMM:   4    -0.231480184138E+04    0.19675E-03   -0.27869E-04  3249   0.103E-02    0.493E-02
RMM:   5    -0.231480185023E+04   -0.88443E-05   -0.79004E-05  2969   0.652E-03
  53 F= -.23361040E+04 E0= -.23361040E+04  d E =-.786102E-03  mag=     2.0000
       N       E                     dE             d eps       ncg     rms          rms(c)
DAV:   1    -0.231479973343E+04    0.21080E-02   -0.14440E-01  4520   0.386E-01    0.120E-01
RMM:   2    -0.231480176842E+04   -0.20350E-02   -0.20069E-02  6223   0.862E-02    0.132E-01
RMM:   3    -0.231480185264E+04   -0.84229E-04   -0.19844E-03  4432   0.320E-02    0.115E-01
RMM:   4    -0.231480171496E+04    0.13768E-03   -0.20658E-04  3110   0.936E-03    0.447E-02
RMM:   5    -0.231480171870E+04   -0.37364E-05   -0.67200E-05  2983   0.612E-03
  54 F= -.23361041E+04 E0= -.23361041E+04  d E =-.878768E-03  mag=     2.0000
       N       E                     dE             d eps       ncg     rms          rms(c)
DAV:   1    -0.231479998802E+04    0.17269E-02   -0.16466E-01  4504   0.408E-01    0.119E-01
RMM:   2    -0.231480228577E+04   -0.22978E-02   -0.22135E-02  6311   0.893E-02    0.145E-01
RMM:   3    -0.231480229556E+04   -0.97922E-05   -0.21599E-03  4373   0.323E-02    0.104E-01
RMM:   4    -0.231480217647E+04    0.11910E-03   -0.22376E-04  3127   0.913E-03    0.482E-02
RMM:   5    -0.231480217564E+04    0.83128E-06   -0.57172E-05  2940   0.545E-03
  55 F= -.23361047E+04 E0= -.23361047E+04  d E =-.639645E-03  mag=     2.0000
       N       E                     dE             d eps       ncg     rms          rms(c)
DAV:   1    -0.231479520298E+04    0.69735E-02   -0.52259E-01  4504   0.726E-01    0.210E-01
RMM:   2    -0.231480232695E+04   -0.71240E-02   -0.70209E-02  6243   0.157E-01    0.241E-01
RMM:   3    -0.231480256504E+04   -0.23809E-03   -0.66957E-03  5706   0.563E-02    0.199E-01
RMM:   4    -0.231480215526E+04    0.40978E-03   -0.72404E-04  4193   0.147E-02    0.809E-02
RMM:   5    -0.231480214996E+04    0.53027E-05   -0.18030E-04  3127   0.858E-03    0.793E-02
RMM:   6    -0.231480207982E+04    0.70133E-04   -0.15486E-04  3861   0.897E-03    0.425E-02
RMM:   7    -0.231480207544E+04    0.43867E-05   -0.73309E-05  2983   0.694E-03
  56 F= -.23361049E+04 E0= -.23361049E+04  d E =-.866461E-03  mag=     2.0000
       N       E                     dE             d eps       ncg     rms          rms(c)
DAV:   1    -0.231479974939E+04    0.23304E-02   -0.21894E-01  4536   0.473E-01    0.142E-01
RMM:   2    -0.231480273922E+04   -0.29898E-02   -0.29193E-02  6178   0.104E-01    0.161E-01
RMM:   3    -0.231480279945E+04   -0.60238E-04   -0.27656E-03  4956   0.386E-02    0.130E-01
RMM:   4    -0.231480262835E+04    0.17111E-03   -0.32053E-04  3210   0.104E-02    0.579E-02
RMM:   5    -0.231480261087E+04    0.17470E-04   -0.77722E-05  2998   0.640E-03    0.466E-02
RMM:   6    -0.231480259137E+04    0.19503E-04   -0.58324E-05  2996   0.576E-03    0.331E-02
RMM:   7    -0.231480258380E+04    0.75673E-05   -0.35903E-05  2929   0.535E-03
  57 F= -.23361056E+04 E0= -.23361056E+04  d E =-.646684E-03  mag=     2.0000
       N       E                     dE             d eps       ncg     rms          rms(c)
DAV:   1    -0.231479973838E+04    0.28530E-02   -0.21949E-01  4504   0.473E-01    0.142E-01
RMM:   2    -0.231480274013E+04   -0.30017E-02   -0.29264E-02  6213   0.104E-01    0.163E-01
RMM:   3    -0.231480279160E+04   -0.51477E-04   -0.27395E-03  4926   0.381E-02    0.130E-01
RMM:   4    -0.231480261998E+04    0.17162E-03   -0.31983E-04  3216   0.104E-02    0.583E-02
RMM:   5    -0.231480260110E+04    0.18886E-04   -0.76415E-05  2997   0.641E-03    0.465E-02
RMM:   6    -0.231480257983E+04    0.21270E-04   -0.61154E-05  3012   0.590E-03    0.323E-02
RMM:   7    -0.231480257250E+04    0.73259E-05   -0.35890E-05  2930   0.545E-03
  58 F= -.23361057E+04 E0= -.23361057E+04  d E =-.774691E-03  mag=     2.0000
       N       E                     dE             d eps       ncg     rms          rms(c)
DAV:   1    -0.231480063339E+04    0.19464E-02   -0.19147E-01  4504   0.442E-01    0.135E-01
RMM:   2    -0.231480341917E+04   -0.27858E-02   -0.26521E-02  6251   0.990E-02    0.168E-01
RMM:   3    -0.231480331735E+04    0.10182E-03   -0.23478E-03  4886   0.353E-02    0.106E-01
RMM:   4    -0.231480321114E+04    0.10621E-03   -0.28876E-04  3156   0.974E-03    0.596E-02
RMM:   5    -0.231480318872E+04    0.22421E-04   -0.67426E-05  2985   0.613E-03    0.441E-02
RMM:   6    -0.231480317930E+04    0.94223E-05   -0.54795E-05  2978   0.547E-03
  59 F= -.23361065E+04 E0= -.23361065E+04  d E =-.741065E-03  mag=     2.0000
       N       E                     dE             d eps       ncg     rms          rms(c)
DAV:   1    -0.231480108651E+04    0.21022E-02   -0.16051E-01  4544   0.405E-01    0.123E-01
RMM:   2    -0.231480337616E+04   -0.22896E-02   -0.22165E-02  6212   0.903E-02    0.146E-01
RMM:   3    -0.231480332580E+04    0.50360E-04   -0.19184E-03  4581   0.295E-02    0.995E-02
RMM:   4    -0.231480324385E+04    0.81949E-04   -0.24022E-04  3112   0.887E-03    0.606E-02
RMM:   5    -0.231480321660E+04    0.27251E-04   -0.62879E-05  2985   0.570E-03    0.396E-02
RMM:   6    -0.231480321034E+04    0.62539E-05   -0.54685E-05  2972   0.542E-03
  60 F= -.23361066E+04 E0= -.23361066E+04  d E =-.896445E-03  mag=     2.0000
       N       E                     dE             d eps       ncg     rms          rms(c)
DAV:   1    -0.231480132808E+04    0.18885E-02   -0.21124E-01  4504   0.467E-01    0.143E-01
RMM:   2    -0.231480389536E+04   -0.25673E-02   -0.25184E-02  6183   0.101E-01    0.149E-01
RMM:   3    -0.231480387675E+04    0.18618E-04   -0.21237E-03  5052   0.353E-02    0.125E-01
RMM:   4    -0.231480372141E+04    0.15533E-03   -0.27608E-04  3194   0.100E-02    0.627E-02
RMM:   5    -0.231480369715E+04    0.24263E-04   -0.77928E-05  3005   0.657E-03    0.469E-02
RMM:   6    -0.231480367927E+04    0.17878E-04   -0.65473E-05  3053   0.611E-03    0.336E-02
RMM:   7    -0.231480367012E+04    0.91517E-05   -0.32189E-05  2931   0.546E-03
  61 F= -.23361072E+04 E0= -.23361072E+04  d E =-.617295E-03  mag=     2.0000
       N       E                     dE             d eps       ncg     rms          rms(c)
DAV:   1    -0.231480273662E+04    0.94266E-03   -0.79563E-02  4560   0.286E-01    0.889E-02
RMM:   2    -0.231480373837E+04   -0.10018E-02   -0.95986E-03  6191   0.628E-02    0.101E-01
RMM:   3    -0.231480370372E+04    0.34650E-04   -0.83862E-04  3896   0.229E-02    0.754E-02
RMM:   4    -0.231480364381E+04    0.59912E-04   -0.10422E-04  3025   0.713E-03    0.366E-02
RMM:   5    -0.231480363686E+04    0.69503E-05   -0.30797E-05  2940   0.429E-03
  62 F= -.23361073E+04 E0= -.23361073E+04  d E =-.681334E-03  mag=     2.0000
       N       E                     dE             d eps       ncg     rms          rms(c)
DAV:   1    -0.231480144059E+04    0.22032E-02   -0.23029E-01  4504   0.491E-01    0.145E-01
RMM:   2    -0.231480431342E+04   -0.28728E-02   -0.27822E-02  6081   0.105E-01    0.162E-01
RMM:   3    -0.231480432510E+04   -0.11682E-04   -0.24494E-03  4759   0.375E-02    0.130E-01
RMM:   4    -0.231480413860E+04    0.18650E-03   -0.29008E-04  3237   0.106E-02    0.579E-02
RMM:   5    -0.231480413863E+04   -0.26732E-07   -0.84852E-05  2978   0.672E-03
  63 F= -.23361079E+04 E0= -.23361079E+04  d E =-.640463E-03  mag=     2.0000
       N       E                     dE             d eps       ncg     rms          rms(c)
DAV:   1    -0.231480210186E+04    0.20367E-02   -0.16649E-01  4504   0.418E-01    0.123E-01
RMM:   2    -0.231480413575E+04   -0.20339E-02   -0.20147E-02  6174   0.901E-02    0.128E-01
RMM:   3    -0.231480420034E+04   -0.64596E-04   -0.18203E-03  4433   0.325E-02    0.116E-01
RMM:   4    -0.231480406129E+04    0.13906E-03   -0.21904E-04  3100   0.959E-03    0.494E-02
RMM:   5    -0.231480406378E+04   -0.24885E-05   -0.71700E-05  2986   0.631E-03
  64 F= -.23361080E+04 E0= -.23361080E+04  d E =-.684507E-03  mag=     2.0000
       N       E                     dE             d eps       ncg     rms          rms(c)
DAV:   1    -0.231480220206E+04    0.18592E-02   -0.17811E-01  4504   0.421E-01    0.125E-01
RMM:   2    -0.231480450316E+04   -0.23011E-02   -0.22914E-02  6206   0.916E-02    0.127E-01
RMM:   3    -0.231480457694E+04   -0.73777E-04   -0.21585E-03  4288   0.337E-02    0.118E-01
RMM:   4    -0.231480442355E+04    0.15339E-03   -0.23825E-04  3088   0.959E-03    0.510E-02
RMM:   5    -0.231480442250E+04    0.10524E-05   -0.69764E-05  2957   0.565E-03
  65 F= -.23361085E+04 E0= -.23361085E+04  d E =-.518693E-03  mag=     2.0000
       N       E                     dE             d eps       ncg     rms          rms(c)
DAV:   1    -0.231479986618E+04    0.45574E-02   -0.36090E-01  4504   0.598E-01    0.176E-01
RMM:   2    -0.231480441791E+04   -0.45517E-02   -0.45976E-02  6178   0.130E-01    0.172E-01
RMM:   3    -0.231480464855E+04   -0.23064E-03   -0.41446E-03  5211   0.463E-02    0.165E-01
RMM:   4    -0.231480436112E+04    0.28743E-03   -0.47781E-04  3390   0.123E-02    0.693E-02
RMM:   5    -0.231480436959E+04   -0.84678E-05   -0.14039E-04  3072   0.786E-03    0.733E-02
RMM:   6    -0.231480430970E+04    0.59884E-04   -0.10454E-04  3341   0.754E-03    0.354E-02
RMM:   7    -0.231480430783E+04    0.18746E-05   -0.53250E-05  2964   0.628E-03
  66 F= -.23361086E+04 E0= -.23361086E+04  d E =-.631951E-03  mag=     2.0000
       N       E                     dE             d eps       ncg     rms          rms(c)
DAV:   1    -0.231480136382E+04    0.29459E-02   -0.26121E-01  4504   0.511E-01    0.157E-01
RMM:   2    -0.231480463266E+04   -0.32688E-02   -0.34040E-02  6105   0.112E-01    0.115E-01
RMM:   3    -0.231480493861E+04   -0.30595E-03   -0.31278E-03  4861   0.425E-02    0.148E-01
RMM:   4    -0.231480468731E+04    0.25130E-03   -0.35082E-04  3147   0.111E-02    0.545E-02
RMM:   5    -0.231480470521E+04   -0.17903E-04   -0.10302E-04  3021   0.709E-03    0.674E-02
RMM:   6    -0.231480464971E+04    0.55499E-04   -0.70178E-05  3003   0.661E-03    0.189E-02
RMM:   7    -0.231480465053E+04   -0.81770E-06   -0.27658E-05  2968   0.540E-03
  67 F= -.23361092E+04 E0= -.23361092E+04  d E =-.571454E-03  mag=     2.0000
       N       E                     dE             d eps       ncg     rms          rms(c)
DAV:   1    -0.231480378968E+04    0.86004E-03   -0.60945E-02  4640   0.247E-01    0.764E-02
RMM:   2    -0.231480456520E+04   -0.77552E-03   -0.81008E-03  6281   0.555E-02    0.542E-02
RMM:   3    -0.231480462895E+04   -0.63754E-04   -0.74395E-04  3521   0.198E-02    0.704E-02
RMM:   4    -0.231480457071E+04    0.58244E-04   -0.83262E-05  2969   0.645E-03    0.265E-02
RMM:   5    -0.231480457497E+04   -0.42663E-05   -0.25983E-05  2941   0.368E-03
  68 F= -.23361092E+04 E0= -.23361092E+04  d E =-.606732E-03  mag=     2.0000
       N       E                     dE             d eps       ncg     rms          rms(c)
DAV:   1    -0.231480328336E+04    0.12874E-02   -0.12402E-01  4512   0.354E-01    0.119E-01
RMM:   2    -0.231480492777E+04   -0.16444E-02   -0.16676E-02  6042   0.790E-02    0.996E-02
RMM:   3    -0.231480501839E+04   -0.90621E-04   -0.15315E-03  4140   0.294E-02    0.102E-01
RMM:   4    -0.231480487073E+04    0.14766E-03   -0.17294E-04  3039   0.907E-03    0.326E-02
RMM:   5    -0.231480487709E+04   -0.63602E-05   -0.64040E-05  3102   0.607E-03
  69 F= -.23361097E+04 E0= -.23361097E+04  d E =-.493212E-03  mag=     2.0000
       N       E                     dE             d eps       ncg     rms          rms(c)
DAV:   1    -0.231480443646E+04    0.43427E-03   -0.26876E-02  4864   0.165E-01    0.600E-02
RMM:   2    -0.231480486761E+04   -0.43114E-03   -0.37633E-03  6214   0.393E-02    0.937E-02
RMM:   3    -0.231480481295E+04    0.54660E-04   -0.40225E-04  3224   0.141E-02    0.507E-02
RMM:   4    -0.231480479200E+04    0.20950E-04   -0.47632E-05  2967   0.519E-03    0.281E-02
RMM:   5    -0.231480478575E+04    0.62488E-05   -0.15318E-05  2909   0.311E-03
  70 F= -.23361097E+04 E0= -.23361097E+04  d E =-.491611E-03  mag=     2.0000
       N       E                     dE             d eps       ncg     rms          rms(c)
DAV:   1    -0.231480300097E+04    0.17910E-02   -0.14213E-01  4504   0.369E-01    0.122E-01
RMM:   2    -0.231480509921E+04   -0.20982E-02   -0.21032E-02  6077   0.834E-02    0.113E-01
RMM:   3    -0.231480515557E+04   -0.56364E-04   -0.18465E-03  4249   0.302E-02    0.999E-02
RMM:   4    -0.231480501830E+04    0.13728E-03   -0.19635E-04  3038   0.888E-03    0.370E-02
RMM:   5    -0.231480503043E+04   -0.12131E-04   -0.62998E-05  2994   0.539E-03    0.559E-02
RMM:   6    -0.231480500602E+04    0.24408E-04   -0.47150E-05  2943   0.536E-03    0.246E-02
RMM:   7    -0.231480500510E+04    0.91713E-06   -0.22935E-05  2929   0.443E-03
  71 F= -.23361102E+04 E0= -.23361102E+04  d E =-.453689E-03  mag=     2.0000
       N       E                     dE             d eps       ncg     rms          rms(c)
DAV:   1    -0.231480409712E+04    0.90890E-03   -0.55707E-02  4576   0.231E-01    0.771E-02
RMM:   2    -0.231480491962E+04   -0.82250E-03   -0.82886E-03  6243   0.541E-02    0.684E-02
RMM:   3    -0.231480495191E+04   -0.32289E-04   -0.75122E-04  3470   0.190E-02    0.633E-02
RMM:   4    -0.231480489590E+04    0.56015E-04   -0.78948E-05  2954   0.632E-03    0.218E-02
RMM:   5    -0.231480489575E+04    0.14922E-06   -0.24658E-05  2955   0.370E-03
  72 F= -.23361102E+04 E0= -.23361102E+04  d E =-.491319E-03  mag=     2.0000
       N       E                     dE             d eps       ncg     rms          rms(c)
DAV:   1    -0.231480307822E+04    0.18177E-02   -0.16538E-01  4504   0.405E-01    0.138E-01
RMM:   2    -0.231480530500E+04   -0.22268E-02   -0.22253E-02  6061   0.898E-02    0.134E-01
RMM:   3    -0.231480536413E+04   -0.59128E-04   -0.19544E-03  4489   0.332E-02    0.134E-01
RMM:   4    -0.231480517037E+04    0.19376E-03   -0.25095E-04  3123   0.100E-02    0.559E-02
RMM:   5    -0.231480516035E+04    0.10019E-04   -0.76454E-05  2972   0.637E-03    0.507E-02
RMM:   6    -0.231480512764E+04    0.32709E-04   -0.62538E-05  3107   0.616E-03    0.184E-02
RMM:   7    -0.231480512878E+04   -0.11418E-05   -0.25871E-05  2952   0.534E-03
  73 F= -.23361106E+04 E0= -.23361106E+04  d E =-.420452E-03  mag=     2.0000
       N       E                     dE             d eps       ncg     rms          rms(c)
DAV:   1    -0.231480497556E+04    0.15209E-03   -0.78266E-03  5072   0.886E-02    0.308E-02
RMM:   2    -0.231480507855E+04   -0.10299E-03   -0.10748E-03  5680   0.210E-02    0.226E-02
RMM:   3    -0.231480508695E+04   -0.84029E-05   -0.11183E-04  2953   0.870E-03    0.268E-02
RMM:   4    -0.231480507710E+04    0.98546E-05   -0.12097E-05  2907   0.294E-03
  74 F= -.23361106E+04 E0= -.23361106E+04  d E =-.409939E-03  mag=     2.0000
       N       E                     dE             d eps       ncg     rms          rms(c)
DAV:   1    -0.231480347789E+04    0.16091E-02   -0.14053E-01  4504   0.366E-01    0.119E-01
RMM:   2    -0.231480540101E+04   -0.19231E-02   -0.19355E-02  6122   0.813E-02    0.115E-01
RMM:   3    -0.231480551841E+04   -0.11740E-03   -0.17970E-03  4095   0.294E-02    0.125E-01
RMM:   4    -0.231480535599E+04    0.16242E-03   -0.21429E-04  3053   0.910E-03    0.429E-02
RMM:   5    -0.231480536188E+04   -0.58856E-05   -0.62487E-05  2967   0.562E-03
  75 F= -.23361111E+04 E0= -.23361111E+04  d E =-.455874E-03  mag=     2.0000
       N       E                     dE             d eps       ncg     rms          rms(c)
DAV:   1    -0.231480454128E+04    0.81471E-03   -0.52326E-02  4528   0.224E-01    0.737E-02
RMM:   2    -0.231480526079E+04   -0.71952E-03   -0.73052E-03  6320   0.513E-02    0.671E-02
RMM:   3    -0.231480530284E+04   -0.42050E-04   -0.68587E-04  3367   0.178E-02    0.708E-02
RMM:   4    -0.231480524451E+04    0.58335E-04   -0.77948E-05  2962   0.630E-03    0.271E-02
RMM:   5    -0.231480525432E+04   -0.98086E-05   -0.32852E-05  2941   0.414E-03
  76 F= -.23361111E+04 E0= -.23361111E+04  d E =-.453971E-03  mag=     2.0000
       N       E                     dE             d eps       ncg     rms          rms(c)
DAV:   1    -0.231480424158E+04    0.10029E-02   -0.90327E-02  4504   0.289E-01    0.916E-02
RMM:   2    -0.231480549792E+04   -0.12563E-02   -0.12718E-02  6189   0.650E-02    0.885E-02
RMM:   3    -0.231480558002E+04   -0.82102E-04   -0.11615E-03  3708   0.235E-02    0.961E-02
RMM:   4    -0.231480548517E+04    0.94853E-04   -0.13545E-04  3009   0.741E-03    0.317E-02
RMM:   5    -0.231480548913E+04   -0.39583E-05   -0.38471E-05  2954   0.425E-03
  77 F= -.23361115E+04 E0= -.23361115E+04  d E =-.398628E-03  mag=     2.0000
       N       E                     dE             d eps       ncg     rms          rms(c)
DAV:   1    -0.231480078666E+04    0.46985E-02   -0.34016E-01  4504   0.559E-01    0.178E-01
RMM:   2    -0.231480553967E+04   -0.47530E-02   -0.47613E-02  6160   0.124E-01    0.185E-01
RMM:   3    -0.231480577621E+04   -0.23653E-03   -0.44038E-03  5236   0.453E-02    0.184E-01
RMM:   4    -0.231480542483E+04    0.35137E-03   -0.50771E-04  3322   0.123E-02    0.629E-02
RMM:   5    -0.231480543900E+04   -0.14166E-04   -0.13874E-04  3027   0.769E-03    0.732E-02
RMM:   6    -0.231480537064E+04    0.68359E-04   -0.10108E-04  3256   0.740E-03    0.256E-02
RMM:   7    -0.231480537423E+04   -0.35856E-05   -0.49053E-05  2984   0.622E-03
  78 F= -.23361117E+04 E0= -.23361117E+04  d E =-.601815E-03  mag=     2.0000
       N       E                     dE             d eps       ncg     rms          rms(c)
DAV:   1    -0.231480420931E+04    0.11613E-02   -0.10340E-01  4512   0.312E-01    0.992E-02
RMM:   2    -0.231480565882E+04   -0.14495E-02   -0.14842E-02  6294   0.709E-02    0.877E-02
RMM:   3    -0.231480578381E+04   -0.12499E-03   -0.14581E-03  3843   0.262E-02    0.105E-01
RMM:   4    -0.231480567307E+04    0.11074E-03   -0.15774E-04  2996   0.810E-03    0.344E-02
RMM:   5    -0.231480567518E+04   -0.21063E-05   -0.43145E-05  2972   0.452E-03
  79 F= -.23361121E+04 E0= -.23361121E+04  d E =-.477723E-03  mag=     2.0000
       N       E                     dE             d eps       ncg     rms          rms(c)
DAV:   1    -0.231480058937E+04    0.50837E-02   -0.36182E-01  4504   0.583E-01    0.185E-01
RMM:   2    -0.231480575310E+04   -0.51637E-02   -0.51904E-02  6135   0.130E-01    0.184E-01
RMM:   3    -0.231480602177E+04   -0.26867E-03   -0.47051E-03  5360   0.470E-02    0.187E-01
RMM:   4    -0.231480565696E+04    0.36480E-03   -0.53931E-04  3419   0.127E-02    0.680E-02
RMM:   5    -0.231480567252E+04   -0.15560E-04   -0.15237E-04  3046   0.797E-03    0.768E-02
RMM:   6    -0.231480559959E+04    0.72937E-04   -0.10884E-04  3428   0.765E-03    0.246E-02
RMM:   7    -0.231480560441E+04   -0.48211E-05   -0.45948E-05  2982   0.625E-03
  80 F= -.23361124E+04 E0= -.23361124E+04  d E =-.738056E-03  mag=     2.0000
       N       E                     dE             d eps       ncg     rms          rms(c)
DAV:   1    -0.231480414579E+04    0.14538E-02   -0.11641E-01  4504   0.329E-01    0.109E-01
RMM:   2    -0.231480585500E+04   -0.17092E-02   -0.17769E-02  6230   0.766E-02    0.797E-02
RMM:   3    -0.231480599746E+04   -0.14246E-03   -0.17607E-03  3999   0.297E-02    0.936E-02
RMM:   4    -0.231480589119E+04    0.10627E-03   -0.17734E-04  2995   0.844E-03    0.359E-02
RMM:   5    -0.231480590096E+04   -0.97721E-05   -0.51573E-05  2979   0.504E-03
  81 F= -.23361129E+04 E0= -.23361129E+04  d E =-.476110E-03  mag=     2.0000
       N       E                     dE             d eps       ncg     rms          rms(c)
DAV:   1    -0.231480387324E+04    0.20180E-02   -0.13108E-01  4504   0.349E-01    0.116E-01
RMM:   2    -0.231480584069E+04   -0.19675E-02   -0.20108E-02  6238   0.811E-02    0.981E-02
RMM:   3    -0.231480595495E+04   -0.11425E-03   -0.19473E-03  4073   0.305E-02    0.988E-02
RMM:   4    -0.231480582447E+04    0.13048E-03   -0.20090E-04  3024   0.895E-03    0.352E-02
RMM:   5    -0.231480583467E+04   -0.10206E-04   -0.62462E-05  3053   0.567E-03    0.550E-02
RMM:   6    -0.231480580891E+04    0.25760E-04   -0.43436E-05  2938   0.558E-03    0.199E-02
RMM:   7    -0.231480580504E+04    0.38695E-05   -0.11599E-05  2927   0.348E-03
  82 F= -.23361130E+04 E0= -.23361130E+04  d E =-.571390E-03  mag=     2.0000
       N       E                     dE             d eps       ncg     rms          rms(c)
DAV:   1    -0.231480387541E+04    0.19335E-02   -0.14296E-01  4504   0.363E-01    0.122E-01
RMM:   2    -0.231480602042E+04   -0.21450E-02   -0.22314E-02  6235   0.848E-02    0.886E-02
RMM:   3    -0.231480618773E+04   -0.16731E-03   -0.22353E-03  4145   0.327E-02    0.989E-02
RMM:   4    -0.231480605341E+04    0.13432E-03   -0.21861E-04  3012   0.920E-03    0.348E-02
RMM:   5    -0.231480604048E+04    0.12928E-04   -0.56946E-05  3017   0.577E-03    0.238E-02
RMM:   6    -0.231480605226E+04   -0.11777E-04   -0.32624E-05  2951   0.520E-03    0.412E-02
RMM:   7    -0.231480603517E+04    0.17084E-04   -0.15196E-05  2897   0.369E-03    0.768E-03
RMM:   8    -0.231480603479E+04    0.38616E-06   -0.40927E-06  2840   0.278E-03
  83 F= -.23361134E+04 E0= -.23361134E+04  d E =-.452255E-03  mag=     2.0000
       N       E                     dE             d eps       ncg     rms          rms(c)
DAV:   1    -0.231480530102E+04    0.73416E-03   -0.43690E-02  4576   0.201E-01    0.676E-02
RMM:   2    -0.231480596530E+04   -0.66428E-03   -0.68669E-03  6051   0.463E-02    0.524E-02
RMM:   3    -0.231480600858E+04   -0.43279E-04   -0.65393E-04  3217   0.166E-02    0.558E-02
RMM:   4    -0.231480596525E+04    0.43329E-04   -0.67745E-05  2950   0.546E-03    0.193E-02
RMM:   5    -0.231480596377E+04    0.14847E-05   -0.19391E-05  2957   0.331E-03
  84 F= -.23361135E+04 E0= -.23361135E+04  d E =-.504289E-03  mag=     2.0000
       N       E                     dE             d eps       ncg     rms          rms(c)
DAV:   1    -0.231480460294E+04    0.13623E-02   -0.10702E-01  4512   0.322E-01    0.110E-01
RMM:   2    -0.231480612526E+04   -0.15223E-02   -0.15861E-02  6067   0.733E-02    0.831E-02
RMM:   3    -0.231480628173E+04   -0.15647E-03   -0.16764E-03  4028   0.285E-02    0.119E-01
RMM:   4    -0.231480613268E+04    0.14905E-03   -0.17702E-04  3001   0.845E-03    0.411E-02
RMM:   5    -0.231480613419E+04   -0.15091E-05   -0.52546E-05  2974   0.483E-03
  85 F= -.23361139E+04 E0= -.23361139E+04  d E =-.398778E-03  mag=     2.0000
       N       E                     dE             d eps       ncg     rms          rms(c)
DAV:   1    -0.231480560705E+04    0.52563E-03   -0.28092E-02  4752   0.165E-01    0.579E-02
RMM:   2    -0.231480601097E+04   -0.40392E-03   -0.42396E-03  6171   0.385E-02    0.447E-02
RMM:   3    -0.231480604890E+04   -0.37936E-04   -0.45626E-04  3163   0.150E-02    0.565E-02
RMM:   4    -0.231480601097E+04    0.37938E-04   -0.47017E-05  2932   0.503E-03    0.211E-02
RMM:   5    -0.231480601717E+04   -0.62061E-05   -0.21389E-05  2922   0.316E-03
  86 F= -.23361139E+04 E0= -.23361139E+04  d E =-.400350E-03  mag=     2.0000
       N       E                     dE             d eps       ncg     rms          rms(c)
DAV:   1    -0.231480464174E+04    0.13692E-02   -0.10645E-01  4512   0.313E-01    0.105E-01
RMM:   2    -0.231480617635E+04   -0.15346E-02   -0.16177E-02  6077   0.719E-02    0.741E-02
RMM:   3    -0.231480632903E+04   -0.15268E-03   -0.15542E-03  3917   0.275E-02    0.106E-01
RMM:   4    -0.231480621339E+04    0.11564E-03   -0.16969E-04  2998   0.806E-03    0.365E-02
RMM:   5    -0.231480621900E+04   -0.56048E-05   -0.52152E-05  2956   0.500E-03
  87 F= -.23361143E+04 E0= -.23361143E+04  d E =-.395005E-03  mag=     2.0000
       N       E                     dE             d eps       ncg     rms          rms(c)
DAV:   1    -0.231480480207E+04    0.14113E-02   -0.86820E-02  4512   0.283E-01    0.971E-02
RMM:   2    -0.231480607660E+04   -0.12745E-02   -0.13242E-02  6275   0.659E-02    0.770E-02
RMM:   3    -0.231480617904E+04   -0.10244E-03   -0.13240E-03  3684   0.243E-02    0.919E-02
RMM:   4    -0.231480608059E+04    0.98458E-04   -0.14177E-04  2975   0.780E-03    0.349E-02
RMM:   5    -0.231480609489E+04   -0.14309E-04   -0.54844E-05  2949   0.502E-03    0.510E-02
RMM:   6    -0.231480606615E+04    0.28744E-04   -0.31870E-05  2951   0.470E-03    0.128E-02
RMM:   7    -0.231480606575E+04    0.40440E-06   -0.10564E-05  2917   0.363E-03
  88 F= -.23361143E+04 E0= -.23361143E+04  d E =-.416636E-03  mag=     2.0000
       N       E                     dE             d eps       ncg     rms          rms(c)
DAV:   1    -0.231480524814E+04    0.81801E-03   -0.72865E-02  4512   0.255E-01    0.859E-02
RMM:   2    -0.231480625732E+04   -0.10092E-02   -0.10715E-02  6144   0.585E-02    0.572E-02
RMM:   3    -0.231480638181E+04   -0.12449E-03   -0.10329E-03  3599   0.220E-02    0.925E-02
RMM:   4    -0.231480629819E+04    0.83626E-04   -0.11350E-04  2971   0.671E-03    0.262E-02
RMM:   5    -0.231480629683E+04    0.13551E-05   -0.28483E-05  2969   0.378E-03
  89 F= -.23361146E+04 E0= -.23361146E+04  d E =-.333081E-03  mag=     2.0000
       N       E                     dE             d eps       ncg     rms          rms(c)
DAV:   1    -0.231480242347E+04    0.38747E-02   -0.27024E-01  4504   0.491E-01    0.166E-01
RMM:   2    -0.231480624051E+04   -0.38170E-02   -0.39849E-02  6113   0.112E-01    0.128E-01
RMM:   3    -0.231480663229E+04   -0.39178E-03   -0.39133E-03  4790   0.425E-02    0.175E-01
RMM:   4    -0.231480630890E+04    0.32340E-03   -0.42351E-04  3124   0.115E-02    0.569E-02
RMM:   5    -0.231480633248E+04   -0.23580E-04   -0.13025E-04  3022   0.719E-03    0.722E-02
RMM:   6    -0.231480626986E+04    0.62614E-04   -0.84103E-05  3065   0.671E-03    0.199E-02
RMM:   7    -0.231480626825E+04    0.16134E-05   -0.25454E-05  2973   0.521E-03
  90 F= -.23361148E+04 E0= -.23361148E+04  d E =-.500671E-03  mag=     2.0000
       N       E                     dE             d eps       ncg     rms          rms(c)
DAV:   1    -0.231480485562E+04    0.14142E-02   -0.12554E-01  4512   0.333E-01    0.114E-01
RMM:   2    -0.231480657747E+04   -0.17219E-02   -0.18441E-02  6236   0.774E-02    0.733E-02
RMM:   3    -0.231480676580E+04   -0.18833E-03   -0.17748E-03  3954   0.289E-02    0.112E-01
RMM:   4    -0.231480664843E+04    0.11736E-03   -0.19108E-04  3003   0.847E-03    0.385E-02
RMM:   5    -0.231480665142E+04   -0.29846E-05   -0.58513E-05  2984   0.530E-03
  91 F= -.23361153E+04 E0= -.23361153E+04  d E =-.499547E-03  mag=     2.0000
       N       E                     dE             d eps       ncg     rms          rms(c)
DAV:   1    -0.231480485640E+04    0.17920E-02   -0.12470E-01  4512   0.332E-01    0.115E-01
RMM:   2    -0.231480660105E+04   -0.17446E-02   -0.18312E-02  6203   0.772E-02    0.889E-02
RMM:   3    -0.231480677405E+04   -0.17300E-03   -0.18390E-03  4027   0.294E-02    0.113E-01
RMM:   4    -0.231480662951E+04    0.14454E-03   -0.19389E-04  3002   0.883E-03    0.410E-02
RMM:   5    -0.231480664823E+04   -0.18726E-04   -0.74117E-05  2978   0.567E-03    0.588E-02
RMM:   6    -0.231480660664E+04    0.41598E-04   -0.44626E-05  2989   0.542E-03    0.135E-02
RMM:   7    -0.231480660460E+04    0.20404E-05   -0.12644E-05  2917   0.412E-03
  92 F= -.23361154E+04 E0= -.23361154E+04  d E =-.569013E-03  mag=     2.0000
       N       E                     dE             d eps       ncg     rms          rms(c)
DAV:   1    -0.231480487936E+04    0.17273E-02   -0.14191E-01  4504   0.351E-01    0.123E-01
RMM:   2    -0.231480687769E+04   -0.19983E-02   -0.21366E-02  6187   0.821E-02    0.740E-02
RMM:   3    -0.231480708961E+04   -0.21193E-03   -0.21020E-03  4088   0.315E-02    0.110E-01
RMM:   4    -0.231480697048E+04    0.11914E-03   -0.21347E-04  3014   0.863E-03    0.413E-02
RMM:   5    -0.231480698044E+04   -0.99641E-05   -0.63067E-05  2986   0.535E-03
  93 F= -.23361159E+04 E0= -.23361159E+04  d E =-.505681E-03  mag=     2.0000
       N       E                     dE             d eps       ncg     rms          rms(c)
DAV:   1    -0.231480480193E+04    0.21685E-02   -0.14398E-01  4504   0.354E-01    0.125E-01
RMM:   2    -0.231480687386E+04   -0.20719E-02   -0.21867E-02  6289   0.834E-02    0.866E-02
RMM:   3    -0.231480707464E+04   -0.20078E-03   -0.21809E-03  4175   0.312E-02    0.111E-01
RMM:   4    -0.231480692734E+04    0.14729E-03   -0.21978E-04  3007   0.916E-03    0.399E-02
RMM:   5    -0.231480694725E+04   -0.19910E-04   -0.88985E-05  3036   0.628E-03    0.606E-02
RMM:   6    -0.231480690950E+04    0.37756E-04   -0.41998E-05  2960   0.553E-03    0.198E-02
RMM:   7    -0.231480690756E+04    0.19372E-05   -0.13667E-05  2925   0.363E-03
  94 F= -.23361159E+04 E0= -.23361159E+04  d E =-.564152E-03  mag=     2.0000
       N       E                     dE             d eps       ncg     rms          rms(c)
DAV:   1    -0.231480521501E+04    0.16945E-02   -0.13297E-01  4512   0.326E-01    0.115E-01
RMM:   2    -0.231480714094E+04   -0.19259E-02   -0.20689E-02  6321   0.780E-02    0.656E-02
RMM:   3    -0.231480730815E+04   -0.16720E-03   -0.20349E-03  3809   0.290E-02    0.808E-02
RMM:   4    -0.231480724857E+04    0.59576E-04   -0.19695E-04  3013   0.793E-03    0.413E-02
RMM:   5    -0.231480725325E+04   -0.46828E-05   -0.54028E-05  2971   0.491E-03
  95 F= -.23361164E+04 E0= -.23361164E+04  d E =-.487004E-03  mag=     2.0000
       N       E                     dE             d eps       ncg     rms          rms(c)
DAV:   1    -0.231480366470E+04    0.35839E-02   -0.23201E-01  4520   0.431E-01    0.153E-01
RMM:   2    -0.231480708775E+04   -0.34231E-02   -0.36219E-02  6294   0.103E-01    0.105E-01
RMM:   3    -0.231480739634E+04   -0.30859E-03   -0.36936E-03  4639   0.386E-02    0.127E-01
RMM:   4    -0.231480720397E+04    0.19237E-03   -0.35350E-04  3059   0.103E-02    0.491E-02
RMM:   5    -0.231480721046E+04   -0.64895E-05   -0.10702E-04  3157   0.644E-03    0.671E-02
RMM:   6    -0.231480717911E+04    0.31346E-04   -0.74997E-05  2960   0.637E-03    0.328E-02
RMM:   7    -0.231480717345E+04    0.56622E-05   -0.24578E-05  2959   0.433E-03
  96 F= -.23361165E+04 E0= -.23361165E+04  d E =-.594563E-03  mag=     2.0000
       N       E                     dE             d eps       ncg     rms          rms(c)
DAV:   1    -0.231480502511E+04    0.21540E-02   -0.16650E-01  4504   0.365E-01    0.132E-01
RMM:   2    -0.231480742000E+04   -0.23949E-02   -0.25851E-02  6300   0.869E-02    0.738E-02
RMM:   3    -0.231480764385E+04   -0.22384E-03   -0.25439E-03  4036   0.327E-02    0.989E-02
RMM:   4    -0.231480756012E+04    0.83727E-04   -0.24996E-04  3019   0.871E-03    0.484E-02
[...]
DAV:   1    -0.231482918732E+04    0.51607E-04   -0.33233E-03  5480   0.587E-02    0.271E-02
RMM:   2    -0.231482925717E+04   -0.69850E-04   -0.48690E-04  4774   0.148E-02    0.487E-02
RMM:   3    -0.231482923027E+04    0.26898E-04   -0.70177E-05  2943   0.758E-03    0.166E-02
RMM:   4    -0.231482922934E+04    0.92837E-06   -0.94976E-06  2916   0.240E-03
 168 F= -.23361398E+04 E0= -.23361398E+04  d E =-.421171E-03  mag=     2.0000
       N       E                     dE             d eps       ncg     rms          rms(c)
DAV:   1    -0.231482838266E+04    0.84761E-03   -0.98816E-02  4528   0.306E-01    0.113E-01
RMM:   2    -0.231482963514E+04   -0.12525E-02   -0.13329E-02  5995   0.678E-02    0.733E-02
RMM:   3    -0.231482985259E+04   -0.21745E-03   -0.14334E-03  3988   0.270E-02    0.134E-01
RMM:   4    -0.231482966905E+04    0.18353E-03   -0.16045E-04  3011   0.840E-03    0.356E-02
RMM:   5    -0.231482968101E+04   -0.11959E-04   -0.59558E-05  3014   0.543E-03    0.499E-02
RMM:   6    -0.231482964802E+04    0.32989E-04   -0.46661E-05  2973   0.590E-03    0.112E-02
RMM:   7    -0.231482964766E+04    0.36359E-06   -0.13124E-05  2934   0.441E-03
 169 F= -.23361402E+04 E0= -.23361402E+04  d E =-.348560E-03  mag=     2.0000
       N       E                     dE             d eps       ncg     rms          rms(c)
DAV:   1    -0.231482964034E+04    0.76869E-05   -0.74780E-04  5216   0.271E-02    0.111E-02
RMM:   2    -0.231482965019E+04   -0.98482E-05   -0.11019E-04  3187   0.699E-03    0.758E-03
RMM:   3    -0.231482965140E+04   -0.12100E-05   -0.14035E-05  2639   0.448E-03
 170 F= -.23361402E+04 E0= -.23361402E+04  d E =-.346121E-03  mag=     2.0000
       N       E                     dE             d eps       ncg     rms          rms(c)
DAV:   1    -0.231482875247E+04    0.89771E-03   -0.10105E-01  4496   0.312E-01    0.115E-01
RMM:   2    -0.231483001029E+04   -0.12578E-02   -0.13585E-02  6005   0.696E-02    0.604E-02
RMM:   3    -0.231483014131E+04   -0.13102E-03   -0.13162E-03  4029   0.268E-02    0.828E-02
RMM:   4    -0.231483005434E+04    0.86971E-04   -0.14443E-04  3024   0.805E-03    0.354E-02
RMM:   5    -0.231483006151E+04   -0.71670E-05   -0.57991E-05  3007   0.576E-03
 171 F= -.23361406E+04 E0= -.23361406E+04  d E =-.388232E-03  mag=     2.0000
       N       E                     dE             d eps       ncg     rms          rms(c)
DAV:   1    -0.231483002908E+04    0.25258E-04   -0.58792E-04  5376   0.259E-02    0.197E-02
RMM:   2    -0.231483008053E+04   -0.51450E-04   -0.12544E-04  3251   0.702E-03    0.665E-02
RMM:   3    -0.231483003472E+04    0.45810E-04   -0.30321E-05  2841   0.459E-03    0.910E-03
RMM:   4    -0.231483003458E+04    0.14398E-06   -0.51794E-06  2552   0.153E-03
 172 F= -.23361406E+04 E0= -.23361406E+04  d E =-.359624E-03  mag=     2.0000
       N       E                     dE             d eps       ncg     rms          rms(c)
DAV:   1    -0.231482907635E+04    0.95837E-03   -0.10001E-01  4496   0.305E-01    0.110E-01
RMM:   2    -0.231483035036E+04   -0.12740E-02   -0.13701E-02  5993   0.686E-02    0.604E-02
RMM:   3    -0.231483046451E+04   -0.11414E-03   -0.13110E-03  3964   0.264E-02    0.785E-02
RMM:   4    -0.231483038538E+04    0.79131E-04   -0.14171E-04  3019   0.793E-03    0.338E-02
RMM:   5    -0.231483037957E+04    0.58073E-05   -0.54453E-05  3109   0.580E-03
 173 F= -.23361409E+04 E0= -.23361409E+04  d E =-.362082E-03  mag=     2.0000
       N       E                     dE             d eps       ncg     rms          rms(c)
DAV:   1    -0.231483034830E+04    0.37073E-04   -0.14200E-03  5400   0.379E-02    0.286E-02
RMM:   2    -0.231483047124E+04   -0.12294E-03   -0.30663E-04  3681   0.106E-02    0.102E-01
RMM:   3    -0.231483036308E+04    0.10816E-03   -0.69595E-05  2943   0.648E-03    0.109E-02
RMM:   4    -0.231483036239E+04    0.69062E-06   -0.98033E-06  2842   0.201E-03
 174 F= -.23361409E+04 E0= -.23361409E+04  d E =-.347015E-03  mag=     2.0000
       N       E                     dE             d eps       ncg     rms          rms(c)
DAV:   1    -0.231482962219E+04    0.74089E-03   -0.90662E-02  4496   0.284E-01    0.103E-01
RMM:   2    -0.231483076327E+04   -0.11411E-02   -0.12212E-02  6007   0.642E-02    0.562E-02
RMM:   3    -0.231483085487E+04   -0.91604E-04   -0.11310E-03  3781   0.243E-02    0.685E-02
RMM:   4    -0.231483079489E+04    0.59982E-04   -0.12181E-04  3010   0.748E-03    0.340E-02
RMM:   5    -0.231483079318E+04    0.17030E-05   -0.48874E-05  2963   0.512E-03
 175 F= -.23361413E+04 E0= -.23361413E+04  d E =-.401750E-03  mag=     2.0000
       N       E                     dE             d eps       ncg     rms          rms(c)
DAV:   1    -0.231483058708E+04    0.20781E-03   -0.17279E-02  5048   0.125E-01    0.515E-02
RMM:   2    -0.231483089369E+04   -0.30662E-03   -0.24499E-03  6039   0.306E-02    0.938E-02
RMM:   3    -0.231483082717E+04    0.66526E-04   -0.27971E-04  3043   0.122E-02    0.401E-02
RMM:   4    -0.231483081624E+04    0.10931E-04   -0.34551E-05  2945   0.436E-03    0.253E-02
RMM:   5    -0.231483080954E+04    0.66999E-05   -0.11701E-05  2881   0.267E-03
 176 F= -.23361413E+04 E0= -.23361413E+04  d E =-.405432E-03  mag=     2.0000
       N       E                     dE             d eps       ncg     rms          rms(c)
DAV:   1    -0.231483025362E+04    0.56262E-03   -0.83630E-02  4496   0.269E-01    0.945E-02
RMM:   2    -0.231483125620E+04   -0.10026E-02   -0.10734E-02  6006   0.604E-02    0.504E-02
RMM:   3    -0.231483133568E+04   -0.79480E-04   -0.99364E-04  3671   0.228E-02    0.638E-02
RMM:   4    -0.231483128764E+04    0.48041E-04   -0.10646E-04  2993   0.685E-03    0.293E-02
RMM:   5    -0.231483127786E+04    0.97710E-05   -0.37402E-05  2977   0.484E-03
 177 F= -.23361417E+04 E0= -.23361417E+04  d E =-.390694E-03  mag=     2.0000
       N       E                     dE             d eps       ncg     rms          rms(c)
DAV:   1    -0.231483107940E+04    0.20823E-03   -0.22090E-02  4832   0.139E-01    0.519E-02
RMM:   2    -0.231483137165E+04   -0.29224E-03   -0.29307E-03  6122   0.335E-02    0.483E-02
RMM:   3    -0.231483137710E+04   -0.54531E-05   -0.30320E-04  3096   0.126E-02    0.445E-02
RMM:   4    -0.231483136071E+04    0.16385E-04   -0.37851E-05  2942   0.463E-03    0.326E-02
RMM:   5    -0.231483135128E+04    0.94322E-05   -0.12822E-05  2869   0.260E-03
 178 F= -.23361417E+04 E0= -.23361417E+04  d E =-.424222E-03  mag=     2.0000
       N       E                     dE             d eps       ncg     rms          rms(c)
DAV:   1    -0.231483062892E+04    0.73179E-03   -0.10564E-01  4496   0.307E-01    0.113E-01
RMM:   2    -0.231483187390E+04   -0.12450E-02   -0.12881E-02  5983   0.680E-02    0.835E-02
RMM:   3    -0.231483198028E+04   -0.10638E-03   -0.12536E-03  3873   0.260E-02    0.100E-01
RMM:   4    -0.231483183675E+04    0.14353E-03   -0.14063E-04  3030   0.849E-03    0.281E-02
RMM:   5    -0.231483182966E+04    0.70933E-05   -0.60339E-05  3382   0.605E-03
 179 F= -.23361421E+04 E0= -.23361421E+04  d E =-.410273E-03  mag=     2.0000
       N       E                     dE             d eps       ncg     rms          rms(c)
DAV:   1    -0.231483176334E+04    0.73415E-04   -0.78287E-03  5296   0.841E-02    0.379E-02
RMM:   2    -0.231483193269E+04   -0.16935E-03   -0.10367E-03  5591   0.208E-02    0.841E-02
RMM:   3    -0.231483185811E+04    0.74578E-04   -0.13382E-04  2984   0.905E-03    0.255E-02
RMM:   4    -0.231483185545E+04    0.26608E-05   -0.23323E-05  2945   0.327E-03
 180 F= -.23361421E+04 E0= -.23361421E+04  d E =-.417460E-03  mag=     2.0000
       N       E                     dE             d eps       ncg     rms          rms(c)
DAV:   1    -0.231483115119E+04    0.70692E-03   -0.88177E-02  4496   0.281E-01    0.103E-01
RMM:   2    -0.231483220644E+04   -0.10552E-02   -0.11292E-02  6007   0.637E-02    0.593E-02
RMM:   3    -0.231483231891E+04   -0.11247E-03   -0.10887E-03  3812   0.249E-02    0.879E-02
RMM:   4    -0.231483223043E+04    0.88484E-04   -0.12440E-04  3001   0.759E-03    0.395E-02
RMM:   5    -0.231483223613E+04   -0.56968E-05   -0.48681E-05  2966   0.498E-03
 181 F= -.23361425E+04 E0= -.23361425E+04  d E =-.368120E-03  mag=     2.0000
       N       E                     dE             d eps       ncg     rms          rms(c)
DAV:   1    -0.231483218996E+04    0.40471E-04   -0.16566E-03  5440   0.404E-02    0.221E-02
RMM:   2    -0.231483224057E+04   -0.50610E-04   -0.25975E-04  3825   0.107E-02    0.509E-02
RMM:   3    -0.231483221055E+04    0.30015E-04   -0.41874E-05  2942   0.624E-03    0.150E-02
RMM:   4    -0.231483220989E+04    0.66083E-06   -0.78548E-06  2791   0.195E-03
 182 F= -.23361425E+04 E0= -.23361425E+04  d E =-.340144E-03  mag=     2.0000
       N       E                     dE             d eps       ncg     rms          rms(c)
DAV:   1    -0.231483155790E+04    0.65265E-03   -0.83919E-02  4496   0.275E-01    0.103E-01
RMM:   2    -0.231483253715E+04   -0.97925E-03   -0.10512E-02  5983   0.613E-02    0.588E-02
RMM:   3    -0.231483264199E+04   -0.10484E-03   -0.10135E-03  3783   0.235E-02    0.860E-02
RMM:   4    -0.231483254699E+04    0.95005E-04   -0.11574E-04  2990   0.746E-03    0.335E-02
RMM:   5    -0.231483255919E+04   -0.12210E-04   -0.49721E-05  2971   0.509E-03    0.517E-02
RMM:   6    -0.231483253009E+04    0.29101E-04   -0.35266E-05  2956   0.525E-03    0.127E-02
RMM:   7    -0.231483252965E+04    0.44292E-06   -0.12505E-05  2934   0.403E-03
 183 F= -.23361428E+04 E0= -.23361428E+04  d E =-.319887E-03  mag=     2.0000
       N       E                     dE             d eps       ncg     rms          rms(c)
DAV:   1    -0.231483251126E+04    0.18829E-04   -0.13347E-03  5320   0.351E-02    0.141E-02
RMM:   2    -0.231483252756E+04   -0.16294E-04   -0.17782E-04  3451   0.897E-03    0.922E-03
RMM:   3    -0.231483252993E+04   -0.23717E-05   -0.20556E-05  2742   0.522E-03
 184 F= -.23361428E+04 E0= -.23361428E+04  d E =-.320198E-03  mag=     2.0000
       N       E                     dE             d eps       ncg     rms          rms(c)
DAV:   1    -0.231483203911E+04    0.48845E-03   -0.68394E-02  4496   0.249E-01    0.922E-02
RMM:   2    -0.231483283460E+04   -0.79549E-03   -0.84267E-03  5996   0.555E-02    0.595E-02
RMM:   3    -0.231483291463E+04   -0.80033E-04   -0.81883E-04  3641   0.216E-02    0.796E-02
RMM:   4    -0.231483282623E+04    0.88396E-04   -0.95189E-05  2977   0.709E-03    0.282E-02
RMM:   5    -0.231483283564E+04   -0.94094E-05   -0.40915E-05  2959   0.477E-03
 185 F= -.23361431E+04 E0= -.23361431E+04  d E =-.299710E-03  mag=     2.0000
       N       E                     dE             d eps       ncg     rms          rms(c)
DAV:   1    -0.231483276297E+04    0.63266E-04   -0.42174E-03  5376   0.629E-02    0.263E-02
RMM:   2    -0.231483282514E+04   -0.62175E-04   -0.54720E-04  4908   0.156E-02    0.383E-02
RMM:   3    -0.231483281800E+04    0.71369E-05   -0.77196E-05  2945   0.806E-03
 186 F= -.23361431E+04 E0= -.23361431E+04  d E =-.280582E-03  mag=     2.0000
       N       E                     dE             d eps       ncg     rms          rms(c)
DAV:   1    -0.231483231335E+04    0.51179E-03   -0.64882E-02  4528   0.240E-01    0.889E-02
RMM:   2    -0.231483314619E+04   -0.83284E-03   -0.84050E-03  6036   0.540E-02    0.787E-02
RMM:   3    -0.231483318579E+04   -0.39602E-04   -0.81441E-04  3506   0.198E-02    0.797E-02
RMM:   4    -0.231483310669E+04    0.79101E-04   -0.94531E-05  2986   0.673E-03    0.334E-02
RMM:   5    -0.231483311083E+04   -0.41419E-05   -0.32480E-05  2949   0.419E-03
 187 F= -.23361434E+04 E0= -.23361434E+04  d E =-.268260E-03  mag=     2.0000
       N       E                     dE             d eps       ncg     rms          rms(c)
DAV:   1    -0.231483294352E+04    0.16317E-03   -0.13469E-02  5024   0.110E-01    0.411E-02
RMM:   2    -0.231483311455E+04   -0.17103E-03   -0.17848E-03  5818   0.260E-02    0.337E-02
RMM:   3    -0.231483312847E+04   -0.13922E-04   -0.19324E-04  3010   0.106E-02    0.398E-02
RMM:   4    -0.231483311344E+04    0.15034E-04   -0.22843E-05  2932   0.371E-03    0.188E-02
RMM:   5    -0.231483311235E+04    0.10897E-05   -0.90958E-06  2830   0.214E-03
 188 F= -.23361433E+04 E0= -.23361433E+04  d E =-.258463E-03  mag=     2.0000
       N       E                     dE             d eps       ncg     rms          rms(c)
DAV:   1    -0.231483281103E+04    0.30241E-03   -0.47856E-02  4496   0.202E-01    0.735E-02
RMM:   2    -0.231483341345E+04   -0.60243E-03   -0.62591E-03  6004   0.456E-02    0.571E-02
RMM:   3    -0.231483345636E+04   -0.42903E-04   -0.59524E-04  3272   0.170E-02    0.640E-02
RMM:   4    -0.231483340033E+04    0.56032E-04   -0.67027E-05  2946   0.572E-03    0.206E-02
RMM:   5    -0.231483339921E+04    0.11132E-05   -0.26309E-05  2944   0.392E-03
 189 F= -.23361436E+04 E0= -.23361436E+04  d E =-.267668E-03  mag=     2.0000
       N       E                     dE             d eps       ncg     rms          rms(c)
DAV:   1    -0.231483310356E+04    0.29677E-03   -0.27937E-02  4592   0.155E-01    0.556E-02
RMM:   2    -0.231483344539E+04   -0.34183E-03   -0.37106E-03  6155   0.368E-02    0.317E-02
RMM:   3    -0.231483347422E+04   -0.28832E-04   -0.34298E-04  3103   0.133E-02    0.471E-02
RMM:   4    -0.231483345435E+04    0.19866E-04   -0.39674E-05  2941   0.428E-03    0.216E-02
RMM:   5    -0.231483345544E+04   -0.10884E-05   -0.15023E-05  2916   0.277E-03
 190 F= -.23361437E+04 E0= -.23361437E+04  d E =-.309299E-03  mag=     2.0000
       N       E                     dE             d eps       ncg     rms          rms(c)
DAV:   1    -0.231483320279E+04    0.25157E-03   -0.53260E-02  4528   0.219E-01    0.810E-02
RMM:   2    -0.231483378835E+04   -0.58557E-03   -0.63236E-03  6013   0.487E-02    0.485E-02
RMM:   3    -0.231483384901E+04   -0.60660E-04   -0.61900E-04  3554   0.193E-02    0.680E-02
RMM:   4    -0.231483378974E+04    0.59270E-04   -0.73482E-05  2946   0.632E-03    0.242E-02
RMM:   5    -0.231483379759E+04   -0.78497E-05   -0.33153E-05  2973   0.424E-03
 191 F= -.23361440E+04 E0= -.23361440E+04  d E =-.304839E-03  mag=     2.0000
       N       E                     dE             d eps       ncg     rms          rms(c)
DAV:   1    -0.231483366098E+04    0.12876E-03   -0.14522E-02  5032   0.115E-01    0.453E-02
RMM:   2    -0.231483385004E+04   -0.18905E-03   -0.17940E-03  5946   0.270E-02    0.563E-02
RMM:   3    -0.231483384392E+04    0.61130E-05   -0.19176E-04  3029   0.104E-02    0.458E-02
RMM:   4    -0.231483382649E+04    0.17430E-04   -0.26230E-05  2927   0.402E-03    0.231E-02
RMM:   5    -0.231483382123E+04    0.52652E-05   -0.10185E-05  2847   0.250E-03
 192 F= -.23361440E+04 E0= -.23361440E+04  d E =-.308879E-03  mag=     2.0000
       N       E                     dE             d eps       ncg     rms          rms(c)
DAV:   1    -0.231483363795E+04    0.18854E-03   -0.44454E-02  4528   0.201E-01    0.752E-02
RMM:   2    -0.231483411023E+04   -0.47228E-03   -0.49685E-03  5989   0.439E-02    0.526E-02
RMM:   3    -0.231483414425E+04   -0.34023E-04   -0.51085E-04  3357   0.171E-02    0.598E-02
RMM:   4    -0.231483409562E+04    0.48637E-04   -0.60709E-05  2952   0.603E-03    0.275E-02
RMM:   5    -0.231483409423E+04    0.13846E-05   -0.24119E-05  2915   0.359E-03
 193 F= -.23361442E+04 E0= -.23361442E+04  d E =-.231667E-03  mag=     2.0000
       N       E                     dE             d eps       ncg     rms          rms(c)
DAV:   1    -0.231483402289E+04    0.72730E-04   -0.86874E-03  5096   0.893E-02    0.390E-02
RMM:   2    -0.231483417616E+04   -0.15327E-03   -0.10479E-03  5682   0.209E-02    0.759E-02
RMM:   3    -0.231483411865E+04    0.57506E-04   -0.12082E-04  2993   0.877E-03    0.288E-02
RMM:   4    -0.231483411541E+04    0.32465E-05   -0.21778E-05  2936   0.318E-03
 194 F= -.23361442E+04 E0= -.23361442E+04  d E =-.234269E-03  mag=     2.0000
       N       E                     dE             d eps       ncg     rms          rms(c)
DAV:   1    -0.231483384426E+04    0.27439E-03   -0.48811E-02  4528   0.210E-01    0.761E-02
RMM:   2    -0.231483435017E+04   -0.50591E-03   -0.54912E-03  6058   0.459E-02    0.373E-02
RMM:   3    -0.231483437410E+04   -0.23933E-04   -0.48687E-04  3336   0.171E-02    0.370E-02
RMM:   4    -0.231483436316E+04    0.10935E-04   -0.57385E-05  2965   0.543E-03    0.274E-02
RMM:   5    -0.231483435667E+04    0.64905E-05   -0.27545E-05  2924   0.428E-03
 195 F= -.23361444E+04 E0= -.23361444E+04  d E =-.196954E-03  mag=     2.0000
       N       E                     dE             d eps       ncg     rms          rms(c)
DAV:   1    -0.231483431170E+04    0.51465E-04   -0.55037E-03  5216   0.711E-02    0.284E-02
RMM:   2    -0.231483438431E+04   -0.72605E-04   -0.65852E-04  5148   0.172E-02    0.347E-02
RMM:   3    -0.231483437853E+04    0.57724E-05   -0.76810E-05  2926   0.761E-03
 196 F= -.23361444E+04 E0= -.23361444E+04  d E =-.203743E-03  mag=     2.0000
       N       E                     dE             d eps       ncg     rms          rms(c)
DAV:   1    -0.231483415343E+04    0.23088E-03   -0.43687E-02  4496   0.207E-01    0.775E-02
RMM:   2    -0.231483463553E+04   -0.48210E-03   -0.49844E-03  6003   0.454E-02    0.625E-02
RMM:   3    -0.231483466495E+04   -0.29416E-04   -0.54017E-04  3386   0.176E-02    0.694E-02
RMM:   4    -0.231483461848E+04    0.46472E-04   -0.71479E-05  2944   0.629E-03    0.364E-02
RMM:   5    -0.231483460962E+04    0.88616E-05   -0.27854E-05  2930   0.404E-03
 197 F= -.23361446E+04 E0= -.23361446E+04  d E =-.199261E-03  mag=     2.0000
       N       E                     dE             d eps       ncg     rms          rms(c)
DAV:   1    -0.231483459613E+04    0.22348E-04   -0.10990E-03  5416   0.343E-02    0.265E-02
RMM:   2    -0.231483467307E+04   -0.76937E-04   -0.22946E-04  3546   0.951E-03    0.747E-02
RMM:   3    -0.231483460320E+04    0.69861E-04   -0.55909E-05  2899   0.584E-03    0.119E-02
RMM:   4    -0.231483460259E+04    0.61767E-06   -0.87503E-06  2687   0.189E-03
 198 F= -.23361446E+04 E0= -.23361446E+04  d E =-.186909E-03  mag=     2.0000
       N       E                     dE             d eps       ncg     rms          rms(c)
DAV:   1    -0.231483447436E+04    0.12885E-03   -0.30057E-02  4528   0.173E-01    0.636E-02
RMM:   2    -0.231483478009E+04   -0.30573E-03   -0.33703E-03  6025   0.372E-02    0.318E-02
RMM:   3    -0.231483480521E+04   -0.25128E-04   -0.31810E-04  3298   0.150E-02    0.438E-02
RMM:   4    -0.231483478209E+04    0.23127E-04   -0.38835E-05  2934   0.470E-03    0.196E-02
RMM:   5    -0.231483478353E+04   -0.14401E-05   -0.18563E-05  2940   0.340E-03
 199 F= -.23361447E+04 E0= -.23361447E+04  d E =-.152177E-03  mag=     2.0000
       N       E                     dE             d eps       ncg     rms          rms(c)
DAV:   1    -0.231483477428E+04    0.78094E-05   -0.37552E-04  5272   0.204E-02    0.114E-02
RMM:   2    -0.231483478848E+04   -0.14202E-04   -0.54826E-05  3081   0.532E-03    0.321E-02
RMM:   3    -0.231483477780E+04    0.10682E-04   -0.98971E-06  2579   0.344E-03    0.581E-03
RMM:   4    -0.231483477761E+04    0.18244E-06   -0.15109E-06  1961   0.111E-03
 200 F= -.23361447E+04 E0= -.23361447E+04  d E =-.142972E-03  mag=     2.0000
       N       E                     dE             d eps       ncg     rms          rms(c)
DAV:   1    -0.231483469873E+04    0.79069E-04   -0.21695E-02  4496   0.149E-01    0.541E-02
RMM:   2    -0.231483492768E+04   -0.22895E-03   -0.24874E-03  5976   0.321E-02    0.354E-02
RMM:   3    -0.231483496228E+04   -0.34605E-04   -0.23773E-04  3118   0.127E-02    0.635E-02
RMM:   4    -0.231483492110E+04    0.41182E-04   -0.35486E-05  2921   0.470E-03    0.160E-02
RMM:   5    -0.231483492288E+04   -0.17795E-05   -0.15258E-05  2903   0.316E-03
 201 F= -.23361449E+04 E0= -.23361449E+04  d E =-.129593E-03  mag=     2.0000
