       N       E                     dE             d eps       ncg     rms          rms(c)
DAV:   1     0.128632404215E+05    0.12863E+05   -0.83498E+05  4496   0.144E+03
DAV:   2    -0.104940568404E+04   -0.13913E+05   -0.13319E+05  5080   0.330E+02
DAV:   3    -0.246618547884E+04   -0.14168E+04   -0.14013E+04  5384   0.112E+02
DAV:   4    -0.251117574983E+04   -0.44990E+02   -0.44748E+02  6752   0.298E+01
DAV:   5    -0.251195611078E+04   -0.78036E+00   -0.77894E+00  5912   0.335E+00    0.170E+02
RMM:   6    -0.148705766501E+04    0.10249E+04   -0.19190E+03  4406   0.383E+01    0.719E+01
RMM:   7    -0.166007866676E+04   -0.17302E+03   -0.28934E+02  4994   0.140E+01    0.486E+01
RMM:   8    -0.171212182122E+04   -0.52043E+02   -0.38301E+01  5299   0.668E+00    0.412E+01
RMM:   9    -0.180579500777E+04   -0.93673E+02   -0.66952E+01  4867   0.744E+00    0.365E+01
RMM:  10    -0.190834447351E+04   -0.10255E+03   -0.58250E+01  5193   0.716E+00    0.275E+01
RMM:  11    -0.195438576296E+04   -0.46041E+02   -0.19572E+01  5327   0.369E+00    0.258E+01
RMM:  12    -0.202439856136E+04   -0.70013E+02   -0.22581E+01  4750   0.378E+00    0.159E+01
RMM:  13    -0.210137105788E+04   -0.76972E+02   -0.34193E+01  4708   0.435E+00    0.125E+01
RMM:  14    -0.223044146673E+04   -0.12907E+03   -0.11847E+02  4418   0.734E+00    0.992E+00
RMM:  15    -0.227281371962E+04   -0.42372E+02   -0.34142E+01  4453   0.484E+00    0.713E+00
RMM:  16    -0.229473185287E+04   -0.21918E+02   -0.20720E+01  4547   0.322E+00    0.410E+00
RMM:  17    -0.230241547120E+04   -0.76836E+01   -0.70819E+00  4704   0.221E+00    0.283E+00
RMM:  18    -0.230485481876E+04   -0.24393E+01   -0.20456E+00  5168   0.976E-01    0.218E+00
RMM:  19    -0.230556011805E+04   -0.70530E+00   -0.31191E-01  5134   0.403E-01    0.350E+00
RMM:  20    -0.230556195834E+04   -0.18403E-02   -0.32273E-02  5517   0.158E-01    0.351E+00
RMM:  21    -0.230556480484E+04   -0.28465E-02   -0.36732E-03  5658   0.347E-02    0.349E+00
RMM:  22    -0.230553864750E+04    0.26157E-01   -0.43513E-03  4716   0.423E-02    0.358E+00
RMM:  23    -0.230558418025E+04   -0.45533E-01   -0.74988E-03  4555   0.418E-02    0.349E+00
RMM:  24    -0.230581079862E+04   -0.22662E+00   -0.61663E-01  4440   0.328E-01    0.276E+00
RMM:  25    -0.230593553203E+04   -0.12473E+00   -0.43634E-02  4877   0.154E-01    0.261E+00
RMM:  26    -0.230595610967E+04   -0.20578E-01   -0.25995E-02  4594   0.715E-02    0.145E+00
RMM:  27    -0.230604725048E+04   -0.91141E-01   -0.32912E-02  4486   0.108E-01    0.154E+00
RMM:  28    -0.230613876615E+04   -0.91516E-01   -0.10228E-01  4487   0.151E-01    0.880E-01
RMM:  29    -0.230614995356E+04   -0.11187E-01   -0.18414E-02  4683   0.966E-02    0.663E-01
RMM:  30    -0.230617029130E+04   -0.20338E-01   -0.92297E-03  4551   0.542E-02    0.199E-01
RMM:  31    -0.230619005358E+04   -0.19762E-01   -0.85395E-03  4430   0.544E-02    0.420E-01
RMM:  32    -0.230619945831E+04   -0.94047E-02   -0.25790E-03  4670   0.353E-02    0.163E-01
RMM:  33    -0.230620538596E+04   -0.59277E-02   -0.16403E-03  4367   0.261E-02    0.171E-01
RMM:  34    -0.230621012037E+04   -0.47344E-02   -0.11370E-03  4092   0.217E-02    0.644E-02
RMM:  35    -0.230621376595E+04   -0.36456E-02   -0.97001E-04  4128   0.197E-02    0.836E-02
RMM:  36    -0.230621437047E+04   -0.60451E-03   -0.21491E-04  3927   0.142E-02    0.108E-01
RMM:  37    -0.230621460802E+04   -0.23755E-03   -0.11102E-04  3515   0.681E-03    0.442E-02
RMM:  38    -0.230621491903E+04   -0.31101E-03   -0.84936E-05  3486   0.756E-03    0.772E-03
RMM:  39    -0.230621502530E+04   -0.10627E-03   -0.31179E-05  3145   0.477E-03    0.125E-02
RMM:  40    -0.230621506053E+04   -0.35232E-04   -0.12637E-05  2876   0.390E-03    0.642E-03
RMM:  41    -0.230621507444E+04   -0.13913E-04   -0.75325E-06  2756   0.276E-03    0.303E-03
RMM:  42    -0.230621507779E+04   -0.33514E-05   -0.28384E-06  2427   0.218E-03
   1 F= -.23269500E+04 E0= -.23269452E+04  d E =-.232695E+04  mag=     5.9995
       N       E                     dE             d eps       ncg     rms          rms(c)
DAV:   1    -0.230604225442E+04    0.17282E+00   -0.10315E+01  4960   0.215E+00    0.133E+00
RMM:   2    -0.230632095836E+04   -0.27870E+00   -0.28448E+00  6072   0.547E-01    0.124E+00
RMM:   3    -0.230634118250E+04   -0.20224E-01   -0.32975E-01  5710   0.257E-01    0.128E+00
RMM:   4    -0.230633663964E+04    0.45429E-02   -0.28928E-02  5363   0.486E-02    0.903E-01
RMM:   5    -0.230633484678E+04    0.17929E-02   -0.57462E-03  5070   0.268E-02    0.899E-01
RMM:   6    -0.230632490550E+04    0.99413E-02   -0.16658E-02  4931   0.452E-02    0.327E-01
RMM:   7    -0.230632569788E+04   -0.79238E-03   -0.21994E-03  4653   0.269E-02    0.380E-01
RMM:   8    -0.230632632362E+04   -0.62573E-03   -0.19330E-03  3719   0.157E-02    0.291E-01
RMM:   9    -0.230632619949E+04    0.12413E-03   -0.21835E-03  3840   0.167E-02    0.113E-01
RMM:  10    -0.230632604197E+04    0.15752E-03   -0.85796E-04  4632   0.125E-02    0.898E-02
RMM:  11    -0.230632598251E+04    0.59453E-04   -0.19525E-04  3435   0.927E-03    0.306E-02
RMM:  12    -0.230632597184E+04    0.10676E-04   -0.37473E-05  2953   0.519E-03    0.299E-02
RMM:  13    -0.230632596429E+04    0.75455E-05   -0.48950E-05  2910   0.498E-03
   2 F= -.23270650E+04 E0= -.23270626E+04  d E =-.114991E+00  mag=     5.9999
       N       E                     dE             d eps       ncg     rms          rms(c)
DAV:   1    -0.230618462094E+04    0.14135E+00   -0.58983E+00  4640   0.163E+00    0.933E-01
RMM:   2    -0.230633982188E+04   -0.15520E+00   -0.16503E+00  6085   0.416E-01    0.675E-01
RMM:   3    -0.230635357586E+04   -0.13754E-01   -0.19661E-01  5585   0.196E-01    0.576E-01
RMM:   4    -0.230635289977E+04    0.67609E-03   -0.15578E-02  5062   0.349E-02    0.432E-01
RMM:   5    -0.230635186881E+04    0.10310E-02   -0.38157E-03  5014   0.237E-02    0.459E-01
RMM:   6    -0.230634961117E+04    0.22576E-02   -0.48818E-03  5188   0.268E-02    0.207E-01
RMM:   7    -0.230634978463E+04   -0.17346E-03   -0.90421E-04  4161   0.152E-02    0.216E-01
RMM:   8    -0.230634971720E+04    0.67430E-04   -0.43934E-04  3058   0.836E-03    0.121E-01
RMM:   9    -0.230634967738E+04    0.39819E-04   -0.28374E-04  2993   0.663E-03    0.839E-02
RMM:  10    -0.230634955947E+04    0.11791E-03   -0.36898E-04  4081   0.889E-03    0.269E-02
RMM:  11    -0.230634955459E+04    0.48816E-05   -0.55335E-05  2969   0.716E-03
   3 F= -.23270917E+04 E0= -.23270908E+04  d E =-.141710E+00  mag=     6.0000
       N       E                     dE             d eps       ncg     rms          rms(c)
DAV:   1    -0.230615080835E+04    0.19875E+00   -0.11809E+01  4560   0.281E+00    0.137E+00
RMM:   2    -0.230637734268E+04   -0.22653E+00   -0.24481E+00  5818   0.614E-01    0.818E-01
RMM:   3    -0.230640208474E+04   -0.24742E-01   -0.29149E-01  5514   0.288E-01    0.968E-01
RMM:   4    -0.230639644268E+04    0.56421E-02   -0.26733E-02  5662   0.596E-02    0.430E-01
RMM:   5    -0.230639489419E+04    0.15485E-02   -0.46715E-03  5074   0.324E-02    0.348E-01
RMM:   6    -0.230639356064E+04    0.13336E-02   -0.50132E-03  5145   0.312E-02    0.256E-01
RMM:   7    -0.230639316679E+04    0.39385E-03   -0.15318E-03  5048   0.230E-02    0.161E-01
RMM:   8    -0.230639310186E+04    0.64932E-04   -0.26354E-04  3346   0.927E-03    0.102E-01
RMM:   9    -0.230639303580E+04    0.66064E-04   -0.21298E-04  3028   0.743E-03    0.561E-02
RMM:  10    -0.230639299427E+04    0.41522E-04   -0.97119E-05  3299   0.653E-03    0.175E-02
RMM:  11    -0.230639298759E+04    0.66873E-05   -0.18361E-05  2880   0.500E-03
   4 F= -.23271375E+04 E0= -.23271374E+04  d E =-.458393E-01  mag=     6.0000
       N       E                     dE             d eps       ncg     rms          rms(c)
DAV:   1    -0.230639265305E+04    0.34122E-03   -0.13945E-02  5468   0.977E-02    0.474E-02
RMM:   2    -0.230639291851E+04   -0.26546E-03   -0.29667E-03  5368   0.233E-02    0.243E-02
RMM:   3    -0.230639294326E+04   -0.24753E-04   -0.33446E-04  2878   0.115E-02    0.210E-02
RMM:   4    -0.230639294199E+04    0.12667E-05   -0.32512E-05  2896   0.279E-03
   5 F= -.23271376E+04 E0= -.23271375E+04  d E =-.458754E-01  mag=     6.0000
       N       E                     dE             d eps       ncg     rms          rms(c)
DAV:   1    -0.230626188103E+04    0.13106E+00   -0.70864E+00  4512   0.172E+00    0.926E-01
RMM:   2    -0.230641908690E+04   -0.15721E+00   -0.16364E+00  6069   0.410E-01    0.887E-01
RMM:   3    -0.230643461459E+04   -0.15528E-01   -0.20638E-01  5672   0.205E-01    0.872E-01
RMM:   4    -0.230642926207E+04    0.53525E-02   -0.17979E-02  5309   0.417E-02    0.270E-01
RMM:   5    -0.230642825627E+04    0.10058E-02   -0.24467E-03  4632   0.183E-02    0.186E-01
RMM:   6    -0.230642785052E+04    0.40575E-03   -0.30277E-03  5170   0.216E-02    0.142E-01
RMM:   7    -0.230642770291E+04    0.14761E-03   -0.43657E-04  3307   0.132E-02    0.704E-02
RMM:   8    -0.230642766254E+04    0.40371E-04   -0.83405E-05  2877   0.522E-03    0.417E-02
RMM:   9    -0.230642763522E+04    0.27321E-04   -0.90511E-05  2878   0.455E-03    0.179E-02
RMM:  10    -0.230642763446E+04    0.76419E-06   -0.13884E-05  2880   0.298E-03
   6 F= -.23271726E+04 E0= -.23271726E+04  d E =-.350143E-01  mag=     6.0000
       N       E                     dE             d eps       ncg     rms          rms(c)
DAV:   1    -0.230638280510E+04    0.44830E-01   -0.21208E+00  4528   0.941E-01    0.503E-01
RMM:   2    -0.230642950615E+04   -0.46701E-01   -0.48530E-01  6030   0.223E-01    0.484E-01
RMM:   3    -0.230643387161E+04   -0.43655E-02   -0.59147E-02  5477   0.111E-01    0.458E-01
RMM:   4    -0.230643245992E+04    0.14117E-02   -0.54221E-03  4198   0.228E-02    0.144E-01
RMM:   5    -0.230643216975E+04    0.29017E-03   -0.65509E-04  3433   0.108E-02    0.101E-01
RMM:   6    -0.230643210434E+04    0.65411E-04   -0.70184E-04  4407   0.114E-02    0.109E-01
RMM:   7    -0.230643200127E+04    0.10307E-03   -0.21930E-04  3007   0.895E-03    0.355E-02
RMM:   8    -0.230643198903E+04    0.12234E-04   -0.33803E-05  2874   0.480E-03    0.194E-02
RMM:   9    -0.230643198159E+04    0.74417E-05   -0.24760E-05  2862   0.372E-03
   7 F= -.23271771E+04 E0= -.23271771E+04  d E =-.394996E-01  mag=     6.0000
       N       E                     dE             d eps       ncg     rms          rms(c)
DAV:   1    -0.230640922566E+04    0.22763E-01   -0.34248E+00  4512   0.125E+00    0.583E-01
RMM:   2    -0.230644911002E+04   -0.39884E-01   -0.38878E-01  5874   0.251E-01    0.725E-01
RMM:   3    -0.230644867998E+04    0.43004E-03   -0.37464E-02  5631   0.107E-01    0.445E-01
RMM:   4    -0.230644733616E+04    0.13438E-02   -0.44831E-03  4812   0.264E-02    0.155E-01
RMM:   5    -0.230644726661E+04    0.69557E-04   -0.81863E-04  4087   0.149E-02    0.157E-01
RMM:   6    -0.230644703073E+04    0.23588E-03   -0.64691E-04  4277   0.145E-02    0.588E-02
RMM:   7    -0.230644703513E+04   -0.43972E-05   -0.15937E-04  3458   0.113E-02    0.246E-02
RMM:   8    -0.230644702836E+04    0.67660E-05   -0.33284E-05  2908   0.488E-03
   8 F= -.23271929E+04 E0= -.23271929E+04  d E =-.158200E-01  mag=     6.0000
       N       E                     dE             d eps       ncg     rms          rms(c)
DAV:   1    -0.230634501434E+04    0.10202E+00   -0.98960E+00  4456   0.211E+00    0.992E-01
RMM:   2    -0.230646007435E+04   -0.11506E+00   -0.11311E+00  5903   0.431E-01    0.120E+00
RMM:   3    -0.230646048278E+04   -0.40842E-03   -0.11201E-01  5693   0.179E-01    0.789E-01
RMM:   4    -0.230645622415E+04    0.42586E-02   -0.13253E-02  5182   0.451E-02    0.275E-01
RMM:   5    -0.230645593476E+04    0.28939E-03   -0.23756E-03  4867   0.239E-02    0.261E-01
RMM:   6    -0.230645522646E+04    0.70830E-03   -0.20541E-03  4661   0.241E-02    0.998E-02
RMM:   7    -0.230645521102E+04    0.15439E-04   -0.49397E-04  4341   0.175E-02    0.423E-02
RMM:   8    -0.230645519388E+04    0.17142E-04   -0.79719E-05  3364   0.660E-03    0.216E-02
RMM:   9    -0.230645519112E+04    0.27627E-05   -0.39595E-05  2926   0.572E-03
   9 F= -.23272023E+04 E0= -.23272023E+04  d E =-.252231E-01  mag=     6.0000
       N       E                     dE             d eps       ncg     rms          rms(c)
DAV:   1    -0.230645649682E+04   -0.13029E-02   -0.37702E-01  4672   0.340E-01    0.176E-01
RMM:   2    -0.230646067033E+04   -0.41735E-02   -0.40564E-02  6326   0.711E-02    0.234E-01
RMM:   3    -0.230646059868E+04    0.71646E-04   -0.38058E-03  3698   0.269E-02    0.122E-01
RMM:   4    -0.230646053064E+04    0.68041E-04   -0.46932E-04  2989   0.791E-03    0.510E-02
RMM:   5    -0.230646052490E+04    0.57427E-05   -0.64378E-05  2853   0.384E-03
  10 F= -.23272078E+04 E0= -.23272078E+04  d E =-.551938E-02  mag=     6.0000
       N       E                     dE             d eps       ncg     rms          rms(c)
DAV:   1    -0.230643927391E+04    0.21257E-01   -0.33791E+00  4496   0.102E+00    0.518E-01
RMM:   2    -0.230647656566E+04   -0.37292E-01   -0.36536E-01  6302   0.208E-01    0.657E-01
RMM:   3    -0.230647648228E+04    0.83385E-04   -0.33900E-02  5727   0.811E-02    0.376E-01
RMM:   4    -0.230647570717E+04    0.77511E-03   -0.41517E-03  3846   0.207E-02    0.152E-01
RMM:   5    -0.230647563893E+04    0.68233E-04   -0.57718E-04  3123   0.993E-03    0.138E-01
RMM:   6    -0.230647550637E+04    0.13256E-03   -0.47743E-04  3518   0.111E-02    0.573E-02
RMM:   7    -0.230647552679E+04   -0.20425E-04   -0.15149E-04  3050   0.841E-03    0.196E-02
RMM:   8    -0.230647552587E+04    0.92828E-06   -0.24108E-05  2905   0.429E-03
  11 F= -.23272233E+04 E0= -.23272233E+04  d E =-.210505E-01  mag=     6.0000
       N       E                     dE             d eps       ncg     rms          rms(c)
DAV:   1    -0.230635342469E+04    0.12210E+00   -0.13538E+01  4456   0.206E+00    0.106E+00
RMM:   2    -0.230650517798E+04   -0.15175E+00   -0.14834E+00  6273   0.422E-01    0.136E+00
RMM:   3    -0.230650476710E+04    0.41088E-03   -0.14696E-01  5911   0.168E-01    0.758E-01
RMM:   4    -0.230650189259E+04    0.28745E-02   -0.17601E-02  5167   0.421E-02    0.327E-01
RMM:   5    -0.230650136748E+04    0.52511E-03   -0.23216E-03  4132   0.181E-02    0.259E-01
RMM:   6    -0.230650079774E+04    0.56974E-03   -0.17790E-03  4398   0.198E-02    0.113E-01
RMM:   7    -0.230650083821E+04   -0.40473E-04   -0.67185E-04  3776   0.156E-02    0.411E-02
RMM:   8    -0.230650083464E+04    0.35722E-05   -0.10189E-04  2977   0.643E-03    0.240E-02
RMM:   9    -0.230650083241E+04    0.22298E-05   -0.36037E-05  2921   0.442E-03
  12 F= -.23272496E+04 E0= -.23272496E+04  d E =-.472719E-01  mag=     6.0000
       N       E                     dE             d eps       ncg     rms          rms(c)
DAV:   1    -0.230591351642E+04    0.58732E+00   -0.53771E+01  4456   0.411E+00    0.216E+00
RMM:   2    -0.230653178608E+04   -0.61827E+00   -0.61371E+00  6370   0.868E-01    0.252E+00
RMM:   3    -0.230654343110E+04   -0.11645E-01   -0.63904E-01  6002   0.350E-01    0.155E+00
RMM:   4    -0.230653032131E+04    0.13110E-01   -0.73889E-02  5623   0.863E-02    0.678E-01
RMM:   5    -0.230652772505E+04    0.25963E-02   -0.96304E-03  5214   0.365E-02    0.524E-01
RMM:   6    -0.230652510636E+04    0.26187E-02   -0.73843E-03  4936   0.377E-02    0.233E-01
RMM:   7    -0.230652513118E+04   -0.24821E-04   -0.28903E-03  4621   0.298E-02    0.940E-02
RMM:   8    -0.230652516842E+04   -0.37244E-04   -0.42803E-04  3842   0.121E-02    0.609E-02
RMM:   9    -0.230652515756E+04    0.10861E-04   -0.13790E-04  3131   0.779E-03    0.269E-02
RMM:  10    -0.230652518495E+04   -0.27388E-04   -0.60884E-05  2979   0.554E-03    0.146E-02
RMM:  11    -0.230652520082E+04   -0.15870E-04   -0.15284E-05  2887   0.397E-03    0.106E-02
RMM:  12    -0.230652521819E+04   -0.17377E-04   -0.14484E-05  2868   0.327E-03    0.667E-03
RMM:  13    -0.230652522494E+04   -0.67491E-05   -0.56076E-06  2830   0.299E-03
  13 F= -.23272750E+04 E0= -.23272750E+04  d E =-.727292E-01  mag=     6.0000
       N       E                     dE             d eps       ncg     rms          rms(c)
DAV:   1    -0.230648371606E+04    0.41502E-01   -0.79027E+00  4460   0.172E+00    0.804E-01
RMM:   2    -0.230656593576E+04   -0.82220E-01   -0.82565E-01  6041   0.339E-01    0.857E-01
RMM:   3    -0.230656801964E+04   -0.20839E-02   -0.80438E-02  5805   0.135E-01    0.545E-01
RMM:   4    -0.230656633021E+04    0.16894E-02   -0.97222E-03  5190   0.337E-02    0.257E-01
RMM:   5    -0.230656601786E+04    0.31234E-03   -0.14347E-03  4131   0.172E-02    0.196E-01
RMM:   6    -0.230656567090E+04    0.34696E-03   -0.11234E-03  4404   0.176E-02    0.801E-02
RMM:   7    -0.230656569223E+04   -0.21322E-04   -0.32001E-04  3759   0.134E-02    0.316E-02
RMM:   8    -0.230656569042E+04    0.18022E-05   -0.62484E-05  2962   0.613E-03
  14 F= -.23273147E+04 E0= -.23273147E+04  d E =-.396999E-01  mag=     6.0000
       N       E                     dE             d eps       ncg     rms          rms(c)
DAV:   1    -0.230608052639E+04    0.48517E+00   -0.50629E+01  4456   0.425E+00    0.204E+00
RMM:   2    -0.230661838868E+04   -0.53786E+00   -0.53607E+00  6040   0.866E-01    0.230E+00
RMM:   3    -0.230662650410E+04   -0.81154E-02   -0.54489E-01  5817   0.343E-01    0.132E+00
RMM:   4    -0.230661860673E+04    0.78974E-02   -0.65186E-02  5505   0.857E-02    0.688E-01
RMM:   5    -0.230661616256E+04    0.24442E-02   -0.96879E-03  5293   0.432E-02    0.511E-01
RMM:   6    -0.230661382527E+04    0.23373E-02   -0.63688E-03  4815   0.393E-02    0.230E-01
RMM:   7    -0.230661373889E+04    0.86382E-04   -0.24198E-03  4851   0.309E-02    0.993E-02
RMM:   8    -0.230661382079E+04   -0.81904E-04   -0.50518E-04  4349   0.142E-02    0.661E-02
RMM:   9    -0.230661378943E+04    0.31359E-04   -0.10699E-04  3103   0.878E-03    0.320E-02
RMM:  10    -0.230661379094E+04   -0.15118E-05   -0.53947E-05  2994   0.497E-03
  15 F= -.23273602E+04 E0= -.23273602E+04  d E =-.851522E-01  mag=     6.0000
       N       E                     dE             d eps       ncg     rms          rms(c)
DAV:   1    -0.230657821145E+04    0.35578E-01   -0.56191E+00  4480   0.165E+00    0.718E-01
RMM:   2    -0.230664138823E+04   -0.63177E-01   -0.66253E-01  5877   0.326E-01    0.539E-01
RMM:   3    -0.230664599902E+04   -0.46108E-02   -0.70630E-02  5573   0.144E-01    0.432E-01
RMM:   4    -0.230664504849E+04    0.95053E-03   -0.76995E-03  5114   0.325E-02    0.238E-01
RMM:   5    -0.230664473467E+04    0.31381E-03   -0.13141E-03  4460   0.186E-02    0.171E-01
RMM:   6    -0.230664446330E+04    0.27137E-03   -0.10212E-03  4641   0.167E-02    0.959E-02
RMM:   7    -0.230664440649E+04    0.56815E-04   -0.30289E-04  4229   0.126E-02    0.517E-02
RMM:   8    -0.230664438823E+04    0.18254E-04   -0.87140E-05  3166   0.679E-03    0.288E-02
RMM:   9    -0.230664437966E+04    0.85722E-05   -0.21279E-05  2870   0.520E-03
  16 F= -.23273897E+04 E0= -.23273897E+04  d E =-.295384E-01  mag=     6.0000
       N       E                     dE             d eps       ncg     rms          rms(c)
DAV:   1    -0.230655169091E+04    0.92697E-01   -0.91121E+00  4460   0.210E+00    0.920E-01
RMM:   2    -0.230665485177E+04   -0.10316E+00   -0.10788E+00  5838   0.416E-01    0.726E-01
RMM:   3    -0.230666217785E+04   -0.73261E-02   -0.11641E-01  5573   0.184E-01    0.583E-01
RMM:   4    -0.230666043557E+04    0.17423E-02   -0.12686E-02  5253   0.420E-02    0.316E-01
RMM:   5    -0.230665988503E+04    0.55054E-03   -0.22034E-03  4726   0.235E-02    0.222E-01
RMM:   6    -0.230665940286E+04    0.48217E-03   -0.16514E-03  4786   0.206E-02    0.125E-01
RMM:   7    -0.230665928440E+04    0.11847E-03   -0.52639E-04  4583   0.157E-02    0.668E-02
RMM:   8    -0.230665925445E+04    0.29947E-04   -0.15391E-04  3708   0.851E-03    0.401E-02
RMM:   9    -0.230665923647E+04    0.17978E-04   -0.33170E-05  2891   0.613E-03    0.143E-02
RMM:  10    -0.230665923289E+04    0.35846E-05   -0.19331E-05  2884   0.364E-03
  17 F= -.23274031E+04 E0= -.23274031E+04  d E =-.429624E-01  mag=     6.0000
       N       E                     dE             d eps       ncg     rms          rms(c)
DAV:   1    -0.230659195266E+04    0.67284E-01   -0.66624E+00  4460   0.170E+00    0.764E-01
RMM:   2    -0.230667561191E+04   -0.83659E-01   -0.88453E-01  5844   0.337E-01    0.456E-01
RMM:   3    -0.230668266824E+04   -0.70563E-02   -0.94584E-02  5401   0.152E-01    0.333E-01
RMM:   4    -0.230668279871E+04   -0.13047E-03   -0.97186E-03  4900   0.310E-02    0.280E-01
RMM:   5    -0.230668232992E+04    0.46879E-03   -0.12800E-03  4041   0.168E-02    0.164E-01
RMM:   6    -0.230668216340E+04    0.16652E-03   -0.95234E-04  4395   0.144E-02    0.118E-01
RMM:   7    -0.230668209868E+04    0.64714E-04   -0.36688E-04  3578   0.114E-02    0.761E-02
RMM:   8    -0.230668205829E+04    0.40390E-04   -0.13406E-04  3099   0.728E-03    0.377E-02
RMM:   9    -0.230668204734E+04    0.10950E-04   -0.23406E-05  2878   0.514E-03    0.149E-02
RMM:  10    -0.230668204547E+04    0.18760E-05   -0.14108E-05  2877   0.299E-03
  18 F= -.23274252E+04 E0= -.23274252E+04  d E =-.221113E-01  mag=     6.0000
       N       E                     dE             d eps       ncg     rms          rms(c)
DAV:   1    -0.230656970686E+04    0.11234E+00   -0.90148E+00  4456   0.198E+00    0.898E-01
RMM:   2    -0.230668319962E+04   -0.11349E+00   -0.12000E+00  5827   0.395E-01    0.524E-01
RMM:   3    -0.230669236968E+04   -0.91701E-02   -0.12768E-01  5377   0.181E-01    0.348E-01
RMM:   4    -0.230669269304E+04   -0.32335E-03   -0.13050E-02  5013   0.359E-02    0.303E-01
RMM:   5    -0.230669228369E+04    0.40934E-03   -0.18138E-03  4345   0.201E-02    0.217E-01
RMM:   6    -0.230669201068E+04    0.27301E-03   -0.11990E-03  4460   0.154E-02    0.155E-01
RMM:   7    -0.230669189756E+04    0.11312E-03   -0.52310E-04  3823   0.125E-02    0.984E-02
RMM:   8    -0.230669183068E+04    0.66880E-04   -0.22885E-04  3355   0.871E-03    0.530E-02
RMM:   9    -0.230669181144E+04    0.19237E-04   -0.34192E-05  2884   0.599E-03    0.234E-02
RMM:  10    -0.230669180543E+04    0.60084E-05   -0.23072E-05  2887   0.355E-03
  19 F= -.23274341E+04 E0= -.23274341E+04  d E =-.309718E-01  mag=     6.0000
       N       E                     dE             d eps       ncg     rms          rms(c)
DAV:   1    -0.230662807732E+04    0.63734E-01   -0.55501E+00  4460   0.175E+00    0.745E-01
RMM:   2    -0.230670537834E+04   -0.77301E-01   -0.81115E-01  5772   0.341E-01    0.377E-01
RMM:   3    -0.230671185822E+04   -0.64799E-02   -0.81220E-02  5219   0.159E-01    0.352E-01
RMM:   4    -0.230671171301E+04    0.14521E-03   -0.96345E-03  5264   0.318E-02    0.228E-01
RMM:   5    -0.230671145938E+04    0.25363E-03   -0.11296E-03  4362   0.173E-02    0.202E-01
RMM:   6    -0.230671130030E+04    0.15909E-03   -0.83848E-04  4155   0.141E-02    0.138E-01
RMM:   7    -0.230671113328E+04    0.16701E-03   -0.30415E-04  3912   0.112E-02    0.416E-02
RMM:   8    -0.230671114163E+04   -0.83489E-05   -0.58427E-05  2943   0.736E-03
  20 F= -.23274527E+04 E0= -.23274527E+04  d E =-.185569E-01  mag=     6.0000
       N       E                     dE             d eps       ncg     rms          rms(c)
DAV:   1    -0.230665482113E+04    0.56312E-01   -0.40542E+00  4488   0.148E+00    0.636E-01
RMM:   2    -0.230671103810E+04   -0.56217E-01   -0.58970E-01  5790   0.291E-01    0.324E-01
RMM:   3    -0.230671567589E+04   -0.46378E-02   -0.58772E-02  5252   0.138E-01    0.291E-01
RMM:   4    -0.230671562713E+04    0.48766E-04   -0.70016E-03  5036   0.275E-02    0.196E-01
RMM:   5    -0.230671544658E+04    0.18055E-03   -0.85671E-04  4232   0.152E-02    0.176E-01
RMM:   6    -0.230671532021E+04    0.12637E-03   -0.61194E-04  3901   0.123E-02    0.119E-01
RMM:   7    -0.230671519932E+04    0.12090E-03   -0.20862E-04  3641   0.981E-03    0.368E-02
RMM:   8    -0.230671520369E+04   -0.43744E-05   -0.45634E-05  2924   0.667E-03
  21 F= -.23274560E+04 E0= -.23274560E+04  d E =-.219176E-01  mag=     6.0000
       N       E                     dE             d eps       ncg     rms          rms(c)
DAV:   1    -0.230664365802E+04    0.71541E-01   -0.47930E+00  4460   0.162E+00    0.716E-01
RMM:   2    -0.230672504030E+04   -0.81382E-01   -0.84322E-01  5904   0.328E-01    0.424E-01
RMM:   3    -0.230673198184E+04   -0.69415E-02   -0.84156E-02  5406   0.164E-01    0.371E-01
RMM:   4    -0.230673139417E+04    0.58767E-03   -0.97192E-03  5143   0.312E-02    0.182E-01
RMM:   5    -0.230673112300E+04    0.27117E-03   -0.74673E-04  3984   0.141E-02    0.111E-01
RMM:   6    -0.230673103974E+04    0.83258E-04   -0.48452E-04  4273   0.131E-02    0.679E-02
RMM:   7    -0.230673106239E+04   -0.22654E-04   -0.14929E-04  2962   0.920E-03    0.764E-02
RMM:   8    -0.230673102781E+04    0.34581E-04   -0.60613E-05  2882   0.502E-03    0.305E-02
RMM:   9    -0.230673102538E+04    0.24307E-05   -0.12673E-05  2872   0.327E-03
  22 F= -.23274711E+04 E0= -.23274711E+04  d E =-.150689E-01  mag=     6.0000
       N       E                     dE             d eps       ncg     rms          rms(c)
DAV:   1    -0.230611935990E+04    0.61167E+00   -0.32917E+01  4456   0.424E+00    0.190E+00
RMM:   2    -0.230669105481E+04   -0.57169E+00   -0.59450E+00  5974   0.880E-01    0.105E+00
RMM:   3    -0.230674370190E+04   -0.52647E-01   -0.61563E-01  5468   0.393E-01    0.982E-01
RMM:   4    -0.230674090515E+04    0.27968E-02   -0.67177E-02  6074   0.809E-02    0.543E-01
RMM:   5    -0.230673955597E+04    0.13492E-02   -0.54870E-03  4892   0.305E-02    0.420E-01
RMM:   6    -0.230673976618E+04   -0.21021E-03   -0.45987E-03  5087   0.272E-02    0.476E-01
RMM:   7    -0.230673787476E+04    0.18914E-02   -0.28249E-03  4967   0.237E-02    0.169E-01
RMM:   8    -0.230673784408E+04    0.30677E-04   -0.85091E-04  4684   0.174E-02    0.993E-02
RMM:   9    -0.230673784469E+04   -0.60424E-06   -0.14522E-04  3387   0.956E-03    0.679E-02
RMM:  10    -0.230673780194E+04    0.42741E-04   -0.10557E-04  2932   0.634E-03    0.199E-02
RMM:  11    -0.230673780414E+04   -0.21940E-05   -0.47418E-05  2887   0.458E-03
  23 F= -.23274759E+04 E0= -.23274759E+04  d E =-.198819E-01  mag=     6.0000
       N       E                     dE             d eps       ncg     rms          rms(c)
DAV:   1    -0.230664432535E+04    0.93477E-01   -0.53476E+00  4456   0.171E+00    0.761E-01
RMM:   2    -0.230673552019E+04   -0.91195E-01   -0.93544E-01  5912   0.348E-01    0.562E-01
RMM:   3    -0.230674221781E+04   -0.66976E-02   -0.98437E-02  5566   0.168E-01    0.401E-01
RMM:   4    -0.230674193778E+04    0.28004E-03   -0.10873E-02  5121   0.328E-02    0.276E-01
RMM:   5    -0.230674153701E+04    0.40077E-03   -0.10170E-03  3310   0.140E-02    0.170E-01
RMM:   6    -0.230674127631E+04    0.26070E-03   -0.70723E-04  4141   0.135E-02    0.105E-01
RMM:   7    -0.230674123152E+04    0.44787E-04   -0.39483E-04  4152   0.119E-02    0.573E-02
RMM:   8    -0.230674120940E+04    0.22115E-04   -0.10081E-04  2936   0.730E-03    0.365E-02
RMM:   9    -0.230674119668E+04    0.12721E-04   -0.28846E-05  2862   0.480E-03    0.948E-03
RMM:  10    -0.230674119734E+04   -0.65405E-06   -0.69921E-06  2862   0.246E-03
  24 F= -.23274801E+04 E0= -.23274801E+04  d E =-.240590E-01  mag=     6.0000
       N       E                     dE             d eps       ncg     rms          rms(c)
DAV:   1    -0.230669547907E+04    0.45718E-01   -0.27829E+00  4480   0.138E+00    0.644E-01
RMM:   2    -0.230674822474E+04   -0.52746E-01   -0.54587E-01  5805   0.294E-01    0.438E-01
RMM:   3    -0.230675244644E+04   -0.42217E-02   -0.53707E-02  5401   0.138E-01    0.414E-01
RMM:   4    -0.230675134810E+04    0.10983E-02   -0.65708E-03  5150   0.305E-02    0.203E-01
RMM:   5    -0.230675116990E+04    0.17820E-03   -0.92644E-04  4150   0.157E-02    0.161E-01
RMM:   6    -0.230675090817E+04    0.26173E-03   -0.52326E-04  4367   0.132E-02    0.671E-02
RMM:   7    -0.230675085633E+04    0.51844E-04   -0.20457E-04  4215   0.112E-02    0.283E-02
RMM:   8    -0.230675084888E+04    0.74498E-05   -0.37093E-05  2986   0.604E-03
  25 F= -.23274891E+04 E0= -.23274891E+04  d E =-.901624E-02  mag=     6.0000
       N       E                     dE             d eps       ncg     rms          rms(c)
DAV:   1    -0.230674684021E+04    0.40161E-02   -0.23009E-01  4768   0.398E-01    0.186E-01
RMM:   2    -0.230675119513E+04   -0.43549E-02   -0.45174E-02  5959   0.867E-02    0.127E-01
RMM:   3    -0.230675152488E+04   -0.32975E-03   -0.43589E-03  4158   0.395E-02    0.116E-01
RMM:   4    -0.230675144843E+04    0.76447E-04   -0.54377E-04  2987   0.952E-03    0.605E-02
RMM:   5    -0.230675143045E+04    0.17978E-04   -0.79284E-05  2902   0.529E-03    0.455E-02
RMM:   6    -0.230675140701E+04    0.23441E-04   -0.46199E-05  2890   0.499E-03    0.196E-02
RMM:   7    -0.230675140132E+04    0.56870E-05   -0.20984E-05  2896   0.478E-03
  26 F= -.23274895E+04 E0= -.23274895E+04  d E =-.938635E-02  mag=     6.0000
       N       E                     dE             d eps       ncg     rms          rms(c)
DAV:   1    -0.230671686936E+04    0.34538E-01   -0.17785E+00  4448   0.109E+00    0.537E-01
RMM:   2    -0.230675793965E+04   -0.41070E-01   -0.41561E-01  5967   0.241E-01    0.448E-01
RMM:   3    -0.230676078940E+04   -0.28498E-02   -0.42033E-02  5631   0.102E-01    0.372E-01
RMM:   4    -0.230676008401E+04    0.70540E-03   -0.49904E-03  4791   0.242E-02    0.184E-01
RMM:   5    -0.230675988810E+04    0.19591E-03   -0.65185E-04  3241   0.120E-02    0.121E-01
RMM:   6    -0.230675974900E+04    0.13910E-03   -0.26157E-04  4003   0.102E-02    0.544E-02
RMM:   7    -0.230675973153E+04    0.17471E-04   -0.14828E-04  3645   0.984E-03    0.196E-02
RMM:   8    -0.230675973157E+04   -0.36947E-07   -0.22790E-05  2886   0.530E-03
  27 F= -.23274971E+04 E0= -.23274971E+04  d E =-.761994E-02  mag=     6.0000
       N       E                     dE             d eps       ncg     rms          rms(c)
DAV:   1    -0.230670209366E+04    0.57638E-01   -0.25140E+00  4444   0.129E+00    0.636E-01
RMM:   2    -0.230675997951E+04   -0.57886E-01   -0.58764E-01  5950   0.284E-01    0.511E-01
RMM:   3    -0.230676424370E+04   -0.42642E-02   -0.60271E-02  5683   0.120E-01    0.429E-01
RMM:   4    -0.230676330716E+04    0.93654E-03   -0.69952E-03  4964   0.282E-02    0.216E-01
RMM:   5    -0.230676304470E+04    0.26245E-03   -0.90410E-04  3532   0.137E-02    0.144E-01
RMM:   6    -0.230676284718E+04    0.19752E-03   -0.37681E-04  4120   0.117E-02    0.657E-02
RMM:   7    -0.230676281835E+04    0.28831E-04   -0.21074E-04  3953   0.111E-02    0.250E-02
RMM:   8    -0.230676281703E+04    0.13237E-05   -0.32428E-05  2907   0.578E-03
  28 F= -.23274993E+04 E0= -.23274993E+04  d E =-.986657E-02  mag=     6.0000
       N       E                     dE             d eps       ncg     rms          rms(c)
DAV:   1    -0.230673550040E+04    0.27318E-01   -0.14446E+00  4448   0.872E-01    0.455E-01
RMM:   2    -0.230676723169E+04   -0.31731E-01   -0.32242E-01  6107   0.200E-01    0.367E-01
RMM:   3    -0.230676954442E+04   -0.23127E-02   -0.32872E-02  5624   0.839E-02    0.289E-01
RMM:   4    -0.230676918196E+04    0.36245E-03   -0.38236E-03  3859   0.191E-02    0.149E-01
RMM:   5    -0.230676905580E+04    0.12616E-03   -0.40564E-04  3013   0.887E-03    0.104E-01
RMM:   6    -0.230676895650E+04    0.99295E-04   -0.18776E-04  3188   0.789E-03    0.484E-02
RMM:   7    -0.230676894418E+04    0.12323E-04   -0.11738E-04  3227   0.763E-03    0.207E-02
RMM:   8    -0.230676894241E+04    0.17722E-05   -0.19832E-05  2891   0.522E-03
  29 F= -.23275049E+04 E0= -.23275049E+04  d E =-.558580E-02  mag=     6.0000
       N       E                     dE             d eps       ncg     rms          rms(c)
DAV:   1    -0.230665204736E+04    0.11690E+00   -0.52290E+00  4440   0.167E+00    0.869E-01
RMM:   2    -0.230676763266E+04   -0.11559E+00   -0.11723E+00  6048   0.380E-01    0.725E-01
RMM:   3    -0.230677614530E+04   -0.85126E-02   -0.12486E-01  5782   0.160E-01    0.562E-01
RMM:   4    -0.230677477159E+04    0.13737E-02   -0.13919E-02  5048   0.358E-02    0.285E-01
RMM:   5    -0.230677430434E+04    0.46725E-03   -0.15245E-03  3744   0.160E-02    0.197E-01
RMM:   6    -0.230677394895E+04    0.35539E-03   -0.70207E-04  4207   0.136E-02    0.952E-02
RMM:   7    -0.230677388638E+04    0.62572E-04   -0.41574E-04  4167   0.131E-02    0.420E-02
RMM:   8    -0.230677387928E+04    0.71031E-05   -0.70505E-05  2956   0.721E-03
  30 F= -.23275089E+04 E0= -.23275089E+04  d E =-.951515E-02  mag=     6.0000
       N       E                     dE             d eps       ncg     rms          rms(c)
DAV:   1    -0.230675028814E+04    0.23598E-01   -0.16013E+00  4480   0.102E+00    0.475E-01
RMM:   2    -0.230677920486E+04   -0.28917E-01   -0.30127E-01  5890   0.218E-01    0.294E-01
RMM:   3    -0.230678129704E+04   -0.20922E-02   -0.28472E-02  5464   0.942E-02    0.233E-01
RMM:   4    -0.230678099428E+04    0.30276E-03   -0.33811E-03  4706   0.210E-02    0.124E-01
RMM:   5    -0.230678093663E+04    0.57655E-04   -0.44649E-04  3618   0.123E-02    0.126E-01
RMM:   6    -0.230678080793E+04    0.12869E-03   -0.29390E-04  3803   0.100E-02    0.572E-02
RMM:   7    -0.230678078725E+04    0.20686E-04   -0.10724E-04  3533   0.803E-03    0.255E-02
RMM:   8    -0.230678078086E+04    0.63905E-05   -0.22930E-05  2891   0.568E-03
  31 F= -.23275152E+04 E0= -.23275152E+04  d E =-.634309E-02  mag=     6.0000
       N       E                     dE             d eps       ncg     rms          rms(c)
DAV:   1    -0.230676601780E+04    0.14769E-01   -0.85455E-01  4528   0.743E-01    0.346E-01
RMM:   2    -0.230678142542E+04   -0.15408E-01   -0.16013E-01  5862   0.158E-01    0.217E-01
RMM:   3    -0.230678250661E+04   -0.10812E-02   -0.14952E-02  5339   0.688E-02    0.169E-01
RMM:   4    -0.230678233372E+04    0.17288E-03   -0.17947E-03  4019   0.154E-02    0.882E-02
RMM:   5    -0.230678230225E+04    0.31469E-04   -0.24129E-04  3099   0.963E-03    0.914E-02
RMM:   6    -0.230678223445E+04    0.67805E-04   -0.15985E-04  3248   0.803E-03    0.430E-02
RMM:   7    -0.230678222188E+04    0.12573E-04   -0.57637E-05  3155   0.690E-03    0.171E-02
RMM:   8    -0.230678221882E+04    0.30509E-05   -0.14081E-05  2880   0.491E-03
  32 F= -.23275162E+04 E0= -.23275162E+04  d E =-.736967E-02  mag=     6.0000
       N       E                     dE             d eps       ncg     rms          rms(c)
DAV:   1    -0.230675227638E+04    0.29945E-01   -0.18830E+00  4456   0.101E+00    0.473E-01
RMM:   2    -0.230678616139E+04   -0.33885E-01   -0.35192E-01  5871   0.214E-01    0.292E-01
RMM:   3    -0.230678884139E+04   -0.26800E-02   -0.35776E-02  5425   0.950E-02    0.207E-01
RMM:   4    -0.230678867429E+04    0.16710E-03   -0.39101E-03  4208   0.197E-02    0.127E-01
RMM:   5    -0.230678857680E+04    0.97485E-04   -0.36361E-04  3143   0.106E-02    0.113E-01
RMM:   6    -0.230678849374E+04    0.83060E-04   -0.36092E-04  3580   0.997E-03    0.777E-02
RMM:   7    -0.230678844573E+04    0.48015E-04   -0.13399E-04  3340   0.832E-03    0.241E-02
RMM:   8    -0.230678843858E+04    0.71441E-05   -0.22640E-05  2905   0.540E-03
  33 F= -.23275217E+04 E0= -.23275217E+04  d E =-.543410E-02  mag=     6.0000
       N       E                     dE             d eps       ncg     rms          rms(c)
DAV:   1    -0.230677307456E+04    0.15371E-01   -0.87776E-01  4496   0.687E-01    0.323E-01
RMM:   2    -0.230678902963E+04   -0.15955E-01   -0.16588E-01  5868   0.145E-01    0.199E-01
RMM:   3    -0.230679016924E+04   -0.11396E-02   -0.15541E-02  5175   0.625E-02    0.150E-01
RMM:   4    -0.230679007383E+04    0.95409E-04   -0.18198E-03  3285   0.137E-02    0.917E-02
RMM:   5    -0.230679002945E+04    0.44376E-04   -0.17403E-04  2936   0.744E-03    0.828E-02
RMM:   6    -0.230678996983E+04    0.59617E-04   -0.17781E-04  3038   0.749E-03    0.434E-02
RMM:   7    -0.230678995350E+04    0.16336E-04   -0.66121E-05  3006   0.638E-03    0.145E-02
RMM:   8    -0.230678995040E+04    0.30948E-05   -0.13023E-05  2870   0.464E-03
  34 F= -.23275226E+04 E0= -.23275226E+04  d E =-.640991E-02  mag=     6.0000
       N       E                     dE             d eps       ncg     rms          rms(c)
DAV:   1    -0.230677871177E+04    0.11242E-01   -0.11871E+00  4456   0.881E-01    0.370E-01
RMM:   2    -0.230679357775E+04   -0.14866E-01   -0.15520E-01  5652   0.172E-01    0.229E-01
RMM:   3    -0.230679470612E+04   -0.11284E-02   -0.15065E-02  5191   0.771E-02    0.222E-01
RMM:   4    -0.230679439035E+04    0.31577E-03   -0.18319E-03  4295   0.176E-02    0.118E-01
RMM:   5    -0.230679431229E+04    0.78065E-04   -0.30571E-04  3321   0.108E-02    0.957E-02
RMM:   6    -0.230679421979E+04    0.92490E-04   -0.29507E-04  4029   0.107E-02    0.387E-02
RMM:   7    -0.230679420787E+04    0.11927E-04   -0.62935E-05  3056   0.776E-03    0.152E-02
RMM:   8    -0.230679420469E+04    0.31822E-05   -0.13400E-05  2868   0.453E-03
  35 F= -.23275265E+04 E0= -.23275265E+04  d E =-.386503E-02  mag=     6.0000
       N       E                     dE             d eps       ncg     rms          rms(c)
DAV:   1    -0.230679233437E+04    0.18735E-02   -0.17160E-01  4640   0.336E-01    0.141E-01
RMM:   2    -0.230679447929E+04   -0.21449E-02   -0.22346E-02  5721   0.664E-02    0.901E-02
RMM:   3    -0.230679464727E+04   -0.16798E-03   -0.22930E-03  3871   0.313E-02    0.856E-02
RMM:   4    -0.230679460234E+04    0.44932E-04   -0.26841E-04  2961   0.751E-03    0.452E-02
RMM:   5    -0.230679459046E+04    0.11882E-04   -0.45263E-05  2884   0.451E-03    0.362E-02
RMM:   6    -0.230679457640E+04    0.14060E-04   -0.44047E-05  2913   0.483E-03    0.145E-02
RMM:   7    -0.230679457469E+04    0.17054E-05   -0.11828E-05  2892   0.393E-03
  36 F= -.23275267E+04 E0= -.23275267E+04  d E =-.408965E-02  mag=     6.0000
       N       E                     dE             d eps       ncg     rms          rms(c)
DAV:   1    -0.230678800319E+04    0.65732E-02   -0.11199E+00  4456   0.866E-01    0.328E-01
RMM:   2    -0.230679710851E+04   -0.91053E-02   -0.94075E-02  5615   0.155E-01    0.226E-01
RMM:   3    -0.230679759252E+04   -0.48402E-03   -0.85559E-03  5105   0.674E-02    0.212E-01
RMM:   4    -0.230679724661E+04    0.34592E-03   -0.11188E-03  4381   0.165E-02    0.109E-01
RMM:   5    -0.230679718745E+04    0.59154E-04   -0.26561E-04  3142   0.108E-02    0.858E-02
RMM:   6    -0.230679710640E+04    0.81046E-04   -0.23820E-04  4003   0.102E-02    0.281E-02
RMM:   7    -0.230679710189E+04    0.45196E-05   -0.42125E-05  2961   0.751E-03
  37 F= -.23275291E+04 E0= -.23275291E+04  d E =-.239806E-02  mag=     6.0000
       N       E                     dE             d eps       ncg     rms          rms(c)
DAV:   1    -0.230679666243E+04    0.44397E-03   -0.55881E-02  4760   0.193E-01    0.747E-02
RMM:   2    -0.230679712235E+04   -0.45992E-03   -0.47598E-03  5712   0.366E-02    0.545E-02
RMM:   3    -0.230679714877E+04   -0.26413E-04   -0.46254E-04  3196   0.162E-02    0.523E-02
RMM:   4    -0.230679713027E+04    0.18500E-04   -0.61096E-05  2901   0.468E-03    0.259E-02
RMM:   5    -0.230679712657E+04    0.36916E-05   -0.15553E-05  2872   0.283E-03
  38 F= -.23275291E+04 E0= -.23275291E+04  d E =-.239480E-02  mag=     6.0000
       N       E                     dE             d eps       ncg     rms          rms(c)
DAV:   1    -0.230679500770E+04    0.21226E-02   -0.58064E-01  4444   0.590E-01    0.211E-01
RMM:   2    -0.230679838546E+04   -0.33778E-02   -0.34719E-02  5480   0.102E-01    0.160E-01
RMM:   3    -0.230679840577E+04   -0.20316E-04   -0.30993E-03  4672   0.460E-02    0.122E-01
RMM:   4    -0.230679825849E+04    0.14728E-03   -0.40033E-04  3950   0.112E-02    0.577E-02
RMM:   5    -0.230679826472E+04   -0.62274E-05   -0.12709E-04  2959   0.869E-03    0.767E-02
RMM:   6    -0.230679820886E+04    0.55861E-04   -0.99952E-05  3256   0.723E-03    0.190E-02
RMM:   7    -0.230679820651E+04    0.23434E-05   -0.17647E-05  2911   0.554E-03
  39 F= -.23275304E+04 E0= -.23275304E+04  d E =-.127759E-02  mag=     6.0000
       N       E                     dE             d eps       ncg     rms          rms(c)
DAV:   1    -0.230679793379E+04    0.27507E-03   -0.37835E-02  4648   0.151E-01    0.547E-02
RMM:   2    -0.230679815866E+04   -0.22487E-03   -0.23135E-03  5577   0.280E-02    0.437E-02
RMM:   3    -0.230679816091E+04   -0.22598E-05   -0.20679E-04  3014   0.125E-02    0.367E-02
RMM:   4    -0.230679815019E+04    0.10722E-04   -0.28304E-05  2889   0.369E-03    0.197E-02
RMM:   5    -0.230679814830E+04    0.18898E-05   -0.85048E-06  2854   0.231E-03
  40 F= -.23275304E+04 E0= -.23275304E+04  d E =-.127033E-02  mag=     6.0000
       N       E                     dE             d eps       ncg     rms          rms(c)
DAV:   1    -0.230679617170E+04    0.19785E-02   -0.57922E-01  4460   0.575E-01    0.193E-01
RMM:   2    -0.230679924338E+04   -0.30717E-02   -0.31882E-02  5432   0.966E-02    0.135E-01
RMM:   3    -0.230679927270E+04   -0.29321E-04   -0.26279E-03  4520   0.441E-02    0.116E-01
RMM:   4    -0.230679913562E+04    0.13708E-03   -0.31999E-04  3477   0.102E-02    0.489E-02
RMM:   5    -0.230679912947E+04    0.61496E-05   -0.11911E-04  3077   0.801E-03    0.656E-02
RMM:   6    -0.230679909889E+04    0.30574E-04   -0.80242E-05  2937   0.693E-03    0.279E-02
RMM:   7    -0.230679909418E+04    0.47175E-05   -0.15357E-05  2897   0.466E-03
  41 F= -.23275316E+04 E0= -.23275316E+04  d E =-.124309E-02  mag=     6.0000
       N       E                     dE             d eps       ncg     rms          rms(c)
DAV:   1    -0.230679832280E+04    0.77610E-03   -0.14424E-01  4480   0.287E-01    0.972E-02
RMM:   2    -0.230679908694E+04   -0.76415E-03   -0.79368E-03  5799   0.497E-02    0.667E-02
RMM:   3    -0.230679909722E+04   -0.10277E-04   -0.70112E-04  3589   0.216E-02    0.568E-02
RMM:   4    -0.230679906742E+04    0.29806E-04   -0.81229E-05  2897   0.584E-03    0.255E-02
RMM:   5    -0.230679906831E+04   -0.89926E-06   -0.31334E-05  2909   0.415E-03
  42 F= -.23275318E+04 E0= -.23275318E+04  d E =-.136610E-02  mag=     6.0000
       N       E                     dE             d eps       ncg     rms          rms(c)
DAV:   1    -0.230679809995E+04    0.96747E-03   -0.39498E-01  4460   0.495E-01    0.164E-01
RMM:   2    -0.230679994060E+04   -0.18407E-02   -0.19891E-02  5456   0.828E-02    0.942E-02
RMM:   3    -0.230679998902E+04   -0.48419E-04   -0.17623E-03  4411   0.396E-02    0.119E-01
RMM:   4    -0.230679988614E+04    0.10288E-03   -0.22915E-04  3158   0.908E-03    0.474E-02
RMM:   5    -0.230679987485E+04    0.11291E-04   -0.98488E-05  3112   0.734E-03    0.536E-02
RMM:   6    -0.230679984793E+04    0.26923E-04   -0.64717E-05  2936   0.685E-03    0.209E-02
RMM:   7    -0.230679984495E+04    0.29818E-05   -0.14838E-05  2884   0.468E-03
  43 F= -.23275325E+04 E0= -.23275325E+04  d E =-.797225E-03  mag=     6.0000
       N       E                     dE             d eps       ncg     rms          rms(c)
DAV:   1    -0.230679959881E+04    0.24912E-03   -0.46131E-02  4592   0.169E-01    0.568E-02
RMM:   2    -0.230679982163E+04   -0.22282E-03   -0.23856E-03  5544   0.305E-02    0.361E-02
RMM:   3    -0.230679983008E+04   -0.84518E-05   -0.21762E-04  3100   0.130E-02    0.508E-02
RMM:   4    -0.230679981029E+04    0.19791E-04   -0.29645E-05  2891   0.401E-03    0.161E-02
RMM:   5    -0.230679980889E+04    0.13948E-05   -0.13450E-05  2883   0.271E-03
  44 F= -.23275325E+04 E0= -.23275325E+04  d E =-.768309E-03  mag=     6.0000
       N       E                     dE             d eps       ncg     rms          rms(c)
DAV:   1    -0.230679890873E+04    0.90156E-03   -0.25267E-01  4460   0.394E-01    0.125E-01
RMM:   2    -0.230680044035E+04   -0.15316E-02   -0.15828E-02  5410   0.647E-02    0.925E-02
RMM:   3    -0.230680053083E+04   -0.90484E-04   -0.14158E-03  3984   0.303E-02    0.122E-01
RMM:   4    -0.230680042258E+04    0.10825E-03   -0.17291E-04  2934   0.721E-03    0.341E-02
RMM:   5    -0.230680040717E+04    0.15411E-04   -0.55010E-05  2985   0.539E-03    0.214E-02
RMM:   6    -0.230680040797E+04   -0.79701E-06   -0.27037E-05  2866   0.490E-03
  45 F= -.23275331E+04 E0= -.23275331E+04  d E =-.607976E-03  mag=     6.0000
       N       E                     dE             d eps       ncg     rms          rms(c)
DAV:   1    -0.230679790821E+04    0.24990E-02   -0.44136E-01  4460   0.520E-01    0.167E-01
RMM:   2    -0.230680060054E+04   -0.26923E-02   -0.27902E-02  5253   0.851E-02    0.116E-01
RMM:   3    -0.230680075841E+04   -0.15787E-03   -0.24010E-03  4187   0.381E-02    0.160E-01
RMM:   4    -0.230680057324E+04    0.18517E-03   -0.30523E-04  3050   0.885E-03    0.449E-02
RMM:   5    -0.230680054521E+04    0.28029E-04   -0.91165E-05  3160   0.666E-03    0.274E-02
RMM:   6    -0.230680054624E+04   -0.10245E-05   -0.43267E-05  2874   0.599E-03
  46 F= -.23275333E+04 E0= -.23275333E+04  d E =-.758891E-03  mag=     6.0000
       N       E                     dE             d eps       ncg     rms          rms(c)
DAV:   1    -0.230679846733E+04    0.20779E-02   -0.27768E-01  4460   0.457E-01    0.156E-01
RMM:   2    -0.230680093812E+04   -0.24708E-02   -0.25764E-02  5418   0.812E-02    0.101E-01
RMM:   3    -0.230680114868E+04   -0.21055E-03   -0.25622E-03  4264   0.404E-02    0.136E-01
RMM:   4    -0.230680102327E+04    0.12541E-03   -0.30464E-04  2993   0.891E-03    0.395E-02
RMM:   5    -0.230680101515E+04    0.81252E-05   -0.78747E-05  2970   0.649E-03
  47 F= -.23275340E+04 E0= -.23275340E+04  d E =-.720753E-03  mag=     6.0000
       N       E                     dE             d eps       ncg     rms          rms(c)
DAV:   1    -0.230680063928E+04    0.38399E-03   -0.32538E-02  4704   0.157E-01    0.563E-02
RMM:   2    -0.230680094355E+04   -0.30427E-03   -0.31263E-03  5503   0.313E-02    0.517E-02
RMM:   3    -0.230680094773E+04   -0.41864E-05   -0.32080E-04  2971   0.123E-02    0.364E-02
RMM:   4    -0.230680093646E+04    0.11269E-04   -0.36291E-05  2888   0.443E-03    0.152E-02
RMM:   5    -0.230680093258E+04    0.38861E-05   -0.14466E-05  2887   0.324E-03
  48 F= -.23275340E+04 E0= -.23275340E+04  d E =-.725414E-03  mag=     6.0000
       N       E                     dE             d eps       ncg     rms          rms(c)
DAV:   1    -0.230679834309E+04    0.25934E-02   -0.20428E-01  4460   0.417E-01    0.158E-01
RMM:   2    -0.230680116148E+04   -0.28184E-02   -0.29158E-02  5664   0.785E-02    0.112E-01
RMM:   3    -0.230680142307E+04   -0.26159E-03   -0.29593E-03  4101   0.378E-02    0.138E-01
RMM:   4    -0.230680130089E+04    0.12219E-03   -0.35785E-04  2956   0.902E-03    0.400E-02
RMM:   5    -0.230680129785E+04    0.30323E-05   -0.69542E-05  2895   0.543E-03
  49 F= -.23275347E+04 E0= -.23275347E+04  d E =-.666281E-03  mag=     6.0000
       N       E                     dE             d eps       ncg     rms          rms(c)
DAV:   1    -0.230680029056E+04    0.10103E-02   -0.61815E-02  4544   0.229E-01    0.856E-02
RMM:   2    -0.230680115263E+04   -0.86207E-03   -0.89144E-03  5916   0.449E-02    0.674E-02
RMM:   3    -0.230680121115E+04   -0.58523E-04   -0.91081E-04  3243   0.192E-02    0.655E-02
RMM:   4    -0.230680118344E+04    0.27705E-04   -0.11126E-04  2905   0.566E-03    0.250E-02
RMM:   5    -0.230680118497E+04   -0.15242E-05   -0.27707E-05  2868   0.367E-03
  50 F= -.23275347E+04 E0= -.23275347E+04  d E =-.720757E-03  mag=     6.0000
       N       E                     dE             d eps       ncg     rms          rms(c)
DAV:   1    -0.230679762472E+04    0.35587E-02   -0.20003E-01  4460   0.407E-01    0.162E-01
RMM:   2    -0.230680131397E+04   -0.36892E-02   -0.38045E-02  5795   0.814E-02    0.115E-01
RMM:   3    -0.230680162671E+04   -0.31273E-03   -0.36676E-03  4014   0.381E-02    0.125E-01
RMM:   4    -0.230680154627E+04    0.80434E-04   -0.47039E-04  2942   0.918E-03    0.433E-02
RMM:   5    -0.230680154095E+04    0.53235E-05   -0.58406E-05  2878   0.494E-03
  51 F= -.23275353E+04 E0= -.23275353E+04  d E =-.565116E-03  mag=     6.0000
       N       E                     dE             d eps       ncg     rms          rms(c)
DAV:   1    -0.230680069771E+04    0.84856E-03   -0.39319E-02  4624   0.181E-01    0.713E-02
RMM:   2    -0.230680143809E+04   -0.74038E-03   -0.75655E-03  5786   0.380E-02    0.619E-02
RMM:   3    -0.230680148302E+04   -0.44931E-04   -0.74822E-04  2989   0.165E-02    0.505E-02
RMM:   4    -0.230680146901E+04    0.14013E-04   -0.92108E-05  2900   0.486E-03    0.220E-02
RMM:   5    -0.230680146926E+04   -0.25667E-06   -0.17593E-05  2861   0.290E-03
  52 F= -.23275353E+04 E0= -.23275353E+04  d E =-.587273E-03  mag=     6.0000
       N       E                     dE             d eps       ncg     rms          rms(c)
DAV:   1    -0.230679879386E+04    0.26751E-02   -0.13388E-01  4460   0.321E-01    0.134E-01
RMM:   2    -0.230680163637E+04   -0.28425E-02   -0.29358E-02  5830   0.658E-02    0.907E-02
RMM:   3    -0.230680188076E+04   -0.24439E-03   -0.27136E-03  3623   0.299E-02    0.976E-02
RMM:   4    -0.230680183758E+04    0.43183E-04   -0.35033E-04  2924   0.742E-03    0.345E-02
RMM:   5    -0.230680183346E+04    0.41179E-05   -0.31977E-05  2868   0.356E-03
  53 F= -.23275358E+04 E0= -.23275358E+04  d E =-.534420E-03  mag=     6.0000
       N       E                     dE             d eps       ncg     rms          rms(c)
DAV:   1    -0.230679269670E+04    0.91409E-02   -0.40409E-01  4460   0.556E-01    0.233E-01
RMM:   2    -0.230680135994E+04   -0.86632E-02   -0.88624E-02  5865   0.114E-01    0.185E-01
RMM:   3    -0.230680204467E+04   -0.68473E-03   -0.82548E-03  4708   0.512E-02    0.185E-01
RMM:   4    -0.230680187992E+04    0.16475E-03   -0.10853E-03  3074   0.120E-02    0.632E-02
RMM:   5    -0.230680186667E+04    0.13245E-04   -0.10551E-04  2883   0.607E-03    0.579E-02
RMM:   6    -0.230680183567E+04    0.31008E-04   -0.65521E-05  2895   0.572E-03    0.294E-02
RMM:   7    -0.230680183022E+04    0.54465E-05   -0.33585E-05  2926   0.549E-03
  54 F= -.23275361E+04 E0= -.23275361E+04  d E =-.828843E-03  mag=     6.0000
       N       E                     dE             d eps       ncg     rms          rms(c)
DAV:   1    -0.230679837045E+04    0.34652E-02   -0.16501E-01  4496   0.355E-01    0.153E-01
RMM:   2    -0.230680185887E+04   -0.34884E-02   -0.36089E-02  6094   0.760E-02    0.101E-01
RMM:   3    -0.230680217639E+04   -0.31751E-03   -0.32606E-03  3764   0.319E-02    0.124E-01
RMM:   4    -0.230680209586E+04    0.80526E-04   -0.44744E-04  2937   0.836E-03    0.354E-02
RMM:   5    -0.230680209108E+04    0.47771E-05   -0.40999E-05  2889   0.399E-03
  55 F= -.23275367E+04 E0= -.23275367E+04  d E =-.528051E-03  mag=     6.0000
       N       E                     dE             d eps       ncg     rms          rms(c)
DAV:   1    -0.230679973297E+04    0.23629E-02   -0.10099E-01  4496   0.278E-01    0.116E-01
RMM:   2    -0.230680188770E+04   -0.21547E-02   -0.22082E-02  5916   0.583E-02    0.900E-02
RMM:   3    -0.230680205157E+04   -0.16387E-03   -0.20588E-03  3497   0.263E-02    0.858E-02
RMM:   4    -0.230680201594E+04    0.35627E-04   -0.27055E-04  2924   0.683E-03    0.332E-02
RMM:   5    -0.230680201349E+04    0.24465E-05   -0.30410E-05  2868   0.360E-03
  56 F= -.23275368E+04 E0= -.23275368E+04  d E =-.660381E-03  mag=     6.0000
       N       E                     dE             d eps       ncg     rms          rms(c)
DAV:   1    -0.230680069835E+04    0.13176E-02   -0.73742E-02  4492   0.245E-01    0.994E-02
RMM:   2    -0.230680207492E+04   -0.13766E-02   -0.14415E-02  5879   0.519E-02    0.505E-02
RMM:   3    -0.230680219742E+04   -0.12250E-03   -0.14593E-03  3422   0.243E-02    0.447E-02
RMM:   4    -0.230680219588E+04    0.15431E-05   -0.17472E-04  2931   0.563E-03    0.294E-02
RMM:   5    -0.230680218969E+04    0.61861E-05   -0.20607E-05  2864   0.370E-03
  57 F= -.23275372E+04 E0= -.23275372E+04  d E =-.398041E-03  mag=     6.0000
       N       E                     dE             d eps       ncg     rms          rms(c)
DAV:   1    -0.230680122690E+04    0.96897E-03   -0.42961E-02  4592   0.186E-01    0.791E-02
RMM:   2    -0.230680204420E+04   -0.81730E-03   -0.84986E-03  5952   0.404E-02    0.532E-02
RMM:   3    -0.230680212040E+04   -0.76204E-04   -0.88189E-04  3074   0.178E-02    0.556E-02
RMM:   4    -0.230680209975E+04    0.20650E-04   -0.98225E-05  2909   0.492E-03    0.246E-02
RMM:   5    -0.230680209816E+04    0.15933E-05   -0.17694E-05  2885   0.279E-03
  58 F= -.23275373E+04 E0= -.23275373E+04  d E =-.476203E-03  mag=     6.0000
       N       E                     dE             d eps       ncg     rms          rms(c)
DAV:   1    -0.230680016085E+04    0.19389E-02   -0.96292E-02  4460   0.273E-01    0.111E-01
RMM:   2    -0.230680198906E+04   -0.18282E-02   -0.19126E-02  5983   0.556E-02    0.484E-02
RMM:   3    -0.230680213975E+04   -0.15068E-03   -0.18022E-03  3374   0.238E-02    0.309E-02
RMM:   4    -0.230680215344E+04   -0.13695E-04   -0.21769E-04  2932   0.571E-03    0.364E-02
RMM:   5    -0.230680214362E+04    0.98207E-05   -0.20157E-05  2861   0.331E-03
  59 F= -.23275376E+04 E0= -.23275376E+04  d E =-.334565E-03  mag=     6.0000
       N       E                     dE             d eps       ncg     rms          rms(c)
DAV:   1    -0.230680026228E+04    0.18912E-02   -0.82370E-02  4460   0.252E-01    0.105E-01
RMM:   2    -0.230680182561E+04   -0.15633E-02   -0.16358E-02  5992   0.521E-02    0.487E-02
RMM:   3    -0.230680196281E+04   -0.13720E-03   -0.15892E-03  3287   0.226E-02    0.355E-02
RMM:   4    -0.230680196986E+04   -0.70529E-05   -0.19381E-04  2919   0.535E-03    0.273E-02
RMM:   5    -0.230680196356E+04    0.63028E-05   -0.17089E-05  2875   0.305E-03
  60 F= -.23275377E+04 E0= -.23275377E+04  d E =-.422246E-03  mag=     6.0000
       N       E                     dE             d eps       ncg     rms          rms(c)
DAV:   1    -0.230680024130E+04    0.17286E-02   -0.94510E-02  4460   0.270E-01    0.111E-01
RMM:   2    -0.230680200542E+04   -0.17641E-02   -0.18367E-02  5997   0.565E-02    0.598E-02
RMM:   3    -0.230680217018E+04   -0.16476E-03   -0.17924E-03  3374   0.241E-02    0.658E-02
RMM:   4    -0.230680215384E+04    0.16342E-04   -0.22810E-04  2923   0.616E-03    0.343E-02
RMM:   5    -0.230680214368E+04    0.10159E-04   -0.22655E-05  2891   0.366E-03    0.179E-02
RMM:   6    -0.230680214456E+04   -0.88038E-06   -0.18128E-05  2866   0.369E-03
  61 F= -.23275381E+04 E0= -.23275381E+04  d E =-.381788E-03  mag=     6.0000
       N       E                     dE             d eps       ncg     rms          rms(c)
DAV:   1    -0.230680138135E+04    0.76233E-03   -0.33655E-02  4608   0.161E-01    0.681E-02
RMM:   2    -0.230680200877E+04   -0.62742E-03   -0.65746E-03  5874   0.341E-02    0.338E-02
RMM:   3    -0.230680206641E+04   -0.57640E-04   -0.64765E-04  2949   0.153E-02    0.349E-02
RMM:   4    -0.230680206400E+04    0.24122E-05   -0.78812E-05  2912   0.391E-03
  62 F= -.23275381E+04 E0= -.23275381E+04  d E =-.420961E-03  mag=     6.0000
       N       E                     dE             d eps       ncg     rms          rms(c)
DAV:   1    -0.230680074521E+04    0.13212E-02   -0.81901E-02  4460   0.250E-01    0.104E-01
RMM:   2    -0.230680217258E+04   -0.14274E-02   -0.14660E-02  5885   0.504E-02    0.744E-02
RMM:   3    -0.230680231380E+04   -0.14121E-03   -0.14534E-03  3354   0.225E-02    0.942E-02
RMM:   4    -0.230680225654E+04    0.57252E-04   -0.17868E-04  2913   0.598E-03    0.251E-02
RMM:   5    -0.230680225047E+04    0.60724E-05   -0.27217E-05  2918   0.357E-03
  63 F= -.23275384E+04 E0= -.23275384E+04  d E =-.265421E-03  mag=     6.0000
       N       E                     dE             d eps       ncg     rms          rms(c)
DAV:   1    -0.230680178236E+04    0.47418E-03   -0.24357E-02  4576   0.136E-01    0.578E-02
RMM:   2    -0.230680220446E+04   -0.42210E-03   -0.44065E-03  5682   0.295E-02    0.319E-02
RMM:   3    -0.230680224221E+04   -0.37754E-04   -0.43639E-04  2896   0.125E-02    0.320E-02
RMM:   4    -0.230680223725E+04    0.49589E-05   -0.53481E-05  2897   0.356E-03
  64 F= -.23275384E+04 E0= -.23275384E+04  d E =-.295424E-03  mag=     6.0000
       N       E                     dE             d eps       ncg     rms          rms(c)
DAV:   1    -0.230680092447E+04    0.13177E-02   -0.88828E-02  4460   0.263E-01    0.110E-01
RMM:   2    -0.230680241812E+04   -0.14936E-02   -0.15161E-02  5801   0.524E-02    0.952E-02
RMM:   3    -0.230680254460E+04   -0.12648E-03   -0.15687E-03  3399   0.242E-02    0.102E-01
RMM:   4    -0.230680247581E+04    0.68788E-04   -0.18755E-04  2903   0.641E-03    0.262E-02
RMM:   5    -0.230680247123E+04    0.45773E-05   -0.36331E-05  2925   0.405E-03
  65 F= -.23275387E+04 E0= -.23275387E+04  d E =-.317418E-03  mag=     6.0000
       N       E                     dE             d eps       ncg     rms          rms(c)
DAV:   1    -0.230680185982E+04    0.61599E-03   -0.33180E-02  4528   0.161E-01    0.685E-02
RMM:   2    -0.230680241709E+04   -0.55727E-03   -0.57494E-03  5841   0.346E-02    0.529E-02
RMM:   3    -0.230680245989E+04   -0.42795E-04   -0.60950E-04  2947   0.141E-02    0.490E-02
RMM:   4    -0.230680244377E+04    0.16118E-04   -0.70084E-05  2896   0.444E-03    0.183E-02
RMM:   5    -0.230680244454E+04   -0.77441E-06   -0.15676E-05  2871   0.271E-03
  66 F= -.23275388E+04 E0= -.23275388E+04  d E =-.341994E-03  mag=     6.0000
       N       E                     dE             d eps       ncg     rms          rms(c)
DAV:   1    -0.230680154519E+04    0.89857E-03   -0.56761E-02  4460   0.207E-01    0.824E-02
RMM:   2    -0.230680249066E+04   -0.94547E-03   -0.98120E-03  5954   0.411E-02    0.470E-02
RMM:   3    -0.230680257683E+04   -0.86168E-04   -0.94330E-04  3023   0.174E-02    0.543E-02
RMM:   4    -0.230680256501E+04    0.11823E-04   -0.11747E-04  2903   0.475E-03    0.221E-02
RMM:   5    -0.230680256301E+04    0.19995E-05   -0.14232E-05  2864   0.266E-03
  67 F= -.23275390E+04 E0= -.23275390E+04  d E =-.253802E-03  mag=     6.0000
       N       E                     dE             d eps       ncg     rms          rms(c)
DAV:   1    -0.230680022791E+04    0.23371E-02   -0.12797E-01  4460   0.310E-01    0.126E-01
RMM:   2    -0.230680235946E+04   -0.21315E-02   -0.22038E-02  5956   0.611E-02    0.783E-02
RMM:   3    -0.230680255076E+04   -0.19130E-03   -0.21367E-03  3531   0.257E-02    0.859E-02
RMM:   4    -0.230680251462E+04    0.36140E-04   -0.26356E-04  2923   0.685E-03    0.336E-02
RMM:   5    -0.230680251325E+04    0.13651E-05   -0.36817E-05  2886   0.398E-03
  68 F= -.23275392E+04 E0= -.23275392E+04  d E =-.407144E-03  mag=     6.0000
       N       E                     dE             d eps       ncg     rms          rms(c)
DAV:   1    -0.230680179563E+04    0.71898E-03   -0.66544E-02  4508   0.247E-01    0.966E-02
RMM:   2    -0.230680266601E+04   -0.87038E-03   -0.90868E-03  5843   0.485E-02    0.585E-02
RMM:   3    -0.230680273169E+04   -0.65676E-04   -0.91236E-04  3479   0.217E-02    0.554E-02
RMM:   4    -0.230680270697E+04    0.24720E-04   -0.11249E-04  2905   0.583E-03    0.236E-02
RMM:   5    -0.230680270186E+04    0.51044E-05   -0.23222E-05  2892   0.427E-03
  69 F= -.23275395E+04 E0= -.23275395E+04  d E =-.334936E-03  mag=     6.0000
       N       E                     dE             d eps       ncg     rms          rms(c)
DAV:   1    -0.230680232516E+04    0.38181E-03   -0.23538E-02  4592   0.147E-01    0.613E-02
RMM:   2    -0.230680265926E+04   -0.33410E-03   -0.32619E-03  5769   0.309E-02    0.694E-02
RMM:   3    -0.230680266628E+04   -0.70137E-05   -0.35561E-04  2988   0.124E-02    0.508E-02
RMM:   4    -0.230680264834E+04    0.17938E-04   -0.44284E-05  2883   0.431E-03    0.146E-02
RMM:   5    -0.230680264836E+04   -0.24273E-07   -0.11472E-05  2869   0.265E-03
  70 F= -.23275395E+04 E0= -.23275395E+04  d E =-.368699E-03  mag=     6.0000
       N       E                     dE             d eps       ncg     rms          rms(c)
DAV:   1    -0.230680177227E+04    0.87607E-03   -0.72926E-02  4460   0.233E-01    0.922E-02
RMM:   2    -0.230680278130E+04   -0.10090E-02   -0.10501E-02  5883   0.457E-02    0.519E-02
RMM:   3    -0.230680285381E+04   -0.72509E-04   -0.91026E-04  3230   0.198E-02    0.532E-02
RMM:   4    -0.230680283882E+04    0.14985E-04   -0.12643E-04  2912   0.518E-03    0.270E-02
RMM:   5    -0.230680283776E+04    0.10652E-05   -0.20576E-05  2868   0.326E-03
  71 F= -.23275398E+04 E0= -.23275398E+04  d E =-.296265E-03  mag=     6.0000
       N       E                     dE             d eps       ncg     rms          rms(c)
DAV:   1    -0.230680171105E+04    0.11278E-02   -0.74182E-02  4460   0.235E-01    0.938E-02
RMM:   2    -0.230680274126E+04   -0.10302E-02   -0.10707E-02  5933   0.465E-02    0.570E-02
RMM:   3    -0.230680281270E+04   -0.71439E-04   -0.96316E-04  3226   0.195E-02    0.504E-02
RMM:   4    -0.230680279739E+04    0.15303E-04   -0.12563E-04  2907   0.543E-03    0.249E-02
RMM:   5    -0.230680279211E+04    0.52870E-05   -0.21315E-05  2877   0.378E-03
  72 F= -.23275399E+04 E0= -.23275399E+04  d E =-.358184E-03  mag=     6.0000
       N       E                     dE             d eps       ncg     rms          rms(c)
DAV:   1    -0.230680234865E+04    0.44875E-03   -0.46661E-02  4528   0.188E-01    0.773E-02
RMM:   2    -0.230680298659E+04   -0.63795E-03   -0.65415E-03  5932   0.380E-02    0.616E-02
RMM:   3    -0.230680304221E+04   -0.55618E-04   -0.68731E-04  3057   0.159E-02    0.639E-02
RMM:   4    -0.230680301648E+04    0.25734E-04   -0.84033E-05  2890   0.478E-03    0.262E-02
RMM:   5    -0.230680301400E+04    0.24787E-05   -0.18813E-05  2878   0.266E-03
  73 F= -.23275402E+04 E0= -.23275402E+04  d E =-.304200E-03  mag=     6.0000
       N       E                     dE             d eps       ncg     rms          rms(c)
DAV:   1    -0.230680010359E+04    0.29129E-02   -0.21411E-01  4460   0.401E-01    0.162E-01
RMM:   2    -0.230680299748E+04   -0.28939E-02   -0.29922E-02  5742   0.760E-02    0.103E-01
RMM:   3    -0.230680322328E+04   -0.22580E-03   -0.27156E-03  4067   0.356E-02    0.122E-01
RMM:   4    -0.230680312460E+04    0.98686E-04   -0.37519E-04  2969   0.845E-03    0.444E-02
RMM:   5    -0.230680312310E+04    0.14976E-05   -0.67313E-05  2905   0.527E-03
  74 F= -.23275405E+04 E0= -.23275405E+04  d E =-.588129E-03  mag=     6.0000
       N       E                     dE             d eps       ncg     rms          rms(c)
DAV:   1    -0.230680262412E+04    0.50048E-03   -0.59773E-02  4512   0.211E-01    0.877E-02
RMM:   2    -0.230680337351E+04   -0.74939E-03   -0.76765E-03  5927   0.432E-02    0.649E-02
RMM:   3    -0.230680342170E+04   -0.48183E-04   -0.77352E-04  3223   0.180E-02    0.658E-02
RMM:   4    -0.230680339140E+04    0.30294E-04   -0.98983E-05  2915   0.547E-03    0.268E-02
RMM:   5    -0.230680339376E+04   -0.23602E-05   -0.28719E-05  2878   0.370E-03
  75 F= -.23275409E+04 E0= -.23275409E+04  d E =-.370862E-03  mag=     6.0000
       N       E                     dE             d eps       ncg     rms          rms(c)
DAV:   1    -0.230680252712E+04    0.86428E-03   -0.68401E-02  4460   0.224E-01    0.934E-02
RMM:   2    -0.230680337017E+04   -0.84305E-03   -0.87736E-03  5825   0.443E-02    0.597E-02
RMM:   3    -0.230680343627E+04   -0.66099E-04   -0.85674E-04  3370   0.205E-02    0.699E-02
RMM:   4    -0.230680340114E+04    0.35128E-04   -0.11231E-04  2916   0.557E-03    0.268E-02
RMM:   5    -0.230680340145E+04   -0.30978E-06   -0.28814E-05  2882   0.382E-03
  76 F= -.23275410E+04 E0= -.23275410E+04  d E =-.485331E-03  mag=     6.0000
       N       E                     dE             d eps       ncg     rms          rms(c)
DAV:   1    -0.230680274788E+04    0.65326E-03   -0.76080E-02  4460   0.224E-01    0.954E-02
RMM:   2    -0.230680359589E+04   -0.84800E-03   -0.87764E-03  5822   0.438E-02    0.618E-02
RMM:   3    -0.230680366179E+04   -0.65904E-04   -0.87507E-04  3304   0.198E-02    0.728E-02
RMM:   4    -0.230680362528E+04    0.36510E-04   -0.11631E-04  2921   0.544E-03    0.269E-02
RMM:   5    -0.230680362713E+04   -0.18454E-05   -0.29845E-05  2880   0.367E-03
  77 F= -.23275413E+04 E0= -.23275413E+04  d E =-.306197E-03  mag=     6.0000
       N       E                     dE             d eps       ncg     rms          rms(c)
DAV:   1    -0.230680290230E+04    0.72298E-03   -0.62161E-02  4476   0.202E-01    0.867E-02
RMM:   2    -0.230680359611E+04   -0.69381E-03   -0.71975E-03  5826   0.393E-02    0.564E-02
RMM:   3    -0.230680364966E+04   -0.53555E-04   -0.72403E-04  3172   0.178E-02    0.659E-02
RMM:   4    -0.230680361977E+04    0.29891E-04   -0.96245E-05  2916   0.504E-03    0.249E-02
RMM:   5    -0.230680362116E+04   -0.13902E-05   -0.25425E-05  2878   0.340E-03
  78 F= -.23275413E+04 E0= -.23275413E+04  d E =-.373014E-03  mag=     6.0000
       N       E                     dE             d eps       ncg     rms          rms(c)
DAV:   1    -0.230680308256E+04    0.53721E-03   -0.75613E-02  4460   0.213E-01    0.910E-02
RMM:   2    -0.230680385704E+04   -0.77448E-03   -0.80917E-03  5760   0.410E-02    0.525E-02
RMM:   3    -0.230680391091E+04   -0.53863E-04   -0.80122E-04  3186   0.185E-02    0.614E-02
RMM:   4    -0.230680388741E+04    0.23499E-04   -0.10389E-04  2919   0.507E-03    0.262E-02
RMM:   5    -0.230680388825E+04   -0.84589E-06   -0.26960E-05  2879   0.349E-03
  79 F= -.23275417E+04 E0= -.23275417E+04  d E =-.330466E-03  mag=     6.0000
       N       E                     dE             d eps       ncg     rms          rms(c)
DAV:   1    -0.230680282863E+04    0.10588E-02   -0.10386E-01  4460   0.250E-01    0.107E-01
RMM:   2    -0.230680389446E+04   -0.10658E-02   -0.11146E-02  5809   0.475E-02    0.622E-02
RMM:   3    -0.230680396571E+04   -0.71252E-04   -0.11039E-03  3350   0.217E-02    0.721E-02
RMM:   4    -0.230680393276E+04    0.32952E-04   -0.14284E-04  2925   0.582E-03    0.310E-02
RMM:   5    -0.230680393352E+04   -0.76050E-06   -0.37659E-05  2885   0.411E-03
  80 F= -.23275418E+04 E0= -.23275418E+04  d E =-.450041E-03  mag=     6.0000
       N       E                     dE             d eps       ncg     rms          rms(c)
DAV:   1    -0.230680308401E+04    0.84875E-03   -0.11704E-01  4460   0.264E-01    0.112E-01
RMM:   2    -0.230680420312E+04   -0.11191E-02   -0.11785E-02  5742   0.505E-02    0.600E-02
RMM:   3    -0.230680426253E+04   -0.59407E-04   -0.11502E-03  3440   0.231E-02    0.595E-02
RMM:   4    -0.230680424317E+04    0.19360E-04   -0.14525E-04  2944   0.598E-03    0.339E-02
RMM:   5    -0.230680424206E+04    0.11071E-05   -0.40862E-05  2896   0.447E-03
  81 F= -.23275422E+04 E0= -.23275422E+04  d E =-.421671E-03  mag=     6.0000
       N       E                     dE             d eps       ncg     rms          rms(c)
DAV:   1    -0.230680351272E+04    0.73045E-03   -0.71403E-02  4460   0.206E-01    0.888E-02
RMM:   2    -0.230680420062E+04   -0.68790E-03   -0.72475E-03  5774   0.402E-02    0.509E-02
RMM:   3    -0.230680423531E+04   -0.34687E-04   -0.73413E-04  3181   0.176E-02    0.462E-02
RMM:   4    -0.230680422197E+04    0.13339E-04   -0.84999E-05  2921   0.506E-03    0.282E-02
RMM:   5    -0.230680422175E+04    0.22384E-06   -0.30167E-05  2908   0.374E-03
  82 F= -.23275423E+04 E0= -.23275423E+04  d E =-.489914E-03  mag=     6.0000
       N       E                     dE             d eps       ncg     rms          rms(c)
DAV:   1    -0.230680289359E+04    0.13284E-02   -0.15042E-01  4460   0.296E-01    0.127E-01
RMM:   2    -0.230680432855E+04   -0.14350E-02   -0.15129E-02  5768   0.556E-02    0.629E-02
RMM:   3    -0.230680441801E+04   -0.89464E-04   -0.14808E-03  3575   0.258E-02    0.600E-02
RMM:   4    -0.230680440345E+04    0.14562E-04   -0.18825E-04  2951   0.643E-03    0.408E-02
RMM:   5    -0.230680439768E+04    0.57733E-05   -0.43335E-05  2913   0.439E-03
  83 F= -.23275427E+04 E0= -.23275427E+04  d E =-.373063E-03  mag=     6.0000
       N       E                     dE             d eps       ncg     rms          rms(c)
DAV:   1    -0.230680370473E+04    0.69873E-03   -0.59913E-02  4524   0.187E-01    0.826E-02
RMM:   2    -0.230680429821E+04   -0.59349E-03   -0.61473E-03  5672   0.366E-02    0.625E-02
RMM:   3    -0.230680433745E+04   -0.39239E-04   -0.66057E-04  3082   0.163E-02    0.620E-02
RMM:   4    -0.230680431107E+04    0.26386E-04   -0.81336E-05  2908   0.505E-03    0.279E-02
RMM:   5    -0.230680431147E+04   -0.40319E-06   -0.26412E-05  2883   0.318E-03
  84 F= -.23275427E+04 E0= -.23275427E+04  d E =-.411829E-03  mag=     6.0000
       N       E                     dE             d eps       ncg     rms          rms(c)
DAV:   1    -0.230680294950E+04    0.13616E-02   -0.15920E-01  4460   0.302E-01    0.129E-01
RMM:   2    -0.230680450310E+04   -0.15536E-02   -0.16306E-02  5716   0.570E-02    0.716E-02
RMM:   3    -0.230680460423E+04   -0.10113E-03   -0.15225E-03  3568   0.269E-02    0.761E-02
RMM:   4    -0.230680457315E+04    0.31083E-04   -0.19394E-04  2939   0.675E-03    0.410E-02
RMM:   5    -0.230680456948E+04    0.36721E-05   -0.57804E-05  2918   0.494E-03
  85 F= -.23275432E+04 E0= -.23275432E+04  d E =-.473633E-03  mag=     6.0000
       N       E                     dE             d eps       ncg     rms          rms(c)
DAV:   1    -0.230680360108E+04    0.97207E-03   -0.85958E-02  4460   0.222E-01    0.969E-02
RMM:   2    -0.230680445481E+04   -0.85373E-03   -0.88879E-03  5907   0.441E-02    0.643E-02
RMM:   3    -0.230680450450E+04   -0.49685E-04   -0.88507E-04  3171   0.185E-02    0.596E-02
RMM:   4    -0.230680447872E+04    0.25776E-04   -0.11050E-04  2919   0.560E-03    0.260E-02
RMM:   5    -0.230680447693E+04    0.17927E-05   -0.32196E-05  2907   0.418E-03
  86 F= -.23275432E+04 E0= -.23275432E+04  d E =-.539703E-03  mag=     6.0000
       N       E                     dE             d eps       ncg     rms          rms(c)
DAV:   1    -0.230680268543E+04    0.17933E-02   -0.19140E-01  4456   0.334E-01    0.144E-01
RMM:   2    -0.230680464699E+04   -0.19616E-02   -0.20644E-02  5876   0.649E-02    0.738E-02
RMM:   3    -0.230680474656E+04   -0.99564E-04   -0.17795E-03  3755   0.289E-02    0.660E-02
RMM:   4    -0.230680472727E+04    0.19285E-04   -0.23719E-04  2970   0.734E-03    0.389E-02
RMM:   5    -0.230680471402E+04    0.13255E-04   -0.50910E-05  2916   0.546E-03    0.192E-02
RMM:   6    -0.230680471651E+04   -0.24908E-05   -0.19553E-05  2901   0.470E-03
  87 F= -.23275437E+04 E0= -.23275437E+04  d E =-.484842E-03  mag=     6.0000
       N       E                     dE             d eps       ncg     rms          rms(c)
DAV:   1    -0.230680398490E+04    0.72912E-03   -0.59861E-02  4512   0.186E-01    0.820E-02
RMM:   2    -0.230680460159E+04   -0.61669E-03   -0.64567E-03  5831   0.370E-02    0.480E-02
RMM:   3    -0.230680465060E+04   -0.49012E-04   -0.61468E-04  3056   0.159E-02    0.605E-02
RMM:   4    -0.230680462633E+04    0.24273E-04   -0.80939E-05  2911   0.456E-03    0.239E-02
RMM:   5    -0.230680462158E+04    0.47515E-05   -0.16573E-05  2894   0.298E-03
  88 F= -.23275438E+04 E0= -.23275438E+04  d E =-.527037E-03  mag=     6.0000
       N       E                     dE             d eps       ncg     rms          rms(c)
DAV:   1    -0.230680241284E+04    0.22135E-02   -0.20751E-01  4456   0.338E-01    0.150E-01
RMM:   2    -0.230680475093E+04   -0.23381E-02   -0.24202E-02  5819   0.670E-02    0.101E-01
RMM:   3    -0.230680488656E+04   -0.13563E-03   -0.21738E-03  3724   0.297E-02    0.108E-01
RMM:   4    -0.230680480991E+04    0.76654E-04   -0.28537E-04  2967   0.790E-03    0.451E-02
RMM:   5    -0.230680480959E+04    0.31861E-06   -0.71154E-05  2910   0.517E-03
  89 F= -.23275442E+04 E0= -.23275442E+04  d E =-.490262E-03  mag=     6.0000
       N       E                     dE             d eps       ncg     rms          rms(c)
DAV:   1    -0.230680422411E+04    0.58580E-03   -0.40188E-02  4544   0.149E-01    0.676E-02
RMM:   2    -0.230680468651E+04   -0.46240E-03   -0.47519E-03  5681   0.317E-02    0.520E-02
RMM:   3    -0.230680471168E+04   -0.25164E-04   -0.50775E-04  2935   0.138E-02    0.463E-02
RMM:   4    -0.230680469633E+04    0.15345E-04   -0.57867E-05  2911   0.421E-03    0.198E-02
RMM:   5    -0.230680469823E+04   -0.18995E-05   -0.19379E-05  2880   0.295E-03
  90 F= -.23275443E+04 E0= -.23275443E+04  d E =-.512996E-03  mag=     6.0000
       N       E                     dE             d eps       ncg     rms          rms(c)
DAV:   1    -0.230680239841E+04    0.22979E-02   -0.20048E-01  4456   0.351E-01    0.153E-01
RMM:   2    -0.230680470388E+04   -0.23055E-02   -0.24133E-02  5740   0.691E-02    0.895E-02
RMM:   3    -0.230680485797E+04   -0.15409E-03   -0.21169E-03  3849   0.312E-02    0.104E-01
RMM:   4    -0.230680479177E+04    0.66203E-04   -0.29028E-04  2965   0.810E-03    0.443E-02
RMM:   5    -0.230680478520E+04    0.65678E-05   -0.70301E-05  2924   0.567E-03
  91 F= -.23275447E+04 E0= -.23275447E+04  d E =-.459517E-03  mag=     6.0000
       N       E                     dE             d eps       ncg     rms          rms(c)
DAV:   1    -0.230680452199E+04    0.26978E-03   -0.13105E-02  4720   0.899E-02    0.444E-02
RMM:   2    -0.230680469190E+04   -0.16991E-03   -0.16590E-03  4929   0.204E-02    0.491E-02
RMM:   3    -0.230680468627E+04    0.56271E-05   -0.19143E-04  2887   0.949E-03    0.247E-02
RMM:   4    -0.230680468180E+04    0.44725E-05   -0.20710E-05  2890   0.302E-03
  92 F= -.23275447E+04 E0= -.23275447E+04  d E =-.452618E-03  mag=     6.0000
       N       E                     dE             d eps       ncg     rms          rms(c)
DAV:   1    -0.230680257279E+04    0.21135E-02   -0.17115E-01  4460   0.321E-01    0.142E-01
RMM:   2    -0.230680468763E+04   -0.21148E-02   -0.21649E-02  5760   0.635E-02    0.113E-01
RMM:   3    -0.230680482812E+04   -0.14049E-03   -0.19411E-03  3616   0.279E-02    0.123E-01
RMM:   4    -0.230680471312E+04    0.11500E-03   -0.25579E-04  2951   0.775E-03    0.354E-02
RMM:   5    -0.230680470279E+04    0.10338E-04   -0.52753E-05  2947   0.525E-03    0.165E-02
RMM:   6    -0.230680470283E+04   -0.41764E-07   -0.16314E-05  2905   0.473E-03
  93 F= -.23275451E+04 E0= -.23275451E+04  d E =-.362394E-03  mag=     6.0000
       N       E                     dE             d eps       ncg     rms          rms(c)
DAV:   1    -0.230680440053E+04    0.30226E-03   -0.15971E-02  4584   0.979E-02    0.443E-02
RMM:   2    -0.230680459764E+04   -0.19711E-03   -0.20476E-03  4994   0.212E-02    0.290E-02
RMM:   3    -0.230680461231E+04   -0.14672E-04   -0.19399E-04  2897   0.998E-03    0.328E-02
RMM:   4    -0.230680460523E+04    0.70852E-05   -0.25466E-05  2883   0.301E-03
  94 F= -.23275451E+04 E0= -.23275451E+04  d E =-.369296E-03  mag=     6.0000
       N       E                     dE             d eps       ncg     rms          rms(c)
DAV:   1    -0.230680255296E+04    0.20594E-02   -0.17799E-01  4456   0.339E-01    0.146E-01
RMM:   2    -0.230680467712E+04   -0.21242E-02   -0.21913E-02  5669   0.652E-02    0.103E-01
RMM:   3    -0.230680483151E+04   -0.15439E-03   -0.19760E-03  3728   0.298E-02    0.122E-01
RMM:   4    -0.230680471872E+04    0.11279E-03   -0.26435E-04  2950   0.790E-03    0.389E-02
RMM:   5    -0.230680471629E+04    0.24326E-05   -0.65944E-05  2928   0.529E-03
  95 F= -.23275455E+04 E0= -.23275455E+04  d E =-.391886E-03  mag=     6.0000
       N       E                     dE             d eps       ncg     rms          rms(c)
DAV:   1    -0.230680440458E+04    0.31414E-03   -0.17532E-02  4632   0.106E-01    0.481E-02
RMM:   2    -0.230680462497E+04   -0.22039E-03   -0.22358E-03  5124   0.234E-02    0.418E-02
RMM:   3    -0.230680463183E+04   -0.68618E-05   -0.23091E-04  2901   0.103E-02    0.324E-02
RMM:   4    -0.230680462382E+04    0.80132E-05   -0.27560E-05  2896   0.341E-03
  96 F= -.23275455E+04 E0= -.23275455E+04  d E =-.388547E-03  mag=     6.0000
       N       E                     dE             d eps       ncg     rms          rms(c)
DAV:   1    -0.230680264241E+04    0.19894E-02   -0.16915E-01  4456   0.329E-01    0.144E-01
RMM:   2    -0.230680472977E+04   -0.20874E-02   -0.21331E-02  5717   0.642E-02    0.116E-01
RMM:   3    -0.230680488437E+04   -0.15460E-03   -0.20037E-03  3693   0.303E-02    0.128E-01
RMM:   4    -0.230680476104E+04    0.12333E-03   -0.26567E-04  2952   0.794E-03    0.373E-02
RMM:   5    -0.230680475548E+04    0.55620E-05   -0.58801E-05  2954   0.533E-03
  97 F= -.23275458E+04 E0= -.23275458E+04  d E =-.354229E-03  mag=     6.0000
       N       E                     dE             d eps       ncg     rms          rms(c)
DAV:   1    -0.230680463436E+04    0.12668E-03   -0.59915E-03  5032   0.623E-02    0.344E-02
RMM:   2    -0.230680472902E+04   -0.94656E-04   -0.82707E-04  3903   0.144E-02    0.492E-02
RMM:   3    -0.230680471034E+04    0.18678E-04   -0.10014E-04  2868   0.772E-03    0.153E-02
RMM:   4    -0.230680470980E+04    0.54079E-06   -0.12687E-05  2881   0.230E-03
  98 F= -.23275458E+04 E0= -.23275458E+04  d E =-.351166E-03  mag=     6.0000
       N       E                     dE             d eps       ncg     rms          rms(c)
DAV:   1    -0.230680275845E+04    0.19519E-02   -0.15572E-01  4456   0.312E-01    0.138E-01
RMM:   2    -0.230680475775E+04   -0.19993E-02   -0.20689E-02  5723   0.620E-02    0.930E-02
RMM:   3    -0.230680491852E+04   -0.16077E-03   -0.18485E-03  3600   0.283E-02    0.110E-01
RMM:   4    -0.230680483168E+04    0.86848E-04   -0.25376E-04  2938   0.747E-03    0.418E-02
RMM:   5    -0.230680482813E+04    0.35483E-05   -0.59278E-05  2932   0.481E-03
  99 F= -.23275462E+04 E0= -.23275462E+04  d E =-.354236E-03  mag=     6.0000
       N       E                     dE             d eps       ncg     rms          rms(c)
DAV:   1    -0.230680460539E+04    0.22629E-03   -0.11138E-02  4728   0.838E-02    0.402E-02
RMM:   2    -0.230680476069E+04   -0.15530E-03   -0.15534E-03  4567   0.189E-02    0.391E-02
RMM:   3    -0.230680476131E+04   -0.62183E-06   -0.16355E-04  2886   0.912E-03    0.245E-02
RMM:   4    -0.230680475681E+04    0.45002E-05   -0.19176E-05  2886   0.292E-03
 100 F= -.23275462E+04 E0= -.23275462E+04  d E =-.347074E-03  mag=     6.0000
       N       E                     dE             d eps       ncg     rms          rms(c)
DAV:   1    -0.230680244368E+04    0.23176E-02   -0.17424E-01  4456   0.325E-01    0.147E-01
RMM:   2    -0.230680476870E+04   -0.23250E-02   -0.23927E-02  5798   0.652E-02    0.104E-01
RMM:   3    -0.230680496653E+04   -0.19783E-03   -0.21853E-03  3535   0.292E-02    0.120E-01
RMM:   4    -0.230680486343E+04    0.10310E-03   -0.29515E-04  2942   0.786E-03    0.432E-02
RMM:   5    -0.230680486033E+04    0.30999E-05   -0.64290E-05  2943   0.488E-03
 101 F= -.23275465E+04 E0= -.23275465E+04  d E =-.356612E-03  mag=     6.0000
       N       E                     dE             d eps       ncg     rms          rms(c)
DAV:   1    -0.230680463644E+04    0.22699E-03   -0.10773E-02  4688   0.813E-02    0.399E-02
RMM:   2    -0.230680479247E+04   -0.15603E-03   -0.15461E-03  4383   0.183E-02    0.395E-02
RMM:   3    -0.230680479404E+04   -0.15703E-05   -0.17016E-04  2889   0.920E-03    0.238E-02
RMM:   4    -0.230680479008E+04    0.39518E-05   -0.19038E-05  2886   0.287E-03
 102 F= -.23275465E+04 E0= -.23275465E+04  d E =-.350366E-03  mag=     6.0000
       N       E                     dE             d eps       ncg     rms          rms(c)
DAV:   1    -0.230680262308E+04    0.21710E-02   -0.16196E-01  4456   0.307E-01    0.140E-01
[...]
RMM:   3    -0.230680524169E+04    0.18165E-06   -0.13479E-05  2698   0.375E-03
 158 F= -.23275522E+04 E0= -.23275522E+04  d E =-.109157E-03  mag=     6.0000
       N       E                     dE             d eps       ncg     rms          rms(c)
DAV:   1    -0.230680502505E+04    0.21681E-03   -0.28079E-02  4440   0.137E-01    0.584E-02
RMM:   2    -0.230680525104E+04   -0.22598E-03   -0.23524E-03  5528   0.265E-02    0.430E-02
RMM:   3    -0.230680526153E+04   -0.10496E-04   -0.23402E-04  2967   0.127E-02    0.433E-02
RMM:   4    -0.230680524670E+04    0.14832E-04   -0.33316E-05  2888   0.371E-03    0.215E-02
RMM:   5    -0.230680524555E+04    0.11551E-05   -0.13892E-05  2833   0.259E-03
 159 F= -.23275523E+04 E0= -.23275523E+04  d E =-.964340E-04  mag=     6.0000
       N       E                     dE             d eps       ncg     rms          rms(c)
DAV:   1    -0.230680523282E+04    0.13883E-04   -0.17547E-04  5144   0.116E-02    0.690E-03
RMM:   2    -0.230680523465E+04   -0.18279E-05   -0.18752E-05  2629   0.293E-03
 160 F= -.23275523E+04 E0= -.23275523E+04  d E =-.933651E-04  mag=     6.0000
       N       E                     dE             d eps       ncg     rms          rms(c)
DAV:   1    -0.230680506820E+04    0.16462E-03   -0.22883E-02  4440   0.123E-01    0.530E-02
RMM:   2    -0.230680524393E+04   -0.17573E-03   -0.18486E-03  5282   0.243E-02    0.352E-02
RMM:   3    -0.230680524934E+04   -0.54045E-05   -0.17984E-04  2990   0.124E-02    0.321E-02
RMM:   4    -0.230680524015E+04    0.91822E-05   -0.25206E-05  2891   0.342E-03
 161 F= -.23275524E+04 E0= -.23275524E+04  d E =-.859114E-04  mag=     6.0000
       N       E                     dE             d eps       ncg     rms          rms(c)
DAV:   1    -0.230680522655E+04    0.22786E-04   -0.45207E-04  5080   0.177E-02    0.215E-02
RMM:   2    -0.230680525330E+04   -0.26753E-04   -0.77444E-05  2933   0.474E-03    0.577E-02
RMM:   3    -0.230680522704E+04    0.26266E-04   -0.23497E-05  2620   0.313E-03    0.687E-03
RMM:   4    -0.230680522723E+04   -0.19485E-06   -0.34845E-06  1952   0.111E-03
 162 F= -.23275524E+04 E0= -.23275524E+04  d E =-.845022E-04  mag=     6.0000
       N       E                     dE             d eps       ncg     rms          rms(c)
DAV:   1    -0.230680508250E+04    0.14453E-03   -0.23779E-02  4456   0.122E-01    0.522E-02
RMM:   2    -0.230680525031E+04   -0.16781E-03   -0.17837E-03  5419   0.230E-02    0.349E-02
RMM:   3    -0.230680525772E+04   -0.74037E-05   -0.17510E-04  2933   0.111E-02    0.353E-02
RMM:   4    -0.230680524702E+04    0.10696E-04   -0.24415E-05  2877   0.323E-03    0.175E-02
RMM:   5    -0.230680524719E+04   -0.17197E-06   -0.10983E-05  2819   0.235E-03
 163 F= -.23275525E+04 E0= -.23275525E+04  d E =-.766106E-04  mag=     6.0000
       N       E                     dE             d eps       ncg     rms          rms(c)
DAV:   1    -0.230680523900E+04    0.80194E-05   -0.11701E-04  4840   0.937E-03    0.564E-03
RMM:   2    -0.230680524008E+04   -0.10732E-05   -0.11622E-05  2537   0.268E-03
 164 F= -.23275525E+04 E0= -.23275525E+04  d E =-.737089E-04  mag=     6.0000
       N       E                     dE             d eps       ncg     rms          rms(c)
DAV:   1    -0.230680513460E+04    0.10441E-03   -0.20209E-02  4456   0.107E-01    0.471E-02
RMM:   2    -0.230680527306E+04   -0.13847E-03   -0.14655E-03  5147   0.209E-02    0.311E-02
RMM:   3    -0.230680527569E+04   -0.26317E-05   -0.13837E-04  2937   0.109E-02    0.276E-02
RMM:   4    -0.230680526875E+04    0.69447E-05   -0.20096E-05  2887   0.294E-03
 165 F= -.23275525E+04 E0= -.23275525E+04  d E =-.767183E-04  mag=     6.0000
       N       E                     dE             d eps       ncg     rms          rms(c)
DAV:   1    -0.230680524099E+04    0.34702E-04   -0.23607E-03  4496   0.366E-02    0.232E-02
RMM:   2    -0.230680527277E+04   -0.31775E-04   -0.19471E-04  3101   0.793E-03    0.480E-02
RMM:   3    -0.230680525536E+04    0.17408E-04   -0.34091E-05  2847   0.478E-03    0.100E-02
RMM:   4    -0.230680525448E+04    0.88190E-06   -0.36110E-06  2703   0.155E-03
 166 F= -.23275526E+04 E0= -.23275526E+04  d E =-.791756E-04  mag=     6.0000
       N       E                     dE             d eps       ncg     rms          rms(c)
DAV:   1    -0.230680514726E+04    0.10810E-03   -0.21238E-02  4456   0.110E-01    0.468E-02
RMM:   2    -0.230680528700E+04   -0.13974E-03   -0.14994E-03  5318   0.213E-02    0.269E-02
RMM:   3    -0.230680529059E+04   -0.35910E-05   -0.13372E-04  2919   0.106E-02    0.253E-02
RMM:   4    -0.230680528566E+04    0.49315E-05   -0.20273E-05  2896   0.292E-03
 167 F= -.23275526E+04 E0= -.23275526E+04  d E =-.899034E-04  mag=     6.0000
       N       E                     dE             d eps       ncg     rms          rms(c)
DAV:   1    -0.230680523360E+04    0.56993E-04   -0.47552E-03  4552   0.522E-02    0.265E-02
RMM:   2    -0.230680527358E+04   -0.39981E-04   -0.34595E-04  3517   0.107E-02    0.385E-02
RMM:   3    -0.230680526574E+04    0.78384E-05   -0.46627E-05  2891   0.638E-03
 168 F= -.23275526E+04 E0= -.23275526E+04  d E =-.980892E-04  mag=     6.0000
       N       E                     dE             d eps       ncg     rms          rms(c)
DAV:   1    -0.230680517319E+04    0.10039E-03   -0.20419E-02  4456   0.107E-01    0.481E-02
RMM:   2    -0.230680531417E+04   -0.14098E-03   -0.14240E-03  5228   0.209E-02    0.402E-02
RMM:   3    -0.230680531186E+04    0.23081E-05   -0.14013E-04  2910   0.967E-03    0.292E-02
RMM:   4    -0.230680530458E+04    0.72836E-05   -0.19248E-05  2889   0.302E-03
 169 F= -.23275527E+04 E0= -.23275527E+04  d E =-.828343E-04  mag=     6.0000
       N       E                     dE             d eps       ncg     rms          rms(c)
DAV:   1    -0.230680526841E+04    0.43450E-04   -0.39894E-03  4472   0.472E-02    0.301E-02
RMM:   2    -0.230680531958E+04   -0.51169E-04   -0.31306E-04  3363   0.992E-03    0.602E-02
RMM:   3    -0.230680529248E+04    0.27104E-04   -0.51988E-05  2891   0.573E-03    0.139E-02
RMM:   4    -0.230680529095E+04    0.15293E-05   -0.58081E-06  2814   0.188E-03
 170 F= -.23275527E+04 E0= -.23275527E+04  d E =-.887952E-04  mag=     6.0000
       N       E                     dE             d eps       ncg     rms          rms(c)
DAV:   1    -0.230680522867E+04    0.63803E-04   -0.20186E-02  4424   0.105E-01    0.454E-02
RMM:   2    -0.230680535998E+04   -0.13130E-03   -0.13911E-03  5176   0.205E-02    0.295E-02
RMM:   3    -0.230680536268E+04   -0.27007E-05   -0.12802E-04  2912   0.100E-02    0.270E-02
RMM:   4    -0.230680535620E+04    0.64820E-05   -0.18394E-05  2895   0.287E-03
 171 F= -.23275528E+04 E0= -.23275528E+04  d E =-.942903E-04  mag=     6.0000
       N       E                     dE             d eps       ncg     rms          rms(c)
DAV:   1    -0.230680532181E+04    0.40868E-04   -0.49986E-03  4468   0.519E-02    0.269E-02
RMM:   2    -0.230680536348E+04   -0.41667E-04   -0.34944E-04  3449   0.107E-02    0.412E-02
RMM:   3    -0.230680535398E+04    0.95009E-05   -0.49100E-05  2890   0.641E-03
 172 F= -.23275528E+04 E0= -.23275528E+04  d E =-.106658E-03  mag=     6.0000
       N       E                     dE             d eps       ncg     rms          rms(c)
DAV:   1    -0.230680531992E+04    0.43556E-04   -0.16928E-02  4424   0.988E-02    0.452E-02
RMM:   2    -0.230680543138E+04   -0.11146E-03   -0.11324E-03  5080   0.195E-02    0.389E-02
RMM:   3    -0.230680542699E+04    0.43945E-05   -0.11571E-04  2909   0.936E-03    0.272E-02
RMM:   4    -0.230680542001E+04    0.69800E-05   -0.15466E-05  2882   0.292E-03
 173 F= -.23275529E+04 E0= -.23275529E+04  d E =-.914148E-04  mag=     6.0000
       N       E                     dE             d eps       ncg     rms          rms(c)
DAV:   1    -0.230680539892E+04    0.28071E-04   -0.32945E-03  4480   0.435E-02    0.288E-02
RMM:   2    -0.230680544610E+04   -0.47184E-04   -0.26325E-04  3288   0.947E-03    0.621E-02
RMM:   3    -0.230680541622E+04    0.29881E-04   -0.48185E-05  2888   0.567E-03    0.123E-02
RMM:   4    -0.230680541486E+04    0.13635E-05   -0.50319E-06  2813   0.184E-03
 174 F= -.23275529E+04 E0= -.23275529E+04  d E =-.975590E-04  mag=     6.0000
       N       E                     dE             d eps       ncg     rms          rms(c)
DAV:   1    -0.230680531347E+04    0.10275E-03   -0.19030E-02  4424   0.107E-01    0.453E-02
RMM:   2    -0.230680543243E+04   -0.11896E-03   -0.13006E-03  5166   0.209E-02    0.231E-02
RMM:   3    -0.230680543493E+04   -0.25031E-05   -0.11599E-04  2928   0.104E-02    0.216E-02
RMM:   4    -0.230680543220E+04    0.27310E-05   -0.17659E-05  2892   0.290E-03
 175 F= -.23275530E+04 E0= -.23275530E+04  d E =-.684816E-04  mag=     6.0000
       N       E                     dE             d eps       ncg     rms          rms(c)
DAV:   1    -0.230680541898E+04    0.15954E-04   -0.62224E-04  4912   0.196E-02    0.163E-02
RMM:   2    -0.230680543396E+04   -0.14977E-04   -0.64246E-05  2902   0.472E-03    0.389E-02
RMM:   3    -0.230680542165E+04    0.12302E-04   -0.14989E-05  2597   0.303E-03    0.661E-03
RMM:   4    -0.230680542135E+04    0.30191E-06   -0.16581E-06  1949   0.101E-03
 176 F= -.23275530E+04 E0= -.23275530E+04  d E =-.671187E-04  mag=     6.0000
       N       E                     dE             d eps       ncg     rms          rms(c)
DAV:   1    -0.230680532012E+04    0.10154E-03   -0.17673E-02  4424   0.104E-01    0.461E-02
RMM:   2    -0.230680544560E+04   -0.12548E-03   -0.12864E-03  5280   0.201E-02    0.377E-02
RMM:   3    -0.230680544379E+04    0.18122E-05   -0.12326E-04  2924   0.954E-03    0.297E-02
RMM:   4    -0.230680543581E+04    0.79821E-05   -0.17382E-05  2876   0.290E-03
 177 F= -.23275531E+04 E0= -.23275531E+04  d E =-.780834E-04  mag=     6.0000
       N       E                     dE             d eps       ncg     rms          rms(c)
DAV:   1    -0.230680542382E+04    0.19965E-04   -0.42883E-04  4968   0.165E-02    0.183E-02
RMM:   2    -0.230680544022E+04   -0.16399E-04   -0.55359E-05  2910   0.417E-03    0.446E-02
RMM:   3    -0.230680542468E+04    0.15538E-04   -0.15446E-05  2528   0.273E-03    0.713E-03
RMM:   4    -0.230680542483E+04   -0.14433E-06   -0.26698E-06  1712   0.101E-03
 178 F= -.23275531E+04 E0= -.23275531E+04  d E =-.771258E-04  mag=     6.0000
       N       E                     dE             d eps       ncg     rms          rms(c)
DAV:   1    -0.230680534919E+04    0.75490E-04   -0.16321E-02  4424   0.101E-01    0.445E-02
RMM:   2    -0.230680546067E+04   -0.11147E-03   -0.11593E-03  5263   0.193E-02    0.349E-02
RMM:   3    -0.230680546254E+04   -0.18694E-05   -0.11398E-04  2924   0.937E-03    0.337E-02
RMM:   4    -0.230680545272E+04    0.98159E-05   -0.17737E-05  2873   0.284E-03
 179 F= -.23275532E+04 E0= -.23275532E+04  d E =-.688368E-04  mag=     6.0000
       N       E                     dE             d eps       ncg     rms          rms(c)
DAV:   1    -0.230680544706E+04    0.15478E-04   -0.16846E-04  5152   0.109E-02    0.157E-02
RMM:   2    -0.230680545657E+04   -0.95105E-05   -0.32658E-05  2769   0.308E-03
 180 F= -.23275532E+04 E0= -.23275532E+04  d E =-.768868E-04  mag=     6.0000
       N       E                     dE             d eps       ncg     rms          rms(c)
DAV:   1    -0.230680538064E+04    0.66417E-04   -0.14179E-02  4440   0.938E-02    0.422E-02
RMM:   2    -0.230680547776E+04   -0.97115E-04   -0.99726E-04  4957   0.192E-02    0.355E-02
RMM:   3    -0.230680547822E+04   -0.46218E-06   -0.11122E-04  2893   0.990E-03    0.305E-02
RMM:   4    -0.230680547140E+04    0.68202E-05   -0.16744E-05  2881   0.295E-03
 181 F= -.23275532E+04 E0= -.23275532E+04  d E =-.460841E-04  mag=     6.0000
       N       E                     dE             d eps       ncg     rms          rms(c)
DAV:   1    -0.230680546741E+04    0.10811E-04   -0.47379E-05  4288   0.635E-03    0.127E-02
RMM:   2    -0.230680547223E+04   -0.48259E-05   -0.16511E-05  2522   0.285E-03
 182 F= -.23275532E+04 E0= -.23275532E+04  d E =-.486125E-04  mag=     6.0000
       N       E                     dE             d eps       ncg     rms          rms(c)
DAV:   1    -0.230680539010E+04    0.77310E-04   -0.14725E-02  4440   0.937E-02    0.421E-02
RMM:   2    -0.230680548766E+04   -0.97563E-04   -0.10135E-03  4972   0.184E-02    0.330E-02
RMM:   3    -0.230680548908E+04   -0.14168E-05   -0.10959E-04  2895   0.932E-03    0.298E-02
RMM:   4    -0.230680548236E+04    0.67152E-05   -0.16466E-05  2876   0.273E-03
 183 F= -.23275533E+04 E0= -.23275533E+04  d E =-.566108E-04  mag=     6.0000
       N       E                     dE             d eps       ncg     rms          rms(c)
DAV:   1    -0.230680546849E+04    0.20587E-04   -0.57889E-04  4800   0.189E-02    0.153E-02
RMM:   2    -0.230680547620E+04   -0.77130E-05   -0.49869E-05  2911   0.435E-03
 184 F= -.23275533E+04 E0= -.23275533E+04  d E =-.597998E-04  mag=     6.0000
       N       E                     dE             d eps       ncg     rms          rms(c)
DAV:   1    -0.230680538407E+04    0.84420E-04   -0.11372E-02  4440   0.810E-02    0.366E-02
RMM:   2    -0.230680546337E+04   -0.79301E-04   -0.80862E-04  4592   0.172E-02    0.314E-02
RMM:   3    -0.230680546530E+04   -0.19318E-05   -0.93081E-05  2883   0.891E-03
 185 F= -.23275533E+04 E0= -.23275533E+04  d E =-.546388E-04  mag=     6.0000
       N       E                     dE             d eps       ncg     rms          rms(c)
DAV:   1    -0.230680544936E+04    0.14006E-04   -0.25271E-04  5144   0.127E-02    0.181E-02
RMM:   2    -0.230680546201E+04   -0.12648E-04   -0.43435E-05  2823   0.354E-03    0.405E-02
RMM:   3    -0.230680544901E+04    0.13002E-04   -0.14382E-05  2428   0.241E-03    0.837E-03
RMM:   4    -0.230680544947E+04   -0.46231E-06   -0.39853E-06  1886   0.118E-03
 186 F= -.23275533E+04 E0= -.23275533E+04  d E =-.483466E-04  mag=     6.0000
       N       E                     dE             d eps       ncg     rms          rms(c)
DAV:   1    -0.230680538503E+04    0.63981E-04   -0.11930E-02  4424   0.848E-02    0.368E-02
RMM:   2    -0.230680546713E+04   -0.82105E-04   -0.86231E-04  4874   0.166E-02    0.261E-02
RMM:   3    -0.230680546769E+04   -0.55078E-06   -0.79880E-05  2901   0.827E-03
 187 F= -.23275534E+04 E0= -.23275534E+04  d E =-.514437E-04  mag=     6.0000
       N       E                     dE             d eps       ncg     rms          rms(c)
DAV:   1    -0.230680545971E+04    0.74225E-05   -0.89315E-05  4528   0.798E-03    0.114E-02
RMM:   2    -0.230680546225E+04   -0.25357E-05   -0.12628E-05  2488   0.293E-03
 188 F= -.23275534E+04 E0= -.23275534E+04  d E =-.487442E-04  mag=     6.0000
       N       E                     dE             d eps       ncg     rms          rms(c)
DAV:   1    -0.230680538541E+04    0.74300E-04   -0.11657E-02  4424   0.809E-02    0.361E-02
RMM:   2    -0.230680546678E+04   -0.81368E-04   -0.85590E-04  4681   0.164E-02    0.257E-02
RMM:   3    -0.230680546935E+04   -0.25702E-05   -0.91096E-05  2907   0.903E-03
 189 F= -.23275534E+04 E0= -.23275534E+04  d E =-.349689E-04  mag=     6.0000
       N       E                     dE             d eps       ncg     rms          rms(c)
DAV:   1    -0.230680546663E+04    0.14959E-06   -0.91190E-05  4592   0.817E-03    0.117E-02
RMM:   2    -0.230680547110E+04   -0.44680E-05   -0.16520E-05  2580   0.308E-03
 190 F= -.23275534E+04 E0= -.23275534E+04  d E =-.347279E-04  mag=     6.0000
       N       E                     dE             d eps       ncg     rms          rms(c)
DAV:   1    -0.230680537635E+04    0.90283E-04   -0.11992E-02  4424   0.864E-02    0.380E-02
RMM:   2    -0.230680546621E+04   -0.89858E-04   -0.92369E-04  4609   0.175E-02    0.306E-02
RMM:   3    -0.230680546945E+04   -0.32419E-05   -0.10057E-04  2911   0.923E-03    0.299E-02
RMM:   4    -0.230680546228E+04    0.71691E-05   -0.12687E-05  2854   0.264E-03
 191 F= -.23275534E+04 E0= -.23275534E+04  d E =-.372771E-04  mag=     6.0000
       N       E                     dE             d eps       ncg     rms          rms(c)
DAV:   1    -0.230680545690E+04    0.12548E-04   -0.10671E-04  4720   0.869E-03    0.136E-02
RMM:   2    -0.230680546460E+04   -0.77002E-05   -0.25058E-05  2638   0.305E-03
 192 F= -.23275534E+04 E0= -.23275534E+04  d E =-.440454E-04  mag=     6.0000
       N       E                     dE             d eps       ncg     rms          rms(c)
DAV:   1    -0.230680535944E+04    0.97466E-04   -0.98778E-03  4424   0.714E-02    0.338E-02
RMM:   2    -0.230680543487E+04   -0.75435E-04   -0.74098E-04  4307   0.152E-02    0.349E-02
RMM:   3    -0.230680543236E+04    0.25054E-05   -0.84884E-05  2890   0.843E-03
 193 F= -.23275535E+04 E0= -.23275535E+04  d E =-.289636E-04  mag=     6.0000
       N       E                     dE             d eps       ncg     rms          rms(c)
DAV:   1    -0.230680543398E+04    0.88671E-06   -0.12397E-04  4560   0.895E-03    0.148E-02
RMM:   2    -0.230680544308E+04   -0.91010E-05   -0.28769E-05  2740   0.321E-03
 194 F= -.23275535E+04 E0= -.23275535E+04  d E =-.338979E-04  mag=     6.0000
       N       E                     dE             d eps       ncg     rms          rms(c)
DAV:   1    -0.230680538483E+04    0.49150E-04   -0.77614E-03  4424   0.739E-02    0.319E-02
RMM:   2    -0.230680543262E+04   -0.47784E-04   -0.52464E-04  4250   0.151E-02    0.178E-02
RMM:   3    -0.230680543638E+04   -0.37661E-05   -0.57645E-05  2899   0.855E-03
 195 F= -.23275535E+04 E0= -.23275535E+04  d E =-.188200E-04  mag=     6.0000
       N       E                     dE             d eps       ncg     rms          rms(c)
DAV:   1    -0.230680543577E+04   -0.31481E-05   -0.10921E-04  5192   0.955E-03    0.969E-03
RMM:   2    -0.230680543961E+04   -0.38442E-05   -0.14316E-05  2500   0.244E-03
 196 F= -.23275535E+04 E0= -.23275535E+04  d E =-.194843E-04  mag=     6.0000
       N       E                     dE             d eps       ncg     rms          rms(c)
DAV:   1    -0.230680540477E+04    0.30992E-04   -0.54685E-03  4424   0.579E-02    0.256E-02
RMM:   2    -0.230680544477E+04   -0.39995E-04   -0.40933E-04  3776   0.122E-02    0.206E-02
RMM:   3    -0.230680544697E+04   -0.22036E-05   -0.46995E-05  2843   0.686E-03
 197 F= -.23275535E+04 E0= -.23275535E+04  d E =-.223682E-04  mag=     6.0000
       N       E                     dE             d eps       ncg     rms          rms(c)
DAV:   1    -0.230680544287E+04    0.19018E-05   -0.23786E-05  4224   0.462E-03    0.822E-03
RMM:   2    -0.230680544390E+04   -0.10378E-05   -0.53694E-06  2307   0.217E-03
 198 F= -.23275535E+04 E0= -.23275535E+04  d E =-.200482E-04  mag=     6.0000
       N       E                     dE             d eps       ncg     rms          rms(c)
DAV:   1    -0.230680541920E+04    0.23671E-04   -0.45658E-03  4408   0.529E-02    0.239E-02
RMM:   2    -0.230680544695E+04   -0.27753E-04   -0.30364E-04  3704   0.109E-02    0.147E-02
RMM:   3    -0.230680544879E+04   -0.18440E-05   -0.33646E-05  2844   0.666E-03
 199 F= -.23275535E+04 E0= -.23275535E+04  d E =-.222093E-04  mag=     6.0000
       N       E                     dE             d eps       ncg     rms          rms(c)
DAV:   1    -0.230680544858E+04   -0.16270E-05   -0.50671E-05  4336   0.640E-03    0.801E-03
RMM:   2    -0.230680545123E+04   -0.26575E-05   -0.87243E-06  2345   0.257E-03
 200 F= -.23275535E+04 E0= -.23275535E+04  d E =-.231510E-04  mag=     6.0000
       N       E                     dE             d eps       ncg     rms          rms(c)
DAV:   1    -0.230680540868E+04    0.39901E-04   -0.46986E-03  4424   0.549E-02    0.243E-02
RMM:   2    -0.230680543737E+04   -0.28692E-04   -0.30947E-04  3692   0.112E-02    0.163E-02
RMM:   3    -0.230680543962E+04   -0.22522E-05   -0.34370E-05  2867   0.662E-03
 201 F= -.23275536E+04 E0= -.23275536E+04  d E =-.121931E-04  mag=     6.0000
