       N       E                     dE             d eps       ncg     rms          rms(c)
DAV:   1     0.131818911674E+05    0.13182E+05   -0.84441E+05  4536   0.145E+03
DAV:   2    -0.978929243337E+03   -0.14161E+05   -0.13532E+05  4936   0.332E+02
DAV:   3    -0.246765215585E+04   -0.14887E+04   -0.14686E+04  5544   0.116E+02
DAV:   4    -0.251576155957E+04   -0.48109E+02   -0.47819E+02  6720   0.298E+01
DAV:   5    -0.251661311219E+04   -0.85155E+00   -0.84927E+00  6328   0.350E+00    0.170E+02
RMM:   6    -0.148680924559E+04    0.10298E+04   -0.19468E+03  4474   0.382E+01    0.733E+01
RMM:   7    -0.167032596305E+04   -0.18352E+03   -0.30647E+02  5376   0.151E+01    0.568E+01
RMM:   8    -0.169740167211E+04   -0.27076E+02   -0.78184E+01  5478   0.835E+00    0.426E+01
RMM:   9    -0.177806606190E+04   -0.80664E+02   -0.61061E+01  5016   0.792E+00    0.354E+01
RMM:  10    -0.190167837659E+04   -0.12361E+03   -0.64367E+01  5480   0.789E+00    0.280E+01
RMM:  11    -0.196799255826E+04   -0.66314E+02   -0.27876E+01  5492   0.463E+00    0.241E+01
RMM:  12    -0.203319406737E+04   -0.65202E+02   -0.23390E+01  5150   0.395E+00    0.165E+01
RMM:  13    -0.211255164392E+04   -0.79358E+02   -0.35730E+01  4899   0.454E+00    0.133E+01
RMM:  14    -0.219669536855E+04   -0.84144E+02   -0.53863E+01  4680   0.556E+00    0.966E+00
RMM:  15    -0.228289080416E+04   -0.86195E+02   -0.84953E+01  4628   0.624E+00    0.752E+00
RMM:  16    -0.229625915782E+04   -0.13368E+02   -0.14670E+01  4694   0.372E+00    0.506E+00
RMM:  17    -0.230347034312E+04   -0.72112E+01   -0.76710E+00  4567   0.169E+00    0.435E+00
RMM:  18    -0.230552861146E+04   -0.20583E+01   -0.14708E+00  4920   0.133E+00    0.338E+00
RMM:  19    -0.230623812352E+04   -0.70951E+00   -0.45122E-01  5250   0.423E-01    0.424E+00
RMM:  20    -0.230632231160E+04   -0.84188E-01   -0.49243E-02  5488   0.250E-01    0.454E+00
RMM:  21    -0.230712804062E+04   -0.80573E+00   -0.32784E-01  4487   0.293E-01    0.277E+00
RMM:  22    -0.230776811169E+04   -0.64007E+00   -0.23462E-01  4533   0.309E-01    0.319E+00
RMM:  23    -0.230776180056E+04    0.63111E-02   -0.15456E-01  4641   0.248E-01    0.466E+00
RMM:  24    -0.230777312126E+04   -0.11321E-01   -0.13589E-02  5548   0.611E-02    0.457E+00
RMM:  25    -0.230777326886E+04   -0.14760E-03   -0.12780E-03  5730   0.206E-02    0.458E+00
RMM:  26    -0.230779221128E+04   -0.18942E-01   -0.15188E-03  4713   0.245E-02    0.451E+00
RMM:  27    -0.230812318330E+04   -0.33097E+00   -0.16486E-01  4615   0.242E-01    0.223E+00
RMM:  28    -0.230822612985E+04   -0.10295E+00   -0.52171E-02  4703   0.167E-01    0.180E+00
RMM:  29    -0.230830163382E+04   -0.75504E-01   -0.30908E-02  4713   0.107E-01    0.328E+00
RMM:  30    -0.230832475889E+04   -0.23125E-01   -0.76458E-03  4902   0.701E-02    0.376E+00
RMM:  31    -0.230829852421E+04    0.26235E-01   -0.50564E-03  4770   0.396E-02    0.312E+00
RMM:  32    -0.230828596565E+04    0.12559E-01   -0.13368E-02  4931   0.644E-02    0.237E+00
RMM:  33    -0.230827856702E+04    0.73986E-02   -0.12236E-02  4973   0.632E-02    0.187E+00
RMM:  34    -0.230828073289E+04   -0.21659E-02   -0.85995E-04  4618   0.287E-02    0.192E+00
RMM:  35    -0.230828311938E+04   -0.23865E-02   -0.96971E-03  4485   0.517E-02    0.208E+00
RMM:  36    -0.230828808696E+04   -0.49676E-02   -0.86962E-03  4568   0.528E-02    0.226E+00
RMM:  37    -0.230828963542E+04   -0.15485E-02   -0.66217E-04  4259   0.300E-02    0.227E+00
RMM:  38    -0.230828917693E+04    0.45849E-03   -0.92261E-04  4216   0.173E-02    0.220E+00
RMM:  39    -0.230828499650E+04    0.41804E-02   -0.13486E-03  4294   0.188E-02    0.220E+00
RMM:  40    -0.230827091473E+04    0.14082E-01   -0.11757E-02  4494   0.575E-02    0.227E+00
RMM:  41    -0.230827065149E+04    0.26325E-03   -0.37270E-02  4561   0.103E-01    0.206E+00
RMM:  42    -0.230828988070E+04   -0.19229E-01   -0.18386E-02  4905   0.815E-02    0.197E+00
RMM:  43    -0.230828711266E+04    0.27680E-02   -0.71653E-03  5649   0.531E-02    0.216E+00
RMM:  44    -0.230828692657E+04    0.18610E-03   -0.10582E-03  4937   0.173E-02    0.217E+00
RMM:  45    -0.230828454162E+04    0.23849E-02   -0.23460E-04  3767   0.103E-02    0.216E+00
RMM:  46    -0.230828712596E+04   -0.25843E-02   -0.24814E-04  4388   0.106E-02    0.215E+00
RMM:  47    -0.230830283510E+04   -0.15709E-01   -0.27153E-03  4713   0.275E-02    0.209E+00
RMM:  48    -0.230829600260E+04    0.68325E-02   -0.22177E-03  4823   0.318E-02    0.196E+00
RMM:  49    -0.230829429986E+04    0.17027E-02   -0.35507E-02  4562   0.104E-01    0.208E+00
RMM:  50    -0.230814900085E+04    0.14530E+00   -0.27744E-01  4835   0.302E-01    0.315E+00
RMM:  51    -0.230815419482E+04   -0.51940E-02   -0.19576E-02  5503   0.116E-01    0.327E+00
RMM:  52    -0.230823149311E+04   -0.77298E-01   -0.29870E-02  4416   0.918E-02    0.326E+00
RMM:  53    -0.230828139555E+04   -0.49902E-01   -0.46829E-02  4444   0.103E-01    0.290E+00
RMM:  54    -0.230833307840E+04   -0.51683E-01   -0.27030E-02  5239   0.928E-02    0.433E+00
RMM:  55    -0.230836509228E+04   -0.32014E-01   -0.67039E-03  5138   0.640E-02    0.449E+00
RMM:  56    -0.230827625340E+04    0.88839E-01   -0.23052E-02  4767   0.860E-02    0.414E+00
RMM:  57    -0.230828160344E+04   -0.53500E-02   -0.67451E-04  4120   0.250E-02    0.411E+00
RMM:  58    -0.230824976109E+04    0.31842E-01   -0.48637E-03  4434   0.363E-02    0.395E+00
RMM:  59    -0.230825242201E+04   -0.26609E-02   -0.62284E-04  4219   0.170E-02    0.379E+00
RMM:  60    -0.230816749612E+04    0.84926E-01   -0.36672E-02  4433   0.106E-01    0.364E+00
RMM:  61    -0.230811226387E+04    0.55232E-01   -0.23081E-02  4446   0.843E-02    0.362E+00
RMM:  62    -0.230809119100E+04    0.21073E-01   -0.43793E-03  4540   0.408E-02    0.373E+00
RMM:  63    -0.230825113940E+04   -0.15995E+00   -0.21708E-01  4543   0.217E-01    0.291E+00
RMM:  64    -0.230827098079E+04   -0.19841E-01   -0.17601E-02  5225   0.736E-02    0.294E+00
RMM:  65    -0.230827499308E+04   -0.40123E-02   -0.30917E-03  5411   0.375E-02    0.305E+00
RMM:  66    -0.230828277237E+04   -0.77793E-02   -0.11879E-02  4689   0.527E-02    0.264E+00
RMM:  67    -0.230828705898E+04   -0.42866E-02   -0.18896E-03  5024   0.270E-02    0.268E+00
RMM:  68    -0.230828625638E+04    0.80260E-03   -0.17979E-04  3876   0.850E-03    0.268E+00
RMM:  69    -0.230829345255E+04   -0.71962E-02   -0.16801E-03  4731   0.212E-02    0.262E+00
RMM:  70    -0.230832273464E+04   -0.29282E-01   -0.36562E-02  4741   0.875E-02    0.256E+00
RMM:  71    -0.230838126714E+04   -0.58533E-01   -0.83702E-02  4906   0.160E-01    0.319E+00
RMM:  72    -0.230838024040E+04    0.10267E-02   -0.71262E-03  5089   0.941E-02    0.323E+00
RMM:  73    -0.230838233323E+04   -0.20928E-02   -0.34923E-03  5241   0.332E-02    0.324E+00
RMM:  74    -0.230836209891E+04    0.20234E-01   -0.49806E-03  4688   0.437E-02    0.301E+00
RMM:  75    -0.230838205151E+04   -0.19953E-01   -0.23441E-02  4722   0.893E-02    0.287E+00
RMM:  76    -0.230832433343E+04    0.57718E-01   -0.30162E-02  4874   0.107E-01    0.201E+00
RMM:  77    -0.230831792513E+04    0.64083E-02   -0.63371E-03  4942   0.558E-02    0.199E+00
RMM:  78    -0.230830837747E+04    0.95477E-02   -0.10491E-02  5288   0.442E-02    0.231E+00
RMM:  79    -0.230828835204E+04    0.20025E-01   -0.62646E-03  5254   0.432E-02    0.260E+00
RMM:  80    -0.230828424761E+04    0.41044E-02   -0.10249E-03  5182   0.210E-02    0.263E+00
RMM:  81    -0.230826005627E+04    0.24191E-01   -0.10941E-02  4453   0.515E-02    0.286E+00
RMM:  82    -0.230826010266E+04   -0.46393E-04   -0.67642E-04  4105   0.275E-02    0.286E+00
RMM:  83    -0.230825869703E+04    0.14056E-02   -0.38600E-04  4217   0.103E-02    0.288E+00
RMM:  84    -0.230826241730E+04   -0.37203E-02   -0.40513E-04  4930   0.139E-02    0.283E+00
RMM:  85    -0.230827724930E+04   -0.14832E-01   -0.61456E-03  4613   0.470E-02    0.274E+00
RMM:  86    -0.230828296252E+04   -0.57132E-02   -0.14256E-03  4757   0.336E-02    0.276E+00
RMM:  87    -0.230827492853E+04    0.80340E-02   -0.65715E-04  4180   0.148E-02    0.286E+00
RMM:  88    -0.230826160916E+04    0.13319E-01   -0.40535E-03  4700   0.361E-02    0.305E+00
RMM:  89    -0.230826262153E+04   -0.10124E-02   -0.14718E-03  5055   0.309E-02    0.299E+00
RMM:  90    -0.230826285126E+04   -0.22973E-03   -0.62132E-04  4754   0.155E-02    0.296E+00
RMM:  91    -0.230820801969E+04    0.54832E-01   -0.15839E-02  5093   0.641E-02    0.384E+00
RMM:  92    -0.230826125835E+04   -0.53239E-01   -0.11687E-02  5071   0.543E-02    0.296E+00
RMM:  93    -0.230828683157E+04   -0.25573E-01   -0.71382E-03  4768   0.454E-02    0.249E+00
RMM:  94    -0.230830441746E+04   -0.17586E-01   -0.64644E-03  4970   0.424E-02    0.221E+00
RMM:  95    -0.230830695229E+04   -0.25348E-02   -0.22313E-03  5435   0.297E-02    0.214E+00
RMM:  96    -0.230829037633E+04    0.16576E-01   -0.25042E-03  4663   0.266E-02    0.241E+00
RMM:  97    -0.230828873718E+04    0.16392E-02   -0.41168E-04  3714   0.145E-02    0.247E+00
RMM:  98    -0.230828907688E+04   -0.33970E-03   -0.24844E-04  3788   0.846E-03    0.248E+00
RMM:  99    -0.230828685177E+04    0.22251E-02   -0.13878E-04  3364   0.858E-03    0.254E+00
RMM: 100    -0.230828809086E+04   -0.12391E-02   -0.24864E-05  2934   0.506E-03    0.250E+00
RMM: 101    -0.230829195992E+04   -0.38691E-02   -0.55604E-03  4604   0.433E-02    0.235E+00
RMM: 102    -0.230829472915E+04   -0.27692E-02   -0.51932E-04  4188   0.269E-02    0.229E+00
RMM: 103    -0.230829938930E+04   -0.46602E-02   -0.49693E-04  4215   0.119E-02    0.220E+00
RMM: 104    -0.230830353257E+04   -0.41433E-02   -0.40194E-04  3691   0.124E-02    0.213E+00
RMM: 105    -0.230830909451E+04   -0.55619E-02   -0.52763E-04  4072   0.109E-02    0.207E+00
RMM: 106    -0.230832020920E+04   -0.11115E-01   -0.30904E-03  4767   0.279E-02    0.210E+00
RMM: 107    -0.230831289122E+04    0.73180E-02   -0.12769E-03  4639   0.218E-02    0.212E+00
RMM: 108    -0.230832722102E+04   -0.14330E-01   -0.19436E-03  5131   0.230E-02    0.235E+00
RMM: 109    -0.230832531628E+04    0.19047E-02   -0.14471E-04  3037   0.940E-03    0.232E+00
RMM: 110    -0.230832581842E+04   -0.50214E-03   -0.30688E-05  2952   0.381E-03    0.234E+00
RMM: 111    -0.230841830280E+04   -0.92484E-01   -0.34914E-02  5330   0.800E-02    0.418E+00
RMM: 112    -0.230842157858E+04   -0.32758E-02   -0.33888E-03  4229   0.410E-02    0.425E+00
RMM: 113    -0.230842350782E+04   -0.19292E-02   -0.87758E-04  3691   0.105E-02    0.429E+00
RMM: 114    -0.230841693806E+04    0.65698E-02   -0.12311E-04  3147   0.814E-03    0.426E+00
RMM: 115    -0.230840596468E+04    0.10973E-01   -0.84492E-04  4203   0.143E-02    0.424E+00
RMM: 116    -0.230839842318E+04    0.75415E-02   -0.33837E-03  4544   0.308E-02    0.413E+00
RMM: 117    -0.230838741975E+04    0.11003E-01   -0.89047E-04  4310   0.228E-02    0.394E+00
RMM: 118    -0.230837922052E+04    0.81992E-02   -0.49214E-04  4476   0.118E-02    0.377E+00
RMM: 119    -0.230836769990E+04    0.11521E-01   -0.78036E-04  3994   0.154E-02    0.352E+00
RMM: 120    -0.230836148064E+04    0.62193E-02   -0.56438E-04  4055   0.133E-02    0.337E+00
RMM: 121    -0.230836740314E+04   -0.59225E-02   -0.12613E-03  4501   0.197E-02    0.357E+00
RMM: 122    -0.230837005597E+04   -0.26528E-02   -0.17372E-04  3714   0.136E-02    0.364E+00
RMM: 123    -0.230835944028E+04    0.10616E-01   -0.44666E-04  4284   0.108E-02    0.339E+00
RMM: 124    -0.230834765985E+04    0.11780E-01   -0.93200E-04  4327   0.150E-02    0.308E+00
RMM: 125    -0.230832150703E+04    0.26153E-01   -0.52355E-03  5223   0.315E-02    0.240E+00
RMM: 126    -0.230833298452E+04   -0.11477E-01   -0.18225E-03  4542   0.262E-02    0.276E+00
RMM: 127    -0.230831756329E+04    0.15421E-01   -0.42693E-03  5209   0.324E-02    0.262E+00
RMM: 128    -0.230831087119E+04    0.66921E-02   -0.16126E-03  4635   0.214E-02    0.261E+00
RMM: 129    -0.230831828894E+04   -0.74177E-02   -0.48413E-04  3894   0.115E-02    0.263E+00
RMM: 130    -0.230831263611E+04    0.56528E-02   -0.34487E-04  3831   0.928E-03    0.261E+00
RMM: 131    -0.230831643209E+04   -0.37960E-02   -0.19099E-04  3271   0.788E-03    0.261E+00
RMM: 132    -0.230831683183E+04   -0.39974E-03   -0.16679E-05  2858   0.376E-03    0.261E+00
RMM: 133    -0.230831698359E+04   -0.15175E-03   -0.14436E-05  2754   0.236E-03    0.263E+00
RMM: 134    -0.230831424671E+04    0.27369E-02   -0.20573E-04  3375   0.742E-03    0.265E+00
RMM: 135    -0.230831854727E+04   -0.43006E-02   -0.50276E-04  3876   0.116E-02    0.261E+00
RMM: 136    -0.230830558878E+04    0.12958E-01   -0.35122E-03  4577   0.288E-02    0.237E+00
RMM: 137    -0.230830986629E+04   -0.42775E-02   -0.27600E-03  4991   0.296E-02    0.221E+00
RMM: 138    -0.230829797835E+04    0.11888E-01   -0.35987E-03  4771   0.294E-02    0.217E+00
RMM: 139    -0.230828768435E+04    0.10294E-01   -0.18782E-03  4531   0.260E-02    0.227E+00
RMM: 140    -0.230827818964E+04    0.94947E-02   -0.18555E-03  4566   0.237E-02    0.244E+00
RMM: 141    -0.230828402760E+04   -0.58380E-02   -0.33481E-03  4791   0.324E-02    0.221E+00
RMM: 142    -0.230828250237E+04    0.15252E-02   -0.19703E-04  3359   0.117E-02    0.223E+00
RMM: 143    -0.230828043953E+04    0.20628E-02   -0.80549E-05  3137   0.529E-03    0.225E+00
RMM: 144    -0.230827989204E+04    0.54750E-03   -0.20835E-05  2898   0.415E-03    0.227E+00
RMM: 145    -0.230827846924E+04    0.14228E-02   -0.10296E-04  3009   0.626E-03    0.228E+00
RMM: 146    -0.230828013850E+04   -0.16693E-02   -0.18444E-03  4449   0.233E-02    0.219E+00
RMM: 147    -0.230830327808E+04   -0.23140E-01   -0.12151E-02  4567   0.557E-02    0.183E+00
RMM: 148    -0.230833268946E+04   -0.29411E-01   -0.19741E-02  4777   0.765E-02    0.187E+00
RMM: 149    -0.230833409467E+04   -0.14052E-02   -0.19236E-03  4725   0.356E-02    0.192E+00
RMM: 150    -0.230833872677E+04   -0.46321E-02   -0.87903E-04  4477   0.144E-02    0.201E+00
RMM: 151    -0.230835643844E+04   -0.17712E-01   -0.48513E-03  4498   0.362E-02    0.233E+00
RMM: 152    -0.230835019363E+04    0.62448E-02   -0.45571E-04  4013   0.212E-02    0.220E+00
RMM: 153    -0.230834226051E+04    0.79331E-02   -0.14904E-03  4553   0.185E-02    0.204E+00
RMM: 154    -0.230834847527E+04   -0.62148E-02   -0.99178E-04  4467   0.177E-02    0.216E+00
RMM: 155    -0.230834503098E+04    0.34443E-02   -0.13686E-04  3150   0.933E-03    0.207E+00
RMM: 156    -0.230837654620E+04   -0.31515E-01   -0.10952E-02  4451   0.502E-02    0.275E+00
RMM: 157    -0.230839070344E+04   -0.14157E-01   -0.24992E-03  4292   0.347E-02    0.311E+00
RMM: 158    -0.230839508827E+04   -0.43848E-02   -0.10039E-03  4344   0.144E-02    0.322E+00
RMM: 159    -0.230839136549E+04    0.37228E-02   -0.11218E-04  3207   0.915E-03    0.316E+00
RMM: 160    -0.230836817397E+04    0.23192E-01   -0.30517E-03  4365   0.268E-02    0.264E+00
RMM: 161    -0.230837845661E+04   -0.10283E-01   -0.68405E-04  4689   0.172E-02    0.283E+00
RMM: 162    -0.230837522741E+04    0.32292E-02   -0.11233E-03  4327   0.172E-02    0.289E+00
RMM: 163    -0.230835279928E+04    0.22428E-01   -0.41026E-03  4738   0.330E-02    0.233E+00
RMM: 164    -0.230834241128E+04    0.10388E-01   -0.21654E-03  4706   0.252E-02    0.204E+00
RMM: 165    -0.230833969547E+04    0.27158E-02   -0.43573E-04  3821   0.115E-02    0.196E+00
RMM: 166    -0.230833659483E+04    0.31006E-02   -0.36325E-04  3949   0.106E-02    0.192E+00
RMM: 167    -0.230833380294E+04    0.27919E-02   -0.32791E-04  3682   0.107E-02    0.191E+00
RMM: 168    -0.230832007996E+04    0.13723E-01   -0.37269E-03  4735   0.307E-02    0.183E+00
RMM: 169    -0.230831070520E+04    0.93748E-02   -0.25560E-03  4576   0.285E-02    0.188E+00
RMM: 170    -0.230829280067E+04    0.17905E-01   -0.53040E-03  5142   0.320E-02    0.215E+00
RMM: 171    -0.230826298798E+04    0.29813E-01   -0.80254E-03  4962   0.416E-02    0.274E+00
RMM: 172    -0.230825329417E+04    0.96938E-02   -0.17944E-03  4667   0.193E-02    0.292E+00
RMM: 173    -0.230825443359E+04   -0.11394E-02   -0.14017E-04  3062   0.567E-03    0.290E+00
RMM: 174    -0.230826114171E+04   -0.67081E-02   -0.21341E-04  3145   0.735E-03    0.278E+00
RMM: 175    -0.230829387650E+04   -0.32735E-01   -0.78464E-03  4792   0.380E-02    0.212E+00
RMM: 176    -0.230831129050E+04   -0.17414E-01   -0.58886E-03  4636   0.372E-02    0.189E+00
RMM: 177    -0.230833784381E+04   -0.26553E-01   -0.93134E-03  5424   0.417E-02    0.227E+00
RMM: 178    -0.230834930042E+04   -0.11457E-01   -0.24411E-03  4781   0.247E-02    0.263E+00
RMM: 179    -0.230834983230E+04   -0.53188E-03   -0.34681E-04  3302   0.990E-03    0.267E+00
RMM: 180    -0.230834985804E+04   -0.25743E-04   -0.37323E-05  2955   0.421E-03    0.268E+00
RMM: 181    -0.230834541991E+04    0.44381E-02   -0.34836E-04  3708   0.979E-03    0.260E+00
RMM: 182    -0.230834325020E+04    0.21697E-02   -0.16448E-04  3221   0.825E-03    0.255E+00
RMM: 183    -0.230834233631E+04    0.91389E-03   -0.10437E-04  3148   0.612E-03    0.253E+00
RMM: 184    -0.230834199391E+04    0.34240E-03   -0.13950E-05  2869   0.421E-03    0.252E+00
RMM: 185    -0.230834031596E+04    0.16780E-02   -0.41004E-05  2942   0.387E-03    0.248E+00
RMM: 186    -0.230833080315E+04    0.95128E-02   -0.17918E-03  4390   0.216E-02    0.229E+00
RMM: 187    -0.230832490333E+04    0.58998E-02   -0.15219E-03  4385   0.224E-02    0.221E+00
RMM: 188    -0.230831927614E+04    0.56272E-02   -0.89154E-04  4402   0.161E-02    0.213E+00
RMM: 189    -0.230831688915E+04    0.23870E-02   -0.24315E-04  3437   0.909E-03    0.211E+00
RMM: 190    -0.230831316231E+04    0.37268E-02   -0.52788E-04  4191   0.126E-02    0.211E+00
RMM: 191    -0.230831996531E+04   -0.68030E-02   -0.71689E-04  4102   0.147E-02    0.213E+00
RMM: 192    -0.230832063869E+04   -0.67338E-03   -0.50404E-05  2948   0.640E-03    0.215E+00
RMM: 193    -0.230832029464E+04    0.34405E-03   -0.60833E-06  2736   0.219E-03    0.214E+00
RMM: 194    -0.230832065070E+04   -0.35607E-03   -0.30069E-06  2602   0.155E-03    0.215E+00
RMM: 195    -0.230832150326E+04   -0.85255E-03   -0.86188E-06  2653   0.161E-03    0.216E+00
RMM: 196    -0.230832136855E+04    0.13470E-03   -0.11572E-05  2716   0.205E-03    0.216E+00
RMM: 197    -0.230832021917E+04    0.11494E-02   -0.11595E-05  2573   0.196E-03    0.215E+00
RMM: 198    -0.230832009543E+04    0.12373E-03   -0.28875E-06  2335   0.124E-03    0.214E+00
RMM: 199    -0.230831995046E+04    0.14497E-03   -0.10036E-06  1673   0.867E-04    0.214E+00
RMM: 200    -0.230831581614E+04    0.41343E-02   -0.31150E-04  3615   0.878E-03    0.211E+00
RMM: 201    -0.230835690444E+04   -0.41088E-01   -0.12370E-02  4737   0.493E-02    0.305E+00
RMM: 202    -0.230835830461E+04   -0.14002E-02   -0.10431E-03  3864   0.247E-02    0.314E+00
RMM: 203    -0.230835797031E+04    0.33430E-03   -0.22417E-04  3144   0.610E-03    0.316E+00
RMM: 204    -0.230835830344E+04   -0.33312E-03   -0.12032E-05  2845   0.285E-03    0.317E+00
RMM: 205    -0.230835775613E+04    0.54731E-03   -0.57791E-06  2682   0.183E-03    0.316E+00
RMM: 206    -0.230835626201E+04    0.14941E-02   -0.28707E-04  3700   0.889E-03    0.315E+00
RMM: 207    -0.230835529690E+04    0.96511E-03   -0.12063E-04  3196   0.707E-03    0.313E+00
RMM: 208    -0.230835411319E+04    0.11837E-02   -0.15151E-04  3484   0.715E-03    0.312E+00
RMM: 209    -0.230835341326E+04    0.69993E-03   -0.68079E-05  3061   0.615E-03    0.310E+00
RMM: 210    -0.230835126813E+04    0.21451E-02   -0.19047E-04  3634   0.808E-03    0.306E+00
RMM: 211    -0.230834456679E+04    0.67013E-02   -0.14747E-03  4377   0.209E-02    0.294E+00
RMM: 212    -0.230834368478E+04    0.88201E-03   -0.13201E-03  4472   0.213E-02    0.297E+00
RMM: 213    -0.230834166364E+04    0.20211E-02   -0.58777E-04  4223   0.138E-02    0.294E+00
RMM: 214    -0.230834334327E+04   -0.16796E-02   -0.42813E-05  3017   0.623E-03    0.298E+00
RMM: 215    -0.230834363587E+04   -0.29259E-03   -0.53191E-05  3071   0.436E-03    0.300E+00
RMM: 216    -0.230827690867E+04    0.66727E-01   -0.43412E-02  4667   0.102E-01    0.276E+00
RMM: 217    -0.230827115341E+04    0.57553E-02   -0.37851E-03  4384   0.512E-02    0.279E+00
RMM: 218    -0.230826985909E+04    0.12943E-02   -0.96916E-04  4266   0.133E-02    0.281E+00
RMM: 219    -0.230827108341E+04   -0.12243E-02   -0.15651E-04  3380   0.109E-02    0.276E+00
RMM: 220    -0.230828189979E+04   -0.10816E-01   -0.15605E-03  4267   0.201E-02    0.255E+00
RMM: 221    -0.230827657916E+04    0.53206E-02   -0.34985E-03  4586   0.288E-02    0.282E+00
RMM: 222    -0.230827223208E+04    0.43471E-02   -0.81864E-04  4129   0.208E-02    0.292E+00
RMM: 223    -0.230827262708E+04   -0.39499E-03   -0.45322E-05  3000   0.637E-03    0.291E+00
RMM: 224    -0.230826827395E+04    0.43531E-02   -0.13892E-03  4281   0.190E-02    0.301E+00
RMM: 225    -0.230826844585E+04   -0.17191E-03   -0.13455E-04  3318   0.105E-02    0.303E+00
RMM: 226    -0.230826775666E+04    0.68920E-03   -0.69616E-04  4200   0.144E-02    0.309E+00
RMM: 227    -0.230828444766E+04   -0.16691E-01   -0.65160E-03  4440   0.402E-02    0.270E+00
RMM: 228    -0.230828452540E+04   -0.77739E-04   -0.42537E-04  3936   0.193E-02    0.271E+00
RMM: 229    -0.230827552800E+04    0.89974E-02   -0.13812E-03  4386   0.201E-02    0.295E+00
RMM: 230    -0.230827418633E+04    0.13417E-02   -0.14526E-04  3108   0.103E-02    0.298E+00
RMM: 231    -0.230829598093E+04   -0.21795E-01   -0.37307E-03  4881   0.283E-02    0.257E+00
RMM: 232    -0.230831988828E+04   -0.23907E-01   -0.77316E-03  5022   0.433E-02    0.269E+00
RMM: 233    -0.230834843837E+04   -0.28550E-01   -0.88705E-03  5401   0.438E-02    0.332E+00
RMM: 234    -0.230835106023E+04   -0.26219E-02   -0.97801E-04  4161   0.174E-02    0.344E+00
RMM: 235    -0.230834627409E+04    0.47861E-02   -0.17064E-04  3141   0.734E-03    0.333E+00
RMM: 236    -0.230833702873E+04    0.92454E-02   -0.47256E-03  4431   0.337E-02    0.295E+00
RMM: 237    -0.230832758728E+04    0.94415E-02   -0.11930E-03  4117   0.232E-02    0.274E+00
RMM: 238    -0.230832494898E+04    0.26383E-02   -0.18632E-03  4470   0.209E-02    0.258E+00
RMM: 239    -0.230832264188E+04    0.23071E-02   -0.27626E-04  3627   0.130E-02    0.251E+00
RMM: 240    -0.230832037070E+04    0.22712E-02   -0.13480E-04  3184   0.592E-03    0.246E+00
RMM: 241    -0.230832069258E+04   -0.32188E-03   -0.68183E-04  4028   0.141E-02    0.253E+00
RMM: 242    -0.230831668795E+04    0.40046E-02   -0.40416E-04  3735   0.126E-02    0.245E+00
RMM: 243    -0.230831675469E+04   -0.66732E-04   -0.22673E-03  4352   0.241E-02    0.237E+00
RMM: 244    -0.230830695472E+04    0.98000E-02   -0.47497E-03  4578   0.355E-02    0.225E+00
RMM: 245    -0.230830702003E+04   -0.65315E-04   -0.33358E-04  3756   0.198E-02    0.224E+00
RMM: 246    -0.230830705682E+04   -0.36790E-04   -0.49850E-04  4320   0.114E-02    0.227E+00
RMM: 247    -0.230830693513E+04    0.12169E-03   -0.37924E-05  3040   0.649E-03    0.227E+00
RMM: 248    -0.230830666760E+04    0.26754E-03   -0.75194E-06  2832   0.212E-03    0.227E+00
RMM: 249    -0.230830677760E+04   -0.11001E-03   -0.54395E-06  2721   0.207E-03    0.227E+00
RMM: 250    -0.230830872247E+04   -0.19449E-02   -0.94761E-04  4163   0.147E-02    0.222E+00
RMM: 251    -0.230838565212E+04   -0.76930E-01   -0.12144E-01  4498   0.161E-01    0.249E+00
RMM: 252    -0.230837291847E+04    0.12734E-01   -0.60023E-03  4293   0.808E-02    0.236E+00
RMM: 253    -0.230837624873E+04   -0.33303E-02   -0.21464E-03  4727   0.208E-02    0.243E+00
RMM: 254    -0.230837390856E+04    0.23402E-02   -0.97199E-05  3150   0.910E-03    0.240E+00
RMM: 255    -0.230837570792E+04   -0.17994E-02   -0.10204E-04  2972   0.524E-03    0.244E+00
RMM: 256    -0.230835429673E+04    0.21411E-01   -0.32726E-02  4532   0.866E-02    0.275E+00
RMM: 257    -0.230840576887E+04   -0.51472E-01   -0.50867E-02  4631   0.110E-01    0.293E+00
RMM: 258    -0.230840285257E+04    0.29163E-02   -0.25428E-03  4333   0.535E-02    0.286E+00
RMM: 259    -0.230840361481E+04   -0.76225E-03   -0.66554E-04  4188   0.146E-02    0.289E+00
RMM: 260    -0.230841174703E+04   -0.81322E-02   -0.47335E-04  4120   0.125E-02    0.303E+00
RMM: 261    -0.230841292781E+04   -0.11808E-02   -0.12356E-03  4524   0.176E-02    0.325E+00
RMM: 262    -0.230838884170E+04    0.24086E-01   -0.34855E-03  4343   0.291E-02    0.294E+00
RMM: 263    -0.230840531821E+04   -0.16477E-01   -0.14525E-03  4498   0.261E-02    0.326E+00
RMM: 264    -0.230839971515E+04    0.56031E-02   -0.10536E-03  4354   0.172E-02    0.330E+00
RMM: 265    -0.230839888635E+04    0.82880E-03   -0.10987E-04  3111   0.101E-02    0.330E+00
RMM: 266    -0.230835653057E+04    0.42356E-01   -0.17081E-02  4500   0.645E-02    0.271E+00
RMM: 267    -0.230837224993E+04   -0.15719E-01   -0.13008E-02  4588   0.643E-02    0.238E+00
RMM: 268    -0.230835623393E+04    0.16016E-01   -0.27459E-03  4440   0.417E-02    0.202E+00
RMM: 269    -0.230835214233E+04    0.40916E-02   -0.71930E-04  4242   0.146E-02    0.193E+00
RMM: 270    -0.230836707984E+04   -0.14938E-01   -0.17137E-03  4264   0.209E-02    0.210E+00
RMM: 271    -0.230831773693E+04    0.49343E-01   -0.23060E-02  4455   0.732E-02    0.177E+00
RMM: 272    -0.230831693973E+04    0.79719E-03   -0.14080E-03  4182   0.424E-02    0.177E+00
RMM: 273    -0.230832186779E+04   -0.49281E-02   -0.41214E-04  3996   0.135E-02    0.176E+00
RMM: 274    -0.230832097996E+04    0.88783E-03   -0.25272E-04  3429   0.901E-03    0.181E+00
RMM: 275    -0.230832406976E+04   -0.30898E-02   -0.14078E-04  2997   0.722E-03    0.177E+00
RMM: 276    -0.230833461621E+04   -0.10546E-01   -0.22703E-03  4394   0.230E-02    0.187E+00
RMM: 277    -0.230832978823E+04    0.48280E-02   -0.11211E-03  4397   0.207E-02    0.179E+00
RMM: 278    -0.230833321919E+04   -0.34310E-02   -0.51189E-04  4274   0.154E-02    0.181E+00
RMM: 279    -0.230833976517E+04   -0.65460E-02   -0.13049E-03  4363   0.188E-02    0.188E+00
RMM: 280    -0.230833964531E+04    0.11986E-03   -0.36033E-04  3711   0.136E-02    0.192E+00
RMM: 281    -0.230833619943E+04    0.34459E-02   -0.83502E-04  4135   0.149E-02    0.186E+00
RMM: 282    -0.230833735922E+04   -0.11598E-02   -0.41988E-04  3633   0.120E-02    0.187E+00
RMM: 283    -0.230833727922E+04    0.80005E-04   -0.38815E-05  2956   0.584E-03    0.187E+00
RMM: 284    -0.230833447157E+04    0.28076E-02   -0.43887E-04  3487   0.954E-03    0.187E+00
RMM: 285    -0.230833370249E+04    0.76909E-03   -0.51359E-05  2837   0.482E-03    0.187E+00
RMM: 286    -0.230833792531E+04   -0.42228E-02   -0.34909E-02  4619   0.935E-02    0.232E+00
RMM: 287    -0.230833995199E+04   -0.20267E-02   -0.42892E-03  4637   0.541E-02    0.248E+00
RMM: 288    -0.230834045087E+04   -0.49888E-03   -0.89881E-04  4484   0.177E-02    0.251E+00
RMM: 289    -0.230834343513E+04   -0.29843E-02   -0.10857E-04  3442   0.907E-03    0.261E+00
RMM: 290    -0.230833069786E+04    0.12737E-01   -0.12907E-03  4368   0.181E-02    0.222E+00
RMM: 291    -0.230832090330E+04    0.97946E-02   -0.92741E-03  4578   0.496E-02    0.180E+00
RMM: 292    -0.230831983843E+04    0.10649E-02   -0.25892E-03  4515   0.385E-02    0.171E+00
RMM: 293    -0.230831931824E+04    0.52019E-03   -0.88658E-04  4836   0.171E-02    0.170E+00
RMM: 294    -0.230831962206E+04   -0.30381E-03   -0.57626E-05  3157   0.916E-03    0.169E+00
RMM: 295    -0.230831905801E+04    0.56404E-03   -0.72356E-04  4304   0.153E-02    0.169E+00
RMM: 296    -0.230829829168E+04    0.20766E-01   -0.88986E-03  4925   0.433E-02    0.206E+00
RMM: 297    -0.230828755156E+04    0.10740E-01   -0.30556E-03  4548   0.294E-02    0.225E+00
RMM: 298    -0.230828051846E+04    0.70331E-02   -0.89782E-04  4585   0.147E-02    0.238E+00
RMM: 299    -0.230830083400E+04   -0.20316E-01   -0.34566E-03  4953   0.257E-02    0.201E+00
RMM: 300    -0.230834948898E+04   -0.48655E-01   -0.25598E-02  5014   0.712E-02    0.253E+00
RMM: 301    -0.230836741747E+04   -0.17928E-01   -0.55023E-03  4714   0.403E-02    0.310E+00
RMM: 302    -0.230836492218E+04    0.24953E-02   -0.67941E-04  3816   0.130E-02    0.311E+00
RMM: 303    -0.230836130715E+04    0.36150E-02   -0.40891E-04  3971   0.117E-02    0.307E+00
RMM: 304    -0.230833165387E+04    0.29653E-01   -0.88898E-03  4636   0.460E-02    0.237E+00
RMM: 305    -0.230830035340E+04    0.31300E-01   -0.16545E-02  4809   0.646E-02    0.221E+00
RMM: 306    -0.230831463359E+04   -0.14280E-01   -0.18942E-03  4479   0.313E-02    0.210E+00
RMM: 307    -0.230830991131E+04    0.47223E-02   -0.24812E-04  3391   0.960E-03    0.209E+00
RMM: 308    -0.230831146845E+04   -0.15571E-02   -0.15219E-04  3484   0.809E-03    0.206E+00
RMM: 309    -0.230831064585E+04    0.82260E-03   -0.12821E-04  3473   0.753E-03    0.203E+00
RMM: 310    -0.230831069950E+04   -0.53648E-04   -0.16002E-05  2902   0.502E-03    0.203E+00
RMM: 311    -0.230832640078E+04   -0.15701E-01   -0.29435E-03  4547   0.244E-02    0.212E+00
RMM: 312    -0.230832646337E+04   -0.62591E-04   -0.32556E-04  3543   0.130E-02    0.211E+00
RMM: 313    -0.230832451852E+04    0.19449E-02   -0.12669E-04  3216   0.734E-03    0.212E+00
RMM: 314    -0.230832322971E+04    0.12888E-02   -0.77279E-05  3043   0.579E-03    0.212E+00
RMM: 315    -0.230831860716E+04    0.46226E-02   -0.72275E-04  4131   0.140E-02    0.211E+00
RMM: 316    -0.230831693292E+04    0.16742E-02   -0.13410E-04  3080   0.984E-03    0.210E+00
RMM: 317    -0.230831697294E+04   -0.40023E-04   -0.31979E-05  2940   0.411E-03    0.209E+00
RMM: 318    -0.230831699272E+04   -0.19776E-04   -0.52203E-05  2954   0.430E-03    0.210E+00
RMM: 319    -0.230831700678E+04   -0.14060E-04   -0.78654E-06  2720   0.320E-03    0.210E+00
RMM: 320    -0.230831710749E+04   -0.10072E-03   -0.13700E-06  2342   0.117E-03    0.210E+00
RMM: 321    -0.230830832201E+04    0.87855E-02   -0.40781E-03  4389   0.328E-02    0.219E+00
RMM: 322    -0.230830793181E+04    0.39020E-03   -0.26876E-04  3512   0.154E-02    0.220E+00
RMM: 323    -0.230830743544E+04    0.49636E-03   -0.61350E-05  3021   0.536E-03    0.219E+00
RMM: 324    -0.230830804300E+04   -0.60756E-03   -0.95515E-06  2812   0.295E-03    0.218E+00
RMM: 325    -0.230831155081E+04   -0.35078E-02   -0.25333E-04  3482   0.826E-03    0.216E+00
RMM: 326    -0.230831985070E+04   -0.82999E-02   -0.98248E-04  4326   0.154E-02    0.222E+00
RMM: 327    -0.230832140779E+04   -0.15571E-02   -0.19295E-04  3194   0.919E-03    0.223E+00
RMM: 328    -0.230832140258E+04    0.52125E-05   -0.21027E-05  2897   0.346E-03
   1 F= -.23296745E+04 E0= -.23296659E+04  d E =-.232967E+04  mag=     5.5455
       N       E                     dE             d eps       ncg     rms          rms(c)
DAV:   1    -0.230712838557E+04    0.11930E+01   -0.10819E+03  4544   0.247E+01    0.105E+01
RMM:   2    -0.231435821460E+04   -0.72298E+01   -0.73839E+01  5364   0.625E+00    0.649E+00
RMM:   3    -0.231387381721E+04    0.48440E+00   -0.55595E+00  4831   0.315E+00    0.492E+00
RMM:   4    -0.231426544544E+04   -0.39163E+00   -0.13624E+00  6339   0.771E-01    0.810E+00
RMM:   5    -0.231351950947E+04    0.74594E+00   -0.53744E-01  5805   0.488E-01    0.275E+00
RMM:   6    -0.231362169787E+04   -0.10219E+00   -0.23388E-01  5318   0.264E-01    0.331E+00
RMM:   7    -0.231354298063E+04    0.78717E-01   -0.82804E-02  6211   0.185E-01    0.104E+00
RMM:   8    -0.231364969392E+04   -0.10671E+00   -0.69968E-02  4693   0.144E-01    0.767E-01
RMM:   9    -0.231369114719E+04   -0.41453E-01   -0.24163E-02  5324   0.863E-02    0.563E-01
RMM:  10    -0.231373976229E+04   -0.48615E-01   -0.10771E-02  4864   0.560E-02    0.295E-01
RMM:  11    -0.231381554593E+04   -0.75784E-01   -0.15903E-02  4552   0.640E-02    0.186E-01
RMM:  12    -0.231384941007E+04   -0.33864E-01   -0.56552E-03  4612   0.475E-02    0.138E-01
RMM:  13    -0.231388151803E+04   -0.32108E-01   -0.64766E-03  4475   0.440E-02    0.967E-02
RMM:  14    -0.231389321952E+04   -0.11701E-01   -0.27234E-03  4444   0.377E-02    0.642E-02
RMM:  15    -0.231389919063E+04   -0.59711E-02   -0.17964E-03  4414   0.234E-02    0.312E-02
RMM:  16    -0.231390083303E+04   -0.16424E-02   -0.38185E-04  4058   0.194E-02    0.173E-02
RMM:  17    -0.231390167386E+04   -0.84083E-03   -0.23222E-04  3914   0.861E-03    0.121E-02
RMM:  18    -0.231390188199E+04   -0.20814E-03   -0.39046E-05  3269   0.755E-03    0.641E-03
RMM:  19    -0.231390203263E+04   -0.15064E-03   -0.43135E-05  3422   0.438E-03    0.629E-03
RMM:  20    -0.231390205272E+04   -0.20087E-04   -0.63501E-06  2851   0.383E-03    0.361E-03
RMM:  21    -0.231390206275E+04   -0.10038E-04   -0.84521E-06  2741   0.233E-03    0.316E-03
RMM:  22    -0.231390206542E+04   -0.26646E-05   -0.17280E-06  2589   0.210E-03
   2 F= -.23352609E+04 E0= -.23352594E+04  d E =-.558636E+01  mag=     2.9962
       N       E                     dE             d eps       ncg     rms          rms(c)
DAV:   1    -0.231390218885E+04   -0.12610E-03   -0.32294E-02  5060   0.151E-01    0.441E-02
RMM:   2    -0.231390227074E+04   -0.81886E-04   -0.93599E-04  4992   0.234E-02    0.236E-02
RMM:   3    -0.231390227404E+04   -0.33001E-05   -0.62939E-05  3214   0.928E-03
   3 F= -.23352611E+04 E0= -.23352596E+04  d E =-.558652E+01  mag=     2.9961
       N       E                     dE             d eps       ncg     rms          rms(c)
DAV:   1    -0.231248386159E+04    0.14184E+01   -0.66203E+02  4648   0.218E+01    0.825E+00
RMM:   2    -0.231628550638E+04   -0.38016E+01   -0.41946E+01  6152   0.512E+00    0.722E+00
RMM:   3    -0.231662845998E+04   -0.34295E+00   -0.40168E+00  6269   0.193E+00    0.849E+00
RMM:   4    -0.231583106536E+04    0.79739E+00   -0.72033E-01  6559   0.559E-01    0.489E+00
RMM:   5    -0.231569822187E+04    0.13284E+00   -0.33515E-01  6318   0.306E-01    0.344E+00
RMM:   6    -0.231561603734E+04    0.82185E-01   -0.24328E-01  5452   0.264E-01    0.206E+00
RMM:   7    -0.231559302400E+04    0.23013E-01   -0.16266E-01  6106   0.242E-01    0.162E+00
RMM:   8    -0.231556568761E+04    0.27336E-01   -0.35837E-02  6177   0.117E-01    0.863E-01
RMM:   9    -0.231556286019E+04    0.28274E-02   -0.99050E-03  5617   0.584E-02    0.448E-01
RMM:  10    -0.231556096046E+04    0.18997E-02   -0.69037E-03  4976   0.447E-02    0.160E-01
RMM:  11    -0.231556091462E+04    0.45841E-04   -0.12359E-03  5184   0.266E-02    0.133E-01
RMM:  12    -0.231556083143E+04    0.83191E-04   -0.46324E-04  4684   0.129E-02    0.509E-02
RMM:  13    -0.231556083199E+04   -0.56194E-06   -0.22263E-04  4495   0.121E-02    0.373E-02
RMM:  14    -0.231556085846E+04   -0.26466E-04   -0.14437E-04  4317   0.914E-03    0.226E-02
RMM:  15    -0.231556088875E+04   -0.30295E-04   -0.73483E-05  3858   0.762E-03    0.959E-03
RMM:  16    -0.231556090874E+04   -0.19991E-04   -0.35316E-05  3288   0.568E-03    0.543E-03
RMM:  17    -0.231556091667E+04   -0.79272E-05   -0.10310E-05  2875   0.471E-03
   4 F= -.23369090E+04 E0= -.23369021E+04  d E =-.164794E+01  mag=     2.9998
       N       E                     dE             d eps       ncg     rms          rms(c)
DAV:   1    -0.231572675286E+04   -0.16584E+00   -0.78702E+01  4532   0.692E+00    0.314E+00
RMM:   2    -0.231609537791E+04   -0.36863E+00   -0.39619E+00  6252   0.149E+00    0.290E+00
RMM:   3    -0.231609282263E+04    0.25553E-02   -0.40890E-01  6317   0.511E-01    0.324E+00
RMM:   4    -0.231598263455E+04    0.11019E+00   -0.83483E-02  6230   0.185E-01    0.149E+00
RMM:   5    -0.231598643628E+04   -0.38017E-02   -0.43194E-02  6247   0.117E-01    0.150E+00
RMM:   6    -0.231596680152E+04    0.19635E-01   -0.24456E-02  5827   0.866E-02    0.692E-01
RMM:   7    -0.231596515562E+04    0.16459E-02   -0.10507E-02  5796   0.595E-02    0.462E-01
RMM:   8    -0.231596269325E+04    0.24624E-02   -0.42242E-03  5664   0.351E-02    0.204E-01
RMM:   9    -0.231596270276E+04   -0.95176E-05   -0.12518E-03  5027   0.236E-02    0.155E-01
RMM:  10    -0.231596254004E+04    0.16272E-03   -0.51892E-04  4566   0.149E-02    0.709E-02
RMM:  11    -0.231596244895E+04    0.91089E-04   -0.28647E-04  4314   0.111E-02    0.339E-02
RMM:  12    -0.231596245480E+04   -0.58505E-05   -0.81266E-05  3880   0.819E-03
   5 F= -.23373109E+04 E0= -.23373047E+04  d E =-.204987E+01  mag=     2.9999
       N       E                     dE             d eps       ncg     rms          rms(c)
DAV:   1    -0.231556879494E+04    0.39365E+00   -0.20336E+02  4504   0.120E+01    0.372E+00
RMM:   2    -0.231714744194E+04   -0.15786E+01   -0.16916E+01  6433   0.248E+00    0.359E+00
RMM:   3    -0.231730647785E+04   -0.15904E+00   -0.16232E+00  6074   0.849E-01    0.434E+00
RMM:   4    -0.231714921452E+04    0.15726E+00   -0.19923E-01  6514   0.258E-01    0.232E+00
RMM:   5    -0.231711188398E+04    0.37331E-01   -0.65988E-02  6314   0.122E-01    0.150E+00
RMM:   6    -0.231709491815E+04    0.16966E-01   -0.38846E-02  5087   0.103E-01    0.711E-01
RMM:   7    -0.231709637460E+04   -0.14564E-02   -0.23250E-02  5623   0.923E-02    0.660E-01
RMM:   8    -0.231709300269E+04    0.33719E-02   -0.79897E-03  6157   0.494E-02    0.511E-01
RMM:   9    -0.231709153324E+04    0.14695E-02   -0.20081E-03  4886   0.226E-02    0.237E-01
RMM:  10    -0.231709123535E+04    0.29789E-03   -0.16177E-03  4619   0.199E-02    0.900E-02
RMM:  11    -0.231709126156E+04   -0.26210E-04   -0.29129E-04  3812   0.973E-03    0.611E-02
RMM:  12    -0.231709125058E+04    0.10981E-04   -0.88176E-05  2951   0.618E-03    0.238E-02
RMM:  13    -0.231709125573E+04   -0.51469E-05   -0.21561E-05  2967   0.392E-03
   6 F= -.23384421E+04 E0= -.23384337E+04  d E =-.113116E+01  mag=     3.0000
       N       E                     dE             d eps       ncg     rms          rms(c)
DAV:   1    -0.231709091224E+04    0.33834E-03   -0.29825E-01  5144   0.461E-01    0.151E-01
RMM:   2    -0.231709315461E+04   -0.22424E-02   -0.24566E-02  6403   0.983E-02    0.132E-01
RMM:   3    -0.231709311908E+04    0.35524E-04   -0.18048E-03  4524   0.303E-02    0.121E-01
RMM:   4    -0.231709294863E+04    0.17046E-03   -0.25326E-04  3273   0.101E-02    0.686E-02
RMM:   5    -0.231709296234E+04   -0.13711E-04   -0.94659E-05  2931   0.631E-03    0.817E-02
RMM:   6    -0.231709289977E+04    0.62569E-04   -0.78727E-05  3224   0.609E-03    0.135E-02
RMM:   7    -0.231709290017E+04   -0.39951E-06   -0.17946E-05  2876   0.454E-03
   7 F= -.23384439E+04 E0= -.23384355E+04  d E =-.113300E+01  mag=     3.0000
       N       E                     dE             d eps       ncg     rms          rms(c)
DAV:   1    -0.231710965843E+04   -0.16759E-01   -0.39097E+01  4516   0.570E+00    0.251E+00
RMM:   2    -0.231732716835E+04   -0.21751E+00   -0.26125E+00  6251   0.112E+00    0.121E+00
RMM:   3    -0.231735177595E+04   -0.24608E-01   -0.29356E-01  5896   0.475E-01    0.171E+00
RMM:   4    -0.231731048277E+04    0.41293E-01   -0.46898E-02  6354   0.140E-01    0.563E-01
RMM:   5    -0.231730524216E+04    0.52406E-02   -0.19758E-02  4731   0.907E-02    0.266E-01
RMM:   6    -0.231730663545E+04   -0.13933E-02   -0.63595E-03  5304   0.623E-02    0.480E-01
RMM:   7    -0.231730477879E+04    0.18567E-02   -0.19684E-03  5822   0.241E-02    0.236E-01
RMM:   8    -0.231730436081E+04    0.41798E-03   -0.92214E-04  4438   0.139E-02    0.129E-01
RMM:   9    -0.231730412937E+04    0.23144E-03   -0.37156E-04  4526   0.117E-02    0.528E-02
RMM:  10    -0.231730414955E+04   -0.20178E-04   -0.81637E-05  3322   0.909E-03    0.749E-02
RMM:  11    -0.231730413247E+04    0.17076E-04   -0.42734E-05  2964   0.475E-03    0.513E-02
RMM:  12    -0.231730410393E+04    0.28543E-04   -0.87407E-05  3625   0.602E-03    0.151E-02
RMM:  13    -0.231730410250E+04    0.14281E-05   -0.21296E-05  2973   0.533E-03
   8 F= -.23386573E+04 E0= -.23386485E+04  d E =-.213365E+00  mag=     3.0000
       N       E                     dE             d eps       ncg     rms          rms(c)
DAV:   1    -0.231730922430E+04   -0.51204E-02   -0.12303E+00  4672   0.101E+00    0.441E-01
RMM:   2    -0.231731642038E+04   -0.71961E-02   -0.84839E-02  6273   0.202E-01    0.233E-01
RMM:   3    -0.231731730564E+04   -0.88525E-03   -0.79344E-03  5802   0.776E-02    0.358E-01
RMM:   4    -0.231731585498E+04    0.14507E-02   -0.17135E-03  5482   0.255E-02    0.185E-01
RMM:   5    -0.231731601015E+04   -0.15517E-03   -0.82055E-04  4961   0.164E-02    0.232E-01
RMM:   6    -0.231731549566E+04    0.51449E-03   -0.51861E-04  5044   0.143E-02    0.352E-02
RMM:   7    -0.231731550528E+04   -0.96204E-05   -0.10098E-04  3112   0.857E-03    0.491E-02
RMM:   8    -0.231731548371E+04    0.21570E-04   -0.34853E-05  2919   0.414E-03    0.225E-02
RMM:   9    -0.231731547832E+04    0.53963E-05   -0.13677E-05  2922   0.305E-03
   9 F= -.23386683E+04 E0= -.23386596E+04  d E =-.224348E+00  mag=     3.0000
       N       E                     dE             d eps       ncg     rms          rms(c)
DAV:   1    -0.231737964287E+04   -0.64159E-01   -0.17766E+01  4488   0.400E+00    0.105E+00
RMM:   2    -0.231747311037E+04   -0.93467E-01   -0.10382E+00  6294   0.716E-01    0.606E-01
RMM:   3    -0.231748098432E+04   -0.78739E-02   -0.85421E-02  6076   0.233E-01    0.918E-01
RMM:   4    -0.231747436778E+04    0.66165E-02   -0.12007E-02  6442   0.646E-02    0.535E-01
RMM:   5    -0.231747412579E+04    0.24199E-03   -0.47587E-03  5594   0.363E-02    0.463E-01
RMM:   6    -0.231747153040E+04    0.25954E-02   -0.45621E-03  5275   0.434E-02    0.964E-02
RMM:   7    -0.231747151068E+04    0.19717E-04   -0.73492E-04  4683   0.233E-02    0.707E-02
RMM:   8    -0.231747150377E+04    0.69117E-05   -0.25194E-04  3978   0.890E-03    0.643E-02
RMM:   9    -0.231747147014E+04    0.33631E-04   -0.59599E-05  2999   0.629E-03    0.299E-02
RMM:  10    -0.231747147464E+04   -0.44958E-05   -0.25545E-05  2960   0.404E-03
  10 F= -.23388256E+04 E0= -.23388163E+04  d E =-.157374E+00  mag=     3.0000
       N       E                     dE             d eps       ncg     rms          rms(c)
DAV:   1    -0.231700843761E+04    0.46303E+00   -0.11792E+02  4488   0.104E+01    0.271E+00
RMM:   2    -0.231764811087E+04   -0.63967E+00   -0.70313E+00  6284   0.190E+00    0.179E+00
RMM:   3    -0.231773027551E+04   -0.82165E-01   -0.62377E-01  6036   0.661E-01    0.310E+00
RMM:   4    -0.231766094969E+04    0.69326E-01   -0.93063E-02  6631   0.188E-01    0.138E+00
RMM:   5    -0.231765843201E+04    0.25177E-02   -0.37366E-02  5875   0.106E-01    0.112E+00
RMM:   6    -0.231764152618E+04    0.16906E-01   -0.26511E-02  5622   0.101E-01    0.345E-01
RMM:   7    -0.231764094963E+04    0.57654E-03   -0.40845E-03  5129   0.525E-02    0.207E-01
RMM:   8    -0.231764085304E+04    0.96599E-04   -0.11936E-03  4783   0.220E-02    0.806E-02
RMM:   9    -0.231764102921E+04   -0.17617E-03   -0.45384E-04  4498   0.170E-02    0.109E-01
RMM:  10    -0.231764095727E+04    0.71941E-04   -0.15636E-04  3399   0.754E-03    0.571E-02
RMM:  11    -0.231764099024E+04   -0.32970E-04   -0.76488E-05  2975   0.565E-03    0.427E-02
RMM:  12    -0.231764103568E+04   -0.45442E-04   -0.80515E-05  3392   0.584E-03    0.219E-02
RMM:  13    -0.231764107290E+04   -0.37225E-04   -0.33438E-05  2975   0.552E-03    0.133E-02
RMM:  14    -0.231764110034E+04   -0.27437E-04   -0.27092E-05  2975   0.491E-03    0.116E-02
RMM:  15    -0.231764111271E+04   -0.12367E-04   -0.12944E-05  2926   0.427E-03    0.468E-03
RMM:  16    -0.231764112273E+04   -0.10018E-04   -0.10227E-05  2898   0.318E-03    0.281E-03
RMM:  17    -0.231764112714E+04   -0.44149E-05   -0.37300E-06  2752   0.282E-03
  11 F= -.23389993E+04 E0= -.23389894E+04  d E =-.331004E+00  mag=     3.0000
       N       E                     dE             d eps       ncg     rms          rms(c)
DAV:   1    -0.231769295567E+04   -0.51833E-01   -0.11932E+01  4528   0.333E+00    0.792E-01
RMM:   2    -0.231774725718E+04   -0.54302E-01   -0.60927E-01  6184   0.580E-01    0.396E-01
RMM:   3    -0.231774755920E+04   -0.30201E-03   -0.44184E-02  5460   0.193E-01    0.323E-01
RMM:   4    -0.231774860392E+04   -0.10447E-02   -0.63434E-03  5854   0.508E-02    0.499E-01
RMM:   5    -0.231774724284E+04    0.13611E-02   -0.40535E-03  5203   0.402E-02    0.317E-01
RMM:   6    -0.231774632095E+04    0.92189E-03   -0.16224E-03  5391   0.271E-02    0.115E-01
RMM:   7    -0.231774618697E+04    0.13397E-03   -0.26224E-04  4193   0.108E-02    0.569E-02
RMM:   8    -0.231774619654E+04   -0.95680E-05   -0.10466E-04  3051   0.694E-03    0.544E-02
RMM:   9    -0.231774617066E+04    0.25882E-04   -0.57011E-05  2925   0.522E-03    0.219E-02
RMM:  10    -0.231774617082E+04   -0.15699E-06   -0.19619E-05  2945   0.394E-03
  12 F= -.23391056E+04 E0= -.23390964E+04  d E =-.106330E+00  mag=     3.0000
       N       E                     dE             d eps       ncg     rms          rms(c)
DAV:   1    -0.231739764282E+04    0.34853E+00   -0.10179E+02  4504   0.980E+00    0.235E+00
RMM:   2    -0.231788550186E+04   -0.48786E+00   -0.54035E+00  6145   0.173E+00    0.127E+00
RMM:   3    -0.231790807159E+04   -0.22570E-01   -0.40358E-01  5810   0.588E-01    0.190E+00
RMM:   4    -0.231788610144E+04    0.21970E-01   -0.53633E-02  6598   0.148E-01    0.101E+00
RMM:   5    -0.231787854288E+04    0.75586E-02   -0.31690E-02  5064   0.110E-01    0.680E-01
RMM:   6    -0.231787327841E+04    0.52645E-02   -0.13315E-02  5647   0.811E-02    0.297E-01
RMM:   7    -0.231787214904E+04    0.11294E-02   -0.25794E-03  5617   0.330E-02    0.121E-01
RMM:   8    -0.231787210972E+04    0.39320E-04   -0.70619E-04  5285   0.194E-02    0.861E-02
RMM:   9    -0.231787209854E+04    0.11178E-04   -0.32549E-04  4210   0.108E-02    0.725E-02
RMM:  10    -0.231787204212E+04    0.56425E-04   -0.88406E-05  3682   0.750E-03    0.294E-02
RMM:  11    -0.231787206432E+04   -0.22202E-04   -0.68730E-05  3625   0.645E-03    0.196E-02
RMM:  12    -0.231787209152E+04   -0.27207E-04   -0.41011E-05  3332   0.613E-03    0.971E-03
RMM:  13    -0.231787210896E+04   -0.17431E-04   -0.16247E-05  2905   0.509E-03    0.603E-03
RMM:  14    -0.231787212128E+04   -0.12326E-04   -0.99989E-06  2858   0.385E-03    0.418E-03
RMM:  15    -0.231787213173E+04   -0.10449E-04   -0.68068E-06  2842   0.325E-03    0.282E-03
RMM:  16    -0.231787213706E+04   -0.53302E-05   -0.42824E-06  2804   0.265E-03
  13 F= -.23392355E+04 E0= -.23392289E+04  d E =-.236195E+00  mag=     3.0000
       N       E                     dE             d eps       ncg     rms          rms(c)
DAV:   1    -0.231788697325E+04   -0.14842E-01   -0.19402E+01  4576   0.407E+00    0.900E-01
RMM:   2    -0.231797618353E+04   -0.89210E-01   -0.95856E-01  6084   0.678E-01    0.518E-01
RMM:   3    -0.231797980162E+04   -0.36181E-02   -0.80121E-02  5686   0.255E-01    0.507E-01
RMM:   4    -0.231797785773E+04    0.19439E-02   -0.94852E-03  6420   0.596E-02    0.360E-01
RMM:   5    -0.231797856206E+04   -0.70433E-03   -0.41217E-03  5533   0.346E-02    0.530E-01
RMM:   6    -0.231797622283E+04    0.23392E-02   -0.34486E-03  5751   0.345E-02    0.152E-01
RMM:   7    -0.231797606379E+04    0.15904E-03   -0.76588E-04  5311   0.187E-02    0.782E-02
RMM:   8    -0.231797599480E+04    0.68991E-04   -0.19780E-04  3283   0.889E-03    0.446E-02
RMM:   9    -0.231797596555E+04    0.29256E-04   -0.42679E-05  2992   0.583E-03    0.204E-02
RMM:  10    -0.231797595621E+04    0.93415E-05   -0.27385E-05  2989   0.438E-03
  14 F= -.23393408E+04 E0= -.23393343E+04  d E =-.105284E+00  mag=     3.0000
       N       E                     dE             d eps       ncg     rms          rms(c)
DAV:   1    -0.231766422619E+04    0.31174E+00   -0.83862E+01  4504   0.845E+00    0.190E+00
RMM:   2    -0.231806913503E+04   -0.40491E+00   -0.43454E+00  6080   0.142E+00    0.115E+00
RMM:   3    -0.231808772329E+04   -0.18588E-01   -0.37681E-01  5631   0.540E-01    0.115E+00
RMM:   4    -0.231807731867E+04    0.10405E-01   -0.41677E-02  6479   0.125E-01    0.790E-01
RMM:   5    -0.231808010543E+04   -0.27868E-02   -0.19912E-02  5872   0.779E-02    0.105E+00
RMM:   6    -0.231807075717E+04    0.93483E-02   -0.13068E-02  6015   0.646E-02    0.375E-01
RMM:   7    -0.231806939268E+04    0.13645E-02   -0.41592E-03  5789   0.431E-02    0.164E-01
RMM:   8    -0.231806926354E+04    0.12914E-03   -0.12141E-03  5213   0.217E-02    0.136E-01
RMM:   9    -0.231806900542E+04    0.25812E-03   -0.35859E-04  4636   0.120E-02    0.525E-02
RMM:  10    -0.231806896100E+04    0.44414E-04   -0.13878E-04  3334   0.767E-03    0.303E-02
RMM:  11    -0.231806894091E+04    0.20095E-04   -0.64007E-05  3408   0.645E-03    0.158E-02
RMM:  12    -0.231806893924E+04    0.16708E-05   -0.17812E-05  2944   0.530E-03
  15 F= -.23394368E+04 E0= -.23394304E+04  d E =-.201304E+00  mag=     3.0000
       N       E                     dE             d eps       ncg     rms          rms(c)
DAV:   1    -0.231804462672E+04    0.24314E-01   -0.34418E+01  4520   0.522E+00    0.121E+00
RMM:   2    -0.231821154102E+04   -0.16691E+00   -0.17346E+00  6091   0.905E-01    0.985E-01
RMM:   3    -0.231822180325E+04   -0.10262E-01   -0.14825E-01  5738   0.330E-01    0.125E+00
RMM:   4    -0.231820934029E+04    0.12463E-01   -0.18937E-02  6469   0.851E-02    0.622E-01
RMM:   5    -0.231820752326E+04    0.18170E-02   -0.65071E-03  6016   0.402E-02    0.451E-01
RMM:   6    -0.231820471931E+04    0.28040E-02   -0.64150E-03  4701   0.496E-02    0.126E-01
RMM:   7    -0.231820464306E+04    0.76248E-04   -0.12919E-03  4529   0.334E-02    0.617E-02
RMM:   8    -0.231820467141E+04   -0.28356E-04   -0.31220E-04  4505   0.121E-02    0.677E-02
RMM:   9    -0.231820462578E+04    0.45630E-04   -0.83817E-05  3114   0.808E-03    0.323E-02
RMM:  10    -0.231820463443E+04   -0.86444E-05   -0.65193E-05  3206   0.569E-03
  16 F= -.23395733E+04 E0= -.23395669E+04  d E =-.136539E+00  mag=     3.0000
       N       E                     dE             d eps       ncg     rms          rms(c)
DAV:   1    -0.231802843339E+04    0.17619E+00   -0.51049E+01  4504   0.628E+00    0.151E+00
RMM:   2    -0.231828140669E+04   -0.25297E+00   -0.26225E+00  6131   0.110E+00    0.126E+00
RMM:   3    -0.231829776298E+04   -0.16356E-01   -0.22458E-01  5757   0.395E-01    0.161E+00
RMM:   4    -0.231827701501E+04    0.20748E-01   -0.28981E-02  6476   0.105E-01    0.766E-01
RMM:   5    -0.231827417344E+04    0.28416E-02   -0.97320E-03  6085   0.489E-02    0.544E-01
RMM:   6    -0.231827010859E+04    0.40648E-02   -0.97328E-03  4735   0.599E-02    0.162E-01
RMM:   7    -0.231826996717E+04    0.14142E-03   -0.19943E-03  4685   0.401E-02    0.709E-02
RMM:   8    -0.231826997165E+04   -0.44864E-05   -0.31209E-04  4242   0.136E-02    0.487E-02
RMM:   9    -0.231827001246E+04   -0.40805E-04   -0.13384E-04  3639   0.115E-02    0.359E-02
RMM:  10    -0.231827004018E+04   -0.27719E-04   -0.81801E-05  3181   0.619E-03    0.277E-02
RMM:  11    -0.231827007364E+04   -0.33459E-04   -0.27460E-05  2983   0.501E-03    0.100E-02
RMM:  12    -0.231827008973E+04   -0.16093E-04   -0.87639E-06  2900   0.342E-03    0.700E-03
RMM:  13    -0.231827010411E+04   -0.14381E-04   -0.67935E-06  2831   0.258E-03    0.397E-03
RMM:  14    -0.231827011398E+04   -0.98673E-05   -0.43188E-06  2792   0.240E-03
  17 F= -.23396400E+04 E0= -.23396331E+04  d E =-.203181E+00  mag=     3.0000
       N       E                     dE             d eps       ncg     rms          rms(c)
DAV:   1    -0.231823533309E+04    0.34771E-01   -0.33681E+01  4504   0.511E+00    0.147E+00
RMM:   2    -0.231839127313E+04   -0.15594E+00   -0.15736E+00  6157   0.928E-01    0.130E+00
RMM:   3    -0.231841101969E+04   -0.19747E-01   -0.13281E-01  5949   0.308E-01    0.199E+00
RMM:   4    -0.231837715450E+04    0.33865E-01   -0.21679E-02  6291   0.968E-02    0.502E-01
RMM:   5    -0.231837702223E+04    0.13227E-03   -0.94194E-03  5959   0.555E-02    0.496E-01
RMM:   6    -0.231837410059E+04    0.29216E-02   -0.72936E-03  5452   0.536E-02    0.215E-01
RMM:   7    -0.231837420567E+04   -0.10508E-03   -0.20725E-03  5266   0.317E-02    0.198E-01
RMM:   8    -0.231837375788E+04    0.44778E-03   -0.63670E-04  4896   0.131E-02    0.815E-02
RMM:   9    -0.231837374771E+04    0.10176E-04   -0.19568E-04  3448   0.847E-03    0.430E-02
RMM:  10    -0.231837375353E+04   -0.58232E-05   -0.63365E-05  3131   0.644E-03
  18 F= -.23397440E+04 E0= -.23397360E+04  d E =-.104074E+00  mag=     3.0000
       N       E                     dE             d eps       ncg     rms          rms(c)
DAV:   1    -0.231835053942E+04    0.23208E-01   -0.91134E+00  4576   0.269E+00    0.770E-01
RMM:   2    -0.231839231943E+04   -0.41780E-01   -0.41945E-01  6167   0.480E-01    0.696E-01
RMM:   3    -0.231839746515E+04   -0.51457E-02   -0.35829E-02  5976   0.159E-01    0.104E+00
RMM:   4    -0.231838810366E+04    0.93615E-02   -0.58682E-03  6094   0.497E-02    0.261E-01
RMM:   5    -0.231838797718E+04    0.12648E-03   -0.25470E-03  5653   0.294E-02    0.251E-01
RMM:   6    -0.231838726188E+04    0.71530E-03   -0.19511E-03  5241   0.283E-02    0.127E-01
RMM:   7    -0.231838724159E+04    0.20289E-04   -0.51371E-04  4162   0.173E-02    0.989E-02
RMM:   8    -0.231838715581E+04    0.85780E-04   -0.15211E-04  3339   0.693E-03    0.492E-02
RMM:   9    -0.231838715135E+04    0.44551E-05   -0.64938E-05  2985   0.549E-03
  19 F= -.23397577E+04 E0= -.23397494E+04  d E =-.117697E+00  mag=     3.0000
       N       E                     dE             d eps       ncg     rms          rms(c)
DAV:   1    -0.231832365641E+04    0.63499E-01   -0.35154E+01  4504   0.529E+00    0.140E+00
RMM:   2    -0.231849398573E+04   -0.17033E+00   -0.16332E+00  6257   0.930E-01    0.145E+00
RMM:   3    -0.231849932010E+04   -0.53344E-02   -0.12959E-01  6071   0.290E-01    0.174E+00
RMM:   4    -0.231847409209E+04    0.25228E-01   -0.20765E-02  6102   0.905E-02    0.557E-01
RMM:   5    -0.231847219885E+04    0.18932E-02   -0.72577E-03  5716   0.484E-02    0.414E-01
RMM:   6    -0.231847087715E+04    0.13217E-02   -0.65364E-03  4547   0.518E-02    0.243E-01
RMM:   7    -0.231847051128E+04    0.36587E-03   -0.20896E-03  4344   0.385E-02    0.157E-01
RMM:   8    -0.231847025868E+04    0.25260E-03   -0.32093E-04  4287   0.112E-02    0.580E-02
RMM:   9    -0.231847025938E+04   -0.70326E-06   -0.10302E-04  3074   0.737E-03    0.268E-02
RMM:  10    -0.231847027816E+04   -0.18785E-04   -0.31451E-05  2958   0.478E-03    0.238E-02
RMM:  11    -0.231847028116E+04   -0.29966E-05   -0.11005E-05  2903   0.403E-03
  20 F= -.23398405E+04 E0= -.23398325E+04  d E =-.828449E-01  mag=     3.0000
       N       E                     dE             d eps       ncg     rms          rms(c)
DAV:   1    -0.231842670774E+04    0.43570E-01   -0.14674E+01  4504   0.340E+00    0.895E-01
RMM:   2    -0.231849620153E+04   -0.69494E-01   -0.66738E-01  6257   0.595E-01    0.926E-01
RMM:   3    -0.231849825476E+04   -0.20532E-02   -0.52578E-02  6068   0.184E-01    0.110E+00
RMM:   4    -0.231848789776E+04    0.10357E-01   -0.85009E-03  5959   0.573E-02    0.357E-01
RMM:   5    -0.231848705575E+04    0.84201E-03   -0.29764E-03  5490   0.317E-02    0.261E-01
RMM:   6    -0.231848662556E+04    0.43019E-03   -0.27802E-03  4530   0.340E-02    0.173E-01
RMM:   7    -0.231848634033E+04    0.28523E-03   -0.84974E-04  4200   0.249E-02    0.875E-02
RMM:   8    -0.231848627192E+04    0.68403E-04   -0.11856E-04  3378   0.675E-03    0.369E-02
RMM:   9    -0.231848626913E+04    0.27966E-05   -0.38906E-05  2972   0.503E-03
  21 F= -.23398562E+04 E0= -.23398488E+04  d E =-.985685E-01  mag=     3.0000
       N       E                     dE             d eps       ncg     rms          rms(c)
DAV:   1    -0.231846886843E+04    0.17403E-01   -0.26541E+01  4504   0.459E+00    0.118E+00
RMM:   2    -0.231855650832E+04   -0.87640E-01   -0.91753E-01  5771   0.760E-01    0.779E-01
RMM:   3    -0.231856453900E+04   -0.80307E-02   -0.58399E-02  5639   0.257E-01    0.135E+00
RMM:   4    -0.231854769370E+04    0.16845E-01   -0.13797E-02  6351   0.789E-02    0.489E-01
RMM:   5    -0.231854750732E+04    0.18638E-03   -0.65298E-03  5624   0.431E-02    0.477E-01
RMM:   6    -0.231854516222E+04    0.23451E-02   -0.45971E-03  4862   0.465E-02    0.189E-01
RMM:   7    -0.231854488533E+04    0.27689E-03   -0.10842E-03  4527   0.300E-02    0.137E-01
RMM:   8    -0.231854473788E+04    0.14746E-03   -0.27502E-04  4128   0.874E-03    0.690E-02
RMM:   9    -0.231854470608E+04    0.31798E-04   -0.13095E-04  3385   0.818E-03    0.306E-02
RMM:  10    -0.231854471959E+04   -0.13509E-04   -0.43234E-05  2982   0.567E-03    0.210E-02
RMM:  11    -0.231854471887E+04    0.72291E-06   -0.17592E-05  2921   0.418E-03
  22 F= -.23399138E+04 E0= -.23399075E+04  d E =-.576191E-01  mag=     3.0000
       N       E                     dE             d eps       ncg     rms          rms(c)
DAV:   1    -0.231854216553E+04    0.25541E-02   -0.22747E+00  4672   0.135E+00    0.341E-01
RMM:   2    -0.231854924473E+04   -0.70792E-02   -0.74552E-02  5820   0.220E-01    0.226E-01
RMM:   3    -0.231854996983E+04   -0.72510E-03   -0.46693E-03  5671   0.725E-02    0.393E-01
RMM:   4    -0.231854851676E+04    0.14531E-02   -0.11670E-03  5689   0.227E-02    0.135E-01
RMM:   5    -0.231854853424E+04   -0.17481E-04   -0.58009E-04  4576   0.142E-02    0.144E-01
RMM:   6    -0.231854830225E+04    0.23199E-03   -0.41629E-04  4775   0.144E-02    0.495E-02
RMM:   7    -0.231854828705E+04    0.15200E-04   -0.88544E-05  3024   0.941E-03    0.402E-02
RMM:   8    -0.231854827242E+04    0.14623E-04   -0.24635E-05  2940   0.345E-03    0.193E-02
RMM:   9    -0.231854827092E+04    0.15037E-05   -0.12988E-05  2934   0.294E-03
  23 F= -.23399171E+04 E0= -.23399111E+04  d E =-.608896E-01  mag=     3.0000
       N       E                     dE             d eps       ncg     rms          rms(c)
DAV:   1    -0.231849467918E+04    0.53593E-01   -0.27615E+01  4504   0.481E+00    0.121E+00
RMM:   2    -0.231860194141E+04   -0.10726E+00   -0.11452E+00  6067   0.803E-01    0.665E-01
RMM:   3    -0.231860957950E+04   -0.76381E-02   -0.83414E-02  5661   0.275E-01    0.101E+00
RMM:   4    -0.231859999294E+04    0.95866E-02   -0.12272E-02  6574   0.718E-02    0.471E-01
RMM:   5    -0.231860121789E+04   -0.12249E-02   -0.77655E-03  5667   0.440E-02    0.532E-01
RMM:   6    -0.231859807214E+04    0.31457E-02   -0.59544E-03  5818   0.469E-02    0.178E-01
RMM:   7    -0.231859793215E+04    0.14000E-03   -0.93131E-04  4501   0.226E-02    0.101E-01
RMM:   8    -0.231859786059E+04    0.71555E-04   -0.30171E-04  3533   0.891E-03    0.623E-02
RMM:   9    -0.231859784632E+04    0.14270E-04   -0.10853E-04  3281   0.679E-03    0.264E-02
RMM:  10    -0.231859785539E+04   -0.90662E-05   -0.23417E-05  2952   0.487E-03
  24 F= -.23399672E+04 E0= -.23399631E+04  d E =-.500694E-01  mag=     3.0000
       N       E                     dE             d eps       ncg     rms          rms(c)
DAV:   1    -0.231857528655E+04    0.22560E-01   -0.78850E+00  4504   0.257E+00    0.636E-01
RMM:   2    -0.231860558123E+04   -0.30295E-01   -0.32438E-01  6073   0.428E-01    0.332E-01
RMM:   3    -0.231860709775E+04   -0.15165E-02   -0.23027E-02  5637   0.146E-01    0.460E-01
RMM:   4    -0.231860516338E+04    0.19344E-02   -0.33121E-03  6143   0.376E-02    0.255E-01
RMM:   5    -0.231860541969E+04   -0.25631E-03   -0.19950E-03  5370   0.229E-02    0.280E-01
RMM:   6    -0.231860456186E+04    0.85783E-03   -0.15753E-03  5651   0.247E-02    0.813E-02
RMM:   7    -0.231860454097E+04    0.20884E-04   -0.25913E-04  3510   0.126E-02    0.550E-02
RMM:   8    -0.231860450696E+04    0.34011E-04   -0.77234E-05  2942   0.553E-03    0.246E-02
RMM:   9    -0.231860450575E+04    0.12121E-05   -0.24284E-05  2968   0.379E-03
  25 F= -.23399740E+04 E0= -.23399710E+04  d E =-.569183E-01  mag=     3.0000
       N       E                     dE             d eps       ncg     rms          rms(c)
DAV:   1    -0.231851365639E+04    0.90851E-01   -0.29445E+01  4504   0.503E+00    0.127E+00
RMM:   2    -0.231864539917E+04   -0.13174E+00   -0.14173E+00  6120   0.873E-01    0.727E-01
RMM:   3    -0.231865393369E+04   -0.85345E-02   -0.11130E-01  5756   0.301E-01    0.104E+00
RMM:   4    -0.231864320090E+04    0.10733E-01   -0.14976E-02  6521   0.788E-02    0.529E-01
RMM:   5    -0.231864309169E+04    0.10921E-03   -0.71444E-03  5739   0.426E-02    0.497E-01
RMM:   6    -0.231864038640E+04    0.27053E-02   -0.66045E-03  5268   0.513E-02    0.172E-01
RMM:   7    -0.231864026305E+04    0.12335E-03   -0.13617E-03  4889   0.303E-02    0.127E-01
RMM:   8    -0.231864004532E+04    0.21773E-03   -0.34539E-04  4404   0.108E-02    0.443E-02
RMM:   9    -0.231864002618E+04    0.19145E-04   -0.11226E-04  3404   0.741E-03    0.217E-02
RMM:  10    -0.231864002682E+04   -0.64349E-06   -0.34745E-05  3153   0.562E-03
  26 F= -.23400102E+04 E0= -.23400086E+04  d E =-.361300E-01  mag=     3.0000
       N       E                     dE             d eps       ncg     rms          rms(c)
DAV:   1    -0.231864000146E+04    0.24716E-04   -0.95651E-03  5456   0.914E-02    0.237E-02
RMM:   2    -0.231864004892E+04   -0.47460E-04   -0.49052E-04  5398   0.183E-02    0.129E-02
RMM:   3    -0.231864005272E+04   -0.38055E-05   -0.38725E-05  2931   0.691E-03
  27 F= -.23400102E+04 E0= -.23400087E+04  d E =-.361660E-01  mag=     3.0000
       N       E                     dE             d eps       ncg     rms          rms(c)
DAV:   1    -0.231858317655E+04    0.56872E-01   -0.12291E+01  4516   0.338E+00    0.884E-01
RMM:   2    -0.231866627474E+04   -0.83098E-01   -0.89073E-01  6261   0.616E-01    0.554E-01
RMM:   3    -0.231867273115E+04   -0.64564E-02   -0.78651E-02  5983   0.215E-01    0.662E-01
RMM:   4    -0.231866849944E+04    0.42317E-02   -0.97226E-03  6324   0.542E-02    0.365E-01
RMM:   5    -0.231866857135E+04   -0.71919E-04   -0.33109E-03  5730   0.287E-02    0.383E-01
RMM:   6    -0.231866690933E+04    0.16620E-02   -0.28911E-03  5276   0.331E-02    0.885E-02
RMM:   7    -0.231866688402E+04    0.25309E-04   -0.53442E-04  4690   0.193E-02    0.605E-02
RMM:   8    -0.231866686018E+04    0.23835E-04   -0.15552E-04  3489   0.826E-03    0.380E-02
RMM:   9    -0.231866684234E+04    0.17843E-04   -0.29639E-05  2940   0.567E-03    0.163E-02
RMM:  10    -0.231866684275E+04   -0.40568E-06   -0.19519E-05  2949   0.383E-03
  28 F= -.23400363E+04 E0= -.23400350E+04  d E =-.261041E-01  mag=     3.0000
       N       E                     dE             d eps       ncg     rms          rms(c)
DAV:   1    -0.231865979957E+04    0.70428E-02   -0.13694E+00  4560   0.113E+00    0.293E-01
RMM:   2    -0.231866900024E+04   -0.92007E-02   -0.98566E-02  6263   0.206E-01    0.190E-01
RMM:   3    -0.231866973884E+04   -0.73860E-03   -0.82187E-03  5732   0.685E-02    0.247E-01
RMM:   4    -0.231866917566E+04    0.56318E-03   -0.10901E-03  4809   0.185E-02    0.123E-01
RMM:   5    -0.231866916152E+04    0.14141E-04   -0.36787E-04  4022   0.113E-02    0.119E-01
RMM:   6    -0.231866898566E+04    0.17586E-03   -0.35661E-04  4551   0.129E-02    0.260E-02
RMM:   7    -0.231866898220E+04    0.34535E-05   -0.47805E-05  3080   0.799E-03
  29 F= -.23400382E+04 E0= -.23400370E+04  d E =-.280090E-01  mag=     3.0000
       N       E                     dE             d eps       ncg     rms          rms(c)
DAV:   1    -0.231861999973E+04    0.48986E-01   -0.76105E+00  4504   0.272E+00    0.654E-01
RMM:   2    -0.231869129143E+04   -0.71292E-01   -0.76593E-01  6496   0.513E-01    0.426E-01
RMM:   3    -0.231869674683E+04   -0.54554E-02   -0.70144E-02  6114   0.174E-01    0.421E-01
RMM:   4    -0.231869520888E+04    0.15380E-02   -0.78198E-03  6091   0.411E-02    0.245E-01
RMM:   5    -0.231869540625E+04   -0.19738E-03   -0.17325E-03  5389   0.212E-02    0.321E-01
RMM:   6    -0.231869435102E+04    0.10552E-02   -0.14489E-03  5554   0.214E-02    0.889E-02
RMM:   7    -0.231869431490E+04    0.36128E-04   -0.44499E-04  4643   0.140E-02    0.482E-02
RMM:   8    -0.231869430024E+04    0.14656E-04   -0.10970E-04  3087   0.800E-03    0.376E-02
RMM:   9    -0.231869428173E+04    0.18514E-04   -0.24003E-05  2909   0.463E-03    0.146E-02
RMM:  10    -0.231869427905E+04    0.26778E-05   -0.13118E-05  2946   0.304E-03
  30 F= -.23400627E+04 E0= -.23400614E+04  d E =-.245185E-01  mag=     3.0000
       N       E                     dE             d eps       ncg     rms          rms(c)
DAV:   1    -0.231816964451E+04    0.52464E+00   -0.55584E+01  4504   0.736E+00    0.177E+00
RMM:   2    -0.231869562136E+04   -0.52598E+00   -0.56588E+00  6518   0.141E+00    0.115E+00
RMM:   3    -0.231874088184E+04   -0.45260E-01   -0.57169E-01  6169   0.480E-01    0.112E+00
RMM:   4    -0.231872848193E+04    0.12400E-01   -0.58264E-02  6693   0.116E-01    0.615E-01
RMM:   5    -0.231872543140E+04    0.30505E-02   -0.12281E-02  5260   0.597E-02    0.549E-01
RMM:   6    -0.231872466139E+04    0.77002E-03   -0.75527E-03  6039   0.470E-02    0.512E-01
RMM:   7    -0.231872223784E+04    0.24235E-02   -0.36069E-03  4748   0.356E-02    0.125E-01
RMM:   8    -0.231872216712E+04    0.70716E-04   -0.61123E-04  4404   0.239E-02    0.789E-02
RMM:   9    -0.231872214705E+04    0.20079E-04   -0.28938E-04  4375   0.951E-03    0.730E-02
RMM:  10    -0.231872207003E+04    0.77012E-04   -0.10781E-04  2942   0.748E-03    0.215E-02
RMM:  11    -0.231872206280E+04    0.72301E-05   -0.58352E-05  3128   0.542E-03
  31 F= -.23400884E+04 E0= -.23400869E+04  d E =-.501993E-01  mag=     3.0000
       N       E                     dE             d eps       ncg     rms          rms(c)
DAV:   1    -0.231864259428E+04    0.79476E-01   -0.94094E+00  4504   0.303E+00    0.750E-01
RMM:   2    -0.231873800730E+04   -0.95413E-01   -0.10353E+00  6534   0.588E-01    0.413E-01
RMM:   3    -0.231874558140E+04   -0.75741E-02   -0.99492E-02  6086   0.199E-01    0.362E-01
RMM:   4    -0.231874514128E+04    0.44012E-03   -0.10695E-02  6320   0.463E-02    0.294E-01
RMM:   5    -0.231874464910E+04    0.49218E-03   -0.22133E-03  5378   0.249E-02    0.289E-01
RMM:   6    -0.231874407919E+04    0.56991E-03   -0.16477E-03  5316   0.215E-02    0.165E-01
RMM:   7    -0.231874385277E+04    0.22642E-03   -0.56161E-04  4819   0.152E-02    0.635E-02
RMM:   8    -0.231874381931E+04    0.33468E-04   -0.16431E-04  3233   0.963E-03    0.474E-02
RMM:   9    -0.231874378577E+04    0.33534E-04   -0.39528E-05  2943   0.525E-03    0.167E-02
RMM:  10    -0.231874378078E+04    0.49873E-05   -0.21099E-05  2940   0.368E-03
  32 F= -.23401094E+04 E0= -.23401079E+04  d E =-.209866E-01  mag=     3.0000
       N       E                     dE             d eps       ncg     rms          rms(c)
DAV:   1    -0.231866118546E+04    0.82600E-01   -0.85557E+00  4504   0.289E+00    0.716E-01
RMM:   2    -0.231874792898E+04   -0.86744E-01   -0.94177E-01  6533   0.559E-01    0.394E-01
RMM:   3    -0.231875476683E+04   -0.68378E-02   -0.90139E-02  6069   0.191E-01    0.342E-01
RMM:   4    -0.231875438104E+04    0.38578E-03   -0.97072E-03  6293   0.441E-02    0.279E-01
RMM:   5    -0.231875390473E+04    0.47632E-03   -0.20164E-03  5396   0.240E-02    0.270E-01
RMM:   6    -0.231875342558E+04    0.47915E-03   -0.14808E-03  5219   0.204E-02    0.162E-01
RMM:   7    -0.231875320991E+04    0.21567E-03   -0.52186E-04  4782   0.146E-02    0.643E-02
RMM:   8    -0.231875316934E+04    0.40570E-04   -0.15513E-04  3249   0.931E-03    0.439E-02
RMM:   9    -0.231875313892E+04    0.30424E-04   -0.35510E-05  2930   0.509E-03    0.160E-02
RMM:  10    -0.231875313321E+04    0.57116E-05   -0.20417E-05  2940   0.366E-03
  33 F= -.23401181E+04 E0= -.23401167E+04  d E =-.296433E-01  mag=     3.0000
       N       E                     dE             d eps       ncg     rms          rms(c)
DAV:   1    -0.231874647042E+04    0.66685E-02   -0.68857E-01  4704   0.819E-01    0.202E-01
RMM:   2    -0.231875341402E+04   -0.69436E-02   -0.75298E-02  6535   0.158E-01    0.112E-01
RMM:   3    -0.231875391333E+04   -0.49930E-03   -0.69230E-03  5518   0.533E-02    0.881E-02
RMM:   4    -0.231875389669E+04    0.16640E-04   -0.75309E-04  3371   0.126E-02    0.755E-02
RMM:   5    -0.231875383101E+04    0.65680E-04   -0.18057E-04  3512   0.941E-03    0.436E-02
RMM:   6    -0.231875383248E+04   -0.14745E-05   -0.10797E-04  3242   0.785E-03    0.472E-02
RMM:   7    -0.231875381131E+04    0.21171E-04   -0.36716E-05  2931   0.580E-03    0.260E-02
RMM:   8    -0.231875380541E+04    0.59032E-05   -0.12642E-05  2889   0.381E-03
  34 F= -.23401185E+04 E0= -.23401172E+04  d E =-.301184E-01  mag=     3.0000
       N       E                     dE             d eps       ncg     rms          rms(c)
DAV:   1    -0.231871606895E+04    0.37742E-01   -0.48860E+00  4504   0.222E+00    0.601E-01
RMM:   2    -0.231876790225E+04   -0.51833E-01   -0.56849E-01  6476   0.444E-01    0.283E-01
RMM:   3    -0.231877199156E+04   -0.40893E-02   -0.57860E-02  5844   0.157E-01    0.253E-01
RMM:   4    -0.231877248497E+04   -0.49341E-03   -0.62054E-03  5729   0.351E-02    0.293E-01
RMM:   5    -0.231877162529E+04    0.85968E-03   -0.12866E-03  5406   0.200E-02    0.130E-01
RMM:   6    -0.231877156805E+04    0.57238E-04   -0.97666E-04  5213   0.186E-02    0.102E-01
RMM:   7    -0.231877142928E+04    0.13877E-03   -0.26899E-04  4142   0.115E-02    0.312E-02
RMM:   8    -0.231877141660E+04    0.12681E-04   -0.37128E-05  2951   0.492E-03    0.171E-02
RMM:   9    -0.231877141910E+04   -0.25019E-05   -0.19132E-05  2937   0.374E-03
  35 F= -.23401357E+04 E0= -.23401347E+04  d E =-.172228E-01  mag=     3.0000
       N       E                     dE             d eps       ncg     rms          rms(c)
DAV:   1    -0.231873102139E+04    0.40395E-01   -0.40553E+00  4504   0.203E+00    0.548E-01
RMM:   2    -0.231877408506E+04   -0.43064E-01   -0.47216E-01  6485   0.405E-01    0.257E-01
RMM:   3    -0.231877741570E+04   -0.33306E-02   -0.47795E-02  5845   0.143E-01    0.218E-01
RMM:   4    -0.231877789926E+04   -0.48356E-03   -0.51292E-03  5582   0.322E-02    0.273E-01
RMM:   5    -0.231877716534E+04    0.73392E-03   -0.10518E-03  5288   0.182E-02    0.121E-01
RMM:   6    -0.231877712066E+04    0.44684E-04   -0.80347E-04  5075   0.169E-02    0.958E-02
RMM:   7    -0.231877699927E+04    0.12138E-03   -0.23096E-04  3830   0.108E-02    0.304E-02
RMM:   8    -0.231877699283E+04    0.64447E-05   -0.40550E-05  2936   0.514E-03
  36 F= -.23401410E+04 E0= -.23401401E+04  d E =-.224480E-01  mag=     3.0000
       N       E                     dE             d eps       ncg     rms          rms(c)
DAV:   1    -0.231875924975E+04    0.17750E-01   -0.29621E+00  4516   0.180E+00    0.498E-01
RMM:   2    -0.231878677367E+04   -0.27524E-01   -0.30400E-01  6328   0.350E-01    0.228E-01
RMM:   3    -0.231878876878E+04   -0.19951E-02   -0.29321E-02  5761   0.128E-01    0.210E-01
RMM:   4    -0.231878866515E+04    0.10362E-03   -0.33365E-03  5702   0.295E-02    0.183E-01
RMM:   5    -0.231878847332E+04    0.19184E-03   -0.10039E-03  4805   0.191E-02    0.158E-01
RMM:   6    -0.231878832413E+04    0.14919E-03   -0.47493E-04  4746   0.140E-02    0.103E-01
RMM:   7    -0.231878820932E+04    0.11481E-03   -0.15707E-04  3846   0.885E-03    0.204E-02
RMM:   8    -0.231878820326E+04    0.60587E-05   -0.27486E-05  2955   0.628E-03
  37 F= -.23401518E+04 E0= -.23401510E+04  d E =-.108019E-01  mag=     3.0000
       N       E                     dE             d eps       ncg     rms          rms(c)
DAV:   1    -0.231877640164E+04    0.11808E-01   -0.14417E+00  4544   0.126E+00    0.347E-01
RMM:   2    -0.231878977836E+04   -0.13377E-01   -0.14787E-01  6359   0.243E-01    0.158E-01
RMM:   3    -0.231879067216E+04   -0.89380E-03   -0.13922E-02  5694   0.867E-02    0.140E-01
RMM:   4    -0.231879069052E+04   -0.18355E-04   -0.15914E-03  4906   0.203E-02    0.146E-01
RMM:   5    -0.231879057949E+04    0.11103E-03   -0.48662E-04  4543   0.137E-02    0.110E-01
RMM:   6    -0.231879048009E+04    0.99397E-04   -0.27786E-04  4431   0.111E-02    0.620E-02
RMM:   7    -0.231879043447E+04    0.45619E-04   -0.78280E-05  3115   0.711E-03    0.235E-02
RMM:   8    -0.231879042855E+04    0.59228E-05   -0.25978E-05  2908   0.534E-03
  38 F= -.23401537E+04 E0= -.23401530E+04  d E =-.127445E-01  mag=     3.0000
       N       E                     dE             d eps       ncg     rms          rms(c)
DAV:   1    -0.231876853530E+04    0.21899E-01   -0.32670E+00  4504   0.192E+00    0.476E-01
RMM:   2    -0.231880032967E+04   -0.31794E-01   -0.33998E-01  6317   0.365E-01    0.351E-01
RMM:   3    -0.231880372581E+04   -0.33961E-02   -0.34898E-02  5980   0.133E-01    0.443E-01
RMM:   4    -0.231880193836E+04    0.17875E-02   -0.37922E-03  5928   0.329E-02    0.201E-01
RMM:   5    -0.231880183530E+04    0.10306E-03   -0.96006E-04  4867   0.157E-02    0.167E-01
RMM:   6    -0.231880148781E+04    0.34749E-03   -0.72498E-04  4656   0.169E-02    0.589E-02
RMM:   7    -0.231880146967E+04    0.18139E-04   -0.18776E-04  4182   0.127E-02    0.260E-02
RMM:   8    -0.231880146887E+04    0.79913E-06   -0.40886E-05  2968   0.544E-03
  39 F= -.23401640E+04 E0= -.23401634E+04  d E =-.102754E-01  mag=     3.0000
       N       E                     dE             d eps       ncg     rms          rms(c)
DAV:   1    -0.231877324725E+04    0.28222E-01   -0.31748E+00  4504   0.189E+00    0.474E-01
RMM:   2    -0.231880438085E+04   -0.31134E-01   -0.33258E-01  6332   0.360E-01    0.358E-01
RMM:   3    -0.231880768660E+04   -0.33057E-02   -0.34171E-02  6024   0.128E-01    0.451E-01
RMM:   4    -0.231880584260E+04    0.18440E-02   -0.37287E-03  5884   0.325E-02    0.200E-01
RMM:   5    -0.231880572564E+04    0.11696E-03   -0.94069E-04  4788   0.157E-02    0.162E-01
RMM:   6    -0.231880539292E+04    0.33272E-03   -0.70047E-04  4637   0.168E-02    0.586E-02
RMM:   7    -0.231880538047E+04    0.12449E-04   -0.19692E-04  4187   0.127E-02    0.314E-02
RMM:   8    -0.231880537685E+04    0.36175E-05   -0.55126E-05  2977   0.578E-03
  40 F= -.23401672E+04 E0= -.23401666E+04  d E =-.134388E-01  mag=     3.0000
       N       E                     dE             d eps       ncg     rms          rms(c)
DAV:   1    -0.231876898307E+04    0.36397E-01   -0.46364E+00  4504   0.231E+00    0.586E-01
RMM:   2    -0.231881682143E+04   -0.47838E-01   -0.49540E-01  6174   0.433E-01    0.572E-01
RMM:   3    -0.231882084600E+04   -0.40246E-02   -0.54349E-02  5948   0.169E-01    0.592E-01
RMM:   4    -0.231881773984E+04    0.31062E-02   -0.56653E-03  6052   0.412E-02    0.249E-01
RMM:   5    -0.231881741427E+04    0.32557E-03   -0.14419E-03  5321   0.199E-02    0.185E-01
RMM:   6    -0.231881694609E+04    0.46818E-03   -0.10727E-03  4574   0.207E-02    0.712E-02
RMM:   7    -0.231881697609E+04   -0.30004E-04   -0.35885E-04  4400   0.163E-02    0.645E-02
RMM:   8    -0.231881692190E+04    0.54186E-04   -0.10969E-04  3233   0.719E-03    0.238E-02
RMM:   9    -0.231881691757E+04    0.43340E-05   -0.18347E-05  2954   0.498E-03
  41 F= -.23401776E+04 E0= -.23401771E+04  d E =-.104832E-01  mag=     3.0000
       N       E                     dE             d eps       ncg     rms          rms(c)
DAV:   1    -0.231880759112E+04    0.93308E-02   -0.10613E+00  4592   0.110E+00    0.281E-01
RMM:   2    -0.231881862886E+04   -0.11038E-01   -0.11367E-01  6177   0.208E-01    0.281E-01
RMM:   3    -0.231881947316E+04   -0.84430E-03   -0.12240E-02  5751   0.821E-02    0.282E-01
RMM:   4    -0.231881877223E+04    0.70093E-03   -0.13056E-03  5177   0.200E-02    0.120E-01
RMM:   5    -0.231881869197E+04    0.80255E-04   -0.32326E-04  3413   0.107E-02    0.878E-02
RMM:   6    -0.231881858145E+04    0.11052E-03   -0.26173E-04  4284   0.115E-02    0.325E-02
RMM:   7    -0.231881858790E+04   -0.64407E-05   -0.81243E-05  3310   0.912E-03
  42 F= -.23401788E+04 E0= -.23401783E+04  d E =-.116544E-01  mag=     3.0000
       N       E                     dE             d eps       ncg     rms          rms(c)
DAV:   1    -0.231879804229E+04    0.20539E-01   -0.34189E+00  4504   0.200E+00    0.530E-01
RMM:   2    -0.231882725732E+04   -0.29215E-01   -0.29917E-01  5997   0.363E-01    0.498E-01
RMM:   3    -0.231883056305E+04   -0.33057E-02   -0.33464E-02  5773   0.152E-01    0.602E-01
RMM:   4    -0.231882700262E+04    0.35604E-02   -0.35647E-03  5974   0.374E-02    0.166E-01
RMM:   5    -0.231882706043E+04   -0.57812E-04   -0.12523E-03  5283   0.210E-02    0.184E-01
RMM:   6    -0.231882659898E+04    0.46145E-03   -0.88640E-04  5050   0.192E-02    0.474E-02
RMM:   7    -0.231882658456E+04    0.14426E-04   -0.12807E-04  3937   0.116E-02    0.215E-02
RMM:   8    -0.231882658155E+04    0.30086E-05   -0.25990E-05  3011   0.453E-03
  43 F= -.23401863E+04 E0= -.23401858E+04  d E =-.749070E-02  mag=     3.0000
       N       E                     dE             d eps       ncg     rms          rms(c)
DAV:   1    -0.231882502682E+04    0.15577E-02   -0.23584E-01  4784   0.525E-01    0.143E-01
RMM:   2    -0.231882712733E+04   -0.21005E-02   -0.20912E-02  6128   0.964E-02    0.156E-01
RMM:   3    -0.231882724857E+04   -0.12124E-03   -0.22556E-03  4883   0.364E-02    0.150E-01
RMM:   4    -0.231882703766E+04    0.21091E-03   -0.25210E-04  3387   0.103E-02    0.479E-02
RMM:   5    -0.231882703113E+04    0.65277E-05   -0.82089E-05  2959   0.703E-03
  44 F= -.23401866E+04 E0= -.23401862E+04  d E =-.780935E-02  mag=     3.0000
       N       E                     dE             d eps       ncg     rms          rms(c)
DAV:   1    -0.231880835299E+04    0.18685E-01   -0.33064E+00  4504   0.196E+00    0.477E-01
RMM:   2    -0.231883650977E+04   -0.28157E-01   -0.27794E-01  6238   0.361E-01    0.537E-01
RMM:   3    -0.231883802197E+04   -0.15122E-02   -0.28417E-02  6044   0.132E-01    0.519E-01
RMM:   4    -0.231883527675E+04    0.27452E-02   -0.30798E-03  5677   0.338E-02    0.143E-01
RMM:   5    -0.231883529550E+04   -0.18745E-04   -0.10891E-03  5329   0.208E-02    0.155E-01
RMM:   6    -0.231883496823E+04    0.32727E-03   -0.87834E-04  5167   0.193E-02    0.490E-02
RMM:   7    -0.231883496727E+04    0.96019E-06   -0.14332E-04  3554   0.111E-02    0.431E-02
RMM:   8    -0.231883494664E+04    0.20622E-04   -0.42284E-05  2922   0.471E-03    0.188E-02
RMM:   9    -0.231883494133E+04    0.53085E-05   -0.10656E-05  2930   0.330E-03
  45 F= -.23401944E+04 E0= -.23401940E+04  d E =-.775130E-02  mag=     3.0000
       N       E                     dE             d eps       ncg     rms          rms(c)
DAV:   1    -0.231882562108E+04    0.93256E-02   -0.13366E+00  4528   0.125E+00    0.304E-01
RMM:   2    -0.231883714050E+04   -0.11519E-01   -0.11274E-01  6246   0.229E-01    0.358E-01
RMM:   3    -0.231883756528E+04   -0.42477E-03   -0.11297E-02  5939   0.826E-02    0.322E-01
RMM:   4    -0.231883649558E+04    0.10697E-02   -0.12205E-03  5308   0.215E-02    0.874E-02
RMM:   5    -0.231883649948E+04   -0.39055E-05   -0.44543E-04  4650   0.143E-02    0.964E-02
RMM:   6    -0.231883636995E+04    0.12953E-03   -0.34690E-04  4767   0.125E-02    0.299E-02
RMM:   7    -0.231883636267E+04    0.72749E-05   -0.43300E-05  3006   0.741E-03
  46 F= -.23401957E+04 E0= -.23401953E+04  d E =-.907518E-02  mag=     3.0000
       N       E                     dE             d eps       ncg     rms          rms(c)
DAV:   1    -0.231882213414E+04    0.14236E-01   -0.23679E+00  4504   0.165E+00    0.419E-01
RMM:   2    -0.231884404201E+04   -0.21908E-01   -0.21605E-01  6347   0.315E-01    0.454E-01
RMM:   3    -0.231884527003E+04   -0.12280E-02   -0.20582E-02  6078   0.109E-01    0.455E-01
RMM:   4    -0.231884322987E+04    0.20402E-02   -0.24645E-03  5753   0.293E-02    0.134E-01
RMM:   5    -0.231884319809E+04    0.31775E-04   -0.75041E-04  4867   0.168E-02    0.127E-01
RMM:   6    -0.231884298843E+04    0.20967E-03   -0.62283E-04  4961   0.171E-02    0.422E-02
RMM:   7    -0.231884300524E+04   -0.16816E-04   -0.13118E-04  3371   0.110E-02    0.459E-02
RMM:   8    -0.231884297980E+04    0.25442E-04   -0.37973E-05  2924   0.455E-03    0.140E-02
[...]
RMM:   2    -0.231897182719E+04   -0.21374E-05   -0.61346E-06  2390   0.223E-03
 219 F= -.23402931E+04 E0= -.23402925E+04  d E =-.123627E-04  mag=     3.0000
       N       E                     dE             d eps       ncg     rms          rms(c)
DAV:   1    -0.231897183615E+04   -0.11094E-04   -0.13479E-03  4496   0.376E-02    0.124E-02
RMM:   2    -0.231897184489E+04   -0.87404E-05   -0.95543E-05  3238   0.784E-03
 220 F= -.23402931E+04 E0= -.23402926E+04  d E =-.107666E-04  mag=     3.0000
       N       E                     dE             d eps       ncg     rms          rms(c)
DAV:   1    -0.231897184969E+04   -0.13544E-04   -0.17121E-04  4944   0.144E-02    0.145E-02
RMM:   2    -0.231897187544E+04   -0.25748E-04   -0.47184E-05  2813   0.454E-03    0.533E-02
RMM:   3    -0.231897184974E+04    0.25702E-04   -0.12860E-05  2420   0.318E-03    0.492E-03
RMM:   4    -0.231897184960E+04    0.13752E-06   -0.17347E-06  1719   0.109E-03
 221 F= -.23402931E+04 E0= -.23402926E+04  d E =-.130827E-04  mag=     3.0000
       N       E                     dE             d eps       ncg     rms          rms(c)
DAV:   1    -0.231897185412E+04   -0.43810E-05   -0.10583E-03  4456   0.326E-02    0.988E-03
RMM:   2    -0.231897186095E+04   -0.68256E-05   -0.73849E-05  3018   0.659E-03
 222 F= -.23402931E+04 E0= -.23402926E+04  d E =-.860947E-05  mag=     3.0000
       N       E                     dE             d eps       ncg     rms          rms(c)
DAV:   1    -0.231897186104E+04   -0.69186E-05   -0.16367E-05  3080   0.579E-03    0.772E-03
RMM:   2    -0.231897186601E+04   -0.49732E-05   -0.11725E-05  2334   0.305E-03
 223 F= -.23402931E+04 E0= -.23402926E+04  d E =-.139318E-04  mag=     3.0000
       N       E                     dE             d eps       ncg     rms          rms(c)
DAV:   1    -0.231897186088E+04    0.16059E-06   -0.61856E-06  2456   0.413E-03    0.391E-03
RMM:   2    -0.231897186287E+04   -0.19891E-05   -0.35200E-06  1896   0.151E-03
 224 F= -.23402931E+04 E0= -.23402926E+04  d E =-.106151E-04  mag=     3.0000
       N       E                     dE             d eps       ncg     rms          rms(c)
DAV:   1    -0.231897186533E+04   -0.44531E-05   -0.11887E-03  4440   0.353E-02    0.112E-02
RMM:   2    -0.231897187373E+04   -0.84003E-05   -0.88638E-05  3149   0.707E-03
 225 F= -.23402931E+04 E0= -.23402926E+04  d E =-.110472E-04  mag=     3.0000
       N       E                     dE             d eps       ncg     rms          rms(c)
DAV:   1    -0.231897187455E+04   -0.92150E-05   -0.26220E-04  4744   0.172E-02    0.121E-02
RMM:   2    -0.231897189004E+04   -0.15489E-04   -0.43850E-05  2833   0.491E-03    0.371E-02
RMM:   3    -0.231897187611E+04    0.13931E-04   -0.98778E-06  2372   0.309E-03    0.727E-03
RMM:   4    -0.231897187569E+04    0.42026E-06   -0.17733E-06  1752   0.111E-03
 226 F= -.23402931E+04 E0= -.23402926E+04  d E =-.130856E-04  mag=     3.0000
       N       E                     dE             d eps       ncg     rms          rms(c)
DAV:   1    -0.231897188368E+04   -0.75691E-05   -0.12777E-03  4480   0.364E-02    0.107E-02
RMM:   2    -0.231897189272E+04   -0.90404E-05   -0.97158E-05  3210   0.724E-03
 227 F= -.23402931E+04 E0= -.23402926E+04  d E =-.914948E-05  mag=     3.0000
       N       E                     dE             d eps       ncg     rms          rms(c)
DAV:   1    -0.231897189265E+04   -0.89782E-05   -0.19816E-05  3680   0.632E-03    0.955E-03
RMM:   2    -0.231897190352E+04   -0.10868E-04   -0.17870E-05  2411   0.344E-03    0.340E-02
RMM:   3    -0.231897189227E+04    0.11249E-04   -0.53495E-06  2003   0.203E-03    0.452E-03
RMM:   4    -0.231897189207E+04    0.20137E-06   -0.73783E-07  1688   0.103E-03
 228 F= -.23402931E+04 E0= -.23402926E+04  d E =-.920278E-05  mag=     3.0000
       N       E                     dE             d eps       ncg     rms          rms(c)
DAV:   1    -0.231897190994E+04   -0.17664E-04   -0.12385E-03  4448   0.362E-02    0.102E-02
RMM:   2    -0.231897191881E+04   -0.88762E-05   -0.93710E-05  3060   0.695E-03
 229 F= -.23402931E+04 E0= -.23402926E+04  d E =-.111935E-04  mag=     3.0000
       N       E                     dE             d eps       ncg     rms          rms(c)
DAV:   1    -0.231897192664E+04   -0.16701E-04   -0.21781E-04  4616   0.158E-02    0.908E-03
RMM:   2    -0.231897193451E+04   -0.78705E-05   -0.32266E-05  2657   0.438E-03
 230 F= -.23402931E+04 E0= -.23402926E+04  d E =-.205285E-04  mag=     3.0000
       N       E                     dE             d eps       ncg     rms          rms(c)
DAV:   1    -0.231897194577E+04   -0.19133E-04   -0.11688E-03  4488   0.354E-02    0.115E-02
RMM:   2    -0.231897195620E+04   -0.10433E-04   -0.88797E-05  3227   0.827E-03    0.177E-02
RMM:   3    -0.231897195488E+04    0.13253E-05   -0.12558E-05  2413   0.471E-03
 231 F= -.23402931E+04 E0= -.23402926E+04  d E =-.495622E-05  mag=     3.0000
       N       E                     dE             d eps       ncg     rms          rms(c)
DAV:   1    -0.231897195658E+04   -0.38001E-06   -0.19188E-05  4002   0.512E-03    0.533E-03
RMM:   2    -0.231897195817E+04   -0.15921E-05   -0.51972E-06  2335   0.268E-03
 232 F= -.23402931E+04 E0= -.23402926E+04  d E =-.628902E-05  mag=     3.0000
       N       E                     dE             d eps       ncg     rms          rms(c)
DAV:   1    -0.231897196900E+04   -0.12416E-04   -0.68465E-04  4264   0.262E-02    0.775E-03
RMM:   2    -0.231897197435E+04   -0.53559E-05   -0.56141E-05  2683   0.553E-03
 233 F= -.23402931E+04 E0= -.23402926E+04  d E =-.472455E-05  mag=     3.0000
       N       E                     dE             d eps       ncg     rms          rms(c)
DAV:   1    -0.231897197805E+04   -0.90489E-05   -0.48664E-05  4082   0.783E-03    0.911E-03
RMM:   2    -0.231897198909E+04   -0.11043E-04   -0.20807E-05  2454   0.340E-03    0.348E-02
RMM:   3    -0.231897197808E+04    0.11010E-04   -0.51197E-06  2201   0.199E-03    0.297E-03
RMM:   4    -0.231897197804E+04    0.43394E-07   -0.56400E-07  1318   0.839E-04
 234 F= -.23402931E+04 E0= -.23402926E+04  d E =-.555050E-05  mag=     3.0000
       N       E                     dE             d eps       ncg     rms          rms(c)
DAV:   1    -0.231897198333E+04   -0.52488E-05   -0.16394E-04  4224   0.128E-02    0.378E-03
RMM:   2    -0.231897198463E+04   -0.12966E-05   -0.13662E-05  2370   0.263E-03
 235 F= -.23402931E+04 E0= -.23402926E+04  d E =-.641972E-05  mag=     3.0000
       N       E                     dE             d eps       ncg     rms          rms(c)
DAV:   1    -0.231897199626E+04   -0.12928E-04   -0.42272E-04  4240   0.204E-02    0.666E-03
RMM:   2    -0.231897200149E+04   -0.52328E-05   -0.37919E-05  2512   0.483E-03
 236 F= -.23402932E+04 E0= -.23402926E+04  d E =-.883335E-05  mag=     3.0000
       N       E                     dE             d eps       ncg     rms          rms(c)
DAV:   1    -0.231897201112E+04   -0.14864E-04   -0.95053E-04  4384   0.307E-02    0.925E-03
RMM:   2    -0.231897201989E+04   -0.87670E-05   -0.84873E-05  3064   0.748E-03
 237 F= -.23402932E+04 E0= -.23402926E+04  d E =-.152102E-04  mag=     3.0000
       N       E                     dE             d eps       ncg     rms          rms(c)
DAV:   1    -0.231897201740E+04   -0.62827E-05   -0.37851E-03  4528   0.608E-02    0.190E-02
RMM:   2    -0.231897205625E+04   -0.38847E-04   -0.33150E-04  4216   0.137E-02    0.312E-02
RMM:   3    -0.231897205133E+04    0.49193E-05   -0.38658E-05  2873   0.641E-03
 238 F= -.23402932E+04 E0= -.23402926E+04  d E =-.225853E-04  mag=     3.0000
       N       E                     dE             d eps       ncg     rms          rms(c)
DAV:   1    -0.231897206281E+04   -0.65630E-05   -0.78381E-04  4472   0.275E-02    0.113E-02
RMM:   2    -0.231897207342E+04   -0.10601E-04   -0.72648E-05  3020   0.625E-03    0.196E-02
RMM:   3    -0.231897206895E+04    0.44631E-05   -0.10614E-05  2502   0.369E-03
 239 F= -.23402932E+04 E0= -.23402926E+04  d E =-.869650E-05  mag=     3.0000
       N       E                     dE             d eps       ncg     rms          rms(c)
DAV:   1    -0.231897206338E+04    0.10033E-04   -0.65138E-03  4528   0.784E-02    0.224E-02
RMM:   2    -0.231897212169E+04   -0.58308E-04   -0.52857E-04  4945   0.149E-02    0.329E-02
RMM:   3    -0.231897211800E+04    0.36882E-05   -0.55869E-05  2912   0.672E-03
 240 F= -.23402932E+04 E0= -.23402927E+04  d E =-.320962E-04  mag=     3.0000
       N       E                     dE             d eps       ncg     rms          rms(c)
DAV:   1    -0.231897197107E+04    0.15062E-03   -0.26088E-02  4516   0.157E-01    0.436E-02
RMM:   2    -0.231897218762E+04   -0.21655E-03   -0.21195E-03  6066   0.293E-02    0.437E-02
RMM:   3    -0.231897218828E+04   -0.65702E-06   -0.20737E-04  2988   0.109E-02    0.364E-02
RMM:   4    -0.231897217901E+04    0.92690E-05   -0.26923E-05  2925   0.398E-03
 241 F= -.23402932E+04 E0= -.23402927E+04  d E =-.418401E-04  mag=     3.0000
       N       E                     dE             d eps       ncg     rms          rms(c)
DAV:   1    -0.231897218836E+04   -0.80792E-07   -0.17378E-03  4632   0.407E-02    0.173E-02
RMM:   2    -0.231897221214E+04   -0.23777E-04   -0.14830E-04  3462   0.824E-03    0.343E-02
RMM:   3    -0.231897220250E+04    0.96349E-05   -0.20352E-05  2851   0.466E-03
 242 F= -.23402932E+04 E0= -.23402927E+04  d E =-.915298E-05  mag=     3.0000
       N       E                     dE             d eps       ncg     rms          rms(c)
DAV:   1    -0.231897215995E+04    0.52186E-04   -0.13639E-02  4516   0.113E-01    0.294E-02
RMM:   2    -0.231897226984E+04   -0.10989E-03   -0.11255E-03  5769   0.210E-02    0.243E-02
RMM:   3    -0.231897228264E+04   -0.12800E-04   -0.11870E-04  2926   0.857E-03    0.349E-02
RMM:   4    -0.231897227263E+04    0.10015E-04   -0.12906E-05  2880   0.288E-03    0.113E-02
RMM:   5    -0.231897227379E+04   -0.11620E-05   -0.65749E-06  2612   0.182E-03
 243 F= -.23402932E+04 E0= -.23402927E+04  d E =-.405501E-04  mag=     3.0000
       N       E                     dE             d eps       ncg     rms          rms(c)
DAV:   1    -0.231897193581E+04    0.33681E-03   -0.54585E-02  4516   0.225E-01    0.571E-02
RMM:   2    -0.231897236671E+04   -0.43090E-03   -0.45119E-03  6199   0.414E-02    0.342E-02
RMM:   3    -0.231897239642E+04   -0.29708E-04   -0.39462E-04  3121   0.152E-02    0.400E-02
RMM:   4    -0.231897238347E+04    0.12943E-04   -0.47528E-05  2966   0.478E-03    0.228E-02
RMM:   5    -0.231897238425E+04   -0.77212E-06   -0.14016E-05  2807   0.262E-03
 244 F= -.23402933E+04 E0= -.23402927E+04  d E =-.712620E-04  mag=     3.0000
       N       E                     dE             d eps       ncg     rms          rms(c)
DAV:   1    -0.231897238018E+04    0.32968E-05   -0.10907E-02  4516   0.102E-01    0.283E-02
RMM:   2    -0.231897247018E+04   -0.90006E-04   -0.91829E-04  5625   0.196E-02    0.231E-02
RMM:   3    -0.231897247657E+04   -0.63835E-05   -0.91078E-05  2922   0.774E-03
 245 F= -.23402933E+04 E0= -.23402928E+04  d E =-.533977E-04  mag=     3.0000
       N       E                     dE             d eps       ncg     rms          rms(c)
DAV:   1    -0.231897224751E+04    0.22267E-03   -0.43572E-02  4548   0.203E-01    0.555E-02
RMM:   2    -0.231897260711E+04   -0.35960E-03   -0.36863E-03  6092   0.378E-02    0.410E-02
RMM:   3    -0.231897263276E+04   -0.25655E-04   -0.34847E-04  3089   0.145E-02    0.485E-02
RMM:   4    -0.231897261375E+04    0.19012E-04   -0.43080E-05  2926   0.484E-03    0.270E-02
RMM:   5    -0.231897261113E+04    0.26260E-05   -0.15616E-05  2877   0.268E-03
 246 F= -.23402934E+04 E0= -.23402929E+04  d E =-.110893E-03  mag=     3.0000
       N       E                     dE             d eps       ncg     rms          rms(c)
DAV:   1    -0.231897129164E+04    0.13221E-02   -0.17347E-01  4504   0.405E-01    0.108E-01
RMM:   2    -0.231897268675E+04   -0.13951E-02   -0.14539E-02  6218   0.755E-02    0.721E-02
RMM:   3    -0.231897281470E+04   -0.12795E-03   -0.13790E-03  4307   0.281E-02    0.100E-01
RMM:   4    -0.231897272397E+04    0.90735E-04   -0.15807E-04  2976   0.797E-03    0.432E-02
RMM:   5    -0.231897272206E+04    0.19103E-05   -0.53875E-05  2933   0.496E-03
 247 F= -.23402933E+04 E0= -.23402928E+04  d E =-.677369E-04  mag=     3.0000
       N       E                     dE             d eps       ncg     rms          rms(c)
DAV:   1    -0.231897200980E+04    0.71417E-03   -0.80195E-02  4516   0.276E-01    0.721E-02
RMM:   2    -0.231897265423E+04   -0.64443E-03   -0.67128E-03  6147   0.518E-02    0.411E-02
RMM:   3    -0.231897269715E+04   -0.42921E-04   -0.59478E-04  3341   0.182E-02    0.528E-02
RMM:   4    -0.231897267596E+04    0.21192E-04   -0.66676E-05  2967   0.547E-03    0.276E-02
RMM:   5    -0.231897267238E+04    0.35736E-05   -0.16751E-05  2855   0.298E-03
 248 F= -.23402934E+04 E0= -.23402929E+04  d E =-.121374E-03  mag=     3.0000
       N       E                     dE             d eps       ncg     rms          rms(c)
DAV:   1    -0.231897260422E+04    0.71734E-04   -0.45173E-03  4560   0.656E-02    0.200E-02
RMM:   2    -0.231897264475E+04   -0.40521E-04   -0.37920E-04  4322   0.129E-02    0.231E-02
RMM:   3    -0.231897264246E+04    0.22825E-05   -0.41822E-05  2862   0.610E-03
 249 F= -.23402934E+04 E0= -.23402929E+04  d E =-.116708E-03  mag=     3.0000
       N       E                     dE             d eps       ncg     rms          rms(c)
DAV:   1    -0.231897261078E+04    0.33968E-04   -0.14688E-02  4528   0.116E-01    0.330E-02
RMM:   2    -0.231897274694E+04   -0.13616E-03   -0.13582E-03  5871   0.230E-02    0.376E-02
RMM:   3    -0.231897275646E+04   -0.95192E-05   -0.14087E-04  2928   0.903E-03    0.392E-02
RMM:   4    -0.231897274281E+04    0.13644E-04   -0.14567E-05  2823   0.312E-03    0.853E-03
RMM:   5    -0.231897274272E+04    0.90542E-07   -0.41083E-06  2320   0.163E-03
 250 F= -.23402934E+04 E0= -.23402929E+04  d E =-.518896E-04  mag=     3.0000
       N       E                     dE             d eps       ncg     rms          rms(c)
DAV:   1    -0.231897263356E+04    0.10925E-03   -0.21420E-02  4516   0.140E-01    0.389E-02
RMM:   2    -0.231897282519E+04   -0.19163E-03   -0.20044E-03  6074   0.271E-02    0.260E-02
RMM:   3    -0.231897283984E+04   -0.14643E-04   -0.18768E-04  2944   0.103E-02    0.309E-02
RMM:   4    -0.231897283034E+04    0.95001E-05   -0.21862E-05  2925   0.343E-03
 251 F= -.23402935E+04 E0= -.23402929E+04  d E =-.806967E-04  mag=     3.0000
       N       E                     dE             d eps       ncg     rms          rms(c)
DAV:   1    -0.231897285377E+04   -0.13937E-04   -0.71924E-03  4528   0.831E-02    0.285E-02
RMM:   2    -0.231897294493E+04   -0.91159E-04   -0.73063E-04  5462   0.167E-02    0.531E-02
RMM:   3    -0.231897292798E+04    0.16951E-04   -0.84449E-05  2916   0.723E-03    0.217E-02
RMM:   4    -0.231897292423E+04    0.37560E-05   -0.93170E-06  2907   0.238E-03
 252 F= -.23402935E+04 E0= -.23402930E+04  d E =-.442052E-04  mag=     3.0000
       N       E                     dE             d eps       ncg     rms          rms(c)
DAV:   1    -0.231897291458E+04    0.13406E-04   -0.82882E-03  4528   0.890E-02    0.298E-02
RMM:   2    -0.231897300496E+04   -0.90379E-04   -0.83692E-04  5558   0.178E-02    0.351E-02
RMM:   3    -0.231897299768E+04    0.72705E-05   -0.90636E-05  2923   0.755E-03
 253 F= -.23402935E+04 E0= -.23402930E+04  d E =-.643041E-04  mag=     3.0000
       N       E                     dE             d eps       ncg     rms          rms(c)
DAV:   1    -0.231897299129E+04    0.13665E-04   -0.74408E-03  4528   0.859E-02    0.284E-02
RMM:   2    -0.231897309236E+04   -0.10107E-03   -0.87550E-04  5657   0.180E-02    0.465E-02
RMM:   3    -0.231897308101E+04    0.11349E-04   -0.94681E-05  2918   0.721E-03    0.253E-02
RMM:   4    -0.231897307809E+04    0.29181E-05   -0.14780E-05  2883   0.269E-03
 254 F= -.23402936E+04 E0= -.23402930E+04  d E =-.325445E-04  mag=     3.0000
       N       E                     dE             d eps       ncg     rms          rms(c)
DAV:   1    -0.231897301925E+04    0.61764E-04   -0.11582E-02  4516   0.107E-01    0.317E-02
RMM:   2    -0.231897314087E+04   -0.12163E-03   -0.12868E-03  5987   0.215E-02    0.176E-02
RMM:   3    -0.231897314838E+04   -0.75028E-05   -0.12400E-04  2916   0.865E-03    0.146E-02
RMM:   4    -0.231897314980E+04   -0.14215E-05   -0.14986E-05  2949   0.264E-03
 255 F= -.23402936E+04 E0= -.23402930E+04  d E =-.444679E-04  mag=     3.0000
       N       E                     dE             d eps       ncg     rms          rms(c)
DAV:   1    -0.231897315094E+04   -0.25587E-05   -0.55805E-03  4544   0.742E-02    0.223E-02
RMM:   2    -0.231897321593E+04   -0.64996E-04   -0.64299E-04  5299   0.151E-02    0.260E-02
RMM:   3    -0.231897322032E+04   -0.43853E-05   -0.67122E-05  2912   0.663E-03
 256 F= -.23402936E+04 E0= -.23402931E+04  d E =-.299632E-04  mag=     3.0000
       N       E                     dE             d eps       ncg     rms          rms(c)
DAV:   1    -0.231897322215E+04   -0.62154E-05   -0.21207E-03  4792   0.459E-02    0.147E-02
RMM:   2    -0.231897324635E+04   -0.24207E-04   -0.25396E-04  3727   0.101E-02    0.119E-02
RMM:   3    -0.231897325022E+04   -0.38691E-05   -0.33036E-05  2855   0.551E-03
 257 F= -.23402936E+04 E0= -.23402931E+04  d E =-.348778E-04  mag=     3.0000
       N       E                     dE             d eps       ncg     rms          rms(c)
DAV:   1    -0.231897320093E+04    0.45423E-04   -0.85450E-03  4528   0.916E-02    0.271E-02
RMM:   2    -0.231897329648E+04   -0.95549E-04   -0.99628E-04  5727   0.190E-02    0.188E-02
RMM:   3    -0.231897330270E+04   -0.62155E-05   -0.94464E-05  2910   0.768E-03
 258 F= -.23402936E+04 E0= -.23402931E+04  d E =-.373761E-04  mag=     3.0000
       N       E                     dE             d eps       ncg     rms          rms(c)
DAV:   1    -0.231897324637E+04    0.50113E-04   -0.26246E-03  4480   0.509E-02    0.176E-02
RMM:   2    -0.231897327529E+04   -0.28919E-04   -0.28910E-04  4193   0.107E-02    0.187E-02
RMM:   3    -0.231897327689E+04   -0.16014E-05   -0.34297E-05  2598   0.547E-03
 259 F= -.23402936E+04 E0= -.23402931E+04  d E =-.389271E-04  mag=     3.0000
       N       E                     dE             d eps       ncg     rms          rms(c)
DAV:   1    -0.231897328956E+04   -0.14274E-04   -0.48025E-03  4528   0.704E-02    0.229E-02
RMM:   2    -0.231897334058E+04   -0.51020E-04   -0.53591E-04  5284   0.148E-02    0.187E-02
RMM:   3    -0.231897334773E+04   -0.71505E-05   -0.58639E-05  2901   0.672E-03
 260 F= -.23402937E+04 E0= -.23402931E+04  d E =-.404553E-04  mag=     3.0000
       N       E                     dE             d eps       ncg     rms          rms(c)
DAV:   1    -0.231897334848E+04   -0.78996E-05   -0.11641E-03  4696   0.351E-02    0.141E-02
RMM:   2    -0.231897336569E+04   -0.17210E-04   -0.14160E-04  3259   0.793E-03    0.236E-02
RMM:   3    -0.231897336227E+04    0.34142E-05   -0.19129E-05  2821   0.462E-03
 261 F= -.23402937E+04 E0= -.23402931E+04  d E =-.399894E-04  mag=     3.0000
       N       E                     dE             d eps       ncg     rms          rms(c)
DAV:   1    -0.231897336561E+04    0.75786E-07   -0.12198E-04  5112   0.115E-02    0.889E-03
RMM:   2    -0.231897337162E+04   -0.60102E-05   -0.23162E-05  2645   0.324E-03
 262 F= -.23402937E+04 E0= -.23402931E+04  d E =-.444080E-04  mag=     3.0000
       N       E                     dE             d eps       ncg     rms          rms(c)
DAV:   1    -0.231897338487E+04   -0.19254E-04   -0.19080E-03  4496   0.461E-02    0.150E-02
RMM:   2    -0.231897340640E+04   -0.21528E-04   -0.21362E-04  3666   0.104E-02    0.149E-02
RMM:   3    -0.231897340800E+04   -0.16059E-05   -0.26002E-05  2547   0.602E-03
 263 F= -.23402937E+04 E0= -.23402932E+04  d E =-.181241E-04  mag=     3.0000
