       N       E                     dE             d eps       ncg     rms          rms(c)
DAV:   1     0.128050616753E+05    0.12805E+05   -0.84671E+05  4700   0.140E+03
DAV:   2    -0.117703072264E+04   -0.13982E+05   -0.13365E+05  5200   0.321E+02
DAV:   3    -0.249902080522E+04   -0.13220E+04   -0.13091E+04  5650   0.107E+02
DAV:   4    -0.253216754768E+04   -0.33147E+02   -0.32969E+02  6250   0.228E+01
DAV:   5    -0.253304453044E+04   -0.87698E+00   -0.87555E+00  5950   0.289E+00    0.170E+02
RMM:   6    -0.149768784920E+04    0.10354E+04   -0.18795E+03  4637   0.366E+01    0.721E+01
RMM:   7    -0.166455924238E+04   -0.16687E+03   -0.27133E+02  5275   0.136E+01    0.489E+01
RMM:   8    -0.172490799827E+04   -0.60349E+02   -0.49069E+01  5492   0.733E+00    0.391E+01
RMM:   9    -0.183539347920E+04   -0.11049E+03   -0.69677E+01  5211   0.810E+00    0.313E+01
RMM:  10    -0.195402854125E+04   -0.11864E+03   -0.53162E+01  5371   0.673E+00    0.204E+01
RMM:  11    -0.203729490952E+04   -0.83266E+02   -0.32009E+01  5301   0.465E+00    0.186E+01
RMM:  12    -0.210377780347E+04   -0.66483E+02   -0.25482E+01  5134   0.394E+00    0.140E+01
RMM:  13    -0.223985435371E+04   -0.13608E+03   -0.10853E+02  4617   0.729E+00    0.123E+01
RMM:  14    -0.227827419252E+04   -0.38420E+02   -0.29593E+01  4977   0.439E+00    0.735E+00
RMM:  15    -0.231292413808E+04   -0.34650E+02   -0.33779E+01  4613   0.361E+00    0.482E+00
RMM:  16    -0.231851659682E+04   -0.55925E+01   -0.56584E+00  4836   0.232E+00    0.353E+00
RMM:  17    -0.232298818494E+04   -0.44716E+01   -0.40378E+00  4743   0.112E+00    0.196E+00
RMM:  18    -0.232486565256E+04   -0.18775E+01   -0.15143E+00  4756   0.981E-01    0.130E+00
RMM:  19    -0.232558070885E+04   -0.71506E+00   -0.10348E+00  4721   0.464E-01    0.856E-01
RMM:  20    -0.232576904039E+04   -0.18833E+00   -0.25021E-01  4764   0.361E-01    0.550E-01
RMM:  21    -0.232586360269E+04   -0.94562E-01   -0.94562E-02  4728   0.157E-01    0.349E-01
RMM:  22    -0.232591276776E+04   -0.49165E-01   -0.26134E-02  4703   0.122E-01    0.315E-01
RMM:  23    -0.232594332470E+04   -0.30557E-01   -0.12768E-02  4700   0.662E-02    0.164E-01
RMM:  24    -0.232596294285E+04   -0.19618E-01   -0.58655E-03  4654   0.600E-02    0.876E-02
RMM:  25    -0.232597106650E+04   -0.81237E-02   -0.21782E-03  4993   0.337E-02    0.562E-02
RMM:  26    -0.232597782726E+04   -0.67608E-02   -0.13143E-03  4530   0.256E-02    0.367E-02
RMM:  27    -0.232598199571E+04   -0.41684E-02   -0.10236E-03  4295   0.213E-02    0.266E-02
RMM:  28    -0.232598325825E+04   -0.12625E-02   -0.41777E-04  4454   0.165E-02    0.116E-02
RMM:  29    -0.232598358705E+04   -0.32881E-03   -0.12704E-04  4128   0.790E-03    0.105E-02
RMM:  30    -0.232598368215E+04   -0.95100E-04   -0.22516E-05  3274   0.521E-03    0.493E-03
RMM:  31    -0.232598375356E+04   -0.71410E-04   -0.14292E-05  3099   0.322E-03    0.225E-03
RMM:  32    -0.232598378188E+04   -0.28314E-04   -0.67020E-06  2999   0.281E-03    0.185E-03
RMM:  33    -0.232598379028E+04   -0.84064E-05   -0.31775E-06  2661   0.202E-03
   1 F= -.23473792E+04 E0= -.23473792E+04  d E =-.404434E-05  mag=     5.0000
       N       E                     dE             d eps       ncg     rms          rms(c)
DAV:   1    -0.232598212626E+04    0.16556E-02   -0.19929E+00  4600   0.712E-01    0.381E-01
RMM:   2    -0.232598319366E+04   -0.10674E-02   -0.19732E-02  4944   0.710E-02    0.351E-01
RMM:   3    -0.232598365904E+04   -0.46538E-03   -0.38875E-03  4826   0.378E-02    0.489E-01
RMM:   4    -0.232598228560E+04    0.13734E-02   -0.27887E-03  5149   0.247E-02    0.224E-01
RMM:   5    -0.232598164977E+04    0.63583E-03   -0.98927E-04  4305   0.169E-02    0.882E-02
RMM:   6    -0.232598156109E+04    0.88673E-04   -0.14436E-04  3449   0.677E-03    0.394E-02
RMM:   7    -0.232598156065E+04    0.44551E-06   -0.61757E-05  3096   0.475E-03
   2 F= -.23473768E+04 E0= -.23473768E+04  d E =-.118243E-05  mag=     5.0000
       N       E                     dE             d eps       ncg     rms          rms(c)
DAV:   1    -0.232594968527E+04    0.31876E-01   -0.78112E+00  4600   0.141E+00    0.747E-01
RMM:   2    -0.232595448795E+04   -0.48027E-02   -0.77009E-02  5161   0.142E-01    0.744E-01
RMM:   3    -0.232595518474E+04   -0.69679E-03   -0.14490E-02  5245   0.717E-02    0.921E-01
RMM:   4    -0.232595065554E+04    0.45292E-02   -0.10231E-02  5768   0.449E-02    0.444E-01
RMM:   5    -0.232594818513E+04    0.24704E-02   -0.40544E-03  5640   0.316E-02    0.179E-01
RMM:   6    -0.232594780225E+04    0.38288E-03   -0.59332E-04  4297   0.117E-02    0.833E-02
RMM:   7    -0.232594780237E+04   -0.12810E-06   -0.25021E-04  3304   0.830E-03    0.745E-02
RMM:   8    -0.232594776352E+04    0.38850E-04   -0.77863E-05  3208   0.533E-03    0.188E-02
RMM:   9    -0.232594777607E+04   -0.12542E-04   -0.28866E-05  3148   0.380E-03    0.883E-03
RMM:  10    -0.232594778283E+04   -0.67679E-05   -0.58140E-06  2999   0.282E-03
   3 F= -.23473433E+04 E0= -.23473432E+04  d E =-.135174E-04  mag=     4.9999
       N       E                     dE             d eps       ncg     rms          rms(c)
DAV:   1    -0.232597295466E+04   -0.25179E-01   -0.35962E+00  4600   0.946E-01    0.494E-01
RMM:   2    -0.232597505051E+04   -0.20958E-02   -0.24211E-02  4788   0.822E-02    0.521E-01
RMM:   3    -0.232597535743E+04   -0.30692E-03   -0.65455E-03  5189   0.471E-02    0.580E-01
RMM:   4    -0.232597334950E+04    0.20079E-02   -0.30832E-03  4974   0.231E-02    0.281E-01
RMM:   5    -0.232597265769E+04    0.69181E-03   -0.13882E-03  4487   0.182E-02    0.126E-01
RMM:   6    -0.232597245158E+04    0.20611E-03   -0.21096E-04  3654   0.887E-03    0.438E-02
RMM:   7    -0.232597245970E+04   -0.81235E-05   -0.77339E-05  3120   0.529E-03
   4 F= -.23473675E+04 E0= -.23473675E+04  d E =-.439173E-05  mag=     5.0000
       N       E                     dE             d eps       ncg     rms          rms(c)
DAV:   1    -0.232597864525E+04   -0.61937E-02   -0.76675E+00  4600   0.139E+00    0.864E-01
RMM:   2    -0.232599076417E+04   -0.12119E-01   -0.71632E-02  5486   0.138E-01    0.130E+00
RMM:   3    -0.232598313342E+04    0.76307E-02   -0.22502E-02  6000   0.777E-02    0.102E+00
RMM:   4    -0.232597553618E+04    0.75972E-02   -0.64127E-03  5187   0.363E-02    0.328E-01
RMM:   5    -0.232597585876E+04   -0.32258E-03   -0.49814E-03  5767   0.333E-02    0.353E-01
RMM:   6    -0.232597434815E+04    0.15106E-02   -0.15576E-03  5320   0.188E-02    0.851E-02
RMM:   7    -0.232597437457E+04   -0.26417E-04   -0.34439E-04  3621   0.874E-03    0.861E-02
RMM:   8    -0.232597430813E+04    0.66437E-04   -0.14620E-04  3136   0.664E-03    0.342E-02
RMM:   9    -0.232597432015E+04   -0.12016E-04   -0.36750E-05  3143   0.445E-03    0.182E-02
RMM:  10    -0.232597432998E+04   -0.98284E-05   -0.12600E-05  3077   0.355E-03
   5 F= -.23473701E+04 E0= -.23473701E+04  d E =-.350218E-05  mag=     5.0000
       N       E                     dE             d eps       ncg     rms          rms(c)
DAV:   1    -0.232597283614E+04    0.14840E-02   -0.38861E+00  4750   0.101E+00    0.504E-01
RMM:   2    -0.232597571440E+04   -0.28783E-02   -0.42504E-02  5130   0.105E-01    0.676E-01
RMM:   3    -0.232597434909E+04    0.13653E-02   -0.91789E-03  5183   0.617E-02    0.619E-01
RMM:   4    -0.232597111956E+04    0.32295E-02   -0.23390E-03  4915   0.243E-02    0.170E-01
RMM:   5    -0.232597129473E+04   -0.17516E-03   -0.18834E-03  5107   0.228E-02    0.237E-01
RMM:   6    -0.232597065582E+04    0.63891E-03   -0.80278E-04  4786   0.138E-02    0.501E-02
RMM:   7    -0.232597066369E+04   -0.78722E-05   -0.15894E-04  3386   0.613E-03    0.505E-02
RMM:   8    -0.232597064812E+04    0.15571E-04   -0.64563E-05  3116   0.500E-03    0.259E-02
RMM:   9    -0.232597064857E+04   -0.44699E-06   -0.21101E-05  3137   0.348E-03
   6 F= -.23473655E+04 E0= -.23473655E+04  d E =-.449826E-05  mag=     5.0000
       N       E                     dE             d eps       ncg     rms          rms(c)
DAV:   1    -0.232596501234E+04    0.56358E-02   -0.75455E+00  4650   0.141E+00    0.614E-01
RMM:   2    -0.232596556679E+04   -0.55445E-03   -0.68589E-02  4644   0.117E-01    0.395E-01
RMM:   3    -0.232596282516E+04    0.27416E-02   -0.63921E-03  4788   0.629E-02    0.247E-01
RMM:   4    -0.232596420082E+04   -0.13757E-02   -0.49515E-03  5513   0.319E-02    0.454E-01
RMM:   5    -0.232596242265E+04    0.17782E-02   -0.16777E-03  4775   0.223E-02    0.204E-01
RMM:   6    -0.232596198580E+04    0.43685E-03   -0.37852E-04  3597   0.943E-03    0.490E-02
RMM:   7    -0.232596197570E+04    0.10104E-04   -0.10586E-04  3269   0.564E-03    0.397E-02
RMM:   8    -0.232596197345E+04    0.22453E-05   -0.60261E-05  3136   0.460E-03
   7 F= -.23473581E+04 E0= -.23473581E+04  d E =-.374395E-05  mag=     5.0000
       N       E                     dE             d eps       ncg     rms          rms(c)
DAV:   1    -0.232593855642E+04    0.23419E-01   -0.63012E+00  4800   0.120E+00    0.506E-01
RMM:   2    -0.232594205425E+04   -0.34978E-02   -0.66383E-02  4584   0.119E-01    0.302E-01
RMM:   3    -0.232594334406E+04   -0.12898E-02   -0.77464E-03  4702   0.655E-02    0.539E-01
RMM:   4    -0.232594079802E+04    0.25460E-02   -0.34049E-03  5227   0.259E-02    0.213E-01
RMM:   5    -0.232594088282E+04   -0.84801E-04   -0.15398E-03  4714   0.190E-02    0.226E-01
RMM:   6    -0.232594031578E+04    0.56705E-03   -0.42021E-04  3865   0.108E-02    0.522E-02
RMM:   7    -0.232594032033E+04   -0.45535E-05   -0.13304E-04  3189   0.684E-03    0.540E-02
RMM:   8    -0.232594029366E+04    0.26669E-04   -0.42101E-05  3121   0.413E-03    0.148E-02
RMM:   9    -0.232594029948E+04   -0.58171E-05   -0.13265E-05  3052   0.295E-03
   8 F= -.23473363E+04 E0= -.23473363E+04  d E =-.482859E-05  mag=     5.0000
       N       E                     dE             d eps       ncg     rms          rms(c)
DAV:   1    -0.232599688664E+04   -0.56593E-01   -0.20199E+01  4600   0.213E+00    0.831E-01
RMM:   2    -0.232600069193E+04   -0.38053E-02   -0.15142E-01  4603   0.205E-01    0.443E-01
RMM:   3    -0.232600078223E+04   -0.90296E-04   -0.18470E-02  5142   0.107E-01    0.579E-01
RMM:   4    -0.232599623542E+04    0.45468E-02   -0.81193E-03  5848   0.427E-02    0.169E-01
RMM:   5    -0.232599605158E+04    0.18384E-03   -0.14240E-03  4825   0.211E-02    0.146E-01
RMM:   6    -0.232599588984E+04    0.16174E-03   -0.56742E-04  3643   0.113E-02    0.847E-02
RMM:   7    -0.232599585836E+04    0.31478E-04   -0.13260E-04  3354   0.694E-03    0.743E-02
RMM:   8    -0.232599582381E+04    0.34548E-04   -0.56090E-05  3114   0.489E-03    0.352E-02
RMM:   9    -0.232599581977E+04    0.40355E-05   -0.20075E-05  3086   0.360E-03
   9 F= -.23473907E+04 E0= -.23473907E+04  d E =-.342706E-05  mag=     5.0000
       N       E                     dE             d eps       ncg     rms          rms(c)
DAV:   1    -0.232599290361E+04    0.29202E-02   -0.99767E+00  4700   0.154E+00    0.411E-01
RMM:   2    -0.232599557510E+04   -0.26715E-02   -0.55315E-02  4560   0.133E-01    0.218E-01
RMM:   3    -0.232599516768E+04    0.40741E-03   -0.50511E-03  4639   0.631E-02    0.252E-01
RMM:   4    -0.232599448468E+04    0.68300E-03   -0.20508E-03  4801   0.232E-02    0.117E-01
RMM:   5    -0.232599438749E+04    0.97198E-04   -0.35576E-04  3943   0.126E-02    0.828E-02
RMM:   6    -0.232599435251E+04    0.34972E-04   -0.10970E-04  3229   0.619E-03    0.536E-02
RMM:   7    -0.232599434627E+04    0.62486E-05   -0.45832E-05  3056   0.399E-03
  10 F= -.23473889E+04 E0= -.23473889E+04  d E =-.454488E-05  mag=     5.0000
       N       E                     dE             d eps       ncg     rms          rms(c)
DAV:   1    -0.232595668287E+04    0.37670E-01   -0.19981E+01  4600   0.224E+00    0.609E-01
RMM:   2    -0.232596331175E+04   -0.66289E-02   -0.11608E-01  4548   0.177E-01    0.321E-01
RMM:   3    -0.232596216071E+04    0.11510E-02   -0.11788E-02  4739   0.872E-02    0.302E-01
RMM:   4    -0.232596171090E+04    0.44981E-03   -0.39836E-03  5032   0.299E-02    0.198E-01
RMM:   5    -0.232596183961E+04   -0.12871E-03   -0.93689E-04  4151   0.207E-02    0.240E-01
RMM:   6    -0.232596131664E+04    0.52296E-03   -0.38255E-04  3890   0.966E-03    0.485E-02
RMM:   7    -0.232596133136E+04   -0.14714E-04   -0.86596E-05  3171   0.573E-03    0.398E-02
RMM:   8    -0.232596132618E+04    0.51828E-05   -0.46755E-05  3102   0.422E-03
  11 F= -.23473575E+04 E0= -.23473575E+04  d E =-.382337E-05  mag=     5.0000
       N       E                     dE             d eps       ncg     rms          rms(c)
DAV:   1    -0.232595573171E+04    0.55996E-02   -0.10191E+01  4600   0.148E+00    0.349E-01
RMM:   2    -0.232596068422E+04   -0.49525E-02   -0.60969E-02  4506   0.116E-01    0.311E-01
RMM:   3    -0.232596118159E+04   -0.49738E-03   -0.61542E-03  4530   0.564E-02    0.439E-01
RMM:   4    -0.232595959182E+04    0.15898E-02   -0.23542E-03  4698   0.228E-02    0.174E-01
RMM:   5    -0.232595949108E+04    0.10073E-03   -0.90728E-04  4062   0.155E-02    0.140E-01
RMM:   6    -0.232595926615E+04    0.22493E-03   -0.33681E-04  4028   0.970E-03    0.359E-02
RMM:   7    -0.232595927205E+04   -0.58961E-05   -0.61140E-05  3120   0.582E-03
  12 F= -.23473548E+04 E0= -.23473547E+04  d E =-.580370E-05  mag=     5.0000
       N       E                     dE             d eps       ncg     rms          rms(c)
DAV:   1    -0.232599219357E+04   -0.32927E-01   -0.20253E+01  4600   0.217E+00    0.609E-01
RMM:   2    -0.232600037714E+04   -0.81836E-02   -0.12897E-01  4643   0.175E-01    0.501E-01
RMM:   3    -0.232600324222E+04   -0.28651E-02   -0.15541E-02  4919   0.896E-02    0.867E-01
RMM:   4    -0.232599688337E+04    0.63589E-02   -0.64693E-03  5284   0.370E-02    0.208E-01
RMM:   5    -0.232599693408E+04   -0.50714E-04   -0.22790E-03  4759   0.232E-02    0.218E-01
RMM:   6    -0.232599644339E+04    0.49069E-03   -0.70480E-04  4318   0.129E-02    0.439E-02
RMM:   7    -0.232599646672E+04   -0.23330E-04   -0.12498E-04  3250   0.695E-03    0.517E-02
RMM:   8    -0.232599643355E+04    0.33169E-04   -0.46808E-05  3033   0.405E-03    0.172E-02
RMM:   9    -0.232599643564E+04   -0.20862E-05   -0.14135E-05  3019   0.260E-03
  13 F= -.23473918E+04 E0= -.23473918E+04  d E =-.324629E-05  mag=     5.0000
       N       E                     dE             d eps       ncg     rms          rms(c)
DAV:   1    -0.232597251228E+04    0.23921E-01   -0.10049E+01  4600   0.159E+00    0.556E-01
RMM:   2    -0.232597848350E+04   -0.59712E-02   -0.10165E-01  4591   0.153E-01    0.302E-01
RMM:   3    -0.232597944726E+04   -0.96376E-03   -0.93307E-03  4452   0.795E-02    0.530E-01
RMM:   4    -0.232597738324E+04    0.20640E-02   -0.32916E-03  5047   0.260E-02    0.212E-01
RMM:   5    -0.232597746640E+04   -0.83158E-04   -0.12912E-03  4616   0.176E-02    0.180E-01
RMM:   6    -0.232597709414E+04    0.37226E-03   -0.44123E-04  3722   0.108E-02    0.394E-02
RMM:   7    -0.232597708521E+04    0.89259E-05   -0.49722E-05  3103   0.458E-03
  14 F= -.23473718E+04 E0= -.23473718E+04  d E =-.552628E-05  mag=     5.0000
       N       E                     dE             d eps       ncg     rms          rms(c)
DAV:   1    -0.232595520623E+04    0.21888E-01   -0.20187E+01  4600   0.219E+00    0.888E-01
RMM:   2    -0.232595600308E+04   -0.79685E-03   -0.13892E-01  4597   0.179E-01    0.528E-01
RMM:   3    -0.232596565668E+04   -0.96536E-02   -0.21704E-02  5278   0.977E-02    0.122E+00
RMM:   4    -0.232595302453E+04    0.12632E-01   -0.10886E-02  5895   0.458E-02    0.265E-01
RMM:   5    -0.232595355211E+04   -0.52759E-03   -0.34464E-03  5065   0.270E-02    0.285E-01
RMM:   6    -0.232595266657E+04    0.88555E-03   -0.11566E-03  4614   0.156E-02    0.511E-02
RMM:   7    -0.232595267479E+04   -0.82198E-05   -0.13410E-04  3263   0.626E-03    0.429E-02
RMM:   8    -0.232595266031E+04    0.14478E-04   -0.44738E-05  3008   0.378E-03    0.236E-02
RMM:   9    -0.232595265827E+04    0.20404E-05   -0.22995E-05  3031   0.286E-03
  15 F= -.23473487E+04 E0= -.23473487E+04  d E =-.299131E-05  mag=     5.0000
       N       E                     dE             d eps       ncg     rms          rms(c)
DAV:   1    -0.232595772218E+04   -0.50619E-02   -0.10282E+01  4600   0.155E+00    0.439E-01
RMM:   2    -0.232596004548E+04   -0.23233E-02   -0.48133E-02  4484   0.111E-01    0.304E-01
RMM:   3    -0.232596256378E+04   -0.25183E-02   -0.61553E-03  4795   0.525E-02    0.669E-01
RMM:   4    -0.232595890170E+04    0.36621E-02   -0.33309E-03  5020   0.269E-02    0.124E-01
RMM:   5    -0.232595908014E+04   -0.17845E-03   -0.90755E-04  4085   0.170E-02    0.155E-01
RMM:   6    -0.232595882938E+04    0.25076E-03   -0.25001E-04  3415   0.820E-03    0.279E-02
RMM:   7    -0.232595883215E+04   -0.27662E-05   -0.49583E-05  3117   0.438E-03
  16 F= -.23473538E+04 E0= -.23473538E+04  d E =-.255507E-05  mag=     5.0000
       N       E                     dE             d eps       ncg     rms          rms(c)
DAV:   1    -0.232599011466E+04   -0.31285E-01   -0.20457E+01  4600   0.214E+00    0.705E-01
RMM:   2    -0.232599741986E+04   -0.73052E-02   -0.12930E-01  4535   0.183E-01    0.396E-01
RMM:   3    -0.232600329611E+04   -0.58763E-02   -0.14869E-02  4858   0.922E-02    0.947E-01
RMM:   4    -0.232599581142E+04    0.74847E-02   -0.57401E-03  5576   0.355E-02    0.171E-01
RMM:   5    -0.232599622377E+04   -0.41235E-03   -0.17865E-03  4737   0.218E-02    0.215E-01
RMM:   6    -0.232599569191E+04    0.53187E-03   -0.61392E-04  3925   0.124E-02    0.445E-02
RMM:   7    -0.232599568017E+04    0.11734E-04   -0.80429E-05  3249   0.602E-03    0.217E-02
RMM:   8    -0.232599568923E+04   -0.90557E-05   -0.39775E-05  3134   0.406E-03
  17 F= -.23473915E+04 E0= -.23473915E+04  d E =-.629066E-05  mag=     5.0000
       N       E                     dE             d eps       ncg     rms          rms(c)
DAV:   1    -0.232596503532E+04    0.30645E-01   -0.10202E+01  4600   0.158E+00    0.594E-01
RMM:   2    -0.232596823919E+04   -0.32039E-02   -0.76014E-02  4495   0.125E-01    0.318E-01
RMM:   3    -0.232597058053E+04   -0.23413E-02   -0.92498E-03  5176   0.612E-02    0.652E-01
RMM:   4    -0.232596693551E+04    0.36450E-02   -0.34825E-03  5252   0.264E-02    0.194E-01
RMM:   5    -0.232596698136E+04   -0.45848E-04   -0.14152E-03  4529   0.181E-02    0.196E-01
RMM:   6    -0.232596647681E+04    0.50455E-03   -0.45730E-04  4212   0.115E-02    0.487E-02
RMM:   7    -0.232596647332E+04    0.34959E-05   -0.11046E-04  3212   0.728E-03    0.490E-02
RMM:   8    -0.232596644774E+04    0.25579E-04   -0.43124E-05  3099   0.448E-03    0.178E-02
RMM:   9    -0.232596644560E+04    0.21347E-05   -0.18613E-05  3106   0.356E-03
  18 F= -.23473617E+04 E0= -.23473617E+04  d E =-.370066E-05  mag=     5.0000
       N       E                     dE             d eps       ncg     rms          rms(c)
DAV:   1    -0.232597140908E+04   -0.49613E-02   -0.19947E+01  4650   0.206E+00    0.851E-01
RMM:   2    -0.232598011704E+04   -0.87080E-02   -0.18575E-01  4599   0.207E-01    0.459E-01
RMM:   3    -0.232598265193E+04   -0.25349E-02   -0.21030E-02  5252   0.105E-01    0.785E-01
RMM:   4    -0.232597684129E+04    0.58106E-02   -0.78710E-03  5521   0.402E-02    0.316E-01
RMM:   5    -0.232597676472E+04    0.76570E-04   -0.30296E-03  5179   0.278E-02    0.290E-01
RMM:   6    -0.232597574314E+04    0.10216E-02   -0.83147E-04  4729   0.144E-02    0.716E-02
RMM:   7    -0.232597575108E+04   -0.79465E-05   -0.22420E-04  3424   0.822E-03    0.781E-02
RMM:   8    -0.232597569639E+04    0.54690E-04   -0.91642E-05  3272   0.609E-03    0.229E-02
RMM:   9    -0.232597570201E+04   -0.56169E-05   -0.35071E-05  3190   0.461E-03
  19 F= -.23473712E+04 E0= -.23473712E+04  d E =-.446015E-05  mag=     5.0000
       N       E                     dE             d eps       ncg     rms          rms(c)
DAV:   1    -0.232595740077E+04    0.18296E-01   -0.53863E+00  4800   0.116E+00    0.558E-01
RMM:   2    -0.232596051598E+04   -0.31152E-02   -0.74056E-02  4480   0.115E-01    0.288E-01
RMM:   3    -0.232596018920E+04    0.32678E-03   -0.68270E-03  5055   0.591E-02    0.336E-01
RMM:   4    -0.232595959071E+04    0.59849E-03   -0.26601E-03  5198   0.236E-02    0.267E-01
RMM:   5    -0.232595934837E+04    0.24234E-03   -0.10931E-03  4086   0.142E-02    0.190E-01
RMM:   6    -0.232595890463E+04    0.44373E-03   -0.46523E-04  3930   0.110E-02    0.363E-02
RMM:   7    -0.232595888471E+04    0.19925E-04   -0.47240E-05  3220   0.500E-03    0.204E-02
RMM:   8    -0.232595889015E+04   -0.54424E-05   -0.28578E-05  3014   0.366E-03
  20 F= -.23473540E+04 E0= -.23473540E+04  d E =-.400152E-05  mag=     5.0000
       N       E                     dE             d eps       ncg     rms          rms(c)
DAV:   1    -0.232598047260E+04   -0.21588E-01   -0.10929E+00  5200   0.487E-01    0.643E-01
RMM:   2    -0.232597693496E+04    0.35376E-02   -0.42437E-02  4513   0.851E-02    0.331E-01
RMM:   3    -0.232597922694E+04   -0.22920E-02   -0.59789E-03  4564   0.569E-02    0.614E-01
RMM:   4    -0.232597636840E+04    0.28585E-02   -0.24662E-03  4806   0.212E-02    0.215E-01
RMM:   5    -0.232597683597E+04   -0.46757E-03   -0.15004E-03  4682   0.171E-02    0.253E-01
RMM:   6    -0.232597609558E+04    0.74039E-03   -0.61140E-04  4134   0.125E-02    0.349E-02
RMM:   7    -0.232597608182E+04    0.13757E-04   -0.56908E-05  3154   0.452E-03    0.145E-02
RMM:   8    -0.232597608077E+04    0.10517E-05   -0.15928E-05  2932   0.288E-03
  21 F= -.23473717E+04 E0= -.23473717E+04  d E =-.426141E-05  mag=     5.0000
       N       E                     dE             d eps       ncg     rms          rms(c)
DAV:   1    -0.232597805141E+04   -0.19696E-02   -0.52631E-01  4600   0.313E-01    0.232E-01
RMM:   2    -0.232597835107E+04   -0.29966E-03   -0.44212E-03  4254   0.318E-02    0.152E-01
RMM:   3    -0.232597908413E+04   -0.73306E-03   -0.10932E-03  4371   0.187E-02    0.294E-01
RMM:   4    -0.232597850791E+04    0.57622E-03   -0.58073E-04  3821   0.115E-02    0.111E-01
RMM:   5    -0.232597852007E+04   -0.12162E-04   -0.26769E-04  3178   0.809E-03    0.859E-02
RMM:   6    -0.232597845628E+04    0.63791E-04   -0.71356E-05  3104   0.567E-03    0.155E-02
RMM:   7    -0.232597845722E+04   -0.94170E-06   -0.12117E-05  2909   0.299E-03
  22 F= -.23473738E+04 E0= -.23473738E+04  d E =-.590508E-05  mag=     5.0000
       N       E                     dE             d eps       ncg     rms          rms(c)
DAV:   1    -0.232598093549E+04   -0.24792E-02   -0.10780E+00  4600   0.452E-01    0.402E-01
RMM:   2    -0.232598068659E+04    0.24890E-03   -0.12055E-02  4302   0.484E-02    0.209E-01
RMM:   3    -0.232598083313E+04   -0.14654E-03   -0.98801E-04  3978   0.262E-02    0.122E-01
RMM:   4    -0.232598122499E+04   -0.39186E-03   -0.95122E-04  4434   0.145E-02    0.161E-01
RMM:   5    -0.232598086718E+04    0.35781E-03   -0.27536E-04  3663   0.994E-03    0.306E-02
RMM:   6    -0.232598087346E+04   -0.62743E-05   -0.45785E-05  3042   0.430E-03
  23 F= -.23473763E+04 E0= -.23473763E+04  d E =-.293567E-05  mag=     5.0000
       N       E                     dE             d eps       ncg     rms          rms(c)
DAV:   1    -0.232596377635E+04    0.17091E-01   -0.54540E-01  4600   0.313E-01    0.257E-01
RMM:   2    -0.232596383590E+04   -0.59551E-04   -0.52043E-03  4211   0.318E-02    0.139E-01
RMM:   3    -0.232596401255E+04   -0.17665E-03   -0.52996E-04  3925   0.172E-02    0.145E-01
RMM:   4    -0.232596402212E+04   -0.95760E-05   -0.40328E-04  3569   0.931E-03    0.137E-01
RMM:   5    -0.232596392198E+04    0.10014E-03   -0.12973E-04  3235   0.710E-03    0.530E-02
RMM:   6    -0.232596389464E+04    0.27344E-04   -0.39606E-05  2981   0.467E-03    0.158E-02
RMM:   7    -0.232596389296E+04    0.16774E-05   -0.54023E-06  2831   0.221E-03
  24 F= -.23473593E+04 E0= -.23473593E+04  d E =-.466625E-05  mag=     5.0000
       N       E                     dE             d eps       ncg     rms          rms(c)
DAV:   1    -0.232599901950E+04   -0.35125E-01   -0.10859E+00  4600   0.430E-01    0.287E-01
RMM:   2    -0.232599982127E+04   -0.80176E-03   -0.53880E-03  4289   0.361E-02    0.187E-01
RMM:   3    -0.232600111891E+04   -0.12976E-02   -0.18538E-03  5020   0.244E-02    0.354E-01
RMM:   4    -0.232600018372E+04    0.93519E-03   -0.95033E-04  4494   0.145E-02    0.130E-01
RMM:   5    -0.232600010760E+04    0.76120E-04   -0.32355E-04  3380   0.947E-03    0.828E-02
RMM:   6    -0.232600003229E+04    0.75304E-04   -0.56586E-05  3076   0.535E-03    0.190E-02
RMM:   7    -0.232600003318E+04   -0.88170E-06   -0.20492E-05  2960   0.328E-03
  25 F= -.23473954E+04 E0= -.23473954E+04  d E =-.350701E-05  mag=     5.0000
