       N       E                     dE             d eps       ncg     rms          rms(c)
DAV:   1     0.127443479897E+05    0.12744E+05   -0.82964E+05  4432   0.144E+03
DAV:   2    -0.106310550503E+04   -0.13807E+05   -0.13229E+05  5352   0.330E+02
DAV:   3    -0.247017974610E+04   -0.14071E+04   -0.13941E+04  5344   0.111E+02
DAV:   4    -0.251662028604E+04   -0.46441E+02   -0.46223E+02  6704   0.302E+01
DAV:   5    -0.251747552673E+04   -0.85524E+00   -0.85387E+00  5552   0.320E+00    0.170E+02
RMM:   6    -0.147675371562E+04    0.10407E+04   -0.19398E+03  4394   0.386E+01    0.723E+01
RMM:   7    -0.164480746376E+04   -0.16805E+03   -0.28362E+02  4990   0.139E+01    0.486E+01
RMM:   8    -0.170428132467E+04   -0.59474E+02   -0.44545E+01  5167   0.709E+00    0.417E+01
RMM:   9    -0.179496682722E+04   -0.90686E+02   -0.69869E+01  4994   0.808E+00    0.340E+01
RMM:  10    -0.193303669814E+04   -0.13807E+03   -0.62784E+01  5304   0.763E+00    0.195E+01
RMM:  11    -0.203484903501E+04   -0.10181E+03   -0.44618E+01  4844   0.530E+00    0.145E+01
RMM:  12    -0.215798340468E+04   -0.12313E+03   -0.78051E+01  4507   0.655E+00    0.107E+01
RMM:  13    -0.227470186483E+04   -0.11672E+03   -0.11281E+02  4413   0.720E+00    0.669E+00
RMM:  14    -0.230110648069E+04   -0.26405E+02   -0.27688E+01  4484   0.444E+00    0.380E+00
RMM:  15    -0.230749250813E+04   -0.63860E+01   -0.83620E+00  4884   0.204E+00    0.625E+00
RMM:  16    -0.230760868209E+04   -0.11617E+00   -0.75940E-01  5366   0.817E-01    0.612E+00
RMM:  17    -0.230766243531E+04   -0.53753E-01   -0.92230E-02  5715   0.178E-01    0.609E+00
RMM:  18    -0.230745772795E+04    0.20471E+00   -0.62748E-01  4585   0.346E-01    0.320E+00
RMM:  19    -0.230916006949E+04   -0.17023E+01   -0.11045E+00  4388   0.764E-01    0.312E+00
RMM:  20    -0.230943450400E+04   -0.27443E+00   -0.35310E-01  4383   0.442E-01    0.281E+00
RMM:  21    -0.230892877027E+04    0.50573E+00   -0.81944E-01  4402   0.486E-01    0.299E+00
RMM:  22    -0.230808692818E+04    0.84184E+00   -0.38696E-01  4427   0.367E-01    0.410E+00
RMM:  23    -0.230776864002E+04    0.31829E+00   -0.91093E-02  4904   0.155E-01    0.423E+00
RMM:  24    -0.230752885901E+04    0.23978E+00   -0.23417E-02  5081   0.829E-02    0.434E+00
RMM:  25    -0.230779564063E+04   -0.26678E+00   -0.11146E-02  4711   0.463E-02    0.416E+00
RMM:  26    -0.230977575041E+04   -0.19801E+01   -0.74387E-01  4783   0.357E-01    0.251E+00
RMM:  27    -0.231020796750E+04   -0.43222E+00   -0.23403E-01  4700   0.247E-01    0.207E+00
RMM:  28    -0.231077857001E+04   -0.57060E+00   -0.32466E-01  4876   0.242E-01    0.169E+00
RMM:  29    -0.231116953742E+04   -0.39097E+00   -0.23104E-01  4764   0.210E-01    0.142E+00
RMM:  30    -0.231144602333E+04   -0.27649E+00   -0.22127E-01  4834   0.160E-01    0.130E+00
RMM:  31    -0.231141504564E+04    0.30978E-01   -0.23093E-02  5001   0.733E-02    0.135E+00
RMM:  32    -0.231140463932E+04    0.10406E-01   -0.58670E-03  4379   0.221E-02    0.136E+00
RMM:  33    -0.231147333421E+04   -0.68695E-01   -0.16460E-02  4703   0.525E-02    0.149E+00
RMM:  34    -0.231157129978E+04   -0.97966E-01   -0.21899E-01  4597   0.153E-01    0.135E+00
RMM:  35    -0.231168473151E+04   -0.11343E+00   -0.29428E-01  4443   0.188E-01    0.154E+00
RMM:  36    -0.231183623154E+04   -0.15150E+00   -0.15095E-01  4881   0.112E-01    0.193E+00
RMM:  37    -0.231166289800E+04    0.17333E+00   -0.99420E-02  4889   0.834E-02    0.149E+00
RMM:  38    -0.231153020853E+04    0.13269E+00   -0.92452E-02  4723   0.116E-01    0.134E+00
RMM:  39    -0.231107789749E+04    0.45231E+00   -0.27921E-01  4624   0.203E-01    0.151E+00
RMM:  40    -0.231094662732E+04    0.13127E+00   -0.62652E-02  4571   0.105E-01    0.171E+00
RMM:  41    -0.231080563133E+04    0.14100E+00   -0.36461E-02  4607   0.776E-02    0.190E+00
RMM:  42    -0.231081273873E+04   -0.71074E-02   -0.33935E-03  4251   0.287E-02    0.189E+00
RMM:  43    -0.231073789841E+04    0.74840E-01   -0.32791E-03  4062   0.218E-02    0.194E+00
RMM:  44    -0.231091022452E+04   -0.17233E+00   -0.13358E-02  4483   0.406E-02    0.180E+00
RMM:  45    -0.231151200378E+04   -0.60178E+00   -0.29093E-01  4826   0.180E-01    0.120E+00
RMM:  46    -0.231205537964E+04   -0.54338E+00   -0.16129E+00  4883   0.243E-01    0.262E+00
RMM:  47    -0.231211177356E+04   -0.56394E-01   -0.13781E-01  4825   0.123E-01    0.379E+00
RMM:  48    -0.231211357409E+04   -0.18005E-02   -0.37712E-02  4594   0.332E-02    0.386E+00
RMM:  49    -0.231211310432E+04    0.46977E-03   -0.27984E-03  3618   0.137E-02    0.389E+00
RMM:  50    -0.231211335758E+04   -0.25326E-03   -0.54741E-04  3491   0.729E-03    0.394E+00
RMM:  51    -0.231210667340E+04    0.66842E-02   -0.21315E-03  4196   0.179E-02    0.410E+00
RMM:  52    -0.231211053495E+04   -0.38615E-02   -0.47333E-04  3095   0.939E-03    0.410E+00
RMM:  53    -0.231212079259E+04   -0.10258E-01   -0.22047E-03  4569   0.200E-02    0.415E+00
RMM:  54    -0.231213911968E+04   -0.18327E-01   -0.56833E-03  4667   0.309E-02    0.383E+00
RMM:  55    -0.231217908094E+04   -0.39961E-01   -0.90957E-03  4591   0.480E-02    0.356E+00
RMM:  56    -0.231218317351E+04   -0.40926E-02   -0.89408E-03  4939   0.459E-02    0.395E+00
RMM:  57    -0.231218305597E+04    0.11754E-03   -0.73611E-04  4138   0.163E-02    0.396E+00
RMM:  58    -0.231218334283E+04   -0.28686E-03   -0.46633E-04  3881   0.999E-03    0.389E+00
RMM:  59    -0.231218419309E+04   -0.85026E-03   -0.92943E-04  4332   0.138E-02    0.380E+00
RMM:  60    -0.231218408874E+04    0.10434E-03   -0.14416E-03  4251   0.154E-02    0.391E+00
RMM:  61    -0.231217912176E+04    0.49670E-02   -0.39121E-03  4624   0.338E-02    0.401E+00
RMM:  62    -0.231216686334E+04    0.12258E-01   -0.96334E-03  4519   0.432E-02    0.374E+00
RMM:  63    -0.231214742835E+04    0.19435E-01   -0.14375E-02  4829   0.388E-02    0.347E+00
RMM:  64    -0.231207144101E+04    0.75987E-01   -0.71284E-02  4516   0.612E-02    0.297E+00
RMM:  65    -0.231207150389E+04   -0.62874E-04   -0.26409E-03  3728   0.183E-02    0.310E+00
RMM:  66    -0.231210403955E+04   -0.32536E-01   -0.24059E-02  4034   0.314E-02    0.332E+00
RMM:  67    -0.231209386423E+04    0.10175E-01   -0.12744E-03  3318   0.121E-02    0.327E+00
RMM:  68    -0.231208384445E+04    0.10020E-01   -0.23046E-03  3511   0.133E-02    0.321E+00
RMM:  69    -0.231203483676E+04    0.49008E-01   -0.41557E-02  4463   0.504E-02    0.283E+00
RMM:  70    -0.231203032886E+04    0.45079E-02   -0.58296E-03  3533   0.228E-02    0.278E+00
RMM:  71    -0.231193992902E+04    0.90400E-01   -0.88735E-02  4391   0.701E-02    0.218E+00
RMM:  72    -0.231196823095E+04   -0.28302E-01   -0.59286E-03  4276   0.312E-02    0.221E+00
RMM:  73    -0.231205836311E+04   -0.90132E-01   -0.86359E-02  4676   0.819E-02    0.226E+00
RMM:  74    -0.231204768891E+04    0.10674E-01   -0.12791E-02  4310   0.432E-02    0.212E+00
RMM:  75    -0.231199009577E+04    0.57593E-01   -0.32758E-02  4122   0.500E-02    0.180E+00
RMM:  76    -0.231198054236E+04    0.95534E-02   -0.89219E-03  3743   0.336E-02    0.177E+00
RMM:  77    -0.231196813348E+04    0.12409E-01   -0.92063E-03  4069   0.365E-02    0.170E+00
RMM:  78    -0.231197200271E+04   -0.38692E-02   -0.16268E-02  4390   0.516E-02    0.160E+00
RMM:  79    -0.231194942041E+04    0.22582E-01   -0.72378E-03  4042   0.335E-02    0.155E+00
RMM:  80    -0.231189351538E+04    0.55905E-01   -0.15308E-02  4354   0.453E-02    0.149E+00
RMM:  81    -0.231183925057E+04    0.54265E-01   -0.10491E-02  4161   0.377E-02    0.146E+00
RMM:  82    -0.231177977834E+04    0.59472E-01   -0.98905E-03  4344   0.333E-02    0.146E+00
RMM:  83    -0.231176222525E+04    0.17553E-01   -0.17986E-03  3422   0.165E-02    0.147E+00
RMM:  84    -0.231177544950E+04   -0.13224E-01   -0.41528E-04  3096   0.700E-03    0.147E+00
RMM:  85    -0.231180032961E+04   -0.24880E-01   -0.15385E-03  3360   0.119E-02    0.146E+00
RMM:  86    -0.231097842053E+04    0.82191E+00   -0.61046E-01  4803   0.243E-01    0.178E+00
RMM:  87    -0.231099767267E+04   -0.19252E-01   -0.16383E-02  4914   0.548E-02    0.182E+00
RMM:  88    -0.231102472784E+04   -0.27055E-01   -0.17224E-03  4148   0.146E-02    0.177E+00
RMM:  89    -0.231106345107E+04   -0.38723E-01   -0.25369E-03  4055   0.185E-02    0.169E+00
RMM:  90    -0.231112352753E+04   -0.60076E-01   -0.87799E-03  4623   0.318E-02    0.157E+00
RMM:  91    -0.231108406834E+04    0.39459E-01   -0.76079E-03  4361   0.360E-02    0.165E+00
RMM:  92    -0.231111874023E+04   -0.34672E-01   -0.39368E-03  4103   0.212E-02    0.162E+00
RMM:  93    -0.231116547999E+04   -0.46740E-01   -0.22097E-03  3757   0.180E-02    0.159E+00
RMM:  94    -0.231119120354E+04   -0.25724E-01   -0.17500E-03  3417   0.142E-02    0.158E+00
RMM:  95    -0.231119766818E+04   -0.64646E-02   -0.62198E-04  3263   0.984E-03    0.158E+00
RMM:  96    -0.231118793701E+04    0.97312E-02   -0.70333E-04  3362   0.112E-02    0.160E+00
RMM:  97    -0.231114186264E+04    0.46074E-01   -0.99017E-03  4040   0.284E-02    0.163E+00
RMM:  98    -0.231107354101E+04    0.68322E-01   -0.14025E-02  4330   0.362E-02    0.171E+00
RMM:  99    -0.231093132778E+04    0.14221E+00   -0.42494E-02  4705   0.617E-02    0.184E+00
RMM: 100    -0.231082877691E+04    0.10255E+00   -0.19212E-02  4452   0.444E-02    0.194E+00
RMM: 101    -0.231084402418E+04   -0.15247E-01   -0.31979E-03  4006   0.190E-02    0.190E+00
RMM: 102    -0.231081269088E+04    0.31333E-01   -0.10159E-03  3352   0.113E-02    0.191E+00
RMM: 103    -0.231091238222E+04   -0.99691E-01   -0.49966E-03  3821   0.247E-02    0.187E+00
RMM: 104    -0.231095821609E+04   -0.45834E-01   -0.18350E-03  3592   0.170E-02    0.186E+00
RMM: 105    -0.231102958228E+04   -0.71366E-01   -0.35539E-03  3820   0.214E-02    0.184E+00
RMM: 106    -0.231154869450E+04   -0.51911E+00   -0.46962E-01  4740   0.179E-01    0.129E+00
RMM: 107    -0.231161876539E+04   -0.70071E-01   -0.39921E-02  4500   0.732E-02    0.126E+00
RMM: 108    -0.231163142613E+04   -0.12661E-01   -0.75210E-03  4536   0.208E-02    0.126E+00
RMM: 109    -0.231163536312E+04   -0.39370E-02   -0.50426E-04  3302   0.826E-03    0.126E+00
RMM: 110    -0.231163588932E+04   -0.52620E-03   -0.48578E-05  2850   0.336E-03    0.126E+00
RMM: 111    -0.231231077399E+04   -0.67488E+00   -0.19187E+00  4672   0.281E-01    0.998E-01
RMM: 112    -0.231224502300E+04    0.65751E-01   -0.12010E-01  4307   0.121E-01    0.131E+00
RMM: 113    -0.231224953483E+04   -0.45118E-02   -0.26039E-02  4470   0.392E-02    0.140E+00
RMM: 114    -0.231229047736E+04   -0.40943E-01   -0.67693E-02  4533   0.540E-02    0.143E+00
RMM: 115    -0.231231949318E+04   -0.29016E-01   -0.37618E-02  4523   0.518E-02    0.134E+00
RMM: 116    -0.231233382948E+04   -0.14336E-01   -0.15086E-02  4594   0.435E-02    0.135E+00
RMM: 117    -0.231234098036E+04   -0.71509E-02   -0.84035E-03  4697   0.352E-02    0.108E+00
RMM: 118    -0.231234283966E+04   -0.18593E-02   -0.10263E-03  4017   0.154E-02    0.110E+00
RMM: 119    -0.231234948828E+04   -0.66486E-02   -0.21727E-03  4124   0.181E-02    0.936E-01
RMM: 120    -0.231235372111E+04   -0.42328E-02   -0.28645E-03  4313   0.213E-02    0.771E-01
RMM: 121    -0.231235763292E+04   -0.39118E-02   -0.16471E-03  4014   0.165E-02    0.679E-01
RMM: 122    -0.231235895255E+04   -0.13196E-02   -0.39133E-03  4702   0.235E-02    0.544E-01
RMM: 123    -0.231235990791E+04   -0.95536E-03   -0.50055E-04  3750   0.128E-02    0.502E-01
RMM: 124    -0.231235991090E+04   -0.29893E-05   -0.57126E-05  2892   0.404E-03
   1 F= -.23327907E+04 E0= -.23327907E+04  d E =-.233279E+04  mag=     2.9832
