       N       E                     dE             d eps       ncg     rms          rms(c)
DAV:   1     0.121234257835E+05    0.12123E+05   -0.83334E+05  4640   0.140E+03
DAV:   2    -0.129617184618E+04   -0.13420E+05   -0.12908E+05  5120   0.318E+02
DAV:   3    -0.249211806402E+04   -0.11959E+04   -0.11866E+04  5440   0.101E+02
DAV:   4    -0.251715823357E+04   -0.25040E+02   -0.24905E+02  5680   0.175E+01
DAV:   5    -0.251784499770E+04   -0.68676E+00   -0.68561E+00  5920   0.254E+00    0.171E+02
RMM:   6    -0.147160788880E+04    0.10462E+04   -0.19080E+03  4499   0.376E+01    0.726E+01
RMM:   7    -0.164872210642E+04   -0.17711E+03   -0.26978E+02  5006   0.131E+01    0.508E+01
RMM:   8    -0.170300663953E+04   -0.54285E+02   -0.54729E+01  5067   0.739E+00    0.429E+01
RMM:   9    -0.178807636583E+04   -0.85070E+02   -0.62281E+01  4981   0.744E+00    0.341E+01
RMM:  10    -0.193830127932E+04   -0.15022E+03   -0.64373E+01  5236   0.761E+00    0.189E+01
RMM:  11    -0.204929062763E+04   -0.11099E+03   -0.52126E+01  4936   0.564E+00    0.173E+01
RMM:  12    -0.213799295961E+04   -0.88702E+02   -0.47958E+01  4639   0.527E+00    0.114E+01
RMM:  13    -0.224319019654E+04   -0.10520E+03   -0.84419E+01  4542   0.652E+00    0.865E+00
RMM:  14    -0.229635739638E+04   -0.53167E+02   -0.49474E+01  4729   0.518E+00    0.498E+00
RMM:  15    -0.230945439959E+04   -0.13097E+02   -0.16787E+01  5004   0.294E+00    0.575E+00
RMM:  16    -0.231043904354E+04   -0.98464E+00   -0.23039E+00  5902   0.868E-01    0.468E+00
RMM:  17    -0.231103665883E+04   -0.59762E+00   -0.56385E-01  5055   0.375E-01    0.435E+00
RMM:  18    -0.231305174071E+04   -0.20151E+01   -0.24006E+00  4540   0.701E-01    0.251E+00
RMM:  19    -0.231454685474E+04   -0.14951E+01   -0.95789E-01  4645   0.568E-01    0.148E+00
RMM:  20    -0.231478783616E+04   -0.24098E+00   -0.21891E-01  4765   0.360E-01    0.888E-01
RMM:  21    -0.231492951473E+04   -0.14168E+00   -0.10121E-01  4490   0.187E-01    0.436E-01
RMM:  22    -0.231499231363E+04   -0.62799E-01   -0.46136E-02  4543   0.151E-01    0.255E-01
RMM:  23    -0.231503991368E+04   -0.47600E-01   -0.23797E-02  4540   0.858E-02    0.147E-01
RMM:  24    -0.231506695451E+04   -0.27041E-01   -0.74055E-03  4540   0.671E-02    0.115E-01
RMM:  25    -0.231508724760E+04   -0.20293E-01   -0.60269E-03  4501   0.498E-02    0.663E-02
RMM:  26    -0.231509474204E+04   -0.74944E-02   -0.18669E-03  4589   0.403E-02    0.468E-02
RMM:  27    -0.231509883526E+04   -0.40932E-02   -0.12137E-03  4174   0.221E-02    0.264E-02
RMM:  28    -0.231510032261E+04   -0.14873E-02   -0.38523E-04  4055   0.208E-02    0.135E-02
RMM:  29    -0.231510087429E+04   -0.55168E-03   -0.20056E-04  3849   0.913E-03    0.891E-03
RMM:  30    -0.231510101080E+04   -0.13651E-03   -0.46359E-05  3520   0.847E-03    0.556E-03
RMM:  31    -0.231510106491E+04   -0.54109E-04   -0.20039E-05  3114   0.353E-03    0.264E-03
RMM:  32    -0.231510108233E+04   -0.17417E-04   -0.60125E-06  2910   0.303E-03    0.181E-03
RMM:  33    -0.231510109419E+04   -0.11858E-04   -0.38631E-06  2662   0.198E-03    0.111E-03
RMM:  34    -0.231510109808E+04   -0.38916E-05   -0.20842E-06  2542   0.178E-03
   1 F= -.23355830E+04 E0= -.23355830E+04  d E =-.508292E-21  mag=     3.9999
       N       E                     dE             d eps       ncg     rms          rms(c)
DAV:   1    -0.231506973194E+04    0.31362E-01   -0.21828E+00  4480   0.544E-01    0.339E-01
RMM:   2    -0.231506911416E+04    0.61778E-03   -0.79467E-03  3703   0.309E-02    0.196E-01
RMM:   3    -0.231506894276E+04    0.17140E-03   -0.30518E-03  3969   0.157E-02    0.151E-01
RMM:   4    -0.231506875174E+04    0.19102E-03   -0.30736E-04  2993   0.112E-02    0.380E-02
RMM:   5    -0.231506872724E+04    0.24496E-04   -0.41063E-05  2613   0.270E-03    0.139E-02
RMM:   6    -0.231506872306E+04    0.41878E-05   -0.18719E-05  2556   0.220E-03
   2 F= -.23355507E+04 E0= -.23355507E+04  d E =-.232608E-24  mag=     4.0000
       N       E                     dE             d eps       ncg     rms          rms(c)
DAV:   1    -0.231508820264E+04   -0.19475E-01   -0.86383E+00  4480   0.109E+00    0.665E-01
RMM:   2    -0.231508561177E+04    0.25909E-02   -0.27694E-02  3899   0.636E-02    0.392E-01
RMM:   3    -0.231508485700E+04    0.75477E-03   -0.12830E-02  4470   0.331E-02    0.287E-01
RMM:   4    -0.231508411366E+04    0.74334E-03   -0.11752E-03  3710   0.202E-02    0.948E-02
RMM:   5    -0.231508397593E+04    0.13772E-03   -0.16917E-04  3140   0.504E-03    0.283E-02
RMM:   6    -0.231508395844E+04    0.17496E-04   -0.84843E-05  2938   0.380E-03    0.132E-02
RMM:   7    -0.231508395797E+04    0.46911E-06   -0.12281E-05  2783   0.294E-03
   3 F= -.23355658E+04 E0= -.23355658E+04  d E =-.540955E-23  mag=     4.0000
       N       E                     dE             d eps       ncg     rms          rms(c)
DAV:   1    -0.231505095186E+04    0.33007E-01   -0.42401E+00  4480   0.792E-01    0.501E-01
RMM:   2    -0.231504957209E+04    0.13798E-02   -0.16840E-02  3851   0.464E-02    0.283E-01
RMM:   3    -0.231504908245E+04    0.48963E-03   -0.43870E-03  4298   0.192E-02    0.216E-01
RMM:   4    -0.231504898480E+04    0.97658E-04   -0.11202E-03  3455   0.167E-02    0.181E-01
RMM:   5    -0.231504876165E+04    0.22315E-03   -0.14927E-04  3066   0.555E-03    0.227E-02
RMM:   6    -0.231504874707E+04    0.14573E-04   -0.49034E-05  2815   0.296E-03    0.139E-02
RMM:   7    -0.231504874538E+04    0.16928E-05   -0.14160E-05  2767   0.250E-03
   4 F= -.23355308E+04 E0= -.23355308E+04  d E =-.176060E-21  mag=     4.0000
       N       E                     dE             d eps       ncg     rms          rms(c)
DAV:   1    -0.231510978681E+04   -0.61040E-01   -0.85144E+00  4480   0.107E+00    0.687E-01
RMM:   2    -0.231510690892E+04    0.28779E-02   -0.25585E-02  3951   0.623E-02    0.403E-01
RMM:   3    -0.231510800149E+04   -0.10926E-02   -0.82510E-03  4646   0.293E-02    0.618E-01
RMM:   4    -0.231510555621E+04    0.24453E-02   -0.32285E-03  4367   0.260E-02    0.172E-01
RMM:   5    -0.231510541199E+04    0.14422E-03   -0.33623E-04  3302   0.737E-03    0.333E-02
RMM:   6    -0.231510538338E+04    0.28611E-04   -0.74701E-05  2973   0.512E-03    0.202E-02
RMM:   7    -0.231510537939E+04    0.39927E-05   -0.60059E-05  3028   0.336E-03
   5 F= -.23355872E+04 E0= -.23355872E+04  d E =-.593141E-23  mag=     4.0000
       N       E                     dE             d eps       ncg     rms          rms(c)
DAV:   1    -0.231510983128E+04   -0.44479E-02   -0.43467E+00  4640   0.842E-01    0.461E-01
RMM:   2    -0.231510879834E+04    0.10329E-02   -0.14453E-02  3896   0.462E-02    0.275E-01
RMM:   3    -0.231510885113E+04   -0.52793E-04   -0.45146E-03  4358   0.206E-02    0.343E-01
RMM:   4    -0.231510812597E+04    0.72516E-03   -0.12515E-03  3603   0.164E-02    0.134E-01
RMM:   5    -0.231510801568E+04    0.11029E-03   -0.14276E-04  3163   0.524E-03    0.215E-02
RMM:   6    -0.231510800228E+04    0.13391E-04   -0.41920E-05  2776   0.291E-03    0.126E-02
RMM:   7    -0.231510800129E+04    0.99475E-06   -0.16800E-05  2788   0.241E-03
   6 F= -.23355899E+04 E0= -.23355899E+04  d E =-.585757E-22  mag=     4.0000
       N       E                     dE             d eps       ncg     rms          rms(c)
DAV:   1    -0.231506019251E+04    0.47810E-01   -0.79068E+00  4640   0.111E+00    0.657E-01
RMM:   2    -0.231505909050E+04    0.11020E-02   -0.28244E-02  3926   0.619E-02    0.377E-01
RMM:   3    -0.231505833564E+04    0.75486E-03   -0.70205E-03  4318   0.256E-02    0.123E-01
RMM:   4    -0.231505840430E+04   -0.68661E-04   -0.90744E-04  3447   0.183E-02    0.173E-01
RMM:   5    -0.231505817283E+04    0.23147E-03   -0.18400E-04  3056   0.591E-03    0.356E-02
RMM:   6    -0.231505815806E+04    0.14770E-04   -0.75362E-05  3082   0.397E-03    0.116E-02
RMM:   7    -0.231505815658E+04    0.14727E-05   -0.85960E-06  2764   0.301E-03
   7 F= -.23355401E+04 E0= -.23355401E+04  d E =-.139798E-20  mag=     4.0000
       N       E                     dE             d eps       ncg     rms          rms(c)
DAV:   1    -0.231509475112E+04   -0.36593E-01   -0.73369E+00  4480   0.995E-01    0.457E-01
RMM:   2    -0.231509759323E+04   -0.28421E-02   -0.49341E-02  4059   0.688E-02    0.309E-01
RMM:   3    -0.231509921950E+04   -0.16263E-02   -0.51608E-03  4895   0.260E-02    0.643E-01
RMM:   4    -0.231509643014E+04    0.27894E-02   -0.23139E-03  4113   0.173E-02    0.853E-02
RMM:   5    -0.231509642930E+04    0.84720E-06   -0.45419E-04  3321   0.891E-03    0.321E-02
RMM:   6    -0.231509642187E+04    0.74240E-05   -0.44960E-05  2951   0.456E-03
   8 F= -.23355782E+04 E0= -.23355782E+04  d E =-.178631E-22  mag=     4.0000
       N       E                     dE             d eps       ncg     rms          rms(c)
DAV:   1    -0.231509030677E+04    0.61225E-02   -0.20227E+01  4480   0.157E+00    0.639E-01
RMM:   2    -0.231509664491E+04   -0.63381E-02   -0.10979E-01  4318   0.101E-01    0.465E-01
RMM:   3    -0.231509853261E+04   -0.18877E-02   -0.10307E-02  5065   0.418E-02    0.831E-01
RMM:   4    -0.231509398077E+04    0.45518E-02   -0.35642E-03  4575   0.211E-02    0.151E-01
RMM:   5    -0.231509396459E+04    0.16180E-04   -0.12111E-03  3680   0.121E-02    0.541E-02
RMM:   6    -0.231509394517E+04    0.19417E-04   -0.92665E-05  3029   0.667E-03    0.260E-02
RMM:   7    -0.231509394032E+04    0.48467E-05   -0.33707E-05  2951   0.296E-03
   9 F= -.23355761E+04 E0= -.23355761E+04  d E =-.116644E-19  mag=     4.0000
       N       E                     dE             d eps       ncg     rms          rms(c)
DAV:   1    -0.231510321974E+04   -0.92746E-02   -0.10093E+01  4480   0.118E+00    0.610E-01
RMM:   2    -0.231510493658E+04   -0.17168E-02   -0.70910E-02  4399   0.837E-02    0.366E-01
RMM:   3    -0.231510716961E+04   -0.22330E-02   -0.80702E-03  4687   0.412E-02    0.737E-01
RMM:   4    -0.231510349366E+04    0.36759E-02   -0.24805E-03  4303   0.181E-02    0.139E-01
RMM:   5    -0.231510346877E+04    0.24895E-04   -0.65336E-04  3451   0.953E-03    0.541E-02
RMM:   6    -0.231510345391E+04    0.14854E-04   -0.72734E-05  3044   0.586E-03    0.229E-02
RMM:   7    -0.231510345117E+04    0.27456E-05   -0.13243E-05  2864   0.255E-03
  10 F= -.23355847E+04 E0= -.23355847E+04  d E =-.100377E-20  mag=     4.0000
       N       E                     dE             d eps       ncg     rms          rms(c)
DAV:   1    -0.231508777591E+04    0.15678E-01   -0.20365E+01  4480   0.158E+00    0.877E-01
RMM:   2    -0.231509084572E+04   -0.30698E-02   -0.13227E-01  4291   0.108E-01    0.393E-01
RMM:   3    -0.231508867426E+04    0.21715E-02   -0.67249E-03  4672   0.435E-02    0.453E-01
RMM:   4    -0.231508832874E+04    0.34552E-03   -0.32946E-03  4714   0.188E-02    0.392E-01
RMM:   5    -0.231508749563E+04    0.83311E-03   -0.10543E-03  3892   0.154E-02    0.689E-02
RMM:   6    -0.231508748986E+04    0.57681E-05   -0.20294E-04  3161   0.868E-03    0.269E-02
RMM:   7    -0.231508748797E+04    0.18904E-05   -0.38764E-05  3005   0.367E-03
  11 F= -.23355701E+04 E0= -.23355701E+04  d E =-.228027E-21  mag=     4.0000
       N       E                     dE             d eps       ncg     rms          rms(c)
DAV:   1    -0.231509680046E+04   -0.93106E-02   -0.10288E+01  4480   0.112E+00    0.489E-01
RMM:   2    -0.231509805664E+04   -0.12562E-02   -0.36762E-02  4145   0.620E-02    0.311E-01
RMM:   3    -0.231510016288E+04   -0.21062E-02   -0.57238E-03  5184   0.259E-02    0.684E-01
RMM:   4    -0.231509696082E+04    0.32021E-02   -0.21865E-03  4545   0.166E-02    0.829E-02
RMM:   5    -0.231509693316E+04    0.27657E-04   -0.36802E-04  3445   0.945E-03    0.320E-02
RMM:   6    -0.231509692630E+04    0.68614E-05   -0.54068E-05  3023   0.502E-03
  12 F= -.23355791E+04 E0= -.23355791E+04  d E =-.251255E-18  mag=     4.0000
       N       E                     dE             d eps       ncg     rms          rms(c)
DAV:   1    -0.231508233632E+04    0.14597E-01   -0.19698E+01  4480   0.150E+00    0.833E-01
RMM:   2    -0.231508693355E+04   -0.45972E-02   -0.12737E-01  4521   0.109E-01    0.658E-01
RMM:   3    -0.231508969809E+04   -0.27645E-02   -0.16429E-02  5553   0.458E-02    0.107E+00
RMM:   4    -0.231508192080E+04    0.77773E-02   -0.61376E-03  5154   0.282E-02    0.196E-01
RMM:   5    -0.231508182943E+04    0.91374E-04   -0.14155E-03  4148   0.146E-02    0.613E-02
RMM:   6    -0.231508177153E+04    0.57900E-04   -0.17895E-04  3203   0.849E-03    0.348E-02
RMM:   7    -0.231508174956E+04    0.21969E-04   -0.93046E-05  3172   0.504E-03    0.139E-02
RMM:   8    -0.231508174319E+04    0.63641E-05   -0.16877E-05  2986   0.421E-03
  13 F= -.23355634E+04 E0= -.23355634E+04  d E =-.787682E-24  mag=     4.0000
       N       E                     dE             d eps       ncg     rms          rms(c)
DAV:   1    -0.231509403395E+04   -0.12284E-01   -0.52647E+00  4480   0.788E-01    0.444E-01
RMM:   2    -0.231509650948E+04   -0.24755E-02   -0.45576E-02  4201   0.643E-02    0.353E-01
RMM:   3    -0.231509745127E+04   -0.94178E-03   -0.48198E-03  4934   0.244E-02    0.576E-01
RMM:   4    -0.231509522759E+04    0.22237E-02   -0.17647E-03  4376   0.156E-02    0.103E-01
RMM:   5    -0.231509522563E+04    0.19624E-05   -0.39499E-04  3453   0.867E-03    0.358E-02
RMM:   6    -0.231509521153E+04    0.14100E-04   -0.50593E-05  2995   0.507E-03    0.168E-02
RMM:   7    -0.231509520669E+04    0.48383E-05   -0.21275E-05  2911   0.294E-03
  14 F= -.23355770E+04 E0= -.23355770E+04  d E =-.883555E-21  mag=     4.0000
       N       E                     dE             d eps       ncg     rms          rms(c)
DAV:   1    -0.231510351420E+04   -0.83027E-02   -0.12489E+00  4800   0.377E-01    0.356E-01
RMM:   2    -0.231510343387E+04    0.80334E-04   -0.45303E-03  3699   0.230E-02    0.212E-01
RMM:   3    -0.231510374978E+04   -0.31592E-03   -0.14884E-03  3726   0.126E-02    0.227E-01
RMM:   4    -0.231510339938E+04    0.35040E-03   -0.36297E-04  2920   0.902E-03    0.385E-02
RMM:   5    -0.231510338559E+04    0.13788E-04   -0.36278E-05  2661   0.272E-03    0.125E-02
RMM:   6    -0.231510338307E+04    0.25220E-05   -0.13827E-05  2558   0.192E-03
  15 F= -.23355854E+04 E0= -.23355854E+04  d E =-.941817E-21  mag=     4.0000
       N       E                     dE             d eps       ncg     rms          rms(c)
DAV:   1    -0.231510670290E+04   -0.33173E-02   -0.63283E-01  5120   0.278E-01    0.376E-01
RMM:   2    -0.231510484576E+04    0.18571E-02   -0.63696E-03  3696   0.263E-02    0.197E-01
RMM:   3    -0.231510483276E+04    0.12994E-04   -0.26774E-03  4066   0.154E-02    0.198E-01
RMM:   4    -0.231510456370E+04    0.26906E-03   -0.37997E-04  3175   0.824E-03    0.841E-02
RMM:   5    -0.231510449881E+04    0.64895E-04   -0.26230E-04  2917   0.498E-03    0.210E-02
RMM:   6    -0.231510449378E+04    0.50273E-05   -0.23678E-05  2542   0.342E-03
  16 F= -.23355869E+04 E0= -.23355869E+04  d E =-.720671E-21  mag=     4.0000
       N       E                     dE             d eps       ncg     rms          rms(c)
DAV:   1    -0.231507481173E+04    0.29687E-01   -0.13316E+00  5120   0.421E-01    0.652E-01
RMM:   2    -0.231506810488E+04    0.67068E-02   -0.19937E-02  3834   0.424E-02    0.330E-01
RMM:   3    -0.231506742080E+04    0.68408E-03   -0.68744E-03  4675   0.248E-02    0.230E-01
RMM:   4    -0.231506725219E+04    0.16861E-03   -0.10948E-03  3804   0.125E-02    0.201E-01
RMM:   5    -0.231506691665E+04    0.33554E-03   -0.60100E-04  3324   0.827E-03    0.239E-02
RMM:   6    -0.231506690842E+04    0.82353E-05   -0.45396E-05  2725   0.555E-03
  17 F= -.23355483E+04 E0= -.23355483E+04  d E =-.124996E-20  mag=     4.0000
       N       E                     dE             d eps       ncg     rms          rms(c)
DAV:   1    -0.231511833777E+04   -0.51421E-01   -0.65791E-01  4880   0.276E-01    0.415E-01
RMM:   2    -0.231511592210E+04    0.24157E-02   -0.78060E-03  3704   0.261E-02    0.214E-01
RMM:   3    -0.231511558417E+04    0.33793E-03   -0.25824E-03  3851   0.141E-02    0.645E-02
RMM:   4    -0.231511549357E+04    0.90606E-04   -0.13653E-04  3064   0.562E-03    0.181E-02
RMM:   5    -0.231511549723E+04   -0.36628E-05   -0.35129E-05  2586   0.309E-03
  18 F= -.23355977E+04 E0= -.23355977E+04  d E =-.136871E-20  mag=     4.0000
       N       E                     dE             d eps       ncg     rms          rms(c)
DAV:   1    -0.231508330985E+04    0.32184E-01   -0.12130E+00  4720   0.376E-01    0.390E-01
RMM:   2    -0.231508265574E+04    0.65411E-03   -0.45640E-03  3692   0.231E-02    0.227E-01
RMM:   3    -0.231508306420E+04   -0.40846E-03   -0.18058E-03  4009   0.141E-02    0.312E-01
RMM:   4    -0.231508244950E+04    0.61471E-03   -0.76217E-04  3254   0.115E-02    0.961E-02
RMM:   5    -0.231508239656E+04    0.52935E-04   -0.83897E-05  2887   0.437E-03    0.161E-02
RMM:   6    -0.231508239412E+04    0.24422E-05   -0.14611E-05  2590   0.241E-03
  19 F= -.23355640E+04 E0= -.23355640E+04  d E =-.106557E-20  mag=     4.0000
       N       E                     dE             d eps       ncg     rms          rms(c)
DAV:   1    -0.231507891357E+04    0.34830E-02   -0.62751E-01  5040   0.297E-01    0.321E-01
RMM:   2    -0.231507836079E+04    0.55278E-03   -0.40027E-03  3606   0.227E-02    0.186E-01
RMM:   3    -0.231507830313E+04    0.57667E-04   -0.13575E-03  3998   0.113E-02    0.133E-01
RMM:   4    -0.231507819936E+04    0.10377E-03   -0.24752E-04  2773   0.778E-03    0.718E-02
RMM:   5    -0.231507814901E+04    0.50352E-04   -0.72155E-05  2630   0.324E-03    0.141E-02
RMM:   6    -0.231507814840E+04    0.60363E-06   -0.30977E-05  2496   0.235E-03
  20 F= -.23355596E+04 E0= -.23355596E+04  d E =-.134966E-20  mag=     4.0000
       N       E                     dE             d eps       ncg     rms          rms(c)
DAV:   1    -0.231511091085E+04   -0.32762E-01   -0.13148E+00  4960   0.402E-01    0.535E-01
RMM:   2    -0.231510739338E+04    0.35175E-02   -0.12425E-02  3737   0.354E-02    0.284E-01
RMM:   3    -0.231510708057E+04    0.31281E-03   -0.45993E-03  4317   0.194E-02    0.166E-01
RMM:   4    -0.231510704032E+04    0.40249E-04   -0.69922E-04  3454   0.111E-02    0.183E-01
RMM:   5    -0.231510678643E+04    0.25389E-03   -0.38711E-04  3138   0.680E-03    0.189E-02
RMM:   6    -0.231510678058E+04    0.58442E-05   -0.26830E-05  2653   0.391E-03
  21 F= -.23355892E+04 E0= -.23355892E+04  d E =-.156990E-20  mag=     4.0000
       N       E                     dE             d eps       ncg     rms          rms(c)
DAV:   1    -0.231510290695E+04    0.38795E-02   -0.65035E-01  4960   0.293E-01    0.356E-01
RMM:   2    -0.231510150426E+04    0.14027E-02   -0.54859E-03  3585   0.233E-02    0.193E-01
RMM:   3    -0.231510134049E+04    0.16378E-03   -0.19427E-03  3912   0.136E-02    0.104E-01
RMM:   4    -0.231510136770E+04   -0.27219E-04   -0.31785E-04  3025   0.727E-03    0.137E-01
RMM:   5    -0.231510122870E+04    0.13900E-03   -0.13382E-04  2771   0.462E-03    0.129E-02
RMM:   6    -0.231510122842E+04    0.27989E-06   -0.16225E-05  2485   0.272E-03
  22 F= -.23355832E+04 E0= -.23355832E+04  d E =-.124876E-20  mag=     4.0000
       N       E                     dE             d eps       ncg     rms          rms(c)
DAV:   1    -0.231509671727E+04    0.45114E-02   -0.12693E+00  4560   0.399E-01    0.389E-01
RMM:   2    -0.231509624585E+04    0.47142E-03   -0.50500E-03  3533   0.235E-02    0.226E-01
RMM:   3    -0.231509612856E+04    0.11729E-03   -0.14747E-03  3823   0.117E-02    0.515E-02
RMM:   4    -0.231509619091E+04   -0.62352E-04   -0.20520E-04  2818   0.834E-03    0.113E-01
RMM:   5    -0.231509609910E+04    0.91806E-04   -0.68246E-05  2623   0.345E-03    0.103E-02
RMM:   6    -0.231509609796E+04    0.11488E-05   -0.14520E-05  2563   0.201E-03
  23 F= -.23355780E+04 E0= -.23355780E+04  d E =-.232120E-20  mag=     4.0000
       N       E                     dE             d eps       ncg     rms          rms(c)
DAV:   1    -0.231506345587E+04    0.32643E-01   -0.67087E-01  4480   0.295E-01    0.379E-01
RMM:   2    -0.231506178693E+04    0.16689E-02   -0.61421E-03  3604   0.239E-02    0.204E-01
RMM:   3    -0.231506184554E+04   -0.58612E-04   -0.25553E-03  4182   0.159E-02    0.225E-01
RMM:   4    -0.231506151026E+04    0.33528E-03   -0.45077E-04  3194   0.884E-03    0.713E-02
RMM:   5    -0.231506146332E+04    0.46939E-04   -0.30777E-04  2948   0.513E-03    0.214E-02
RMM:   6    -0.231506145552E+04    0.78028E-05   -0.21966E-05  2460   0.372E-03
  24 F= -.23355432E+04 E0= -.23355432E+04  d E =-.230366E-20  mag=     4.0000
       N       E                     dE             d eps       ncg     rms          rms(c)
DAV:   1    -0.231512704120E+04   -0.65578E-01   -0.13268E+00  4800   0.404E-01    0.572E-01
RMM:   2    -0.231512253390E+04    0.45073E-02   -0.14805E-02  3732   0.387E-02    0.300E-01
RMM:   3    -0.231512217780E+04    0.35610E-03   -0.59025E-03  4559   0.275E-02    0.252E-01
RMM:   4    -0.231512187472E+04    0.30308E-03   -0.10607E-03  3688   0.115E-02    0.146E-01
RMM:   5    -0.231512166865E+04    0.20606E-03   -0.63918E-04  3306   0.773E-03    0.256E-02
RMM:   6    -0.231512165781E+04    0.10840E-04   -0.42130E-05  2645   0.475E-03    0.125E-02
RMM:   7    -0.231512165625E+04    0.15655E-05   -0.21380E-05  2397   0.173E-03
  25 F= -.23356037E+04 E0= -.23356037E+04  d E =-.138204E-20  mag=     4.0000
       N       E                     dE             d eps       ncg     rms          rms(c)
DAV:   1    -0.231510456322E+04    0.17095E-01   -0.64339E-01  5040   0.293E-01    0.376E-01
RMM:   2    -0.231510346539E+04    0.10978E-02   -0.42755E-03  3510   0.247E-02    0.216E-01
RMM:   3    -0.231510299529E+04    0.47010E-03   -0.16101E-03  3372   0.121E-02    0.209E-02
RMM:   4    -0.231510297593E+04    0.19364E-04   -0.97329E-05  2564   0.827E-03    0.183E-02
RMM:   5    -0.231510297701E+04   -0.10812E-05   -0.20046E-05  2313   0.179E-03
  26 F= -.23355851E+04 E0= -.23355851E+04  d E =-.121755E-20  mag=     4.0000
       N       E                     dE             d eps       ncg     rms          rms(c)
DAV:   1    -0.231508082772E+04    0.22148E-01   -0.13287E+00  5120   0.389E-01    0.598E-01
RMM:   2    -0.231507565074E+04    0.51770E-02   -0.16431E-02  3780   0.383E-02    0.315E-01
RMM:   3    -0.231507521102E+04    0.43972E-03   -0.75626E-03  4520   0.261E-02    0.257E-01
RMM:   4    -0.231507475201E+04    0.45901E-03   -0.85068E-04  3725   0.118E-02    0.136E-01
RMM:   5    -0.231507457214E+04    0.17986E-03   -0.89299E-04  3340   0.844E-03    0.366E-02
RMM:   6    -0.231507454906E+04    0.23087E-04   -0.64811E-05  2695   0.624E-03    0.146E-02
RMM:   7    -0.231507454829E+04    0.76932E-06   -0.48643E-05  2537   0.210E-03
  27 F= -.23355563E+04 E0= -.23355563E+04  d E =-.303817E-20  mag=     4.0000
       N       E                     dE             d eps       ncg     rms          rms(c)
DAV:   1    -0.231508957657E+04   -0.15028E-01   -0.64580E-01  4800   0.246E-01    0.307E-01
RMM:   2    -0.231508891302E+04    0.66355E-03   -0.34890E-03  3520   0.179E-02    0.172E-01
RMM:   3    -0.231508879875E+04    0.11428E-03   -0.14211E-03  3593   0.104E-02    0.422E-02
RMM:   4    -0.231508881079E+04   -0.12042E-04   -0.14460E-04  2718   0.674E-03    0.893E-02
RMM:   5    -0.231508875623E+04    0.54554E-04   -0.65231E-05  2472   0.316E-03    0.176E-02
RMM:   6    -0.231508875410E+04    0.21307E-05   -0.77568E-06  2293   0.177E-03
  28 F= -.23355706E+04 E0= -.23355706E+04  d E =-.156107E-20  mag=     4.0000
       N       E                     dE             d eps       ncg     rms          rms(c)
DAV:   1    -0.231510686639E+04   -0.18110E-01   -0.12617E+00  4960   0.354E-01    0.414E-01
RMM:   2    -0.231510570037E+04    0.11660E-02   -0.62227E-03  3638   0.244E-02    0.233E-01
RMM:   3    -0.231510595477E+04   -0.25440E-03   -0.22020E-03  4051   0.146E-02    0.260E-01
RMM:   4    -0.231510552297E+04    0.43180E-03   -0.56225E-04  3110   0.111E-02    0.744E-02
RMM:   5    -0.231510547903E+04    0.43942E-04   -0.11654E-04  2866   0.418E-03    0.179E-02
RMM:   6    -0.231510547829E+04    0.73796E-06   -0.12749E-05  2515   0.285E-03
  29 F= -.23355875E+04 E0= -.23355875E+04  d E =-.370831E-20  mag=     4.0000
       N       E                     dE             d eps       ncg     rms          rms(c)
DAV:   1    -0.231510087368E+04    0.46054E-02   -0.63592E-01  4720   0.250E-01    0.305E-01
RMM:   2    -0.231510012790E+04    0.74578E-03   -0.34389E-03  3553   0.179E-02    0.169E-01
RMM:   3    -0.231510002888E+04    0.99020E-04   -0.12168E-03  3533   0.104E-02    0.609E-02
RMM:   4    -0.231510007837E+04   -0.49491E-04   -0.18811E-04  2715   0.641E-03    0.113E-01
RMM:   5    -0.231509998462E+04    0.93747E-04   -0.10980E-04  2657   0.392E-03    0.103E-02
RMM:   6    -0.231509998405E+04    0.56965E-06   -0.68210E-06  2328   0.202E-03
  30 F= -.23355820E+04 E0= -.23355820E+04  d E =-.511292E-20  mag=     4.0000
       N       E                     dE             d eps       ncg     rms          rms(c)
DAV:   1    -0.231509796108E+04    0.20235E-02   -0.12290E+00  4880   0.355E-01    0.407E-01
RMM:   2    -0.231509695791E+04    0.10032E-02   -0.56405E-03  3649   0.239E-02    0.231E-01
RMM:   3    -0.231509711739E+04   -0.15947E-03   -0.21320E-03  4051   0.155E-02    0.248E-01
RMM:   4    -0.231509671059E+04    0.40680E-03   -0.48495E-04  3110   0.106E-02    0.533E-02
RMM:   5    -0.231509668022E+04    0.30370E-04   -0.11260E-04  2798   0.428E-03    0.141E-02
RMM:   6    -0.231509667778E+04    0.24379E-05   -0.14025E-05  2592   0.254E-03
  31 F= -.23355785E+04 E0= -.23355785E+04  d E =-.118176E-20  mag=     4.0000
       N       E                     dE             d eps       ncg     rms          rms(c)
DAV:   1    -0.231510782445E+04   -0.11144E-01   -0.54542E-01  4640   0.252E-01    0.227E-01
RMM:   2    -0.231510767482E+04    0.14963E-03   -0.33300E-03  3671   0.189E-02    0.129E-01
RMM:   3    -0.231510770376E+04   -0.28935E-04   -0.54447E-04  3606   0.864E-03    0.141E-01
RMM:   4    -0.231510765226E+04    0.51499E-04   -0.31119E-04  2890   0.673E-03    0.103E-01
RMM:   5    -0.231510758400E+04    0.68254E-04   -0.46866E-05  2777   0.378E-03    0.133E-02
RMM:   6    -0.231510758251E+04    0.14899E-05   -0.12941E-05  2578   0.199E-03
  32 F= -.23355898E+04 E0= -.23355898E+04  d E =-.832515E-20  mag=     4.0000
       N       E                     dE             d eps       ncg     rms          rms(c)
DAV:   1    -0.231508880745E+04    0.18777E-01   -0.95734E-01  4480   0.280E-01    0.216E-01
RMM:   2    -0.231508892631E+04   -0.11885E-03   -0.45459E-03  4062   0.196E-02    0.128E-01
RMM:   3    -0.231508908694E+04   -0.16064E-03   -0.52717E-04  3248   0.102E-02    0.189E-01
RMM:   4    -0.231508892871E+04    0.15824E-03   -0.31211E-04  3017   0.627E-03    0.883E-02
RMM:   5    -0.231508893503E+04   -0.63256E-05   -0.67352E-05  2967   0.431E-03
  33 F= -.23355706E+04 E0= -.23355706E+04  d E =-.929173E-21  mag=     4.0000
       N       E                     dE             d eps       ncg     rms          rms(c)
DAV:   1    -0.231510921023E+04   -0.20282E-01   -0.47450E-01  4480   0.195E-01    0.148E-01
RMM:   2    -0.231510940154E+04   -0.19130E-03   -0.26521E-03  3666   0.150E-02    0.908E-02
RMM:   3    -0.231510952467E+04   -0.12314E-03   -0.34068E-04  3107   0.751E-03    0.162E-01
RMM:   4    -0.231510937869E+04    0.14598E-03   -0.16837E-04  2822   0.493E-03    0.473E-02
RMM:   5    -0.231510938552E+04   -0.68277E-05   -0.35258E-05  2839   0.302E-03
  34 F= -.23355911E+04 E0= -.23355911E+04  d E =-.880032E-21  mag=     4.0000
       N       E                     dE             d eps       ncg     rms          rms(c)
DAV:   1    -0.231508982869E+04    0.19550E-01   -0.94954E-01  4480   0.275E-01    0.192E-01
RMM:   2    -0.231509014412E+04   -0.31543E-03   -0.27841E-03  3704   0.175E-02    0.111E-01
RMM:   3    -0.231509022193E+04   -0.77812E-04   -0.51637E-04  3773   0.917E-03    0.799E-02
RMM:   4    -0.231509026603E+04   -0.44099E-04   -0.18778E-04  2859   0.550E-03    0.103E-01
RMM:   5    -0.231509020746E+04    0.58569E-04   -0.51295E-05  2809   0.386E-03    0.150E-02
RMM:   6    -0.231509020984E+04   -0.23820E-05   -0.11458E-05  2715   0.215E-03
  35 F= -.23355723E+04 E0= -.23355723E+04  d E =-.751093E-20  mag=     4.0000
       N       E                     dE             d eps       ncg     rms          rms(c)
DAV:   1    -0.231507773456E+04    0.12473E-01   -0.48449E-01  4560   0.204E-01    0.234E-01
RMM:   2    -0.231507694789E+04    0.78667E-03   -0.57394E-03  4318   0.231E-02    0.127E-01
RMM:   3    -0.231507673653E+04    0.21136E-03   -0.78384E-04  4071   0.129E-02    0.778E-02
RMM:   4    -0.231507679732E+04   -0.60795E-04   -0.27859E-04  3351   0.678E-03    0.117E-01
RMM:   5    -0.231507669829E+04    0.99029E-04   -0.10179E-04  2967   0.543E-03    0.476E-02
RMM:   6    -0.231507667910E+04    0.19189E-04   -0.35556E-05  3012   0.351E-03    0.125E-02
RMM:   7    -0.231507667654E+04    0.25601E-05   -0.99493E-06  2844   0.293E-03
  36 F= -.23355589E+04 E0= -.23355589E+04  d E =-.778432E-22  mag=     4.0000
       N       E                     dE             d eps       ncg     rms          rms(c)
DAV:   1    -0.231512677382E+04   -0.50095E-01   -0.10045E+00  4560   0.303E-01    0.363E-01
RMM:   2    -0.231512510508E+04    0.16687E-02   -0.14552E-02  4641   0.403E-02    0.219E-01
RMM:   3    -0.231512519378E+04   -0.88697E-04   -0.22910E-03  4798   0.209E-02    0.360E-01
RMM:   4    -0.231512449890E+04    0.69488E-03   -0.14720E-03  4178   0.130E-02    0.162E-01
RMM:   5    -0.231512423231E+04    0.26659E-03   -0.19742E-04  3572   0.753E-03    0.419E-02
RMM:   6    -0.231512420405E+04    0.28258E-04   -0.88582E-05  3178   0.550E-03    0.205E-02
RMM:   7    -0.231512419573E+04    0.83284E-05   -0.20121E-05  2967   0.430E-03
  37 F= -.23356059E+04 E0= -.23356059E+04  d E =-.859457E-19  mag=     4.0000
