       N       E                     dE             d eps       ncg     rms          rms(c)
DAV:   1     0.131685456879E+05    0.13169E+05   -0.84571E+05  4536   0.145E+03
DAV:   2    -0.101025971072E+04   -0.14179E+05   -0.13543E+05  4968   0.331E+02
DAV:   3    -0.248287618029E+04   -0.14726E+04   -0.14543E+04  5536   0.115E+02
DAV:   4    -0.252942124209E+04   -0.46545E+02   -0.46285E+02  6776   0.296E+01
DAV:   5    -0.253027548966E+04   -0.85425E+00   -0.85233E+00  6312   0.351E+00    0.170E+02
RMM:   6    -0.149347492281E+04    0.10368E+04   -0.19612E+03  4475   0.382E+01    0.722E+01
RMM:   7    -0.166548320381E+04   -0.17201E+03   -0.29191E+02  5169   0.143E+01    0.469E+01
RMM:   8    -0.172354770355E+04   -0.58064E+02   -0.31542E+01  5445   0.650E+00    0.356E+01
RMM:   9    -0.186677609672E+04   -0.14323E+03   -0.74866E+01  5061   0.845E+00    0.366E+01
RMM:  10    -0.193334331351E+04   -0.66567E+02   -0.38342E+01  5249   0.573E+00    0.217E+01
RMM:  11    -0.202214802436E+04   -0.88805E+02   -0.34103E+01  5138   0.490E+00    0.200E+01
RMM:  12    -0.208434334813E+04   -0.62195E+02   -0.22699E+01  5094   0.398E+00    0.142E+01
RMM:  13    -0.217622385189E+04   -0.91881E+02   -0.48976E+01  4647   0.544E+00    0.157E+01
RMM:  14    -0.225326203978E+04   -0.77038E+02   -0.56382E+01  4793   0.566E+00    0.801E+00
RMM:  15    -0.230743961974E+04   -0.54178E+02   -0.50623E+01  4697   0.499E+00    0.453E+00
RMM:  16    -0.232087485863E+04   -0.13435E+02   -0.16425E+01  4875   0.316E+00    0.534E+00
RMM:  17    -0.232251702074E+04   -0.16422E+01   -0.29101E+00  5810   0.999E-01    0.449E+00
RMM:  18    -0.232404123175E+04   -0.15242E+01   -0.10327E+00  4570   0.681E-01    0.303E+00
RMM:  19    -0.232596859083E+04   -0.19274E+01   -0.74130E-01  4545   0.587E-01    0.388E+00
RMM:  20    -0.232589868433E+04    0.69906E-01   -0.72180E-02  4894   0.265E-01    0.354E+00
RMM:  21    -0.232627534261E+04   -0.37666E+00   -0.31470E-01  4483   0.274E-01    0.244E+00
RMM:  22    -0.232687263786E+04   -0.59730E+00   -0.39438E-01  4501   0.347E-01    0.259E+00
RMM:  23    -0.232655883995E+04    0.31380E+00   -0.11384E+00  4495   0.489E-01    0.476E+00
RMM:  24    -0.232697831852E+04   -0.41948E+00   -0.58850E-01  5062   0.241E-01    0.399E+00
RMM:  25    -0.232708196665E+04   -0.10365E+00   -0.14074E-01  4763   0.167E-01    0.342E+00
RMM:  26    -0.232719303697E+04   -0.11107E+00   -0.14172E-01  4925   0.179E-01    0.229E+00
RMM:  27    -0.232726430977E+04   -0.71273E-01   -0.88926E-02  5028   0.151E-01    0.241E+00
RMM:  28    -0.232728755362E+04   -0.23244E-01   -0.28170E-02  5364   0.844E-02    0.286E+00
RMM:  29    -0.232727479487E+04    0.12759E-01   -0.57930E-03  4784   0.359E-02    0.215E+00
RMM:  30    -0.232727498764E+04   -0.19277E-03   -0.25873E-02  4602   0.704E-02    0.224E+00
RMM:  31    -0.232726144177E+04    0.13546E-01   -0.70730E-02  4576   0.129E-01    0.204E+00
RMM:  32    -0.232722900537E+04    0.32436E-01   -0.37106E-02  4812   0.105E-01    0.292E+00
RMM:  33    -0.232720022583E+04    0.28780E-01   -0.16592E-02  5215   0.621E-02    0.358E+00
RMM:  34    -0.232722467835E+04   -0.24453E-01   -0.31471E-03  4747   0.311E-02    0.309E+00
RMM:  35    -0.232726181113E+04   -0.37133E-01   -0.97190E-03  4520   0.493E-02    0.238E+00
RMM:  36    -0.232733721185E+04   -0.75401E-01   -0.55898E-02  4695   0.106E-01    0.252E+00
RMM:  37    -0.232735848369E+04   -0.21272E-01   -0.14240E-02  4749   0.634E-02    0.291E+00
RMM:  38    -0.232733093029E+04    0.27553E-01   -0.71327E-03  4478   0.354E-02    0.187E+00
RMM:  39    -0.232731252274E+04    0.18408E-01   -0.96598E-03  4649   0.448E-02    0.192E+00
RMM:  40    -0.232727358920E+04    0.38934E-01   -0.26670E-02  5033   0.727E-02    0.253E+00
RMM:  41    -0.232728017392E+04   -0.65847E-02   -0.13086E-03  4388   0.244E-02    0.240E+00
RMM:  42    -0.232729534224E+04   -0.15168E-01   -0.27801E-03  4289   0.270E-02    0.210E+00
RMM:  43    -0.232736738424E+04   -0.72042E-01   -0.71831E-02  4751   0.115E-01    0.271E+00
RMM:  44    -0.232745250012E+04   -0.85116E-01   -0.76540E-02  5016   0.125E-01    0.315E+00
RMM:  45    -0.232746130622E+04   -0.88061E-02   -0.12114E-02  5481   0.468E-02    0.297E+00
RMM:  46    -0.232746887338E+04   -0.75672E-02   -0.15198E-03  4792   0.133E-02    0.292E+00
RMM:  47    -0.232746899346E+04   -0.12008E-03   -0.78306E-05  3016   0.615E-03    0.293E+00
RMM:  48    -0.232748093266E+04   -0.11939E-01   -0.72431E-04  3870   0.106E-02    0.280E+00
RMM:  49    -0.232749149729E+04   -0.10565E-01   -0.58551E-04  3429   0.108E-02    0.270E+00
RMM:  50    -0.232752729927E+04   -0.35802E-01   -0.84850E-03  4666   0.356E-02    0.199E+00
RMM:  51    -0.232755075377E+04   -0.23455E-01   -0.97188E-03  4688   0.422E-02    0.128E+00
RMM:  52    -0.232755267957E+04   -0.19258E-02   -0.10797E-03  4077   0.158E-02    0.127E+00
RMM:  53    -0.232756088088E+04   -0.82013E-02   -0.20643E-03  4476   0.182E-02    0.950E-01
RMM:  54    -0.232756685664E+04   -0.59758E-02   -0.29186E-03  4437   0.235E-02    0.536E-01
RMM:  55    -0.232756841027E+04   -0.15536E-02   -0.14532E-03  4363   0.164E-02    0.313E-01
RMM:  56    -0.232756879133E+04   -0.38106E-03   -0.37995E-04  3689   0.887E-03    0.213E-01
RMM:  57    -0.232756896603E+04   -0.17470E-03   -0.22845E-04  3578   0.812E-03    0.119E-01
RMM:  58    -0.232756899098E+04   -0.24945E-04   -0.93226E-05  3006   0.614E-03    0.744E-02
RMM:  59    -0.232756898710E+04    0.38819E-05   -0.16074E-05  2887   0.395E-03
   1 F= -.23490668E+04 E0= -.23490667E+04  d E =-.234907E+04  mag=     4.0019
       N       E                     dE             d eps       ncg     rms          rms(c)
DAV:   1    -0.232795285183E+04   -0.38386E+00   -0.13420E+02  5072   0.678E+00    0.236E+00
RMM:   2    -0.232845387034E+04   -0.50102E+00   -0.55379E+00  5097   0.987E-01    0.166E+00
RMM:   3    -0.232844198811E+04    0.11882E-01   -0.38414E-01  4920   0.531E-01    0.129E+00
RMM:   4    -0.232846968760E+04   -0.27699E-01   -0.10393E-01  6097   0.157E-01    0.204E+00
RMM:   5    -0.232843034997E+04    0.39338E-01   -0.55929E-02  5594   0.126E-01    0.623E-01
RMM:   6    -0.232842632260E+04    0.40274E-02   -0.87922E-03  5386   0.624E-02    0.279E-01
RMM:   7    -0.232842628274E+04    0.39857E-04   -0.21376E-03  5076   0.206E-02    0.248E-01
RMM:   8    -0.232842578485E+04    0.49789E-03   -0.96290E-04  4354   0.158E-02    0.116E-01
RMM:   9    -0.232842578493E+04   -0.77838E-07   -0.32758E-04  3954   0.112E-02    0.359E-02
RMM:  10    -0.232842584170E+04   -0.56772E-04   -0.76545E-05  3435   0.817E-03    0.140E-02
RMM:  11    -0.232842587177E+04   -0.30072E-04   -0.27180E-05  3067   0.473E-03    0.899E-03
RMM:  12    -0.232842590366E+04   -0.31890E-04   -0.22194E-05  2956   0.462E-03    0.504E-03
RMM:  13    -0.232842591505E+04   -0.11391E-04   -0.13416E-05  2887   0.412E-03    0.416E-03
RMM:  14    -0.232842591935E+04   -0.42954E-05   -0.67688E-06  2855   0.334E-03
   2 F= -.23499231E+04 E0= -.23499231E+04  d E =-.856326E+00  mag=     4.0001
       N       E                     dE             d eps       ncg     rms          rms(c)
DAV:   1    -0.232846730550E+04   -0.41390E-01   -0.55894E+00  4736   0.133E+00    0.501E-01
RMM:   2    -0.232848195257E+04   -0.14647E-01   -0.17845E-01  4990   0.192E-01    0.339E-01
RMM:   3    -0.232848076321E+04    0.11894E-02   -0.91454E-03  4658   0.975E-02    0.235E-01
RMM:   4    -0.232848277219E+04   -0.20090E-02   -0.51573E-03  4864   0.345E-02    0.477E-01
RMM:   5    -0.232848040675E+04    0.23654E-02   -0.20010E-03  5144   0.284E-02    0.604E-02
RMM:   6    -0.232848039557E+04    0.11175E-04   -0.24734E-04  3213   0.742E-03    0.560E-02
RMM:   7    -0.232848035541E+04    0.40156E-04   -0.52416E-05  3011   0.472E-03    0.267E-02
RMM:   8    -0.232848035949E+04   -0.40778E-05   -0.66839E-05  3188   0.469E-03
   3 F= -.23499776E+04 E0= -.23499775E+04  d E =-.910778E+00  mag=     4.0000
       N       E                     dE             d eps       ncg     rms          rms(c)
DAV:   1    -0.232872207843E+04   -0.24172E+00   -0.76530E+00  4608   0.209E+00    0.813E-01
RMM:   2    -0.232874824164E+04   -0.26163E-01   -0.34396E-01  6082   0.340E-01    0.522E-01
RMM:   3    -0.232875284475E+04   -0.46031E-02   -0.33586E-02  5722   0.149E-01    0.746E-01
RMM:   4    -0.232874747207E+04    0.53727E-02   -0.67729E-03  5914   0.453E-02    0.304E-01
RMM:   5    -0.232874816940E+04   -0.69733E-03   -0.34472E-03  5087   0.309E-02    0.357E-01
RMM:   6    -0.232874686160E+04    0.13078E-02   -0.18000E-03  4634   0.225E-02    0.124E-01
RMM:   7    -0.232874682988E+04    0.31724E-04   -0.46434E-04  3640   0.101E-02    0.109E-01
RMM:   8    -0.232874668322E+04    0.14665E-03   -0.13699E-04  2979   0.704E-03    0.205E-02
RMM:   9    -0.232874667509E+04    0.81340E-05   -0.36587E-05  3051   0.404E-03
   4 F= -.23502431E+04 E0= -.23502431E+04  d E =-.265528E+00  mag=     4.0000
       N       E                     dE             d eps       ncg     rms          rms(c)
DAV:   1    -0.232884094913E+04   -0.94266E-01   -0.13814E+01  4576   0.282E+00    0.107E+00
RMM:   2    -0.232888910621E+04   -0.48157E-01   -0.62270E-01  6001   0.467E-01    0.689E-01
RMM:   3    -0.232889636564E+04   -0.72594E-02   -0.59392E-02  5644   0.210E-01    0.973E-01
RMM:   4    -0.232888722148E+04    0.91442E-02   -0.12006E-02  5980   0.617E-02    0.402E-01
RMM:   5    -0.232888846739E+04   -0.12459E-02   -0.61709E-03  5293   0.420E-02    0.479E-01
RMM:   6    -0.232888612203E+04    0.23454E-02   -0.32688E-03  5085   0.296E-02    0.168E-01
RMM:   7    -0.232888607600E+04    0.46032E-04   -0.86704E-04  4128   0.138E-02    0.150E-01
RMM:   8    -0.232888580364E+04    0.27236E-03   -0.24922E-04  3184   0.887E-03    0.283E-02
RMM:   9    -0.232888579676E+04    0.68884E-05   -0.66644E-05  3206   0.526E-03
   5 F= -.23503813E+04 E0= -.23503813E+04  d E =-.403774E+00  mag=     4.0000
       N       E                     dE             d eps       ncg     rms          rms(c)
DAV:   1    -0.232902792555E+04   -0.14212E+00   -0.58553E+00  4576   0.181E+00    0.564E-01
RMM:   2    -0.232905191240E+04   -0.23987E-01   -0.25806E-01  6063   0.286E-01    0.456E-01
RMM:   3    -0.232905306708E+04   -0.11547E-02   -0.21713E-02  5771   0.118E-01    0.503E-01
RMM:   4    -0.232905083717E+04    0.22299E-02   -0.34794E-03  5641   0.329E-02    0.248E-01
RMM:   5    -0.232905165761E+04   -0.82044E-03   -0.28484E-03  5268   0.282E-02    0.326E-01
RMM:   6    -0.232905058483E+04    0.10728E-02   -0.13140E-03  4583   0.193E-02    0.107E-01
RMM:   7    -0.232905055426E+04    0.30567E-04   -0.32981E-04  3275   0.893E-03    0.888E-02
RMM:   8    -0.232905045825E+04    0.96007E-04   -0.96143E-05  2963   0.618E-03    0.205E-02
RMM:   9    -0.232905045198E+04    0.62741E-05   -0.21441E-05  2953   0.335E-03
   6 F= -.23505456E+04 E0= -.23505456E+04  d E =-.164261E+00  mag=     4.0000
       N       E                     dE             d eps       ncg     rms          rms(c)
DAV:   1    -0.232908490107E+04   -0.34443E-01   -0.59581E+00  4608   0.179E+00    0.567E-01
RMM:   2    -0.232910887164E+04   -0.23971E-01   -0.25869E-01  6062   0.289E-01    0.453E-01
RMM:   3    -0.232911022830E+04   -0.13567E-02   -0.21824E-02  5794   0.120E-01    0.510E-01
RMM:   4    -0.232910791977E+04    0.23085E-02   -0.34712E-03  5736   0.331E-02    0.248E-01
RMM:   5    -0.232910874896E+04   -0.82919E-03   -0.28528E-03  5245   0.279E-02    0.328E-01
RMM:   6    -0.232910766056E+04    0.10884E-02   -0.13186E-03  4599   0.195E-02    0.106E-01
RMM:   7    -0.232910762965E+04    0.30909E-04   -0.32695E-04  3301   0.895E-03    0.884E-02
RMM:   8    -0.232910753276E+04    0.96894E-04   -0.96436E-05  2965   0.623E-03    0.206E-02
RMM:   9    -0.232910752468E+04    0.80800E-05   -0.23029E-05  2954   0.345E-03
   7 F= -.23506023E+04 E0= -.23506023E+04  d E =-.221003E+00  mag=     4.0000
       N       E                     dE             d eps       ncg     rms          rms(c)
DAV:   1    -0.232914702519E+04   -0.39492E-01   -0.17463E+00  4616   0.972E-01    0.330E-01
RMM:   2    -0.232915549108E+04   -0.84659E-02   -0.94864E-02  6168   0.170E-01    0.230E-01
RMM:   3    -0.232915620401E+04   -0.71293E-03   -0.86582E-03  5676   0.724E-02    0.282E-01
RMM:   4    -0.232915542916E+04    0.77484E-03   -0.12224E-03  5167   0.190E-02    0.132E-01
RMM:   5    -0.232915548115E+04   -0.51982E-04   -0.75134E-04  4346   0.157E-02    0.132E-01
RMM:   6    -0.232915533653E+04    0.14462E-03   -0.28096E-04  3166   0.113E-02    0.602E-02
RMM:   7    -0.232915531708E+04    0.19450E-04   -0.69660E-05  3017   0.528E-03    0.379E-02
RMM:   8    -0.232915530064E+04    0.16439E-04   -0.23587E-05  2889   0.380E-03    0.135E-02
RMM:   9    -0.232915529836E+04    0.22807E-05   -0.95960E-06  2816   0.221E-03
   8 F= -.23506498E+04 E0= -.23506497E+04  d E =-.474260E-01  mag=     4.0000
       N       E                     dE             d eps       ncg     rms          rms(c)
DAV:   1    -0.232916426413E+04   -0.89635E-02   -0.19042E+00  4592   0.101E+00    0.346E-01
RMM:   2    -0.232917348039E+04   -0.92163E-02   -0.10341E-01  6146   0.176E-01    0.242E-01
RMM:   3    -0.232917422596E+04   -0.74557E-03   -0.93109E-03  5668   0.744E-02    0.294E-01
RMM:   4    -0.232917337799E+04    0.84797E-03   -0.13301E-03  5318   0.199E-02    0.139E-01
RMM:   5    -0.232917342040E+04   -0.42419E-04   -0.83640E-04  4438   0.164E-02    0.135E-01
RMM:   6    -0.232917327139E+04    0.14901E-03   -0.30844E-04  3209   0.116E-02    0.629E-02
RMM:   7    -0.232917325283E+04    0.18567E-04   -0.78974E-05  3015   0.551E-03    0.428E-02
RMM:   8    -0.232917323127E+04    0.21555E-04   -0.26542E-05  2898   0.398E-03    0.138E-02
RMM:   9    -0.232917322867E+04    0.25988E-05   -0.11198E-05  2850   0.234E-03
   9 F= -.23506674E+04 E0= -.23506673E+04  d E =-.650172E-01  mag=     4.0000
       N       E                     dE             d eps       ncg     rms          rms(c)
DAV:   1    -0.232919171142E+04   -0.18480E-01   -0.12768E+00  4640   0.897E-01    0.310E-01
RMM:   2    -0.232920364736E+04   -0.11936E-01   -0.12705E-01  6425   0.179E-01    0.268E-01
RMM:   3    -0.232920462533E+04   -0.97797E-03   -0.13134E-02  5956   0.727E-02    0.275E-01
RMM:   4    -0.232920381218E+04    0.81315E-03   -0.15389E-03  5022   0.190E-02    0.107E-01
RMM:   5    -0.232920391366E+04   -0.10148E-03   -0.55143E-04  4059   0.128E-02    0.135E-01
RMM:   6    -0.232920376178E+04    0.15188E-03   -0.30711E-04  3301   0.100E-02    0.587E-02
RMM:   7    -0.232920377197E+04   -0.10188E-04   -0.10754E-04  3006   0.692E-03    0.569E-02
RMM:   8    -0.232920373445E+04    0.37513E-04   -0.34495E-05  2899   0.463E-03    0.112E-02
RMM:   9    -0.232920373335E+04    0.11042E-05   -0.77147E-06  2858   0.241E-03
  10 F= -.23506977E+04 E0= -.23506977E+04  d E =-.303787E-01  mag=     4.0000
       N       E                     dE             d eps       ncg     rms          rms(c)
DAV:   1    -0.232918894075E+04    0.14794E-01   -0.35913E+00  4624   0.150E+00    0.523E-01
RMM:   2    -0.232922261198E+04   -0.33671E-01   -0.35773E-01  6375   0.299E-01    0.460E-01
RMM:   3    -0.232922523829E+04   -0.26263E-02   -0.37138E-02  6151   0.122E-01    0.459E-01
RMM:   4    -0.232922294806E+04    0.22902E-02   -0.43218E-03  5810   0.317E-02    0.180E-01
RMM:   5    -0.232922316639E+04   -0.21833E-03   -0.15484E-03  4997   0.207E-02    0.217E-01
RMM:   6    -0.232922278118E+04    0.38521E-03   -0.83851E-04  4295   0.149E-02    0.997E-02
RMM:   7    -0.232922279901E+04   -0.17833E-04   -0.27066E-04  3276   0.916E-03    0.926E-02
RMM:   8    -0.232922269927E+04    0.99743E-04   -0.89284E-05  2951   0.639E-03    0.194E-02
RMM:   9    -0.232922269518E+04    0.40917E-05   -0.19790E-05  2972   0.322E-03
  11 F= -.23507165E+04 E0= -.23507165E+04  d E =-.491726E-01  mag=     4.0000
       N       E                     dE             d eps       ncg     rms          rms(c)
DAV:   1    -0.232922101409E+04    0.16852E-02   -0.24600E+00  4560   0.124E+00    0.428E-01
RMM:   2    -0.232924861853E+04   -0.27604E-01   -0.28501E-01  6499   0.259E-01    0.411E-01
RMM:   3    -0.232925049686E+04   -0.18783E-02   -0.30016E-02  6180   0.103E-01    0.363E-01
RMM:   4    -0.232924913614E+04    0.13607E-02   -0.31978E-03  5540   0.254E-02    0.144E-01
RMM:   5    -0.232924929505E+04   -0.15891E-03   -0.84176E-04  4360   0.149E-02    0.182E-01
RMM:   6    -0.232924901508E+04    0.27997E-03   -0.54966E-04  3837   0.126E-02    0.793E-02
RMM:   7    -0.232924903420E+04   -0.19119E-04   -0.21133E-04  3402   0.881E-03    0.715E-02
RMM:   8    -0.232924897698E+04    0.57221E-04   -0.71885E-05  2938   0.617E-03    0.183E-02
RMM:   9    -0.232924897339E+04    0.35837E-05   -0.12192E-05  2907   0.288E-03
  12 F= -.23507429E+04 E0= -.23507429E+04  d E =-.263762E-01  mag=     4.0000
       N       E                     dE             d eps       ncg     rms          rms(c)
DAV:   1    -0.232913823259E+04    0.11074E+00   -0.11613E+01  4512   0.267E+00    0.932E-01
RMM:   2    -0.232927056834E+04   -0.13234E+00   -0.13568E+00  6509   0.563E-01    0.944E-01
RMM:   3    -0.232927746313E+04   -0.68948E-02   -0.14484E-01  6296   0.225E-01    0.753E-01
RMM:   4    -0.232927157226E+04    0.58909E-02   -0.15019E-02  6047   0.545E-02    0.316E-01
RMM:   5    -0.232927210124E+04   -0.52898E-03   -0.39806E-03  5311   0.323E-02    0.380E-01
RMM:   6    -0.232927090490E+04    0.11963E-02   -0.24092E-03  5129   0.246E-02    0.180E-01
RMM:   7    -0.232927076748E+04    0.13742E-03   -0.69183E-04  4715   0.148E-02    0.979E-02
RMM:   8    -0.232927068409E+04    0.83383E-04   -0.23643E-04  3052   0.973E-03    0.549E-02
RMM:   9    -0.232927064875E+04    0.35342E-04   -0.47533E-05  2988   0.488E-03    0.296E-02
RMM:  10    -0.232927063868E+04    0.10071E-04   -0.39538E-05  2966   0.449E-03    0.745E-03
RMM:  11    -0.232927063849E+04    0.19348E-06   -0.91831E-06  2925   0.330E-03
  13 F= -.23507648E+04 E0= -.23507648E+04  d E =-.483015E-01  mag=     4.0000
       N       E                     dE             d eps       ncg     rms          rms(c)
DAV:   1    -0.232921756075E+04    0.53078E-01   -0.69187E+00  4528   0.206E+00    0.710E-01
RMM:   2    -0.232929614593E+04   -0.78585E-01   -0.79848E-01  6466   0.436E-01    0.745E-01
RMM:   3    -0.232929955000E+04   -0.34041E-02   -0.84737E-02  6261   0.175E-01    0.572E-01
RMM:   4    -0.232929615137E+04    0.33986E-02   -0.87441E-03  5951   0.418E-02    0.243E-01
RMM:   5    -0.232929665896E+04   -0.50759E-03   -0.24733E-03  5253   0.246E-02    0.331E-01
RMM:   6    -0.232929559671E+04    0.10622E-02   -0.16077E-03  5017   0.207E-02    0.120E-01
RMM:   7    -0.232929554085E+04    0.55861E-04   -0.36839E-04  4416   0.121E-02    0.531E-02
RMM:   8    -0.232929552556E+04    0.15289E-04   -0.10110E-04  2990   0.767E-03    0.415E-02
RMM:   9    -0.232929550439E+04    0.21164E-04   -0.30543E-05  2943   0.413E-03    0.226E-02
RMM:  10    -0.232929549763E+04    0.67613E-05   -0.22782E-05  2949   0.366E-03
  14 F= -.23507902E+04 E0= -.23507902E+04  d E =-.253276E-01  mag=     4.0000
       N       E                     dE             d eps       ncg     rms          rms(c)
DAV:   1    -0.232926410363E+04    0.31401E-01   -0.32553E+00  4576   0.142E+00    0.483E-01
RMM:   2    -0.232930046023E+04   -0.36357E-01   -0.37219E-01  6472   0.296E-01    0.482E-01
RMM:   3    -0.232930247688E+04   -0.20167E-02   -0.39326E-02  6164   0.119E-01    0.400E-01
RMM:   4    -0.232930080202E+04    0.16749E-02   -0.41239E-03  5680   0.286E-02    0.165E-01
RMM:   5    -0.232930103328E+04   -0.23126E-03   -0.11654E-03  4819   0.172E-02    0.223E-01
RMM:   6    -0.232930055144E+04    0.48184E-03   -0.72619E-04  4306   0.145E-02    0.809E-02
RMM:   7    -0.232930051934E+04    0.32101E-04   -0.16608E-04  3827   0.882E-03    0.273E-02
RMM:   8    -0.232930052068E+04   -0.13353E-05   -0.42735E-05  2952   0.618E-03
  15 F= -.23507955E+04 E0= -.23507955E+04  d E =-.307011E-01  mag=     4.0000
       N       E                     dE             d eps       ncg     rms          rms(c)
DAV:   1    -0.232927185881E+04    0.28661E-01   -0.35261E+00  4544   0.144E+00    0.543E-01
RMM:   2    -0.232932533584E+04   -0.53477E-01   -0.53945E-01  6690   0.327E-01    0.639E-01
RMM:   3    -0.232932711272E+04   -0.17769E-02   -0.58070E-02  6292   0.126E-01    0.415E-01
RMM:   4    -0.232932549460E+04    0.16181E-02   -0.59089E-03  5457   0.305E-02    0.181E-01
RMM:   5    -0.232932571293E+04   -0.21832E-03   -0.10602E-03  4431   0.144E-02    0.233E-01
RMM:   6    -0.232932519836E+04    0.51457E-03   -0.81833E-04  4211   0.138E-02    0.919E-02
RMM:   7    -0.232932525128E+04   -0.52928E-04   -0.39676E-04  3842   0.107E-02    0.860E-02
RMM:   8    -0.232932517026E+04    0.81025E-04   -0.11112E-04  2975   0.697E-03    0.231E-02
RMM:   9    -0.232932516398E+04    0.62768E-05   -0.18469E-05  2953   0.337E-03
  16 F= -.23508208E+04 E0= -.23508208E+04  d E =-.252743E-01  mag=     4.0000
       N       E                     dE             d eps       ncg     rms          rms(c)
DAV:   1    -0.232888030145E+04    0.44487E+00   -0.31719E+01  4512   0.433E+00    0.168E+00
RMM:   2    -0.232939003558E+04   -0.50973E+00   -0.50493E+00  6693   0.998E-01    0.217E+00
RMM:   3    -0.232938363009E+04    0.64055E-02   -0.54755E-01  6397   0.389E-01    0.111E+00
RMM:   4    -0.232937394864E+04    0.96815E-02   -0.56434E-02  6192   0.902E-02    0.647E-01
RMM:   5    -0.232937269300E+04    0.12556E-02   -0.90022E-03  5703   0.387E-02    0.593E-01
RMM:   6    -0.232937078157E+04    0.19114E-02   -0.81026E-03  5612   0.401E-02    0.449E-01
RMM:   7    -0.232936962156E+04    0.11600E-02   -0.55884E-03  5669   0.332E-02    0.272E-01
RMM:   8    -0.232936893963E+04    0.68193E-03   -0.91216E-04  4639   0.161E-02    0.718E-02
RMM:   9    -0.232936887518E+04    0.64453E-04   -0.16809E-04  3193   0.822E-03    0.484E-02
RMM:  10    -0.232936885311E+04    0.22067E-04   -0.12176E-04  3097   0.685E-03    0.153E-02
RMM:  11    -0.232936885339E+04   -0.27525E-06   -0.13645E-05  2941   0.426E-03
  17 F= -.23508666E+04 E0= -.23508666E+04  d E =-.710179E-01  mag=     4.0000
       N       E                     dE             d eps       ncg     rms          rms(c)
DAV:   1    -0.232925952956E+04    0.10932E+00   -0.74760E+00  4544   0.207E+00    0.793E-01
RMM:   2    -0.232937284487E+04   -0.11332E+00   -0.11495E+00  6683   0.470E-01    0.899E-01
RMM:   3    -0.232937736838E+04   -0.45235E-02   -0.12444E-01  6369   0.184E-01    0.612E-01
RMM:   4    -0.232937389737E+04    0.34710E-02   -0.12707E-02  5869   0.438E-02    0.283E-01
RMM:   5    -0.232937415847E+04   -0.26110E-03   -0.21389E-03  4882   0.191E-02    0.329E-01
RMM:   6    -0.232937310752E+04    0.10510E-02   -0.17451E-03  5010   0.194E-02    0.133E-01
RMM:   7    -0.232937323032E+04   -0.12280E-03   -0.95073E-04  4634   0.151E-02    0.131E-01
RMM:   8    -0.232937303972E+04    0.19060E-03   -0.24601E-04  3070   0.879E-03    0.310E-02
RMM:   9    -0.232937302660E+04    0.13118E-04   -0.36705E-05  2988   0.449E-03    0.226E-02
RMM:  10    -0.232937302127E+04    0.53272E-05   -0.24593E-05  2931   0.355E-03
  18 F= -.23508718E+04 E0= -.23508718E+04  d E =-.762622E-01  mag=     4.0000
       N       E                     dE             d eps       ncg     rms          rms(c)
DAV:   1    -0.232933654592E+04    0.36481E-01   -0.37766E+00  4544   0.147E+00    0.546E-01
RMM:   2    -0.232939317192E+04   -0.56626E-01   -0.57977E-01  6669   0.335E-01    0.565E-01
RMM:   3    -0.232939679001E+04   -0.36181E-02   -0.63118E-02  6293   0.131E-01    0.439E-01
RMM:   4    -0.232939498082E+04    0.18092E-02   -0.65563E-03  5556   0.309E-02    0.195E-01
RMM:   5    -0.232939512592E+04   -0.14510E-03   -0.10633E-03  4303   0.138E-02    0.233E-01
RMM:   6    -0.232939458752E+04    0.53841E-03   -0.83987E-04  4181   0.140E-02    0.884E-02
RMM:   7    -0.232939459452E+04   -0.70076E-05   -0.35756E-04  4135   0.106E-02    0.525E-02
RMM:   8    -0.232939457110E+04    0.23426E-04   -0.80399E-05  2958   0.683E-03    0.293E-02
RMM:   9    -0.232939456002E+04    0.11073E-04   -0.14730E-05  2895   0.311E-03    0.178E-02
RMM:  10    -0.232939455651E+04    0.35135E-05   -0.14718E-05  2861   0.267E-03
  19 F= -.23508941E+04 E0= -.23508941E+04  d E =-.222658E-01  mag=     4.0000
       N       E                     dE             d eps       ncg     rms          rms(c)
DAV:   1    -0.232891011343E+04    0.48445E+00   -0.34003E+01  4512   0.444E+00    0.170E+00
RMM:   2    -0.232945814099E+04   -0.54803E+00   -0.54661E+00  6687   0.104E+00    0.211E+00
RMM:   3    -0.232945887456E+04   -0.73356E-03   -0.58649E-01  6409   0.396E-01    0.116E+00
RMM:   4    -0.232944855846E+04    0.10316E-01   -0.61549E-02  6260   0.914E-02    0.677E-01
RMM:   5    -0.232944713819E+04    0.14203E-02   -0.90510E-03  5711   0.375E-02    0.622E-01
RMM:   6    -0.232944448870E+04    0.26495E-02   -0.85285E-03  5635   0.406E-02    0.423E-01
RMM:   7    -0.232944373654E+04    0.75216E-03   -0.63572E-03  5813   0.350E-02    0.298E-01
RMM:   8    -0.232944283760E+04    0.89893E-03   -0.10673E-03  4779   0.171E-02    0.729E-02
RMM:   9    -0.232944276016E+04    0.77437E-04   -0.16686E-04  3159   0.795E-03    0.516E-02
RMM:  10    -0.232944272950E+04    0.30661E-04   -0.13166E-04  3071   0.694E-03    0.134E-02
RMM:  11    -0.232944272987E+04   -0.36183E-06   -0.18266E-05  2949   0.429E-03
  20 F= -.23509445E+04 E0= -.23509445E+04  d E =-.727243E-01  mag=     4.0000
       N       E                     dE             d eps       ncg     rms          rms(c)
DAV:   1    -0.232722219086E+04    0.22205E+01   -0.13596E+02  4512   0.894E+00    0.368E+00
RMM:   2    -0.232978362326E+04   -0.25614E+01   -0.24329E+01  6686   0.225E+00    0.575E+00
RMM:   3    -0.232953188029E+04    0.25174E+00   -0.25174E+00  6431   0.818E-01    0.248E+00
RMM:   4    -0.232950669732E+04    0.25183E-01   -0.33877E-01  6443   0.207E-01    0.192E+00
RMM:   5    -0.232947725878E+04    0.29439E-01   -0.54557E-02  6079   0.914E-02    0.122E+00
RMM:   6    -0.232947569910E+04    0.15597E-02   -0.30399E-02  5928   0.708E-02    0.118E+00
RMM:   7    -0.232946040451E+04    0.15295E-01   -0.36687E-02  5786   0.832E-02    0.506E-01
RMM:   8    -0.232946033394E+04    0.70577E-04   -0.43490E-03  5375   0.397E-02    0.250E-01
RMM:   9    -0.232946020621E+04    0.12772E-03   -0.11945E-03  4431   0.196E-02    0.107E-01
RMM:  10    -0.232946016450E+04    0.41708E-04   -0.33978E-04  3803   0.120E-02    0.584E-02
RMM:  11    -0.232946016638E+04   -0.18753E-05   -0.17336E-04  3542   0.819E-03    0.149E-02
RMM:  12    -0.232946017568E+04   -0.92986E-05   -0.20729E-05  2963   0.503E-03
  21 F= -.23509668E+04 E0= -.23509668E+04  d E =-.949790E-01  mag=     3.9993
       N       E                     dE             d eps       ncg     rms          rms(c)
DAV:   1    -0.232927268964E+04    0.18748E+00   -0.12495E+01  4528   0.271E+00    0.978E-01
RMM:   2    -0.232945467374E+04   -0.18198E+00   -0.19195E+00  6652   0.609E-01    0.716E-01
RMM:   3    -0.232947396485E+04   -0.19291E-01   -0.20836E-01  6285   0.239E-01    0.789E-01
RMM:   4    -0.232946806883E+04    0.58960E-02   -0.21752E-02  6208   0.561E-02    0.354E-01
RMM:   5    -0.232946758645E+04    0.48238E-03   -0.32855E-03  5055   0.236E-02    0.312E-01
RMM:   6    -0.232946709003E+04    0.49642E-03   -0.29060E-03  5320   0.242E-02    0.234E-01
RMM:   7    -0.232946714136E+04   -0.51326E-04   -0.15411E-03  5027   0.178E-02    0.220E-01
RMM:   8    -0.232946660488E+04    0.53648E-03   -0.55150E-04  3413   0.117E-02    0.477E-02
RMM:   9    -0.232946658142E+04    0.23460E-04   -0.66001E-05  2986   0.581E-03    0.293E-02
RMM:  10    -0.232946657063E+04    0.10787E-04   -0.28015E-05  2924   0.406E-03    0.105E-02
RMM:  11    -0.232946656934E+04    0.12852E-05   -0.13755E-05  2915   0.301E-03
  22 F= -.23509717E+04 E0= -.23509717E+04  d E =-.999048E-01  mag=     3.9999
       N       E                     dE             d eps       ncg     rms          rms(c)
DAV:   1    -0.232916047027E+04    0.30610E+00   -0.22875E+01  4512   0.379E+00    0.139E+00
RMM:   2    -0.232952113948E+04   -0.36067E+00   -0.36977E+00  6585   0.856E-01    0.144E+00
RMM:   3    -0.232953898752E+04   -0.17848E-01   -0.40589E-01  6397   0.338E-01    0.104E+00
RMM:   4    -0.232952863677E+04    0.10351E-01   -0.41164E-02  6269   0.771E-02    0.506E-01
RMM:   5    -0.232952860135E+04    0.35420E-04   -0.63729E-03  5563   0.324E-02    0.538E-01
RMM:   6    -0.232952576925E+04    0.28321E-02   -0.51401E-03  5598   0.320E-02    0.257E-01
RMM:   7    -0.232952575134E+04    0.17904E-04   -0.32152E-03  5490   0.272E-02    0.216E-01
RMM:   8    -0.232952521858E+04    0.53277E-03   -0.74793E-04  4114   0.156E-02    0.550E-02
RMM:   9    -0.232952516280E+04    0.55773E-04   -0.10515E-04  3176   0.611E-03    0.481E-02
RMM:  10    -0.232952512448E+04    0.38325E-04   -0.10073E-04  3002   0.645E-03    0.101E-02
RMM:  11    -0.232952512211E+04    0.23640E-05   -0.20332E-05  2946   0.414E-03
  23 F= -.23510316E+04 E0= -.23510316E+04  d E =-.599058E-01  mag=     4.0000
       N       E                     dE             d eps       ncg     rms          rms(c)
DAV:   1    -0.232802845430E+04    0.14967E+01   -0.93250E+01  4512   0.765E+00    0.295E+00
RMM:   2    -0.232967429362E+04   -0.16458E+01   -0.16244E+01  6573   0.178E+00    0.385E+00
RMM:   3    -0.232960461918E+04    0.69674E-01   -0.17041E+00  6404   0.673E-01    0.174E+00
RMM:   4    -0.232958587808E+04    0.18741E-01   -0.18504E-01  6331   0.156E-01    0.123E+00
RMM:   5    -0.232957787632E+04    0.80018E-02   -0.26762E-02  5954   0.662E-02    0.100E+00
RMM:   6    -0.232957259890E+04    0.52774E-02   -0.23950E-02  5668   0.669E-02    0.811E-01
RMM:   7    -0.232956753798E+04    0.50609E-02   -0.18789E-02  6019   0.614E-02    0.482E-01
RMM:   8    -0.232956547546E+04    0.20625E-02   -0.26111E-03  5669   0.281E-02    0.151E-01
RMM:   9    -0.232956517389E+04    0.30158E-03   -0.52616E-04  4197   0.131E-02    0.816E-02
RMM:  10    -0.232956507412E+04    0.99761E-04   -0.35323E-04  3917   0.112E-02    0.239E-02
RMM:  11    -0.232956506754E+04    0.65833E-05   -0.43889E-05  3132   0.562E-03
  24 F= -.23510741E+04 E0= -.23510741E+04  d E =-.102395E+00  mag=     4.0000
       N       E                     dE             d eps       ncg     rms          rms(c)
DAV:   1    -0.232893407403E+04    0.63100E+00   -0.39033E+01  4512   0.494E+00    0.186E+00
RMM:   2    -0.232961131444E+04   -0.67724E+00   -0.69706E+00  6559   0.113E+00    0.191E+00
RMM:   3    -0.232964166042E+04   -0.30346E-01   -0.76402E-01  6382   0.455E-01    0.130E+00
RMM:   4    -0.232962532121E+04    0.16339E-01   -0.75157E-02  6337   0.102E-01    0.654E-01
RMM:   5    -0.232962262299E+04    0.26982E-02   -0.10778E-02  5637   0.460E-02    0.537E-01
RMM:   6    -0.232962188951E+04    0.73348E-03   -0.85299E-03  5706   0.390E-02    0.492E-01
RMM:   7    -0.232962005573E+04    0.18338E-02   -0.47447E-03  5319   0.317E-02    0.250E-01
RMM:   8    -0.232961937255E+04    0.68318E-03   -0.10858E-03  4178   0.195E-02    0.801E-02
RMM:   9    -0.232961928873E+04    0.83817E-04   -0.16998E-04  3607   0.751E-03    0.708E-02
RMM:  10    -0.232961921668E+04    0.72049E-04   -0.19799E-04  3249   0.864E-03    0.145E-02
RMM:  11    -0.232961921289E+04    0.37951E-05   -0.36788E-05  2982   0.472E-03
  25 F= -.23511285E+04 E0= -.23511285E+04  d E =-.544102E-01  mag=     4.0000
       N       E                     dE             d eps       ncg     rms          rms(c)
DAV:   1    -0.232954629537E+04    0.72921E-01   -0.44682E+00  4656   0.164E+00    0.612E-01
RMM:   2    -0.232961872700E+04   -0.72432E-01   -0.76447E-01  6558   0.366E-01    0.476E-01
RMM:   3    -0.232962583788E+04   -0.71109E-02   -0.82828E-02  6242   0.151E-01    0.476E-01
RMM:   4    -0.232962356635E+04    0.22715E-02   -0.85449E-03  5867   0.349E-02    0.211E-01
RMM:   5    -0.232962323437E+04    0.33198E-03   -0.12537E-03  4680   0.160E-02    0.160E-01
RMM:   6    -0.232962314770E+04    0.86667E-04   -0.95622E-04  4480   0.148E-02    0.142E-01
RMM:   7    -0.232962306800E+04    0.79700E-04   -0.48301E-04  4324   0.112E-02    0.111E-01
RMM:   8    -0.232962294261E+04    0.12539E-03   -0.14909E-04  2958   0.800E-03    0.311E-02
RMM:   9    -0.232962292797E+04    0.14644E-04   -0.20058E-05  2963   0.372E-03    0.199E-02
RMM:  10    -0.232962292078E+04    0.71854E-05   -0.21685E-05  2910   0.350E-03
  26 F= -.23511322E+04 E0= -.23511322E+04  d E =-.581006E-01  mag=     4.0000
       N       E                     dE             d eps       ncg     rms          rms(c)
DAV:   1    -0.232957997222E+04    0.42956E-01   -0.37189E+00  4576   0.159E+00    0.580E-01
RMM:   2    -0.232965023714E+04   -0.70265E-01   -0.74837E-01  6554   0.360E-01    0.427E-01
RMM:   3    -0.232965740851E+04   -0.71714E-02   -0.77254E-02  6138   0.146E-01    0.477E-01
RMM:   4    -0.232965546784E+04    0.19407E-02   -0.81744E-03  5543   0.334E-02    0.237E-01
RMM:   5    -0.232965537935E+04    0.88491E-04   -0.14683E-03  4957   0.169E-02    0.243E-01
RMM:   6    -0.232965482379E+04    0.55556E-03   -0.11801E-03  4893   0.160E-02    0.130E-01
RMM:   7    -0.232965481506E+04    0.87295E-05   -0.59538E-04  4238   0.121E-02    0.110E-01
RMM:   8    -0.232965468119E+04    0.13387E-03   -0.19532E-04  3020   0.823E-03    0.306E-02
RMM:   9    -0.232965466799E+04    0.13203E-04   -0.24474E-05  2967   0.420E-03    0.169E-02
RMM:  10    -0.232965466384E+04    0.41453E-05   -0.13401E-05  2912   0.322E-03
  27 F= -.23511635E+04 E0= -.23511635E+04  d E =-.313273E-01  mag=     4.0000
       N       E                     dE             d eps       ncg     rms          rms(c)
DAV:   1    -0.232960633467E+04    0.48333E-01   -0.29187E+00  4568   0.141E+00    0.515E-01
RMM:   2    -0.232966140911E+04   -0.55074E-01   -0.58710E-01  6531   0.318E-01    0.376E-01
RMM:   3    -0.232966702292E+04   -0.56138E-02   -0.60519E-02  6081   0.129E-01    0.421E-01
RMM:   4    -0.232966552641E+04    0.14965E-02   -0.64055E-03  5249   0.295E-02    0.210E-01
RMM:   5    -0.232966544340E+04    0.83015E-04   -0.11666E-03  4751   0.153E-02    0.212E-01
RMM:   6    -0.232966502425E+04    0.41915E-03   -0.95481E-04  4671   0.145E-02    0.117E-01
RMM:   7    -0.232966501494E+04    0.93084E-05   -0.46520E-04  3924   0.109E-02    0.988E-02
RMM:   8    -0.232966490636E+04    0.10858E-03   -0.15310E-04  2998   0.765E-03    0.264E-02
RMM:   9    -0.232966489589E+04    0.10469E-04   -0.20092E-05  2959   0.388E-03    0.146E-02
RMM:  10    -0.232966489247E+04    0.34159E-05   -0.10878E-05  2909   0.306E-03
  28 F= -.23511733E+04 E0= -.23511733E+04  d E =-.411352E-01  mag=     4.0000
       N       E                     dE             d eps       ncg     rms          rms(c)
DAV:   1    -0.232964278185E+04    0.22114E-01   -0.25905E+00  4544   0.140E+00    0.481E-01
RMM:   2    -0.232968893744E+04   -0.46156E-01   -0.49391E-01  6473   0.299E-01    0.331E-01
RMM:   3    -0.232969427364E+04   -0.53362E-02   -0.51888E-02  6014   0.123E-01    0.428E-01
RMM:   4    -0.232969262750E+04    0.16461E-02   -0.52749E-03  4826   0.274E-02    0.174E-01
RMM:   5    -0.232969248487E+04    0.14262E-03   -0.93151E-04  4514   0.145E-02    0.150E-01
RMM:   6    -0.232969234207E+04    0.14280E-03   -0.67974E-04  4441   0.125E-02    0.108E-01
RMM:   7    -0.232969228974E+04    0.52335E-04   -0.28583E-04  3670   0.946E-03    0.723E-02
RMM:   8    -0.232969223701E+04    0.52726E-04   -0.10088E-04  2986   0.685E-03    0.297E-02
RMM:   9    -0.232969222578E+04    0.11226E-04   -0.17050E-05  2937   0.352E-03    0.118E-02
RMM:  10    -0.232969222394E+04    0.18483E-05   -0.69462E-06  2890   0.268E-03
  29 F= -.23512004E+04 E0= -.23512004E+04  d E =-.270403E-01  mag=     4.0000
       N       E                     dE             d eps       ncg     rms          rms(c)
DAV:   1    -0.232941587304E+04    0.27635E+00   -0.15734E+01  4512   0.344E+00    0.120E+00
RMM:   2    -0.232970152625E+04   -0.28565E+00   -0.30451E+00  6482   0.752E-01    0.865E-01
RMM:   3    -0.232973214557E+04   -0.30619E-01   -0.32573E-01  6195   0.305E-01    0.102E+00
RMM:   4    -0.232972256101E+04    0.95846E-02   -0.31792E-02  6232   0.685E-02    0.459E-01
RMM:   5    -0.232972174298E+04    0.81803E-03   -0.55720E-03  5593   0.317E-02    0.415E-01
RMM:   6    -0.232972053918E+04    0.12038E-02   -0.40053E-03  5721   0.271E-02    0.284E-01
RMM:   7    -0.232971994103E+04    0.59816E-03   -0.19011E-03  5025   0.214E-02    0.124E-01
RMM:   8    -0.232971989329E+04    0.47737E-04   -0.64910E-04  3637   0.145E-02    0.108E-01
RMM:   9    -0.232971974943E+04    0.14386E-03   -0.14407E-04  3046   0.751E-03    0.342E-02
RMM:  10    -0.232971973297E+04    0.16463E-04   -0.54363E-05  2965   0.530E-03    0.127E-02
RMM:  11    -0.232971973067E+04    0.22939E-05   -0.14470E-05  2945   0.369E-03
  30 F= -.23512270E+04 E0= -.23512270E+04  d E =-.536902E-01  mag=     4.0000
       N       E                     dE             d eps       ncg     rms          rms(c)
DAV:   1    -0.232964419791E+04    0.75535E-01   -0.55407E+00  4512   0.209E+00    0.690E-01
RMM:   2    -0.232973633749E+04   -0.92140E-01   -0.98033E-01  6395   0.439E-01    0.477E-01
RMM:   3    -0.232974701146E+04   -0.10674E-01   -0.10677E-01  6032   0.181E-01    0.619E-01
RMM:   4    -0.232974356400E+04    0.34475E-02   -0.10406E-02  5783   0.404E-02    0.257E-01
RMM:   5    -0.232974280879E+04    0.75521E-03   -0.19154E-03  5019   0.221E-02    0.133E-01
RMM:   6    -0.232974290631E+04   -0.97518E-04   -0.12913E-03  5208   0.192E-02    0.137E-01
RMM:   7    -0.232974270423E+04    0.20207E-03   -0.38188E-04  3691   0.115E-02    0.568E-02
RMM:   8    -0.232974269261E+04    0.11623E-04   -0.10897E-04  2991   0.611E-03    0.562E-02
RMM:   9    -0.232974265874E+04    0.33871E-04   -0.54520E-05  2934   0.473E-03    0.223E-02
RMM:  10    -0.232974265305E+04    0.56912E-05   -0.14096E-05  2902   0.293E-03
  31 F= -.23512498E+04 E0= -.23512498E+04  d E =-.227714E-01  mag=     4.0000
       N       E                     dE             d eps       ncg     rms          rms(c)
DAV:   1    -0.232970828537E+04    0.34373E-01   -0.21768E+00  4576   0.131E+00    0.431E-01
RMM:   2    -0.232974432099E+04   -0.36036E-01   -0.38384E-01  6369   0.275E-01    0.294E-01
RMM:   3    -0.232974846074E+04   -0.41398E-02   -0.41116E-02  5955   0.113E-01    0.385E-01
RMM:   4    -0.232974715491E+04    0.13058E-02   -0.40763E-03  4698   0.253E-02    0.158E-01
RMM:   5    -0.232974688507E+04    0.26984E-03   -0.79197E-04  4392   0.148E-02    0.934E-02
RMM:   6    -0.232974696686E+04   -0.81793E-04   -0.53732E-04  4110   0.130E-02    0.115E-01
RMM:   7    -0.232974683115E+04    0.13572E-03   -0.18982E-04  3356   0.848E-03    0.395E-02
RMM:   8    -0.232974682775E+04    0.34000E-05   -0.56806E-05  2938   0.578E-03
  32 F= -.23512539E+04 E0= -.23512539E+04  d E =-.268361E-01  mag=     4.0000
       N       E                     dE             d eps       ncg     rms          rms(c)
DAV:   1    -0.232973906736E+04    0.77638E-02   -0.10479E+00  4560   0.966E-01    0.320E-01
RMM:   2    -0.232975644898E+04   -0.17382E-01   -0.18054E-01  6141   0.207E-01    0.295E-01
RMM:   3    -0.232975785222E+04   -0.14032E-02   -0.20664E-02  5921   0.903E-02    0.284E-01
RMM:   4    -0.232975700887E+04    0.84335E-03   -0.20035E-03  4886   0.204E-02    0.123E-01
RMM:   5    -0.232975699153E+04    0.17345E-04   -0.44608E-04  3392   0.107E-02    0.127E-01
RMM:   6    -0.232975684682E+04    0.14470E-03   -0.40527E-04  4196   0.113E-02    0.745E-02
RMM:   7    -0.232975683694E+04    0.98803E-05   -0.21665E-04  3199   0.899E-03    0.643E-02
RMM:   8    -0.232975678651E+04    0.50435E-04   -0.49982E-05  2941   0.601E-03    0.138E-02
RMM:   9    -0.232975678226E+04    0.42420E-05   -0.12445E-05  2938   0.362E-03
  33 F= -.23512639E+04 E0= -.23512639E+04  d E =-.100317E-01  mag=     4.0000
       N       E                     dE             d eps       ncg     rms          rms(c)
DAV:   1    -0.232974680269E+04    0.99838E-02   -0.70450E-01  4616   0.795E-01    0.261E-01
RMM:   2    -0.232975846173E+04   -0.11659E-01   -0.12114E-01  6154   0.169E-01    0.235E-01
RMM:   3    -0.232975940747E+04   -0.94574E-03   -0.13787E-02  5831   0.746E-02    0.227E-01
RMM:   4    -0.232975885733E+04    0.55014E-03   -0.13226E-03  4131   0.168E-02    0.100E-01
RMM:   5    -0.232975884498E+04    0.12351E-04   -0.29998E-04  3175   0.933E-03    0.104E-01
RMM:   6    -0.232975874781E+04    0.97163E-04   -0.27665E-04  3856   0.958E-03    0.622E-02
RMM:   7    -0.232975873926E+04    0.85491E-05   -0.14247E-04  3051   0.783E-03    0.533E-02
RMM:   8    -0.232975870389E+04    0.35375E-04   -0.34795E-05  2923   0.527E-03    0.114E-02
RMM:   9    -0.232975870053E+04    0.33587E-05   -0.92321E-06  2912   0.332E-03
  34 F= -.23512659E+04 E0= -.23512659E+04  d E =-.120210E-01  mag=     4.0000
       N       E                     dE             d eps       ncg     rms          rms(c)
DAV:   1    -0.232974919505E+04    0.95088E-02   -0.91105E-01  4544   0.906E-01    0.286E-01
RMM:   2    -0.232976670159E+04   -0.17507E-01   -0.17633E-01  6407   0.194E-01    0.325E-01
RMM:   3    -0.232976759595E+04   -0.89436E-03   -0.20069E-02  6075   0.789E-02    0.232E-01
RMM:   4    -0.232976706286E+04    0.53309E-03   -0.19177E-03  4043   0.180E-02    0.111E-01
RMM:   5    -0.232976699809E+04    0.64771E-04   -0.25245E-04  3012   0.792E-03    0.934E-02
RMM:   6    -0.232976692540E+04    0.72686E-04   -0.21289E-04  3284   0.807E-03    0.685E-02
RMM:   7    -0.232976690411E+04    0.21288E-04   -0.16305E-04  3021   0.768E-03    0.503E-02
RMM:   8    -0.232976687837E+04    0.25748E-04   -0.41438E-05  2962   0.539E-03    0.116E-02
RMM:   9    -0.232976687684E+04    0.15305E-05   -0.78495E-06  2908   0.352E-03
  35 F= -.23512740E+04 E0= -.23512740E+04  d E =-.808184E-02  mag=     4.0000
       N       E                     dE             d eps       ncg     rms          rms(c)
DAV:   1    -0.232962717854E+04    0.13970E+00   -0.76728E+00  4512   0.263E+00    0.834E-01
RMM:   2    -0.232977601825E+04   -0.14884E+00   -0.14916E+00  6410   0.561E-01    0.986E-01
RMM:   3    -0.232978300310E+04   -0.69848E-02   -0.17739E-01  6305   0.231E-01    0.674E-01
RMM:   4    -0.232977836547E+04    0.46376E-02   -0.15930E-02  5923   0.513E-02    0.314E-01
RMM:   5    -0.232977787815E+04    0.48732E-03   -0.21226E-03  4789   0.193E-02    0.270E-01
RMM:   6    -0.232977721903E+04    0.65912E-03   -0.18196E-03  5183   0.205E-02    0.185E-01
RMM:   7    -0.232977716761E+04    0.51425E-04   -0.13822E-03  4844   0.182E-02    0.162E-01
RMM:   8    -0.232977688562E+04    0.28199E-03   -0.35149E-04  3882   0.108E-02    0.349E-02
RMM:   9    -0.232977687067E+04    0.14944E-04   -0.57433E-05  2984   0.638E-03    0.245E-02
RMM:  10    -0.232977686597E+04    0.47020E-05   -0.22929E-05  2914   0.388E-03
  36 F= -.23512837E+04 E0= -.23512837E+04  d E =-.178425E-01  mag=     4.0000
       N       E                     dE             d eps       ncg     rms          rms(c)
DAV:   1    -0.232975946533E+04    0.17405E-01   -0.14347E+00  4576   0.112E+00    0.351E-01
RMM:   2    -0.232978672932E+04   -0.27264E-01   -0.27245E-01  6388   0.237E-01    0.429E-01
RMM:   3    -0.232978793522E+04   -0.12059E-02   -0.31581E-02  6113   0.971E-02    0.288E-01
RMM:   4    -0.232978712825E+04    0.80698E-03   -0.29232E-03  4525   0.216E-02    0.133E-01
RMM:   5    -0.232978706828E+04    0.59964E-04   -0.37094E-04  3119   0.947E-03    0.128E-01
RMM:   6    -0.232978688828E+04    0.18000E-03   -0.35635E-04  3851   0.103E-02    0.682E-02
RMM:   7    -0.232978689445E+04   -0.61695E-05   -0.24077E-04  3272   0.924E-03    0.659E-02
RMM:   8    -0.232978684715E+04    0.47308E-04   -0.65161E-05  2970   0.623E-03    0.136E-02
RMM:   9    -0.232978684414E+04    0.30059E-05   -0.11991E-05  2936   0.379E-03
  37 F= -.23512933E+04 E0= -.23512933E+04  d E =-.957478E-02  mag=     4.0000
       N       E                     dE             d eps       ncg     rms          rms(c)
DAV:   1    -0.232954052355E+04    0.24632E+00   -0.12907E+01  4512   0.336E+00    0.107E+00
RMM:   2    -0.232979399866E+04   -0.25348E+00   -0.24976E+00  6380   0.722E-01    0.142E+00
RMM:   3    -0.232979770496E+04   -0.37063E-02   -0.29304E-01  6261   0.297E-01    0.789E-01
RMM:   4    -0.232979148441E+04    0.62206E-02   -0.25827E-02  5781   0.637E-02    0.377E-01
RMM:   5    -0.232979118709E+04    0.29732E-03   -0.35075E-03  5321   0.256E-02    0.401E-01
RMM:   6    -0.232978935133E+04    0.18358E-02   -0.31798E-03  5337   0.269E-02    0.178E-01
RMM:   7    -0.232978946415E+04   -0.11281E-03   -0.19111E-03  5143   0.229E-02    0.181E-01
RMM:   8    -0.232978909388E+04    0.37027E-03   -0.53947E-04  4094   0.123E-02    0.454E-02
RMM:   9    -0.232978906184E+04    0.32036E-04   -0.82027E-05  3037   0.631E-03    0.312E-02
RMM:  10    -0.232978905107E+04    0.10767E-04   -0.39313E-05  2915   0.485E-03    0.916E-03
RMM:  11    -0.232978905027E+04    0.80145E-06   -0.84298E-06  2917   0.327E-03
  38 F= -.23512944E+04 E0= -.23512944E+04  d E =-.106466E-01  mag=     4.0000
       N       E                     dE             d eps       ncg     rms          rms(c)
DAV:   1    -0.232973835943E+04    0.50692E-01   -0.28724E+00  4528   0.158E+00    0.494E-01
RMM:   2    -0.232979200157E+04   -0.53642E-01   -0.54499E-01  6376   0.334E-01    0.537E-01
RMM:   3    -0.232979560296E+04   -0.36014E-02   -0.62937E-02  6189   0.138E-01    0.418E-01
RMM:   4    -0.232979387710E+04    0.17259E-02   -0.59672E-03  5542   0.311E-02    0.197E-01
RMM:   5    -0.232979370765E+04    0.16945E-03   -0.76431E-04  3639   0.125E-02    0.177E-01
RMM:   6    -0.232979340776E+04    0.29989E-03   -0.68179E-04  4323   0.134E-02    0.116E-01
RMM:   7    -0.232979335097E+04    0.56790E-04   -0.54827E-04  3879   0.125E-02    0.906E-02
RMM:   8    -0.232979326505E+04    0.85924E-04   -0.13849E-04  3234   0.781E-03    0.214E-02
RMM:   9    -0.232979325671E+04    0.83393E-05   -0.21408E-05  2965   0.512E-03
  39 F= -.23512991E+04 E0= -.23512991E+04  d E =-.153744E-01  mag=     4.0000
       N       E                     dE             d eps       ncg     rms          rms(c)
DAV:   1    -0.232976938600E+04    0.23879E-01   -0.14457E+00  4544   0.111E+00    0.382E-01
RMM:   2    -0.232980190107E+04   -0.32515E-01   -0.32682E-01  6359   0.247E-01    0.466E-01
RMM:   3    -0.232980359703E+04   -0.16960E-02   -0.39441E-02  6147   0.105E-01    0.313E-01
RMM:   4    -0.232980259673E+04    0.10003E-02   -0.35026E-03  4817   0.232E-02    0.131E-01
RMM:   5    -0.232980254435E+04    0.52382E-04   -0.40152E-04  3180   0.973E-03    0.137E-01
RMM:   6    -0.232980230745E+04    0.23689E-03   -0.34228E-04  3789   0.101E-02    0.540E-02
RMM:   7    -0.232980229575E+04    0.11704E-04   -0.20598E-04  3705   0.905E-03    0.353E-02
RMM:   8    -0.232980228536E+04    0.10390E-04   -0.47033E-05  2926   0.604E-03    0.212E-02
RMM:   9    -0.232980227879E+04    0.65671E-05   -0.98555E-06  2884   0.321E-03
  40 F= -.23513075E+04 E0= -.23513075E+04  d E =-.839769E-02  mag=     4.0000
       N       E                     dE             d eps       ncg     rms          rms(c)
DAV:   1    -0.232964813482E+04    0.15415E+00   -0.70749E+00  4512   0.246E+00    0.857E-01
RMM:   2    -0.232981145468E+04   -0.16332E+00   -0.16269E+00  6368   0.555E-01    0.110E+00
RMM:   3    -0.232981625488E+04   -0.48002E-02   -0.19570E-01  6218   0.237E-01    0.640E-01
RMM:   4    -0.232981212091E+04    0.41340E-02   -0.17206E-02  5860   0.509E-02    0.289E-01
RMM:   5    -0.232981182189E+04    0.29902E-03   -0.19528E-03  4995   0.194E-02    0.298E-01
RMM:   6    -0.232981076772E+04    0.10542E-02   -0.16473E-03  5127   0.194E-02    0.133E-01
RMM:   7    -0.232981078530E+04   -0.17582E-04   -0.10966E-03  5095   0.171E-02    0.127E-01
RMM:   8    -0.232981059523E+04    0.19007E-03   -0.34696E-04  3426   0.104E-02    0.384E-02
RMM:   9    -0.232981057305E+04    0.22181E-04   -0.47398E-05  2991   0.568E-03    0.238E-02
RMM:  10    -0.232981056436E+04    0.86841E-05   -0.28887E-05  2909   0.461E-03
  41 F= -.23513144E+04 E0= -.23513144E+04  d E =-.153411E-01  mag=     4.0000
       N       E                     dE             d eps       ncg     rms          rms(c)
DAV:   1    -0.232977142041E+04    0.39153E-01   -0.20527E+00  4544   0.133E+00    0.465E-01
RMM:   2    -0.232981822161E+04   -0.46801E-01   -0.47182E-01  6304   0.300E-01    0.539E-01
RMM:   3    -0.232982088592E+04   -0.26643E-02   -0.56231E-02  6157   0.127E-01    0.367E-01
RMM:   4    -0.232981947930E+04    0.14066E-02   -0.50572E-03  5358   0.281E-02    0.154E-01
RMM:   5    -0.232981940745E+04    0.71852E-04   -0.59168E-04  3400   0.113E-02    0.157E-01
RMM:   6    -0.232981911352E+04    0.29393E-03   -0.45389E-04  4092   0.115E-02    0.722E-02
RMM:   7    -0.232981912246E+04   -0.89457E-05   -0.33425E-04  3946   0.105E-02    0.679E-02
RMM:   8    -0.232981906751E+04    0.54958E-04   -0.99020E-05  2947   0.710E-03    0.202E-02
RMM:   9    -0.232981906200E+04    0.55063E-05   -0.15776E-05  2948   0.405E-03
  42 F= -.23513223E+04 E0= -.23513223E+04  d E =-.787659E-02  mag=     4.0000
       N       E                     dE             d eps       ncg     rms          rms(c)
DAV:   1    -0.232963443377E+04    0.18463E+00   -0.81934E+00  4512   0.265E+00    0.937E-01
RMM:   2    -0.232982461971E+04   -0.19019E+00   -0.19055E+00  6304   0.606E-01    0.113E+00
RMM:   3    -0.232983269319E+04   -0.80735E-02   -0.22907E-01  6184   0.261E-01    0.704E-01
RMM:   4    -0.232982756474E+04    0.51284E-02   -0.20233E-02  6006   0.559E-02    0.310E-01
RMM:   5    -0.232982716850E+04    0.39624E-03   -0.23048E-03  5092   0.211E-02    0.304E-01
RMM:   6    -0.232982614318E+04    0.10253E-02   -0.17617E-03  5179   0.204E-02    0.158E-01
RMM:   7    -0.232982615778E+04   -0.14599E-04   -0.13610E-03  5190   0.183E-02    0.153E-01
RMM:   8    -0.232982587891E+04    0.27887E-03   -0.43218E-04  4039   0.117E-02    0.398E-02
RMM:   9    -0.232982585654E+04    0.22370E-04   -0.64421E-05  3034   0.609E-03    0.262E-02
RMM:  10    -0.232982584704E+04    0.95011E-05   -0.29568E-05  2906   0.480E-03
  43 F= -.23513279E+04 E0= -.23513279E+04  d E =-.134463E-01  mag=     4.0000
       N       E                     dE             d eps       ncg     rms          rms(c)
DAV:   1    -0.232978180396E+04    0.44053E-01   -0.21275E+00  4544   0.129E+00    0.459E-01
RMM:   2    -0.232983300707E+04   -0.51203E-01   -0.51608E-01  6456   0.301E-01    0.545E-01
RMM:   3    -0.232983588447E+04   -0.28774E-02   -0.60894E-02  6200   0.127E-01    0.350E-01
RMM:   4    -0.232983463989E+04    0.12446E-02   -0.54194E-03  5055   0.276E-02    0.154E-01
RMM:   5    -0.232983456303E+04    0.76860E-04   -0.54580E-04  3248   0.104E-02    0.156E-01
RMM:   6    -0.232983429067E+04    0.27236E-03   -0.40210E-04  3461   0.104E-02    0.803E-02
RMM:   7    -0.232983426367E+04    0.27004E-04   -0.33305E-04  3862   0.101E-02    0.505E-02
RMM:   8    -0.232983423911E+04    0.24555E-04   -0.78514E-05  2952   0.676E-03    0.261E-02
RMM:   9    -0.232983422999E+04    0.91176E-05   -0.13061E-05  2901   0.324E-03
  44 F= -.23513359E+04 E0= -.23513359E+04  d E =-.803109E-02  mag=     4.0000
       N       E                     dE             d eps       ncg     rms          rms(c)
DAV:   1    -0.232936602719E+04    0.46821E+00   -0.19126E+01  4512   0.388E+00    0.141E+00
RMM:   2    -0.232984538947E+04   -0.47936E+00   -0.47704E+00  6476   0.920E-01    0.183E+00
RMM:   3    -0.232985849373E+04   -0.13104E-01   -0.56473E-01  6308   0.387E-01    0.990E-01
RMM:   4    -0.232984867995E+04    0.98138E-02   -0.48968E-02  6122   0.818E-02    0.478E-01
RMM:   5    -0.232984745908E+04    0.12209E-02   -0.49362E-03  5519   0.292E-02    0.443E-01
RMM:   6    -0.232984556061E+04    0.18985E-02   -0.36820E-03  5516   0.267E-02    0.266E-01
RMM:   7    -0.232984543367E+04    0.12695E-03   -0.31646E-03  5358   0.249E-02    0.227E-01
RMM:   8    -0.232984485730E+04    0.57636E-03   -0.99130E-04  4379   0.160E-02    0.686E-02
RMM:   9    -0.232984479880E+04    0.58502E-04   -0.13289E-04  3126   0.718E-03    0.430E-02
RMM:  10    -0.232984477790E+04    0.20901E-04   -0.58949E-05  2915   0.591E-03    0.123E-02
RMM:  11    -0.232984477553E+04    0.23740E-05   -0.16728E-05  2944   0.358E-03
  45 F= -.23513455E+04 E0= -.23513455E+04  d E =-.175646E-01  mag=     4.0000
       N       E                     dE             d eps       ncg     rms          rms(c)
DAV:   1    -0.232978289135E+04    0.61887E-01   -0.28892E+00  4528   0.149E+00    0.548E-01
RMM:   2    -0.232985172382E+04   -0.68832E-01   -0.69666E-01  6479   0.350E-01    0.626E-01
RMM:   3    -0.232985546598E+04   -0.37422E-02   -0.80211E-02  6236   0.148E-01    0.416E-01
RMM:   4    -0.232985369558E+04    0.17704E-02   -0.74327E-03  5585   0.327E-02    0.186E-01
RMM:   5    -0.232985358010E+04    0.11547E-03   -0.77920E-04  3553   0.122E-02    0.182E-01
RMM:   6    -0.232985322111E+04    0.35900E-03   -0.57952E-04  3988   0.119E-02    0.101E-01
RMM:   7    -0.232985321176E+04    0.93476E-05   -0.55815E-04  4198   0.121E-02    0.911E-02
RMM:   8    -0.232985311743E+04    0.94328E-04   -0.14330E-04  2962   0.783E-03    0.218E-02
RMM:   9    -0.232985310893E+04    0.84976E-05   -0.22052E-05  2963   0.420E-03
  46 F= -.23513535E+04 E0= -.23513535E+04  d E =-.804493E-02  mag=     4.0000
       N       E                     dE             d eps       ncg     rms          rms(c)
DAV:   1    -0.232976719527E+04    0.85922E-01   -0.36194E+00  4512   0.167E+00    0.614E-01
RMM:   2    -0.232985357410E+04   -0.86379E-01   -0.87530E-01  6445   0.392E-01    0.696E-01
RMM:   3    -0.232985823679E+04   -0.46627E-02   -0.99732E-02  6235   0.165E-01    0.466E-01
RMM:   4    -0.232985602621E+04    0.22106E-02   -0.92837E-03  5746   0.367E-02    0.211E-01
RMM:   5    -0.232985587383E+04    0.15238E-03   -0.99330E-04  3802   0.134E-02    0.203E-01
RMM:   6    -0.232985542880E+04    0.44504E-03   -0.73545E-04  4235   0.131E-02    0.114E-01
RMM:   7    -0.232985541434E+04    0.14455E-04   -0.70660E-04  4442   0.134E-02    0.103E-01
RMM:   8    -0.232985529434E+04    0.12000E-03   -0.18461E-04  2994   0.847E-03    0.250E-02
RMM:   9    -0.232985528339E+04    0.10956E-04   -0.27121E-05  2970   0.461E-03    0.199E-02
RMM:  10    -0.232985527728E+04    0.61009E-05   -0.18951E-05  2902   0.361E-03
  47 F= -.23513553E+04 E0= -.23513553E+04  d E =-.988560E-02  mag=     4.0000
       N       E                     dE             d eps       ncg     rms          rms(c)
DAV:   1    -0.232978237919E+04    0.72904E-01   -0.32630E+00  4544   0.159E+00    0.580E-01
RMM:   2    -0.232986116806E+04   -0.78789E-01   -0.79880E-01  6442   0.369E-01    0.652E-01
RMM:   3    -0.232986544096E+04   -0.42729E-02   -0.90883E-02  6241   0.156E-01    0.443E-01
RMM:   4    -0.232986355427E+04    0.18867E-02   -0.85900E-03  5627   0.345E-02    0.213E-01
RMM:   5    -0.232986334014E+04    0.21414E-03   -0.92190E-04  3666   0.127E-02    0.187E-01
RMM:   6    -0.232986296127E+04    0.37886E-03   -0.69810E-04  4254   0.129E-02    0.116E-01
RMM:   7    -0.232986294478E+04    0.16497E-04   -0.65848E-04  4145   0.128E-02    0.109E-01
RMM:   8    -0.232986281353E+04    0.13125E-03   -0.20168E-04  3337   0.858E-03    0.218E-02
RMM:   9    -0.232986280704E+04    0.64851E-05   -0.25915E-05  2966   0.530E-03
  48 F= -.23513623E+04 E0= -.23513623E+04  d E =-.694353E-02  mag=     4.0000
       N       E                     dE             d eps       ncg     rms          rms(c)
DAV:   1    -0.232976929622E+04    0.93517E-01   -0.39055E+00  4512   0.174E+00    0.636E-01
RMM:   2    -0.232986372112E+04   -0.94425E-01   -0.95856E-01  6461   0.405E-01    0.708E-01
RMM:   3    -0.232986885090E+04   -0.51298E-02   -0.10916E-01  6252   0.171E-01    0.481E-01
RMM:   4    -0.232986663746E+04    0.22134E-02   -0.10287E-02  5749   0.378E-02    0.235E-01
RMM:   5    -0.232986636904E+04    0.26842E-03   -0.10669E-03  3914   0.136E-02    0.204E-01
RMM:   6    -0.232986591674E+04    0.45230E-03   -0.83280E-04  4468   0.139E-02    0.127E-01
RMM:   7    -0.232986589479E+04    0.21950E-04   -0.79057E-04  4416   0.139E-02    0.119E-01
RMM:   8    -0.232986573692E+04    0.15787E-03   -0.24264E-04  3567   0.913E-03    0.244E-02
RMM:   9    -0.232986572817E+04    0.87456E-05   -0.31194E-05  2977   0.541E-03
  49 F= -.23513645E+04 E0= -.23513645E+04  d E =-.920825E-02  mag=     4.0000
       N       E                     dE             d eps       ncg     rms          rms(c)
DAV:   1    -0.232984678790E+04    0.18949E-01   -0.14480E+00  4544   0.108E+00    0.363E-01
RMM:   2    -0.232987188415E+04   -0.25096E-01   -0.26100E-01  6283   0.228E-01    0.331E-01
RMM:   3    -0.232987400780E+04   -0.21236E-02   -0.28514E-02  6063   0.967E-02    0.329E-01
RMM:   4    -0.232987293019E+04    0.10776E-02   -0.28753E-03  4765   0.226E-02    0.136E-01
RMM:   5    -0.232987286005E+04    0.70145E-04   -0.48120E-04  3338   0.108E-02    0.124E-01
RMM:   6    -0.232987269904E+04    0.16101E-03   -0.39337E-04  4080   0.113E-02    0.683E-02
RMM:   7    -0.232987271104E+04   -0.12000E-04   -0.23350E-04  3345   0.926E-03    0.715E-02
RMM:   8    -0.232987265464E+04    0.56395E-04   -0.71660E-05  2989   0.656E-03    0.130E-02
RMM:   9    -0.232987265198E+04    0.26664E-05   -0.10568E-05  2925   0.385E-03
  50 F= -.23513708E+04 E0= -.23513708E+04  d E =-.626733E-02  mag=     4.0000
       N       E                     dE             d eps       ncg     rms          rms(c)
DAV:   1    -0.232985865430E+04    0.14000E-01   -0.86968E-01  4544   0.839E-01    0.281E-01
RMM:   2    -0.232987370003E+04   -0.15046E-01   -0.15656E-01  6245   0.177E-01    0.254E-01
RMM:   3    -0.232987499275E+04   -0.12927E-02   -0.17139E-02  5931   0.764E-02    0.254E-01
RMM:   4    -0.232987434729E+04    0.64547E-03   -0.17296E-03  3787   0.176E-02    0.105E-01
RMM:   5    -0.232987430406E+04    0.43228E-04   -0.28805E-04  3067   0.909E-03    0.961E-02
RMM:   6    -0.232987420754E+04    0.96517E-04   -0.24281E-04  3612   0.920E-03    0.537E-02
RMM:   7    -0.232987421264E+04   -0.51031E-05   -0.14098E-04  3043   0.786E-03    0.549E-02
RMM:   8    -0.232987417935E+04    0.33292E-04   -0.43705E-05  2943   0.560E-03    0.997E-03
RMM:   9    -0.232987417766E+04    0.16900E-05   -0.72342E-06  2906   0.344E-03
  51 F= -.23513718E+04 E0= -.23513718E+04  d E =-.728136E-02  mag=     4.0000
       N       E                     dE             d eps       ncg     rms          rms(c)
DAV:   1    -0.232985206735E+04    0.22112E-01   -0.15980E+00  4544   0.115E+00    0.351E-01
RMM:   2    -0.232987822874E+04   -0.26161E-01   -0.27225E-01  6362   0.234E-01    0.331E-01
RMM:   3    -0.232988051362E+04   -0.22849E-02   -0.28839E-02  5950   0.967E-02    0.343E-01
RMM:   4    -0.232987932168E+04    0.11919E-02   -0.29065E-03  4590   0.224E-02    0.124E-01
RMM:   5    -0.232987928605E+04    0.35632E-04   -0.47137E-04  3504   0.109E-02    0.124E-01
RMM:   6    -0.232987912170E+04    0.16434E-03   -0.39427E-04  4068   0.109E-02    0.650E-02
RMM:   7    -0.232987913566E+04   -0.13959E-04   -0.20450E-04  3306   0.880E-03    0.688E-02
RMM:   8    -0.232987908310E+04    0.52565E-04   -0.67675E-05  2971   0.644E-03    0.140E-02
RMM:   9    -0.232987907986E+04    0.32382E-05   -0.10082E-05  2921   0.333E-03
  52 F= -.23513762E+04 E0= -.23513762E+04  d E =-.438193E-02  mag=     4.0000
       N       E                     dE             d eps       ncg     rms          rms(c)
DAV:   1    -0.232987288979E+04    0.61933E-02   -0.40075E-01  4672   0.576E-01    0.176E-01
RMM:   2    -0.232987944252E+04   -0.65527E-02   -0.68451E-02  6326   0.118E-01    0.160E-01
RMM:   3    -0.232988004290E+04   -0.60038E-03   -0.71896E-03  5264   0.486E-02    0.174E-01
RMM:   4    -0.232987973961E+04    0.30329E-03   -0.73172E-04  3052   0.116E-02    0.626E-02
RMM:   5    -0.232987972981E+04    0.98024E-05   -0.12156E-04  2992   0.624E-03    0.622E-02
RMM:   6    -0.232987968806E+04    0.41750E-04   -0.10159E-04  2994   0.612E-03    0.326E-02
RMM:   7    -0.232987969238E+04   -0.43150E-05   -0.54002E-05  2963   0.553E-03
  53 F= -.23513766E+04 E0= -.23513766E+04  d E =-.473338E-02  mag=     4.0000
       N       E                     dE             d eps       ncg     rms          rms(c)
DAV:   1    -0.232986231015E+04    0.17378E-01   -0.14843E+00  4528   0.117E+00    0.331E-01
RMM:   2    -0.232988327800E+04   -0.20968E-01   -0.22211E-01  6289   0.230E-01    0.252E-01
RMM:   3    -0.232988554288E+04   -0.22649E-02   -0.22679E-02  5668   0.958E-02    0.320E-01
RMM:   4    -0.232988451762E+04    0.10253E-02   -0.23539E-03  4647   0.216E-02    0.113E-01
RMM:   5    -0.232988439719E+04    0.12043E-03   -0.42374E-04  4098   0.122E-02    0.839E-02
RMM:   6    -0.232988439978E+04   -0.25909E-05   -0.30752E-04  3645   0.105E-02    0.873E-02
RMM:   7    -0.232988432392E+04    0.75865E-04   -0.12238E-04  3260   0.832E-03    0.278E-02
RMM:   8    -0.232988431774E+04    0.61825E-05   -0.30882E-05  2920   0.571E-03
  54 F= -.23513810E+04 E0= -.23513810E+04  d E =-.443956E-02  mag=     4.0000
       N       E                     dE             d eps       ncg     rms          rms(c)
DAV:   1    -0.232986925654E+04    0.15067E-01   -0.10535E+00  4512   0.983E-01    0.279E-01
RMM:   2    -0.232988419925E+04   -0.14943E-01   -0.15757E-01  6226   0.193E-01    0.228E-01
RMM:   3    -0.232988578227E+04   -0.15830E-02   -0.16167E-02  5605   0.785E-02    0.280E-01
RMM:   4    -0.232988498156E+04    0.80071E-03   -0.16791E-03  4135   0.183E-02    0.937E-02
RMM:   5    -0.232988490758E+04    0.73983E-04   -0.30004E-04  3731   0.106E-02    0.756E-02
RMM:   6    -0.232988489583E+04    0.11753E-04   -0.21971E-04  3315   0.915E-03    0.707E-02
RMM:   7    -0.232988484549E+04    0.50337E-04   -0.87487E-05  3118   0.774E-03    0.227E-02
RMM:   8    -0.232988484179E+04    0.36993E-05   -0.23222E-05  2911   0.551E-03
  55 F= -.23513814E+04 E0= -.23513814E+04  d E =-.481056E-02  mag=     4.0000
       N       E                     dE             d eps       ncg     rms          rms(c)
DAV:   1    -0.232987933537E+04    0.55101E-02   -0.59032E-01  4544   0.740E-01    0.204E-01
RMM:   2    -0.232988738623E+04   -0.80509E-02   -0.85169E-02  6267   0.141E-01    0.158E-01
RMM:   3    -0.232988826565E+04   -0.87942E-03   -0.87023E-03  5252   0.561E-02    0.196E-01
RMM:   4    -0.232988788547E+04    0.38018E-03   -0.91004E-04  3166   0.133E-02    0.697E-02
RMM:   5    -0.232988786387E+04    0.21601E-04   -0.15509E-04  3020   0.763E-03    0.618E-02
RMM:   6    -0.232988783140E+04    0.32466E-04   -0.12376E-04  3033   0.708E-03    0.374E-02
RMM:   7    -0.232988782982E+04    0.15770E-05   -0.53396E-05  2968   0.619E-03
  56 F= -.23513842E+04 E0= -.23513842E+04  d E =-.281381E-02  mag=     4.0000
       N       E                     dE             d eps       ncg     rms          rms(c)
DAV:   1    -0.232981650848E+04    0.71323E-01   -0.53125E+00  4512   0.222E+00    0.610E-01
RMM:   2    -0.232988882091E+04   -0.72312E-01   -0.76480E-01  6335   0.424E-01    0.468E-01
RMM:   3    -0.232989654828E+04   -0.77274E-02   -0.78809E-02  5801   0.172E-01    0.572E-01
RMM:   4    -0.232989339016E+04    0.31581E-02   -0.81532E-03  5930   0.389E-02    0.219E-01
RMM:   5    -0.232989310940E+04    0.28076E-03   -0.13285E-03  4861   0.178E-02    0.180E-01
RMM:   6    -0.232989286535E+04    0.24405E-03   -0.11269E-03  5028   0.168E-02    0.123E-01
RMM:   7    -0.232989280613E+04    0.59220E-04   -0.48981E-04  4423   0.132E-02    0.867E-02
RMM:   8    -0.232989272365E+04    0.82481E-04   -0.12790E-04  2979   0.781E-03    0.310E-02
RMM:   9    -0.232989271073E+04    0.12921E-04   -0.22341E-05  2942   0.417E-03    0.156E-02
RMM:  10    -0.232989270803E+04    0.26994E-05   -0.12010E-05  2920   0.292E-03
  57 F= -.23513886E+04 E0= -.23513886E+04  d E =-.717926E-02  mag=     4.0000
       N       E                     dE             d eps       ncg     rms          rms(c)
DAV:   1    -0.232989351342E+04   -0.80269E-03   -0.30747E-01  4576   0.544E-01    0.162E-01
RMM:   2    -0.232989695704E+04   -0.34436E-02   -0.36770E-02  5913   0.106E-01    0.118E-01
RMM:   3    -0.232989729755E+04   -0.34051E-03   -0.38044E-03  4731   0.459E-02    0.141E-01
RMM:   4    -0.232989710031E+04    0.19723E-03   -0.41095E-04  3212   0.114E-02    0.639E-02
RMM:   5    -0.232989709187E+04    0.84414E-05   -0.13952E-04  3073   0.838E-03    0.587E-02
RMM:   6    -0.232989705416E+04    0.37711E-04   -0.10966E-04  3213   0.815E-03    0.229E-02
RMM:   7    -0.232989705151E+04    0.26543E-05   -0.21194E-05  2944   0.572E-03
  58 F= -.23513925E+04 E0= -.23513925E+04  d E =-.393756E-02  mag=     4.0000
       N       E                     dE             d eps       ncg     rms          rms(c)
DAV:   1    -0.232989421686E+04    0.28373E-02   -0.40578E-01  4528   0.625E-01    0.189E-01
RMM:   2    -0.232989876811E+04   -0.45513E-02   -0.48849E-02  5890   0.123E-01    0.134E-01
RMM:   3    -0.232989923566E+04   -0.46755E-03   -0.50974E-03  5079   0.573E-02    0.162E-01
RMM:   4    -0.232989897028E+04    0.26538E-03   -0.54448E-04  3564   0.131E-02    0.728E-02
RMM:   5    -0.232989896119E+04    0.90855E-05   -0.18770E-04  3317   0.972E-03    0.678E-02
RMM:   6    -0.232989891497E+04    0.46221E-04   -0.13542E-04  3388   0.871E-03    0.322E-02
RMM:   7    -0.232989891530E+04   -0.33314E-06   -0.39941E-05  2955   0.632E-03
  59 F= -.23513939E+04 E0= -.23513939E+04  d E =-.533692E-02  mag=     4.0000
       N       E                     dE             d eps       ncg     rms          rms(c)
DAV:   1    -0.232989830962E+04    0.60535E-03   -0.23777E-01  4576   0.483E-01    0.139E-01
RMM:   2    -0.232990078154E+04   -0.24719E-02   -0.25900E-02  6051   0.916E-02    0.114E-01
RMM:   3    -0.232990101492E+04   -0.23338E-03   -0.27591E-03  4368   0.395E-02    0.129E-01
RMM:   4    -0.232990083030E+04    0.18462E-03   -0.28278E-04  3010   0.101E-02    0.512E-02
RMM:   5    -0.232990082644E+04    0.38635E-05   -0.97749E-05  2999   0.685E-03
  60 F= -.23513955E+04 E0= -.23513955E+04  d E =-.162429E-02  mag=     4.0000
       N       E                     dE             d eps       ncg     rms          rms(c)
DAV:   1    -0.232989821736E+04    0.26129E-02   -0.28654E-01  4544   0.530E-01    0.155E-01
RMM:   2    -0.232990127006E+04   -0.30527E-02   -0.31220E-02  6104   0.101E-01    0.150E-01
RMM:   3    -0.232990142910E+04   -0.15904E-03   -0.33522E-03  4947   0.423E-02    0.133E-01
RMM:   4    -0.232990122944E+04    0.19966E-03   -0.33995E-04  3140   0.109E-02    0.605E-02
RMM:   5    -0.232990123654E+04   -0.70971E-05   -0.13741E-04  2979   0.764E-03    0.642E-02
RMM:   6    -0.232990119450E+04    0.42036E-04   -0.10287E-04  3278   0.749E-03    0.326E-02
RMM:   7    -0.232990119334E+04    0.11597E-05   -0.39721E-05  2935   0.587E-03
  61 F= -.23513956E+04 E0= -.23513956E+04  d E =-.167663E-02  mag=     4.0000
       N       E                     dE             d eps       ncg     rms          rms(c)
DAV:   1    -0.232990073952E+04    0.45498E-03   -0.49268E-02  4640   0.220E-01    0.611E-02
RMM:   2    -0.232990125287E+04   -0.51335E-03   -0.52373E-03  5996   0.417E-02    0.584E-02
RMM:   3    -0.232990128811E+04   -0.35239E-04   -0.56015E-04  3098   0.164E-02    0.578E-02
RMM:   4    -0.232990124854E+04    0.39572E-04   -0.55135E-05  2942   0.496E-03    0.222E-02
RMM:   5    -0.232990124861E+04   -0.69762E-07   -0.21110E-05  2906   0.318E-03
  62 F= -.23513958E+04 E0= -.23513958E+04  d E =-.186081E-02  mag=     4.0000
       N       E                     dE             d eps       ncg     rms          rms(c)
DAV:   1    -0.232990115993E+04    0.88606E-04   -0.18292E-01  4544   0.436E-01    0.124E-01
RMM:   2    -0.232990308131E+04   -0.19214E-02   -0.18928E-02  6055   0.826E-02    0.137E-01
RMM:   3    -0.232990314095E+04   -0.59639E-04   -0.19327E-03  4204   0.329E-02    0.112E-01
RMM:   4    -0.232990299659E+04    0.14436E-03   -0.20686E-04  3056   0.943E-03    0.415E-02
RMM:   5    -0.232990300142E+04   -0.48355E-05   -0.69107E-05  2965   0.648E-03
  63 F= -.23513974E+04 E0= -.23513974E+04  d E =-.166151E-02  mag=     4.0000
       N       E                     dE             d eps       ncg     rms          rms(c)
DAV:   1    -0.232989952856E+04    0.34680E-02   -0.44732E-01  4512   0.683E-01    0.198E-01
RMM:   2    -0.232990431676E+04   -0.47882E-02   -0.46419E-02  6163   0.130E-01    0.233E-01
RMM:   3    -0.232990429977E+04    0.16982E-04   -0.48691E-03  5558   0.507E-02    0.162E-01
RMM:   4    -0.232990399088E+04    0.30889E-03   -0.50734E-04  4288   0.139E-02    0.661E-02
RMM:   5    -0.232990404725E+04   -0.56371E-04   -0.20407E-04  3165   0.997E-03    0.961E-02
RMM:   6    -0.232990394325E+04    0.10400E-03   -0.13788E-04  3817   0.901E-03    0.244E-02
RMM:   7    -0.232990394671E+04   -0.34660E-05   -0.35330E-05  2946   0.633E-03
  64 F= -.23513982E+04 E0= -.23513982E+04  d E =-.246353E-02  mag=     4.0000
       N       E                     dE             d eps       ncg     rms          rms(c)
DAV:   1    -0.232990328078E+04    0.66247E-03   -0.21162E-01  4544   0.456E-01    0.127E-01
RMM:   2    -0.232990551197E+04   -0.22312E-02   -0.21707E-02  6186   0.872E-02    0.150E-01
RMM:   3    -0.232990553640E+04   -0.24434E-04   -0.22376E-03  4494   0.345E-02    0.108E-01
RMM:   4    -0.232990539996E+04    0.13644E-03   -0.22512E-04  3032   0.911E-03    0.408E-02
RMM:   5    -0.232990541243E+04   -0.12462E-04   -0.71036E-05  2977   0.591E-03    0.538E-02
RMM:   6    -0.232990537955E+04    0.32878E-04   -0.51215E-05  2986   0.569E-03    0.158E-02
RMM:   7    -0.232990538095E+04   -0.14013E-05   -0.16840E-05  2936   0.461E-03
  65 F= -.23513996E+04 E0= -.23513996E+04  d E =-.134167E-02  mag=     4.0000
       N       E                     dE             d eps       ncg     rms          rms(c)
DAV:   1    -0.232990104085E+04    0.43387E-02   -0.52278E-01  4512   0.716E-01    0.199E-01
RMM:   2    -0.232990657242E+04   -0.55316E-02   -0.53545E-02  6253   0.137E-01    0.240E-01
RMM:   3    -0.232990659831E+04   -0.25891E-04   -0.55043E-03  5382   0.530E-02    0.167E-01
RMM:   4    -0.232990627105E+04    0.32726E-03   -0.55760E-04  3846   0.133E-02    0.639E-02
RMM:   5    -0.232990630121E+04   -0.30162E-04   -0.16953E-04  3075   0.857E-03    0.848E-02
RMM:   6    -0.232990621812E+04    0.83095E-04   -0.12806E-04  3515   0.822E-03    0.242E-02
RMM:   7    -0.232990622013E+04   -0.20075E-05   -0.34994E-05  2968   0.612E-03
  66 F= -.23514003E+04 E0= -.23514003E+04  d E =-.203663E-02  mag=     4.0000
       N       E                     dE             d eps       ncg     rms          rms(c)
DAV:   1    -0.232990537602E+04    0.84209E-03   -0.24493E-01  4512   0.492E-01    0.137E-01
RMM:   2    -0.232990806508E+04   -0.26891E-02   -0.25733E-02  6202   0.944E-02    0.174E-01
RMM:   3    -0.232990803018E+04    0.34899E-04   -0.26179E-03  4642   0.370E-02    0.113E-01
RMM:   4    -0.232990788454E+04    0.14563E-03   -0.26157E-04  3064   0.959E-03    0.434E-02
RMM:   5    -0.232990790003E+04   -0.15484E-04   -0.81271E-05  2988   0.630E-03    0.595E-02
RMM:   6    -0.232990786022E+04    0.39811E-04   -0.58414E-05  2983   0.616E-03    0.165E-02
RMM:   7    -0.232990786011E+04    0.10409E-06   -0.14976E-05  2951   0.467E-03
  67 F= -.23514017E+04 E0= -.23514017E+04  d E =-.143885E-02  mag=     4.0000
       N       E                     dE             d eps       ncg     rms          rms(c)
DAV:   1    -0.232990020279E+04    0.76574E-02   -0.90753E-01  4512   0.947E-01    0.262E-01
RMM:   2    -0.232991024130E+04   -0.10039E-01   -0.94955E-02  6198   0.180E-01    0.349E-01
RMM:   3    -0.232990996897E+04    0.27233E-03   -0.95927E-03  5640   0.687E-02    0.209E-01
RMM:   4    -0.232990946542E+04    0.50355E-03   -0.98220E-04  4598   0.171E-02    0.828E-02
RMM:   5    -0.232990952519E+04   -0.59770E-04   -0.28628E-04  3483   0.108E-02    0.116E-01
RMM:   6    -0.232990937227E+04    0.15292E-03   -0.21796E-04  4071   0.102E-02    0.314E-02
RMM:   7    -0.232990936973E+04    0.25308E-05   -0.41189E-05  3000   0.678E-03
  68 F= -.23514028E+04 E0= -.23514028E+04  d E =-.256364E-02  mag=     4.0000
       N       E                     dE             d eps       ncg     rms          rms(c)
DAV:   1    -0.232990762575E+04    0.17465E-02   -0.33980E-01  4528   0.597E-01    0.178E-01
RMM:   2    -0.232991174957E+04   -0.41238E-02   -0.38523E-02  6012   0.114E-01    0.238E-01
RMM:   3    -0.232991157666E+04    0.17291E-03   -0.40032E-03  5139   0.463E-02    0.141E-01
RMM:   4    -0.232991134741E+04    0.22925E-03   -0.40486E-04  3406   0.114E-02    0.552E-02
RMM:   5    -0.232991135888E+04   -0.11477E-04   -0.12926E-04  3008   0.758E-03    0.676E-02
RMM:   6    -0.232991131218E+04    0.46705E-04   -0.94672E-05  3273   0.740E-03    0.276E-02
RMM:   7    -0.232991131490E+04   -0.27202E-05   -0.36572E-05  2932   0.592E-03
  69 F= -.23514045E+04 E0= -.23514045E+04  d E =-.167441E-02  mag=     4.0000
       N       E                     dE             d eps       ncg     rms          rms(c)
DAV:   1    -0.232990936151E+04    0.19507E-02   -0.23546E-01  4544   0.497E-01    0.147E-01
RMM:   2    -0.232991220208E+04   -0.28406E-02   -0.26694E-02  6043   0.950E-02    0.194E-01
RMM:   3    -0.232991211384E+04    0.88244E-04   -0.27923E-03  4637   0.392E-02    0.119E-01
RMM:   4    -0.232991194738E+04    0.16645E-03   -0.27579E-04  3086   0.986E-03    0.435E-02
RMM:   5    -0.232991195694E+04   -0.95619E-05   -0.89500E-05  3009   0.667E-03
  70 F= -.23514049E+04 E0= -.23514049E+04  d E =-.209109E-02  mag=     4.0000
       N       E                     dE             d eps       ncg     rms          rms(c)
DAV:   1    -0.232990891314E+04    0.30342E-02   -0.40937E-01  4512   0.642E-01    0.189E-01
RMM:   2    -0.232991415068E+04   -0.52375E-02   -0.49305E-02  6248   0.124E-01    0.258E-01
RMM:   3    -0.232991397564E+04    0.17504E-03   -0.52389E-03  5314   0.486E-02    0.144E-01
RMM:   4    -0.232991372956E+04    0.24608E-03   -0.51076E-04  3707   0.124E-02    0.568E-02
RMM:   5    -0.232991374160E+04   -0.12041E-04   -0.16389E-04  3440   0.909E-03    0.705E-02
RMM:   6    -0.232991369530E+04    0.46296E-04   -0.90482E-05  3037   0.732E-03    0.315E-02
RMM:   7    -0.232991368857E+04    0.67337E-05   -0.20192E-05  2939   0.516E-03
  71 F= -.23514064E+04 E0= -.23514064E+04  d E =-.147682E-02  mag=     4.0000
       N       E                     dE             d eps       ncg     rms          rms(c)
DAV:   1    -0.232990959325E+04    0.41021E-02   -0.40711E-01  4512   0.640E-01    0.192E-01
RMM:   2    -0.232991498918E+04   -0.53959E-02   -0.49825E-02  6134   0.124E-01    0.280E-01
RMM:   3    -0.232991465988E+04    0.32929E-03   -0.52466E-03  5244   0.501E-02    0.142E-01
RMM:   4    -0.232991442287E+04    0.23702E-03   -0.51897E-04  3712   0.123E-02    0.536E-02
RMM:   5    -0.232991442303E+04   -0.16115E-06   -0.13300E-04  3355   0.860E-03    0.630E-02
RMM:   6    -0.232991439067E+04    0.32355E-04   -0.85586E-05  2985   0.729E-03    0.332E-02
RMM:   7    -0.232991438274E+04    0.79328E-05   -0.22509E-05  2930   0.517E-03
  72 F= -.23514068E+04 E0= -.23514068E+04  d E =-.191735E-02  mag=     4.0000
       N       E                     dE             d eps       ncg     rms          rms(c)
DAV:   1    -0.232991044032E+04    0.39504E-02   -0.51555E-01  4512   0.704E-01    0.214E-01
RMM:   2    -0.232991705051E+04   -0.66102E-02   -0.60235E-02  6161   0.137E-01    0.318E-01
RMM:   3    -0.232991655620E+04    0.49431E-03   -0.61532E-03  5353   0.551E-02    0.153E-01
RMM:   4    -0.232991628556E+04    0.27063E-03   -0.62556E-04  3815   0.129E-02    0.591E-02
RMM:   5    -0.232991629203E+04   -0.64616E-05   -0.15633E-04  3472   0.906E-03    0.715E-02
RMM:   6    -0.232991624877E+04    0.43258E-04   -0.10193E-04  3035   0.759E-03    0.375E-02
RMM:   7    -0.232991623724E+04    0.11526E-04   -0.23640E-05  2944   0.531E-03    0.790E-03
RMM:   8    -0.232991623694E+04    0.29843E-06   -0.59245E-06  2898   0.336E-03
  73 F= -.23514083E+04 E0= -.23514083E+04  d E =-.149959E-02  mag=     4.0000
       N       E                     dE             d eps       ncg     rms          rms(c)
DAV:   1    -0.232991421890E+04    0.20183E-02   -0.22660E-01  4560   0.467E-01    0.142E-01
RMM:   2    -0.232991716101E+04   -0.29421E-02   -0.26557E-02  6136   0.905E-02    0.217E-01
RMM:   3    -0.232991690257E+04    0.25844E-03   -0.26769E-03  4363   0.331E-02    0.992E-02
RMM:   4    -0.232991678944E+04    0.11314E-03   -0.27227E-04  3053   0.889E-03    0.389E-02
RMM:   5    -0.232991678794E+04    0.14995E-05   -0.69423E-05  3064   0.641E-03
  74 F= -.23514086E+04 E0= -.23514086E+04  d E =-.181490E-02  mag=     4.0000
       N       E                     dE             d eps       ncg     rms          rms(c)
DAV:   1    -0.232991303165E+04    0.37578E-02   -0.40417E-01  4512   0.639E-01    0.196E-01
RMM:   2    -0.232991940852E+04   -0.63769E-02   -0.59933E-02  6414   0.131E-01    0.276E-01
RMM:   3    -0.232991921990E+04    0.18862E-03   -0.61772E-03  5447   0.486E-02    0.148E-01
RMM:   4    -0.232991896997E+04    0.24993E-03   -0.60482E-04  3505   0.123E-02    0.581E-02
RMM:   5    -0.232991896917E+04    0.80078E-06   -0.14518E-04  3221   0.849E-03    0.644E-02
RMM:   6    -0.232991893835E+04    0.30815E-04   -0.91551E-05  3036   0.721E-03    0.401E-02
RMM:   7    -0.232991892464E+04    0.13716E-04   -0.26761E-05  2927   0.536E-03    0.111E-02
RMM:   8    -0.232991892418E+04    0.45101E-06   -0.75795E-06  2877   0.354E-03
  75 F= -.23514104E+04 E0= -.23514104E+04  d E =-.177337E-02  mag=     4.0000
       N       E                     dE             d eps       ncg     rms          rms(c)
DAV:   1    -0.232990442986E+04    0.14495E-01   -0.11224E+00  4512   0.106E+00    0.332E-01
RMM:   2    -0.232992271596E+04   -0.18286E-01   -0.16730E-01  6215   0.216E-01    0.514E-01
RMM:   3    -0.232992148793E+04    0.12280E-02   -0.16930E-02  5807   0.799E-02    0.233E-01
RMM:   4    -0.232992087165E+04    0.61628E-03   -0.17207E-03  4738   0.195E-02    0.917E-02
RMM:   5    -0.232992084097E+04    0.30680E-04   -0.32305E-04  4265   0.125E-02    0.967E-02
RMM:   6    -0.232992078907E+04    0.51898E-04   -0.23398E-04  3489   0.946E-03    0.693E-02
RMM:   7    -0.232992074217E+04    0.46896E-04   -0.62547E-05  2989   0.707E-03    0.136E-02
RMM:   8    -0.232992074083E+04    0.13439E-05   -0.13702E-05  2929   0.434E-03
  76 F= -.23514116E+04 E0= -.23514116E+04  d E =-.298377E-02  mag=     4.0000
       N       E                     dE             d eps       ncg     rms          rms(c)
DAV:   1    -0.232991662954E+04    0.41126E-02   -0.41260E-01  4512   0.634E-01    0.207E-01
RMM:   2    -0.232992381222E+04   -0.71827E-02   -0.64583E-02  6243   0.130E-01    0.337E-01
RMM:   3    -0.232992317028E+04    0.64194E-03   -0.65327E-03  5381   0.477E-02    0.137E-01
RMM:   4    -0.232992296537E+04    0.20491E-03   -0.65613E-04  3353   0.116E-02    0.547E-02
RMM:   5    -0.232992294711E+04    0.18256E-04   -0.12024E-04  3145   0.773E-03    0.508E-02
RMM:   6    -0.232992293642E+04    0.10699E-04   -0.87991E-05  2961   0.706E-03    0.379E-02
RMM:   7    -0.232992292438E+04    0.12039E-04   -0.28341E-05  2930   0.516E-03    0.183E-02
RMM:   8    -0.232992292118E+04    0.31995E-05   -0.82636E-06  2882   0.337E-03
  77 F= -.23514134E+04 E0= -.23514134E+04  d E =-.177982E-02  mag=     4.0000
       N       E                     dE             d eps       ncg     rms          rms(c)
[...]
RMM:   2    -0.233004687991E+04   -0.10126E-05   -0.11416E-05  2605   0.315E-03
 243 F= -.23515046E+04 E0= -.23515046E+04  d E =-.333035E-04  mag=     4.0000
       N       E                     dE             d eps       ncg     rms          rms(c)
DAV:   1    -0.233004695117E+04   -0.72276E-04   -0.59920E-03  4512   0.687E-02    0.326E-02
RMM:   2    -0.233004698093E+04   -0.29753E-04   -0.21958E-04  4328   0.135E-02    0.405E-02
RMM:   3    -0.233004696992E+04    0.11009E-04   -0.38936E-05  2955   0.745E-03    0.279E-02
RMM:   4    -0.233004696131E+04    0.86076E-05   -0.78585E-06  2886   0.293E-03
 244 F= -.23515046E+04 E0= -.23515046E+04  d E =-.368168E-04  mag=     4.0000
       N       E                     dE             d eps       ncg     rms          rms(c)
DAV:   1    -0.233004696521E+04    0.47066E-05   -0.29236E-05  4240   0.592E-03    0.157E-02
RMM:   2    -0.233004699467E+04   -0.29457E-04   -0.40618E-05  2794   0.368E-03    0.518E-02
RMM:   3    -0.233004696255E+04    0.32122E-04   -0.14747E-05  2281   0.234E-03    0.469E-03
RMM:   4    -0.233004696249E+04    0.58149E-07   -0.15487E-06  1544   0.903E-04
 245 F= -.23515046E+04 E0= -.23515046E+04  d E =-.356188E-04  mag=     4.0000
       N       E                     dE             d eps       ncg     rms          rms(c)
DAV:   1    -0.233004700624E+04   -0.43689E-04   -0.48136E-03  4528   0.606E-02    0.267E-02
RMM:   2    -0.233004701928E+04   -0.13048E-04   -0.14131E-04  4054   0.105E-02    0.216E-02
RMM:   3    -0.233004702400E+04   -0.47130E-05   -0.24177E-05  2937   0.635E-03
 246 F= -.23515046E+04 E0= -.23515046E+04  d E =-.391651E-04  mag=     4.0000
       N       E                     dE             d eps       ncg     rms          rms(c)
DAV:   1    -0.233004701345E+04    0.58362E-05   -0.27334E-05  4072   0.526E-03    0.742E-03
RMM:   2    -0.233004701485E+04   -0.14052E-05   -0.54514E-06  2378   0.203E-03
 247 F= -.23515046E+04 E0= -.23515046E+04  d E =-.297445E-04  mag=     4.0000
       N       E                     dE             d eps       ncg     rms          rms(c)
DAV:   1    -0.233004706626E+04   -0.52815E-04   -0.43657E-03  4512   0.606E-02    0.266E-02
RMM:   2    -0.233004707595E+04   -0.96889E-05   -0.13567E-04  3847   0.112E-02    0.148E-02
RMM:   3    -0.233004708273E+04   -0.67797E-05   -0.21265E-05  2939   0.705E-03
 248 F= -.23515047E+04 E0= -.23515047E+04  d E =-.353798E-04  mag=     4.0000
       N       E                     dE             d eps       ncg     rms          rms(c)
DAV:   1    -0.233004707368E+04    0.22697E-05   -0.24118E-05  4016   0.529E-03    0.680E-03
RMM:   2    -0.233004707531E+04   -0.16314E-05   -0.33650E-06  2365   0.207E-03
 249 F= -.23515047E+04 E0= -.23515047E+04  d E =-.277065E-04  mag=     4.0000
       N       E                     dE             d eps       ncg     rms          rms(c)
DAV:   1    -0.233004712608E+04   -0.52394E-04   -0.31992E-03  4512   0.527E-02    0.224E-02
RMM:   2    -0.233004713628E+04   -0.10206E-04   -0.13650E-04  3683   0.101E-02    0.109E-02
RMM:   3    -0.233004713634E+04   -0.60623E-07   -0.13422E-05  2891   0.613E-03
 250 F= -.23515047E+04 E0= -.23515047E+04  d E =-.218505E-04  mag=     4.0000
       N       E                     dE             d eps       ncg     rms          rms(c)
DAV:   1    -0.233004714259E+04   -0.63034E-05   -0.10847E-04  5328   0.104E-02    0.109E-02
RMM:   2    -0.233004715229E+04   -0.97089E-05   -0.15484E-05  2629   0.286E-03
 251 F= -.23515047E+04 E0= -.23515047E+04  d E =-.306631E-04  mag=     4.0000
       N       E                     dE             d eps       ncg     rms          rms(c)
DAV:   1    -0.233004716492E+04   -0.22337E-04   -0.29873E-03  4528   0.521E-02    0.221E-02
RMM:   2    -0.233004718292E+04   -0.18000E-04   -0.18430E-04  3781   0.110E-02    0.203E-02
RMM:   3    -0.233004718457E+04   -0.16421E-05   -0.22203E-05  2919   0.632E-03
 252 F= -.23515047E+04 E0= -.23515047E+04  d E =-.155685E-04  mag=     4.0000
       N       E                     dE             d eps       ncg     rms          rms(c)
DAV:   1    -0.233004717983E+04    0.30897E-05   -0.30843E-05  4280   0.622E-03    0.662E-03
RMM:   2    -0.233004718048E+04   -0.64888E-06   -0.48164E-06  2430   0.268E-03
 253 F= -.23515047E+04 E0= -.23515047E+04  d E =-.100073E-04  mag=     4.0000
       N       E                     dE             d eps       ncg     rms          rms(c)
DAV:   1    -0.233004721335E+04   -0.33519E-04   -0.23655E-03  4512   0.439E-02    0.202E-02
RMM:   2    -0.233004721869E+04   -0.53374E-05   -0.70005E-05  3477   0.803E-03
 254 F= -.23515047E+04 E0= -.23515047E+04  d E =-.237411E-04  mag=     4.0000
       N       E                     dE             d eps       ncg     rms          rms(c)
DAV:   1    -0.233004722729E+04   -0.13936E-04   -0.17421E-04  5328   0.140E-02    0.249E-02
RMM:   2    -0.233004730333E+04   -0.76042E-04   -0.97848E-05  2967   0.516E-03    0.856E-02
RMM:   3    -0.233004722108E+04    0.82247E-04   -0.35633E-05  2760   0.394E-03    0.675E-03
RMM:   4    -0.233004722225E+04   -0.11647E-05   -0.48051E-06  2199   0.134E-03
 255 F= -.23515047E+04 E0= -.23515047E+04  d E =-.238250E-04  mag=     4.0000
       N       E                     dE             d eps       ncg     rms          rms(c)
DAV:   1    -0.233004725681E+04   -0.35729E-04   -0.21378E-03  4528   0.428E-02    0.176E-02
RMM:   2    -0.233004726465E+04   -0.78369E-05   -0.96542E-05  3518   0.838E-03
 256 F= -.23515047E+04 E0= -.23515047E+04  d E =-.193100E-04  mag=     4.0000
       N       E                     dE             d eps       ncg     rms          rms(c)
DAV:   1    -0.233004726739E+04   -0.10573E-04   -0.21475E-05  4088   0.762E-03    0.195E-02
RMM:   2    -0.233004732248E+04   -0.55098E-04   -0.68963E-05  2876   0.381E-03    0.719E-02
RMM:   3    -0.233004726344E+04    0.59041E-04   -0.24245E-05  2404   0.293E-03    0.390E-03
RMM:   4    -0.233004726372E+04   -0.27887E-06   -0.26616E-06  1629   0.978E-04
 257 F= -.23515047E+04 E0= -.23515047E+04  d E =-.185220E-04  mag=     4.0000
       N       E                     dE             d eps       ncg     rms          rms(c)
DAV:   1    -0.233004728280E+04   -0.19357E-04   -0.21516E-03  4528   0.462E-02    0.195E-02
RMM:   2    -0.233004729869E+04   -0.15887E-04   -0.12994E-04  3673   0.897E-03    0.249E-02
RMM:   3    -0.233004729478E+04    0.39057E-05   -0.19680E-05  2857   0.552E-03
 258 F= -.23515048E+04 E0= -.23515048E+04  d E =-.211521E-04  mag=     4.0000
       N       E                     dE             d eps       ncg     rms          rms(c)
DAV:   1    -0.233004729215E+04    0.65383E-05   -0.20260E-05  4176   0.506E-03    0.540E-03
RMM:   2    -0.233004729256E+04   -0.40715E-06   -0.31255E-06  2366   0.199E-03
 259 F= -.23515048E+04 E0= -.23515048E+04  d E =-.179977E-04  mag=     4.0000
       N       E                     dE             d eps       ncg     rms          rms(c)
DAV:   1    -0.233004731661E+04   -0.24463E-04   -0.19238E-03  4512   0.425E-02    0.189E-02
RMM:   2    -0.233004732838E+04   -0.11772E-04   -0.94928E-05  3468   0.827E-03    0.228E-02
RMM:   3    -0.233004732579E+04    0.25977E-05   -0.16704E-05  2830   0.544E-03
 260 F= -.23515048E+04 E0= -.23515048E+04  d E =-.162557E-04  mag=     4.0000
       N       E                     dE             d eps       ncg     rms          rms(c)
DAV:   1    -0.233004732434E+04    0.40475E-05   -0.24860E-05  4280   0.556E-03    0.567E-03
RMM:   2    -0.233004732506E+04   -0.72113E-06   -0.36540E-06  2369   0.228E-03
 261 F= -.23515048E+04 E0= -.23515048E+04  d E =-.135575E-04  mag=     4.0000
       N       E                     dE             d eps       ncg     rms          rms(c)
DAV:   1    -0.233004736883E+04   -0.44491E-04   -0.13276E-03  4464   0.329E-02    0.152E-02
RMM:   2    -0.233004737327E+04   -0.44428E-05   -0.44596E-05  3156   0.636E-03
 262 F= -.23515048E+04 E0= -.23515048E+04  d E =-.185392E-04  mag=     4.0000
       N       E                     dE             d eps       ncg     rms          rms(c)
DAV:   1    -0.233004738060E+04   -0.11772E-04   -0.86450E-05  5144   0.976E-03    0.167E-02
RMM:   2    -0.233004741245E+04   -0.31846E-04   -0.40759E-05  2863   0.385E-03    0.558E-02
RMM:   3    -0.233004737791E+04    0.34533E-04   -0.15352E-05  2450   0.268E-03    0.506E-03
RMM:   4    -0.233004737879E+04   -0.87515E-06   -0.29291E-06  2048   0.117E-03
 263 F= -.23515048E+04 E0= -.23515048E+04  d E =-.178549E-04  mag=     4.0000
       N       E                     dE             d eps       ncg     rms          rms(c)
DAV:   1    -0.233004740648E+04   -0.28567E-04   -0.13161E-03  4512   0.348E-02    0.150E-02
RMM:   2    -0.233004741091E+04   -0.44329E-05   -0.54253E-05  3294   0.686E-03
 264 F= -.23515048E+04 E0= -.23515048E+04  d E =-.136505E-04  mag=     4.0000
       N       E                     dE             d eps       ncg     rms          rms(c)
DAV:   1    -0.233004741129E+04   -0.48070E-05   -0.30630E-05  4072   0.696E-03    0.158E-02
RMM:   2    -0.233004744278E+04   -0.31487E-04   -0.44046E-05  2793   0.412E-03    0.547E-02
RMM:   3    -0.233004740874E+04    0.34037E-04   -0.15429E-05  2183   0.272E-03    0.344E-03
RMM:   4    -0.233004740906E+04   -0.31950E-06   -0.18320E-06  1840   0.114E-03
 265 F= -.23515048E+04 E0= -.23515048E+04  d E =-.131052E-04  mag=     4.0000
       N       E                     dE             d eps       ncg     rms          rms(c)
DAV:   1    -0.233004742543E+04   -0.16695E-04   -0.11148E-03  4496   0.337E-02    0.142E-02
RMM:   2    -0.233004743014E+04   -0.47043E-05   -0.55855E-05  3224   0.665E-03
 266 F= -.23515048E+04 E0= -.23515048E+04  d E =-.116880E-04  mag=     4.0000
       N       E                     dE             d eps       ncg     rms          rms(c)
DAV:   1    -0.233004743262E+04   -0.71855E-05   -0.14822E-05  3960   0.590E-03    0.159E-02
RMM:   2    -0.233004746670E+04   -0.34080E-04   -0.44860E-05  2793   0.324E-03    0.556E-02
RMM:   3    -0.233004742996E+04    0.36734E-04   -0.15532E-05  2340   0.240E-03    0.403E-03
RMM:   4    -0.233004742992E+04    0.46566E-07   -0.13494E-06  1087   0.796E-04
 267 F= -.23515048E+04 E0= -.23515048E+04  d E =-.110945E-04  mag=     4.0000
       N       E                     dE             d eps       ncg     rms          rms(c)
DAV:   1    -0.233004744548E+04   -0.15518E-04   -0.77690E-04  4472   0.276E-02    0.115E-02
RMM:   2    -0.233004744908E+04   -0.36016E-05   -0.40079E-05  3012   0.541E-03
 268 F= -.23515048E+04 E0= -.23515048E+04  d E =-.917946E-05  mag=     4.0000
       N       E                     dE             d eps       ncg     rms          rms(c)
DAV:   1    -0.233004744857E+04   -0.30922E-05   -0.34549E-05  3720   0.727E-03    0.130E-02
RMM:   2    -0.233004747246E+04   -0.23887E-04   -0.31267E-05  2743   0.393E-03    0.469E-02
RMM:   3    -0.233004744710E+04    0.25364E-04   -0.11155E-05  2161   0.228E-03    0.278E-03
RMM:   4    -0.233004744714E+04   -0.48385E-07   -0.12014E-06  1603   0.107E-03
 269 F= -.23515048E+04 E0= -.23515048E+04  d E =-.893047E-05  mag=     4.0000
       N       E                     dE             d eps       ncg     rms          rms(c)
DAV:   1    -0.233004747020E+04   -0.23106E-04   -0.75901E-04  4456   0.283E-02    0.118E-02
RMM:   2    -0.233004747285E+04   -0.26444E-05   -0.33085E-05  2911   0.528E-03
 270 F= -.23515048E+04 E0= -.23515048E+04  d E =-.891177E-05  mag=     4.0000
       N       E                     dE             d eps       ncg     rms          rms(c)
DAV:   1    -0.233004747531E+04   -0.51090E-05   -0.14816E-05  3640   0.504E-03    0.126E-02
RMM:   2    -0.233004749655E+04   -0.21236E-04   -0.27359E-05  2636   0.293E-03    0.446E-02
RMM:   3    -0.233004747365E+04    0.22893E-04   -0.96445E-06  2239   0.200E-03    0.358E-03
RMM:   4    -0.233004747360E+04    0.52838E-07   -0.74362E-07   881   0.722E-04
 271 F= -.23515048E+04 E0= -.23515048E+04  d E =-.864151E-05  mag=     4.0000
       N       E                     dE             d eps       ncg     rms          rms(c)
DAV:   1    -0.233004750447E+04   -0.30819E-04   -0.55934E-04  4376   0.235E-02    0.100E-02
RMM:   2    -0.233004750680E+04   -0.23268E-05   -0.28353E-05  2700   0.465E-03
 272 F= -.23515048E+04 E0= -.23515048E+04  d E =-.792512E-05  mag=     4.0000
       N       E                     dE             d eps       ncg     rms          rms(c)
DAV:   1    -0.233004750570E+04   -0.12274E-05   -0.69150E-06  3120   0.431E-03    0.902E-03
RMM:   2    -0.233004751378E+04   -0.80817E-05   -0.15248E-05  2323   0.254E-03
 273 F= -.23515049E+04 E0= -.23515049E+04  d E =-.164114E-04  mag=     4.0000
       N       E                     dE             d eps       ncg     rms          rms(c)
DAV:   1    -0.233004751509E+04   -0.93930E-05   -0.63622E-04  4392   0.261E-02    0.109E-02
RMM:   2    -0.233004752171E+04   -0.66192E-05   -0.65323E-05  2992   0.613E-03
 274 F= -.23515049E+04 E0= -.23515049E+04  d E =0.252037E-05  mag=     4.0000
       N       E                     dE             d eps       ncg     rms          rms(c)
DAV:   1    -0.233004751925E+04   -0.41555E-05   -0.22824E-05  3160   0.660E-03    0.823E-03
RMM:   2    -0.233004752612E+04   -0.68688E-05   -0.14674E-05  2336   0.373E-03
 275 F= -.23515049E+04 E0= -.23515049E+04  d E =-.350020E-05  mag=     4.0000
       N       E                     dE             d eps       ncg     rms          rms(c)
DAV:   1    -0.233004752540E+04   -0.61503E-05   -0.66959E-04  4464   0.275E-02    0.115E-02
RMM:   2    -0.233004752897E+04   -0.35689E-05   -0.28049E-05  2948   0.589E-03
 276 F= -.23515049E+04 E0= -.23515049E+04  d E =-.187557E-05  mag=     4.0000
       N       E                     dE             d eps       ncg     rms          rms(c)
DAV:   1    -0.233004752829E+04   -0.28913E-05   -0.17034E-05  3192   0.543E-03    0.105E-02
RMM:   2    -0.233004754311E+04   -0.14817E-04   -0.17452E-05  2514   0.271E-03    0.379E-02
RMM:   3    -0.233004752716E+04    0.15943E-04   -0.69340E-06  2057   0.185E-03    0.225E-03
RMM:   4    -0.233004752723E+04   -0.63184E-07   -0.77511E-07  1445   0.838E-04
 277 F= -.23515049E+04 E0= -.23515049E+04  d E =-.169819E-06  mag=     4.0000
       N       E                     dE             d eps       ncg     rms          rms(c)
DAV:   1    -0.233004753896E+04   -0.11794E-04   -0.45009E-04  4288   0.212E-02    0.871E-03
RMM:   2    -0.233004754077E+04   -0.18094E-05   -0.17934E-05  2488   0.416E-03
 278 F= -.23515049E+04 E0= -.23515049E+04  d E =-.837142E-05  mag=     4.0000
       N       E                     dE             d eps       ncg     rms          rms(c)
DAV:   1    -0.233004754170E+04   -0.27390E-05   -0.11833E-05  2880   0.423E-03    0.967E-03
RMM:   2    -0.233004755536E+04   -0.13660E-04   -0.16401E-05  2507   0.263E-03    0.361E-02
RMM:   3    -0.233004754076E+04    0.14593E-04   -0.59667E-06  2060   0.158E-03    0.208E-03
RMM:   4    -0.233004754076E+04    0.72469E-08   -0.53984E-07  1142   0.752E-04
 279 F= -.23515049E+04 E0= -.23515049E+04  d E =-.792000E-05  mag=     4.0000
       N       E                     dE             d eps       ncg     rms          rms(c)
DAV:   1    -0.233004755968E+04   -0.18916E-04   -0.43362E-04  4304   0.206E-02    0.851E-03
RMM:   2    -0.233004756164E+04   -0.19571E-05   -0.19300E-05  2491   0.403E-03
 280 F= -.23515049E+04 E0= -.23515049E+04  d E =-.846774E-05  mag=     4.0000
       N       E                     dE             d eps       ncg     rms          rms(c)
DAV:   1    -0.233004756621E+04   -0.65248E-05   -0.43611E-05  4592   0.731E-03    0.994E-03
RMM:   2    -0.233004757898E+04   -0.12779E-04   -0.17471E-05  2559   0.307E-03    0.349E-02
RMM:   3    -0.233004756542E+04    0.13565E-04   -0.58862E-06  2198   0.183E-03    0.259E-03
RMM:   4    -0.233004756532E+04    0.98036E-07   -0.56353E-07  1360   0.822E-04
 281 F= -.23515049E+04 E0= -.23515049E+04  d E =-.856696E-05  mag=     4.0000
       N       E                     dE             d eps       ncg     rms          rms(c)
DAV:   1    -0.233004758280E+04   -0.17383E-04   -0.30779E-04  4256   0.169E-02    0.719E-03
RMM:   2    -0.233004758437E+04   -0.15715E-05   -0.14190E-05  2397   0.336E-03
 282 F= -.23515049E+04 E0= -.23515049E+04  d E =-.567995E-05  mag=     4.0000
       N       E                     dE             d eps       ncg     rms          rms(c)
DAV:   1    -0.233004758431E+04   -0.15093E-05   -0.41151E-06  2560   0.307E-03    0.662E-03
RMM:   2    -0.233004758994E+04   -0.56292E-05   -0.68943E-06  1828   0.146E-03
 283 F= -.23515049E+04 E0= -.23515049E+04  d E =-.111852E-04  mag=     4.0000
       N       E                     dE             d eps       ncg     rms          rms(c)
DAV:   1    -0.233004759736E+04   -0.13052E-04   -0.21831E-04  4384   0.149E-02    0.667E-03
RMM:   2    -0.233004759896E+04   -0.15984E-05   -0.14476E-05  2404   0.318E-03
 284 F= -.23515049E+04 E0= -.23515049E+04  d E =0.311865E-06  mag=     4.0000
       N       E                     dE             d eps       ncg     rms          rms(c)
DAV:   1    -0.233004760391E+04   -0.65421E-05   -0.47300E-05  4360   0.714E-03    0.671E-03
RMM:   2    -0.233004760729E+04   -0.33874E-05   -0.85483E-06  2342   0.266E-03
 285 F= -.23515049E+04 E0= -.23515049E+04  d E =-.376737E-05  mag=     4.0000
       N       E                     dE             d eps       ncg     rms          rms(c)
DAV:   1    -0.233004761370E+04   -0.97984E-05   -0.20284E-04  4352   0.136E-02    0.690E-03
RMM:   2    -0.233004761421E+04   -0.50587E-06   -0.83261E-06  2350   0.316E-03
 286 F= -.23515049E+04 E0= -.23515049E+04  d E =-.373840E-05  mag=     4.0000
       N       E                     dE             d eps       ncg     rms          rms(c)
DAV:   1    -0.233004761674E+04   -0.30316E-05   -0.29008E-05  3496   0.571E-03    0.944E-03
RMM:   2    -0.233004762884E+04   -0.12109E-04   -0.16141E-05  2537   0.350E-03    0.338E-02
RMM:   3    -0.233004761606E+04    0.12789E-04   -0.55611E-06  2200   0.169E-03    0.231E-03
RMM:   4    -0.233004761605E+04    0.78144E-08   -0.53301E-07  1670   0.891E-04
 287 F= -.23515049E+04 E0= -.23515049E+04  d E =-.440190E-05  mag=     4.0000
       N       E                     dE             d eps       ncg     rms          rms(c)
DAV:   1    -0.233004762473E+04   -0.86769E-05   -0.18714E-04  4208   0.123E-02    0.531E-03
RMM:   2    -0.233004762538E+04   -0.65228E-06   -0.73339E-06  2339   0.257E-03
 288 F= -.23515049E+04 E0= -.23515049E+04  d E =-.552848E-05  mag=     4.0000
       N       E                     dE             d eps       ncg     rms          rms(c)
DAV:   1    -0.233004762815E+04   -0.34135E-05   -0.39636E-05  3856   0.618E-03    0.638E-03
RMM:   2    -0.233004763181E+04   -0.36601E-05   -0.73741E-06  2337   0.264E-03
 289 F= -.23515049E+04 E0= -.23515049E+04  d E =-.101983E-04  mag=     4.0000
       N       E                     dE             d eps       ncg     rms          rms(c)
DAV:   1    -0.233004763814E+04   -0.99969E-05   -0.19877E-04  4344   0.132E-02    0.647E-03
RMM:   2    -0.233004763963E+04   -0.14828E-05   -0.15734E-05  2372   0.326E-03
 290 F= -.23515049E+04 E0= -.23515049E+04  d E =-.241632E-05  mag=     4.0000
       N       E                     dE             d eps       ncg     rms          rms(c)
DAV:   1    -0.233004764537E+04   -0.72246E-05   -0.10382E-04  4504   0.951E-03    0.831E-03
RMM:   2    -0.233004765113E+04   -0.57659E-05   -0.15359E-05  2525   0.293E-03
 291 F= -.23515049E+04 E0= -.23515049E+04  d E =-.100240E-04  mag=     4.0000
       N       E                     dE             d eps       ncg     rms          rms(c)
DAV:   1    -0.233004766052E+04   -0.15156E-04   -0.19777E-04  4296   0.131E-02    0.722E-03
RMM:   2    -0.233004766140E+04   -0.87428E-06   -0.83132E-06  2386   0.318E-03
 292 F= -.23515049E+04 E0= -.23515049E+04  d E =-.151111E-05  mag=     4.0000
