       N       E                     dE             d eps       ncg     rms          rms(c)
DAV:   1     0.131510564206E+05    0.13151E+05   -0.84365E+05  4528   0.145E+03
DAV:   2    -0.998899024684E+03   -0.14150E+05   -0.13513E+05  4968   0.332E+02
DAV:   3    -0.247699887848E+04   -0.14781E+04   -0.14598E+04  5528   0.116E+02
DAV:   4    -0.252384547669E+04   -0.46847E+02   -0.46594E+02  6648   0.299E+01
DAV:   5    -0.252481554242E+04   -0.97007E+00   -0.96776E+00  6176   0.359E+00    0.170E+02
RMM:   6    -0.149916729478E+04    0.10256E+04   -0.19570E+03  4466   0.384E+01    0.730E+01
RMM:   7    -0.166209758941E+04   -0.16293E+03   -0.30658E+02  5246   0.150E+01    0.530E+01
RMM:   8    -0.171932216363E+04   -0.57225E+02   -0.75682E+01  5276   0.824E+00    0.474E+01
RMM:   9    -0.176591518296E+04   -0.46593E+02   -0.59376E+01  5066   0.716E+00    0.376E+01
RMM:  10    -0.188143241515E+04   -0.11552E+03   -0.64524E+01  5374   0.793E+00    0.367E+01
RMM:  11    -0.195840570621E+04   -0.76973E+02   -0.41375E+01  5423   0.595E+00    0.211E+01
RMM:  12    -0.203177907223E+04   -0.73373E+02   -0.29002E+01  5336   0.429E+00    0.156E+01
RMM:  13    -0.211019055719E+04   -0.78411E+02   -0.33825E+01  4740   0.439E+00    0.125E+01
RMM:  14    -0.223004485112E+04   -0.11985E+03   -0.96160E+01  4521   0.712E+00    0.953E+00
RMM:  15    -0.228272620289E+04   -0.52681E+02   -0.46883E+01  4725   0.508E+00    0.865E+00
RMM:  16    -0.229609753509E+04   -0.13371E+02   -0.13811E+01  5256   0.294E+00    0.538E+00
RMM:  17    -0.230590719330E+04   -0.98097E+01   -0.86084E+00  4581   0.187E+00    0.311E+00
RMM:  18    -0.231080616643E+04   -0.48990E+01   -0.35403E+00  4686   0.149E+00    0.188E+00
RMM:  19    -0.231232029346E+04   -0.15141E+01   -0.10569E+00  5111   0.695E-01    0.129E+00
RMM:  20    -0.231296920260E+04   -0.64891E+00   -0.31330E-01  4913   0.353E-01    0.581E-01
RMM:  21    -0.231312660946E+04   -0.15741E+00   -0.61070E-02  4859   0.215E-01    0.356E-01
RMM:  22    -0.231320076732E+04   -0.74158E-01   -0.31143E-02  4626   0.120E-01    0.212E-01
RMM:  23    -0.231322909229E+04   -0.28325E-01   -0.14079E-02  4681   0.913E-02    0.128E-01
RMM:  24    -0.231324332209E+04   -0.14230E-01   -0.55536E-03  4759   0.605E-02    0.759E-02
RMM:  25    -0.231325286566E+04   -0.95436E-02   -0.29278E-03  4529   0.428E-02    0.545E-02
RMM:  26    -0.231326045672E+04   -0.75911E-02   -0.23887E-03  4513   0.359E-02    0.436E-02
RMM:  27    -0.231326320602E+04   -0.27493E-02   -0.93138E-04  4447   0.255E-02    0.271E-02
RMM:  28    -0.231326463560E+04   -0.14296E-02   -0.40115E-04  4077   0.137E-02    0.156E-02
RMM:  29    -0.231326536846E+04   -0.73286E-03   -0.16656E-04  3748   0.109E-02    0.987E-03
RMM:  30    -0.231326568844E+04   -0.31997E-03   -0.86985E-05  3598   0.648E-03    0.697E-03
RMM:  31    -0.231326579927E+04   -0.11083E-03   -0.27872E-05  3112   0.541E-03    0.434E-03
RMM:  32    -0.231326585635E+04   -0.57083E-04   -0.15678E-05  2977   0.345E-03    0.276E-03
RMM:  33    -0.231326587182E+04   -0.15471E-04   -0.56310E-06  2821   0.309E-03    0.165E-03
RMM:  34    -0.231326587646E+04   -0.46370E-05   -0.29157E-06  2448   0.192E-03
   1 F= -.23345718E+04 E0= -.23345644E+04  d E =-.233457E+04  mag=     3.7427
       N       E                     dE             d eps       ncg     rms          rms(c)
DAV:   1    -0.231253538923E+04    0.73048E+00   -0.47957E+01  4896   0.689E+00    0.214E+00
RMM:   2    -0.231359682422E+04   -0.10614E+01   -0.11448E+01  6566   0.212E+00    0.144E+00
RMM:   3    -0.231367540738E+04   -0.78583E-01   -0.94652E-01  6330   0.626E-01    0.246E+00
RMM:   4    -0.231363015416E+04    0.45253E-01   -0.10040E-01  6597   0.151E-01    0.836E-01
RMM:   5    -0.231362643729E+04    0.37169E-02   -0.16797E-02  6281   0.639E-02    0.756E-01
RMM:   6    -0.231362009559E+04    0.63417E-02   -0.15466E-02  6168   0.733E-02    0.493E-01
RMM:   7    -0.231361784594E+04    0.22497E-02   -0.12386E-02  5938   0.611E-02    0.324E-01
RMM:   8    -0.231361718666E+04    0.65928E-03   -0.21829E-03  5688   0.307E-02    0.194E-01
RMM:   9    -0.231361675849E+04    0.42817E-03   -0.44881E-04  4311   0.134E-02    0.890E-02
RMM:  10    -0.231361671611E+04    0.42381E-04   -0.34279E-04  4706   0.117E-02    0.415E-02
RMM:  11    -0.231361675766E+04   -0.41554E-04   -0.82826E-05  3162   0.681E-03    0.269E-02
RMM:  12    -0.231361681447E+04   -0.56812E-04   -0.22651E-05  2924   0.464E-03    0.188E-02
RMM:  13    -0.231361686885E+04   -0.54376E-04   -0.12960E-05  2887   0.375E-03    0.126E-02
RMM:  14    -0.231361693402E+04   -0.65167E-04   -0.15731E-05  2910   0.366E-03    0.750E-03
RMM:  15    -0.231361697005E+04   -0.36037E-04   -0.88882E-06  2844   0.336E-03    0.553E-03
RMM:  16    -0.231361698845E+04   -0.18401E-04   -0.58295E-06  2745   0.278E-03    0.266E-03
RMM:  17    -0.231361699570E+04   -0.72436E-05   -0.30720E-06  2573   0.220E-03
   2 F= -.23349224E+04 E0= -.23349188E+04  d E =-.350522E+00  mag=     3.9022
       N       E                     dE             d eps       ncg     rms          rms(c)
DAV:   1    -0.231355739859E+04    0.59590E-01   -0.33484E+00  4768   0.183E+00    0.565E-01
RMM:   2    -0.231362982735E+04   -0.72429E-01   -0.75993E-01  6373   0.514E-01    0.547E-01
RMM:   3    -0.231363515235E+04   -0.53250E-02   -0.72743E-02  5947   0.211E-01    0.644E-01
RMM:   4    -0.231363144685E+04    0.37055E-02   -0.69548E-03  5821   0.432E-02    0.188E-01
RMM:   5    -0.231363129356E+04    0.15329E-03   -0.13621E-03  5340   0.196E-02    0.208E-01
RMM:   6    -0.231363074696E+04    0.54660E-03   -0.11919E-03  5597   0.207E-02    0.937E-02
RMM:   7    -0.231363076554E+04   -0.18575E-04   -0.45735E-04  4821   0.129E-02    0.101E-01
RMM:   8    -0.231363065890E+04    0.10664E-03   -0.11729E-04  3141   0.727E-03    0.261E-02
RMM:   9    -0.231363065118E+04    0.77118E-05   -0.24415E-05  3028   0.430E-03
   3 F= -.23349360E+04 E0= -.23349331E+04  d E =-.364137E+00  mag=     3.9164
       N       E                     dE             d eps       ncg     rms          rms(c)
DAV:   1    -0.231353392267E+04    0.96736E-01   -0.24787E+01  4576   0.501E+00    0.131E+00
RMM:   2    -0.231376778316E+04   -0.23386E+00   -0.25578E+00  6368   0.103E+00    0.695E-01
RMM:   3    -0.231378296848E+04   -0.15185E-01   -0.26813E-01  5921   0.407E-01    0.746E-01
RMM:   4    -0.231377997662E+04    0.29919E-02   -0.24479E-02  6504   0.845E-02    0.475E-01
RMM:   5    -0.231377793095E+04    0.20457E-02   -0.55681E-03  5342   0.424E-02    0.359E-01
RMM:   6    -0.231377706914E+04    0.86180E-03   -0.61289E-03  5932   0.488E-02    0.354E-01
RMM:   7    -0.231377570046E+04    0.13687E-02   -0.18750E-03  5891   0.300E-02    0.103E-01
RMM:   8    -0.231377565510E+04    0.45357E-04   -0.32731E-04  4619   0.111E-02    0.928E-02
RMM:   9    -0.231377555738E+04    0.97719E-04   -0.12078E-04  3212   0.819E-03    0.416E-02
RMM:  10    -0.231377552148E+04    0.35899E-04   -0.11852E-04  3489   0.731E-03    0.166E-02
RMM:  11    -0.231377552375E+04   -0.22619E-05   -0.23439E-05  3023   0.440E-03
   4 F= -.23350813E+04 E0= -.23350792E+04  d E =-.145305E+00  mag=     3.9405
       N       E                     dE             d eps       ncg     rms          rms(c)
DAV:   1    -0.231361752668E+04    0.15799E+00   -0.20725E+01  4544   0.453E+00    0.118E+00
RMM:   2    -0.231381009903E+04   -0.19257E+00   -0.21044E+00  6380   0.916E-01    0.634E-01
RMM:   3    -0.231382184739E+04   -0.11748E-01   -0.21743E-01  5925   0.360E-01    0.660E-01
RMM:   4    -0.231381951141E+04    0.23360E-02   -0.20257E-02  6436   0.752E-02    0.433E-01
RMM:   5    -0.231381774254E+04    0.17689E-02   -0.45204E-03  5289   0.380E-02    0.320E-01
RMM:   6    -0.231381697242E+04    0.77012E-03   -0.50969E-03  5824   0.438E-02    0.310E-01
RMM:   7    -0.231381587844E+04    0.10940E-02   -0.15390E-03  5774   0.270E-02    0.906E-02
RMM:   8    -0.231381581475E+04    0.63694E-04   -0.22945E-04  4321   0.968E-03    0.660E-02
RMM:   9    -0.231381577573E+04    0.39023E-04   -0.88815E-05  3127   0.763E-03    0.444E-02
RMM:  10    -0.231381574593E+04    0.29792E-04   -0.96723E-05  3350   0.664E-03    0.151E-02
RMM:  11    -0.231381574882E+04   -0.28898E-05   -0.19881E-05  2985   0.415E-03
   5 F= -.23351219E+04 E0= -.23351203E+04  d E =-.185908E+00  mag=     3.9583
       N       E                     dE             d eps       ncg     rms          rms(c)
DAV:   1    -0.231370557546E+04    0.11017E+00   -0.25750E+01  4504   0.499E+00    0.125E+00
RMM:   2    -0.231390932961E+04   -0.20375E+00   -0.21845E+00  6273   0.998E-01    0.783E-01
RMM:   3    -0.231392760651E+04   -0.18277E-01   -0.22566E-01  6084   0.374E-01    0.106E+00
RMM:   4    -0.231391594184E+04    0.11665E-01   -0.22700E-02  6551   0.911E-02    0.380E-01
RMM:   5    -0.231391439809E+04    0.15437E-02   -0.63954E-03  5736   0.504E-02    0.327E-01
RMM:   6    -0.231391407422E+04    0.32388E-03   -0.39965E-03  5801   0.400E-02    0.320E-01
RMM:   7    -0.231391297948E+04    0.10947E-02   -0.14091E-03  5585   0.249E-02    0.853E-02
RMM:   8    -0.231391292927E+04    0.50208E-04   -0.25124E-04  3964   0.117E-02    0.775E-02
RMM:   9    -0.231391285382E+04    0.75452E-04   -0.10511E-04  3352   0.742E-03    0.339E-02
RMM:  10    -0.231391282696E+04    0.26855E-04   -0.58003E-05  3316   0.585E-03    0.139E-02
RMM:  11    -0.231391282314E+04    0.38223E-05   -0.16455E-05  2910   0.473E-03
   6 F= -.23352186E+04 E0= -.23352180E+04  d E =-.967454E-01  mag=     3.9822
       N       E                     dE             d eps       ncg     rms          rms(c)
DAV:   1    -0.231386450282E+04    0.48324E-01   -0.78976E+00  4576   0.280E+00    0.698E-01
RMM:   2    -0.231392654093E+04   -0.62038E-01   -0.66348E-01  6251   0.559E-01    0.445E-01
RMM:   3    -0.231393177609E+04   -0.52352E-02   -0.65653E-02  6071   0.204E-01    0.581E-01
RMM:   4    -0.231392812567E+04    0.36504E-02   -0.69119E-03  6384   0.510E-02    0.209E-01
RMM:   5    -0.231392779739E+04    0.32828E-03   -0.19963E-03  5615   0.280E-02    0.220E-01
RMM:   6    -0.231392742402E+04    0.37337E-03   -0.13103E-03  5356   0.228E-02    0.146E-01
RMM:   7    -0.231392720355E+04    0.22047E-03   -0.45805E-04  5040   0.145E-02    0.607E-02
RMM:   8    -0.231392717294E+04    0.30614E-04   -0.98854E-05  3155   0.824E-03    0.434E-02
RMM:   9    -0.231392714463E+04    0.28308E-04   -0.25830E-05  2957   0.490E-03    0.150E-02
RMM:  10    -0.231392713540E+04    0.92255E-05   -0.19088E-05  2952   0.396E-03
   7 F= -.23352327E+04 E0= -.23352324E+04  d E =-.110859E+00  mag=     3.9907
       N       E                     dE             d eps       ncg     rms          rms(c)
DAV:   1    -0.231377132364E+04    0.15582E+00   -0.15220E+01  4568   0.396E+00    0.109E+00
RMM:   2    -0.231398522858E+04   -0.21390E+00   -0.21823E+00  6471   0.921E-01    0.105E+00
RMM:   3    -0.231399669933E+04   -0.11471E-01   -0.22705E-01  6201   0.331E-01    0.892E-01
RMM:   4    -0.231398821822E+04    0.84811E-02   -0.22639E-02  6401   0.790E-02    0.321E-01
RMM:   5    -0.231398823423E+04   -0.16007E-04   -0.39325E-03  5832   0.338E-02    0.388E-01
RMM:   6    -0.231398660574E+04    0.16285E-02   -0.28556E-03  5538   0.307E-02    0.151E-01
RMM:   7    -0.231398669530E+04   -0.89558E-04   -0.11215E-03  5291   0.232E-02    0.166E-01
RMM:   8    -0.231398638108E+04    0.31422E-03   -0.33736E-04  4604   0.124E-02    0.459E-02
RMM:   9    -0.231398635383E+04    0.27251E-04   -0.53136E-05  3106   0.634E-03    0.211E-02
RMM:  10    -0.231398634826E+04    0.55696E-05   -0.22641E-05  3023   0.435E-03
   8 F= -.23352899E+04 E0= -.23352899E+04  d E =-.571959E-01  mag=     3.9968
       N       E                     dE             d eps       ncg     rms          rms(c)
DAV:   1    -0.231392568525E+04    0.60669E-01   -0.50644E+00  4640   0.228E+00    0.632E-01
RMM:   2    -0.231399711144E+04   -0.71426E-01   -0.72488E-01  6481   0.530E-01    0.626E-01
RMM:   3    -0.231400007449E+04   -0.29631E-02   -0.72662E-02  6214   0.183E-01    0.494E-01
RMM:   4    -0.231399748034E+04    0.25942E-02   -0.75122E-03  6154   0.449E-02    0.188E-01
RMM:   5    -0.231399747152E+04    0.88167E-05   -0.12570E-03  5373   0.196E-02    0.222E-01
RMM:   6    -0.231399689766E+04    0.57386E-03   -0.97717E-04  5282   0.192E-02    0.805E-02
RMM:   7    -0.231399695351E+04   -0.55851E-04   -0.38698E-04  4456   0.144E-02    0.100E-01
RMM:   8    -0.231399683577E+04    0.11774E-03   -0.11354E-04  3478   0.751E-03    0.227E-02
RMM:   9    -0.231399682951E+04    0.62526E-05   -0.17092E-05  2945   0.450E-03
   9 F= -.23352993E+04 E0= -.23352992E+04  d E =-.665179E-01  mag=     3.9988
       N       E                     dE             d eps       ncg     rms          rms(c)
DAV:   1    -0.231383158123E+04    0.16525E+00   -0.11765E+01  4504   0.353E+00    0.104E+00
RMM:   2    -0.231404569698E+04   -0.21412E+00   -0.21532E+00  6559   0.854E-01    0.118E+00
RMM:   3    -0.231405193576E+04   -0.62388E-02   -0.23586E-01  6352   0.306E-01    0.743E-01
RMM:   4    -0.231404633835E+04    0.55974E-02   -0.22143E-02  6210   0.699E-02    0.337E-01
RMM:   5    -0.231404600335E+04    0.33500E-03   -0.27094E-03  5659   0.285E-02    0.341E-01
RMM:   6    -0.231404456941E+04    0.14339E-02   -0.21548E-03  5365   0.284E-02    0.150E-01
RMM:   7    -0.231404470649E+04   -0.13708E-03   -0.13890E-03  5237   0.269E-02    0.175E-01
RMM:   8    -0.231404436793E+04    0.33855E-03   -0.38406E-04  4782   0.131E-02    0.466E-02
RMM:   9    -0.231404435124E+04    0.16694E-04   -0.56511E-05  3050   0.664E-03    0.238E-02
RMM:  10    -0.231404435657E+04   -0.53261E-05   -0.30845E-05  3001   0.443E-03
  10 F= -.23353441E+04 E0= -.23353441E+04  d E =-.448779E-01  mag=     3.9996
       N       E                     dE             d eps       ncg     rms          rms(c)
DAV:   1    -0.231375068154E+04    0.29367E+00   -0.17361E+01  4496   0.428E+00    0.125E+00
RMM:   2    -0.231406951006E+04   -0.31883E+00   -0.32081E+00  6549   0.104E+00    0.145E+00
RMM:   3    -0.231407986982E+04   -0.10360E-01   -0.35487E-01  6355   0.370E-01    0.940E-01
RMM:   4    -0.231407048649E+04    0.93833E-02   -0.32442E-02  6247   0.850E-02    0.399E-01
RMM:   5    -0.231407011239E+04    0.37409E-03   -0.40335E-03  5789   0.351E-02    0.420E-01
RMM:   6    -0.231406793923E+04    0.21732E-02   -0.32394E-03  5507   0.343E-02    0.180E-01
RMM:   7    -0.231406802801E+04   -0.88776E-04   -0.20004E-03  5406   0.315E-02    0.189E-01
RMM:   8    -0.231406764164E+04    0.38637E-03   -0.50264E-04  4980   0.152E-02    0.605E-02
RMM:   9    -0.231406761482E+04    0.26819E-04   -0.88962E-05  3220   0.749E-03    0.289E-02
RMM:  10    -0.231406762493E+04   -0.10111E-04   -0.46543E-05  3116   0.516E-03    0.136E-02
RMM:  11    -0.231406763339E+04   -0.84582E-05   -0.14426E-05  2945   0.426E-03
  11 F= -.23353642E+04 E0= -.23353642E+04  d E =-.649733E-01  mag=     3.9999
       N       E                     dE             d eps       ncg     rms          rms(c)
DAV:   1    -0.231392247424E+04    0.14515E+00   -0.12144E+01  4504   0.363E+00    0.108E+00
RMM:   2    -0.231409885787E+04   -0.17638E+00   -0.18079E+00  6348   0.828E-01    0.959E-01
RMM:   3    -0.231411011481E+04   -0.11257E-01   -0.18830E-01  6168   0.295E-01    0.869E-01
RMM:   4    -0.231410063955E+04    0.94753E-02   -0.18576E-02  6335   0.727E-02    0.309E-01
RMM:   5    -0.231410047826E+04    0.16130E-03   -0.34242E-03  5713   0.335E-02    0.350E-01
RMM:   6    -0.231409886191E+04    0.16163E-02   -0.26679E-03  5433   0.323E-02    0.118E-01
RMM:   7    -0.231409887819E+04   -0.16279E-04   -0.93842E-04  5075   0.235E-02    0.125E-01
RMM:   8    -0.231409870408E+04    0.17411E-03   -0.25144E-04  4318   0.109E-02    0.438E-02
RMM:   9    -0.231409868685E+04    0.17229E-04   -0.45194E-05  3040   0.623E-03    0.207E-02
RMM:  10    -0.231409868604E+04    0.80526E-06   -0.26497E-05  2923   0.474E-03
  12 F= -.23353935E+04 E0= -.23353935E+04  d E =-.292668E-01  mag=     4.0000
       N       E                     dE             d eps       ncg     rms          rms(c)
DAV:   1    -0.231408818697E+04    0.10500E-01   -0.86005E-01  4728   0.968E-01    0.288E-01
RMM:   2    -0.231410081914E+04   -0.12632E-01   -0.12790E-01  6330   0.221E-01    0.275E-01
RMM:   3    -0.231410122472E+04   -0.40557E-03   -0.12266E-02  5993   0.758E-02    0.211E-01
RMM:   4    -0.231410066845E+04    0.55627E-03   -0.13067E-03  5212   0.191E-02    0.845E-02
RMM:   5    -0.231410064639E+04    0.22058E-04   -0.23209E-04  3843   0.994E-03    0.914E-02
RMM:   6    -0.231410052737E+04    0.11902E-03   -0.20608E-04  4500   0.102E-02    0.298E-02
RMM:   7    -0.231410053032E+04   -0.29484E-05   -0.74217E-05  3263   0.811E-03
  13 F= -.23353949E+04 E0= -.23353949E+04  d E =-.306386E-01  mag=     4.0000
       N       E                     dE             d eps       ncg     rms          rms(c)
DAV:   1    -0.231407941411E+04    0.21113E-01   -0.36535E+00  4528   0.199E+00    0.490E-01
RMM:   2    -0.231411606635E+04   -0.36652E-01   -0.38767E-01  6349   0.421E-01    0.290E-01
RMM:   3    -0.231411868317E+04   -0.26168E-02   -0.33274E-02  6046   0.134E-01    0.342E-01
RMM:   4    -0.231411740351E+04    0.12797E-02   -0.36890E-03  6102   0.329E-02    0.151E-01
RMM:   5    -0.231411725043E+04    0.15309E-03   -0.74180E-04  5243   0.181E-02    0.141E-01
RMM:   6    -0.231411708171E+04    0.16872E-03   -0.55894E-04  4748   0.158E-02    0.760E-02
RMM:   7    -0.231411703103E+04    0.50681E-04   -0.14555E-04  4336   0.961E-03    0.276E-02
RMM:   8    -0.231411703103E+04   -0.61846E-08   -0.30633E-05  2952   0.602E-03
  14 F= -.23354112E+04 E0= -.23354112E+04  d E =-.163443E-01  mag=     4.0000
       N       E                     dE             d eps       ncg     rms          rms(c)
DAV:   1    -0.231388532439E+04    0.23171E+00   -0.22874E+01  4496   0.496E+00    0.123E+00
RMM:   2    -0.231411508540E+04   -0.22976E+00   -0.24338E+00  6341   0.106E+00    0.713E-01
RMM:   3    -0.231413305965E+04   -0.17974E-01   -0.21821E-01  6094   0.339E-01    0.885E-01
RMM:   4    -0.231412467200E+04    0.83876E-02   -0.23301E-02  6574   0.819E-02    0.387E-01
RMM:   5    -0.231412381058E+04    0.86143E-03   -0.46735E-03  5769   0.428E-02    0.370E-01
RMM:   6    -0.231412261954E+04    0.11910E-02   -0.38716E-03  5542   0.383E-02    0.198E-01
RMM:   7    -0.231412224481E+04    0.37474E-03   -0.10347E-03  5410   0.235E-02    0.797E-02
RMM:   8    -0.231412223513E+04    0.96765E-05   -0.24549E-04  4344   0.123E-02    0.864E-02
RMM:   9    -0.231412216180E+04    0.73329E-04   -0.10968E-04  3325   0.769E-03    0.348E-02
RMM:  10    -0.231412214731E+04    0.14489E-04   -0.36299E-05  2952   0.547E-03    0.149E-02
RMM:  11    -0.231412214594E+04    0.13697E-05   -0.15089E-05  2933   0.353E-03
  15 F= -.23354159E+04 E0= -.23354159E+04  d E =-.210639E-01  mag=     4.0000
       N       E                     dE             d eps       ncg     rms          rms(c)
DAV:   1    -0.231408789213E+04    0.34255E-01   -0.37438E+00  4504   0.200E+00    0.498E-01
RMM:   2    -0.231412561797E+04   -0.37726E-01   -0.39521E-01  6349   0.426E-01    0.331E-01
RMM:   3    -0.231412821056E+04   -0.25926E-02   -0.34489E-02  6073   0.136E-01    0.370E-01
RMM:   4    -0.231412661724E+04    0.15933E-02   -0.38727E-03  6117   0.344E-02    0.156E-01
RMM:   5    -0.231412647521E+04    0.14202E-03   -0.73032E-04  5115   0.174E-02    0.149E-01
RMM:   6    -0.231412627863E+04    0.19659E-03   -0.58241E-04  4751   0.158E-02    0.780E-02
RMM:   7    -0.231412623174E+04    0.46885E-04   -0.18176E-04  4419   0.107E-02    0.379E-02
RMM:   8    -0.231412622017E+04    0.11568E-04   -0.37502E-05  2945   0.652E-03    0.249E-02
RMM:   9    -0.231412621305E+04    0.71220E-05   -0.81497E-06  2881   0.321E-03
  16 F= -.23354202E+04 E0= -.23354202E+04  d E =-.252918E-01  mag=     4.0000
       N       E                     dE             d eps       ncg     rms          rms(c)
DAV:   1    -0.231410327186E+04    0.22948E-01   -0.61690E+00  4496   0.251E+00    0.554E-01
RMM:   2    -0.231414019171E+04   -0.36920E-01   -0.39334E-01  6223   0.474E-01    0.322E-01
RMM:   3    -0.231414193047E+04   -0.17388E-02   -0.31831E-02  5927   0.149E-01    0.365E-01
RMM:   4    -0.231414041914E+04    0.15113E-02   -0.36923E-03  6148   0.375E-02    0.174E-01
RMM:   5    -0.231414021189E+04    0.20726E-03   -0.14536E-03  5472   0.264E-02    0.184E-01
RMM:   6    -0.231413985754E+04    0.35434E-03   -0.80895E-04  5449   0.205E-02    0.826E-02
RMM:   7    -0.231413978369E+04    0.73849E-04   -0.17635E-04  4588   0.993E-03    0.338E-02
RMM:   8    -0.231413977728E+04    0.64159E-05   -0.38257E-05  2966   0.630E-03
  17 F= -.23354340E+04 E0= -.23354340E+04  d E =-.137960E-01  mag=     4.0000
       N       E                     dE             d eps       ncg     rms          rms(c)
DAV:   1    -0.231413216355E+04    0.76201E-02   -0.14988E+00  4624   0.124E+00    0.276E-01
RMM:   2    -0.231414119614E+04   -0.90326E-02   -0.96161E-02  6239   0.236E-01    0.168E-01
RMM:   3    -0.231414162451E+04   -0.42837E-03   -0.75567E-03  5876   0.723E-02    0.194E-01
RMM:   4    -0.231414117459E+04    0.44992E-03   -0.92311E-04  5247   0.191E-02    0.869E-02
RMM:   5    -0.231414114669E+04    0.27903E-04   -0.37039E-04  4890   0.138E-02    0.105E-01
RMM:   6    -0.231414101835E+04    0.12833E-03   -0.23773E-04  4564   0.115E-02    0.351E-02
RMM:   7    -0.231414100543E+04    0.12923E-04   -0.44435E-05  3196   0.664E-03    0.206E-02
RMM:   8    -0.231414100207E+04    0.33582E-05   -0.14401E-05  2905   0.464E-03
  18 F= -.23354353E+04 E0= -.23354353E+04  d E =-.151310E-01  mag=     4.0000
       N       E                     dE             d eps       ncg     rms          rms(c)
DAV:   1    -0.231411748909E+04    0.23516E-01   -0.75915E+00  4496   0.273E+00    0.605E-01
RMM:   2    -0.231415639055E+04   -0.38901E-01   -0.40049E-01  6229   0.498E-01    0.476E-01
RMM:   3    -0.231415714879E+04   -0.75824E-03   -0.32886E-02  6049   0.154E-01    0.474E-01
RMM:   4    -0.231415439472E+04    0.27541E-02   -0.36093E-03  5906   0.405E-02    0.163E-01
RMM:   5    -0.231415444122E+04   -0.46499E-04   -0.15314E-03  5508   0.266E-02    0.212E-01
RMM:   6    -0.231415390048E+04    0.54074E-03   -0.96835E-04  5805   0.223E-02    0.704E-02
RMM:   7    -0.231415386212E+04    0.38361E-04   -0.15712E-04  4500   0.111E-02    0.214E-02
RMM:   8    -0.231415385871E+04    0.34095E-05   -0.19338E-05  2998   0.440E-03
  19 F= -.23354484E+04 E0= -.23354484E+04  d E =-.130796E-01  mag=     4.0000
       N       E                     dE             d eps       ncg     rms          rms(c)
DAV:   1    -0.231413784421E+04    0.16018E-01   -0.38858E+00  4512   0.195E+00    0.433E-01
RMM:   2    -0.231415779760E+04   -0.19953E-01   -0.20494E-01  6222   0.357E-01    0.348E-01
RMM:   3    -0.231415811924E+04   -0.32165E-03   -0.16842E-02  6054   0.110E-01    0.339E-01
RMM:   4    -0.231415671478E+04    0.14045E-02   -0.18504E-03  5666   0.290E-02    0.118E-01
RMM:   5    -0.231415675255E+04   -0.37764E-04   -0.78292E-04  5330   0.193E-02    0.156E-01
RMM:   6    -0.231415644685E+04    0.30569E-03   -0.53544E-04  5524   0.167E-02    0.464E-02
RMM:   7    -0.231415643016E+04    0.16692E-04   -0.79035E-05  3570   0.875E-03    0.156E-02
RMM:   8    -0.231415642941E+04    0.74871E-06   -0.12599E-05  2932   0.390E-03
  20 F= -.23354511E+04 E0= -.23354511E+04  d E =-.157954E-01  mag=     4.0000
       N       E                     dE             d eps       ncg     rms          rms(c)
DAV:   1    -0.231412264579E+04    0.33784E-01   -0.70953E+00  4496   0.263E+00    0.611E-01
RMM:   2    -0.231417053659E+04   -0.47891E-01   -0.48705E-01  6385   0.515E-01    0.574E-01
RMM:   3    -0.231417009593E+04    0.44066E-03   -0.40146E-02  6178   0.153E-01    0.471E-01
RMM:   4    -0.231416740143E+04    0.26945E-02   -0.41657E-03  5940   0.412E-02    0.177E-01
RMM:   5    -0.231416752106E+04   -0.11963E-03   -0.16011E-03  5718   0.267E-02    0.239E-01
RMM:   6    -0.231416680086E+04    0.72020E-03   -0.11229E-03  5740   0.236E-02    0.693E-02
RMM:   7    -0.231416676660E+04    0.34259E-04   -0.19570E-04  4574   0.123E-02    0.361E-02
RMM:   8    -0.231416676278E+04    0.38244E-05   -0.39130E-05  2923   0.524E-03
  21 F= -.23354615E+04 E0= -.23354615E+04  d E =-.103799E-01  mag=     4.0000
       N       E                     dE             d eps       ncg     rms          rms(c)
DAV:   1    -0.231416500280E+04    0.17638E-02   -0.33402E-01  4832   0.572E-01    0.137E-01
RMM:   2    -0.231416729912E+04   -0.22963E-02   -0.23137E-02  6390   0.113E-01    0.134E-01
RMM:   3    -0.231416724612E+04    0.52993E-04   -0.19086E-03  5364   0.321E-02    0.104E-01
RMM:   4    -0.231416711641E+04    0.12972E-03   -0.20268E-04  3304   0.972E-03    0.437E-02
RMM:   5    -0.231416711838E+04   -0.19706E-05   -0.72491E-05  3044   0.702E-03
  22 F= -.23354618E+04 E0= -.23354618E+04  d E =-.107426E-01  mag=     4.0000
       N       E                     dE             d eps       ncg     rms          rms(c)
DAV:   1    -0.231414511381E+04    0.22003E-01   -0.36474E+00  4496   0.195E+00    0.476E-01
RMM:   2    -0.231417442779E+04   -0.29314E-01   -0.30454E-01  6381   0.399E-01    0.352E-01
RMM:   3    -0.231417594552E+04   -0.15177E-02   -0.26418E-02  6184   0.125E-01    0.395E-01
RMM:   4    -0.231417397932E+04    0.19662E-02   -0.29631E-03  6040   0.336E-02    0.141E-01
RMM:   5    -0.231417396300E+04    0.16316E-04   -0.97694E-04  5539   0.197E-02    0.168E-01
RMM:   6    -0.231417362981E+04    0.33319E-03   -0.63821E-04  5355   0.168E-02    0.571E-02
RMM:   7    -0.231417359821E+04    0.31599E-04   -0.13767E-04  4432   0.964E-03    0.212E-02
RMM:   8    -0.231417359505E+04    0.31614E-05   -0.19963E-05  2941   0.483E-03
  23 F= -.23354686E+04 E0= -.23354686E+04  d E =-.677491E-02  mag=     4.0000
       N       E                     dE             d eps       ncg     rms          rms(c)
DAV:   1    -0.231416524315E+04    0.83551E-02   -0.11213E+00  4560   0.108E+00    0.267E-01
RMM:   2    -0.231417438289E+04   -0.91397E-02   -0.94069E-02  6375   0.222E-01    0.211E-01
RMM:   3    -0.231417477699E+04   -0.39411E-03   -0.79337E-03  6052   0.684E-02    0.226E-01
RMM:   4    -0.231417412060E+04    0.65639E-03   -0.91873E-04  5110   0.190E-02    0.793E-02
RMM:   5    -0.231417411811E+04    0.24885E-05   -0.30012E-04  4595   0.114E-02    0.954E-02
RMM:   6    -0.231417400492E+04    0.11320E-03   -0.21793E-04  4543   0.104E-02    0.282E-02
RMM:   7    -0.231417399597E+04    0.89463E-05   -0.39349E-05  3178   0.652E-03
  24 F= -.23354692E+04 E0= -.23354692E+04  d E =-.733931E-02  mag=     4.0000
       N       E                     dE             d eps       ncg     rms          rms(c)
DAV:   1    -0.231416336957E+04    0.10635E-01   -0.20068E+00  4504   0.143E+00    0.313E-01
RMM:   2    -0.231417903627E+04   -0.15667E-01   -0.16262E-01  6370   0.287E-01    0.244E-01
RMM:   3    -0.231417985678E+04   -0.82051E-03   -0.13203E-02  6103   0.864E-02    0.275E-01
RMM:   4    -0.231417895156E+04    0.90522E-03   -0.15164E-03  5479   0.233E-02    0.955E-02
RMM:   5    -0.231417888156E+04    0.69994E-04   -0.40151E-04  4815   0.134E-02    0.930E-02
RMM:   6    -0.231417879587E+04    0.85697E-04   -0.28706E-04  4598   0.122E-02    0.516E-02
RMM:   7    -0.231417876830E+04    0.27564E-04   -0.72562E-05  3812   0.736E-03    0.144E-02
RMM:   8    -0.231417876797E+04    0.32995E-06   -0.11588E-05  2919   0.453E-03
  25 F= -.23354740E+04 E0= -.23354740E+04  d E =-.488016E-02  mag=     4.0000
       N       E                     dE             d eps       ncg     rms          rms(c)
DAV:   1    -0.231413545958E+04    0.43309E-01   -0.60481E+00  4496   0.248E+00    0.542E-01
RMM:   2    -0.231418269998E+04   -0.47240E-01   -0.49039E-01  6379   0.499E-01    0.424E-01
RMM:   3    -0.231418529260E+04   -0.25926E-02   -0.41582E-02  6184   0.153E-01    0.473E-01
RMM:   4    -0.231418261743E+04    0.26752E-02   -0.46648E-03  6140   0.404E-02    0.171E-01
RMM:   5    -0.231418245309E+04    0.16434E-03   -0.11666E-03  5540   0.215E-02    0.176E-01
RMM:   6    -0.231418210935E+04    0.34374E-03   -0.91045E-04  5517   0.202E-02    0.845E-02
RMM:   7    -0.231418203683E+04    0.72517E-04   -0.24290E-04  5039   0.119E-02    0.325E-02
RMM:   8    -0.231418203412E+04    0.27078E-05   -0.42688E-05  2957   0.584E-03
  26 F= -.23354775E+04 E0= -.23354775E+04  d E =-.833945E-02  mag=     4.0000
       N       E                     dE             d eps       ncg     rms          rms(c)
DAV:   1    -0.231417792097E+04    0.41159E-02   -0.15727E+00  4504   0.124E+00    0.288E-01
RMM:   2    -0.231418768761E+04   -0.97666E-02   -0.10332E-01  6270   0.240E-01    0.169E-01
RMM:   3    -0.231418840044E+04   -0.71283E-03   -0.85493E-03  5978   0.748E-02    0.225E-01
RMM:   4    -0.231418780953E+04    0.59091E-03   -0.97370E-04  5252   0.199E-02    0.835E-02
RMM:   5    -0.231418770483E+04    0.10470E-03   -0.34028E-04  4521   0.139E-02    0.482E-02
RMM:   6    -0.231418772877E+04   -0.23943E-04   -0.14244E-04  3582   0.112E-02    0.625E-02
RMM:   7    -0.231418768324E+04    0.45531E-04   -0.39009E-05  2940   0.604E-03    0.109E-02
RMM:   8    -0.231418768296E+04    0.28586E-06   -0.81257E-06  2903   0.378E-03
  27 F= -.23354830E+04 E0= -.23354830E+04  d E =-.545716E-02  mag=     4.0000
       N       E                     dE             d eps       ncg     rms          rms(c)
DAV:   1    -0.231416541346E+04    0.22270E-01   -0.39309E+00  4496   0.196E+00    0.452E-01
RMM:   2    -0.231418980627E+04   -0.24393E-01   -0.25750E-01  6249   0.377E-01    0.270E-01
RMM:   3    -0.231419157388E+04   -0.17676E-02   -0.21692E-02  6022   0.118E-01    0.356E-01
RMM:   4    -0.231419007498E+04    0.14989E-02   -0.24280E-03  6060   0.310E-02    0.134E-01
RMM:   5    -0.231418978915E+04    0.28583E-03   -0.88531E-04  4912   0.216E-02    0.721E-02
RMM:   6    -0.231418984538E+04   -0.56230E-04   -0.35368E-04  4682   0.164E-02    0.971E-02
RMM:   7    -0.231418973474E+04    0.11064E-03   -0.99661E-05  3410   0.769E-03    0.194E-02
RMM:   8    -0.231418973385E+04    0.88863E-06   -0.20419E-05  2962   0.468E-03
  28 F= -.23354847E+04 E0= -.23354847E+04  d E =-.721375E-02  mag=     4.0000
       N       E                     dE             d eps       ncg     rms          rms(c)
DAV:   1    -0.231418794204E+04    0.17927E-02   -0.33545E-01  4640   0.571E-01    0.130E-01
RMM:   2    -0.231419000600E+04   -0.20640E-02   -0.21728E-02  6252   0.110E-01    0.793E-02
RMM:   3    -0.231419014794E+04   -0.14194E-03   -0.18694E-03  5116   0.345E-02    0.102E-01
RMM:   4    -0.231419003361E+04    0.11433E-03   -0.19698E-04  3145   0.936E-03    0.384E-02
RMM:   5    -0.231419001575E+04    0.17859E-04   -0.86414E-05  3634   0.794E-03    0.266E-02
RMM:   6    -0.231419001476E+04    0.98922E-06   -0.33063E-05  2970   0.587E-03
  29 F= -.23354851E+04 E0= -.23354851E+04  d E =-.757955E-02  mag=     4.0000
       N       E                     dE             d eps       ncg     rms          rms(c)
DAV:   1    -0.231418303848E+04    0.69773E-02   -0.15483E+00  4504   0.125E+00    0.298E-01
RMM:   2    -0.231419503135E+04   -0.11993E-01   -0.12630E-01  6366   0.251E-01    0.196E-01
RMM:   3    -0.231419590055E+04   -0.86920E-03   -0.11053E-02  6028   0.819E-02    0.236E-01
RMM:   4    -0.231419520706E+04    0.69349E-03   -0.11565E-03  5238   0.204E-02    0.882E-02
RMM:   5    -0.231419514090E+04    0.66162E-04   -0.31520E-04  4466   0.123E-02    0.805E-02
RMM:   6    -0.231419508813E+04    0.52764E-04   -0.22701E-04  4305   0.112E-02    0.521E-02
RMM:   7    -0.231419506168E+04    0.26448E-04   -0.56448E-05  3283   0.697E-03    0.171E-02
RMM:   8    -0.231419506125E+04    0.43276E-06   -0.13241E-05  2895   0.482E-03
  30 F= -.23354899E+04 E0= -.23354899E+04  d E =-.476822E-02  mag=     4.0000
       N       E                     dE             d eps       ncg     rms          rms(c)
DAV:   1    -0.231415622385E+04    0.38838E-01   -0.54303E+00  4496   0.233E+00    0.563E-01
RMM:   2    -0.231419858786E+04   -0.42364E-01   -0.44608E-01  6337   0.470E-01    0.377E-01
RMM:   3    -0.231420169646E+04   -0.31086E-02   -0.39397E-02  6121   0.151E-01    0.456E-01
RMM:   4    -0.231419910258E+04    0.25939E-02   -0.41926E-03  6257   0.385E-02    0.164E-01
RMM:   5    -0.231419889815E+04    0.20443E-03   -0.11448E-03  5174   0.218E-02    0.155E-01
RMM:   6    -0.231419869187E+04    0.20627E-03   -0.76924E-04  5410   0.192E-02    0.939E-02
RMM:   7    -0.231419860821E+04    0.83667E-04   -0.18553E-04  4569   0.105E-02    0.339E-02
RMM:   8    -0.231419860507E+04    0.31398E-05   -0.40383E-05  2915   0.628E-03
  31 F= -.23354929E+04 E0= -.23354929E+04  d E =-.780497E-02  mag=     4.0000
       N       E                     dE             d eps       ncg     rms          rms(c)
DAV:   1    -0.231418753885E+04    0.11069E-01   -0.15888E+00  4512   0.126E+00    0.301E-01
RMM:   2    -0.231420358612E+04   -0.16047E-01   -0.16362E-01  6440   0.267E-01    0.299E-01
RMM:   3    -0.231420403155E+04   -0.44543E-03   -0.14896E-02  6105   0.844E-02    0.237E-01
RMM:   4    -0.231420335592E+04    0.67563E-03   -0.14606E-03  5216   0.207E-02    0.976E-02
RMM:   5    -0.231420333740E+04    0.18522E-04   -0.28761E-04  4246   0.111E-02    0.109E-01
RMM:   6    -0.231420318929E+04    0.14811E-03   -0.28064E-04  4769   0.118E-02    0.376E-02
RMM:   7    -0.231420319416E+04   -0.48774E-05   -0.94912E-05  3531   0.808E-03
  32 F= -.23354974E+04 E0= -.23354974E+04  d E =-.446137E-02  mag=     4.0000
       N       E                     dE             d eps       ncg     rms          rms(c)
DAV:   1    -0.231406720978E+04    0.13598E+00   -0.14279E+01  4496   0.378E+00    0.905E-01
RMM:   2    -0.231421319520E+04   -0.14599E+00   -0.14874E+00  6454   0.813E-01    0.911E-01
RMM:   3    -0.231421630008E+04   -0.31049E-02   -0.14081E-01  6253   0.262E-01    0.691E-01
RMM:   4    -0.231421062858E+04    0.56715E-02   -0.13634E-02  6048   0.624E-02    0.306E-01
RMM:   5    -0.231421032974E+04    0.29884E-03   -0.25211E-03  5803   0.307E-02    0.317E-01
RMM:   6    -0.231420901626E+04    0.13135E-02   -0.24601E-03  5563   0.326E-02    0.117E-01
RMM:   7    -0.231420904327E+04   -0.27006E-04   -0.91167E-04  5303   0.216E-02    0.118E-01
RMM:   8    -0.231420889806E+04    0.14521E-03   -0.21198E-04  3416   0.103E-02    0.399E-02
RMM:   9    -0.231420887775E+04    0.20312E-04   -0.35735E-05  2989   0.563E-03    0.214E-02
RMM:  10    -0.231420887153E+04    0.62225E-05   -0.23729E-05  2988   0.398E-03
  33 F= -.23355027E+04 E0= -.23355027E+04  d E =-.979521E-02  mag=     4.0000
       N       E                     dE             d eps       ncg     rms          rms(c)
DAV:   1    -0.231417606517E+04    0.32813E-01   -0.39401E+00  4496   0.198E+00    0.492E-01
RMM:   2    -0.231421730068E+04   -0.41236E-01   -0.41192E-01  6386   0.425E-01    0.538E-01
RMM:   3    -0.231421719487E+04    0.10581E-03   -0.39493E-02  6163   0.139E-01    0.350E-01
RMM:   4    -0.231421570064E+04    0.14942E-02   -0.37195E-03  5688   0.327E-02    0.165E-01
RMM:   5    -0.231421561275E+04    0.87883E-04   -0.74923E-04  5094   0.169E-02    0.174E-01
RMM:   6    -0.231421519189E+04    0.42086E-03   -0.77382E-04  5124   0.187E-02    0.557E-02
RMM:   7    -0.231421522153E+04   -0.29638E-04   -0.26026E-04  4347   0.126E-02    0.709E-02
RMM:   8    -0.231421516537E+04    0.56159E-04   -0.63717E-05  2958   0.597E-03    0.171E-02
RMM:   9    -0.231421516100E+04    0.43767E-05   -0.10756E-05  2906   0.402E-03
  34 F= -.23355089E+04 E0= -.23355089E+04  d E =-.621663E-02  mag=     4.0000
       N       E                     dE             d eps       ncg     rms          rms(c)
DAV:   1    -0.231419725294E+04    0.17912E-01   -0.19799E+00  4512   0.141E+00    0.348E-01
RMM:   2    -0.231421789800E+04   -0.20645E-01   -0.20651E-01  6386   0.300E-01    0.378E-01
RMM:   3    -0.231421789857E+04   -0.57231E-06   -0.19536E-02  6090   0.996E-02    0.250E-01
RMM:   4    -0.231421713718E+04    0.76139E-03   -0.18790E-03  5342   0.234E-02    0.118E-01
RMM:   5    -0.231421708870E+04    0.48486E-04   -0.37409E-04  4434   0.124E-02    0.123E-01
RMM:   6    -0.231421687538E+04    0.21331E-03   -0.40439E-04  4823   0.139E-02    0.392E-02
RMM:   7    -0.231421689028E+04   -0.14892E-04   -0.13407E-04  3626   0.982E-03    0.508E-02
RMM:   8    -0.231421686164E+04    0.28631E-04   -0.34115E-05  2913   0.520E-03    0.123E-02
RMM:   9    -0.231421685940E+04    0.22479E-05   -0.63129E-06  2887   0.330E-03
  35 F= -.23355106E+04 E0= -.23355106E+04  d E =-.787211E-02  mag=     4.0000
       N       E                     dE             d eps       ncg     rms          rms(c)
DAV:   1    -0.231420712906E+04    0.97326E-02   -0.17716E+00  4504   0.132E+00    0.318E-01
RMM:   2    -0.231422301354E+04   -0.15884E-01   -0.16098E-01  6385   0.276E-01    0.320E-01
RMM:   3    -0.231422305459E+04   -0.41056E-04   -0.14159E-02  6087   0.881E-02    0.226E-01
RMM:   4    -0.231422241837E+04    0.63622E-03   -0.14463E-03  5358   0.219E-02    0.102E-01
RMM:   5    -0.231422240101E+04    0.17369E-04   -0.35486E-04  4243   0.123E-02    0.118E-01
RMM:   6    -0.231422222149E+04    0.17952E-03   -0.34361E-04  4627   0.129E-02    0.359E-02
RMM:   7    -0.231422221469E+04    0.68018E-05   -0.72915E-05  3379   0.850E-03
  36 F= -.23355158E+04 E0= -.23355158E+04  d E =-.519651E-02  mag=     4.0000
       N       E                     dE             d eps       ncg     rms          rms(c)
DAV:   1    -0.231419568444E+04    0.26537E-01   -0.34025E+00  4496   0.182E+00    0.446E-01
RMM:   2    -0.231422622240E+04   -0.30538E-01   -0.30991E-01  6414   0.382E-01    0.449E-01
RMM:   3    -0.231422627205E+04   -0.49652E-04   -0.27475E-02  6180   0.121E-01    0.318E-01
RMM:   4    -0.231422505005E+04    0.12220E-02   -0.28044E-03  5742   0.304E-02    0.142E-01
RMM:   5    -0.231422501469E+04    0.35364E-04   -0.67939E-04  4833   0.160E-02    0.162E-01
RMM:   6    -0.231422467251E+04    0.34218E-03   -0.66157E-04  5002   0.171E-02    0.506E-02
RMM:   7    -0.231422464676E+04    0.25753E-04   -0.14064E-04  4326   0.107E-02    0.242E-02
RMM:   8    -0.231422464542E+04    0.13386E-05   -0.25642E-05  2936   0.475E-03
  37 F= -.23355180E+04 E0= -.23355180E+04  d E =-.741835E-02  mag=     4.0000
       N       E                     dE             d eps       ncg     rms          rms(c)
DAV:   1    -0.231421747540E+04    0.71714E-02   -0.12564E+00  4528   0.109E+00    0.262E-01
RMM:   2    -0.231422818047E+04   -0.10705E-01   -0.11048E-01  6454   0.228E-01    0.235E-01
RMM:   3    -0.231422847637E+04   -0.29589E-03   -0.93718E-03  6007   0.697E-02    0.204E-01
RMM:   4    -0.231422800376E+04    0.47261E-03   -0.98965E-04  5067   0.184E-02    0.832E-02
RMM:   5    -0.231422799530E+04    0.84570E-05   -0.20286E-04  3384   0.918E-03    0.896E-02
RMM:   6    -0.231422789005E+04    0.10525E-03   -0.20464E-04  4277   0.106E-02    0.329E-02
RMM:   7    -0.231422789627E+04   -0.62134E-05   -0.66630E-05  3308   0.718E-03
  38 F= -.23355212E+04 E0= -.23355212E+04  d E =-.325374E-02  mag=     4.0000
       N       E                     dE             d eps       ncg     rms          rms(c)
DAV:   1    -0.231413739030E+04    0.90500E-01   -0.11298E+01  4496   0.328E+00    0.785E-01
RMM:   2    -0.231423514800E+04   -0.97758E-01   -0.10045E+00  6457   0.692E-01    0.729E-01
RMM:   3    -0.231423658452E+04   -0.14365E-02   -0.85271E-02  6228   0.214E-01    0.593E-01
RMM:   4    -0.231423260123E+04    0.39833E-02   -0.88229E-03  6180   0.539E-02    0.254E-01
RMM:   5    -0.231423243881E+04    0.16242E-03   -0.18679E-03  5441   0.246E-02    0.264E-01
RMM:   6    -0.231423154203E+04    0.89677E-03   -0.18162E-03  5390   0.279E-02    0.103E-01
RMM:   7    -0.231423152627E+04    0.15765E-04   -0.56434E-04  5356   0.179E-02    0.941E-02
RMM:   8    -0.231423144468E+04    0.81593E-04   -0.14560E-04  3221   0.784E-03    0.407E-02
RMM:   9    -0.231423142528E+04    0.19400E-04   -0.28318E-05  3108   0.496E-03    0.178E-02
RMM:  10    -0.231423141932E+04    0.59599E-05   -0.16926E-05  2896   0.363E-03
  39 F= -.23355248E+04 E0= -.23355248E+04  d E =-.681467E-02  mag=     4.0000
       N       E                     dE             d eps       ncg     rms          rms(c)
DAV:   1    -0.231421250923E+04    0.18916E-01   -0.27788E+00  4496   0.160E+00    0.391E-01
RMM:   2    -0.231423657165E+04   -0.24062E-01   -0.25134E-01  6417   0.341E-01    0.317E-01
RMM:   3    -0.231423776071E+04   -0.11891E-02   -0.21392E-02  6139   0.105E-01    0.332E-01
RMM:   4    -0.231423656030E+04    0.12004E-02   -0.22945E-03  5907   0.276E-02    0.125E-01
RMM:   5    -0.231423653363E+04    0.26673E-04   -0.48443E-04  4498   0.131E-02    0.135E-01
RMM:   6    -0.231423630298E+04    0.23065E-03   -0.44405E-04  4991   0.146E-02    0.552E-02
RMM:   7    -0.231423630327E+04   -0.29732E-06   -0.15858E-04  4027   0.999E-03    0.560E-02
RMM:   8    -0.231423627226E+04    0.31019E-04   -0.47721E-05  2920   0.560E-03    0.174E-02
RMM:   9    -0.231423626926E+04    0.29983E-05   -0.82859E-06  2928   0.322E-03
  40 F= -.23355299E+04 E0= -.23355299E+04  d E =-.512850E-02  mag=     4.0000
       N       E                     dE             d eps       ncg     rms          rms(c)
DAV:   1    -0.231421893696E+04    0.17335E-01   -0.21996E+00  4504   0.142E+00    0.348E-01
RMM:   2    -0.231423799945E+04   -0.19062E-01   -0.19909E-01  6427   0.304E-01    0.285E-01
RMM:   3    -0.231423894765E+04   -0.94820E-03   -0.16974E-02  6103   0.943E-02    0.298E-01
RMM:   4    -0.231423798148E+04    0.96617E-03   -0.18057E-03  5709   0.246E-02    0.110E-01
RMM:   5    -0.231423796380E+04    0.17679E-04   -0.40044E-04  4253   0.121E-02    0.121E-01
RMM:   6    -0.231423777982E+04    0.18398E-03   -0.35485E-04  4808   0.133E-02    0.488E-02
RMM:   7    -0.231423777990E+04   -0.80108E-07   -0.12440E-04  3741   0.908E-03    0.497E-02
RMM:   8    -0.231423775546E+04    0.24434E-04   -0.38199E-05  2908   0.539E-03    0.154E-02
RMM:   9    -0.231423775315E+04    0.23180E-05   -0.70518E-06  2916   0.302E-03
  41 F= -.23355317E+04 E0= -.23355317E+04  d E =-.687086E-02  mag=     4.0000
       N       E                     dE             d eps       ncg     rms          rms(c)
DAV:   1    -0.231423336251E+04    0.43930E-02   -0.11268E+00  4512   0.102E+00    0.282E-01
RMM:   2    -0.231424163573E+04   -0.82732E-02   -0.87795E-02  6255   0.207E-01    0.191E-01
RMM:   3    -0.231424233070E+04   -0.69497E-03   -0.76771E-03  5903   0.695E-02    0.252E-01
RMM:   4    -0.231424160563E+04    0.72507E-03   -0.91906E-04  5456   0.195E-02    0.741E-02
RMM:   5    -0.231424160868E+04   -0.30580E-05   -0.29161E-04  4375   0.114E-02    0.889E-02
RMM:   6    -0.231424151906E+04    0.89627E-04   -0.18242E-04  4028   0.101E-02    0.369E-02
RMM:   7    -0.231424151250E+04    0.65610E-05   -0.45958E-05  3075   0.659E-03
  42 F= -.23355355E+04 E0= -.23355355E+04  d E =-.382732E-02  mag=     4.0000
       N       E                     dE             d eps       ncg     rms          rms(c)
DAV:   1    -0.231423322775E+04    0.82913E-02   -0.13003E+00  4504   0.110E+00    0.304E-01
RMM:   2    -0.231424278643E+04   -0.95587E-02   -0.10156E-01  6245   0.223E-01    0.204E-01
RMM:   3    -0.231424361212E+04   -0.82568E-03   -0.89055E-03  5928   0.736E-02    0.274E-01
RMM:   4    -0.231424275870E+04    0.85342E-03   -0.10579E-03  5546   0.208E-02    0.789E-02
RMM:   5    -0.231424274730E+04    0.11402E-04   -0.33604E-04  4463   0.123E-02    0.891E-02
RMM:   6    -0.231424266622E+04    0.81074E-04   -0.20092E-04  4014   0.106E-02    0.443E-02
RMM:   7    -0.231424265204E+04    0.14181E-04   -0.54024E-05  3160   0.686E-03    0.270E-02
RMM:   8    -0.231424264631E+04    0.57333E-05   -0.16699E-05  2888   0.472E-03
  43 F= -.23355367E+04 E0= -.23355367E+04  d E =-.503694E-02  mag=     4.0000
       N       E                     dE             d eps       ncg     rms          rms(c)
DAV:   1    -0.231423603592E+04    0.66161E-02   -0.11375E+00  4512   0.102E+00    0.262E-01
RMM:   2    -0.231424509824E+04   -0.90623E-02   -0.95601E-02  6388   0.208E-01    0.190E-01
RMM:   3    -0.231424570048E+04   -0.60224E-03   -0.84509E-03  5892   0.680E-02    0.216E-01
RMM:   4    -0.231424517403E+04    0.52645E-03   -0.90889E-04  5192   0.184E-02    0.799E-02
RMM:   5    -0.231424516546E+04    0.85687E-05   -0.25182E-04  4069   0.106E-02    0.905E-02
RMM:   6    -0.231424506571E+04    0.99749E-04   -0.20388E-04  4227   0.104E-02    0.371E-02
RMM:   7    -0.231424505951E+04    0.61966E-05   -0.53904E-05  3184   0.672E-03
  44 F= -.23355393E+04 E0= -.23355393E+04  d E =-.256475E-02  mag=     4.0000
       N       E                     dE             d eps       ncg     rms          rms(c)
DAV:   1    -0.231423961400E+04    0.54517E-02   -0.73623E-01  4544   0.823E-01    0.213E-01
RMM:   2    -0.231424546926E+04   -0.58553E-02   -0.62031E-02  6392   0.169E-01    0.150E-01
RMM:   3    -0.231424588679E+04   -0.41753E-03   -0.55349E-03  5709   0.547E-02    0.175E-01
RMM:   4    -0.231424553450E+04    0.35228E-03   -0.58505E-04  4324   0.147E-02    0.638E-02
RMM:   5    -0.231424551662E+04    0.17884E-04   -0.16706E-04  3719   0.918E-03    0.675E-02
RMM:   6    -0.231424546518E+04    0.51440E-04   -0.12850E-04  3567   0.886E-03    0.324E-02
RMM:   7    -0.231424545694E+04    0.82428E-05   -0.36800E-05  3059   0.623E-03
  45 F= -.23355398E+04 E0= -.23355398E+04  d E =-.308652E-02  mag=     4.0000
       N       E                     dE             d eps       ncg     rms          rms(c)
DAV:   1    -0.231424144999E+04    0.40152E-02   -0.63207E-01  4528   0.779E-01    0.207E-01
RMM:   2    -0.231424752108E+04   -0.60711E-02   -0.63115E-02  6426   0.168E-01    0.159E-01
RMM:   3    -0.231424786929E+04   -0.34820E-03   -0.59450E-03  5868   0.567E-02    0.153E-01
RMM:   4    -0.231424757232E+04    0.29697E-03   -0.57666E-04  4091   0.142E-02    0.643E-02
RMM:   5    -0.231424756679E+04    0.55261E-05   -0.15963E-04  3523   0.906E-03    0.755E-02
RMM:   6    -0.231424750122E+04    0.65571E-04   -0.12183E-04  3634   0.851E-03    0.252E-02
RMM:   7    -0.231424749961E+04    0.16145E-05   -0.35870E-05  3110   0.589E-03
  46 F= -.23355419E+04 E0= -.23355419E+04  d E =-.215691E-02  mag=     4.0000
       N       E                     dE             d eps       ncg     rms          rms(c)
DAV:   1    -0.231423978539E+04    0.77158E-02   -0.88097E-01  4512   0.918E-01    0.244E-01
RMM:   2    -0.231424823730E+04   -0.84519E-02   -0.88052E-02  6402   0.197E-01    0.186E-01
RMM:   3    -0.231424870005E+04   -0.46276E-03   -0.82361E-03  5953   0.678E-02    0.177E-01
RMM:   4    -0.231424831409E+04    0.38596E-03   -0.79353E-04  4849   0.168E-02    0.747E-02
RMM:   5    -0.231424828698E+04    0.27115E-04   -0.22344E-04  3820   0.102E-02    0.779E-02
RMM:   6    -0.231424822330E+04    0.63674E-04   -0.15144E-04  3398   0.892E-03    0.360E-02
RMM:   7    -0.231424821100E+04    0.12305E-04   -0.42827E-05  3098   0.651E-03    0.138E-02
RMM:   8    -0.231424821135E+04   -0.35674E-06   -0.10550E-05  2893   0.471E-03
  47 F= -.23355428E+04 E0= -.23355428E+04  d E =-.300685E-02  mag=     4.0000
       N       E                     dE             d eps       ncg     rms          rms(c)
DAV:   1    -0.231424509314E+04    0.31179E-02   -0.62685E-01  4512   0.759E-01    0.198E-01
RMM:   2    -0.231425020243E+04   -0.51093E-02   -0.53143E-02  6378   0.155E-01    0.154E-01
RMM:   3    -0.231425050014E+04   -0.29771E-03   -0.50409E-03  5766   0.516E-02    0.151E-01
RMM:   4    -0.231425020185E+04    0.29829E-03   -0.48982E-04  4090   0.135E-02    0.588E-02
RMM:   5    -0.231425019587E+04    0.59793E-05   -0.14834E-04  3609   0.905E-03    0.703E-02
RMM:   6    -0.231425014025E+04    0.55624E-04   -0.10467E-04  3535   0.808E-03    0.248E-02
RMM:   7    -0.231425013809E+04    0.21538E-05   -0.30609E-05  3036   0.583E-03
  48 F= -.23355449E+04 E0= -.23355449E+04  d E =-.208254E-02  mag=     4.0000
       N       E                     dE             d eps       ncg     rms          rms(c)
DAV:   1    -0.231423922229E+04    0.10918E-01   -0.14361E+00  4504   0.115E+00    0.300E-01
RMM:   2    -0.231425090261E+04   -0.11680E-01   -0.12176E-01  6348   0.234E-01    0.228E-01
RMM:   3    -0.231425162139E+04   -0.71878E-03   -0.11612E-02  6029   0.801E-02    0.229E-01
RMM:   4    -0.231425094780E+04    0.67359E-03   -0.11527E-03  5312   0.204E-02    0.902E-02
RMM:   5    -0.231425092733E+04    0.20471E-04   -0.33991E-04  4529   0.124E-02    0.104E-01
RMM:   6    -0.231425080575E+04    0.12158E-03   -0.23957E-04  4453   0.108E-02    0.385E-02
RMM:   7    -0.231425079775E+04    0.80012E-05   -0.62396E-05  3323   0.713E-03
  49 F= -.23355458E+04 E0= -.23355458E+04  d E =-.298161E-02  mag=     4.0000
       N       E                     dE             d eps       ncg     rms          rms(c)
DAV:   1    -0.231424813747E+04    0.26683E-02   -0.65573E-01  4512   0.750E-01    0.181E-01
RMM:   2    -0.231425225536E+04   -0.41179E-02   -0.43382E-02  6317   0.143E-01    0.126E-01
RMM:   3    -0.231425256288E+04   -0.30752E-03   -0.38364E-03  5457   0.445E-02    0.152E-01
RMM:   4    -0.231425228173E+04    0.28115E-03   -0.39815E-04  3591   0.122E-02    0.509E-02
RMM:   5    -0.231425226303E+04    0.18701E-04   -0.12601E-04  3685   0.830E-03    0.519E-02
RMM:   6    -0.231425223905E+04    0.23975E-04   -0.84776E-05  3065   0.762E-03    0.266E-02
RMM:   7    -0.231425223317E+04    0.58852E-05   -0.18499E-05  2926   0.520E-03
  50 F= -.23355474E+04 E0= -.23355474E+04  d E =-.164363E-02  mag=     4.0000
       N       E                     dE             d eps       ncg     rms          rms(c)
DAV:   1    -0.231423782714E+04    0.14412E-01   -0.24028E+00  4504   0.144E+00    0.343E-01
RMM:   2    -0.231425298012E+04   -0.15153E-01   -0.15819E-01  6309   0.273E-01    0.252E-01
RMM:   3    -0.231425407376E+04   -0.10936E-02   -0.14317E-02  6017   0.907E-02    0.294E-01
RMM:   4    -0.231425299865E+04    0.10751E-02   -0.14791E-03  5582   0.235E-02    0.992E-02
RMM:   5    -0.231425299553E+04    0.31273E-05   -0.47195E-04  5048   0.144E-02    0.128E-01
RMM:   6    -0.231425280767E+04    0.18786E-03   -0.33660E-04  4918   0.129E-02    0.405E-02
RMM:   7    -0.231425280636E+04    0.13070E-05   -0.79114E-05  3258   0.750E-03
  51 F= -.23355484E+04 E0= -.23355484E+04  d E =-.261915E-02  mag=     4.0000
       N       E                     dE             d eps       ncg     rms          rms(c)
DAV:   1    -0.231424995107E+04    0.28566E-02   -0.86342E-01  4504   0.845E-01    0.203E-01
RMM:   2    -0.231425448346E+04   -0.45324E-02   -0.48753E-02  6221   0.158E-01    0.105E-01
RMM:   3    -0.231425479147E+04   -0.30801E-03   -0.40577E-03  5468   0.483E-02    0.141E-01
RMM:   4    -0.231425459204E+04    0.19943E-03   -0.45205E-04  3744   0.128E-02    0.598E-02
RMM:   5    -0.231425455094E+04    0.41108E-04   -0.15497E-04  4099   0.961E-03    0.468E-02
RMM:   6    -0.231425454451E+04    0.64211E-05   -0.84095E-05  3101   0.832E-03
  52 F= -.23355503E+04 E0= -.23355503E+04  d E =-.191866E-02  mag=     4.0000
       N       E                     dE             d eps       ncg     rms          rms(c)
DAV:   1    -0.231424754057E+04    0.70104E-02   -0.13700E+00  4504   0.107E+00    0.254E-01
RMM:   2    -0.231425473949E+04   -0.71989E-02   -0.77273E-02  6187   0.199E-01    0.131E-01
RMM:   3    -0.231425514358E+04   -0.40409E-03   -0.62863E-03  5710   0.606E-02    0.157E-01
RMM:   4    -0.231425491090E+04    0.23268E-03   -0.71060E-04  4745   0.159E-02    0.792E-02
RMM:   5    -0.231425486478E+04    0.46120E-04   -0.24270E-04  4409   0.115E-02    0.744E-02
RMM:   6    -0.231425481683E+04    0.47947E-04   -0.15167E-04  3643   0.956E-03    0.406E-02
RMM:   7    -0.231425480030E+04    0.16530E-04   -0.28192E-05  2979   0.590E-03    0.136E-02
RMM:   8    -0.231425480065E+04   -0.34709E-06   -0.94154E-06  2877   0.404E-03
  53 F= -.23355508E+04 E0= -.23355508E+04  d E =-.240526E-02  mag=     4.0000
       N       E                     dE             d eps       ncg     rms          rms(c)
DAV:   1    -0.231425250094E+04    0.22994E-02   -0.75052E-01  4512   0.768E-01    0.167E-01
RMM:   2    -0.231425630356E+04   -0.38026E-02   -0.40232E-02  6290   0.142E-01    0.996E-02
RMM:   3    -0.231425653504E+04   -0.23147E-03   -0.32368E-03  5409   0.416E-02    0.124E-01
RMM:   4    -0.231425638289E+04    0.15215E-03   -0.34697E-04  3718   0.114E-02    0.544E-02
RMM:   5    -0.231425637219E+04    0.10696E-04   -0.11057E-04  3405   0.789E-03    0.572E-02
RMM:   6    -0.231425633502E+04    0.37169E-04   -0.85473E-05  3338   0.761E-03    0.228E-02
RMM:   7    -0.231425633189E+04    0.31315E-05   -0.17871E-05  2949   0.516E-03
  54 F= -.23355524E+04 E0= -.23355524E+04  d E =-.164260E-02  mag=     4.0000
       N       E                     dE             d eps       ncg     rms          rms(c)
DAV:   1    -0.231422263101E+04    0.33704E-01   -0.67492E+00  4496   0.230E+00    0.503E-01
RMM:   2    -0.231425704405E+04   -0.34413E-01   -0.36382E-01  6318   0.429E-01    0.303E-01
RMM:   3    -0.231425909971E+04   -0.20557E-02   -0.29652E-02  6069   0.128E-01    0.368E-01
RMM:   4    -0.231425774223E+04    0.13575E-02   -0.31732E-03  6269   0.337E-02    0.165E-01
RMM:   5    -0.231425759611E+04    0.14612E-03   -0.95713E-04  5043   0.192E-02    0.165E-01
RMM:   6    -0.231425729916E+04    0.29696E-03   -0.74226E-04  5351   0.184E-02    0.757E-02
RMM:   7    -0.231425725190E+04    0.47257E-04   -0.14838E-04  4289   0.983E-03    0.337E-02
RMM:   8    -0.231425724843E+04    0.34666E-05   -0.35624E-05  2909   0.542E-03
  55 F= -.23355537E+04 E0= -.23355537E+04  d E =-.290492E-02  mag=     4.0000
       N       E                     dE             d eps       ncg     rms          rms(c)
DAV:   1    -0.231425336956E+04    0.38823E-02   -0.11230E+00  4504   0.935E-01    0.209E-01
RMM:   2    -0.231425917106E+04   -0.58015E-02   -0.59858E-02  6337   0.175E-01    0.168E-01
RMM:   3    -0.231425941593E+04   -0.24487E-03   -0.49886E-03  5829   0.523E-02    0.168E-01
RMM:   4    -0.231425909457E+04    0.32136E-03   -0.49973E-04  4526   0.146E-02    0.657E-02
RMM:   5    -0.231425910004E+04   -0.54725E-05   -0.16506E-04  3444   0.884E-03    0.791E-02
RMM:   6    -0.231425902000E+04    0.80041E-04   -0.16147E-04  4118   0.952E-03    0.240E-02
RMM:   7    -0.231425901810E+04    0.18971E-05   -0.28211E-05  3008   0.589E-03
  56 F= -.23355557E+04 E0= -.23355557E+04  d E =-.198657E-02  mag=     4.0000
       N       E                     dE             d eps       ncg     rms          rms(c)
DAV:   1    -0.231422894634E+04    0.30074E-01   -0.61341E+00  4496   0.219E+00    0.487E-01
RMM:   2    -0.231426091803E+04   -0.31972E-01   -0.32915E-01  6325   0.409E-01    0.398E-01
RMM:   3    -0.231426199570E+04   -0.10777E-02   -0.26997E-02  6179   0.124E-01    0.381E-01
RMM:   4    -0.231426030647E+04    0.16892E-02   -0.27820E-03  6167   0.336E-02    0.154E-01
RMM:   5    -0.231426027812E+04    0.28347E-04   -0.87330E-04  5093   0.180E-02    0.179E-01
RMM:   6    -0.231425989053E+04    0.38759E-03   -0.80364E-04  5453   0.184E-02    0.654E-02
RMM:   7    -0.231425986469E+04    0.25839E-04   -0.16961E-04  4409   0.108E-02    0.399E-02
RMM:   8    -0.231425985410E+04    0.10597E-04   -0.39658E-05  2923   0.507E-03    0.277E-02
RMM:   9    -0.231425984515E+04    0.89448E-05   -0.10773E-05  2917   0.358E-03
  57 F= -.23355570E+04 E0= -.23355570E+04  d E =-.333088E-02  mag=     4.0000
       N       E                     dE             d eps       ncg     rms          rms(c)
DAV:   1    -0.231424815532E+04    0.11699E-01   -0.22996E+00  4496   0.136E+00    0.314E-01
RMM:   2    -0.231426297208E+04   -0.14817E-01   -0.14948E-01  6416   0.265E-01    0.302E-01
RMM:   3    -0.231426309101E+04   -0.11893E-03   -0.12717E-02  6114   0.805E-02    0.225E-01
RMM:   4    -0.231426247280E+04    0.61821E-03   -0.11963E-03  5533   0.210E-02    0.969E-02
RMM:   5    -0.231426245347E+04    0.19337E-04   -0.37777E-04  4388   0.125E-02    0.116E-01
RMM:   6    -0.231426230339E+04    0.15007E-03   -0.31313E-04  4483   0.117E-02    0.446E-02
RMM:   7    -0.231426228824E+04    0.15149E-04   -0.70563E-05  3436   0.759E-03    0.216E-02
RMM:   8    -0.231426228733E+04    0.91095E-06   -0.16663E-05  2900   0.455E-03
  58 F= -.23355599E+04 E0= -.23355599E+04  d E =-.282462E-02  mag=     4.0000
       N       E                     dE             d eps       ncg     rms          rms(c)
DAV:   1    -0.231424998631E+04    0.12302E-01   -0.20604E+00  4496   0.129E+00    0.298E-01
RMM:   2    -0.231426322316E+04   -0.13237E-01   -0.13376E-01  6411   0.251E-01    0.284E-01
RMM:   3    -0.231426338080E+04   -0.15764E-03   -0.11445E-02  6090   0.759E-02    0.216E-01
RMM:   4    -0.231426282265E+04    0.55815E-03   -0.10799E-03  5453   0.200E-02    0.917E-02
RMM:   5    -0.231426281594E+04    0.67118E-05   -0.33014E-04  4302   0.117E-02    0.112E-01
RMM:   6    -0.231426267158E+04    0.14435E-03   -0.28343E-04  4477   0.113E-02    0.418E-02
RMM:   7    -0.231426266012E+04    0.11459E-04   -0.64602E-05  3346   0.727E-03    0.231E-02
RMM:   8    -0.231426265753E+04    0.25910E-05   -0.16678E-05  2894   0.458E-03
  59 F= -.23355606E+04 E0= -.23355606E+04  d E =-.356256E-02  mag=     4.0000
       N       E                     dE             d eps       ncg     rms          rms(c)
DAV:   1    -0.231425995563E+04    0.27045E-02   -0.72371E-01  4576   0.812E-01    0.211E-01
RMM:   2    -0.231426446424E+04   -0.45086E-02   -0.46890E-02  6268   0.157E-01    0.149E-01
RMM:   3    -0.231426467692E+04   -0.21268E-03   -0.40269E-03  5833   0.510E-02    0.158E-01
RMM:   4    -0.231426436709E+04    0.30983E-03   -0.42730E-04  4730   0.143E-02    0.551E-02
RMM:   5    -0.231426433598E+04    0.31113E-04   -0.18477E-04  4164   0.103E-02    0.489E-02
RMM:   6    -0.231426432445E+04    0.11529E-04   -0.73532E-05  3060   0.744E-03    0.359E-02
RMM:   7    -0.231426431125E+04    0.13197E-04   -0.17987E-05  2911   0.492E-03    0.888E-03
RMM:   8    -0.231426431199E+04   -0.74039E-06   -0.54183E-06  2868   0.338E-03
  60 F= -.23355623E+04 E0= -.23355623E+04  d E =-.170539E-02  mag=     4.0000
       N       E                     dE             d eps       ncg     rms          rms(c)
DAV:   1    -0.231426167162E+04    0.26396E-02   -0.46399E-01  4528   0.650E-01    0.169E-01
RMM:   2    -0.231426456517E+04   -0.28936E-02   -0.30037E-02  6256   0.126E-01    0.119E-01
RMM:   3    -0.231426469847E+04   -0.13329E-03   -0.25730E-03  5616   0.404E-02    0.126E-01
RMM:   4    -0.231426450019E+04    0.19828E-03   -0.27267E-04  3880   0.115E-02    0.445E-02
RMM:   5    -0.231426448410E+04    0.16085E-04   -0.12202E-04  3760   0.885E-03    0.443E-02
RMM:   6    -0.231426447023E+04    0.13873E-04   -0.52037E-05  2997   0.656E-03    0.273E-02
RMM:   7    -0.231426446261E+04    0.76203E-05   -0.12368E-05  2905   0.450E-03
  61 F= -.23355625E+04 E0= -.23355625E+04  d E =-.189771E-02  mag=     4.0000
       N       E                     dE             d eps       ncg     rms          rms(c)
DAV:   1    -0.231426154125E+04    0.29290E-02   -0.83821E-01  4504   0.882E-01    0.208E-01
RMM:   2    -0.231426583224E+04   -0.42910E-02   -0.45321E-02  6229   0.160E-01    0.123E-01
RMM:   3    -0.231426607481E+04   -0.24258E-03   -0.36481E-03  5772   0.522E-02    0.146E-01
RMM:   4    -0.231426582963E+04    0.24518E-03   -0.40482E-04  4456   0.141E-02    0.573E-02
RMM:   5    -0.231426580085E+04    0.28780E-04   -0.17834E-04  4151   0.107E-02    0.541E-02
RMM:   6    -0.231426578065E+04    0.20202E-04   -0.79557E-05  3167   0.764E-03    0.339E-02
RMM:   7    -0.231426576916E+04    0.11488E-04   -0.17701E-05  2907   0.512E-03    0.879E-03
RMM:   8    -0.231426576995E+04   -0.78943E-06   -0.58017E-06  2865   0.338E-03
  62 F= -.23355638E+04 E0= -.23355638E+04  d E =-.130659E-02  mag=     4.0000
       N       E                     dE             d eps       ncg     rms          rms(c)
DAV:   1    -0.231426447356E+04    0.12956E-02   -0.29707E-01  4608   0.525E-01    0.124E-01
RMM:   2    -0.231426600466E+04   -0.15311E-02   -0.16105E-02  6164   0.953E-02    0.780E-02
RMM:   3    -0.231426609663E+04   -0.91965E-04   -0.13252E-03  4883   0.297E-02    0.951E-02
RMM:   4    -0.231426599654E+04    0.10008E-03   -0.14791E-04  3211   0.901E-03    0.351E-02
RMM:   5    -0.231426600065E+04   -0.41034E-05   -0.60869E-05  3072   0.667E-03
  63 F= -.23355640E+04 E0= -.23355640E+04  d E =-.153764E-02  mag=     4.0000
       N       E                     dE             d eps       ncg     rms          rms(c)
DAV:   1    -0.231426561222E+04    0.38432E-03   -0.34164E-01  4512   0.587E-01    0.147E-01
RMM:   2    -0.231426719666E+04   -0.15844E-02   -0.17172E-02  6109   0.107E-01    0.752E-02
RMM:   3    -0.231426731564E+04   -0.11898E-03   -0.14381E-03  5279   0.371E-02    0.105E-01
RMM:   4    -0.231426719384E+04    0.12180E-03   -0.17914E-04  3490   0.997E-03    0.428E-02
RMM:   5    -0.231426717376E+04    0.20086E-04   -0.10301E-04  3991   0.878E-03    0.324E-02
RMM:   6    -0.231426716871E+04    0.50448E-05   -0.35321E-05  2936   0.625E-03
  64 F= -.23355652E+04 E0= -.23355652E+04  d E =-.118139E-02  mag=     4.0000
       N       E                     dE             d eps       ncg     rms          rms(c)
DAV:   1    -0.231426688549E+04    0.28827E-03   -0.83454E-02  4720   0.290E-01    0.740E-02
RMM:   2    -0.231426728509E+04   -0.39960E-03   -0.42812E-03  6034   0.531E-02    0.421E-02
RMM:   3    -0.231426732491E+04   -0.39824E-04   -0.37686E-04  3772   0.180E-02    0.632E-02
RMM:   4    -0.231426728047E+04    0.44446E-04   -0.49513E-05  2973   0.649E-03    0.207E-02
RMM:   5    -0.231426727941E+04    0.10566E-05   -0.24740E-05  2954   0.441E-03
  65 F= -.23355653E+04 E0= -.23355653E+04  d E =-.129887E-02  mag=     4.0000
       N       E                     dE             d eps       ncg     rms          rms(c)
DAV:   1    -0.231426662715E+04    0.65331E-03   -0.37234E-01  4512   0.628E-01    0.143E-01
RMM:   2    -0.231426822425E+04   -0.15971E-02   -0.17177E-02  6005   0.109E-01    0.795E-02
RMM:   3    -0.231426837079E+04   -0.14654E-03   -0.15236E-03  5284   0.387E-02    0.117E-01
RMM:   4    -0.231426820955E+04    0.16125E-03   -0.17855E-04  3502   0.102E-02    0.393E-02
RMM:   5    -0.231426819016E+04    0.19389E-04   -0.11044E-04  4110   0.917E-03    0.305E-02
RMM:   6    -0.231426818645E+04    0.37032E-05   -0.31165E-05  2948   0.650E-03
  66 F= -.23355662E+04 E0= -.23355662E+04  d E =-.855241E-03  mag=     4.0000
       N       E                     dE             d eps       ncg     rms          rms(c)
DAV:   1    -0.231426801160E+04    0.17856E-03   -0.54141E-02  4736   0.240E-01    0.559E-02
RMM:   2    -0.231426825007E+04   -0.23847E-03   -0.25660E-03  5976   0.421E-02    0.295E-02
RMM:   3    -0.231426827079E+04   -0.20726E-04   -0.22602E-04  3492   0.148E-02    0.429E-02
RMM:   4    -0.231426824920E+04    0.21597E-04   -0.27134E-05  2909   0.518E-03    0.158E-02
RMM:   5    -0.231426824807E+04    0.11279E-05   -0.14590E-05  2930   0.360E-03
  67 F= -.23355662E+04 E0= -.23355662E+04  d E =-.897182E-03  mag=     4.0000
       N       E                     dE             d eps       ncg     rms          rms(c)
DAV:   1    -0.231426729120E+04    0.95800E-03   -0.38881E-01  4512   0.657E-01    0.141E-01
RMM:   2    -0.231426909407E+04   -0.18029E-02   -0.19433E-02  6090   0.116E-01    0.668E-02
RMM:   3    -0.231426915502E+04   -0.60951E-04   -0.16190E-03  5108   0.397E-02    0.732E-02
RMM:   4    -0.231426911901E+04    0.36008E-04   -0.16560E-04  3164   0.975E-03    0.461E-02
RMM:   5    -0.231426909739E+04    0.21618E-04   -0.88072E-05  3931   0.830E-03    0.389E-02
RMM:   6    -0.231426908566E+04    0.11729E-04   -0.40650E-05  3007   0.658E-03    0.212E-02
RMM:   7    -0.231426908153E+04    0.41324E-05   -0.92944E-06  2869   0.394E-03
  68 F= -.23355670E+04 E0= -.23355670E+04  d E =-.813662E-03  mag=     4.0000
       N       E                     dE             d eps       ncg     rms          rms(c)
DAV:   1    -0.231426865938E+04    0.42628E-03   -0.10985E-01  4544   0.349E-01    0.761E-02
RMM:   2    -0.231426917540E+04   -0.51601E-03   -0.55555E-03  6223   0.625E-02    0.359E-02
RMM:   3    -0.231426919595E+04   -0.20549E-04   -0.45876E-04  4100   0.210E-02    0.416E-02
RMM:   4    -0.231426918117E+04    0.14777E-04   -0.48134E-05  2938   0.611E-03    0.239E-02
RMM:   5    -0.231426917169E+04    0.94788E-05   -0.23610E-05  2959   0.483E-03
  69 F= -.23355671E+04 E0= -.23355671E+04  d E =-.893461E-03  mag=     4.0000
       N       E                     dE             d eps       ncg     rms          rms(c)
DAV:   1    -0.231426816990E+04    0.10113E-02   -0.35007E-01  4504   0.624E-01    0.138E-01
RMM:   2    -0.231426997499E+04   -0.18051E-02   -0.18728E-02  6205   0.112E-01    0.984E-02
RMM:   3    -0.231427009515E+04   -0.12016E-03   -0.17357E-03  5283   0.387E-02    0.123E-01
RMM:   4    -0.231426992386E+04    0.17129E-03   -0.18306E-04  3375   0.106E-02    0.409E-02
RMM:   5    -0.231426993203E+04   -0.81709E-05   -0.80543E-05  3182   0.780E-03
  70 F= -.23355679E+04 E0= -.23355679E+04  d E =-.773887E-03  mag=     4.0000
       N       E                     dE             d eps       ncg     rms          rms(c)
DAV:   1    -0.231426837255E+04    0.15513E-02   -0.32034E-01  4512   0.597E-01    0.131E-01
RMM:   2    -0.231426997834E+04   -0.16058E-02   -0.17067E-02  6193   0.107E-01    0.771E-02
RMM:   3    -0.231427007981E+04   -0.10147E-03   -0.15702E-03  5284   0.371E-02    0.100E-01
RMM:   4    -0.231426997108E+04    0.10873E-03   -0.16310E-04  3160   0.969E-03    0.362E-02
RMM:   5    -0.231426996456E+04    0.65190E-05   -0.93179E-05  3945   0.832E-03
  71 F= -.23355679E+04 E0= -.23355679E+04  d E =-.819965E-03  mag=     4.0000
       N       E                     dE             d eps       ncg     rms          rms(c)
DAV:   1    -0.231426936205E+04    0.60902E-03   -0.25349E-01  4512   0.522E-01    0.989E-02
RMM:   2    -0.231427052196E+04   -0.11599E-02   -0.11986E-02  6274   0.922E-02    0.756E-02
RMM:   3    -0.231427057276E+04   -0.50799E-04   -0.10414E-03  5166   0.304E-02    0.826E-02
RMM:   4    -0.231427050016E+04    0.72598E-04   -0.10892E-04  3101   0.886E-03    0.327E-02
RMM:   5    -0.231427050594E+04   -0.57809E-05   -0.45536E-05  2970   0.600E-03
  72 F= -.23355684E+04 E0= -.23355684E+04  d E =-.492986E-03  mag=     4.0000
       N       E                     dE             d eps       ncg     rms          rms(c)
DAV:   1    -0.231426625661E+04    0.42436E-02   -0.10324E+00  4496   0.105E+00    0.196E-01
RMM:   2    -0.231427086556E+04   -0.46090E-02   -0.48106E-02  6127   0.180E-01    0.134E-01
RMM:   3    -0.231427109880E+04   -0.23323E-03   -0.42008E-03  5747   0.602E-02    0.156E-01
RMM:   4    -0.231427084006E+04    0.25874E-03   -0.42361E-04  4299   0.150E-02    0.609E-02
RMM:   5    -0.231427086680E+04   -0.26735E-04   -0.20505E-04  4424   0.109E-02    0.917E-02
RMM:   6    -0.231427077276E+04    0.94035E-04   -0.14743E-04  4402   0.967E-03    0.193E-02
RMM:   7    -0.231427077108E+04    0.16815E-05   -0.17944E-05  2934   0.529E-03
  73 F= -.23355686E+04 E0= -.23355686E+04  d E =-.662291E-03  mag=     4.0000
       N       E                     dE             d eps       ncg     rms          rms(c)
DAV:   1    -0.231427003752E+04    0.73524E-03   -0.45737E-01  4496   0.698E-01    0.150E-01
RMM:   2    -0.231427178041E+04   -0.17429E-02   -0.18220E-02  5891   0.117E-01    0.947E-02
RMM:   3    -0.231427191565E+04   -0.13525E-03   -0.15612E-03  5149   0.404E-02    0.130E-01
RMM:   4    -0.231427171677E+04    0.19888E-03   -0.18629E-04  3578   0.108E-02    0.374E-02
RMM:   5    -0.231427171338E+04    0.33922E-05   -0.10071E-04  3911   0.875E-03    0.441E-02
RMM:   6    -0.231427169378E+04    0.19600E-04   -0.46508E-05  2978   0.659E-03    0.189E-02
RMM:   7    -0.231427169196E+04    0.18238E-05   -0.10352E-05  2890   0.441E-03
  74 F= -.23355694E+04 E0= -.23355694E+04  d E =-.826638E-03  mag=     4.0000
       N       E                     dE             d eps       ncg     rms          rms(c)
DAV:   1    -0.231427095340E+04    0.74038E-03   -0.26282E-01  4512   0.529E-01    0.114E-01
RMM:   2    -0.231427193501E+04   -0.98161E-03   -0.10428E-02  5924   0.887E-02    0.585E-02
RMM:   3    -0.231427199614E+04   -0.61132E-04   -0.86342E-04  4660   0.317E-02    0.814E-02
RMM:   4    -0.231427192514E+04    0.71009E-04   -0.98050E-05  3012   0.825E-03    0.297E-02
RMM:   5    -0.231427191472E+04    0.10417E-04   -0.53298E-05  3471   0.679E-03    0.238E-02
RMM:   6    -0.231427191204E+04    0.26743E-05   -0.23073E-05  2930   0.572E-03
  75 F= -.23355696E+04 E0= -.23355696E+04  d E =-.975676E-03  mag=     4.0000
       N       E                     dE             d eps       ncg     rms          rms(c)
DAV:   1    -0.231427167409E+04    0.24063E-03   -0.23186E-01  4512   0.495E-01    0.108E-01
RMM:   2    -0.231427263749E+04   -0.96340E-03   -0.10131E-02  5981   0.848E-02    0.635E-02
RMM:   3    -0.231427271794E+04   -0.80452E-04   -0.84710E-04  4699   0.279E-02    0.912E-02
RMM:   4    -0.231427261515E+04    0.10279E-03   -0.10022E-04  3086   0.814E-03    0.296E-02
RMM:   5    -0.231427261092E+04    0.42286E-05   -0.54619E-05  3249   0.677E-03
  76 F= -.23355702E+04 E0= -.23355702E+04  d E =-.643773E-03  mag=     4.0000
       N       E                     dE             d eps       ncg     rms          rms(c)
DAV:   1    -0.231427215351E+04    0.46164E-03   -0.15465E-01  4544   0.404E-01    0.893E-02
RMM:   2    -0.231427281890E+04   -0.66539E-03   -0.67913E-03  6209   0.706E-02    0.713E-02
RMM:   3    -0.231427285910E+04   -0.40198E-04   -0.68738E-04  4276   0.245E-02    0.830E-02
RMM:   4    -0.231427277727E+04    0.81824E-04   -0.67320E-05  3013   0.782E-03    0.237E-02
RMM:   5    -0.231427278438E+04   -0.71105E-05   -0.45436E-05  3140   0.607E-03
  77 F= -.23355704E+04 E0= -.23355704E+04  d E =-.772434E-03  mag=     4.0000
       N       E                     dE             d eps       ncg     rms          rms(c)
DAV:   1    -0.231427267311E+04    0.10416E-03   -0.14275E-01  4512   0.389E-01    0.933E-02
RMM:   2    -0.231427317106E+04   -0.49795E-03   -0.54197E-03  6067   0.684E-02    0.402E-02
RMM:   3    -0.231427319084E+04   -0.19780E-04   -0.42719E-04  4505   0.242E-02    0.550E-02
RMM:   4    -0.231427316091E+04    0.29929E-04   -0.51461E-05  2949   0.680E-03    0.255E-02
RMM:   5    -0.231427315420E+04    0.67135E-05   -0.34794E-05  3177   0.564E-03
  78 F= -.23355707E+04 E0= -.23355707E+04  d E =-.364269E-03  mag=     4.0000
       N       E                     dE             d eps       ncg     rms          rms(c)
DAV:   1    -0.231427307542E+04    0.85494E-04   -0.33003E-02  4752   0.187E-01    0.465E-02
RMM:   2    -0.231427320746E+04   -0.13204E-03   -0.13028E-03  6207   0.341E-02    0.389E-02
RMM:   3    -0.231427321162E+04   -0.41637E-05   -0.12443E-04  3273   0.115E-02    0.438E-02
RMM:   4    -0.231427318956E+04    0.22056E-04   -0.17104E-05  2910   0.517E-03    0.120E-02
RMM:   5    -0.231427319229E+04   -0.27288E-05   -0.10182E-05  2879   0.306E-03
  79 F= -.23355708E+04 E0= -.23355708E+04  d E =-.399714E-03  mag=     4.0000
       N       E                     dE             d eps       ncg     rms          rms(c)
DAV:   1    -0.231427298260E+04    0.20697E-03   -0.15481E-01  4512   0.407E-01    0.837E-02
RMM:   2    -0.231427357624E+04   -0.59364E-03   -0.63345E-03  6090   0.708E-02    0.456E-02
RMM:   3    -0.231427359120E+04   -0.14964E-04   -0.41932E-04  4310   0.220E-02    0.567E-02
RMM:   4    -0.231427355690E+04    0.34300E-04   -0.52600E-05  2941   0.666E-03    0.255E-02
RMM:   5    -0.231427355644E+04    0.46589E-06   -0.35519E-05  2979   0.580E-03
  80 F= -.23355712E+04 E0= -.23355712E+04  d E =-.407429E-03  mag=     4.0000
       N       E                     dE             d eps       ncg     rms          rms(c)
DAV:   1    -0.231427273928E+04    0.81763E-03   -0.22393E-01  4512   0.489E-01    0.101E-01
RMM:   2    -0.231427360599E+04   -0.86672E-03   -0.92727E-03  6290   0.870E-02    0.574E-02
RMM:   3    -0.231427362610E+04   -0.20111E-04   -0.62786E-04  4959   0.257E-02    0.719E-02
RMM:   4    -0.231427356942E+04    0.56686E-04   -0.81216E-05  3045   0.795E-03    0.291E-02
RMM:   5    -0.231427355572E+04    0.13702E-04   -0.61484E-05  3828   0.726E-03    0.152E-02
RMM:   6    -0.231427355739E+04   -0.16719E-05   -0.13182E-05  2905   0.563E-03
  81 F= -.23355712E+04 E0= -.23355712E+04  d E =-.460671E-03  mag=     4.0000
       N       E                     dE             d eps       ncg     rms          rms(c)
DAV:   1    -0.231427344248E+04    0.11324E-03   -0.79333E-02  4560   0.291E-01    0.572E-02
RMM:   2    -0.231427377271E+04   -0.33024E-03   -0.34596E-03  6106   0.500E-02    0.367E-02
RMM:   3    -0.231427378231E+04   -0.96002E-05   -0.23479E-04  3552   0.138E-02    0.449E-02
RMM:   4    -0.231427375975E+04    0.22561E-04   -0.30101E-05  2916   0.528E-03    0.167E-02
RMM:   5    -0.231427376137E+04   -0.16156E-05   -0.14646E-05  2921   0.355E-03
  82 F= -.23355715E+04 E0= -.23355715E+04  d E =-.242079E-03  mag=     4.0000
       N       E                     dE             d eps       ncg     rms          rms(c)
DAV:   1    -0.231427110813E+04    0.26516E-02   -0.71402E-01  4496   0.874E-01    0.169E-01
RMM:   2    -0.231427403315E+04   -0.29250E-02   -0.30638E-02  6154   0.151E-01    0.112E-01
RMM:   3    -0.231427412024E+04   -0.87083E-04   -0.21090E-03  5569   0.436E-02    0.133E-01
RMM:   4    -0.231427392181E+04    0.19843E-03   -0.25564E-04  3843   0.121E-02    0.481E-02
RMM:   5    -0.231427391435E+04    0.74593E-05   -0.15027E-04  4283   0.104E-02    0.577E-02
RMM:   6    -0.231427387954E+04    0.34805E-04   -0.61007E-05  3237   0.774E-03    0.211E-02
RMM:   7    -0.231427387704E+04    0.24979E-05   -0.12582E-05  2908   0.474E-03
  83 F= -.23355717E+04 E0= -.23355717E+04  d E =-.472572E-03  mag=     4.0000
       N       E                     dE             d eps       ncg     rms          rms(c)
DAV:   1    -0.231427383612E+04    0.43422E-04   -0.10103E-01  4592   0.333E-01    0.791E-02
RMM:   2    -0.231427430360E+04   -0.46748E-03   -0.48437E-03  6134   0.601E-02    0.582E-02
RMM:   3    -0.231427433034E+04   -0.26743E-04   -0.42948E-04  4081   0.204E-02    0.709E-02
RMM:   4    -0.231427427399E+04    0.56348E-04   -0.53650E-05  2931   0.672E-03    0.199E-02
RMM:   5    -0.231427427676E+04   -0.27679E-05   -0.27049E-05  2980   0.477E-03
  84 F= -.23355721E+04 E0= -.23355721E+04  d E =-.410289E-03  mag=     4.0000
       N       E                     dE             d eps       ncg     rms          rms(c)
DAV:   1    -0.231427392718E+04    0.34682E-03   -0.10451E-01  4512   0.338E-01    0.800E-02
RMM:   2    -0.231427441000E+04   -0.48283E-03   -0.50003E-03  6193   0.612E-02    0.612E-02
RMM:   3    -0.231427443520E+04   -0.25202E-04   -0.44359E-04  4144   0.205E-02    0.733E-02
RMM:   4    -0.231427437379E+04    0.61414E-04   -0.55822E-05  2959   0.710E-03    0.232E-02
RMM:   5    -0.231427437863E+04   -0.48413E-05   -0.28243E-05  2945   0.508E-03
  85 F= -.23355722E+04 E0= -.23355722E+04  d E =-.523084E-03  mag=     4.0000
       N       E                     dE             d eps       ncg     rms          rms(c)
DAV:   1    -0.231427438667E+04   -0.12877E-04   -0.48816E-02  4544   0.236E-01    0.611E-02
RMM:   2    -0.231427463274E+04   -0.24608E-03   -0.26264E-03  6159   0.446E-02    0.366E-02
RMM:   3    -0.231427466121E+04   -0.28472E-04   -0.24667E-04  3524   0.157E-02    0.567E-02
RMM:   4    -0.231427462487E+04    0.36348E-04   -0.32010E-05  2905   0.592E-03    0.141E-02
RMM:   5    -0.231427462204E+04    0.28268E-05   -0.16311E-05  2927   0.398E-03
  86 F= -.23355724E+04 E0= -.23355724E+04  d E =-.235086E-03  mag=     4.0000
       N       E                     dE             d eps       ncg     rms          rms(c)
DAV:   1    -0.231427443516E+04    0.18970E-03   -0.59946E-02  4512   0.261E-01    0.674E-02
RMM:   2    -0.231427473942E+04   -0.30426E-03   -0.32047E-03  6170   0.484E-02    0.443E-02
RMM:   3    -0.231427476356E+04   -0.24142E-04   -0.29458E-04  3702   0.169E-02    0.586E-02
RMM:   4    -0.231427472545E+04    0.38114E-04   -0.39231E-05  2907   0.606E-03    0.163E-02
RMM:   5    -0.231427472584E+04   -0.38742E-06   -0.19844E-05  2947   0.424E-03
  87 F= -.23355725E+04 E0= -.23355725E+04  d E =-.329707E-03  mag=     4.0000
       N       E                     dE             d eps       ncg     rms          rms(c)
DAV:   1    -0.231427463984E+04    0.85606E-04   -0.49180E-02  4512   0.237E-01    0.567E-02
RMM:   2    -0.231427491275E+04   -0.27291E-03   -0.29377E-03  6222   0.458E-02    0.301E-02
RMM:   3    -0.231427493241E+04   -0.19654E-04   -0.23970E-04  3552   0.152E-02    0.432E-02
RMM:   4    -0.231427491242E+04    0.19990E-04   -0.30604E-05  2917   0.558E-03    0.166E-02
RMM:   5    -0.231427491159E+04    0.83396E-06   -0.17443E-05  2919   0.402E-03
  88 F= -.23355728E+04 E0= -.23355728E+04  d E =-.224311E-03  mag=     4.0000
       N       E                     dE             d eps       ncg     rms          rms(c)
DAV:   1    -0.231427470600E+04    0.20641E-03   -0.39223E-02  4544   0.212E-01    0.515E-02
RMM:   2    -0.231427492819E+04   -0.22218E-03   -0.23592E-03  6219   0.409E-02    0.337E-02
RMM:   3    -0.231427494767E+04   -0.19482E-04   -0.20673E-04  3376   0.138E-02    0.472E-02
RMM:   4    -0.231427492294E+04    0.24735E-04   -0.26674E-05  2909   0.534E-03    0.144E-02
RMM:   5    -0.231427492306E+04   -0.12240E-06   -0.15571E-05  2921   0.381E-03
  89 F= -.23355728E+04 E0= -.23355728E+04  d E =-.270313E-03  mag=     4.0000
       N       E                     dE             d eps       ncg     rms          rms(c)
DAV:   1    -0.231427475680E+04    0.16614E-03   -0.57841E-02  4512   0.258E-01    0.611E-02
RMM:   2    -0.231427509227E+04   -0.33548E-03   -0.35975E-03  6209   0.494E-02    0.344E-02
RMM:   3    -0.231427511722E+04   -0.24946E-04   -0.29432E-04  3666   0.166E-02    0.489E-02
RMM:   4    -0.231427509081E+04    0.26406E-04   -0.36819E-05  2919   0.580E-03    0.172E-02
RMM:   5    -0.231427509040E+04    0.41811E-06   -0.19322E-05  2925   0.426E-03
  90 F= -.23355730E+04 E0= -.23355730E+04  d E =-.183847E-03  mag=     4.0000
       N       E                     dE             d eps       ncg     rms          rms(c)
DAV:   1    -0.231427481151E+04    0.27931E-03   -0.49510E-02  4528   0.239E-01    0.567E-02
RMM:   2    -0.231427510097E+04   -0.28946E-03   -0.31032E-03  6258   0.463E-02    0.330E-02
RMM:   3    -0.231427512270E+04   -0.21729E-04   -0.25545E-04  3494   0.151E-02    0.466E-02
RMM:   4    -0.231427509850E+04    0.24199E-04   -0.32691E-05  2915   0.567E-03    0.163E-02
RMM:   5    -0.231427509835E+04    0.14798E-06   -0.17848E-05  2921   0.403E-03
  91 F= -.23355730E+04 E0= -.23355730E+04  d E =-.207128E-03  mag=     4.0000
       N       E                     dE             d eps       ncg     rms          rms(c)
DAV:   1    -0.231427492619E+04    0.17231E-03   -0.60595E-02  4504   0.265E-01    0.609E-02
RMM:   2    -0.231427531734E+04   -0.39115E-03   -0.41305E-03  6265   0.517E-02    0.401E-02
RMM:   3    -0.231427534081E+04   -0.23468E-04   -0.34059E-04  3746   0.169E-02    0.490E-02
RMM:   4    -0.231427531378E+04    0.27024E-04   -0.40302E-05  2925   0.579E-03    0.171E-02
RMM:   5    -0.231427531359E+04    0.19727E-06   -0.19428E-05  2923   0.414E-03
  92 F= -.23355732E+04 E0= -.23355732E+04  d E =-.178937E-03  mag=     4.0000
[...]
RMM:   2    -0.231427800495E+04   -0.35971E-03   -0.37526E-03  6345   0.449E-02    0.403E-02
RMM:   3    -0.231427803081E+04   -0.25856E-04   -0.34838E-04  3434   0.144E-02    0.507E-02
RMM:   4    -0.231427800476E+04    0.26052E-04   -0.39809E-05  2931   0.538E-03    0.162E-02
RMM:   5    -0.231427800589E+04   -0.11371E-05   -0.13130E-05  2868   0.291E-03
 128 F= -.23355751E+04 E0= -.23355751E+04  d E =-.854179E-04  mag=     4.0000
       N       E                     dE             d eps       ncg     rms          rms(c)
DAV:   1    -0.231427799642E+04    0.83354E-05   -0.21655E-03  4944   0.476E-02    0.138E-02
RMM:   2    -0.231427801862E+04   -0.22197E-04   -0.19609E-04  4313   0.107E-02    0.215E-02
RMM:   3    -0.231427801509E+04    0.35311E-05   -0.21686E-05  2852   0.486E-03
 129 F= -.23355751E+04 E0= -.23355751E+04  d E =-.810411E-04  mag=     4.0000
       N       E                     dE             d eps       ncg     rms          rms(c)
DAV:   1    -0.231427785619E+04    0.16243E-03   -0.32079E-02  4536   0.185E-01    0.512E-02
RMM:   2    -0.231427812638E+04   -0.27019E-03   -0.28005E-03  6265   0.397E-02    0.404E-02
RMM:   3    -0.231427813847E+04   -0.12091E-04   -0.23622E-04  3233   0.127E-02    0.433E-02
RMM:   4    -0.231427811665E+04    0.21818E-04   -0.30659E-05  2911   0.488E-03    0.146E-02
RMM:   5    -0.231427811732E+04   -0.67202E-06   -0.11884E-05  2896   0.318E-03
 130 F= -.23355752E+04 E0= -.23355752E+04  d E =-.723234E-04  mag=     4.0000
       N       E                     dE             d eps       ncg     rms          rms(c)
DAV:   1    -0.231427810594E+04    0.10707E-04   -0.13731E-03  5168   0.387E-02    0.116E-02
RMM:   2    -0.231427811871E+04   -0.12771E-04   -0.12652E-04  3928   0.889E-03    0.134E-02
RMM:   3    -0.231427811822E+04    0.49801E-06   -0.13794E-05  2687   0.456E-03
 131 F= -.23355752E+04 E0= -.23355752E+04  d E =-.668434E-04  mag=     4.0000
       N       E                     dE             d eps       ncg     rms          rms(c)
DAV:   1    -0.231427811220E+04    0.65175E-05   -0.41952E-04  4372   0.212E-02    0.627E-03
RMM:   2    -0.231427811579E+04   -0.35970E-05   -0.35096E-05  2935   0.473E-03
 132 F= -.23355752E+04 E0= -.23355752E+04  d E =-.678073E-04  mag=     4.0000
       N       E                     dE             d eps       ncg     rms          rms(c)
DAV:   1    -0.231427796865E+04    0.14355E-03   -0.24586E-02  4496   0.164E-01    0.456E-02
RMM:   2    -0.231427820963E+04   -0.24098E-03   -0.23641E-03  6300   0.363E-02    0.488E-02
RMM:   3    -0.231427820664E+04    0.29879E-05   -0.21541E-04  3142   0.121E-02    0.385E-02
RMM:   4    -0.231427818949E+04    0.17151E-04   -0.24704E-05  2922   0.471E-03    0.150E-02
RMM:   5    -0.231427818858E+04    0.90829E-06   -0.78359E-06  2851   0.264E-03
 133 F= -.23355753E+04 E0= -.23355753E+04  d E =-.624826E-04  mag=     4.0000
       N       E                     dE             d eps       ncg     rms          rms(c)
DAV:   1    -0.231427817371E+04    0.15781E-04   -0.16706E-03  4888   0.429E-02    0.119E-02
RMM:   2    -0.231427818945E+04   -0.15734E-04   -0.16851E-04  4133   0.986E-03    0.912E-03
RMM:   3    -0.231427819077E+04   -0.13286E-05   -0.17611E-05  2814   0.470E-03
 134 F= -.23355753E+04 E0= -.23355753E+04  d E =-.619070E-04  mag=     4.0000
       N       E                     dE             d eps       ncg     rms          rms(c)
DAV:   1    -0.231427808341E+04    0.10604E-03   -0.20664E-02  4504   0.149E-01    0.393E-02
RMM:   2    -0.231427830370E+04   -0.22029E-03   -0.22663E-03  6240   0.338E-02    0.337E-02
RMM:   3    -0.231427831106E+04   -0.73676E-05   -0.19631E-04  3087   0.110E-02    0.309E-02
RMM:   4    -0.231427830004E+04    0.11020E-04   -0.22115E-05  2928   0.405E-03    0.140E-02
RMM:   5    -0.231427829966E+04    0.38416E-06   -0.66849E-06  2806   0.233E-03
 135 F= -.23355753E+04 E0= -.23355753E+04  d E =-.597917E-04  mag=     4.0000
       N       E                     dE             d eps       ncg     rms          rms(c)
DAV:   1    -0.231427824144E+04    0.58605E-04   -0.86994E-03  4504   0.965E-02    0.258E-02
RMM:   2    -0.231427833437E+04   -0.92933E-04   -0.95656E-04  5986   0.220E-02    0.239E-02
RMM:   3    -0.231427833671E+04   -0.23341E-05   -0.85457E-05  2947   0.723E-03
 136 F= -.23355753E+04 E0= -.23355753E+04  d E =-.646699E-04  mag=     4.0000
       N       E                     dE             d eps       ncg     rms          rms(c)
DAV:   1    -0.231427817418E+04    0.16019E-03   -0.25880E-02  4528   0.166E-01    0.443E-02
RMM:   2    -0.231427844663E+04   -0.27244E-03   -0.27931E-03  6268   0.378E-02    0.389E-02
RMM:   3    -0.231427845324E+04   -0.66116E-05   -0.24823E-04  3150   0.119E-02    0.323E-02
RMM:   4    -0.231427844137E+04    0.11870E-04   -0.27169E-05  2939   0.437E-03    0.157E-02
RMM:   5    -0.231427844162E+04   -0.24997E-06   -0.97263E-06  2833   0.273E-03
 137 F= -.23355754E+04 E0= -.23355754E+04  d E =-.567615E-04  mag=     4.0000
       N       E                     dE             d eps       ncg     rms          rms(c)
DAV:   1    -0.231427843386E+04    0.75138E-05   -0.14389E-03  4912   0.396E-02    0.116E-02
RMM:   2    -0.231427844998E+04   -0.16129E-04   -0.15985E-04  4011   0.934E-03    0.140E-02
RMM:   3    -0.231427844921E+04    0.76984E-06   -0.16340E-05  2770   0.462E-03
 138 F= -.23355754E+04 E0= -.23355754E+04  d E =-.526826E-04  mag=     4.0000
       N       E                     dE             d eps       ncg     rms          rms(c)
DAV:   1    -0.231427843978E+04    0.10205E-04   -0.38680E-04  4368   0.204E-02    0.630E-03
RMM:   2    -0.231427844359E+04   -0.38054E-05   -0.39454E-05  3017   0.468E-03
 139 F= -.23355754E+04 E0= -.23355754E+04  d E =-.528618E-04  mag=     4.0000
       N       E                     dE             d eps       ncg     rms          rms(c)
DAV:   1    -0.231427838669E+04    0.53088E-04   -0.14182E-02  4504   0.125E-01    0.370E-02
RMM:   2    -0.231427851366E+04   -0.12697E-03   -0.12782E-03  6160   0.274E-02    0.349E-02
RMM:   3    -0.231427851736E+04   -0.36972E-05   -0.12469E-04  3005   0.989E-03    0.340E-02
RMM:   4    -0.231427850388E+04    0.13481E-04   -0.15653E-05  2904   0.406E-03    0.112E-02
RMM:   5    -0.231427850357E+04    0.31201E-06   -0.51898E-06  2789   0.217E-03
 140 F= -.23355754E+04 E0= -.23355754E+04  d E =-.480076E-04  mag=     4.0000
       N       E                     dE             d eps       ncg     rms          rms(c)
DAV:   1    -0.231427849819E+04    0.56892E-05   -0.79630E-04  4944   0.299E-02    0.896E-03
RMM:   2    -0.231427850556E+04   -0.73727E-05   -0.77374E-05  3511   0.680E-03
 141 F= -.23355754E+04 E0= -.23355754E+04  d E =-.470713E-04  mag=     4.0000
       N       E                     dE             d eps       ncg     rms          rms(c)
DAV:   1    -0.231427850255E+04   -0.43615E-05   -0.23727E-04  4344   0.167E-02    0.787E-03
RMM:   2    -0.231427850760E+04   -0.50503E-05   -0.25036E-05  2698   0.399E-03
 142 F= -.23355754E+04 E0= -.23355754E+04  d E =-.506415E-04  mag=     4.0000
       N       E                     dE             d eps       ncg     rms          rms(c)
DAV:   1    -0.231427847922E+04    0.23327E-04   -0.67877E-03  4504   0.864E-02    0.242E-02
RMM:   2    -0.231427853467E+04   -0.55450E-04   -0.59509E-04  5828   0.192E-02    0.165E-02
RMM:   3    -0.231427853940E+04   -0.47232E-05   -0.54791E-05  2918   0.686E-03
 143 F= -.23355755E+04 E0= -.23355755E+04  d E =-.316841E-04  mag=     4.0000
       N       E                     dE             d eps       ncg     rms          rms(c)
DAV:   1    -0.231427853259E+04    0.20853E-05   -0.30987E-04  5160   0.192E-02    0.871E-03
RMM:   2    -0.231427853614E+04   -0.35556E-05   -0.33221E-05  2942   0.459E-03
 144 F= -.23355755E+04 E0= -.23355755E+04  d E =-.284055E-04  mag=     4.0000
       N       E                     dE             d eps       ncg     rms          rms(c)
DAV:   1    -0.231427852344E+04    0.91437E-05   -0.71220E-03  4504   0.902E-02    0.257E-02
RMM:   2    -0.231427858707E+04   -0.63622E-04   -0.69450E-04  5931   0.203E-02    0.152E-02
RMM:   3    -0.231427859081E+04   -0.37458E-05   -0.62232E-05  2952   0.739E-03
 145 F= -.23355755E+04 E0= -.23355755E+04  d E =-.280651E-04  mag=     4.0000
       N       E                     dE             d eps       ncg     rms          rms(c)
DAV:   1    -0.231427858857E+04   -0.15001E-05   -0.44670E-05  4568   0.815E-03    0.871E-03
RMM:   2    -0.231427859129E+04   -0.27219E-05   -0.98306E-06  2478   0.359E-03
 146 F= -.23355755E+04 E0= -.23355755E+04  d E =-.269112E-04  mag=     4.0000
       N       E                     dE             d eps       ncg     rms          rms(c)
DAV:   1    -0.231427857223E+04    0.16336E-04   -0.44483E-03  4504   0.709E-02    0.196E-02
RMM:   2    -0.231427861462E+04   -0.42385E-04   -0.44919E-04  5576   0.157E-02    0.155E-02
RMM:   3    -0.231427861777E+04   -0.31500E-05   -0.43728E-05  2885   0.601E-03
 147 F= -.23355755E+04 E0= -.23355755E+04  d E =-.224105E-04  mag=     4.0000
       N       E                     dE             d eps       ncg     rms          rms(c)
DAV:   1    -0.231427861032E+04    0.42958E-05   -0.78728E-04  4528   0.301E-02    0.104E-02
RMM:   2    -0.231427861905E+04   -0.87260E-05   -0.87235E-05  3617   0.707E-03
 148 F= -.23355755E+04 E0= -.23355755E+04  d E =-.219676E-04  mag=     4.0000
       N       E                     dE             d eps       ncg     rms          rms(c)
DAV:   1    -0.231427859863E+04    0.11694E-04   -0.36846E-03  4504   0.655E-02    0.194E-02
RMM:   2    -0.231427863565E+04   -0.37021E-04   -0.37985E-04  5469   0.157E-02    0.185E-02
RMM:   3    -0.231427863561E+04    0.32422E-07   -0.35986E-05  2900   0.615E-03
 149 F= -.23355755E+04 E0= -.23355755E+04  d E =-.241001E-04  mag=     4.0000
       N       E                     dE             d eps       ncg     rms          rms(c)
DAV:   1    -0.231427862778E+04    0.78641E-05   -0.45006E-04  5008   0.232E-02    0.989E-03
RMM:   2    -0.231427863436E+04   -0.65753E-05   -0.52511E-05  3361   0.569E-03
 150 F= -.23355755E+04 E0= -.23355755E+04  d E =-.254988E-04  mag=     4.0000
       N       E                     dE             d eps       ncg     rms          rms(c)
DAV:   1    -0.231427861998E+04    0.78042E-05   -0.23938E-03  4512   0.527E-02    0.165E-02
RMM:   2    -0.231427864278E+04   -0.22800E-04   -0.22950E-04  4716   0.127E-02    0.163E-02
RMM:   3    -0.231427864294E+04   -0.16403E-06   -0.24158E-05  2809   0.563E-03
 151 F= -.23355756E+04 E0= -.23355756E+04  d E =-.132263E-04  mag=     4.0000
       N       E                     dE             d eps       ncg     rms          rms(c)
DAV:   1    -0.231427863990E+04    0.28749E-05   -0.58227E-05  5328   0.887E-03    0.608E-03
RMM:   2    -0.231427864124E+04   -0.13316E-05   -0.82601E-06  2459   0.237E-03
 152 F= -.23355756E+04 E0= -.23355756E+04  d E =-.122296E-04  mag=     4.0000
       N       E                     dE             d eps       ncg     rms          rms(c)
DAV:   1    -0.231427864266E+04   -0.27584E-05   -0.17420E-03  4448   0.451E-02    0.134E-02
RMM:   2    -0.231427865807E+04   -0.15411E-04   -0.16994E-04  4262   0.104E-02    0.822E-03
RMM:   3    -0.231427865925E+04   -0.11763E-05   -0.16077E-05  2533   0.500E-03
 153 F= -.23355756E+04 E0= -.23355756E+04  d E =-.115483E-04  mag=     4.0000
       N       E                     dE             d eps       ncg     rms          rms(c)
DAV:   1    -0.231427865948E+04   -0.14043E-05   -0.93326E-05  5160   0.108E-02    0.519E-03
RMM:   2    -0.231427866058E+04   -0.11042E-05   -0.11325E-05  2518   0.277E-03
 154 F= -.23355756E+04 E0= -.23355756E+04  d E =-.113985E-04  mag=     4.0000
       N       E                     dE             d eps       ncg     rms          rms(c)
DAV:   1    -0.231427866941E+04   -0.99361E-05   -0.96183E-04  4408   0.336E-02    0.106E-02
RMM:   2    -0.231427867910E+04   -0.96913E-05   -0.98645E-05  3594   0.811E-03
 155 F= -.23355756E+04 E0= -.23355756E+04  d E =-.106951E-04  mag=     4.0000
       N       E                     dE             d eps       ncg     rms          rms(c)
DAV:   1    -0.231427868131E+04   -0.11900E-04   -0.57835E-05  4632   0.942E-03    0.102E-02
RMM:   2    -0.231427869269E+04   -0.11375E-04   -0.24962E-05  2619   0.432E-03    0.318E-02
RMM:   3    -0.231427868095E+04    0.11743E-04   -0.66556E-06  2236   0.298E-03    0.312E-03
RMM:   4    -0.231427868099E+04   -0.44864E-07   -0.89237E-07  1681   0.105E-03
 156 F= -.23355756E+04 E0= -.23355756E+04  d E =-.110034E-04  mag=     4.0000
       N       E                     dE             d eps       ncg     rms          rms(c)
DAV:   1    -0.231427868428E+04   -0.33375E-05   -0.14963E-04  4176   0.134E-02    0.435E-03
RMM:   2    -0.231427868600E+04   -0.17172E-05   -0.16772E-05  2545   0.318E-03
 157 F= -.23355756E+04 E0= -.23355756E+04  d E =-.128591E-04  mag=     4.0000
       N       E                     dE             d eps       ncg     rms          rms(c)
DAV:   1    -0.231427869537E+04   -0.11088E-04   -0.84203E-04  4328   0.313E-02    0.101E-02
RMM:   2    -0.231427870581E+04   -0.10440E-04   -0.95565E-05  3627   0.782E-03    0.137E-02
RMM:   3    -0.231427870447E+04    0.13413E-05   -0.10910E-05  2405   0.429E-03
 158 F= -.23355756E+04 E0= -.23355756E+04  d E =-.956780E-05  mag=     4.0000
       N       E                     dE             d eps       ncg     rms          rms(c)
DAV:   1    -0.231427870685E+04   -0.10379E-05   -0.88160E-05  5144   0.103E-02    0.518E-03
RMM:   2    -0.231427870857E+04   -0.17193E-05   -0.12802E-05  2530   0.286E-03
 159 F= -.23355756E+04 E0= -.23355756E+04  d E =-.107588E-04  mag=     4.0000
       N       E                     dE             d eps       ncg     rms          rms(c)
DAV:   1    -0.231427870911E+04   -0.22596E-05   -0.55979E-04  4288   0.256E-02    0.774E-03
RMM:   2    -0.231427871483E+04   -0.57213E-05   -0.61973E-05  3216   0.656E-03
 160 F= -.23355756E+04 E0= -.23355756E+04  d E =-.756827E-05  mag=     4.0000
       N       E                     dE             d eps       ncg     rms          rms(c)
DAV:   1    -0.231427871431E+04   -0.52055E-05   -0.17990E-04  4336   0.150E-02    0.784E-03
RMM:   2    -0.231427871958E+04   -0.52672E-05   -0.29838E-05  2777   0.449E-03
 161 F= -.23355756E+04 E0= -.23355756E+04  d E =-.130484E-04  mag=     4.0000
       N       E                     dE             d eps       ncg     rms          rms(c)
DAV:   1    -0.231427871289E+04    0.14231E-05   -0.65631E-04  4328   0.278E-02    0.835E-03
RMM:   2    -0.231427871986E+04   -0.69715E-05   -0.75240E-05  3515   0.723E-03
 162 F= -.23355756E+04 E0= -.23355756E+04  d E =-.218813E-05  mag=     4.0000
       N       E                     dE             d eps       ncg     rms          rms(c)
DAV:   1    -0.231427872049E+04   -0.76017E-05   -0.12158E-05  3136   0.543E-03    0.808E-03
RMM:   2    -0.231427872844E+04   -0.79491E-05   -0.12782E-05  2398   0.328E-03
 163 F= -.23355756E+04 E0= -.23355756E+04  d E =-.109178E-04  mag=     4.0000
       N       E                     dE             d eps       ncg     rms          rms(c)
DAV:   1    -0.231427872666E+04   -0.61722E-05   -0.50466E-04  4240   0.242E-02    0.689E-03
RMM:   2    -0.231427873137E+04   -0.47020E-05   -0.52164E-05  3067   0.582E-03
 164 F= -.23355756E+04 E0= -.23355756E+04  d E =0.291293E-05  mag=     4.0000
       N       E                     dE             d eps       ncg     rms          rms(c)
DAV:   1    -0.231427873200E+04   -0.53349E-05   -0.66284E-06  2424   0.448E-03    0.606E-03
RMM:   2    -0.231427873600E+04   -0.40052E-05   -0.67190E-06  2232   0.213E-03
 165 F= -.23355756E+04 E0= -.23355756E+04  d E =-.154957E-05  mag=     4.0000
       N       E                     dE             d eps       ncg     rms          rms(c)
DAV:   1    -0.231427873603E+04   -0.40317E-05   -0.49798E-04  4248   0.237E-02    0.686E-03
RMM:   2    -0.231427874114E+04   -0.51102E-05   -0.54689E-05  3218   0.584E-03
 166 F= -.23355756E+04 E0= -.23355756E+04  d E =-.845201E-06  mag=     4.0000
       N       E                     dE             d eps       ncg     rms          rms(c)
DAV:   1    -0.231427873948E+04   -0.34535E-05   -0.28916E-05  3176   0.663E-03    0.554E-03
RMM:   2    -0.231427874191E+04   -0.24276E-05   -0.87721E-06  2239   0.323E-03
 167 F= -.23355756E+04 E0= -.23355756E+04  d E =-.255099E-05  mag=     4.0000
       N       E                     dE             d eps       ncg     rms          rms(c)
DAV:   1    -0.231427874040E+04   -0.91251E-06   -0.12878E-05  2480   0.472E-03    0.148E-03
RMM:   2    -0.231427874064E+04   -0.24329E-06   -0.21730E-06  1976   0.185E-03
 168 F= -.23355756E+04 E0= -.23355756E+04  d E =-.660836E-06  mag=     4.0000
       N       E                     dE             d eps       ncg     rms          rms(c)
DAV:   1    -0.231427873996E+04    0.43781E-06   -0.19715E-06  2304   0.176E-03    0.107E-03
RMM:   2    -0.231427874002E+04   -0.57291E-07   -0.37569E-07  1567   0.851E-04
 169 F= -.23355756E+04 E0= -.23355756E+04  d E =-.346216E-06  mag=     4.0000
       N       E                     dE             d eps       ncg     rms          rms(c)
DAV:   1    -0.231427874022E+04   -0.26413E-06   -0.51448E-07  2240   0.101E-03    0.701E-04
RMM:   2    -0.231427874026E+04   -0.41560E-07   -0.19237E-07   916   0.573E-04
 170 F= -.23355756E+04 E0= -.23355756E+04  d E =-.423366E-06  mag=     4.0000
       N       E                     dE             d eps       ncg     rms          rms(c)
DAV:   1    -0.231427874261E+04   -0.23905E-05   -0.26451E-04  4192   0.168E-02    0.449E-03
RMM:   2    -0.231427874528E+04   -0.26669E-05   -0.28599E-05  2665   0.396E-03
 171 F= -.23355756E+04 E0= -.23355756E+04  d E =-.364757E-05  mag=     4.0000
       N       E                     dE             d eps       ncg     rms          rms(c)
DAV:   1    -0.231427874635E+04   -0.37384E-05   -0.36853E-05  3488   0.695E-03    0.463E-03
RMM:   2    -0.231427874911E+04   -0.27547E-05   -0.90247E-06  2303   0.275E-03
 172 F= -.23355756E+04 E0= -.23355756E+04  d E =-.697792E-05  mag=     4.0000
       N       E                     dE             d eps       ncg     rms          rms(c)
DAV:   1    -0.231427874630E+04    0.52489E-07   -0.18023E-04  4320   0.145E-02    0.398E-03
RMM:   2    -0.231427874822E+04   -0.19214E-05   -0.20833E-05  2569   0.360E-03
 173 F= -.23355756E+04 E0= -.23355756E+04  d E =-.582500E-06  mag=     4.0000
       N       E                     dE             d eps       ncg     rms          rms(c)
DAV:   1    -0.231427874818E+04   -0.18770E-05   -0.26904E-05  2996   0.599E-03    0.427E-03
RMM:   2    -0.231427875031E+04   -0.21314E-05   -0.65134E-06  2306   0.285E-03
 174 F= -.23355756E+04 E0= -.23355756E+04  d E =-.322838E-05  mag=     4.0000
       N       E                     dE             d eps       ncg     rms          rms(c)
DAV:   1    -0.231427875089E+04   -0.27163E-05   -0.15565E-04  4224   0.133E-02    0.377E-03
RMM:   2    -0.231427875237E+04   -0.14774E-05   -0.16143E-05  2509   0.329E-03
 175 F= -.23355756E+04 E0= -.23355756E+04  d E =-.111581E-05  mag=     4.0000
       N       E                     dE             d eps       ncg     rms          rms(c)
DAV:   1    -0.231427875338E+04   -0.24835E-05   -0.76614E-05  4144   0.935E-03    0.413E-03
RMM:   2    -0.231427875493E+04   -0.15563E-05   -0.10321E-05  2384   0.270E-03
 176 F= -.23355756E+04 E0= -.23355756E+04  d E =-.300947E-05  mag=     4.0000
       N       E                     dE             d eps       ncg     rms          rms(c)
DAV:   1    -0.231427875573E+04   -0.23517E-05   -0.86119E-05  4272   0.994E-03    0.320E-03
RMM:   2    -0.231427875663E+04   -0.90274E-06   -0.96095E-06  2384   0.274E-03
 177 F= -.23355756E+04 E0= -.23355756E+04  d E =-.113249E-05  mag=     4.0000
