       N       E                     dE             d eps       ncg     rms          rms(c)
DAV:   1     0.129004310869E+05    0.12900E+05   -0.83650E+05  4496   0.144E+03
DAV:   2    -0.104985006169E+04   -0.13950E+05   -0.13339E+05  5088   0.330E+02
DAV:   3    -0.247449089613E+04   -0.14246E+04   -0.14092E+04  5392   0.112E+02
DAV:   4    -0.251976207060E+04   -0.45271E+02   -0.45032E+02  6696   0.298E+01
DAV:   5    -0.252058537723E+04   -0.82331E+00   -0.82207E+00  6064   0.349E+00    0.170E+02
RMM:   6    -0.148645315133E+04    0.10341E+04   -0.19315E+03  4418   0.384E+01    0.722E+01
RMM:   7    -0.165214752595E+04   -0.16569E+03   -0.28757E+02  5011   0.141E+01    0.477E+01
RMM:   8    -0.171226741813E+04   -0.60120E+02   -0.40903E+01  5159   0.711E+00    0.393E+01
RMM:   9    -0.181787530384E+04   -0.10561E+03   -0.63696E+01  5177   0.773E+00    0.352E+01
RMM:  10    -0.193463274413E+04   -0.11676E+03   -0.56213E+01  5393   0.714E+00    0.235E+01
RMM:  11    -0.199318426993E+04   -0.58552E+02   -0.23432E+01  5304   0.403E+00    0.199E+01
RMM:  12    -0.207448471867E+04   -0.81300E+02   -0.31777E+01  4847   0.449E+00    0.144E+01
RMM:  13    -0.219197489150E+04   -0.11749E+03   -0.82206E+01  4434   0.670E+00    0.989E+00
RMM:  14    -0.227604894043E+04   -0.84074E+02   -0.74194E+01  4648   0.616E+00    0.937E+00
RMM:  15    -0.229491683160E+04   -0.18868E+02   -0.18709E+01  4633   0.379E+00    0.567E+00
RMM:  16    -0.230794276784E+04   -0.13026E+02   -0.13790E+01  4435   0.230E+00    0.297E+00
RMM:  17    -0.231124371012E+04   -0.33009E+01   -0.29212E+00  4568   0.173E+00    0.172E+00
RMM:  18    -0.231253911330E+04   -0.12954E+01   -0.13739E+00  4714   0.610E-01    0.132E+00
RMM:  19    -0.231283742918E+04   -0.29832E+00   -0.30563E-01  4667   0.540E-01    0.822E-01
RMM:  20    -0.231291955357E+04   -0.82124E-01   -0.73934E-02  4941   0.168E-01    0.366E-01
RMM:  21    -0.231297295742E+04   -0.53404E-01   -0.28038E-02  4655   0.127E-01    0.327E-01
RMM:  22    -0.231300338022E+04   -0.30423E-01   -0.11574E-02  4534   0.741E-02    0.186E-01
RMM:  23    -0.231302615131E+04   -0.22771E-01   -0.61555E-03  4465   0.603E-02    0.106E-01
RMM:  24    -0.231304142686E+04   -0.15276E-01   -0.46012E-03  4495   0.493E-02    0.794E-02
RMM:  25    -0.231305009766E+04   -0.86708E-02   -0.20965E-03  4559   0.394E-02    0.412E-02
RMM:  26    -0.231305682655E+04   -0.67289E-02   -0.22221E-03  4434   0.288E-02    0.282E-02
RMM:  27    -0.231305816547E+04   -0.13389E-02   -0.46112E-04  4080   0.237E-02    0.145E-02
RMM:  28    -0.231305887046E+04   -0.70499E-03   -0.27206E-04  3902   0.949E-03    0.904E-03
RMM:  29    -0.231305908767E+04   -0.21721E-03   -0.54472E-05  3452   0.883E-03    0.426E-03
RMM:  30    -0.231305918595E+04   -0.98281E-04   -0.27205E-05  3168   0.366E-03    0.268E-03
RMM:  31    -0.231305922994E+04   -0.43986E-04   -0.81651E-06  2837   0.345E-03    0.184E-03
RMM:  32    -0.231305924551E+04   -0.15575E-04   -0.54886E-06  2646   0.224E-03    0.903E-04
RMM:  33    -0.231305924888E+04   -0.33650E-05   -0.21407E-06  2449   0.199E-03
   1 F= -.23338553E+04 E0= -.23338553E+04  d E =-.233386E+04  mag=     3.0000
       N       E                     dE             d eps       ncg     rms          rms(c)
DAV:   1    -0.231302282102E+04    0.36424E-01   -0.68818E+00  5064   0.198E+00    0.787E-01
RMM:   2    -0.231318916984E+04   -0.16635E+00   -0.17689E+00  6287   0.551E-01    0.540E-01
RMM:   3    -0.231320515263E+04   -0.15983E-01   -0.21063E-01  5757   0.254E-01    0.476E-01
RMM:   4    -0.231320512029E+04    0.32337E-04   -0.18298E-02  6024   0.434E-02    0.387E-01
RMM:   5    -0.231320384696E+04    0.12733E-02   -0.24247E-03  5611   0.235E-02    0.229E-01
RMM:   6    -0.231320345690E+04    0.39006E-03   -0.26480E-03  5580   0.253E-02    0.158E-01
RMM:   7    -0.231320323170E+04    0.22520E-03   -0.57048E-04  4480   0.138E-02    0.700E-02
RMM:   8    -0.231320318966E+04    0.42042E-04   -0.17087E-04  3988   0.791E-03    0.527E-02
RMM:   9    -0.231320314572E+04    0.43934E-04   -0.68613E-05  2919   0.644E-03    0.220E-02
RMM:  10    -0.231320313798E+04    0.77426E-05   -0.47522E-05  2888   0.440E-03
   2 F= -.23339989E+04 E0= -.23339989E+04  d E =-.143656E+00  mag=     3.0000
       N       E                     dE             d eps       ncg     rms          rms(c)
DAV:   1    -0.231309338620E+04    0.10976E+00   -0.59415E+00  4672   0.185E+00    0.723E-01
RMM:   2    -0.231323747918E+04   -0.14409E+00   -0.15328E+00  6262   0.518E-01    0.502E-01
RMM:   3    -0.231325250437E+04   -0.15025E-01   -0.18851E-01  5730   0.244E-01    0.459E-01
RMM:   4    -0.231325213316E+04    0.37121E-03   -0.15657E-02  5821   0.404E-02    0.324E-01
RMM:   5    -0.231325107277E+04    0.10604E-02   -0.22724E-03  5569   0.235E-02    0.203E-01
RMM:   6    -0.231325098045E+04    0.92319E-04   -0.13995E-03  5352   0.182E-02    0.185E-01
RMM:   7    -0.231325068738E+04    0.29307E-03   -0.96663E-04  4893   0.160E-02    0.880E-02
RMM:   8    -0.231325060615E+04    0.81226E-04   -0.10326E-04  3301   0.700E-03    0.433E-02
RMM:   9    -0.231325057491E+04    0.31241E-04   -0.55595E-05  2907   0.599E-03    0.186E-02
RMM:  10    -0.231325056927E+04    0.56401E-05   -0.36111E-05  2887   0.435E-03
   3 F= -.23340463E+04 E0= -.23340463E+04  d E =-.191063E+00  mag=     3.0000
       N       E                     dE             d eps       ncg     rms          rms(c)
DAV:   1    -0.231324658308E+04    0.39918E-02   -0.33107E+00  4608   0.193E+00    0.798E-01
RMM:   2    -0.231326414242E+04   -0.17559E-01   -0.21844E-01  5882   0.372E-01    0.375E-01
RMM:   3    -0.231326487413E+04   -0.73171E-03   -0.22832E-02  5532   0.151E-01    0.454E-01
RMM:   4    -0.231326205470E+04    0.28194E-02   -0.42510E-03  5867   0.469E-02    0.166E-01
RMM:   5    -0.231326147547E+04    0.57923E-03   -0.18751E-03  4632   0.356E-02    0.917E-02
RMM:   6    -0.231326149843E+04   -0.22960E-04   -0.51744E-04  4502   0.209E-02    0.118E-01
RMM:   7    -0.231326135272E+04    0.14571E-03   -0.16523E-04  4076   0.935E-03    0.269E-02
RMM:   8    -0.231326132400E+04    0.28716E-04   -0.44177E-05  3100   0.621E-03    0.125E-02
RMM:   9    -0.231326131003E+04    0.13977E-04   -0.35215E-05  3378   0.546E-03    0.609E-03
RMM:  10    -0.231326130823E+04    0.17904E-05   -0.76166E-06  2825   0.465E-03
   4 F= -.23340576E+04 E0= -.23340576E+04  d E =-.112476E-01  mag=     3.0000
       N       E                     dE             d eps       ncg     rms          rms(c)
DAV:   1    -0.231326340753E+04   -0.20975E-02   -0.35336E-01  4688   0.638E-01    0.260E-01
RMM:   2    -0.231326530115E+04   -0.18936E-02   -0.23484E-02  5912   0.123E-01    0.123E-01
RMM:   3    -0.231326537646E+04   -0.75306E-04   -0.24219E-03  5364   0.483E-02    0.148E-01
RMM:   4    -0.231326507373E+04    0.30273E-03   -0.45581E-04  5057   0.156E-02    0.542E-02
RMM:   5    -0.231326500533E+04    0.68401E-04   -0.20847E-04  4234   0.125E-02    0.203E-02
RMM:   6    -0.231326500766E+04   -0.23352E-05   -0.43888E-05  3093   0.805E-03
   5 F= -.23340611E+04 E0= -.23340611E+04  d E =-.147804E-01  mag=     3.0000
       N       E                     dE             d eps       ncg     rms          rms(c)
DAV:   1    -0.231325867986E+04    0.63255E-02   -0.12569E+00  4576   0.108E+00    0.317E-01
RMM:   2    -0.231327491005E+04   -0.16230E-01   -0.17388E-01  6256   0.230E-01    0.263E-01
RMM:   3    -0.231327574887E+04   -0.83882E-03   -0.18671E-02  6005   0.819E-02    0.199E-01
RMM:   4    -0.231327536565E+04    0.38321E-03   -0.16359E-03  4906   0.197E-02    0.993E-02
RMM:   5    -0.231327521024E+04    0.15541E-03   -0.48576E-04  4634   0.144E-02    0.670E-02
RMM:   6    -0.231327522491E+04   -0.14668E-04   -0.21530E-04  3525   0.108E-02    0.834E-02
RMM:   7    -0.231327516047E+04    0.64444E-04   -0.72341E-05  3164   0.657E-03    0.146E-02
RMM:   8    -0.231327515542E+04    0.50508E-05   -0.12367E-05  2888   0.420E-03
   6 F= -.23340715E+04 E0= -.23340715E+04  d E =-.103948E-01  mag=     3.0000
       N       E                     dE             d eps       ncg     rms          rms(c)
DAV:   1    -0.231326571789E+04    0.94426E-02   -0.88424E-01  4560   0.909E-01    0.266E-01
RMM:   2    -0.231327711202E+04   -0.11394E-01   -0.12215E-01  6189   0.192E-01    0.218E-01
RMM:   3    -0.231327771853E+04   -0.60650E-03   -0.13157E-02  5806   0.693E-02    0.166E-01
RMM:   4    -0.231327746451E+04    0.25402E-03   -0.11740E-03  4494   0.165E-02    0.869E-02
RMM:   5    -0.231327740094E+04    0.63570E-04   -0.35511E-04  4472   0.124E-02    0.907E-02
RMM:   6    -0.231327733710E+04    0.63835E-04   -0.18644E-04  3411   0.939E-03    0.497E-02
RMM:   7    -0.231327731262E+04    0.24484E-04   -0.48581E-05  3120   0.629E-03    0.131E-02
RMM:   8    -0.231327730910E+04    0.35178E-05   -0.87536E-06  2872   0.426E-03
   7 F= -.23340739E+04 E0= -.23340739E+04  d E =-.127457E-01  mag=     3.0000
       N       E                     dE             d eps       ncg     rms          rms(c)
DAV:   1    -0.231327879497E+04   -0.14823E-02   -0.20761E-01  4592   0.442E-01    0.124E-01
RMM:   2    -0.231328165707E+04   -0.28621E-02   -0.30817E-02  6229   0.922E-02    0.858E-02
RMM:   3    -0.231328187509E+04   -0.21802E-03   -0.33382E-03  4534   0.318E-02    0.684E-02
RMM:   4    -0.231328183999E+04    0.35108E-04   -0.26941E-04  2999   0.791E-03    0.404E-02
RMM:   5    -0.231328181621E+04    0.23781E-04   -0.67353E-05  3018   0.589E-03    0.237E-02
RMM:   6    -0.231328182113E+04   -0.49204E-05   -0.38869E-05  2984   0.511E-03
   8 F= -.23340784E+04 E0= -.23340784E+04  d E =-.456747E-02  mag=     3.0000
       N       E                     dE             d eps       ncg     rms          rms(c)
DAV:   1    -0.231326415153E+04    0.17665E-01   -0.18638E+00  4496   0.132E+00    0.371E-01
RMM:   2    -0.231328966518E+04   -0.25514E-01   -0.27605E-01  6264   0.274E-01    0.245E-01
RMM:   3    -0.231329171742E+04   -0.20522E-02   -0.29905E-02  5855   0.991E-02    0.207E-01
RMM:   4    -0.231329140774E+04    0.30968E-03   -0.24711E-03  4940   0.218E-02    0.121E-01
RMM:   5    -0.231329118883E+04    0.21891E-03   -0.54975E-04  4406   0.143E-02    0.698E-02
RMM:   6    -0.231329123192E+04   -0.43095E-04   -0.26804E-04  3807   0.116E-02    0.992E-02
RMM:   7    -0.231329114868E+04    0.83239E-04   -0.10549E-04  3256   0.725E-03    0.182E-02
RMM:   8    -0.231329114427E+04    0.44156E-05   -0.17398E-05  2900   0.443E-03
   9 F= -.23340879E+04 E0= -.23340879E+04  d E =-.140419E-01  mag=     3.0000
       N       E                     dE             d eps       ncg     rms          rms(c)
DAV:   1    -0.231318289241E+04    0.10826E+00   -0.74725E+00  4456   0.265E+00    0.741E-01
RMM:   2    -0.231328501461E+04   -0.10212E+00   -0.11030E+00  6296   0.543E-01    0.510E-01
RMM:   3    -0.231329401008E+04   -0.89955E-02   -0.12762E-01  6007   0.203E-01    0.459E-01
RMM:   4    -0.231329226194E+04    0.17481E-02   -0.10234E-02  6020   0.450E-02    0.235E-01
RMM:   5    -0.231329135499E+04    0.90696E-03   -0.20699E-03  4809   0.254E-02    0.118E-01
RMM:   6    -0.231329128786E+04    0.67124E-04   -0.78097E-04  4678   0.206E-02    0.105E-01
RMM:   7    -0.231329123416E+04    0.53699E-04   -0.24688E-04  3970   0.107E-02    0.554E-02
RMM:   8    -0.231329120168E+04    0.32481E-04   -0.49891E-05  3055   0.581E-03    0.174E-02
RMM:   9    -0.231329119760E+04    0.40837E-05   -0.20186E-05  2920   0.359E-03
  10 F= -.23340882E+04 E0= -.23340882E+04  d E =-.143315E-01  mag=     3.0000
       N       E                     dE             d eps       ncg     rms          rms(c)
DAV:   1    -0.231326946234E+04    0.21739E-01   -0.17387E+00  4512   0.128E+00    0.355E-01
RMM:   2    -0.231329308752E+04   -0.23625E-01   -0.25339E-01  6319   0.270E-01    0.262E-01
RMM:   3    -0.231329477953E+04   -0.16920E-02   -0.28012E-02  5942   0.959E-02    0.197E-01
RMM:   4    -0.231329445931E+04    0.32022E-03   -0.22790E-03  4868   0.207E-02    0.115E-01
RMM:   5    -0.231329426680E+04    0.19252E-03   -0.56640E-04  4500   0.143E-02    0.653E-02
RMM:   6    -0.231329424380E+04    0.22996E-04   -0.30135E-04  4412   0.109E-02    0.574E-02
RMM:   7    -0.231329422764E+04    0.16168E-04   -0.73944E-05  2945   0.742E-03    0.334E-02
RMM:   8    -0.231329421408E+04    0.13557E-04   -0.17054E-05  2893   0.372E-03    0.117E-02
RMM:   9    -0.231329421135E+04    0.27250E-05   -0.75525E-06  2840   0.244E-03
  11 F= -.23340911E+04 E0= -.23340911E+04  d E =-.172423E-01  mag=     3.0000
       N       E                     dE             d eps       ncg     rms          rms(c)
DAV:   1    -0.231329453005E+04   -0.31597E-03   -0.60195E-01  4512   0.763E-01    0.214E-01
RMM:   2    -0.231330280273E+04   -0.82727E-02   -0.89492E-02  6251   0.162E-01    0.147E-01
RMM:   3    -0.231330344644E+04   -0.64371E-03   -0.92177E-03  5664   0.591E-02    0.137E-01
RMM:   4    -0.231330332797E+04    0.11846E-03   -0.82415E-04  3601   0.134E-02    0.749E-02
RMM:   5    -0.231330327415E+04    0.53829E-04   -0.23524E-04  4062   0.107E-02    0.576E-02
RMM:   6    -0.231330325665E+04    0.17491E-04   -0.10945E-04  3215   0.812E-03    0.419E-02
RMM:   7    -0.231330323858E+04    0.18078E-04   -0.32696E-05  2915   0.565E-03    0.145E-02
RMM:   8    -0.231330323607E+04    0.25097E-05   -0.74294E-06  2868   0.386E-03
  12 F= -.23340999E+04 E0= -.23340999E+04  d E =-.878421E-02  mag=     3.0000
       N       E                     dE             d eps       ncg     rms          rms(c)
DAV:   1    -0.231323908146E+04    0.64157E-01   -0.54271E+00  4472   0.229E+00    0.644E-01
RMM:   2    -0.231331342250E+04   -0.74341E-01   -0.80444E-01  6267   0.480E-01    0.442E-01
RMM:   3    -0.231331982931E+04   -0.64068E-02   -0.87234E-02  5902   0.179E-01    0.439E-01
RMM:   4    -0.231331855543E+04    0.12739E-02   -0.76315E-03  5924   0.404E-02    0.223E-01
RMM:   5    -0.231331807747E+04    0.47796E-03   -0.19589E-03  5127   0.265E-02    0.166E-01
RMM:   6    -0.231331794927E+04    0.12821E-03   -0.99620E-04  5066   0.196E-02    0.132E-01
RMM:   7    -0.231331775744E+04    0.19182E-03   -0.31463E-04  4415   0.116E-02    0.370E-02
RMM:   8    -0.231331773695E+04    0.20490E-04   -0.42668E-05  3036   0.696E-03    0.145E-02
RMM:   9    -0.231331773008E+04    0.68763E-05   -0.20193E-05  2905   0.398E-03
  13 F= -.23341136E+04 E0= -.23341136E+04  d E =-.225266E-01  mag=     3.0000
       N       E                     dE             d eps       ncg     rms          rms(c)
DAV:   1    -0.231331495624E+04    0.27807E-02   -0.23491E-01  4768   0.475E-01    0.135E-01
RMM:   2    -0.231331818135E+04   -0.32251E-02   -0.34778E-02  6263   0.101E-01    0.964E-02
RMM:   3    -0.231331843061E+04   -0.24926E-03   -0.35972E-03  5075   0.360E-02    0.891E-02
RMM:   4    -0.231331837860E+04    0.52014E-04   -0.32286E-04  2989   0.867E-03    0.466E-02
RMM:   5    -0.231331835623E+04    0.22365E-04   -0.92212E-05  3279   0.711E-03    0.355E-02
RMM:   6    -0.231331835056E+04    0.56744E-05   -0.48144E-05  2972   0.598E-03
  14 F= -.23341141E+04 E0= -.23341141E+04  d E =-.229852E-01  mag=     3.0000
       N       E                     dE             d eps       ncg     rms          rms(c)
DAV:   1    -0.231331726503E+04    0.10912E-02   -0.63403E-01  4512   0.785E-01    0.260E-01
RMM:   2    -0.231332645986E+04   -0.91948E-02   -0.99372E-02  6294   0.174E-01    0.165E-01
RMM:   3    -0.231332738202E+04   -0.92217E-03   -0.11172E-02  5819   0.638E-02    0.189E-01
RMM:   4    -0.231332711563E+04    0.26639E-03   -0.10476E-03  4088   0.149E-02    0.756E-02
RMM:   5    -0.231332705898E+04    0.56651E-04   -0.21452E-04  4021   0.100E-02    0.497E-02
RMM:   6    -0.231332705727E+04    0.17137E-05   -0.13363E-04  3185   0.841E-03    0.457E-02
RMM:   7    -0.231332703399E+04    0.23271E-04   -0.36036E-05  2904   0.597E-03    0.162E-02
RMM:   8    -0.231332703133E+04    0.26609E-05   -0.81569E-06  2867   0.390E-03
  15 F= -.23341223E+04 E0= -.23341223E+04  d E =-.818066E-02  mag=     3.0000
       N       E                     dE             d eps       ncg     rms          rms(c)
DAV:   1    -0.231327141606E+04    0.55618E-01   -0.42897E+00  4472   0.204E+00    0.675E-01
RMM:   2    -0.231333369465E+04   -0.62279E-01   -0.67003E-01  6314   0.454E-01    0.459E-01
RMM:   3    -0.231334031581E+04   -0.66212E-02   -0.77639E-02  6037   0.169E-01    0.544E-01
RMM:   4    -0.231333801058E+04    0.23052E-02   -0.72437E-03  6053   0.392E-02    0.193E-01
RMM:   5    -0.231333766172E+04    0.34886E-03   -0.13734E-03  5029   0.214E-02    0.139E-01
RMM:   6    -0.231333756949E+04    0.92229E-04   -0.10113E-03  5066   0.192E-02    0.112E-01
RMM:   7    -0.231333741991E+04    0.14958E-03   -0.24322E-04  4603   0.109E-02    0.378E-02
RMM:   8    -0.231333740061E+04    0.19303E-04   -0.33041E-05  2960   0.618E-03    0.131E-02
RMM:   9    -0.231333739418E+04    0.64309E-05   -0.15410E-05  2892   0.350E-03
  16 F= -.23341313E+04 E0= -.23341313E+04  d E =-.172234E-01  mag=     3.0000
       N       E                     dE             d eps       ncg     rms          rms(c)
DAV:   1    -0.231333127534E+04    0.61253E-02   -0.75786E-01  4512   0.783E-01    0.276E-01
RMM:   2    -0.231334517002E+04   -0.13895E-01   -0.14659E-01  6411   0.193E-01    0.261E-01
RMM:   3    -0.231334629607E+04   -0.11261E-02   -0.16765E-02  5981   0.680E-02    0.221E-01
RMM:   4    -0.231334594459E+04    0.35148E-03   -0.15428E-03  4505   0.162E-02    0.873E-02
RMM:   5    -0.231334589422E+04    0.50371E-04   -0.26823E-04  4037   0.101E-02    0.738E-02
RMM:   6    -0.231334584866E+04    0.45559E-04   -0.22580E-04  3574   0.958E-03    0.457E-02
RMM:   7    -0.231334582903E+04    0.19626E-04   -0.44913E-05  3030   0.637E-03    0.189E-02
RMM:   8    -0.231334582527E+04    0.37659E-05   -0.10437E-05  2871   0.428E-03
  17 F= -.23341394E+04 E0= -.23341394E+04  d E =-.810602E-02  mag=     3.0000
       N       E                     dE             d eps       ncg     rms          rms(c)
DAV:   1    -0.231330201651E+04    0.43813E-01   -0.26172E+00  4480   0.146E+00    0.512E-01
RMM:   2    -0.231334980249E+04   -0.47786E-01   -0.50602E-01  6438   0.358E-01    0.467E-01
RMM:   3    -0.231335402375E+04   -0.42213E-02   -0.58807E-02  6185   0.126E-01    0.423E-01
RMM:   4    -0.231335273842E+04    0.12853E-02   -0.53788E-03  5722   0.300E-02    0.164E-01
RMM:   5    -0.231335256032E+04    0.17809E-03   -0.89644E-04  5046   0.166E-02    0.139E-01
RMM:   6    -0.231335238758E+04    0.17274E-03   -0.78756E-04  4960   0.159E-02    0.851E-02
RMM:   7    -0.231335231208E+04    0.75504E-04   -0.16549E-04  4095   0.912E-03    0.344E-02
RMM:   8    -0.231335229741E+04    0.14667E-04   -0.27786E-05  2917   0.604E-03    0.133E-02
RMM:   9    -0.231335229328E+04    0.41380E-05   -0.14708E-05  2874   0.341E-03
  18 F= -.23341453E+04 E0= -.23341453E+04  d E =-.139541E-01  mag=     3.0000
       N       E                     dE             d eps       ncg     rms          rms(c)
DAV:   1    -0.231334050238E+04    0.11795E-01   -0.10171E+00  4464   0.884E-01    0.313E-01
RMM:   2    -0.231335902259E+04   -0.18520E-01   -0.19328E-01  6431   0.213E-01    0.333E-01
RMM:   3    -0.231336027773E+04   -0.12551E-02   -0.22391E-02  6013   0.737E-02    0.246E-01
RMM:   4    -0.231335983010E+04    0.44763E-03   -0.18254E-03  4387   0.172E-02    0.947E-02
RMM:   5    -0.231335968810E+04    0.14200E-03   -0.36030E-04  4282   0.113E-02    0.456E-02
RMM:   6    -0.231335968779E+04    0.30857E-06   -0.13076E-04  3486   0.915E-03    0.339E-02
RMM:   7    -0.231335968046E+04    0.73299E-05   -0.36550E-05  2922   0.566E-03
  19 F= -.23341525E+04 E0= -.23341525E+04  d E =-.724964E-02  mag=     3.0000
       N       E                     dE             d eps       ncg     rms          rms(c)
DAV:   1    -0.231332077038E+04    0.38917E-01   -0.22806E+00  4464   0.133E+00    0.468E-01
RMM:   2    -0.231336209789E+04   -0.41328E-01   -0.43287E-01  6454   0.319E-01    0.487E-01
RMM:   3    -0.231336515262E+04   -0.30547E-02   -0.51094E-02  6200   0.112E-01    0.376E-01
RMM:   4    -0.231336410900E+04    0.10436E-02   -0.41217E-03  5298   0.258E-02    0.143E-01
RMM:   5    -0.231336380275E+04    0.30625E-03   -0.80621E-04  4707   0.155E-02    0.739E-02
RMM:   6    -0.231336381303E+04   -0.10275E-04   -0.37651E-04  4102   0.141E-02    0.642E-02
RMM:   7    -0.231336377009E+04    0.42931E-04   -0.10159E-04  3217   0.720E-03    0.314E-02
RMM:   8    -0.231336375689E+04    0.13207E-04   -0.15461E-05  2903   0.400E-03    0.997E-03
RMM:   9    -0.231336375488E+04    0.20081E-05   -0.87406E-06  2879   0.261E-03
  20 F= -.23341564E+04 E0= -.23341564E+04  d E =-.110973E-01  mag=     3.0000
       N       E                     dE             d eps       ncg     rms          rms(c)
DAV:   1    -0.231335266211E+04    0.11095E-01   -0.93246E-01  4496   0.848E-01    0.291E-01
RMM:   2    -0.231337004354E+04   -0.17381E-01   -0.18256E-01  6427   0.201E-01    0.280E-01
RMM:   3    -0.231337138606E+04   -0.13425E-02   -0.20679E-02  5943   0.705E-02    0.225E-01
RMM:   4    -0.231337103624E+04    0.34982E-03   -0.17033E-03  4051   0.160E-02    0.929E-02
RMM:   5    -0.231337097419E+04    0.62048E-04   -0.36324E-04  3997   0.107E-02    0.758E-02
RMM:   6    -0.231337093043E+04    0.43766E-04   -0.18849E-04  3562   0.838E-03    0.483E-02
RMM:   7    -0.231337091001E+04    0.20417E-04   -0.40652E-05  2905   0.578E-03    0.177E-02
RMM:   8    -0.231337090745E+04    0.25618E-05   -0.99651E-06  2872   0.364E-03
  21 F= -.23341635E+04 E0= -.23341635E+04  d E =-.713607E-02  mag=     3.0000
       N       E                     dE             d eps       ncg     rms          rms(c)
DAV:   1    -0.231321791130E+04    0.15300E+00   -0.83903E+00  4464   0.254E+00    0.875E-01
RMM:   2    -0.231337396747E+04   -0.15606E+00   -0.16466E+00  6445   0.593E-01    0.809E-01
RMM:   3    -0.231338837717E+04   -0.14410E-01   -0.20231E-01  6232   0.215E-01    0.705E-01
RMM:   4    -0.231338482765E+04    0.35495E-02   -0.15958E-02  6001   0.490E-02    0.276E-01
RMM:   5    -0.231338380615E+04    0.10215E-02   -0.26418E-03  5127   0.258E-02    0.144E-01
RMM:   6    -0.231338379767E+04    0.84783E-05   -0.11153E-03  5356   0.199E-02    0.127E-01
RMM:   7    -0.231338369420E+04    0.10348E-03   -0.39814E-04  3905   0.119E-02    0.721E-02
RMM:   8    -0.231338362872E+04    0.65476E-04   -0.78914E-05  3061   0.642E-03    0.209E-02
RMM:   9    -0.231338362036E+04    0.83582E-05   -0.31143E-05  2901   0.419E-03
  22 F= -.23341761E+04 E0= -.23341761E+04  d E =-.197219E-01  mag=     3.0000
       N       E                     dE             d eps       ncg     rms          rms(c)
DAV:   1    -0.231335653651E+04    0.27092E-01   -0.14629E+00  4512   0.106E+00    0.361E-01
RMM:   2    -0.231338352445E+04   -0.26988E-01   -0.28374E-01  6440   0.248E-01    0.340E-01
RMM:   3    -0.231338566919E+04   -0.21447E-02   -0.32364E-02  6043   0.870E-02    0.277E-01
RMM:   4    -0.231338513645E+04    0.53274E-03   -0.26909E-03  4734   0.197E-02    0.114E-01
RMM:   5    -0.231338499016E+04    0.14629E-03   -0.54153E-04  4403   0.126E-02    0.772E-02
RMM:   6    -0.231338499080E+04   -0.64072E-06   -0.26713E-04  3796   0.966E-03    0.738E-02
RMM:   7    -0.231338493326E+04    0.57539E-04   -0.76368E-05  2961   0.666E-03    0.229E-02
RMM:   8    -0.231338492852E+04    0.47471E-05   -0.16309E-05  2895   0.423E-03
  23 F= -.23341773E+04 E0= -.23341773E+04  d E =-.209407E-01  mag=     3.0000
       N       E                     dE             d eps       ncg     rms          rms(c)
DAV:   1    -0.231337231861E+04    0.12615E-01   -0.13799E+00  4480   0.108E+00    0.368E-01
RMM:   2    -0.231339346159E+04   -0.21143E-01   -0.22400E-01  6283   0.238E-01    0.288E-01
RMM:   3    -0.231339497352E+04   -0.15119E-02   -0.24737E-02  5929   0.862E-02    0.240E-01
RMM:   4    -0.231339440410E+04    0.56942E-03   -0.21016E-03  5066   0.203E-02    0.103E-01
RMM:   5    -0.231339428366E+04    0.12043E-03   -0.56691E-04  4794   0.142E-02    0.799E-02
RMM:   6    -0.231339427644E+04    0.72227E-05   -0.22906E-04  3570   0.103E-02    0.758E-02
RMM:   7    -0.231339422425E+04    0.52186E-04   -0.56008E-05  2971   0.626E-03    0.173E-02
RMM:   8    -0.231339422044E+04    0.38166E-05   -0.12917E-05  2892   0.421E-03
  24 F= -.23341863E+04 E0= -.23341863E+04  d E =-.896606E-02  mag=     3.0000
       N       E                     dE             d eps       ncg     rms          rms(c)
DAV:   1    -0.231332492963E+04    0.69295E-01   -0.48037E+00  4464   0.201E+00    0.686E-01
RMM:   2    -0.231339834559E+04   -0.73416E-01   -0.77851E-01  6269   0.437E-01    0.540E-01
RMM:   3    -0.231340423864E+04   -0.58931E-02   -0.90355E-02  6056   0.163E-01    0.471E-01
RMM:   4    -0.231340202874E+04    0.22099E-02   -0.73703E-03  5897   0.385E-02    0.192E-01
RMM:   5    -0.231340154748E+04    0.48126E-03   -0.18755E-03  5107   0.240E-02    0.125E-01
RMM:   6    -0.231340163960E+04   -0.92122E-04   -0.77237E-04  4831   0.172E-02    0.157E-01
RMM:   7    -0.231340140273E+04    0.23687E-03   -0.24711E-04  4083   0.972E-03    0.299E-02
RMM:   8    -0.231340138806E+04    0.14667E-04   -0.41469E-05  2921   0.578E-03    0.123E-02
RMM:   9    -0.231340138260E+04    0.54674E-05   -0.15513E-05  2891   0.352E-03
  25 F= -.23341928E+04 E0= -.23341928E+04  d E =-.154775E-01  mag=     3.0000
       N       E                     dE             d eps       ncg     rms          rms(c)
DAV:   1    -0.231338350530E+04    0.17883E-01   -0.19122E+00  4528   0.123E+00    0.398E-01
RMM:   2    -0.231341036605E+04   -0.26861E-01   -0.28058E-01  6333   0.266E-01    0.379E-01
RMM:   3    -0.231341126127E+04   -0.89522E-03   -0.29449E-02  6022   0.972E-02    0.246E-01
RMM:   4    -0.231341059824E+04    0.66302E-03   -0.26979E-03  5182   0.230E-02    0.120E-01
RMM:   5    -0.231341049288E+04    0.10537E-03   -0.65475E-04  5004   0.151E-02    0.136E-01
RMM:   6    -0.231341036396E+04    0.12892E-03   -0.41319E-04  4443   0.119E-02    0.690E-02
RMM:   7    -0.231341032160E+04    0.42360E-04   -0.84896E-05  3191   0.720E-03    0.146E-02
RMM:   8    -0.231341031686E+04    0.47400E-05   -0.12107E-05  2894   0.447E-03
  26 F= -.23342012E+04 E0= -.23342012E+04  d E =-.839981E-02  mag=     3.0000
       N       E                     dE             d eps       ncg     rms          rms(c)
DAV:   1    -0.231340345224E+04    0.68694E-02   -0.59537E-01  4624   0.685E-01    0.223E-01
RMM:   2    -0.231341183656E+04   -0.83843E-02   -0.87351E-02  6343   0.149E-01    0.214E-01
RMM:   3    -0.231341206303E+04   -0.22647E-03   -0.90931E-03  5623   0.528E-02    0.134E-01
RMM:   4    -0.231341186562E+04    0.19741E-03   -0.84870E-04  3843   0.130E-02    0.671E-02
RMM:   5    -0.231341181040E+04    0.55219E-04   -0.20677E-04  4058   0.940E-03    0.616E-02
RMM:   6    -0.231341179398E+04    0.16423E-04   -0.11694E-04  3138   0.773E-03    0.468E-02
RMM:   7    -0.231341177387E+04    0.20108E-04   -0.30916E-05  2935   0.528E-03    0.841E-03
RMM:   8    -0.231341177225E+04    0.16198E-05   -0.58530E-06  2847   0.339E-03
  27 F= -.23342023E+04 E0= -.23342023E+04  d E =-.955067E-02  mag=     3.0000
       N       E                     dE             d eps       ncg     rms          rms(c)
DAV:   1    -0.231339238139E+04    0.19392E-01   -0.20270E+00  4472   0.130E+00    0.413E-01
RMM:   2    -0.231341832015E+04   -0.25939E-01   -0.27198E-01  6305   0.282E-01    0.373E-01
RMM:   3    -0.231341931902E+04   -0.99888E-03   -0.28017E-02  6038   0.100E-01    0.271E-01
RMM:   4    -0.231341852494E+04    0.79408E-03   -0.27640E-03  5481   0.249E-02    0.135E-01
RMM:   5    -0.231341855920E+04   -0.34256E-04   -0.78987E-04  4925   0.158E-02    0.188E-01
RMM:   6    -0.231341824858E+04    0.31062E-03   -0.58933E-04  4954   0.139E-02    0.459E-02
RMM:   7    -0.231341823257E+04    0.16017E-04   -0.72481E-05  3124   0.742E-03    0.136E-02
RMM:   8    -0.231341822935E+04    0.32123E-05   -0.12054E-05  2887   0.381E-03
  28 F= -.23342085E+04 E0= -.23342085E+04  d E =-.617595E-02  mag=     3.0000
       N       E                     dE             d eps       ncg     rms          rms(c)
DAV:   1    -0.231341822680E+04    0.57621E-05   -0.57001E-04  5040   0.228E-02    0.818E-03
RMM:   2    -0.231341823499E+04   -0.81872E-05   -0.84862E-05  3166   0.592E-03
  29 F= -.23342085E+04 E0= -.23342085E+04  d E =-.617684E-02  mag=     3.0000
       N       E                     dE             d eps       ncg     rms          rms(c)
DAV:   1    -0.231341304115E+04    0.51857E-02   -0.76671E-01  4496   0.849E-01    0.265E-01
RMM:   2    -0.231342310590E+04   -0.10065E-01   -0.10713E-01  6169   0.177E-01    0.213E-01
RMM:   3    -0.231342368264E+04   -0.57674E-03   -0.10864E-02  5742   0.658E-02    0.169E-01
RMM:   4    -0.231342335101E+04    0.33164E-03   -0.10933E-03  4840   0.162E-02    0.773E-02
RMM:   5    -0.231342326572E+04    0.85282E-04   -0.27909E-04  4434   0.123E-02    0.409E-02
RMM:   6    -0.231342328510E+04   -0.19378E-04   -0.10386E-04  3057   0.874E-03    0.589E-02
RMM:   7    -0.231342325555E+04    0.29553E-04   -0.35222E-05  2873   0.523E-03    0.976E-03
RMM:   8    -0.231342325434E+04    0.12081E-05   -0.68394E-06  2865   0.321E-03
  30 F= -.23342134E+04 E0= -.23342134E+04  d E =-.492775E-02  mag=     3.0000
       N       E                     dE             d eps       ncg     rms          rms(c)
DAV:   1    -0.231341325895E+04    0.99966E-02   -0.89315E-01  4472   0.919E-01    0.285E-01
RMM:   2    -0.231342497156E+04   -0.11713E-01   -0.12513E-01  6139   0.191E-01    0.224E-01
RMM:   3    -0.231342566577E+04   -0.69420E-03   -0.12353E-02  5766   0.707E-02    0.184E-01
RMM:   4    -0.231342527015E+04    0.39561E-03   -0.12686E-03  5059   0.175E-02    0.827E-02
RMM:   5    -0.231342515939E+04    0.11076E-03   -0.32230E-04  4529   0.131E-02    0.299E-02
RMM:   6    -0.231342515610E+04    0.32959E-05   -0.56377E-05  3173   0.859E-03
  31 F= -.23342152E+04 E0= -.23342152E+04  d E =-.671741E-02  mag=     3.0000
       N       E                     dE             d eps       ncg     rms          rms(c)
DAV:   1    -0.231340897009E+04    0.16189E-01   -0.12723E+00  4472   0.109E+00    0.332E-01
RMM:   2    -0.231342922002E+04   -0.20250E-01   -0.22014E-01  6205   0.230E-01    0.205E-01
RMM:   3    -0.231343103724E+04   -0.18172E-02   -0.22656E-02  5775   0.841E-02    0.192E-01
RMM:   4    -0.231343074128E+04    0.29597E-03   -0.21860E-03  4756   0.188E-02    0.105E-01
RMM:   5    -0.231343056952E+04    0.17175E-03   -0.42001E-04  4487   0.131E-02    0.447E-02
RMM:   6    -0.231343057734E+04   -0.78208E-05   -0.12741E-04  3492   0.941E-03    0.467E-02
RMM:   7    -0.231343056237E+04    0.14976E-04   -0.37677E-05  2875   0.544E-03    0.173E-02
RMM:   8    -0.231343055910E+04    0.32700E-05   -0.70138E-06  2872   0.318E-03
  32 F= -.23342202E+04 E0= -.23342202E+04  d E =-.497669E-02  mag=     3.0000
       N       E                     dE             d eps       ncg     rms          rms(c)
DAV:   1    -0.231339727774E+04    0.33285E-01   -0.21371E+00  4464   0.141E+00    0.430E-01
RMM:   2    -0.231343129047E+04   -0.34013E-01   -0.36931E-01  6237   0.296E-01    0.269E-01
RMM:   3    -0.231343438074E+04   -0.30903E-02   -0.38146E-02  5844   0.111E-01    0.267E-01
RMM:   4    -0.231343382274E+04    0.55800E-03   -0.36463E-03  5404   0.243E-02    0.137E-01
RMM:   5    -0.231343367791E+04    0.14484E-03   -0.68627E-04  4723   0.152E-02    0.132E-01
RMM:   6    -0.231343355452E+04    0.12338E-03   -0.45037E-04  4351   0.129E-02    0.726E-02
RMM:   7    -0.231343351277E+04    0.41755E-04   -0.74317E-05  3308   0.683E-03    0.170E-02
RMM:   8    -0.231343350915E+04    0.36152E-05   -0.12263E-05  2881   0.488E-03
  33 F= -.23342226E+04 E0= -.23342226E+04  d E =-.735574E-02  mag=     3.0000
       N       E                     dE             d eps       ncg     rms          rms(c)
DAV:   1    -0.231342185751E+04    0.11655E-01   -0.84753E-01  4512   0.872E-01    0.265E-01
RMM:   2    -0.231343653641E+04   -0.14679E-01   -0.15938E-01  6356   0.189E-01    0.160E-01
RMM:   3    -0.231343784041E+04   -0.13040E-02   -0.16287E-02  5626   0.651E-02    0.143E-01
RMM:   4    -0.231343775772E+04    0.82695E-04   -0.15717E-03  3643   0.146E-02    0.946E-02
RMM:   5    -0.231343767361E+04    0.84108E-04   -0.27230E-04  3828   0.102E-02    0.752E-02
RMM:   6    -0.231343764784E+04    0.25765E-04   -0.18885E-04  3381   0.865E-03    0.567E-02
RMM:   7    -0.231343762032E+04    0.27528E-04   -0.46053E-05  2976   0.602E-03    0.114E-02
RMM:   8    -0.231343761865E+04    0.16654E-05   -0.81167E-06  2859   0.364E-03
  34 F= -.23342262E+04 E0= -.23342262E+04  d E =-.365567E-02  mag=     3.0000
       N       E                     dE             d eps       ncg     rms          rms(c)
DAV:   1    -0.231341864918E+04    0.18971E-01   -0.11219E+00  4472   0.100E+00    0.305E-01
RMM:   2    -0.231343808273E+04   -0.19434E-01   -0.21106E-01  6316   0.216E-01    0.183E-01
RMM:   3    -0.231343980412E+04   -0.17214E-02   -0.21519E-02  5745   0.750E-02    0.164E-01
RMM:   4    -0.231343968877E+04    0.11535E-03   -0.20805E-03  4026   0.167E-02    0.108E-01
RMM:   5    -0.231343957255E+04    0.11622E-03   -0.35617E-04  4122   0.114E-02    0.850E-02
RMM:   6    -0.231343953967E+04    0.32882E-04   -0.23745E-04  3506   0.943E-03    0.645E-02
RMM:   7    -0.231343950425E+04    0.35417E-04   -0.58043E-05  3012   0.630E-03    0.127E-02
RMM:   8    -0.231343950173E+04    0.25178E-05   -0.93994E-06  2874   0.391E-03
  35 F= -.23342276E+04 E0= -.23342276E+04  d E =-.501060E-02  mag=     3.0000
       N       E                     dE             d eps       ncg     rms          rms(c)
DAV:   1    -0.231342218160E+04    0.17323E-01   -0.11736E+00  4472   0.104E+00    0.324E-01
RMM:   2    -0.231344196903E+04   -0.19787E-01   -0.21396E-01  6260   0.225E-01    0.206E-01
RMM:   3    -0.231344365297E+04   -0.16839E-02   -0.21399E-02  5820   0.808E-02    0.202E-01
RMM:   4    -0.231344335855E+04    0.29442E-03   -0.21338E-03  4557   0.182E-02    0.108E-01
RMM:   5    -0.231344329392E+04    0.64636E-04   -0.37977E-04  4402   0.114E-02    0.112E-01
RMM:   6    -0.231344317681E+04    0.11711E-03   -0.32630E-04  4184   0.108E-02    0.493E-02
RMM:   7    -0.231344315348E+04    0.23331E-04   -0.64986E-05  3194   0.657E-03    0.136E-02
RMM:   8    -0.231344315038E+04    0.31021E-05   -0.10016E-05  2878   0.451E-03
  36 F= -.23342306E+04 E0= -.23342306E+04  d E =-.302323E-02  mag=     3.0000
       N       E                     dE             d eps       ncg     rms          rms(c)
DAV:   1    -0.231343850009E+04    0.46534E-02   -0.28993E-01  4576   0.518E-01    0.161E-01
RMM:   2    -0.231344338521E+04   -0.48851E-02   -0.52779E-02  6274   0.113E-01    0.104E-01
RMM:   3    -0.231344379606E+04   -0.41085E-03   -0.53448E-03  5051   0.398E-02    0.988E-02
RMM:   4    -0.231344372618E+04    0.69884E-04   -0.52957E-04  3077   0.949E-03    0.551E-02
RMM:   5    -0.231344370647E+04    0.19705E-04   -0.92087E-05  3100   0.651E-03    0.544E-02
RMM:   6    -0.231344367933E+04    0.27139E-04   -0.87563E-05  3053   0.653E-03    0.269E-02
RMM:   7    -0.231344367170E+04    0.76367E-05   -0.22254E-05  2908   0.487E-03
  37 F= -.23342308E+04 E0= -.23342308E+04  d E =-.323128E-02  mag=     3.0000
       N       E                     dE             d eps       ncg     rms          rms(c)
DAV:   1    -0.231343883355E+04    0.48458E-02   -0.41919E-01  4480   0.645E-01    0.206E-01
RMM:   2    -0.231344551987E+04   -0.66863E-02   -0.71857E-02  6342   0.140E-01    0.134E-01
RMM:   3    -0.231344605370E+04   -0.53382E-03   -0.72462E-03  5551   0.500E-02    0.116E-01
RMM:   4    -0.231344590482E+04    0.14888E-03   -0.74652E-04  3526   0.122E-02    0.586E-02
RMM:   5    -0.231344585229E+04    0.52531E-04   -0.13837E-04  3703   0.877E-03    0.264E-02
RMM:   6    -0.231344584646E+04    0.58294E-05   -0.51054E-05  3137   0.661E-03
  38 F= -.23342327E+04 E0= -.23342327E+04  d E =-.188525E-02  mag=     3.0000
       N       E                     dE             d eps       ncg     rms          rms(c)
DAV:   1    -0.231343480188E+04    0.11050E-01   -0.72677E-01  4480   0.849E-01    0.271E-01
RMM:   2    -0.231344641883E+04   -0.11617E-01   -0.12483E-01  6234   0.183E-01    0.177E-01
RMM:   3    -0.231344733750E+04   -0.91867E-03   -0.12464E-02  5781   0.638E-02    0.156E-01
RMM:   4    -0.231344707118E+04    0.26632E-03   -0.13083E-03  4382   0.157E-02    0.786E-02
RMM:   5    -0.231344700144E+04    0.69742E-04   -0.24252E-04  4042   0.104E-02    0.609E-02
RMM:   6    -0.231344699293E+04    0.85072E-05   -0.13429E-04  3170   0.835E-03    0.559E-02
RMM:   7    -0.231344696575E+04    0.27186E-04   -0.46108E-05  2911   0.614E-03    0.990E-03
RMM:   8    -0.231344696410E+04    0.16462E-05   -0.85419E-06  2865   0.406E-03
  39 F= -.23342334E+04 E0= -.23342334E+04  d E =-.261109E-02  mag=     3.0000
       N       E                     dE             d eps       ncg     rms          rms(c)
DAV:   1    -0.231344347953E+04    0.34862E-02   -0.31954E-01  4496   0.551E-01    0.175E-01
RMM:   2    -0.231344836438E+04   -0.48848E-02   -0.51466E-02  6334   0.122E-01    0.151E-01
RMM:   3    -0.231344860609E+04   -0.24171E-03   -0.53320E-03  5422   0.424E-02    0.109E-01
RMM:   4    -0.231344849247E+04    0.11362E-03   -0.59866E-04  3352   0.107E-02    0.592E-02
RMM:   5    -0.231344848516E+04    0.73141E-05   -0.97620E-05  2963   0.665E-03
  40 F= -.23342348E+04 E0= -.23342348E+04  d E =-.141747E-02  mag=     3.0000
       N       E                     dE             d eps       ncg     rms          rms(c)
DAV:   1    -0.231344810634E+04    0.38613E-03   -0.26230E-02  4896   0.158E-01    0.555E-02
RMM:   2    -0.231344852618E+04   -0.41984E-03   -0.43147E-03  6184   0.354E-02    0.599E-02
RMM:   3    -0.231344852548E+04    0.69880E-06   -0.46998E-04  3046   0.127E-02    0.352E-02
RMM:   4    -0.231344851433E+04    0.11153E-04   -0.53916E-05  2922   0.476E-03    0.219E-02
RMM:   5    -0.231344851629E+04   -0.19615E-05   -0.18200E-05  2841   0.286E-03
  41 F= -.23342348E+04 E0= -.23342348E+04  d E =-.141738E-02  mag=     3.0000
       N       E                     dE             d eps       ncg     rms          rms(c)
DAV:   1    -0.231344655463E+04    0.19597E-02   -0.23663E-01  4480   0.470E-01    0.151E-01
RMM:   2    -0.231344989921E+04   -0.33446E-02   -0.34701E-02  6238   0.100E-01    0.135E-01
RMM:   3    -0.231345001412E+04   -0.11492E-03   -0.36454E-03  5102   0.369E-02    0.890E-02
RMM:   4    -0.231344991998E+04    0.94146E-04   -0.40262E-04  3240   0.931E-03    0.445E-02
RMM:   5    -0.231344991846E+04    0.15193E-05   -0.68818E-05  2904   0.591E-03
  42 F= -.23342361E+04 E0= -.23342361E+04  d E =-.129654E-02  mag=     3.0000
       N       E                     dE             d eps       ncg     rms          rms(c)
DAV:   1    -0.231344708145E+04    0.28385E-02   -0.22670E-01  4480   0.462E-01    0.148E-01
RMM:   2    -0.231345028871E+04   -0.32073E-02   -0.33317E-02  6401   0.990E-02    0.133E-01
RMM:   3    -0.231345040696E+04   -0.11825E-03   -0.36451E-03  5118   0.362E-02    0.872E-02
RMM:   4    -0.231345031460E+04    0.92362E-04   -0.37713E-04  3210   0.930E-03    0.424E-02
RMM:   5    -0.231345030994E+04    0.46546E-05   -0.82518E-05  3270   0.663E-03
  43 F= -.23342364E+04 E0= -.23342364E+04  d E =-.158102E-02  mag=     3.0000
       N       E                     dE             d eps       ncg     rms          rms(c)
DAV:   1    -0.231344937061E+04    0.94399E-03   -0.13369E-01  4576   0.367E-01    0.118E-01
RMM:   2    -0.231345121961E+04   -0.18490E-02   -0.19057E-02  6330   0.794E-02    0.110E-01
RMM:   3    -0.231345129625E+04   -0.76641E-04   -0.21755E-03  4687   0.301E-02    0.805E-02
RMM:   4    -0.231345123329E+04    0.62967E-04   -0.22308E-04  3072   0.820E-03    0.433E-02
RMM:   5    -0.231345122679E+04    0.65011E-05   -0.47630E-05  2885   0.510E-03
  44 F= -.23342372E+04 E0= -.23342372E+04  d E =-.783349E-03  mag=     3.0000
       N       E                     dE             d eps       ncg     rms          rms(c)
DAV:   1    -0.231344812976E+04    0.31035E-02   -0.25970E-01  4472   0.510E-01    0.164E-01
RMM:   2    -0.231345169608E+04   -0.35663E-02   -0.37123E-02  6238   0.108E-01    0.138E-01
RMM:   3    -0.231345187006E+04   -0.17399E-03   -0.41334E-03  5348   0.429E-02    0.999E-02
RMM:   4    -0.231345174118E+04    0.12888E-03   -0.40866E-04  3416   0.104E-02    0.449E-02
RMM:   5    -0.231345173360E+04    0.75788E-05   -0.10960E-04  3268   0.781E-03    0.521E-02
RMM:   6    -0.231345171158E+04    0.22021E-04   -0.57903E-05  2925   0.674E-03    0.214E-02
RMM:   7    -0.231345170815E+04    0.34292E-05   -0.12867E-05  2870   0.462E-03
  45 F= -.23342375E+04 E0= -.23342375E+04  d E =-.107580E-02  mag=     3.0000
       N       E                     dE             d eps       ncg     rms          rms(c)
DAV:   1    -0.231344913688E+04    0.25747E-02   -0.23216E-01  4480   0.465E-01    0.142E-01
RMM:   2    -0.231345252525E+04   -0.33884E-02   -0.35526E-02  6347   0.100E-01    0.120E-01
RMM:   3    -0.231345273716E+04   -0.21191E-03   -0.38972E-03  4999   0.371E-02    0.881E-02
RMM:   4    -0.231345265755E+04    0.79611E-04   -0.38559E-04  3105   0.911E-03    0.477E-02
RMM:   5    -0.231345265083E+04    0.67137E-05   -0.69148E-05  2911   0.577E-03
  46 F= -.23342383E+04 E0= -.23342383E+04  d E =-.774325E-03  mag=     3.0000
       N       E                     dE             d eps       ncg     rms          rms(c)
DAV:   1    -0.231345205165E+04    0.60589E-03   -0.46290E-02  4640   0.207E-01    0.659E-02
RMM:   2    -0.231345274225E+04   -0.69060E-03   -0.71614E-03  6315   0.450E-02    0.659E-02
RMM:   3    -0.231345276908E+04   -0.26831E-04   -0.85603E-04  3249   0.173E-02    0.415E-02
RMM:   4    -0.231345275123E+04    0.17854E-04   -0.79197E-05  2925   0.549E-03    0.228E-02
RMM:   5    -0.231345275395E+04   -0.27238E-05   -0.23598E-05  2880   0.327E-03
  47 F= -.23342383E+04 E0= -.23342383E+04  d E =-.800673E-03  mag=     3.0000
       N       E                     dE             d eps       ncg     rms          rms(c)
DAV:   1    -0.231345091602E+04    0.18352E-02   -0.18700E-01  4464   0.418E-01    0.127E-01
RMM:   2    -0.231345349542E+04   -0.25794E-02   -0.27145E-02  6267   0.877E-02    0.100E-01
RMM:   3    -0.231345368519E+04   -0.18978E-03   -0.31853E-03  4594   0.341E-02    0.772E-02
RMM:   4    -0.231345361537E+04    0.69827E-04   -0.28409E-04  3054   0.840E-03    0.405E-02
RMM:   5    -0.231345360592E+04    0.94514E-05   -0.63169E-05  2947   0.568E-03
  48 F= -.23342390E+04 E0= -.23342390E+04  d E =-.722858E-03  mag=     3.0000
       N       E                     dE             d eps       ncg     rms          rms(c)
DAV:   1    -0.231345132831E+04    0.22871E-02   -0.17505E-01  4464   0.404E-01    0.125E-01
RMM:   2    -0.231345377171E+04   -0.24434E-02   -0.25565E-02  6366   0.856E-02    0.107E-01
RMM:   3    -0.231345392063E+04   -0.14892E-03   -0.29919E-03  4522   0.335E-02    0.788E-02
RMM:   4    -0.231345385366E+04    0.66970E-04   -0.27162E-04  3021   0.832E-03    0.414E-02
RMM:   5    -0.231345385101E+04    0.26479E-05   -0.62710E-05  2993   0.538E-03
  49 F= -.23342391E+04 E0= -.23342391E+04  d E =-.841653E-03  mag=     3.0000
       N       E                     dE             d eps       ncg     rms          rms(c)
DAV:   1    -0.231345266521E+04    0.11884E-02   -0.12693E-01  4480   0.354E-01    0.103E-01
RMM:   2    -0.231345428684E+04   -0.16216E-02   -0.16992E-02  6341   0.736E-02    0.888E-02
RMM:   3    -0.231345441249E+04   -0.12565E-03   -0.20994E-03  4211   0.279E-02    0.710E-02
RMM:   4    -0.231345436000E+04    0.52488E-04   -0.17843E-04  2998   0.745E-03    0.360E-02
RMM:   5    -0.231345435788E+04    0.21237E-05   -0.41575E-05  2882   0.443E-03
  50 F= -.23342396E+04 E0= -.23342396E+04  d E =-.456407E-03  mag=     3.0000
       N       E                     dE             d eps       ncg     rms          rms(c)
DAV:   1    -0.231345177394E+04    0.25861E-02   -0.21082E-01  4456   0.455E-01    0.132E-01
RMM:   2    -0.231345445036E+04   -0.26764E-02   -0.28246E-02  6306   0.925E-02    0.103E-01
RMM:   3    -0.231345465356E+04   -0.20320E-03   -0.33226E-03  4782   0.362E-02    0.796E-02
RMM:   4    -0.231345457718E+04    0.76376E-04   -0.28962E-04  3080   0.875E-03    0.401E-02
RMM:   5    -0.231345455617E+04    0.21015E-04   -0.83108E-05  3149   0.684E-03    0.284E-02
RMM:   6    -0.231345455635E+04   -0.18031E-06   -0.36878E-05  2886   0.559E-03
  51 F= -.23342397E+04 E0= -.23342397E+04  d E =-.589392E-03  mag=     3.0000
       N       E                     dE             d eps       ncg     rms          rms(c)
DAV:   1    -0.231345376789E+04    0.78828E-03   -0.11738E-01  4480   0.345E-01    0.995E-02
RMM:   2    -0.231345501363E+04   -0.12457E-02   -0.13160E-02  6215   0.697E-02    0.814E-02
RMM:   3    -0.231345508326E+04   -0.69628E-04   -0.13965E-03  4154   0.245E-02    0.676E-02
RMM:   4    -0.231345503745E+04    0.45803E-04   -0.15222E-04  2994   0.710E-03    0.342E-02
RMM:   5    -0.231345503347E+04    0.39859E-05   -0.36872E-05  2886   0.453E-03
  52 F= -.23342402E+04 E0= -.23342402E+04  d E =-.479728E-03  mag=     3.0000
       N       E                     dE             d eps       ncg     rms          rms(c)
DAV:   1    -0.231345471699E+04    0.32046E-03   -0.31923E-02  4688   0.180E-01    0.538E-02
RMM:   2    -0.231345506506E+04   -0.34807E-03   -0.36012E-03  6262   0.365E-02    0.520E-02
RMM:   3    -0.231345506937E+04   -0.43160E-05   -0.39330E-04  3096   0.133E-02    0.329E-02
RMM:   4    -0.231345505542E+04    0.13955E-04   -0.39855E-05  2923   0.474E-03    0.163E-02
RMM:   5    -0.231345505311E+04    0.23071E-05   -0.17983E-05  2871   0.353E-03
  53 F= -.23342402E+04 E0= -.23342402E+04  d E =-.500557E-03  mag=     3.0000
       N       E                     dE             d eps       ncg     rms          rms(c)
DAV:   1    -0.231345458493E+04    0.47049E-03   -0.87866E-02  4464   0.294E-01    0.825E-02
RMM:   2    -0.231345549403E+04   -0.90910E-03   -0.93695E-03  6252   0.593E-02    0.710E-02
RMM:   3    -0.231345552216E+04   -0.28133E-04   -0.96835E-04  3750   0.212E-02    0.479E-02
RMM:   4    -0.231345549152E+04    0.30648E-04   -0.99617E-05  2979   0.642E-03    0.241E-02
RMM:   5    -0.231345548276E+04    0.87546E-05   -0.29332E-05  2885   0.464E-03
  54 F= -.23342406E+04 E0= -.23342406E+04  d E =-.399182E-03  mag=     3.0000
       N       E                     dE             d eps       ncg     rms          rms(c)
DAV:   1    -0.231345468209E+04    0.80942E-03   -0.88945E-02  4464   0.296E-01    0.840E-02
RMM:   2    -0.231345560166E+04   -0.91956E-03   -0.94779E-03  6335   0.602E-02    0.734E-02
RMM:   3    -0.231345562958E+04   -0.27927E-04   -0.10171E-03  3722   0.214E-02    0.512E-02
RMM:   4    -0.231345559898E+04    0.30605E-04   -0.10421E-04  2930   0.661E-03    0.283E-02
RMM:   5    -0.231345559730E+04    0.16802E-05   -0.27383E-05  2898   0.389E-03
  55 F= -.23342407E+04 E0= -.23342407E+04  d E =-.482564E-03  mag=     3.0000
       N       E                     dE             d eps       ncg     rms          rms(c)
DAV:   1    -0.231345509451E+04    0.50447E-03   -0.81064E-02  4480   0.292E-01    0.831E-02
RMM:   2    -0.231345604919E+04   -0.95468E-03   -0.97136E-03  6285   0.602E-02    0.845E-02
RMM:   3    -0.231345606357E+04   -0.14381E-04   -0.10086E-03  3783   0.216E-02    0.558E-02
RMM:   4    -0.231345603263E+04    0.30940E-04   -0.11025E-04  2951   0.652E-03    0.285E-02
RMM:   5    -0.231345603008E+04    0.25555E-05   -0.26670E-05  2867   0.385E-03
  56 F= -.23342411E+04 E0= -.23342411E+04  d E =-.375669E-03  mag=     3.0000
       N       E                     dE             d eps       ncg     rms          rms(c)
DAV:   1    -0.231345406538E+04    0.19673E-02   -0.19140E-01  4472   0.448E-01    0.127E-01
RMM:   2    -0.231345630374E+04   -0.22384E-02   -0.23018E-02  6259   0.914E-02    0.119E-01
RMM:   3    -0.231345636280E+04   -0.59060E-04   -0.23331E-03  4861   0.329E-02    0.825E-02
RMM:   4    -0.231345628960E+04    0.73201E-04   -0.25033E-04  3127   0.848E-03    0.393E-02
RMM:   5    -0.231345628649E+04    0.31121E-05   -0.57563E-05  2889   0.572E-03
  57 F= -.23342413E+04 E0= -.23342413E+04  d E =-.543543E-03  mag=     3.0000
       N       E                     dE             d eps       ncg     rms          rms(c)
DAV:   1    -0.231345487096E+04    0.14186E-02   -0.13433E-01  4472   0.374E-01    0.109E-01
RMM:   2    -0.231345674178E+04   -0.18708E-02   -0.19268E-02  6423   0.807E-02    0.109E-01
RMM:   3    -0.231345678146E+04   -0.39682E-04   -0.19501E-03  4283   0.278E-02    0.677E-02
RMM:   4    -0.231345673271E+04    0.48754E-04   -0.20046E-04  3025   0.772E-03    0.339E-02
RMM:   5    -0.231345672846E+04    0.42520E-05   -0.50782E-05  2881   0.545E-03
  58 F= -.23342417E+04 E0= -.23342417E+04  d E =-.391561E-03  mag=     3.0000
       N       E                     dE             d eps       ncg     rms          rms(c)
DAV:   1    -0.231345617635E+04    0.55636E-03   -0.42378E-02  4608   0.210E-01    0.626E-02
RMM:   2    -0.231345677006E+04   -0.59371E-03   -0.61457E-03  6383   0.466E-02    0.599E-02
RMM:   3    -0.231345678243E+04   -0.12374E-04   -0.63347E-04  3247   0.162E-02    0.370E-02
RMM:   4    -0.231345676630E+04    0.16129E-04   -0.64657E-05  2931   0.531E-03    0.199E-02
RMM:   5    -0.231345676674E+04   -0.43864E-06   -0.19682E-05  2886   0.331E-03
  59 F= -.23342417E+04 E0= -.23342417E+04  d E =-.401101E-03  mag=     3.0000
       N       E                     dE             d eps       ncg     rms          rms(c)
DAV:   1    -0.231345511495E+04    0.16514E-02   -0.13698E-01  4472   0.366E-01    0.111E-01
RMM:   2    -0.231345719137E+04   -0.20764E-02   -0.21108E-02  6375   0.823E-02    0.118E-01
RMM:   3    -0.231345720132E+04   -0.99550E-05   -0.20968E-03  4250   0.279E-02    0.678E-02
RMM:   4    -0.231345715440E+04    0.46925E-04   -0.22816E-04  3048   0.764E-03    0.413E-02
RMM:   5    -0.231345714579E+04    0.86018E-05   -0.39118E-05  2874   0.444E-03
  60 F= -.23342420E+04 E0= -.23342420E+04  d E =-.344554E-03  mag=     3.0000
       N       E                     dE             d eps       ncg     rms          rms(c)
DAV:   1    -0.231345678640E+04    0.36799E-03   -0.24181E-02  4776   0.155E-01    0.467E-02
RMM:   2    -0.231345714328E+04   -0.35687E-03   -0.37314E-03  6217   0.343E-02    0.440E-02
RMM:   3    -0.231345715618E+04   -0.12900E-04   -0.39022E-04  2998   0.125E-02    0.301E-02
RMM:   4    -0.231345714529E+04    0.10891E-04   -0.37871E-05  2906   0.412E-03    0.156E-02
RMM:   5    -0.231345714426E+04    0.10234E-05   -0.13929E-05  2867   0.267E-03
  61 F= -.23342420E+04 E0= -.23342420E+04  d E =-.328099E-03  mag=     3.0000
       N       E                     dE             d eps       ncg     rms          rms(c)
DAV:   1    -0.231345584846E+04    0.12968E-02   -0.98786E-02  4472   0.319E-01    0.104E-01
RMM:   2    -0.231345748455E+04   -0.16361E-02   -0.16644E-02  6293   0.746E-02    0.105E-01
RMM:   3    -0.231345750691E+04   -0.22362E-04   -0.17611E-03  4071   0.261E-02    0.642E-02
RMM:   4    -0.231345746637E+04    0.40547E-04   -0.18392E-04  2989   0.727E-03    0.382E-02
RMM:   5    -0.231345745835E+04    0.80198E-05   -0.32213E-05  2856   0.419E-03
  62 F= -.23342423E+04 E0= -.23342423E+04  d E =-.333049E-03  mag=     3.0000
       N       E                     dE             d eps       ncg     rms          rms(c)
DAV:   1    -0.231345659010E+04    0.87627E-03   -0.54591E-02  4480   0.237E-01    0.770E-02
RMM:   2    -0.231345747905E+04   -0.88895E-03   -0.91666E-03  6379   0.549E-02    0.734E-02
RMM:   3    -0.231345750337E+04   -0.24317E-04   -0.95846E-04  3452   0.193E-02    0.467E-02
RMM:   4    -0.231345747707E+04    0.26298E-04   -0.92246E-05  2957   0.591E-03    0.229E-02
RMM:   5    -0.231345747469E+04    0.23801E-05   -0.29785E-05  2864   0.420E-03
  63 F= -.23342424E+04 E0= -.23342424E+04  d E =-.363307E-03  mag=     3.0000
       N       E                     dE             d eps       ncg     rms          rms(c)
DAV:   1    -0.231345659827E+04    0.87880E-03   -0.69635E-02  4472   0.261E-01    0.861E-02
RMM:   2    -0.231345777052E+04   -0.11723E-02   -0.12039E-02  6384   0.630E-02    0.827E-02
RMM:   3    -0.231345779826E+04   -0.27745E-04   -0.12333E-03  3634   0.214E-02    0.483E-02
RMM:   4    -0.231345777272E+04    0.25544E-04   -0.12492E-04  2970   0.633E-03    0.267E-02
RMM:   5    -0.231345776863E+04    0.40842E-05   -0.28128E-05  2854   0.410E-03
  64 F= -.23342426E+04 E0= -.23342426E+04  d E =-.280014E-03  mag=     3.0000
       N       E                     dE             d eps       ncg     rms          rms(c)
DAV:   1    -0.231345727685E+04    0.49587E-03   -0.31274E-02  4496   0.174E-01    0.590E-02
RMM:   2    -0.231345780847E+04   -0.53162E-03   -0.54420E-03  6351   0.423E-02    0.583E-02
RMM:   3    -0.231345781567E+04   -0.71967E-05   -0.55916E-04  3115   0.145E-02    0.329E-02
RMM:   4    -0.231345780358E+04    0.12089E-04   -0.56519E-05  2920   0.477E-03    0.191E-02
RMM:   5    -0.231345780419E+04   -0.61226E-06   -0.15250E-05  2858   0.278E-03
  65 F= -.23342427E+04 E0= -.23342427E+04  d E =-.306093E-03  mag=     3.0000
       N       E                     dE             d eps       ncg     rms          rms(c)
DAV:   1    -0.231345742373E+04    0.37985E-03   -0.41058E-02  4480   0.193E-01    0.629E-02
RMM:   2    -0.231345805996E+04   -0.63623E-03   -0.64274E-03  6367   0.453E-02    0.678E-02
RMM:   3    -0.231345806832E+04   -0.83575E-05   -0.69280E-04  3165   0.155E-02    0.399E-02
RMM:   4    -0.231345805404E+04    0.14284E-04   -0.71679E-05  2943   0.496E-03    0.249E-02
RMM:   5    -0.231345805083E+04    0.32113E-05   -0.13629E-05  2830   0.253E-03
  66 F= -.23342429E+04 E0= -.23342429E+04  d E =-.219047E-03  mag=     3.0000
       N       E                     dE             d eps       ncg     rms          rms(c)
DAV:   1    -0.231345699661E+04    0.10574E-02   -0.77661E-02  4472   0.265E-01    0.853E-02
RMM:   2    -0.231345817952E+04   -0.11829E-02   -0.12068E-02  6377   0.615E-02    0.844E-02
RMM:   3    -0.231345820557E+04   -0.26054E-04   -0.12089E-03  3503   0.205E-02    0.503E-02
RMM:   4    -0.231345817775E+04    0.27822E-04   -0.12510E-04  2985   0.616E-03    0.285E-02
RMM:   5    -0.231345817560E+04    0.21529E-05   -0.28582E-05  2846   0.375E-03
  67 F= -.23342430E+04 E0= -.23342430E+04  d E =-.305702E-03  mag=     3.0000
       N       E                     dE             d eps       ncg     rms          rms(c)
DAV:   1    -0.231345793343E+04    0.24432E-03   -0.33614E-02  4480   0.183E-01    0.582E-02
RMM:   2    -0.231345839713E+04   -0.46370E-03   -0.47727E-03  6293   0.418E-02    0.539E-02
RMM:   3    -0.231345840940E+04   -0.12274E-04   -0.47556E-04  3151   0.142E-02    0.356E-02
RMM:   4    -0.231345839457E+04    0.14828E-04   -0.48608E-05  2929   0.475E-03    0.171E-02
RMM:   5    -0.231345839142E+04    0.31559E-05   -0.15301E-05  2830   0.324E-03
  68 F= -.23342432E+04 E0= -.23342432E+04  d E =-.196218E-03  mag=     3.0000
       N       E                     dE             d eps       ncg     rms          rms(c)
DAV:   1    -0.231345727723E+04    0.11173E-02   -0.90619E-02  4472   0.300E-01    0.954E-02
RMM:   2    -0.231345853154E+04   -0.12543E-02   -0.12797E-02  6301   0.683E-02    0.881E-02
RMM:   3    -0.231345855820E+04   -0.26657E-04   -0.13011E-03  3891   0.236E-02    0.546E-02
RMM:   4    -0.231345852196E+04    0.36237E-04   -0.13406E-04  2991   0.675E-03    0.295E-02
RMM:   5    -0.231345851869E+04    0.32770E-05   -0.32645E-05  2844   0.443E-03
  69 F= -.23342433E+04 E0= -.23342433E+04  d E =-.291422E-03  mag=     3.0000
       N       E                     dE             d eps       ncg     rms          rms(c)
DAV:   1    -0.231345798014E+04    0.54182E-03   -0.55370E-02  4472   0.232E-01    0.705E-02
RMM:   2    -0.231345872477E+04   -0.74462E-03   -0.76061E-03  6422   0.523E-02    0.719E-02
RMM:   3    -0.231345873575E+04   -0.10979E-04   -0.76744E-04  3367   0.170E-02    0.429E-02
RMM:   4    -0.231345871721E+04    0.18534E-04   -0.81400E-05  2949   0.557E-03    0.223E-02
RMM:   5    -0.231345871412E+04    0.30898E-05   -0.21473E-05  2851   0.376E-03
  70 F= -.23342435E+04 E0= -.23342435E+04  d E =-.195059E-03  mag=     3.0000
       N       E                     dE             d eps       ncg     rms          rms(c)
DAV:   1    -0.231345845222E+04    0.26500E-03   -0.20945E-02  4576   0.142E-01    0.445E-02
RMM:   2    -0.231345873581E+04   -0.28360E-03   -0.28973E-03  6223   0.326E-02    0.439E-02
RMM:   3    -0.231345873880E+04   -0.29861E-05   -0.29828E-04  3008   0.111E-02    0.255E-02
RMM:   4    -0.231345873116E+04    0.76400E-05   -0.31045E-05  2912   0.386E-03
  71 F= -.23342435E+04 E0= -.23342435E+04  d E =-.211848E-03  mag=     3.0000
       N       E                     dE             d eps       ncg     rms          rms(c)
DAV:   1    -0.231345821332E+04    0.52548E-03   -0.60858E-02  4472   0.242E-01    0.726E-02
RMM:   2    -0.231345895514E+04   -0.74182E-03   -0.75689E-03  6284   0.514E-02    0.611E-02
RMM:   3    -0.231345897732E+04   -0.22178E-04   -0.75614E-04  3350   0.179E-02    0.420E-02
RMM:   4    -0.231345895510E+04    0.22220E-04   -0.81309E-05  2936   0.554E-03    0.232E-02
RMM:   5    -0.231345895449E+04    0.61181E-06   -0.22629E-05  2889   0.350E-03
  72 F= -.23342437E+04 E0= -.23342437E+04  d E =-.230254E-03  mag=     3.0000
       N       E                     dE             d eps       ncg     rms          rms(c)
DAV:   1    -0.231345856060E+04    0.39450E-03   -0.33989E-02  4480   0.181E-01    0.570E-02
RMM:   2    -0.231345899213E+04   -0.43153E-03   -0.42876E-03  6284   0.399E-02    0.642E-02
RMM:   3    -0.231345898761E+04    0.45276E-05   -0.45493E-04  3102   0.137E-02    0.376E-02
RMM:   4    -0.231345897447E+04    0.13139E-04   -0.51806E-05  2933   0.470E-03    0.216E-02
RMM:   5    -0.231345897189E+04    0.25763E-05   -0.12146E-05  2823   0.258E-03
  73 F= -.23342437E+04 E0= -.23342437E+04  d E =-.252779E-03  mag=     3.0000
       N       E                     dE             d eps       ncg     rms          rms(c)
DAV:   1    -0.231345858740E+04    0.38707E-03   -0.41026E-02  4472   0.201E-01    0.629E-02
RMM:   2    -0.231345910602E+04   -0.51862E-03   -0.52741E-03  6223   0.434E-02    0.597E-02
RMM:   3    -0.231345911549E+04   -0.94672E-05   -0.52393E-04  3255   0.153E-02    0.404E-02
RMM:   4    -0.231345909678E+04    0.18710E-04   -0.58938E-05  2936   0.497E-03    0.186E-02
RMM:   5    -0.231345909655E+04    0.22474E-06   -0.15232E-05  2828   0.306E-03
  74 F= -.23342439E+04 E0= -.23342439E+04  d E =-.167349E-03  mag=     3.0000
       N       E                     dE             d eps       ncg     rms          rms(c)
DAV:   1    -0.231345870650E+04    0.39027E-03   -0.29867E-02  4480   0.171E-01    0.539E-02
RMM:   2    -0.231345908695E+04   -0.38045E-03   -0.38685E-03  6238   0.377E-02    0.510E-02
RMM:   3    -0.231345909238E+04   -0.54310E-05   -0.38853E-04  3090   0.131E-02    0.329E-02
RMM:   4    -0.231345907869E+04    0.13687E-04   -0.42139E-05  2927   0.444E-03    0.149E-02
RMM:   5    -0.231345907746E+04    0.12354E-05   -0.13174E-05  2825   0.301E-03
  75 F= -.23342439E+04 E0= -.23342439E+04  d E =-.184667E-03  mag=     3.0000
       N       E                     dE             d eps       ncg     rms          rms(c)
DAV:   1    -0.231345850130E+04    0.57739E-03   -0.51350E-02  4472   0.221E-01    0.691E-02
RMM:   2    -0.231345918032E+04   -0.67902E-03   -0.68439E-03  6282   0.488E-02    0.692E-02
RMM:   3    -0.231345918560E+04   -0.52770E-05   -0.68974E-04  3398   0.168E-02    0.402E-02
RMM:   4    -0.231345916750E+04    0.18094E-04   -0.76825E-05  2950   0.531E-03    0.204E-02
RMM:   5    -0.231345916696E+04    0.54836E-06   -0.16069E-05  2833   0.316E-03
  76 F= -.23342441E+04 E0= -.23342441E+04  d E =-.158424E-03  mag=     3.0000
       N       E                     dE             d eps       ncg     rms          rms(c)
DAV:   1    -0.231345886580E+04    0.30170E-03   -0.20379E-02  4512   0.139E-01    0.436E-02
RMM:   2    -0.231345913374E+04   -0.26794E-03   -0.27281E-03  6163   0.309E-02    0.415E-02
RMM:   3    -0.231345913913E+04   -0.53904E-05   -0.27971E-04  3005   0.109E-02    0.258E-02
RMM:   4    -0.231345913108E+04    0.80486E-05   -0.29832E-05  2917   0.376E-03
  77 F= -.23342441E+04 E0= -.23342441E+04  d E =-.166176E-03  mag=     3.0000
       N       E                     dE             d eps       ncg     rms          rms(c)
DAV:   1    -0.231345856148E+04    0.57765E-03   -0.55819E-02  4472   0.224E-01    0.720E-02
RMM:   2    -0.231345926680E+04   -0.70532E-03   -0.70191E-03  6267   0.475E-02    0.753E-02
RMM:   3    -0.231345926149E+04    0.53101E-05   -0.68497E-04  3328   0.166E-02    0.435E-02
RMM:   4    -0.231345924095E+04    0.20543E-04   -0.83713E-05  2969   0.525E-03    0.245E-02
RMM:   5    -0.231345923875E+04    0.21962E-05   -0.16503E-05  2821   0.310E-03
  78 F= -.23342442E+04 E0= -.23342442E+04  d E =-.152740E-03  mag=     3.0000
       N       E                     dE             d eps       ncg     rms          rms(c)
DAV:   1    -0.231345905141E+04    0.18954E-03   -0.13273E-02  4656   0.110E-01    0.351E-02
RMM:   2    -0.231345921618E+04   -0.16476E-03   -0.16847E-03  5929   0.239E-02    0.325E-02
RMM:   3    -0.231345922033E+04   -0.41576E-05   -0.16993E-04  2925   0.874E-03    0.220E-02
RMM:   4    -0.231345921402E+04    0.63141E-05   -0.18220E-05  2882   0.307E-03
  79 F= -.23342442E+04 E0= -.23342442E+04  d E =-.150238E-03  mag=     3.0000
       N       E                     dE             d eps       ncg     rms          rms(c)
DAV:   1    -0.231345886614E+04    0.35420E-03   -0.37810E-02  4480   0.184E-01    0.601E-02
RMM:   2    -0.231345936372E+04   -0.49758E-03   -0.48499E-03  6228   0.394E-02    0.747E-02
RMM:   3    -0.231345934749E+04    0.16226E-04   -0.48330E-04  3151   0.141E-02    0.373E-02
RMM:   4    -0.231345933592E+04    0.11570E-04   -0.61094E-05  2931   0.456E-03    0.203E-02
RMM:   5    -0.231345933369E+04    0.22354E-05   -0.11232E-05  2809   0.254E-03
  80 F= -.23342444E+04 E0= -.23342444E+04  d E =-.138112E-03  mag=     3.0000
       N       E                     dE             d eps       ncg     rms          rms(c)
DAV:   1    -0.231345893584E+04    0.40008E-03   -0.32229E-02  4480   0.170E-01    0.543E-02
RMM:   2    -0.231345934241E+04   -0.40657E-03   -0.41050E-03  6237   0.366E-02    0.549E-02
RMM:   3    -0.231345934832E+04   -0.59132E-05   -0.40905E-04  3054   0.129E-02    0.345E-02
RMM:   4    -0.231345933555E+04    0.12773E-04   -0.46375E-05  2931   0.434E-03    0.165E-02
RMM:   5    -0.231345933539E+04    0.15975E-06   -0.10942E-05  2801   0.252E-03
  81 F= -.23342444E+04 E0= -.23342444E+04  d E =-.156909E-03  mag=     3.0000
       N       E                     dE             d eps       ncg     rms          rms(c)
DAV:   1    -0.231345882375E+04    0.51180E-03   -0.49112E-02  4472   0.207E-01    0.684E-02
RMM:   2    -0.231345944794E+04   -0.62420E-03   -0.62306E-03  6263   0.451E-02    0.774E-02
RMM:   3    -0.231345944231E+04    0.56371E-05   -0.63147E-04  3273   0.159E-02    0.423E-02
RMM:   4    -0.231345942537E+04    0.16940E-04   -0.72540E-05  2934   0.516E-03    0.207E-02
RMM:   5    -0.231345942497E+04    0.39788E-06   -0.16440E-05  2830   0.309E-03
  82 F= -.23342445E+04 E0= -.23342445E+04  d E =-.122365E-03  mag=     3.0000
       N       E                     dE             d eps       ncg     rms          rms(c)
DAV:   1    -0.231345938047E+04    0.44900E-04   -0.24219E-03  4912   0.461E-02    0.165E-02
RMM:   2    -0.231345941146E+04   -0.30997E-04   -0.31544E-04  3924   0.104E-02    0.164E-02
RMM:   3    -0.231345941160E+04   -0.13910E-06   -0.35198E-05  2805   0.534E-03
  83 F= -.23342445E+04 E0= -.23342445E+04  d E =-.116457E-03  mag=     3.0000
       N       E                     dE             d eps       ncg     rms          rms(c)
DAV:   1    -0.231345892014E+04    0.49132E-03   -0.50688E-02  4472   0.208E-01    0.697E-02
RMM:   2    -0.231345955744E+04   -0.63729E-03   -0.61986E-03  6262   0.452E-02    0.852E-02
RMM:   3    -0.231345953321E+04    0.24229E-04   -0.61311E-04  3312   0.159E-02    0.434E-02
RMM:   4    -0.231345951663E+04    0.16577E-04   -0.79400E-05  2942   0.516E-03    0.241E-02
RMM:   5    -0.231345951321E+04    0.34167E-05   -0.16033E-05  2824   0.295E-03
  84 F= -.23342446E+04 E0= -.23342446E+04  d E =-.119960E-03  mag=     3.0000
       N       E                     dE             d eps       ncg     rms          rms(c)
DAV:   1    -0.231345945260E+04    0.64030E-04   -0.38908E-03  4904   0.579E-02    0.191E-02
RMM:   2    -0.231345949726E+04   -0.44657E-04   -0.47620E-04  4517   0.127E-02    0.148E-02
RMM:   3    -0.231345950070E+04   -0.34381E-05   -0.55413E-05  2851   0.609E-03
  85 F= -.23342446E+04 E0= -.23342446E+04  d E =-.112710E-03  mag=     3.0000
       N       E                     dE             d eps       ncg     rms          rms(c)
DAV:   1    -0.231345910853E+04    0.38873E-03   -0.39722E-02  4456   0.185E-01    0.624E-02
RMM:   2    -0.231345962100E+04   -0.51247E-03   -0.50209E-03  6282   0.415E-02    0.714E-02
RMM:   3    -0.231345960780E+04    0.13198E-04   -0.49710E-04  3175   0.142E-02    0.388E-02
RMM:   4    -0.231345959464E+04    0.13163E-04   -0.64388E-05  2930   0.473E-03    0.226E-02
RMM:   5    -0.231345959171E+04    0.29289E-05   -0.12896E-05  2824   0.269E-03
  86 F= -.23342447E+04 E0= -.23342447E+04  d E =-.103782E-03  mag=     3.0000
       N       E                     dE             d eps       ncg     rms          rms(c)
DAV:   1    -0.231345944682E+04    0.14782E-03   -0.10927E-02  4576   0.974E-02    0.324E-02
RMM:   2    -0.231345958012E+04   -0.13330E-03   -0.13602E-03  5859   0.212E-02    0.307E-02
RMM:   3    -0.231345958392E+04   -0.37976E-05   -0.14521E-04  2904   0.800E-03    0.208E-02
RMM:   4    -0.231345957854E+04    0.53764E-05   -0.14448E-05  2884   0.281E-03
  87 F= -.23342447E+04 E0= -.23342447E+04  d E =-.974285E-04  mag=     3.0000
       N       E                     dE             d eps       ncg     rms          rms(c)
DAV:   1    -0.231345920598E+04    0.37794E-03   -0.34642E-02  4456   0.169E-01    0.567E-02
RMM:   2    -0.231345967116E+04   -0.46518E-03   -0.44296E-03  6249   0.372E-02    0.814E-02
RMM:   3    -0.231345964110E+04    0.30059E-04   -0.42778E-04  3095   0.124E-02    0.343E-02
RMM:   4    -0.231345963311E+04    0.79929E-05   -0.56246E-05  2928   0.423E-03
  88 F= -.23342448E+04 E0= -.23342448E+04  d E =-.890656E-04  mag=     3.0000
       N       E                     dE             d eps       ncg     rms          rms(c)
DAV:   1    -0.231345953189E+04    0.10922E-03   -0.67681E-03  4608   0.747E-02    0.270E-02
RMM:   2    -0.231345961570E+04   -0.83810E-04   -0.83316E-04  5233   0.163E-02    0.328E-02
RMM:   3    -0.231345961552E+04    0.17563E-06   -0.92869E-05  2878   0.663E-03
  89 F= -.23342448E+04 E0= -.23342448E+04  d E =-.868169E-04  mag=     3.0000
       N       E                     dE             d eps       ncg     rms          rms(c)
DAV:   1    -0.231345920369E+04    0.41201E-03   -0.41592E-02  4472   0.186E-01    0.621E-02
RMM:   2    -0.231345971078E+04   -0.50709E-03   -0.48502E-03  6239   0.406E-02    0.763E-02
RMM:   3    -0.231345968131E+04    0.29469E-04   -0.45849E-04  3162   0.138E-02    0.354E-02
RMM:   4    -0.231345966942E+04    0.11895E-04   -0.61342E-05  2958   0.460E-03    0.214E-02
RMM:   5    -0.231345966873E+04    0.68858E-06   -0.14856E-05  2823   0.295E-03
  90 F= -.23342449E+04 E0= -.23342449E+04  d E =-.990593E-04  mag=     3.0000
       N       E                     dE             d eps       ncg     rms          rms(c)
DAV:   1    -0.231345957867E+04    0.90749E-04   -0.57491E-03  4712   0.694E-02    0.226E-02
RMM:   2    -0.231345964284E+04   -0.64169E-04   -0.66727E-04  5092   0.154E-02    0.178E-02
RMM:   3    -0.231345964719E+04   -0.43565E-05   -0.75356E-05  2865   0.649E-03
  91 F= -.23342449E+04 E0= -.23342449E+04  d E =-.949659E-04  mag=     3.0000
       N       E                     dE             d eps       ncg     rms          rms(c)
DAV:   1    -0.231345931296E+04    0.32987E-03   -0.34052E-02  4472   0.171E-01    0.567E-02
RMM:   2    -0.231345973429E+04   -0.42133E-03   -0.40184E-03  6201   0.380E-02    0.738E-02
RMM:   3    -0.231345970021E+04    0.34084E-04   -0.34021E-04  3104   0.122E-02    0.337E-02
RMM:   4    -0.231345969076E+04    0.94514E-05   -0.51226E-05  2935   0.437E-03
  92 F= -.23342450E+04 E0= -.23342450E+04  d E =-.863824E-04  mag=     3.0000
       N       E                     dE             d eps       ncg     rms          rms(c)
DAV:   1    -0.231345964343E+04    0.56785E-04   -0.28387E-03  4872   0.495E-02    0.218E-02
RMM:   2    -0.231345967859E+04   -0.35160E-04   -0.31678E-04  4031   0.107E-02    0.333E-02
RMM:   3    -0.231345967140E+04    0.71833E-05   -0.36459E-05  2858   0.529E-03
  93 F= -.23342450E+04 E0= -.23342450E+04  d E =-.795728E-04  mag=     3.0000
       N       E                     dE             d eps       ncg     rms          rms(c)
DAV:   1    -0.231345943323E+04    0.24536E-03   -0.29454E-02  4472   0.161E-01    0.527E-02
RMM:   2    -0.231345976153E+04   -0.32830E-03   -0.32100E-03  6213   0.348E-02    0.615E-02
RMM:   3    -0.231345975104E+04    0.10483E-04   -0.31103E-04  3046   0.118E-02    0.335E-02
RMM:   4    -0.231345974042E+04    0.10623E-04   -0.40589E-05  2914   0.417E-03    0.173E-02
RMM:   5    -0.231345974009E+04    0.33536E-06   -0.11660E-05  2826   0.268E-03
  94 F= -.23342450E+04 E0= -.23342450E+04  d E =-.761274E-04  mag=     3.0000
       N       E                     dE             d eps       ncg     rms          rms(c)
DAV:   1    -0.231345972814E+04    0.12279E-04   -0.42420E-04  4992   0.198E-02    0.784E-03
RMM:   2    -0.231345973334E+04   -0.51969E-05   -0.51379E-05  2955   0.472E-03
  95 F= -.23342450E+04 E0= -.23342450E+04  d E =-.703213E-04  mag=     3.0000
       N       E                     dE             d eps       ncg     rms          rms(c)
DAV:   1    -0.231345948280E+04    0.24535E-03   -0.29299E-02  4472   0.160E-01    0.522E-02
RMM:   2    -0.231345981994E+04   -0.33714E-03   -0.33160E-03  6236   0.355E-02    0.560E-02
RMM:   3    -0.231345981616E+04    0.37750E-05   -0.33968E-04  3087   0.126E-02    0.332E-02
RMM:   4    -0.231345980543E+04    0.10731E-04   -0.40737E-05  2929   0.425E-03    0.178E-02
RMM:   5    -0.231345980428E+04    0.11518E-05   -0.10144E-05  2826   0.257E-03
  96 F= -.23342451E+04 E0= -.23342451E+04  d E =-.630320E-04  mag=     3.0000
       N       E                     dE             d eps       ncg     rms          rms(c)
DAV:   1    -0.231345979885E+04    0.65800E-05   -0.11537E-04  5104   0.108E-02    0.568E-03
RMM:   2    -0.231345980065E+04   -0.18027E-05   -0.16910E-05  2569   0.287E-03
  97 F= -.23342451E+04 E0= -.23342451E+04  d E =-.588664E-04  mag=     3.0000
       N       E                     dE             d eps       ncg     rms          rms(c)
DAV:   1    -0.231345963713E+04    0.16172E-03   -0.17966E-02  4472   0.129E-01    0.438E-02
RMM:   2    -0.231345984689E+04   -0.20976E-03   -0.21135E-03  6141   0.288E-02    0.420E-02
RMM:   3    -0.231345984988E+04   -0.29863E-05   -0.21327E-04  2984   0.106E-02    0.303E-02
RMM:   4    -0.231345984063E+04    0.92513E-05   -0.25921E-05  2900   0.359E-03
  98 F= -.23342452E+04 E0= -.23342452E+04  d E =-.593038E-04  mag=     3.0000
       N       E                     dE             d eps       ncg     rms          rms(c)
DAV:   1    -0.231345982475E+04    0.25124E-04   -0.89281E-04  4936   0.291E-02    0.162E-02
RMM:   2    -0.231345984148E+04   -0.16721E-04   -0.11637E-04  3238   0.674E-03    0.297E-02
RMM:   3    -0.231345983277E+04    0.87086E-05   -0.17182E-05  2656   0.398E-03
  99 F= -.23342452E+04 E0= -.23342452E+04  d E =-.558656E-04  mag=     3.0000
       N       E                     dE             d eps       ncg     rms          rms(c)
DAV:   1    -0.231345963026E+04    0.21122E-03   -0.16755E-02  4472   0.124E-01    0.398E-02
RMM:   2    -0.231345984310E+04   -0.21284E-03   -0.21808E-03  6128   0.281E-02    0.387E-02
RMM:   3    -0.231345985208E+04   -0.89807E-05   -0.22731E-04  2957   0.102E-02    0.288E-02
RMM:   4    -0.231345984539E+04    0.66937E-05   -0.25945E-05  2893   0.335E-03
 100 F= -.23342452E+04 E0= -.23342452E+04  d E =-.415857E-04  mag=     3.0000
       N       E                     dE             d eps       ncg     rms          rms(c)
DAV:   1    -0.231345984669E+04    0.53901E-05   -0.16520E-04  5032   0.126E-02    0.141E-02
RMM:   2    -0.231345985853E+04   -0.11846E-04   -0.47158E-05  2843   0.409E-03    0.288E-02
RMM:   3    -0.231345984666E+04    0.11875E-04   -0.11412E-05  2338   0.297E-03    0.295E-03
RMM:   4    -0.231345984649E+04    0.17321E-06   -0.11154E-06  1436   0.883E-04
 101 F= -.23342452E+04 E0= -.23342452E+04  d E =-.400919E-04  mag=     3.0000
       N       E                     dE             d eps       ncg     rms          rms(c)
DAV:   1    -0.231345969825E+04    0.14841E-03   -0.13518E-02  4472   0.114E-01    0.388E-02
RMM:   2    -0.231345987444E+04   -0.17618E-03   -0.17935E-03  6082   0.260E-02    0.357E-02
RMM:   3    -0.231345987867E+04   -0.42364E-05   -0.17910E-04  2945   0.920E-03    0.258E-02
RMM:   4    -0.231345987179E+04    0.68822E-05   -0.20500E-05  2883   0.316E-03
 102 F= -.23342452E+04 E0= -.23342452E+04  d E =-.378411E-04  mag=     3.0000
       N       E                     dE             d eps       ncg     rms          rms(c)
DAV:   1    -0.231345986819E+04    0.10483E-04   -0.84240E-05  5160   0.939E-03    0.120E-02
RMM:   2    -0.231345987499E+04   -0.67986E-05   -0.24160E-05  2633   0.279E-03
 103 F= -.23342452E+04 E0= -.23342452E+04  d E =-.420653E-04  mag=     3.0000
       N       E                     dE             d eps       ncg     rms          rms(c)
DAV:   1    -0.231345973902E+04    0.12917E-03   -0.11600E-02  4472   0.102E-01    0.359E-02
RMM:   2    -0.231345990425E+04   -0.16523E-03   -0.16023E-03  5982   0.247E-02    0.422E-02
RMM:   3    -0.231345989417E+04    0.10085E-04   -0.14746E-04  2930   0.884E-03    0.213E-02
RMM:   4    -0.231345988995E+04    0.42223E-05   -0.19196E-05  2889   0.299E-03
 104 F= -.23342453E+04 E0= -.23342453E+04  d E =-.199276E-04  mag=     3.0000
       N       E                     dE             d eps       ncg     rms          rms(c)
DAV:   1    -0.231345988861E+04    0.55579E-05   -0.65758E-05  4864   0.818E-03    0.116E-02
RMM:   2    -0.231345989344E+04   -0.48286E-05   -0.21914E-05  2554   0.311E-03
 105 F= -.23342453E+04 E0= -.23342453E+04  d E =-.230883E-04  mag=     3.0000
       N       E                     dE             d eps       ncg     rms          rms(c)
DAV:   1    -0.231345976443E+04    0.12418E-03   -0.10501E-02  4472   0.101E-01    0.359E-02
RMM:   2    -0.231345990765E+04   -0.14322E-03   -0.13939E-03  5995   0.237E-02    0.411E-02
RMM:   3    -0.231345989909E+04    0.85612E-05   -0.12983E-04  2916   0.847E-03    0.228E-02
RMM:   4    -0.231345989474E+04    0.43449E-05   -0.17098E-05  2863   0.301E-03
 106 F= -.23342453E+04 E0= -.23342453E+04  d E =-.225189E-04  mag=     3.0000
       N       E                     dE             d eps       ncg     rms          rms(c)
DAV:   1    -0.231345989348E+04    0.56069E-05   -0.79054E-06  3720   0.358E-03    0.105E-02
RMM:   2    -0.231345989672E+04   -0.32403E-05   -0.11416E-05  2210   0.241E-03
 107 F= -.23342453E+04 E0= -.23342453E+04  d E =-.243589E-04  mag=     3.0000
       N       E                     dE             d eps       ncg     rms          rms(c)
DAV:   1    -0.231345982154E+04    0.71940E-04   -0.82482E-03  4472   0.870E-02    0.303E-02
RMM:   2    -0.231345992241E+04   -0.10087E-03   -0.96679E-04  5763   0.202E-02    0.370E-02
RMM:   3    -0.231345991432E+04    0.80886E-05   -0.90428E-05  2895   0.708E-03
 108 F= -.23342453E+04 E0= -.23342453E+04  d E =-.245338E-04  mag=     3.0000
       N       E                     dE             d eps       ncg     rms          rms(c)
DAV:   1    -0.231345991148E+04    0.10929E-04   -0.15161E-04  4992   0.124E-02    0.119E-02
RMM:   2    -0.231345991694E+04   -0.54557E-05   -0.24858E-05  2679   0.325E-03
 109 F= -.23342453E+04 E0= -.23342453E+04  d E =-.262763E-04  mag=     3.0000
       N       E                     dE             d eps       ncg     rms          rms(c)
DAV:   1    -0.231345988904E+04    0.22446E-04   -0.60155E-03  4472   0.747E-02    0.257E-02
RMM:   2    -0.231345993890E+04   -0.49862E-04   -0.51954E-04  5421   0.164E-02    0.188E-02
RMM:   3    -0.231345994196E+04   -0.30608E-05   -0.52140E-05  2869   0.658E-03
 110 F= -.23342453E+04 E0= -.23342453E+04  d E =-.197988E-04  mag=     3.0000
       N       E                     dE             d eps       ncg     rms          rms(c)
DAV:   1    -0.231345993786E+04    0.10334E-05   -0.13228E-05  4136   0.491E-03    0.691E-03
RMM:   2    -0.231345993786E+04    0.36089E-08   -0.33166E-06  2298   0.220E-03
 111 F= -.23342453E+04 E0= -.23342453E+04  d E =-.155301E-04  mag=     3.0000
       N       E                     dE             d eps       ncg     rms          rms(c)
DAV:   1    -0.231345991242E+04    0.25450E-04   -0.57000E-03  4472   0.687E-02    0.229E-02
RMM:   2    -0.231345996327E+04   -0.50854E-04   -0.51858E-04  5235   0.151E-02    0.204E-02
RMM:   3    -0.231345996490E+04   -0.16325E-05   -0.51880E-05  2861   0.615E-03
 112 F= -.23342453E+04 E0= -.23342453E+04  d E =-.205599E-04  mag=     3.0000
       N       E                     dE             d eps       ncg     rms          rms(c)
DAV:   1    -0.231345996210E+04    0.11672E-05   -0.78159E-06  3832   0.369E-03    0.655E-03
RMM:   2    -0.231345996173E+04    0.36912E-06   -0.20269E-06  2237   0.160E-03
 113 F= -.23342453E+04 E0= -.23342453E+04  d E =-.172813E-04  mag=     3.0000
       N       E                     dE             d eps       ncg     rms          rms(c)
DAV:   1    -0.231345992917E+04    0.32936E-04   -0.45029E-03  4456   0.598E-02    0.192E-02
RMM:   2    -0.231345996726E+04   -0.38090E-04   -0.39775E-04  4630   0.133E-02    0.138E-02
RMM:   3    -0.231345996982E+04   -0.25667E-05   -0.41403E-05  2783   0.604E-03
 114 F= -.23342454E+04 E0= -.23342454E+04  d E =-.234514E-04  mag=     3.0000
       N       E                     dE             d eps       ncg     rms          rms(c)
DAV:   1    -0.231345996357E+04    0.36821E-05   -0.17278E-04  4872   0.120E-02    0.721E-03
RMM:   2    -0.231345996481E+04   -0.12402E-05   -0.17693E-05  2494   0.292E-03
 115 F= -.23342454E+04 E0= -.23342454E+04  d E =-.214793E-04  mag=     3.0000
       N       E                     dE             d eps       ncg     rms          rms(c)
DAV:   1    -0.231345992767E+04    0.35903E-04   -0.46700E-03  4408   0.609E-02    0.193E-02
RMM:   2    -0.231345996607E+04   -0.38402E-04   -0.41102E-04  4562   0.134E-02    0.107E-02
RMM:   3    -0.231345996937E+04   -0.32960E-05   -0.48516E-05  2827   0.646E-03
 116 F= -.23342454E+04 E0= -.23342454E+04  d E =-.204735E-04  mag=     3.0000
       N       E                     dE             d eps       ncg     rms          rms(c)
DAV:   1    -0.231345996205E+04    0.40219E-05   -0.31192E-04  4816   0.160E-02    0.863E-03
RMM:   2    -0.231345996538E+04   -0.33276E-05   -0.32482E-05  2759   0.400E-03
 117 F= -.23342454E+04 E0= -.23342454E+04  d E =-.206324E-04  mag=     3.0000
       N       E                     dE             d eps       ncg     rms          rms(c)
DAV:   1    -0.231345991430E+04    0.47752E-04   -0.43693E-03  4392   0.579E-02    0.185E-02
RMM:   2    -0.231345995686E+04   -0.42562E-04   -0.44173E-04  4495   0.134E-02    0.138E-02
RMM:   3    -0.231345995961E+04   -0.27517E-05   -0.48323E-05  2776   0.651E-03
 118 F= -.23342454E+04 E0= -.23342454E+04  d E =-.182840E-04  mag=     3.0000
       N       E                     dE             d eps       ncg     rms          rms(c)
DAV:   1    -0.231345995358E+04    0.32776E-05   -0.92650E-05  4656   0.888E-03    0.689E-03
RMM:   2    -0.231345995446E+04   -0.87880E-06   -0.12284E-05  2429   0.274E-03
 119 F= -.23342454E+04 E0= -.23342454E+04  d E =-.166518E-04  mag=     3.0000
       N       E                     dE             d eps       ncg     rms          rms(c)
DAV:   1    -0.231345991662E+04    0.36967E-04   -0.33526E-03  4352   0.503E-02    0.162E-02
RMM:   2    -0.231345995061E+04   -0.33998E-04   -0.36194E-04  4148   0.118E-02    0.972E-03
RMM:   3    -0.231345995334E+04   -0.27314E-05   -0.41824E-05  2684   0.592E-03
 120 F= -.23342454E+04 E0= -.23342454E+04  d E =-.179589E-04  mag=     3.0000
       N       E                     dE             d eps       ncg     rms          rms(c)
DAV:   1    -0.231345994404E+04    0.65733E-05   -0.30367E-04  4736   0.153E-02    0.764E-03
RMM:   2    -0.231345994770E+04   -0.36632E-05   -0.37808E-05  2830   0.400E-03
 121 F= -.23342454E+04 E0= -.23342454E+04  d E =-.181289E-04  mag=     3.0000
       N       E                     dE             d eps       ncg     rms          rms(c)
DAV:   1    -0.231345991855E+04    0.25491E-04   -0.25125E-03  4352   0.443E-02    0.147E-02
RMM:   2    -0.231345994509E+04   -0.26540E-04   -0.28115E-04  3899   0.107E-02    0.932E-03
RMM:   3    -0.231345994737E+04   -0.22774E-05   -0.33563E-05  2579   0.574E-03
 122 F= -.23342454E+04 E0= -.23342454E+04  d E =-.184903E-04  mag=     3.0000
       N       E                     dE             d eps       ncg     rms          rms(c)
DAV:   1    -0.231345993639E+04    0.86976E-05   -0.30860E-04  4768   0.157E-02    0.747E-03
RMM:   2    -0.231345994003E+04   -0.36426E-05   -0.38553E-05  2806   0.411E-03
 123 F= -.23342454E+04 E0= -.23342454E+04  d E =-.178220E-04  mag=     3.0000
       N       E                     dE             d eps       ncg     rms          rms(c)
DAV:   1    -0.231345991127E+04    0.25125E-04   -0.24273E-03  4384   0.436E-02    0.150E-02
RMM:   2    -0.231345993631E+04   -0.25044E-04   -0.26751E-04  3868   0.106E-02    0.917E-03
RMM:   3    -0.231345993850E+04   -0.21884E-05   -0.32285E-05  2689   0.572E-03
 124 F= -.23342455E+04 E0= -.23342455E+04  d E =-.128604E-04  mag=     3.0000
       N       E                     dE             d eps       ncg     rms          rms(c)
DAV:   1    -0.231345993569E+04    0.61555E-06   -0.47725E-05  4368   0.655E-03    0.655E-03
RMM:   2    -0.231345993726E+04   -0.15659E-05   -0.92401E-06  2377   0.275E-03
 125 F= -.23342455E+04 E0= -.23342455E+04  d E =-.136436E-04  mag=     3.0000
       N       E                     dE             d eps       ncg     rms          rms(c)
DAV:   1    -0.231345992103E+04    0.14662E-04   -0.15284E-03  4320   0.349E-02    0.120E-02
RMM:   2    -0.231345993694E+04   -0.15911E-04   -0.16362E-04  3453   0.832E-03    0.100E-02
RMM:   3    -0.231345993777E+04   -0.82773E-06   -0.17604E-05  2347   0.470E-03
 126 F= -.23342455E+04 E0= -.23342455E+04  d E =-.138062E-04  mag=     3.0000
       N       E                     dE             d eps       ncg     rms          rms(c)
DAV:   1    -0.231345992001E+04    0.16933E-04   -0.82315E-04  4296   0.256E-02    0.101E-02
RMM:   2    -0.231345992867E+04   -0.86644E-05   -0.91401E-05  3163   0.648E-03
 127 F= -.23342455E+04 E0= -.23342455E+04  d E =-.145439E-04  mag=     3.0000
       N       E                     dE             d eps       ncg     rms          rms(c)
DAV:   1    -0.231345993230E+04   -0.12293E-04   -0.12215E-04  4816   0.107E-02    0.722E-03
RMM:   2    -0.231345993501E+04   -0.27080E-05   -0.14833E-05  2419   0.250E-03
 128 F= -.23342455E+04 E0= -.23342455E+04  d E =-.172967E-04  mag=     3.0000
       N       E                     dE             d eps       ncg     rms          rms(c)
DAV:   1    -0.231345992388E+04    0.84262E-05   -0.15903E-03  4264   0.351E-02    0.128E-02
RMM:   2    -0.231345994075E+04   -0.16869E-04   -0.15913E-04  3441   0.820E-03    0.179E-02
RMM:   3    -0.231345993966E+04    0.10843E-05   -0.19229E-05  2355   0.449E-03
 129 F= -.23342455E+04 E0= -.23342455E+04  d E =-.869405E-05  mag=     3.0000
       N       E                     dE             d eps       ncg     rms          rms(c)
DAV:   1    -0.231345993450E+04    0.62457E-05   -0.42448E-04  4336   0.181E-02    0.744E-03
RMM:   2    -0.231345993897E+04   -0.44678E-05   -0.46479E-05  2881   0.469E-03
 130 F= -.23342455E+04 E0= -.23342455E+04  d E =-.100998E-04  mag=     3.0000
       N       E                     dE             d eps       ncg     rms          rms(c)
DAV:   1    -0.231345993337E+04    0.11255E-05   -0.12200E-03  4256   0.300E-02    0.123E-02
RMM:   2    -0.231345994978E+04   -0.16404E-04   -0.13979E-04  3360   0.755E-03    0.224E-02
RMM:   3    -0.231345994598E+04    0.37965E-05   -0.13558E-05  2417   0.410E-03
 131 F= -.23342455E+04 E0= -.23342455E+04  d E =-.103247E-04  mag=     3.0000
       N       E                     dE             d eps       ncg     rms          rms(c)
DAV:   1    -0.231345994446E+04    0.53183E-05   -0.85112E-05  4360   0.803E-03    0.511E-03
RMM:   2    -0.231345994551E+04   -0.10511E-05   -0.99707E-06  2338   0.261E-03
 132 F= -.23342455E+04 E0= -.23342455E+04  d E =-.107381E-04  mag=     3.0000
       N       E                     dE             d eps       ncg     rms          rms(c)
DAV:   1    -0.231345993706E+04    0.73970E-05   -0.12950E-03  4272   0.311E-02    0.115E-02
RMM:   2    -0.231345995019E+04   -0.13128E-04   -0.12559E-04  3216   0.733E-03    0.146E-02
RMM:   3    -0.231345994951E+04    0.68272E-06   -0.15222E-05  2301   0.430E-03
 133 F= -.23342455E+04 E0= -.23342455E+04  d E =-.959588E-05  mag=     3.0000
       N       E                     dE             d eps       ncg     rms          rms(c)
DAV:   1    -0.231345994425E+04    0.59455E-05   -0.28614E-04  4368   0.147E-02    0.643E-03
RMM:   2    -0.231345994710E+04   -0.28515E-05   -0.29853E-05  2685   0.387E-03
 134 F= -.23342455E+04 E0= -.23342455E+04  d E =-.985260E-05  mag=     3.0000
       N       E                     dE             d eps       ncg     rms          rms(c)
DAV:   1    -0.231345993171E+04    0.12537E-04   -0.12231E-03  4208   0.294E-02    0.112E-02
RMM:   2    -0.231345994669E+04   -0.14975E-04   -0.13430E-04  3291   0.720E-03    0.178E-02
RMM:   3    -0.231345994440E+04    0.22892E-05   -0.14269E-05  2363   0.416E-03
 135 F= -.23342455E+04 E0= -.23342455E+04  d E =-.948414E-05  mag=     3.0000
