       N       E                     dE             d eps       ncg     rms          rms(c)
DAV:   1     0.124904573765E+05    0.12490E+05   -0.84448E+05  4640   0.142E+03
DAV:   2    -0.125380756837E+04   -0.13744E+05   -0.13201E+05  5040   0.323E+02
DAV:   3    -0.249846205961E+04   -0.12447E+04   -0.12336E+04  5440   0.105E+02
DAV:   4    -0.252671158367E+04   -0.28250E+02   -0.28076E+02  5680   0.196E+01
DAV:   5    -0.252755001419E+04   -0.83843E+00   -0.83687E+00  5920   0.284E+00    0.170E+02
RMM:   6    -0.149595669398E+04    0.10316E+04   -0.19054E+03  4509   0.377E+01    0.721E+01
RMM:   7    -0.166495310945E+04   -0.16900E+03   -0.28334E+02  5033   0.140E+01    0.507E+01
RMM:   8    -0.172309763795E+04   -0.58145E+02   -0.47215E+01  5323   0.697E+00    0.467E+01
RMM:   9    -0.178569050566E+04   -0.62593E+02   -0.78339E+01  5025   0.785E+00    0.348E+01
RMM:  10    -0.191865545730E+04   -0.13296E+03   -0.61137E+01  5394   0.762E+00    0.276E+01
RMM:  11    -0.198267766061E+04   -0.64022E+02   -0.24483E+01  5435   0.426E+00    0.253E+01
RMM:  12    -0.205117756537E+04   -0.68500E+02   -0.24332E+01  4862   0.388E+00    0.177E+01
RMM:  13    -0.210050521133E+04   -0.49328E+02   -0.15947E+01  5200   0.309E+00    0.134E+01
RMM:  14    -0.224819760119E+04   -0.14769E+03   -0.13401E+02  4578   0.782E+00    0.111E+01
RMM:  15    -0.229621038329E+04   -0.48013E+02   -0.42608E+01  4536   0.470E+00    0.919E+00
RMM:  16    -0.231181979431E+04   -0.15609E+02   -0.15209E+01  4815   0.301E+00    0.573E+00
RMM:  17    -0.231777227469E+04   -0.59525E+01   -0.53926E+00  4931   0.161E+00    0.360E+00
RMM:  18    -0.232007885432E+04   -0.23066E+01   -0.13331E+00  4905   0.954E-01    0.133E+00
RMM:  19    -0.232134569237E+04   -0.12668E+01   -0.63320E-01  5037   0.508E-01    0.110E+00
RMM:  20    -0.232154884152E+04   -0.20315E+00   -0.14239E-01  4928   0.315E-01    0.566E-01
RMM:  21    -0.232161973417E+04   -0.70893E-01   -0.48544E-02  4712   0.163E-01    0.266E-01
RMM:  22    -0.232164842327E+04   -0.28689E-01   -0.15186E-02  4720   0.105E-01    0.193E-01
RMM:  23    -0.232166590718E+04   -0.17484E-01   -0.72815E-03  4545   0.656E-02    0.126E-01
RMM:  24    -0.232167534547E+04   -0.94383E-02   -0.29304E-03  4616   0.489E-02    0.704E-02
RMM:  25    -0.232168327848E+04   -0.79330E-02   -0.22602E-03  4513   0.366E-02    0.443E-02
RMM:  26    -0.232168911245E+04   -0.58340E-02   -0.17666E-03  4534   0.340E-02    0.254E-02
RMM:  27    -0.232169139093E+04   -0.22785E-02   -0.86228E-04  4381   0.240E-02    0.151E-02
RMM:  28    -0.232169216078E+04   -0.76984E-03   -0.29411E-04  4050   0.156E-02    0.852E-03
RMM:  29    -0.232169243384E+04   -0.27307E-03   -0.10108E-04  3738   0.100E-02    0.500E-03
RMM:  30    -0.232169257623E+04   -0.14239E-03   -0.47280E-05  3535   0.695E-03    0.302E-03
RMM:  31    -0.232169264838E+04   -0.72143E-04   -0.29020E-05  3272   0.554E-03    0.219E-03
RMM:  32    -0.232169266523E+04   -0.16854E-04   -0.12967E-05  2980   0.409E-03    0.104E-03
RMM:  33    -0.232169266836E+04   -0.31316E-05   -0.47341E-06  2604   0.259E-03
   1 F= -.23425998E+04 E0= -.23425998E+04  d E =-.357626E-19  mag=     6.0000
       N       E                     dE             d eps       ncg     rms          rms(c)
DAV:   1    -0.232169564485E+04   -0.29796E-02   -0.19443E+00  4480   0.517E-01    0.315E-01
RMM:   2    -0.232169640324E+04   -0.75839E-03   -0.14426E-02  3757   0.395E-02    0.198E-01
RMM:   3    -0.232169667458E+04   -0.27135E-03   -0.18996E-03  4715   0.180E-02    0.269E-01
RMM:   4    -0.232169597435E+04    0.70023E-03   -0.86360E-04  3890   0.132E-02    0.537E-02
RMM:   5    -0.232169596195E+04    0.12402E-04   -0.93030E-05  3126   0.495E-03    0.367E-02
RMM:   6    -0.232169595417E+04    0.77791E-05   -0.25003E-05  2684   0.319E-03
   2 F= -.23426036E+04 E0= -.23426036E+04  d E =-.339483E-22  mag=     6.0000
       N       E                     dE             d eps       ncg     rms          rms(c)
DAV:   1    -0.232165427436E+04    0.41688E-01   -0.77799E+00  4480   0.100E+00    0.645E-01
RMM:   2    -0.232165586365E+04   -0.15893E-02   -0.46929E-02  3993   0.722E-02    0.390E-01
RMM:   3    -0.232165657217E+04   -0.70852E-03   -0.66656E-03  5356   0.334E-02    0.487E-01
RMM:   4    -0.232165423860E+04    0.23336E-02   -0.29765E-03  4943   0.244E-02    0.109E-01
RMM:   5    -0.232165414439E+04    0.94205E-04   -0.26224E-04  3379   0.770E-03    0.333E-02
RMM:   6    -0.232165414720E+04   -0.28077E-05   -0.54701E-05  2984   0.458E-03
   3 F= -.23425608E+04 E0= -.23425608E+04  d E =-.127690E-21  mag=     6.0000
       N       E                     dE             d eps       ncg     rms          rms(c)
DAV:   1    -0.232167489445E+04   -0.20750E-01   -0.36548E+00  4480   0.733E-01    0.381E-01
RMM:   2    -0.232167588351E+04   -0.98906E-03   -0.13230E-02  3826   0.434E-02    0.246E-01
RMM:   3    -0.232167734569E+04   -0.14622E-02   -0.28123E-03  5065   0.199E-02    0.454E-01
RMM:   4    -0.232167566949E+04    0.16762E-02   -0.12625E-03  4023   0.160E-02    0.441E-02
RMM:   5    -0.232167570128E+04   -0.31784E-04   -0.21303E-04  3216   0.689E-03    0.668E-02
RMM:   6    -0.232167565728E+04    0.43995E-04   -0.48492E-05  2795   0.391E-03    0.138E-02
RMM:   7    -0.232167565619E+04    0.10879E-05   -0.98190E-06  2635   0.194E-03
   4 F= -.23425828E+04 E0= -.23425828E+04  d E =-.405530E-21  mag=     6.0000
       N       E                     dE             d eps       ncg     rms          rms(c)
DAV:   1    -0.232167200063E+04    0.36566E-02   -0.77954E+00  4480   0.106E+00    0.692E-01
RMM:   2    -0.232167404558E+04   -0.20449E-02   -0.58963E-02  4157   0.874E-02    0.459E-01
RMM:   3    -0.232167642840E+04   -0.23828E-02   -0.10172E-02  5540   0.442E-02    0.712E-01
RMM:   4    -0.232167163395E+04    0.47944E-02   -0.48146E-03  5167   0.310E-02    0.126E-01
RMM:   5    -0.232167177020E+04   -0.13625E-03   -0.98708E-04  3833   0.151E-02    0.170E-01
RMM:   6    -0.232167149711E+04    0.27309E-03   -0.26077E-04  3303   0.805E-03    0.346E-02
RMM:   7    -0.232167148358E+04    0.13530E-04   -0.45694E-05  3015   0.377E-03    0.224E-02
RMM:   8    -0.232167147719E+04    0.63864E-05   -0.24042E-05  3007   0.351E-03
   5 F= -.23425786E+04 E0= -.23425786E+04  d E =-.362359E-19  mag=     6.0000
       N       E                     dE             d eps       ncg     rms          rms(c)
DAV:   1    -0.232159821076E+04    0.73273E-01   -0.39474E+00  4800   0.703E-01    0.448E-01
RMM:   2    -0.232159959104E+04   -0.13803E-02   -0.28352E-02  3959   0.540E-02    0.275E-01
RMM:   3    -0.232159952798E+04    0.63060E-04   -0.26417E-03  4861   0.199E-02    0.273E-01
RMM:   4    -0.232159927338E+04    0.25460E-03   -0.17586E-03  4126   0.174E-02    0.204E-01
RMM:   5    -0.232159888830E+04    0.38507E-03   -0.27462E-04  3316   0.852E-03    0.261E-02
RMM:   6    -0.232159887541E+04    0.12892E-04   -0.49504E-05  2983   0.427E-03    0.180E-02
RMM:   7    -0.232159887626E+04   -0.85145E-06   -0.25738E-05  2894   0.341E-03
   6 F= -.23425058E+04 E0= -.23425058E+04  d E =-.437310E-18  mag=     6.0000
       N       E                     dE             d eps       ncg     rms          rms(c)
DAV:   1    -0.232172731077E+04   -0.12844E+00   -0.81421E+00  4480   0.947E-01    0.767E-01
RMM:   2    -0.232172823257E+04   -0.92180E-03   -0.77311E-02  4311   0.940E-02    0.494E-01
RMM:   3    -0.232172994152E+04   -0.17089E-02   -0.15382E-02  5592   0.555E-02    0.733E-01
RMM:   4    -0.232172429697E+04    0.56445E-02   -0.63725E-03  5503   0.360E-02    0.109E-01
RMM:   5    -0.232172413999E+04    0.15699E-03   -0.64672E-04  3667   0.105E-02    0.513E-02
RMM:   6    -0.232172415152E+04   -0.11537E-04   -0.14841E-04  3116   0.706E-03    0.689E-02
RMM:   7    -0.232172411124E+04    0.40278E-04   -0.55747E-05  3003   0.489E-03    0.328E-02
RMM:   8    -0.232172409775E+04    0.13493E-04   -0.37461E-05  3014   0.419E-03    0.116E-02
RMM:   9    -0.232172409324E+04    0.45158E-05   -0.96624E-06  2893   0.347E-03
   7 F= -.23426314E+04 E0= -.23426314E+04  d E =-.218626E-17  mag=     6.0000
       N       E                     dE             d eps       ncg     rms          rms(c)
DAV:   1    -0.232167948148E+04    0.44616E-01   -0.65250E+00  4480   0.932E-01    0.540E-01
RMM:   2    -0.232168153821E+04   -0.20567E-02   -0.68149E-02  4169   0.850E-02    0.329E-01
RMM:   3    -0.232168124495E+04    0.29326E-03   -0.46020E-03  4941   0.290E-02    0.408E-01
RMM:   4    -0.232168025495E+04    0.99000E-03   -0.26514E-03  4343   0.207E-02    0.219E-01
RMM:   5    -0.232167985249E+04    0.40246E-03   -0.52284E-04  3651   0.111E-02    0.412E-02
RMM:   6    -0.232167985526E+04   -0.27679E-05   -0.11643E-04  3077   0.658E-03    0.580E-02
RMM:   7    -0.232167982229E+04    0.32968E-04   -0.54871E-05  2973   0.441E-03    0.195E-02
RMM:   8    -0.232167981609E+04    0.61996E-05   -0.14660E-05  2868   0.264E-03
   8 F= -.23425867E+04 E0= -.23425867E+04  d E =-.457224E-19  mag=     6.0000
       N       E                     dE             d eps       ncg     rms          rms(c)
DAV:   1    -0.232168781150E+04   -0.79892E-02   -0.19651E+01  4480   0.157E+00    0.890E-01
RMM:   2    -0.232169102947E+04   -0.32180E-02   -0.16751E-01  4634   0.137E-01    0.565E-01
RMM:   3    -0.232169162293E+04   -0.59347E-03   -0.16060E-02  5475   0.584E-02    0.797E-01
RMM:   4    -0.232168619258E+04    0.54304E-02   -0.60655E-03  5127   0.335E-02    0.245E-01
RMM:   5    -0.232168626262E+04   -0.70045E-04   -0.22710E-03  4164   0.206E-02    0.209E-01
RMM:   6    -0.232168587978E+04    0.38284E-03   -0.70044E-04  3744   0.129E-02    0.793E-02
RMM:   7    -0.232168582268E+04    0.57106E-04   -0.14508E-04  3186   0.588E-03    0.332E-02
RMM:   8    -0.232168581410E+04    0.85757E-05   -0.34816E-05  3024   0.382E-03
   9 F= -.23425932E+04 E0= -.23425932E+04  d E =-.213087E-18  mag=     6.0000
       N       E                     dE             d eps       ncg     rms          rms(c)
DAV:   1    -0.232167584710E+04    0.99756E-02   -0.97682E+00  4640   0.110E+00    0.422E-01
RMM:   2    -0.232167786347E+04   -0.20164E-02   -0.49471E-02  4063   0.713E-02    0.255E-01
RMM:   3    -0.232167853242E+04   -0.66895E-03   -0.43327E-03  5131   0.282E-02    0.427E-01
RMM:   4    -0.232167696650E+04    0.15659E-02   -0.16850E-03  4259   0.184E-02    0.819E-02
RMM:   5    -0.232167705279E+04   -0.86285E-04   -0.36948E-04  3418   0.947E-03    0.922E-02
RMM:   6    -0.232167697553E+04    0.77252E-04   -0.10242E-04  3013   0.556E-03    0.271E-02
RMM:   7    -0.232167697350E+04    0.20388E-05   -0.17431E-05  2859   0.284E-03
  10 F= -.23425848E+04 E0= -.23425848E+04  d E =-.143620E-17  mag=     6.0000
       N       E                     dE             d eps       ncg     rms          rms(c)
DAV:   1    -0.232168347883E+04   -0.65033E-02   -0.20133E+01  4480   0.153E+00    0.828E-01
RMM:   2    -0.232168493223E+04   -0.14534E-02   -0.14396E-01  4118   0.121E-01    0.427E-01
RMM:   3    -0.232168459054E+04    0.34169E-03   -0.10173E-02  5204   0.427E-02    0.611E-01
RMM:   4    -0.232168178018E+04    0.28104E-02   -0.49712E-03  5031   0.289E-02    0.244E-01
RMM:   5    -0.232168143696E+04    0.34322E-03   -0.10791E-03  3946   0.149E-02    0.797E-02
RMM:   6    -0.232168145610E+04   -0.19137E-04   -0.32404E-04  3366   0.991E-03    0.964E-02
RMM:   7    -0.232168135652E+04    0.99580E-04   -0.10751E-04  3120   0.592E-03    0.255E-02
RMM:   8    -0.232168135026E+04    0.62553E-05   -0.26778E-05  2988   0.365E-03
  11 F= -.23425878E+04 E0= -.23425878E+04  d E =-.457992E-17  mag=     6.0000
       N       E                     dE             d eps       ncg     rms          rms(c)
DAV:   1    -0.232169202949E+04   -0.10673E-01   -0.10253E+01  4480   0.102E+00    0.399E-01
RMM:   2    -0.232169590606E+04   -0.38766E-02   -0.59860E-02  3941   0.732E-02    0.209E-01
RMM:   3    -0.232169544656E+04    0.45951E-03   -0.29532E-03  4151   0.227E-02    0.195E-01
RMM:   4    -0.232169532371E+04    0.12285E-03   -0.10943E-03  3714   0.145E-02    0.146E-01
RMM:   5    -0.232169515627E+04    0.16744E-03   -0.22444E-04  3283   0.833E-03    0.226E-02
RMM:   6    -0.232169515731E+04   -0.10415E-05   -0.27517E-05  2862   0.380E-03
  12 F= -.23426021E+04 E0= -.23426021E+04  d E =-.871351E-17  mag=     6.0000
       N       E                     dE             d eps       ncg     rms          rms(c)
DAV:   1    -0.232167056851E+04    0.24588E-01   -0.20611E+01  4480   0.148E+00    0.702E-01
RMM:   2    -0.232167801055E+04   -0.74420E-02   -0.14745E-01  4038   0.115E-01    0.342E-01
RMM:   3    -0.232167651865E+04    0.14919E-02   -0.75032E-03  4976   0.411E-02    0.387E-01
RMM:   4    -0.232167569022E+04    0.82843E-03   -0.34625E-03  4625   0.244E-02    0.257E-01
RMM:   5    -0.232167518409E+04    0.50613E-03   -0.12821E-03  3921   0.160E-02    0.106E-01
RMM:   6    -0.232167512939E+04    0.54700E-04   -0.34297E-04  3378   0.979E-03    0.775E-02
RMM:   7    -0.232167506565E+04    0.63738E-04   -0.69671E-05  3030   0.493E-03    0.230E-02
RMM:   8    -0.232167505976E+04    0.58952E-05   -0.27874E-05  2980   0.337E-03
  13 F= -.23425824E+04 E0= -.23425824E+04  d E =-.817806E-18  mag=     6.0000
       N       E                     dE             d eps       ncg     rms          rms(c)
DAV:   1    -0.232170459640E+04   -0.29531E-01   -0.10287E+01  4480   0.115E+00    0.432E-01
RMM:   2    -0.232170893548E+04   -0.43391E-02   -0.64876E-02  3987   0.820E-02    0.230E-01
RMM:   3    -0.232170835743E+04    0.57805E-03   -0.36450E-03  4618   0.244E-02    0.300E-01
RMM:   4    -0.232170774017E+04    0.61726E-03   -0.13434E-03  4076   0.155E-02    0.145E-01
RMM:   5    -0.232170757509E+04    0.16508E-03   -0.34728E-04  3346   0.956E-03    0.248E-02
RMM:   6    -0.232170757180E+04    0.32890E-05   -0.40213E-05  2924   0.507E-03
  14 F= -.23426153E+04 E0= -.23426153E+04  d E =-.649123E-18  mag=     6.0000
       N       E                     dE             d eps       ncg     rms          rms(c)
DAV:   1    -0.232166979785E+04    0.37777E-01   -0.20502E+01  4480   0.165E+00    0.550E-01
RMM:   2    -0.232167256887E+04   -0.27710E-02   -0.82138E-02  4051   0.926E-02    0.291E-01
RMM:   3    -0.232167175148E+04    0.81738E-03   -0.65450E-03  4875   0.347E-02    0.313E-01
RMM:   4    -0.232167126406E+04    0.48743E-03   -0.22547E-03  4475   0.200E-02    0.195E-01
RMM:   5    -0.232167097402E+04    0.29004E-03   -0.47953E-04  3596   0.123E-02    0.459E-02
RMM:   6    -0.232167098970E+04   -0.15678E-04   -0.97159E-05  3089   0.670E-03    0.506E-02
RMM:   7    -0.232167096609E+04    0.23606E-04   -0.36333E-05  2905   0.423E-03    0.199E-02
RMM:   8    -0.232167096276E+04    0.33309E-05   -0.12553E-05  2901   0.288E-03
  15 F= -.23425775E+04 E0= -.23425775E+04  d E =-.357988E-19  mag=     6.0000
       N       E                     dE             d eps       ncg     rms          rms(c)
DAV:   1    -0.232167392715E+04   -0.29611E-02   -0.10079E+01  4480   0.125E+00    0.378E-01
RMM:   2    -0.232167483166E+04   -0.90451E-03   -0.36549E-02  3976   0.684E-02    0.219E-01
RMM:   3    -0.232167513784E+04   -0.30618E-03   -0.39766E-03  4751   0.261E-02    0.368E-01
RMM:   4    -0.232167390958E+04    0.12283E-02   -0.16289E-03  4072   0.177E-02    0.798E-02
RMM:   5    -0.232167392259E+04   -0.13004E-04   -0.23748E-04  3293   0.832E-03    0.666E-02
RMM:   6    -0.232167388816E+04    0.34428E-04   -0.64704E-05  2881   0.496E-03    0.259E-02
RMM:   7    -0.232167388550E+04    0.26567E-05   -0.12273E-05  2777   0.260E-03
  16 F= -.23425807E+04 E0= -.23425807E+04  d E =-.271629E-17  mag=     6.0000
       N       E                     dE             d eps       ncg     rms          rms(c)
DAV:   1    -0.232170448718E+04   -0.30599E-01   -0.20581E+01  4480   0.167E+00    0.612E-01
RMM:   2    -0.232170679809E+04   -0.23109E-02   -0.90533E-02  4123   0.104E-01    0.314E-01
RMM:   3    -0.232170634866E+04    0.44943E-03   -0.64297E-03  4511   0.427E-02    0.386E-01
RMM:   4    -0.232170534648E+04    0.10022E-02   -0.31217E-03  4483   0.226E-02    0.210E-01
RMM:   5    -0.232170501676E+04    0.32972E-03   -0.88904E-04  3901   0.143E-02    0.846E-02
RMM:   6    -0.232170498803E+04    0.28733E-04   -0.20107E-04  3272   0.810E-03    0.594E-02
RMM:   7    -0.232170495852E+04    0.29505E-04   -0.44499E-05  3007   0.441E-03    0.186E-02
RMM:   8    -0.232170495757E+04    0.95330E-06   -0.17543E-05  2932   0.272E-03
  17 F= -.23426124E+04 E0= -.23426124E+04  d E =-.318161E-17  mag=     6.0000
       N       E                     dE             d eps       ncg     rms          rms(c)
DAV:   1    -0.232171335780E+04   -0.83993E-02   -0.10211E+01  4480   0.118E+00    0.462E-01
RMM:   2    -0.232171539464E+04   -0.20368E-02   -0.59270E-02  4121   0.796E-02    0.319E-01
RMM:   3    -0.232171572989E+04   -0.33526E-03   -0.57600E-03  5081   0.303E-02    0.482E-01
RMM:   4    -0.232171372252E+04    0.20074E-02   -0.29128E-03  4257   0.224E-02    0.102E-01
RMM:   5    -0.232171365655E+04    0.65974E-04   -0.49761E-04  3583   0.104E-02    0.514E-02
RMM:   6    -0.232171367463E+04   -0.18083E-04   -0.15173E-04  3172   0.676E-03    0.614E-02
RMM:   7    -0.232171363532E+04    0.39314E-04   -0.40972E-05  2930   0.433E-03    0.152E-02
RMM:   8    -0.232171363262E+04    0.26979E-05   -0.11620E-05  2876   0.255E-03
  18 F= -.23426214E+04 E0= -.23426214E+04  d E =-.516675E-19  mag=     6.0000
       N       E                     dE             d eps       ncg     rms          rms(c)
DAV:   1    -0.232163259585E+04    0.81039E-01   -0.20438E+01  4480   0.157E+00    0.102E+00
RMM:   2    -0.232162780828E+04    0.47876E-02   -0.18201E-01  4483   0.135E-01    0.696E-01
RMM:   3    -0.232163056374E+04   -0.27555E-02   -0.24841E-02  5537   0.709E-02    0.109E+00
RMM:   4    -0.232162035756E+04    0.10206E-01   -0.12025E-02  5101   0.449E-02    0.202E-01
RMM:   5    -0.232162012613E+04    0.23143E-03   -0.21818E-03  4475   0.201E-02    0.164E-01
RMM:   6    -0.232161999742E+04    0.12872E-03   -0.75165E-04  3842   0.129E-02    0.110E-01
RMM:   7    -0.232161986456E+04    0.13286E-03   -0.17716E-04  3153   0.769E-03    0.285E-02
RMM:   8    -0.232161984786E+04    0.16703E-04   -0.49320E-05  3083   0.472E-03    0.141E-02
RMM:   9    -0.232161984151E+04    0.63484E-05   -0.14757E-05  2931   0.375E-03
  19 F= -.23425263E+04 E0= -.23425263E+04  d E =-.649384E-18  mag=     6.0000
       N       E                     dE             d eps       ncg     rms          rms(c)
DAV:   1    -0.232166918263E+04   -0.49335E-01   -0.53399E+00  4480   0.839E-01    0.541E-01
RMM:   2    -0.232166999972E+04   -0.81709E-03   -0.67470E-02  4347   0.825E-02    0.417E-01
RMM:   3    -0.232166984209E+04    0.15763E-03   -0.78036E-03  5006   0.405E-02    0.538E-01
RMM:   4    -0.232166739492E+04    0.24472E-02   -0.31582E-03  4290   0.234E-02    0.131E-01
RMM:   5    -0.232166720570E+04    0.18921E-03   -0.78123E-04  3791   0.120E-02    0.593E-02
RMM:   6    -0.232166722633E+04   -0.20628E-04   -0.22808E-04  3276   0.871E-03    0.753E-02
RMM:   7    -0.232166716783E+04    0.58500E-04   -0.67440E-05  2986   0.522E-03    0.190E-02
RMM:   8    -0.232166716159E+04    0.62352E-05   -0.18102E-05  2904   0.286E-03
  20 F= -.23425738E+04 E0= -.23425738E+04  d E =-.967189E-18  mag=     6.0000
       N       E                     dE             d eps       ncg     rms          rms(c)
DAV:   1    -0.232171742259E+04   -0.50255E-01   -0.11188E+00  4480   0.413E-01    0.318E-01
RMM:   2    -0.232171731534E+04    0.10725E-03   -0.64921E-03  4187   0.334E-02    0.199E-01
RMM:   3    -0.232171758563E+04   -0.27028E-03   -0.13943E-03  4036   0.191E-02    0.270E-01
RMM:   4    -0.232171702767E+04    0.55796E-03   -0.65635E-04  3674   0.115E-02    0.961E-02
RMM:   5    -0.232171699512E+04    0.32545E-04   -0.23314E-04  3498   0.736E-03    0.495E-02
RMM:   6    -0.232171698773E+04    0.73934E-05   -0.64480E-05  2928   0.506E-03
  21 F= -.23426246E+04 E0= -.23426246E+04  d E =-.401839E-19  mag=     6.0000
       N       E                     dE             d eps       ncg     rms          rms(c)
DAV:   1    -0.232167340546E+04    0.43590E-01   -0.55538E-01  4480   0.292E-01    0.217E-01
RMM:   2    -0.232167350000E+04   -0.94542E-04   -0.32272E-03  4058   0.238E-02    0.202E-01
RMM:   3    -0.232167337918E+04    0.12082E-03   -0.97547E-04  4063   0.137E-02    0.173E-01
RMM:   4    -0.232167312973E+04    0.24945E-03   -0.32591E-04  3383   0.891E-03    0.594E-02
RMM:   5    -0.232167315956E+04   -0.29835E-04   -0.16366E-04  3196   0.602E-03    0.754E-02
RMM:   6    -0.232167311019E+04    0.49375E-04   -0.54408E-05  2779   0.426E-03    0.170E-02
RMM:   7    -0.232167310835E+04    0.18413E-05   -0.62939E-06  2545   0.199E-03
  22 F= -.23425801E+04 E0= -.23425801E+04  d E =-.165955E-17  mag=     6.0000
       N       E                     dE             d eps       ncg     rms          rms(c)
DAV:   1    -0.232171150036E+04   -0.38390E-01   -0.11292E+00  4480   0.411E-01    0.331E-01
RMM:   2    -0.232171242668E+04   -0.92632E-03   -0.63920E-03  4401   0.329E-02    0.346E-01
RMM:   3    -0.232171177781E+04    0.64888E-03   -0.22854E-03  4642   0.198E-02    0.228E-01
RMM:   4    -0.232171126119E+04    0.51662E-03   -0.56826E-04  3925   0.115E-02    0.735E-02
RMM:   5    -0.232171124725E+04    0.13936E-04   -0.25185E-04  3443   0.758E-03    0.506E-02
RMM:   6    -0.232171123048E+04    0.16772E-04   -0.41795E-05  2902   0.447E-03    0.218E-02
RMM:   7    -0.232171122692E+04    0.35561E-05   -0.74542E-06  2657   0.219E-03
  23 F= -.23426185E+04 E0= -.23426185E+04  d E =-.557742E-17  mag=     6.0000
       N       E                     dE             d eps       ncg     rms          rms(c)
DAV:   1    -0.232171125477E+04   -0.24292E-04   -0.57860E-01  4480   0.298E-01    0.261E-01
RMM:   2    -0.232171266078E+04   -0.14060E-02   -0.60179E-03  4651   0.325E-02    0.420E-01
RMM:   3    -0.232171099522E+04    0.16656E-02   -0.16771E-03  4372   0.179E-02    0.120E-01
RMM:   4    -0.232171086671E+04    0.12851E-03   -0.39477E-04  3667   0.904E-03    0.423E-02
RMM:   5    -0.232171087146E+04   -0.47451E-05   -0.62971E-05  3027   0.602E-03
  24 F= -.23426180E+04 E0= -.23426180E+04  d E =-.169695E-17  mag=     6.0000
       N       E                     dE             d eps       ncg     rms          rms(c)
DAV:   1    -0.232166722244E+04    0.43644E-01   -0.11491E+00  4480   0.431E-01    0.352E-01
RMM:   2    -0.232166953413E+04   -0.23117E-02   -0.11544E-02  4724   0.447E-02    0.529E-01
RMM:   3    -0.232166697928E+04    0.25549E-02   -0.30849E-03  4906   0.236E-02    0.176E-01
RMM:   4    -0.232166673994E+04    0.23934E-03   -0.74556E-04  3935   0.122E-02    0.951E-02
RMM:   5    -0.232166682446E+04   -0.84526E-04   -0.37694E-04  3281   0.978E-03    0.131E-01
RMM:   6    -0.232166668579E+04    0.13868E-03   -0.10664E-04  3021   0.597E-03    0.201E-02
RMM:   7    -0.232166668275E+04    0.30375E-05   -0.21375E-05  2851   0.300E-03
  25 F= -.23425738E+04 E0= -.23425738E+04  d E =-.707524E-17  mag=     6.0000
       N       E                     dE             d eps       ncg     rms          rms(c)
DAV:   1    -0.232167574881E+04   -0.90630E-02   -0.58774E-01  4560   0.274E-01    0.274E-01
RMM:   2    -0.232167584330E+04   -0.94490E-04   -0.52014E-03  4094   0.281E-02    0.259E-01
RMM:   3    -0.232167554649E+04    0.29681E-03   -0.14998E-03  4538   0.155E-02    0.204E-01
RMM:   4    -0.232167514582E+04    0.40067E-03   -0.60515E-04  3732   0.106E-02    0.415E-02
RMM:   5    -0.232167514704E+04   -0.12221E-05   -0.68791E-05  2993   0.577E-03
  26 F= -.23425825E+04 E0= -.23425825E+04  d E =-.228790E-17  mag=     6.0000
       N       E                     dE             d eps       ncg     rms          rms(c)
DAV:   1    -0.232170435297E+04   -0.29207E-01   -0.12065E+00  4720   0.269E-01    0.433E-01
RMM:   2    -0.232170238709E+04    0.19659E-02   -0.69719E-03  3721   0.240E-02    0.264E-01
RMM:   3    -0.232170402122E+04   -0.16341E-02   -0.40858E-03  4917   0.219E-02    0.510E-01
RMM:   4    -0.232170178129E+04    0.22399E-02   -0.17073E-03  4136   0.177E-02    0.533E-02
RMM:   5    -0.232170175036E+04    0.30935E-04   -0.23140E-04  3137   0.583E-03    0.337E-02
RMM:   6    -0.232170175261E+04   -0.22574E-05   -0.60642E-05  2774   0.417E-03
  27 F= -.23426087E+04 E0= -.23426087E+04  d E =-.378022E-17  mag=     6.0000
       N       E                     dE             d eps       ncg     rms          rms(c)
DAV:   1    -0.232170371974E+04   -0.19694E-02   -0.59063E-01  4480   0.185E-01    0.269E-01
RMM:   2    -0.232170322694E+04    0.49280E-03   -0.17899E-03  3287   0.127E-02    0.153E-01
RMM:   3    -0.232170311183E+04    0.11511E-03   -0.70515E-04  3335   0.829E-03    0.857E-02
RMM:   4    -0.232170305929E+04    0.52537E-04   -0.15821E-04  2883   0.695E-03    0.426E-02
RMM:   5    -0.232170304115E+04    0.18137E-04   -0.19364E-05  2517   0.284E-03    0.125E-02
RMM:   6    -0.232170304238E+04   -0.12244E-05   -0.77926E-06  2171   0.173E-03
  28 F= -.23426098E+04 E0= -.23426098E+04  d E =-.588019E-17  mag=     6.0000
       N       E                     dE             d eps       ncg     rms          rms(c)
DAV:   1    -0.232167639620E+04    0.26645E-01   -0.12017E+00  4800   0.260E-01    0.424E-01
RMM:   2    -0.232167461495E+04    0.17812E-02   -0.67260E-03  3571   0.212E-02    0.231E-01
RMM:   3    -0.232167436155E+04    0.25340E-03   -0.22190E-03  3896   0.140E-02    0.148E-01
RMM:   4    -0.232167422643E+04    0.13512E-03   -0.44157E-04  3402   0.101E-02    0.956E-02
RMM:   5    -0.232167413651E+04    0.89920E-04   -0.12739E-04  2945   0.514E-03    0.172E-02
RMM:   6    -0.232167414003E+04   -0.35175E-05   -0.22677E-05  2692   0.321E-03
  29 F= -.23425816E+04 E0= -.23425816E+04  d E =-.151131E-17  mag=     6.0000
       N       E                     dE             d eps       ncg     rms          rms(c)
DAV:   1    -0.232170562088E+04   -0.31484E-01   -0.62142E-01  4960   0.190E-01    0.361E-01
RMM:   2    -0.232170397233E+04    0.16486E-02   -0.60003E-03  3491   0.195E-02    0.191E-01
RMM:   3    -0.232170358872E+04    0.38360E-03   -0.16694E-03  3543   0.110E-02    0.595E-02
RMM:   4    -0.232170360739E+04   -0.18671E-04   -0.24971E-04  3125   0.783E-03    0.974E-02
RMM:   5    -0.232170352405E+04    0.83344E-04   -0.96946E-05  2762   0.479E-03    0.258E-02
RMM:   6    -0.232170351725E+04    0.67995E-05   -0.21537E-05  2647   0.252E-03
  30 F= -.23426106E+04 E0= -.23426106E+04  d E =-.508036E-17  mag=     6.0000
       N       E                     dE             d eps       ncg     rms          rms(c)
DAV:   1    -0.232167257284E+04    0.30951E-01   -0.12478E+00  4880   0.259E-01    0.435E-01
RMM:   2    -0.232167079531E+04    0.17775E-02   -0.10619E-02  3636   0.252E-02    0.234E-01
RMM:   3    -0.232167030399E+04    0.49131E-03   -0.22451E-03  3917   0.137E-02    0.997E-02
RMM:   4    -0.232167036412E+04   -0.60128E-04   -0.55356E-04  3538   0.110E-02    0.124E-01
RMM:   5    -0.232167020344E+04    0.16068E-03   -0.18445E-04  3125   0.682E-03    0.282E-02
RMM:   6    -0.232167019718E+04    0.62604E-05   -0.37069E-05  2790   0.303E-03
  31 F= -.23425774E+04 E0= -.23425774E+04  d E =-.191559E-17  mag=     6.0000
