       N       E                     dE             d eps       ncg     rms          rms(c)
DAV:   1     0.129409955072E+05    0.12941E+05   -0.84371E+05  4560   0.143E+03
DAV:   2    -0.110003937102E+04   -0.14041E+05   -0.13450E+05  5200   0.328E+02
DAV:   3    -0.249657922050E+04   -0.13965E+04   -0.13826E+04  5480   0.110E+02
DAV:   4    -0.253772918012E+04   -0.41150E+02   -0.40965E+02  6600   0.275E+01
DAV:   5    -0.253853467109E+04   -0.80549E+00   -0.80417E+00  5660   0.298E+00    0.171E+02
RMM:   6    -0.149329587886E+04    0.10452E+04   -0.19525E+03  4508   0.383E+01    0.749E+01
RMM:   7    -0.169905633734E+04   -0.20576E+03   -0.33391E+02  5283   0.153E+01    0.637E+01
RMM:   8    -0.169937844248E+04   -0.32211E+00   -0.93642E+01  5343   0.935E+00    0.437E+01
RMM:   9    -0.178780984437E+04   -0.88431E+02   -0.49261E+01  5144   0.719E+00    0.342E+01
RMM:  10    -0.191529352007E+04   -0.12748E+03   -0.56173E+01  5502   0.720E+00    0.257E+01
RMM:  11    -0.198728117665E+04   -0.71988E+02   -0.28510E+01  5381   0.472E+00    0.237E+01
RMM:  12    -0.206788513462E+04   -0.80604E+02   -0.31673E+01  5123   0.461E+00    0.157E+01
RMM:  13    -0.215687041456E+04   -0.88985E+02   -0.47449E+01  5021   0.516E+00    0.115E+01
RMM:  14    -0.225864502272E+04   -0.10177E+03   -0.78412E+01  4594   0.638E+00    0.778E+00
RMM:  15    -0.230694258647E+04   -0.48298E+02   -0.40865E+01  4511   0.470E+00    0.556E+00
RMM:  16    -0.232383303811E+04   -0.16890E+02   -0.17013E+01  4782   0.309E+00    0.320E+00
RMM:  17    -0.232652971941E+04   -0.26967E+01   -0.28991E+00  5143   0.147E+00    0.465E+00
RMM:  18    -0.232652356832E+04    0.61511E-02   -0.32134E-01  5995   0.370E-01    0.515E+00
RMM:  19    -0.232728817060E+04   -0.76460E+00   -0.15024E-01  4597   0.294E-01    0.443E+00
RMM:  20    -0.232908795926E+04   -0.17998E+01   -0.70081E-01  4583   0.538E-01    0.235E+00
RMM:  21    -0.232957117408E+04   -0.48321E+00   -0.34940E-01  4915   0.464E-01    0.112E+00
RMM:  22    -0.232966436743E+04   -0.93193E-01   -0.12351E-01  5298   0.289E-01    0.502E-01
RMM:  23    -0.232970194371E+04   -0.37576E-01   -0.30201E-02  4684   0.138E-01    0.387E-01
RMM:  24    -0.232971342711E+04   -0.11483E-01   -0.67196E-03  4982   0.727E-02    0.245E-01
RMM:  25    -0.232973951749E+04   -0.26090E-01   -0.64266E-03  4511   0.589E-02    0.178E-01
RMM:  26    -0.232974971059E+04   -0.10193E-01   -0.21298E-03  4568   0.424E-02    0.150E-01
RMM:  27    -0.232976038291E+04   -0.10672E-01   -0.20133E-03  4538   0.330E-02    0.819E-02
RMM:  28    -0.232977454144E+04   -0.14159E-01   -0.27155E-03  4490   0.390E-02    0.738E-02
RMM:  29    -0.232978312027E+04   -0.85788E-02   -0.20874E-03  4568   0.331E-02    0.376E-02
RMM:  30    -0.232978703794E+04   -0.39177E-02   -0.10778E-03  4378   0.252E-02    0.179E-02
RMM:  31    -0.232978849796E+04   -0.14600E-02   -0.41269E-04  4180   0.158E-02    0.113E-02
RMM:  32    -0.232978888465E+04   -0.38669E-03   -0.10287E-04  3870   0.895E-03    0.563E-03
RMM:  33    -0.232978907688E+04   -0.19223E-03   -0.43495E-05  3518   0.594E-03    0.365E-03
RMM:  34    -0.232978912193E+04   -0.45054E-04   -0.12766E-05  2969   0.442E-03    0.194E-03
RMM:  35    -0.232978914647E+04   -0.24538E-04   -0.81545E-06  2891   0.303E-03    0.135E-03
RMM:  36    -0.232978915164E+04   -0.51665E-05   -0.35649E-06  2534   0.244E-03
   1 F= -.23508606E+04 E0= -.23508605E+04  d E =-.944896E-04  mag=     4.0001
       N       E                     dE             d eps       ncg     rms          rms(c)
DAV:   1    -0.232976200164E+04    0.27145E-01   -0.19872E+00  4680   0.638E-01    0.364E-01
RMM:   2    -0.232976457886E+04   -0.25772E-02   -0.35984E-02  5271   0.916E-02    0.326E-01
RMM:   3    -0.232976424377E+04    0.33509E-03   -0.42448E-03  5120   0.369E-02    0.325E-01
RMM:   4    -0.232976346157E+04    0.78220E-03   -0.18763E-03  4877   0.219E-02    0.172E-01
RMM:   5    -0.232976354986E+04   -0.88290E-04   -0.88650E-04  4384   0.169E-02    0.217E-01
RMM:   6    -0.232976312445E+04    0.42541E-03   -0.39189E-04  3790   0.110E-02    0.487E-02
RMM:   7    -0.232976310352E+04    0.20923E-04   -0.51009E-05  3106   0.442E-03    0.246E-02
RMM:   8    -0.232976309931E+04    0.42161E-05   -0.12817E-05  2861   0.281E-03
   2 F= -.23508341E+04 E0= -.23508340E+04  d E =-.866408E-04  mag=     4.0000
       N       E                     dE             d eps       ncg     rms          rms(c)
DAV:   1    -0.232976842061E+04   -0.53171E-02   -0.78108E+00  4560   0.123E+00    0.709E-01
RMM:   2    -0.232977945544E+04   -0.11035E-01   -0.14833E-01  5533   0.186E-01    0.634E-01
RMM:   3    -0.232977800859E+04    0.14468E-02   -0.15605E-02  5420   0.753E-02    0.616E-01
RMM:   4    -0.232977527497E+04    0.27336E-02   -0.71339E-03  5311   0.415E-02    0.321E-01
RMM:   5    -0.232977583209E+04   -0.55712E-03   -0.32779E-03  5243   0.322E-02    0.443E-01
RMM:   6    -0.232977408872E+04    0.17434E-02   -0.16777E-03  4947   0.218E-02    0.108E-01
RMM:   7    -0.232977399399E+04    0.94733E-04   -0.20940E-04  3689   0.739E-03    0.470E-02
RMM:   8    -0.232977398280E+04    0.11193E-04   -0.42594E-05  3076   0.454E-03    0.230E-02
RMM:   9    -0.232977399695E+04   -0.14152E-04   -0.17327E-05  2967   0.338E-03    0.243E-02
RMM:  10    -0.232977399668E+04    0.27288E-06   -0.61127E-06  2810   0.261E-03
   3 F= -.23508459E+04 E0= -.23508458E+04  d E =-.111885E-03  mag=     4.0000
       N       E                     dE             d eps       ncg     rms          rms(c)
DAV:   1    -0.232978823308E+04   -0.14236E-01   -0.36852E+00  4560   0.925E-01    0.464E-01
RMM:   2    -0.232979178317E+04   -0.35501E-02   -0.44525E-02  5006   0.105E-01    0.373E-01
RMM:   3    -0.232979205658E+04   -0.27342E-03   -0.66263E-03  4871   0.509E-02    0.408E-01
RMM:   4    -0.232979058075E+04    0.14758E-02   -0.24677E-03  4931   0.253E-02    0.126E-01
RMM:   5    -0.232979086209E+04   -0.28133E-03   -0.72897E-04  4110   0.163E-02    0.222E-01
RMM:   6    -0.232979043399E+04    0.42809E-03   -0.34476E-04  3710   0.102E-02    0.448E-02
RMM:   7    -0.232979041430E+04    0.19693E-04   -0.40858E-05  2997   0.391E-03    0.181E-02
RMM:   8    -0.232979041721E+04   -0.29091E-05   -0.11483E-05  2878   0.266E-03
   4 F= -.23508618E+04 E0= -.23508617E+04  d E =-.851882E-04  mag=     4.0000
       N       E                     dE             d eps       ncg     rms          rms(c)
DAV:   1    -0.232977459648E+04    0.15818E-01   -0.70746E+00  4520   0.125E+00    0.594E-01
RMM:   2    -0.232977782686E+04   -0.32304E-02   -0.45902E-02  4568   0.112E-01    0.392E-01
RMM:   3    -0.232978021432E+04   -0.23875E-02   -0.81759E-03  5062   0.548E-02    0.589E-01
RMM:   4    -0.232977779583E+04    0.24185E-02   -0.37546E-03  5079   0.321E-02    0.263E-01
RMM:   5    -0.232977759536E+04    0.20047E-03   -0.11414E-03  4528   0.183E-02    0.202E-01
RMM:   6    -0.232977722736E+04    0.36800E-03   -0.31454E-04  3601   0.102E-02    0.333E-02
RMM:   7    -0.232977722413E+04    0.32334E-05   -0.47247E-05  3004   0.420E-03
   5 F= -.23508487E+04 E0= -.23508486E+04  d E =-.105045E-03  mag=     4.0000
       N       E                     dE             d eps       ncg     rms          rms(c)
DAV:   1    -0.232976467802E+04    0.12549E-01   -0.38945E+00  4540   0.920E-01    0.491E-01
RMM:   2    -0.232976853235E+04   -0.38543E-02   -0.55369E-02  5006   0.118E-01    0.480E-01
RMM:   3    -0.232976754519E+04    0.98717E-03   -0.71226E-03  4820   0.551E-02    0.396E-01
RMM:   4    -0.232976686554E+04    0.67965E-03   -0.40355E-03  4902   0.301E-02    0.332E-01
RMM:   5    -0.232976613521E+04    0.73033E-03   -0.17442E-03  4818   0.244E-02    0.201E-01
RMM:   6    -0.232976572919E+04    0.40603E-03   -0.32545E-04  3816   0.103E-02    0.340E-02
RMM:   7    -0.232976572474E+04    0.44504E-05   -0.39921E-05  3036   0.488E-03
   6 F= -.23508358E+04 E0= -.23508357E+04  d E =-.117824E-03  mag=     4.0000
       N       E                     dE             d eps       ncg     rms          rms(c)
DAV:   1    -0.232975880701E+04    0.69222E-02   -0.81752E+00  4500   0.133E+00    0.761E-01
RMM:   2    -0.232976609163E+04   -0.72846E-02   -0.12606E-01  5094   0.175E-01    0.713E-01
RMM:   3    -0.232976439480E+04    0.16968E-02   -0.18114E-02  5089   0.816E-02    0.635E-01
RMM:   4    -0.232976187513E+04    0.25197E-02   -0.97472E-03  5274   0.477E-02    0.499E-01
RMM:   5    -0.232975993061E+04    0.19445E-02   -0.35840E-03  5122   0.356E-02    0.253E-01
RMM:   6    -0.232975933909E+04    0.59152E-03   -0.52198E-04  4321   0.133E-02    0.523E-02
RMM:   7    -0.232975931667E+04    0.22419E-04   -0.73925E-05  3129   0.603E-03    0.300E-02
RMM:   8    -0.232975931038E+04    0.62872E-05   -0.32519E-05  3092   0.414E-03
   7 F= -.23508322E+04 E0= -.23508322E+04  d E =-.761055E-04  mag=     4.0000
       N       E                     dE             d eps       ncg     rms          rms(c)
DAV:   1    -0.232976440418E+04   -0.50875E-02   -0.64879E+00  4560   0.125E+00    0.580E-01
RMM:   2    -0.232977219003E+04   -0.77858E-02   -0.11006E-01  4936   0.159E-01    0.427E-01
RMM:   3    -0.232977286050E+04   -0.67047E-03   -0.11421E-02  5005   0.742E-02    0.612E-01
RMM:   4    -0.232976970673E+04    0.31538E-02   -0.43340E-03  5272   0.339E-02    0.250E-01
RMM:   5    -0.232976981743E+04   -0.11069E-03   -0.18789E-03  5119   0.229E-02    0.263E-01
RMM:   6    -0.232976923982E+04    0.57761E-03   -0.68230E-04  4456   0.146E-02    0.817E-02
RMM:   7    -0.232976922097E+04    0.18849E-04   -0.95830E-05  3191   0.569E-03    0.648E-02
RMM:   8    -0.232976918380E+04    0.37172E-04   -0.59388E-05  3027   0.463E-03    0.259E-02
RMM:   9    -0.232976919791E+04   -0.14107E-04   -0.20452E-05  2941   0.352E-03    0.234E-02
RMM:  10    -0.232976919626E+04    0.16430E-05   -0.84291E-06  2679   0.241E-03
   8 F= -.23508412E+04 E0= -.23508411E+04  d E =-.212327E-03  mag=     4.0000
       N       E                     dE             d eps       ncg     rms          rms(c)
DAV:   1    -0.232976220188E+04    0.69960E-02   -0.20054E+01  4480   0.223E+00    0.874E-01
RMM:   2    -0.232977813768E+04   -0.15936E-01   -0.25299E-01  4612   0.248E-01    0.529E-01
RMM:   3    -0.232977891942E+04   -0.78173E-03   -0.29043E-02  5184   0.110E-01    0.754E-01
RMM:   4    -0.232977497956E+04    0.39399E-02   -0.91783E-03  5585   0.488E-02    0.390E-01
RMM:   5    -0.232977428795E+04    0.69161E-03   -0.28957E-03  5237   0.283E-02    0.286E-01
RMM:   6    -0.232977379062E+04    0.49733E-03   -0.11640E-03  4643   0.185E-02    0.147E-01
RMM:   7    -0.232977362698E+04    0.16364E-03   -0.19716E-04  3455   0.793E-03    0.901E-02
RMM:   8    -0.232977356418E+04    0.62802E-04   -0.15988E-04  3404   0.750E-03    0.443E-02
RMM:   9    -0.232977358034E+04   -0.16166E-04   -0.46091E-05  3097   0.507E-03    0.268E-02
RMM:  10    -0.232977357369E+04    0.66523E-05   -0.14792E-05  2888   0.336E-03
   9 F= -.23508444E+04 E0= -.23508443E+04  d E =-.387206E-04  mag=     4.0000
       N       E                     dE             d eps       ncg     rms          rms(c)
DAV:   1    -0.232978150037E+04   -0.79200E-02   -0.99176E+00  4540   0.150E+00    0.515E-01
RMM:   2    -0.232979012275E+04   -0.86224E-02   -0.11883E-01  4326   0.164E-01    0.296E-01
RMM:   3    -0.232978891283E+04    0.12099E-02   -0.98808E-03  4154   0.769E-02    0.248E-01
RMM:   4    -0.232978904074E+04   -0.12791E-03   -0.31142E-03  5007   0.280E-02    0.275E-01
RMM:   5    -0.232978856273E+04    0.47801E-03   -0.10097E-03  4779   0.184E-02    0.155E-01
RMM:   6    -0.232978845641E+04    0.10631E-03   -0.32718E-04  3589   0.953E-03    0.960E-02
RMM:   7    -0.232978838766E+04    0.68759E-04   -0.74133E-05  3043   0.575E-03    0.542E-02
RMM:   8    -0.232978836842E+04    0.19231E-04   -0.54716E-05  3031   0.435E-03    0.332E-02
RMM:   9    -0.232978837564E+04   -0.72140E-05   -0.21057E-05  2836   0.348E-03
  10 F= -.23508597E+04 E0= -.23508596E+04  d E =-.122202E-03  mag=     4.0000
       N       E                     dE             d eps       ncg     rms          rms(c)
DAV:   1    -0.232977695026E+04    0.11418E-01   -0.20053E+01  4500   0.214E+00    0.579E-01
RMM:   2    -0.232978991594E+04   -0.12966E-01   -0.14022E-01  4334   0.201E-01    0.451E-01
RMM:   3    -0.232978928395E+04    0.63200E-03   -0.13979E-02  4328   0.796E-02    0.396E-01
RMM:   4    -0.232978984981E+04   -0.56587E-03   -0.51308E-03  5368   0.360E-02    0.480E-01
RMM:   5    -0.232978857744E+04    0.12724E-02   -0.15332E-03  4827   0.230E-02    0.188E-01
RMM:   6    -0.232978853944E+04    0.38004E-04   -0.45051E-04  3841   0.120E-02    0.135E-01
RMM:   7    -0.232978843993E+04    0.99507E-04   -0.28782E-04  3678   0.948E-03    0.902E-02
RMM:   8    -0.232978836721E+04    0.72726E-04   -0.16036E-04  3320   0.760E-03    0.321E-02
RMM:   9    -0.232978836830E+04   -0.10928E-05   -0.29189E-05  2964   0.435E-03
  11 F= -.23508599E+04 E0= -.23508598E+04  d E =-.696198E-04  mag=     4.0000
       N       E                     dE             d eps       ncg     rms          rms(c)
DAV:   1    -0.232979904648E+04   -0.10679E-01   -0.10094E+01  4480   0.153E+00    0.425E-01
RMM:   2    -0.232980541290E+04   -0.63664E-02   -0.78361E-02  4362   0.159E-01    0.404E-01
RMM:   3    -0.232980496383E+04    0.44906E-03   -0.82613E-03  4829   0.661E-02    0.399E-01
RMM:   4    -0.232980383839E+04    0.11254E-02   -0.23632E-03  5040   0.249E-02    0.191E-01
RMM:   5    -0.232980387826E+04   -0.39864E-04   -0.12319E-03  4768   0.174E-02    0.214E-01
RMM:   6    -0.232980357172E+04    0.30654E-03   -0.55162E-04  4077   0.127E-02    0.969E-02
RMM:   7    -0.232980352544E+04    0.46282E-04   -0.96626E-05  3125   0.600E-03    0.597E-02
RMM:   8    -0.232980349111E+04    0.34322E-04   -0.61655E-05  3062   0.444E-03    0.263E-02
RMM:   9    -0.232980349505E+04   -0.39322E-05   -0.26285E-05  2939   0.356E-03
  12 F= -.23508754E+04 E0= -.23508754E+04  d E =-.630084E-04  mag=     4.0000
       N       E                     dE             d eps       ncg     rms          rms(c)
DAV:   1    -0.232975450584E+04    0.48985E-01   -0.19956E+01  4480   0.226E+00    0.637E-01
RMM:   2    -0.232976721558E+04   -0.12710E-01   -0.16894E-01  4778   0.223E-01    0.702E-01
RMM:   3    -0.232976599300E+04    0.12226E-02   -0.20858E-02  5257   0.927E-02    0.683E-01
RMM:   4    -0.232976240028E+04    0.35927E-02   -0.62164E-03  5172   0.382E-02    0.235E-01
RMM:   5    -0.232976230494E+04    0.95336E-04   -0.23019E-03  5119   0.235E-02    0.258E-01
RMM:   6    -0.232976171178E+04    0.59316E-03   -0.10519E-03  4624   0.171E-02    0.829E-02
RMM:   7    -0.232976165110E+04    0.60684E-04   -0.12263E-04  3309   0.622E-03    0.316E-02
RMM:   8    -0.232976165263E+04   -0.15286E-05   -0.26026E-05  3006   0.382E-03
  13 F= -.23508326E+04 E0= -.23508325E+04  d E =-.143491E-03  mag=     4.0000
       N       E                     dE             d eps       ncg     rms          rms(c)
DAV:   1    -0.232978648199E+04   -0.24831E-01   -0.10139E+01  4480   0.147E+00    0.435E-01
RMM:   2    -0.232979602426E+04   -0.95423E-02   -0.10139E-01  4941   0.155E-01    0.426E-01
RMM:   3    -0.232979478081E+04    0.12434E-02   -0.10120E-02  4945   0.616E-02    0.369E-01
RMM:   4    -0.232979395837E+04    0.82244E-03   -0.24460E-03  4722   0.244E-02    0.225E-01
RMM:   5    -0.232979376283E+04    0.19554E-03   -0.10374E-03  4617   0.177E-02    0.189E-01
RMM:   6    -0.232979349297E+04    0.26986E-03   -0.40504E-04  3726   0.111E-02    0.317E-02
RMM:   7    -0.232979349203E+04    0.93959E-06   -0.36602E-05  2958   0.492E-03
  14 F= -.23508644E+04 E0= -.23508643E+04  d E =-.108841E-03  mag=     4.0000
       N       E                     dE             d eps       ncg     rms          rms(c)
DAV:   1    -0.232976511266E+04    0.28380E-01   -0.20373E+01  4480   0.187E+00    0.759E-01
RMM:   2    -0.232978045995E+04   -0.15347E-01   -0.22644E-01  4977   0.214E-01    0.596E-01
RMM:   3    -0.232977671148E+04    0.37485E-02   -0.21720E-02  4721   0.983E-02    0.517E-01
RMM:   4    -0.232977437297E+04    0.23385E-02   -0.49272E-03  5256   0.345E-02    0.262E-01
RMM:   5    -0.232977479416E+04   -0.42119E-03   -0.28667E-03  4997   0.245E-02    0.357E-01
RMM:   6    -0.232977368881E+04    0.11054E-02   -0.12499E-03  4792   0.192E-02    0.908E-02
RMM:   7    -0.232977363254E+04    0.56271E-04   -0.22840E-04  3521   0.736E-03    0.383E-02
RMM:   8    -0.232977362041E+04    0.12128E-04   -0.29663E-05  2958   0.422E-03    0.198E-02
RMM:   9    -0.232977362564E+04   -0.52357E-05   -0.10533E-05  2843   0.252E-03
  15 F= -.23508455E+04 E0= -.23508455E+04  d E =-.811303E-04  mag=     4.0000
       N       E                     dE             d eps       ncg     rms          rms(c)
DAV:   1    -0.232978784435E+04   -0.14224E-01   -0.10033E+01  4540   0.139E+00    0.494E-01
RMM:   2    -0.232979214547E+04   -0.43011E-02   -0.77365E-02  4685   0.136E-01    0.339E-01
RMM:   3    -0.232979174910E+04    0.39636E-03   -0.82687E-03  4495   0.634E-02    0.374E-01
RMM:   4    -0.232979057108E+04    0.11780E-02   -0.26025E-03  5040   0.252E-02    0.195E-01
RMM:   5    -0.232979073587E+04   -0.16479E-03   -0.13870E-03  4565   0.180E-02    0.243E-01
RMM:   6    -0.232979022474E+04    0.51114E-03   -0.44906E-04  3798   0.123E-02    0.431E-02
RMM:   7    -0.232979021728E+04    0.74577E-05   -0.57664E-05  3106   0.443E-03
  16 F= -.23508615E+04 E0= -.23508614E+04  d E =-.934874E-04  mag=     4.0000
       N       E                     dE             d eps       ncg     rms          rms(c)
DAV:   1    -0.232977688770E+04    0.13337E-01   -0.19566E+01  4500   0.189E+00    0.579E-01
RMM:   2    -0.232978820397E+04   -0.11316E-01   -0.15768E-01  4246   0.174E-01    0.339E-01
RMM:   3    -0.232978689228E+04    0.13117E-02   -0.12475E-02  4032   0.843E-02    0.259E-01
RMM:   4    -0.232978698733E+04   -0.95047E-04   -0.42401E-03  5027   0.315E-02    0.270E-01
RMM:   5    -0.232978637578E+04    0.61155E-03   -0.97720E-04  4554   0.181E-02    0.107E-01
RMM:   6    -0.232978634548E+04    0.30297E-04   -0.23226E-04  3394   0.832E-03    0.894E-02
RMM:   7    -0.232978627921E+04    0.66270E-04   -0.51147E-05  2909   0.514E-03    0.224E-02
RMM:   8    -0.232978628802E+04   -0.88023E-05   -0.15632E-05  2862   0.277E-03
  17 F= -.23508579E+04 E0= -.23508578E+04  d E =-.961187E-04  mag=     4.0000
       N       E                     dE             d eps       ncg     rms          rms(c)
DAV:   1    -0.232972702729E+04    0.59252E-01   -0.10075E+01  4500   0.142E+00    0.585E-01
RMM:   2    -0.232973222109E+04   -0.51938E-02   -0.10450E-01  4255   0.152E-01    0.325E-01
RMM:   3    -0.232973151627E+04    0.70482E-03   -0.10492E-02  4511   0.747E-02    0.380E-01
RMM:   4    -0.232973089476E+04    0.62151E-03   -0.37727E-03  5141   0.312E-02    0.291E-01
RMM:   5    -0.232973020733E+04    0.68743E-03   -0.12227E-03  4563   0.205E-02    0.124E-01
RMM:   6    -0.232973011525E+04    0.92083E-04   -0.33145E-04  3730   0.104E-02    0.796E-02
RMM:   7    -0.232973004601E+04    0.69240E-04   -0.68881E-05  3219   0.602E-03    0.285E-02
RMM:   8    -0.232973003693E+04    0.90795E-05   -0.22164E-05  2995   0.365E-03
  18 F= -.23508011E+04 E0= -.23508011E+04  d E =-.945688E-04  mag=     4.0000
       N       E                     dE             d eps       ncg     rms          rms(c)
DAV:   1    -0.232977681887E+04   -0.46773E-01   -0.19817E+01  4480   0.197E+00    0.909E-01
RMM:   2    -0.232980203452E+04   -0.25216E-01   -0.36172E-01  4470   0.259E-01    0.537E-01
RMM:   3    -0.232980053585E+04    0.14987E-02   -0.33583E-02  4717   0.137E-01    0.595E-01
RMM:   4    -0.232979836113E+04    0.21747E-02   -0.93001E-03  5487   0.481E-02    0.425E-01
RMM:   5    -0.232979756275E+04    0.79838E-03   -0.43984E-03  5293   0.348E-02    0.362E-01
RMM:   6    -0.232979644003E+04    0.11227E-02   -0.14933E-03  4959   0.214E-02    0.125E-01
RMM:   7    -0.232979623730E+04    0.20273E-03   -0.19717E-04  3758   0.837E-03    0.392E-02
RMM:   8    -0.232979622940E+04    0.78963E-05   -0.63697E-05  3206   0.546E-03
  19 F= -.23508680E+04 E0= -.23508680E+04  d E =-.945654E-04  mag=     4.0000
       N       E                     dE             d eps       ncg     rms          rms(c)
DAV:   1    -0.232977118098E+04    0.25056E-01   -0.10035E+01  4480   0.152E+00    0.601E-01
RMM:   2    -0.232978438587E+04   -0.13205E-01   -0.18412E-01  4470   0.198E-01    0.422E-01
RMM:   3    -0.232978418843E+04    0.19744E-03   -0.16294E-02  4420   0.919E-02    0.577E-01
RMM:   4    -0.232978135626E+04    0.28322E-02   -0.40347E-03  5247   0.314E-02    0.224E-01
RMM:   5    -0.232978075491E+04    0.60135E-03   -0.23114E-03  4626   0.214E-02    0.121E-01
RMM:   6    -0.232978072044E+04    0.34474E-04   -0.67128E-04  4068   0.154E-02    0.112E-01
RMM:   7    -0.232978058169E+04    0.13875E-03   -0.99394E-05  3200   0.654E-03    0.243E-02
RMM:   8    -0.232978057713E+04    0.45614E-05   -0.27860E-05  3010   0.394E-03
  20 F= -.23508520E+04 E0= -.23508519E+04  d E =-.879502E-04  mag=     4.0000
       N       E                     dE             d eps       ncg     rms          rms(c)
DAV:   1    -0.232976232858E+04    0.18253E-01   -0.20065E+01  4480   0.186E+00    0.749E-01
RMM:   2    -0.232978108792E+04   -0.18759E-01   -0.29589E-01  4561   0.217E-01    0.615E-01
RMM:   3    -0.232978202060E+04   -0.93267E-03   -0.27912E-02  4759   0.948E-02    0.773E-01
RMM:   4    -0.232977670329E+04    0.53173E-02   -0.69233E-03  5321   0.376E-02    0.261E-01
RMM:   5    -0.232977638820E+04    0.31509E-03   -0.31990E-03  5215   0.265E-02    0.303E-01
RMM:   6    -0.232977543769E+04    0.95051E-03   -0.19360E-03  5116   0.198E-02    0.806E-02
RMM:   7    -0.232977537783E+04    0.59855E-04   -0.16616E-04  3270   0.739E-03    0.283E-02
RMM:   8    -0.232977538312E+04   -0.52916E-05   -0.29061E-05  3083   0.429E-03
  21 F= -.23508468E+04 E0= -.23508468E+04  d E =-.100478E-03  mag=     4.0000
       N       E                     dE             d eps       ncg     rms          rms(c)
DAV:   1    -0.232978173349E+04   -0.63557E-02   -0.99593E+00  4480   0.131E+00    0.763E-01
RMM:   2    -0.232979175604E+04   -0.10023E-01   -0.19924E-01  4862   0.161E-01    0.541E-01
RMM:   3    -0.232978915586E+04    0.26002E-02   -0.16547E-02  4960   0.757E-02    0.602E-01
RMM:   4    -0.232978616758E+04    0.29883E-02   -0.38393E-03  5149   0.296E-02    0.238E-01
RMM:   5    -0.232978580774E+04    0.35983E-03   -0.34946E-03  4886   0.227E-02    0.197E-01
RMM:   6    -0.232978551549E+04    0.29225E-03   -0.10385E-03  4559   0.169E-02    0.956E-02
RMM:   7    -0.232978541187E+04    0.10362E-03   -0.11612E-04  3255   0.605E-03    0.232E-02
RMM:   8    -0.232978540862E+04    0.32513E-05   -0.25006E-05  2906   0.327E-03
  22 F= -.23508570E+04 E0= -.23508569E+04  d E =-.931707E-04  mag=     4.0000
       N       E                     dE             d eps       ncg     rms          rms(c)
DAV:   1    -0.232976098347E+04    0.24428E-01   -0.20290E+01  4660   0.183E+00    0.920E-01
RMM:   2    -0.232977073802E+04   -0.97545E-02   -0.23010E-01  4386   0.180E-01    0.446E-01
RMM:   3    -0.232976937187E+04    0.13662E-02   -0.17689E-02  4651   0.766E-02    0.544E-01
RMM:   4    -0.232976788010E+04    0.14918E-02   -0.49733E-03  5367   0.331E-02    0.367E-01
RMM:   5    -0.232976654283E+04    0.13373E-02   -0.26465E-03  4587   0.216E-02    0.924E-02
RMM:   6    -0.232976658287E+04   -0.40040E-04   -0.51685E-04  3996   0.132E-02    0.103E-01
RMM:   7    -0.232976648024E+04    0.10263E-03   -0.13939E-04  3234   0.691E-03    0.284E-02
RMM:   8    -0.232976647278E+04    0.74608E-05   -0.18815E-05  2927   0.344E-03
  23 F= -.23508377E+04 E0= -.23508377E+04  d E =-.958705E-04  mag=     4.0000
       N       E                     dE             d eps       ncg     rms          rms(c)
DAV:   1    -0.232977441627E+04   -0.79360E-02   -0.10238E+01  4660   0.115E+00    0.380E-01
RMM:   2    -0.232978209406E+04   -0.76778E-02   -0.93277E-02  4269   0.113E-01    0.230E-01
RMM:   3    -0.232978234078E+04   -0.24673E-03   -0.76154E-03  4476   0.413E-02    0.294E-01
RMM:   4    -0.232978160879E+04    0.73199E-03   -0.15037E-03  4549   0.181E-02    0.152E-01
RMM:   5    -0.232978163240E+04   -0.23604E-04   -0.76795E-04  4185   0.133E-02    0.176E-01
RMM:   6    -0.232978135129E+04    0.28111E-03   -0.36334E-04  3804   0.996E-03    0.381E-02
RMM:   7    -0.232978134361E+04    0.76824E-05   -0.32687E-05  2986   0.416E-03
  24 F= -.23508521E+04 E0= -.23508521E+04  d E =-.103860E-03  mag=     4.0000
       N       E                     dE             d eps       ncg     rms          rms(c)
DAV:   1    -0.232977554999E+04    0.58013E-02   -0.20328E+01  4600   0.169E+00    0.708E-01
RMM:   2    -0.232978995256E+04   -0.14403E-01   -0.20729E-01  4529   0.182E-01    0.518E-01
RMM:   3    -0.232979076879E+04   -0.81623E-03   -0.19814E-02  4971   0.753E-02    0.651E-01
RMM:   4    -0.232978718982E+04    0.35790E-02   -0.48645E-03  5233   0.329E-02    0.267E-01
RMM:   5    -0.232978711218E+04    0.77639E-04   -0.25021E-03  5028   0.233E-02    0.286E-01
RMM:   6    -0.232978636593E+04    0.74625E-03   -0.14852E-03  4971   0.177E-02    0.707E-02
RMM:   7    -0.232978632361E+04    0.42321E-04   -0.12565E-04  3186   0.651E-03    0.252E-02
RMM:   8    -0.232978631969E+04    0.39151E-05   -0.15861E-05  2901   0.316E-03
  25 F= -.23508583E+04 E0= -.23508583E+04  d E =-.867451E-04  mag=     4.0000
       N       E                     dE             d eps       ncg     rms          rms(c)
DAV:   1    -0.232977747864E+04    0.88450E-02   -0.53513E+00  4480   0.945E-01    0.378E-01
RMM:   2    -0.232978321199E+04   -0.57334E-02   -0.69938E-02  4412   0.101E-01    0.320E-01
RMM:   3    -0.232978362691E+04   -0.41492E-03   -0.72639E-03  4650   0.440E-02    0.361E-01
RMM:   4    -0.232978255470E+04    0.10722E-02   -0.14818E-03  4563   0.185E-02    0.161E-01
RMM:   5    -0.232978248211E+04    0.72590E-04   -0.60313E-04  3982   0.123E-02    0.148E-01
RMM:   6    -0.232978228042E+04    0.20169E-03   -0.43718E-04  3863   0.959E-03    0.279E-02
RMM:   7    -0.232978227668E+04    0.37404E-05   -0.32178E-05  2945   0.435E-03
  26 F= -.23508536E+04 E0= -.23508535E+04  d E =-.928352E-04  mag=     4.0000
       N       E                     dE             d eps       ncg     rms          rms(c)
DAV:   1    -0.232979366862E+04   -0.11388E-01   -0.10662E+00  4540   0.469E-01    0.255E-01
RMM:   2    -0.232979420520E+04   -0.53659E-03   -0.70157E-03  4516   0.536E-02    0.220E-01
RMM:   3    -0.232979413610E+04    0.69106E-04   -0.15061E-03  4766   0.222E-02    0.209E-01
RMM:   4    -0.232979385158E+04    0.28452E-03   -0.54685E-04  4207   0.125E-02    0.107E-01
RMM:   5    -0.232979395172E+04   -0.10014E-03   -0.33418E-04  3744   0.952E-03    0.142E-01
RMM:   6    -0.232979377931E+04    0.17240E-03   -0.10480E-04  3138   0.664E-03    0.236E-02
RMM:   7    -0.232979377542E+04    0.38977E-05   -0.18343E-05  2844   0.301E-03
  27 F= -.23508653E+04 E0= -.23508652E+04  d E =-.961266E-04  mag=     4.0000
       N       E                     dE             d eps       ncg     rms          rms(c)
DAV:   1    -0.232977162995E+04    0.22149E-01   -0.54034E-01  4500   0.348E-01    0.201E-01
RMM:   2    -0.232977271769E+04   -0.10877E-02   -0.54436E-03  4818   0.485E-02    0.318E-01
RMM:   3    -0.232977176930E+04    0.94839E-03   -0.10346E-03  4655   0.179E-02    0.103E-01
RMM:   4    -0.232977179949E+04   -0.30187E-04   -0.34049E-04  3851   0.914E-03    0.100E-01
RMM:   5    -0.232977182362E+04   -0.24133E-04   -0.23488E-04  3436   0.836E-03    0.107E-01
RMM:   6    -0.232977172996E+04    0.93658E-04   -0.73941E-05  3083   0.582E-03    0.191E-02
RMM:   7    -0.232977172676E+04    0.31999E-05   -0.73484E-06  2749   0.280E-03
  28 F= -.23508434E+04 E0= -.23508433E+04  d E =-.101294E-03  mag=     4.0000
       N       E                     dE             d eps       ncg     rms          rms(c)
DAV:   1    -0.232980113077E+04   -0.29401E-01   -0.10840E+00  4540   0.480E-01    0.298E-01
RMM:   2    -0.232980326358E+04   -0.21328E-02   -0.10206E-02  4902   0.628E-02    0.447E-01
RMM:   3    -0.232980145924E+04    0.18043E-02   -0.20062E-03  4931   0.244E-02    0.150E-01
RMM:   4    -0.232980140705E+04    0.52194E-04   -0.57693E-04  4265   0.111E-02    0.107E-01
RMM:   5    -0.232980158233E+04   -0.17528E-03   -0.42481E-04  3826   0.107E-02    0.167E-01
RMM:   6    -0.232980134857E+04    0.23376E-03   -0.15929E-04  3266   0.779E-03    0.313E-02
RMM:   7    -0.232980134043E+04    0.81432E-05   -0.14485E-05  2843   0.344E-03
  29 F= -.23508725E+04 E0= -.23508724E+04  d E =-.886072E-04  mag=     4.0000
       N       E                     dE             d eps       ncg     rms          rms(c)
DAV:   1    -0.232982364410E+04   -0.22296E-01   -0.56011E-01  4540   0.353E-01    0.244E-01
RMM:   2    -0.232982491709E+04   -0.12730E-02   -0.80983E-03  5453   0.530E-02    0.401E-01
RMM:   3    -0.232982349120E+04    0.14259E-02   -0.17914E-03  4851   0.227E-02    0.113E-01
RMM:   4    -0.232982347820E+04    0.13000E-04   -0.42281E-04  4091   0.101E-02    0.100E-01
RMM:   5    -0.232982352787E+04   -0.49665E-04   -0.26942E-04  3519   0.902E-03    0.119E-01
RMM:   6    -0.232982340792E+04    0.11994E-03   -0.79952E-05  3111   0.601E-03    0.177E-02
RMM:   7    -0.232982340575E+04    0.21758E-05   -0.12785E-05  2826   0.283E-03
  30 F= -.23508952E+04 E0= -.23508951E+04  d E =-.883073E-04  mag=     4.0000
       N       E                     dE             d eps       ncg     rms          rms(c)
DAV:   1    -0.232974933421E+04    0.74074E-01   -0.10883E+00  4500   0.492E-01    0.342E-01
RMM:   2    -0.232975051839E+04   -0.11842E-02   -0.14626E-02  5295   0.671E-02    0.400E-01
RMM:   3    -0.232974950034E+04    0.10180E-02   -0.29932E-03  5038   0.294E-02    0.244E-01
RMM:   4    -0.232974916516E+04    0.33518E-03   -0.90756E-04  4420   0.153E-02    0.162E-01
RMM:   5    -0.232974924149E+04   -0.76338E-04   -0.61356E-04  4228   0.127E-02    0.170E-01
RMM:   6    -0.232974897396E+04    0.26754E-03   -0.20702E-04  3451   0.851E-03    0.324E-02
RMM:   7    -0.232974896699E+04    0.69626E-05   -0.33184E-05  3019   0.390E-03
  31 F= -.23508201E+04 E0= -.23508200E+04  d E =-.100842E-03  mag=     4.0000
       N       E                     dE             d eps       ncg     rms          rms(c)
DAV:   1    -0.232978195922E+04   -0.32985E-01   -0.55257E-01  4640   0.353E-01    0.289E-01
RMM:   2    -0.232978247097E+04   -0.51176E-03   -0.10451E-02  4988   0.561E-02    0.260E-01
RMM:   3    -0.232978223260E+04    0.23837E-03   -0.17629E-03  4655   0.231E-02    0.203E-01
RMM:   4    -0.232978196364E+04    0.26895E-03   -0.56598E-04  4176   0.124E-02    0.909E-02
RMM:   5    -0.232978197769E+04   -0.14043E-04   -0.16446E-04  3424   0.708E-03    0.545E-02
RMM:   6    -0.232978198042E+04   -0.27299E-05   -0.70330E-05  2975   0.536E-03
  32 F= -.23508533E+04 E0= -.23508532E+04  d E =-.938334E-04  mag=     4.0000
       N       E                     dE             d eps       ncg     rms          rms(c)
DAV:   1    -0.232978652499E+04   -0.45473E-02   -0.11041E+00  4600   0.396E-01    0.494E-01
RMM:   2    -0.232978645545E+04    0.69538E-04   -0.26180E-02  5308   0.578E-02    0.352E-01
RMM:   3    -0.232978650395E+04   -0.48499E-04   -0.34403E-03  4944   0.286E-02    0.377E-01
RMM:   4    -0.232978574814E+04    0.75581E-03   -0.16525E-03  4690   0.198E-02    0.218E-01
RMM:   5    -0.232978597735E+04   -0.22920E-03   -0.95072E-04  4324   0.149E-02    0.211E-01
RMM:   6    -0.232978556384E+04    0.41350E-03   -0.38124E-04  3694   0.106E-02    0.310E-02
RMM:   7    -0.232978555752E+04    0.63200E-05   -0.47539E-05  2922   0.359E-03
  33 F= -.23508571E+04 E0= -.23508570E+04  d E =-.957450E-04  mag=     4.0000
       N       E                     dE             d eps       ncg     rms          rms(c)
DAV:   1    -0.232977476178E+04    0.10802E-01   -0.58708E-01  5000   0.301E-01    0.547E-01
RMM:   2    -0.232977290607E+04    0.18557E-02   -0.37564E-02  4944   0.601E-02    0.379E-01
RMM:   3    -0.232977205719E+04    0.84888E-03   -0.47899E-03  4784   0.385E-02    0.391E-01
RMM:   4    -0.232977108741E+04    0.96978E-03   -0.17424E-03  4667   0.203E-02    0.215E-01
RMM:   5    -0.232977108593E+04    0.14719E-05   -0.82603E-04  4170   0.138E-02    0.184E-01
RMM:   6    -0.232977077106E+04    0.31487E-03   -0.35849E-04  3620   0.102E-02    0.376E-02
RMM:   7    -0.232977075607E+04    0.14989E-04   -0.36591E-05  2807   0.349E-03    0.883E-03
RMM:   8    -0.232977075509E+04    0.98423E-06   -0.52050E-06  2345   0.187E-03
  34 F= -.23508420E+04 E0= -.23508419E+04  d E =-.938785E-04  mag=     4.0000
       N       E                     dE             d eps       ncg     rms          rms(c)
DAV:   1    -0.232978877270E+04   -0.18017E-01   -0.11413E+00  5020   0.397E-01    0.728E-01
RMM:   2    -0.232978693206E+04    0.18406E-02   -0.71570E-02  4907   0.827E-02    0.506E-01
RMM:   3    -0.232978446359E+04    0.24685E-02   -0.85393E-03  4898   0.534E-02    0.469E-01
RMM:   4    -0.232978330126E+04    0.11623E-02   -0.31147E-03  5045   0.264E-02    0.296E-01
RMM:   5    -0.232978306094E+04    0.24033E-03   -0.12502E-03  4615   0.171E-02    0.192E-01
RMM:   6    -0.232978275078E+04    0.31015E-03   -0.47547E-04  3915   0.116E-02    0.669E-02
RMM:   7    -0.232978270214E+04    0.48646E-04   -0.90907E-05  3185   0.501E-03    0.140E-02
RMM:   8    -0.232978270377E+04   -0.16312E-05   -0.15852E-05  2702   0.281E-03
  35 F= -.23508543E+04 E0= -.23508543E+04  d E =-.953676E-04  mag=     4.0000
       N       E                     dE             d eps       ncg     rms          rms(c)
DAV:   1    -0.232978423368E+04   -0.15315E-02   -0.53946E-01  4480   0.278E-01    0.241E-01
RMM:   2    -0.232978478913E+04   -0.55545E-03   -0.55046E-03  3842   0.284E-02    0.146E-01
RMM:   3    -0.232978494885E+04   -0.15972E-03   -0.58469E-04  3502   0.152E-02    0.136E-01
RMM:   4    -0.232978511819E+04   -0.16934E-03   -0.46933E-04  3669   0.111E-02    0.165E-01
RMM:   5    -0.232978492261E+04    0.19558E-03   -0.14470E-04  3257   0.796E-03    0.269E-02
RMM:   6    -0.232978492521E+04   -0.25967E-05   -0.33097E-05  2880   0.391E-03
  36 F= -.23508562E+04 E0= -.23508561E+04  d E =-.961908E-04  mag=     4.0000
       N       E                     dE             d eps       ncg     rms          rms(c)
DAV:   1    -0.232978457078E+04    0.35183E-03   -0.11232E+00  4620   0.407E-01    0.507E-01
RMM:   2    -0.232978442787E+04    0.14291E-03   -0.28802E-02  4670   0.564E-02    0.332E-01
RMM:   3    -0.232978421953E+04    0.20834E-03   -0.34431E-03  4679   0.332E-02    0.350E-01
RMM:   4    -0.232978372052E+04    0.49902E-03   -0.16147E-03  4630   0.195E-02    0.235E-01
RMM:   5    -0.232978369341E+04    0.27109E-04   -0.71816E-04  4141   0.141E-02    0.158E-01
RMM:   6    -0.232978346396E+04    0.22945E-03   -0.24492E-04  3553   0.903E-03    0.322E-02
RMM:   7    -0.232978345732E+04    0.66359E-05   -0.29708E-05  2897   0.360E-03
  37 F= -.23508551E+04 E0= -.23508550E+04  d E =-.938621E-04  mag=     4.0000
