       N       E                     dE             d eps       ncg     rms          rms(c)
DAV:   1     0.126607009298E+05    0.12661E+05   -0.82802E+05  4480   0.143E+03
DAV:   2    -0.109047892262E+04   -0.13751E+05   -0.13176E+05  5300   0.327E+02
DAV:   3    -0.247308525957E+04   -0.13826E+04   -0.13710E+04  5380   0.109E+02
DAV:   4    -0.251183230288E+04   -0.38747E+02   -0.38611E+02  6320   0.258E+01
DAV:   5    -0.251261003853E+04   -0.77774E+00   -0.77654E+00  5540   0.281E+00    0.170E+02
RMM:   6    -0.147614725658E+04    0.10365E+04   -0.19061E+03  4419   0.382E+01    0.723E+01
RMM:   7    -0.163954136135E+04   -0.16339E+03   -0.27434E+02  4955   0.139E+01    0.487E+01
RMM:   8    -0.170103412387E+04   -0.61493E+02   -0.41414E+01  4991   0.711E+00    0.355E+01
RMM:   9    -0.183850711328E+04   -0.13747E+03   -0.68900E+01  4581   0.850E+00    0.225E+01
RMM:  10    -0.198319477431E+04   -0.14469E+03   -0.60830E+01  4671   0.716E+00    0.157E+01
RMM:  11    -0.209928423574E+04   -0.11609E+03   -0.63805E+01  4520   0.605E+00    0.144E+01
RMM:  12    -0.216767134126E+04   -0.68387E+02   -0.36217E+01  4957   0.475E+00    0.136E+01
RMM:  13    -0.227438019876E+04   -0.10671E+03   -0.10302E+02  4414   0.697E+00    0.605E+00
RMM:  14    -0.229046313418E+04   -0.16083E+02   -0.18602E+01  4435   0.402E+00    0.465E+00
RMM:  15    -0.229632404901E+04   -0.58609E+01   -0.81464E+00  4762   0.161E+00    0.322E+00
RMM:  16    -0.230083364810E+04   -0.45096E+01   -0.39059E+00  4703   0.131E+00    0.268E+00
RMM:  17    -0.230307204555E+04   -0.22384E+01   -0.18974E+00  4839   0.770E-01    0.164E+00
RMM:  18    -0.230419032187E+04   -0.11183E+01   -0.10180E+00  4641   0.600E-01    0.816E-01
RMM:  19    -0.230447442104E+04   -0.28410E+00   -0.39400E-01  4691   0.372E-01    0.524E-01
RMM:  20    -0.230456474472E+04   -0.90324E-01   -0.85427E-02  4781   0.178E-01    0.327E-01
RMM:  21    -0.230461317508E+04   -0.48430E-01   -0.22303E-02  4482   0.122E-01    0.206E-01
RMM:  22    -0.230464124526E+04   -0.28070E-01   -0.10180E-02  4455   0.894E-02    0.128E-01
RMM:  23    -0.230465705854E+04   -0.15813E-01   -0.53609E-03  4482   0.615E-02    0.889E-02
RMM:  24    -0.230466949010E+04   -0.12432E-01   -0.33828E-03  4424   0.487E-02    0.589E-02
RMM:  25    -0.230467695993E+04   -0.74698E-02   -0.21118E-03  4460   0.410E-02    0.448E-02
RMM:  26    -0.230468000675E+04   -0.30468E-02   -0.10806E-03  4245   0.294E-02    0.270E-02
RMM:  27    -0.230468161174E+04   -0.16050E-02   -0.59201E-04  4034   0.202E-02    0.162E-02
RMM:  28    -0.230468192705E+04   -0.31530E-03   -0.16375E-04  3742   0.134E-02    0.107E-02
RMM:  29    -0.230468213402E+04   -0.20697E-03   -0.78897E-05  3602   0.782E-03    0.645E-03
RMM:  30    -0.230468220397E+04   -0.69951E-04   -0.30638E-05  3215   0.628E-03    0.398E-03
RMM:  31    -0.230468224355E+04   -0.39578E-04   -0.14886E-05  2980   0.398E-03    0.217E-03
RMM:  32    -0.230468227042E+04   -0.26877E-04   -0.10943E-05  2895   0.344E-03    0.138E-03
RMM:  33    -0.230468227543E+04   -0.50103E-05   -0.43422E-06  2517   0.255E-03
   1 F= -.23250480E+04 E0= -.23250480E+04  d E =-.351215E-11  mag=     3.0000
       N       E                     dE             d eps       ncg     rms          rms(c)
DAV:   1    -0.230466693713E+04    0.15333E-01   -0.19783E+00  4520   0.563E-01    0.336E-01
RMM:   2    -0.230467015539E+04   -0.32183E-02   -0.33491E-02  4911   0.774E-02    0.441E-01
RMM:   3    -0.230466861431E+04    0.15411E-02   -0.34029E-03  4087   0.329E-02    0.229E-01
RMM:   4    -0.230466828685E+04    0.32746E-03   -0.17955E-03  4055   0.164E-02    0.128E-01
RMM:   5    -0.230466807441E+04    0.21243E-03   -0.49591E-04  3721   0.116E-02    0.792E-02
RMM:   6    -0.230466803531E+04    0.39106E-04   -0.90605E-05  3054   0.573E-03    0.181E-02
RMM:   7    -0.230466803907E+04   -0.37596E-05   -0.17943E-05  2809   0.336E-03
   2 F= -.23250342E+04 E0= -.23250342E+04  d E =-.674843E-11  mag=     3.0000
       N       E                     dE             d eps       ncg     rms          rms(c)
DAV:   1    -0.230466267355E+04    0.53618E-02   -0.78570E+00  4480   0.114E+00    0.681E-01
RMM:   2    -0.230467348893E+04   -0.10815E-01   -0.12178E-01  5172   0.145E-01    0.791E-01
RMM:   3    -0.230466913948E+04    0.43495E-02   -0.13133E-02  4793   0.583E-02    0.510E-01
RMM:   4    -0.230466747001E+04    0.16695E-02   -0.63894E-03  4749   0.309E-02    0.230E-01
RMM:   5    -0.230466676738E+04    0.70263E-03   -0.15661E-03  4611   0.200E-02    0.147E-01
RMM:   6    -0.230466666172E+04    0.10566E-03   -0.32324E-04  3492   0.912E-03    0.368E-02
RMM:   7    -0.230466667970E+04   -0.17974E-04   -0.58902E-05  2967   0.528E-03    0.193E-02
RMM:   8    -0.230466670558E+04   -0.25882E-04   -0.25170E-05  2891   0.381E-03    0.113E-02
RMM:   9    -0.230466671896E+04   -0.13383E-04   -0.68841E-06  2802   0.297E-03    0.667E-03
RMM:  10    -0.230466672817E+04   -0.92109E-05   -0.34029E-06  2619   0.191E-03
   3 F= -.23250321E+04 E0= -.23250321E+04  d E =-.844449E-12  mag=     3.0000
       N       E                     dE             d eps       ncg     rms          rms(c)
DAV:   1    -0.230467745898E+04   -0.10740E-01   -0.37402E+00  4440   0.794E-01    0.423E-01
RMM:   2    -0.230468083589E+04   -0.33769E-02   -0.41920E-02  4760   0.870E-02    0.359E-01
RMM:   3    -0.230468094204E+04   -0.10615E-03   -0.60938E-03  4255   0.402E-02    0.430E-01
RMM:   4    -0.230467965551E+04    0.12865E-02   -0.21793E-03  4485   0.188E-02    0.154E-01
RMM:   5    -0.230467944598E+04    0.20952E-03   -0.56410E-04  3874   0.111E-02    0.698E-02
RMM:   6    -0.230467943784E+04    0.81469E-05   -0.10606E-04  3040   0.563E-03    0.278E-02
RMM:   7    -0.230467943637E+04    0.14685E-05   -0.19119E-05  2822   0.325E-03
   4 F= -.23250454E+04 E0= -.23250454E+04  d E =-.117627E-11  mag=     3.0000
       N       E                     dE             d eps       ncg     rms          rms(c)
DAV:   1    -0.230467735134E+04    0.20865E-02   -0.71745E+00  4460   0.116E+00    0.528E-01
RMM:   2    -0.230468146211E+04   -0.41108E-02   -0.59043E-02  4418   0.114E-01    0.376E-01
RMM:   3    -0.230468414077E+04   -0.26787E-02   -0.94867E-03  4745   0.474E-02    0.680E-01
RMM:   4    -0.230468078288E+04    0.33579E-02   -0.28053E-03  4851   0.221E-02    0.110E-01
RMM:   5    -0.230468086933E+04   -0.86450E-04   -0.75023E-04  3347   0.103E-02    0.626E-02
RMM:   6    -0.230468085200E+04    0.17330E-04   -0.87878E-05  3029   0.555E-03    0.238E-02
RMM:   7    -0.230468084907E+04    0.29283E-05   -0.21296E-05  2798   0.314E-03
   5 F= -.23250465E+04 E0= -.23250465E+04  d E =-.347068E-11  mag=     3.0000
       N       E                     dE             d eps       ncg     rms          rms(c)
DAV:   1    -0.230466025807E+04    0.20594E-01   -0.38182E+00  4420   0.834E-01    0.482E-01
RMM:   2    -0.230466284947E+04   -0.25914E-02   -0.41668E-02  4973   0.960E-02    0.324E-01
RMM:   3    -0.230466459364E+04   -0.17442E-02   -0.76529E-03  4831   0.412E-02    0.580E-01
RMM:   4    -0.230466202294E+04    0.25707E-02   -0.24774E-03  4508   0.196E-02    0.136E-01
RMM:   5    -0.230466192064E+04    0.10230E-03   -0.57830E-04  3911   0.105E-02    0.962E-02
RMM:   6    -0.230466188521E+04    0.35434E-04   -0.15523E-04  3000   0.676E-03    0.243E-02
RMM:   7    -0.230466189289E+04   -0.76838E-05   -0.33807E-05  2873   0.376E-03
   6 F= -.23250288E+04 E0= -.23250288E+04  d E =-.208720E-10  mag=     3.0000
       N       E                     dE             d eps       ncg     rms          rms(c)
DAV:   1    -0.230466227747E+04   -0.39226E-03   -0.81881E+00  4420   0.118E+00    0.795E-01
RMM:   2    -0.230467203482E+04   -0.97574E-02   -0.11997E-01  5130   0.149E-01    0.750E-01
RMM:   3    -0.230467074310E+04    0.12917E-02   -0.19000E-02  5005   0.761E-02    0.749E-01
RMM:   4    -0.230466679973E+04    0.39434E-02   -0.75369E-03  4729   0.353E-02    0.250E-01
RMM:   5    -0.230466628415E+04    0.51558E-03   -0.17991E-03  4464   0.234E-02    0.212E-01
RMM:   6    -0.230466594768E+04    0.33646E-03   -0.64120E-04  3753   0.121E-02    0.408E-02
RMM:   7    -0.230466595305E+04   -0.53668E-05   -0.10885E-04  3045   0.591E-03    0.218E-02
RMM:   8    -0.230466596037E+04   -0.73236E-05   -0.25078E-05  2897   0.439E-03
   7 F= -.23250302E+04 E0= -.23250302E+04  d E =-.173197E-11  mag=     3.0000
       N       E                     dE             d eps       ncg     rms          rms(c)
DAV:   1    -0.230466431413E+04    0.16389E-02   -0.78243E+00  4480   0.120E+00    0.572E-01
RMM:   2    -0.230467177142E+04   -0.74573E-02   -0.12380E-01  5011   0.150E-01    0.403E-01
RMM:   3    -0.230466983185E+04    0.19396E-02   -0.10796E-02  4498   0.565E-02    0.313E-01
RMM:   4    -0.230467031839E+04   -0.48655E-03   -0.56661E-03  5078   0.283E-02    0.481E-01
RMM:   5    -0.230466830370E+04    0.20147E-02   -0.13451E-03  4556   0.189E-02    0.703E-02
RMM:   6    -0.230466828769E+04    0.16016E-04   -0.38818E-04  3502   0.811E-03    0.512E-02
RMM:   7    -0.230466827889E+04    0.87994E-05   -0.54398E-05  2945   0.540E-03
   8 F= -.23250369E+04 E0= -.23250369E+04  d E =-.101841E-10  mag=     3.0000
       N       E                     dE             d eps       ncg     rms          rms(c)
DAV:   1    -0.230465947877E+04    0.88089E-02   -0.20039E+01  4460   0.184E+00    0.758E-01
RMM:   2    -0.230468500222E+04   -0.25523E-01   -0.27626E-01  4572   0.208E-01    0.102E+00
RMM:   3    -0.230467743537E+04    0.75668E-02   -0.27042E-02  4544   0.104E-01    0.546E-01
RMM:   4    -0.230467510792E+04    0.23275E-02   -0.91447E-03  4822   0.398E-02    0.232E-01
RMM:   5    -0.230467406688E+04    0.10410E-02   -0.18910E-03  4621   0.231E-02    0.989E-02
RMM:   6    -0.230467396936E+04    0.97514E-04   -0.44349E-04  3743   0.119E-02    0.360E-02
RMM:   7    -0.230467396186E+04    0.74967E-05   -0.93182E-05  3191   0.816E-03
   9 F= -.23250375E+04 E0= -.23250375E+04  d E =-.146023E-11  mag=     3.0000
       N       E                     dE             d eps       ncg     rms          rms(c)
DAV:   1    -0.230467484694E+04   -0.87758E-03   -0.99328E+00  4480   0.138E+00    0.487E-01
RMM:   2    -0.230468483746E+04   -0.99905E-02   -0.11417E-01  4359   0.137E-01    0.526E-01
RMM:   3    -0.230468334463E+04    0.14928E-02   -0.11334E-02  4246   0.699E-02    0.440E-01
RMM:   4    -0.230468179838E+04    0.15463E-02   -0.27901E-03  4565   0.217E-02    0.121E-01
RMM:   5    -0.230468162530E+04    0.17308E-03   -0.70672E-04  3905   0.120E-02    0.631E-02
RMM:   6    -0.230468159925E+04    0.26049E-04   -0.17643E-04  3203   0.770E-03    0.222E-02
RMM:   7    -0.230468159920E+04    0.51135E-07   -0.29884E-05  2897   0.425E-03
  10 F= -.23250475E+04 E0= -.23250475E+04  d E =-.234086E-11  mag=     3.0000
       N       E                     dE             d eps       ncg     rms          rms(c)
DAV:   1    -0.230466903845E+04    0.12561E-01   -0.20081E+01  4420   0.192E+00    0.475E-01
RMM:   2    -0.230468138026E+04   -0.12342E-01   -0.14092E-01  4190   0.170E-01    0.255E-01
RMM:   3    -0.230468059050E+04    0.78976E-03   -0.95060E-03  3819   0.841E-02    0.192E-01
RMM:   4    -0.230468101452E+04   -0.42402E-03   -0.29064E-03  4502   0.214E-02    0.278E-01
RMM:   5    -0.230468043480E+04    0.57973E-03   -0.70174E-04  3762   0.133E-02    0.429E-02
RMM:   6    -0.230468043554E+04   -0.74759E-06   -0.10585E-04  2966   0.581E-03    0.214E-02
RMM:   7    -0.230468043589E+04   -0.34765E-06   -0.14837E-05  2740   0.264E-03
  11 F= -.23250461E+04 E0= -.23250461E+04  d E =-.127560E-10  mag=     3.0000
       N       E                     dE             d eps       ncg     rms          rms(c)
DAV:   1    -0.230466654711E+04    0.13888E-01   -0.99131E+00  4440   0.134E+00    0.482E-01
RMM:   2    -0.230467213066E+04   -0.55836E-02   -0.79707E-02  4132   0.133E-01    0.338E-01
RMM:   3    -0.230467358980E+04   -0.14591E-02   -0.99260E-03  4109   0.682E-02    0.606E-01
RMM:   4    -0.230467076313E+04    0.28267E-02   -0.30653E-03  4264   0.237E-02    0.959E-02
RMM:   5    -0.230467075797E+04    0.51657E-05   -0.80701E-04  3406   0.143E-02    0.441E-02
RMM:   6    -0.230467074548E+04    0.12488E-04   -0.81228E-05  3031   0.488E-03    0.193E-02
RMM:   7    -0.230467074603E+04   -0.55591E-06   -0.12560E-05  2765   0.311E-03
  12 F= -.23250370E+04 E0= -.23250370E+04  d E =-.259926E-11  mag=     3.0000
       N       E                     dE             d eps       ncg     rms          rms(c)
DAV:   1    -0.230466303042E+04    0.77151E-02   -0.19415E+01  4400   0.185E+00    0.800E-01
RMM:   2    -0.230467972384E+04   -0.16693E-01   -0.23100E-01  4351   0.194E-01    0.587E-01
RMM:   3    -0.230468284972E+04   -0.31259E-02   -0.27345E-02  4619   0.991E-02    0.976E-01
RMM:   4    -0.230467520834E+04    0.76414E-02   -0.78724E-03  4932   0.351E-02    0.163E-01
RMM:   5    -0.230467521963E+04   -0.11286E-04   -0.23470E-03  3759   0.202E-02    0.782E-02
RMM:   6    -0.230467521129E+04    0.83348E-05   -0.24156E-04  3208   0.837E-03    0.334E-02
RMM:   7    -0.230467524239E+04   -0.31096E-04   -0.47113E-05  2968   0.445E-03    0.202E-02
RMM:   8    -0.230467526153E+04   -0.19146E-04   -0.15936E-05  2856   0.321E-03    0.164E-02
RMM:   9    -0.230467527350E+04   -0.11970E-04   -0.57877E-06  2698   0.234E-03    0.400E-03
RMM:  10    -0.230467528267E+04   -0.91655E-05   -0.29324E-06  2580   0.176E-03
  13 F= -.23250406E+04 E0= -.23250406E+04  d E =-.103913E-11  mag=     3.0000
       N       E                     dE             d eps       ncg     rms          rms(c)
DAV:   1    -0.230468699446E+04   -0.11721E-01   -0.49149E+00  4480   0.923E-01    0.379E-01
RMM:   2    -0.230468945011E+04   -0.24556E-02   -0.56247E-02  4305   0.982E-02    0.283E-01
RMM:   3    -0.230468875561E+04    0.69450E-03   -0.54110E-03  3846   0.490E-02    0.220E-01
RMM:   4    -0.230468909515E+04   -0.33955E-03   -0.28860E-03  4310   0.204E-02    0.313E-01
RMM:   5    -0.230468824084E+04    0.85431E-03   -0.74296E-04  3740   0.136E-02    0.427E-02
RMM:   6    -0.230468822846E+04    0.12383E-04   -0.16494E-04  3143   0.574E-03    0.318E-02
RMM:   7    -0.230468822310E+04    0.53647E-05   -0.31575E-05  2852   0.448E-03
  14 F= -.23250523E+04 E0= -.23250523E+04  d E =-.725249E-12  mag=     3.0000
       N       E                     dE             d eps       ncg     rms          rms(c)
DAV:   1    -0.230468857990E+04   -0.35144E-03   -0.10038E+00  4400   0.214E-01    0.583E-01
RMM:   2    -0.230468808114E+04    0.49876E-03   -0.42040E-02  5162   0.647E-02    0.530E-01
RMM:   3    -0.230468591866E+04    0.21625E-02   -0.79859E-03  4760   0.407E-02    0.501E-01
RMM:   4    -0.230468440831E+04    0.15104E-02   -0.29270E-03  4690   0.211E-02    0.202E-01
RMM:   5    -0.230468396183E+04    0.44647E-03   -0.65226E-04  4126   0.111E-02    0.777E-02
RMM:   6    -0.230468400522E+04   -0.43386E-04   -0.11842E-04  3059   0.620E-03    0.286E-02
RMM:   7    -0.230468403255E+04   -0.27331E-04   -0.30835E-05  2880   0.398E-03    0.158E-02
RMM:   8    -0.230468404659E+04   -0.14040E-04   -0.14732E-05  2820   0.339E-03    0.689E-03
RMM:   9    -0.230468405688E+04   -0.10293E-04   -0.49071E-06  2704   0.251E-03    0.461E-03
RMM:  10    -0.230468407014E+04   -0.13251E-04   -0.34747E-06  2568   0.181E-03    0.270E-03
RMM:  11    -0.230468408249E+04   -0.12350E-04   -0.29045E-06  2590   0.171E-03    0.172E-03
RMM:  12    -0.230468408694E+04   -0.44573E-05   -0.14377E-06  2471   0.144E-03
  15 F= -.23250519E+04 E0= -.23250519E+04  d E =-.194584E-10  mag=     3.0000
       N       E                     dE             d eps       ncg     rms          rms(c)
DAV:   1    -0.230468223687E+04    0.18456E-02   -0.48571E-01  4440   0.159E-01    0.319E-01
RMM:   2    -0.230468282405E+04   -0.58718E-03   -0.13246E-02  4851   0.368E-02    0.363E-01
RMM:   3    -0.230468199018E+04    0.83387E-03   -0.27765E-03  4251   0.224E-02    0.316E-01
RMM:   4    -0.230468132024E+04    0.66995E-03   -0.99574E-04  3906   0.126E-02    0.935E-02
RMM:   5    -0.230468123344E+04    0.86792E-04   -0.28853E-04  3340   0.727E-03    0.384E-02
RMM:   6    -0.230468123753E+04   -0.40872E-05   -0.39482E-05  2820   0.439E-03
  16 F= -.23250466E+04 E0= -.23250466E+04  d E =-.429570E-11  mag=     3.0000
       N       E                     dE             d eps       ncg     rms          rms(c)
DAV:   1    -0.230468144121E+04   -0.20777E-03   -0.91528E-01  4400   0.208E-01    0.228E-01
RMM:   2    -0.230468291007E+04   -0.14689E-02   -0.55368E-03  4267   0.301E-02    0.319E-01
RMM:   3    -0.230468234267E+04    0.56740E-03   -0.12044E-03  3873   0.146E-02    0.187E-01
RMM:   4    -0.230468217571E+04    0.16696E-03   -0.37506E-04  3224   0.765E-03    0.538E-02
RMM:   5    -0.230468222104E+04   -0.45335E-04   -0.11130E-04  2898   0.514E-03    0.412E-02
RMM:   6    -0.230468221363E+04    0.74096E-05   -0.22927E-05  2667   0.308E-03
  17 F= -.23250484E+04 E0= -.23250484E+04  d E =-.143035E-10  mag=     3.0000
       N       E                     dE             d eps       ncg     rms          rms(c)
DAV:   1    -0.230467938228E+04    0.28388E-02   -0.46026E-01  4400   0.152E-01    0.160E-01
RMM:   2    -0.230468004565E+04   -0.66337E-03   -0.39398E-03  3991   0.231E-02    0.199E-01
RMM:   3    -0.230467985201E+04    0.19364E-03   -0.66422E-04  3327   0.114E-02    0.136E-01
RMM:   4    -0.230467976350E+04    0.88511E-04   -0.18723E-04  2923   0.583E-03    0.392E-02
RMM:   5    -0.230467977939E+04   -0.15888E-04   -0.58289E-05  2802   0.376E-03    0.180E-02
RMM:   6    -0.230467978034E+04   -0.94611E-06   -0.85116E-06  2551   0.230E-03
  18 F= -.23250439E+04 E0= -.23250439E+04  d E =-.747378E-11  mag=     3.0000
       N       E                     dE             d eps       ncg     rms          rms(c)
DAV:   1    -0.230467806884E+04    0.17105E-02   -0.90254E-01  4420   0.213E-01    0.213E-01
RMM:   2    -0.230467871695E+04   -0.64811E-03   -0.74999E-03  4135   0.295E-02    0.156E-01
RMM:   3    -0.230467892624E+04   -0.20929E-03   -0.12134E-03  3530   0.151E-02    0.229E-01
RMM:   4    -0.230467860758E+04    0.31866E-03   -0.41601E-04  3152   0.844E-03    0.615E-02
RMM:   5    -0.230467861843E+04   -0.10855E-04   -0.11181E-04  2833   0.477E-03    0.212E-02
RMM:   6    -0.230467861901E+04   -0.57416E-06   -0.18649E-05  2632   0.272E-03
  19 F= -.23250458E+04 E0= -.23250458E+04  d E =-.741755E-11  mag=     3.0000
