       N       E                     dE             d eps       ncg     rms          rms(c)
DAV:   1     0.125259579183E+05    0.12526E+05   -0.82534E+05  4500   0.141E+03
DAV:   2    -0.113231556264E+04   -0.13658E+05   -0.13101E+05  5280   0.324E+02
DAV:   3    -0.246945355419E+04   -0.13371E+04   -0.13259E+04  5430   0.107E+02
DAV:   4    -0.250311058980E+04   -0.33657E+02   -0.33518E+02  6060   0.229E+01
DAV:   5    -0.250391038703E+04   -0.79980E+00   -0.79837E+00  5580   0.275E+00    0.170E+02
RMM:   6    -0.147345808022E+04    0.10305E+04   -0.18860E+03  4467   0.378E+01    0.740E+01
RMM:   7    -0.165548695328E+04   -0.18203E+03   -0.29291E+02  5041   0.143E+01    0.592E+01
RMM:   8    -0.168532425026E+04   -0.29837E+02   -0.89219E+01  5244   0.750E+00    0.440E+01
RMM:   9    -0.175376932568E+04   -0.68445E+02   -0.52766E+01  4864   0.682E+00    0.386E+01
RMM:  10    -0.185650507787E+04   -0.10274E+03   -0.56705E+01  4957   0.694E+00    0.268E+01
RMM:  11    -0.196485012282E+04   -0.10835E+03   -0.42199E+01  4904   0.551E+00    0.173E+01
RMM:  12    -0.206792901520E+04   -0.10308E+03   -0.48155E+01  4633   0.533E+00    0.131E+01
RMM:  13    -0.219390853708E+04   -0.12598E+03   -0.93768E+01  4585   0.712E+00    0.850E+00
RMM:  14    -0.227150568472E+04   -0.77597E+02   -0.73814E+01  4502   0.582E+00    0.828E+00
RMM:  15    -0.227672830017E+04   -0.52226E+01   -0.73714E+00  4762   0.310E+00    0.573E+00
RMM:  16    -0.228750170042E+04   -0.10773E+02   -0.97481E+00  4453   0.187E+00    0.328E+00
RMM:  17    -0.229222200070E+04   -0.47203E+01   -0.32763E+00  4474   0.134E+00    0.202E+00
RMM:  18    -0.229444423564E+04   -0.22222E+01   -0.11108E+00  4866   0.795E-01    0.233E+00
RMM:  19    -0.229480155822E+04   -0.35732E+00   -0.25448E-01  5079   0.383E-01    0.135E+00
RMM:  20    -0.229497118719E+04   -0.16963E+00   -0.88476E-02  4579   0.201E-01    0.635E-01
RMM:  21    -0.229508907475E+04   -0.11789E+00   -0.45486E-02  4479   0.177E-01    0.355E-01
RMM:  22    -0.229511772458E+04   -0.28650E-01   -0.16226E-02  4508   0.117E-01    0.185E-01
RMM:  23    -0.229513106738E+04   -0.13343E-01   -0.76658E-03  4481   0.818E-02    0.880E-02
RMM:  24    -0.229513734398E+04   -0.62766E-02   -0.24511E-03  4516   0.538E-02    0.554E-02
RMM:  25    -0.229514520783E+04   -0.78638E-02   -0.25180E-03  4449   0.389E-02    0.332E-02
RMM:  26    -0.229514854485E+04   -0.33370E-02   -0.10934E-03  4335   0.326E-02    0.234E-02
RMM:  27    -0.229515051465E+04   -0.19698E-02   -0.75893E-04  4152   0.209E-02    0.147E-02
RMM:  28    -0.229515109155E+04   -0.57690E-03   -0.22731E-04  3899   0.171E-02    0.130E-02
RMM:  29    -0.229515132922E+04   -0.23767E-03   -0.88329E-05  3658   0.720E-03    0.906E-03
RMM:  30    -0.229515147185E+04   -0.14263E-03   -0.38808E-05  3415   0.669E-03    0.377E-03
RMM:  31    -0.229515150542E+04   -0.33573E-04   -0.14530E-05  3007   0.365E-03    0.203E-03
RMM:  32    -0.229515151540E+04   -0.99716E-05   -0.47417E-06  2716   0.286E-03
   1 F= -.23154332E+04 E0= -.23154332E+04  d E =-.121598E-09  mag=     5.0002
       N       E                     dE             d eps       ncg     rms          rms(c)
DAV:   1    -0.229512892690E+04    0.22579E-01   -0.49171E+00  4230   0.765E-01    0.406E-01
RMM:   2    -0.229513583758E+04   -0.69107E-02   -0.68268E-02  3970   0.704E-02    0.189E-01
RMM:   3    -0.229513512950E+04    0.70807E-03   -0.45510E-03  3971   0.348E-02    0.175E-01
RMM:   4    -0.229513497126E+04    0.15825E-03   -0.75152E-04  3505   0.978E-03    0.897E-02
RMM:   5    -0.229513492640E+04    0.44855E-04   -0.34338E-04  3270   0.746E-03    0.739E-02
RMM:   6    -0.229513486447E+04    0.61931E-04   -0.85206E-05  3021   0.506E-03    0.160E-02
RMM:   7    -0.229513486822E+04   -0.37522E-05   -0.12055E-05  2714   0.261E-03
   2 F= -.23154161E+04 E0= -.23154161E+04  d E =-.168632E-10  mag=     5.0000
       N       E                     dE             d eps       ncg     rms          rms(c)
DAV:   1    -0.229513983805E+04   -0.49736E-02   -0.19852E+01  4500   0.150E+00    0.741E-01
RMM:   2    -0.229515962054E+04   -0.19782E-01   -0.19063E-01  4281   0.128E-01    0.360E-01
RMM:   3    -0.229515816384E+04    0.14567E-02   -0.11385E-02  4198   0.623E-02    0.304E-01
RMM:   4    -0.229515779334E+04    0.37051E-03   -0.25813E-03  4408   0.189E-02    0.190E-01
RMM:   5    -0.229515755553E+04    0.23781E-03   -0.14219E-03  3820   0.148E-02    0.106E-01
RMM:   6    -0.229515742972E+04    0.12581E-03   -0.21070E-04  3087   0.870E-03    0.285E-02
RMM:   7    -0.229515743520E+04   -0.54884E-05   -0.26369E-05  2899   0.369E-03
   3 F= -.23154395E+04 E0= -.23154395E+04  d E =-.864998E-09  mag=     5.0000
       N       E                     dE             d eps       ncg     rms          rms(c)
DAV:   1    -0.229515250800E+04    0.49217E-02   -0.98399E+00  4380   0.103E+00    0.478E-01
RMM:   2    -0.229516307377E+04   -0.10566E-01   -0.10065E-01  4182   0.934E-02    0.234E-01
RMM:   3    -0.229516260117E+04    0.47260E-03   -0.39065E-03  4157   0.418E-02    0.144E-01
RMM:   4    -0.229516251071E+04    0.90457E-04   -0.94298E-04  3665   0.127E-02    0.117E-01
RMM:   5    -0.229516246569E+04    0.45019E-04   -0.49015E-04  3635   0.872E-03    0.918E-02
RMM:   6    -0.229516240609E+04    0.59600E-04   -0.11274E-04  3037   0.540E-03    0.314E-02
RMM:   7    -0.229516240429E+04    0.18016E-05   -0.23038E-05  2889   0.320E-03
   4 F= -.23154442E+04 E0= -.23154442E+04  d E =-.186501E-09  mag=     5.0000
       N       E                     dE             d eps       ncg     rms          rms(c)
DAV:   1    -0.229512408620E+04    0.38320E-01   -0.19740E+01  4560   0.144E+00    0.629E-01
RMM:   2    -0.229514115807E+04   -0.17072E-01   -0.15956E-01  4315   0.130E-01    0.321E-01
RMM:   3    -0.229514088351E+04    0.27456E-03   -0.72925E-03  4368   0.654E-02    0.207E-01
RMM:   4    -0.229514084858E+04    0.34926E-04   -0.21793E-03  4121   0.195E-02    0.176E-01
RMM:   5    -0.229514069015E+04    0.15844E-03   -0.85404E-04  4049   0.118E-02    0.116E-01
RMM:   6    -0.229514062561E+04    0.64541E-04   -0.27851E-04  3434   0.730E-03    0.482E-02
RMM:   7    -0.229514062338E+04    0.22233E-05   -0.55574E-05  3009   0.482E-03
   5 F= -.23154222E+04 E0= -.23154222E+04  d E =-.815331E-10  mag=     5.0000
       N       E                     dE             d eps       ncg     rms          rms(c)
DAV:   1    -0.229509555782E+04    0.45068E-01   -0.98284E+00  4440   0.105E+00    0.492E-01
RMM:   2    -0.229510716984E+04   -0.11612E-01   -0.11129E-01  4196   0.954E-02    0.309E-01
RMM:   3    -0.229510635782E+04    0.81203E-03   -0.69738E-03  4298   0.481E-02    0.304E-01
RMM:   4    -0.229510573417E+04    0.62364E-03   -0.14699E-03  4059   0.166E-02    0.122E-01
RMM:   5    -0.229510552714E+04    0.20703E-03   -0.65970E-04  3636   0.106E-02    0.529E-02
RMM:   6    -0.229510552297E+04    0.41747E-05   -0.10127E-04  3081   0.766E-03    0.235E-02
RMM:   7    -0.229510552266E+04    0.30339E-06   -0.15989E-05  2884   0.307E-03
   6 F= -.23153866E+04 E0= -.23153866E+04  d E =-.344895E-09  mag=     5.0000
       N       E                     dE             d eps       ncg     rms          rms(c)
DAV:   1    -0.229515490230E+04   -0.49379E-01   -0.19232E+01  4410   0.150E+00    0.756E-01
RMM:   2    -0.229518206071E+04   -0.27158E-01   -0.28146E-01  4470   0.148E-01    0.476E-01
RMM:   3    -0.229518148349E+04    0.57722E-03   -0.21066E-02  4389   0.725E-02    0.550E-01
RMM:   4    -0.229517912012E+04    0.23634E-02   -0.37137E-03  4587   0.234E-02    0.165E-01
RMM:   5    -0.229517879794E+04    0.32218E-03   -0.10462E-03  3875   0.135E-02    0.646E-02
RMM:   6    -0.229517883969E+04   -0.41745E-04   -0.27847E-04  3318   0.975E-03    0.335E-02
RMM:   7    -0.229517884726E+04   -0.75758E-05   -0.35164E-05  2983   0.414E-03
   7 F= -.23154611E+04 E0= -.23154611E+04  d E =-.428693E-10  mag=     5.0000
       N       E                     dE             d eps       ncg     rms          rms(c)
DAV:   1    -0.229513200303E+04    0.46837E-01   -0.50521E+00  4590   0.795E-01    0.369E-01
RMM:   2    -0.229513913363E+04   -0.71306E-02   -0.69563E-02  3847   0.698E-02    0.187E-01
RMM:   3    -0.229513836995E+04    0.76367E-03   -0.40384E-03  3787   0.327E-02    0.136E-01
RMM:   4    -0.229513836297E+04    0.69832E-05   -0.79302E-04  3734   0.100E-02    0.119E-01
RMM:   5    -0.229513826797E+04    0.94997E-04   -0.41132E-04  3535   0.818E-03    0.665E-02
RMM:   6    -0.229513824138E+04    0.26595E-04   -0.50469E-05  2871   0.463E-03    0.195E-02
RMM:   7    -0.229513823954E+04    0.18377E-05   -0.11588E-05  2691   0.230E-03
   8 F= -.23154203E+04 E0= -.23154203E+04  d E =-.211110E-09  mag=     5.0000
       N       E                     dE             d eps       ncg     rms          rms(c)
DAV:   1    -0.229516150740E+04   -0.23266E-01   -0.10703E+00  4500   0.381E-01    0.257E-01
RMM:   2    -0.229516258703E+04   -0.10796E-02   -0.78576E-03  4259   0.369E-02    0.356E-01
RMM:   3    -0.229516151860E+04    0.10684E-02   -0.13561E-03  3727   0.179E-02    0.136E-01
RMM:   4    -0.229516145339E+04    0.65215E-04   -0.63162E-04  3691   0.945E-03    0.821E-02
RMM:   5    -0.229516139444E+04    0.58953E-04   -0.20195E-04  3159   0.626E-03    0.278E-02
RMM:   6    -0.229516140150E+04   -0.70583E-05   -0.26011E-05  2798   0.368E-03
   9 F= -.23154426E+04 E0= -.23154426E+04  d E =-.635078E-10  mag=     5.0000
       N       E                     dE             d eps       ncg     rms          rms(c)
DAV:   1    -0.229515110004E+04    0.10294E-01   -0.54293E-01  4500   0.269E-01    0.248E-01
RMM:   2    -0.229515218011E+04   -0.10801E-02   -0.40907E-03  4066   0.275E-02    0.258E-01
RMM:   3    -0.229515173721E+04    0.44290E-03   -0.10339E-03  3634   0.138E-02    0.169E-01
RMM:   4    -0.229515143853E+04    0.29868E-03   -0.48712E-04  3575   0.894E-03    0.687E-02
RMM:   5    -0.229515141614E+04    0.22389E-04   -0.19864E-04  3136   0.653E-03    0.430E-02
RMM:   6    -0.229515140708E+04    0.90598E-05   -0.46347E-05  2879   0.403E-03
  10 F= -.23154328E+04 E0= -.23154328E+04  d E =-.744016E-10  mag=     5.0000
       N       E                     dE             d eps       ncg     rms          rms(c)
DAV:   1    -0.229515066241E+04    0.75373E-03   -0.10901E+00  4470   0.374E-01    0.338E-01
RMM:   2    -0.229515252102E+04   -0.18586E-02   -0.66852E-03  4134   0.367E-02    0.239E-01
RMM:   3    -0.229515208318E+04    0.43784E-03   -0.15339E-03  3819   0.205E-02    0.198E-01
RMM:   4    -0.229515188705E+04    0.19613E-03   -0.12230E-03  4227   0.128E-02    0.171E-01
RMM:   5    -0.229515172473E+04    0.16232E-03   -0.55711E-04  3668   0.980E-03    0.727E-02
RMM:   6    -0.229515168032E+04    0.44409E-04   -0.11866E-04  3072   0.501E-03    0.313E-02
RMM:   7    -0.229515167355E+04    0.67763E-05   -0.22653E-05  2804   0.325E-03
  11 F= -.23154336E+04 E0= -.23154336E+04  d E =-.173292E-09  mag=     5.0000
       N       E                     dE             d eps       ncg     rms          rms(c)
DAV:   1    -0.229517414098E+04   -0.22461E-01   -0.55208E-01  4560   0.274E-01    0.220E-01
RMM:   2    -0.229517463392E+04   -0.49294E-03   -0.47612E-03  4080   0.261E-02    0.142E-01
RMM:   3    -0.229517440258E+04    0.23134E-03   -0.84684E-04  3642   0.148E-02    0.945E-02
RMM:   4    -0.229517431213E+04    0.90446E-04   -0.25570E-04  3424   0.609E-03    0.332E-02
RMM:   5    -0.229517433227E+04   -0.20142E-04   -0.36220E-05  2845   0.413E-03    0.187E-02
RMM:   6    -0.229517433583E+04   -0.35535E-05   -0.75644E-06  2556   0.199E-03
  12 F= -.23154562E+04 E0= -.23154562E+04  d E =-.101891E-08  mag=     5.0000
       N       E                     dE             d eps       ncg     rms          rms(c)
DAV:   1    -0.229512539269E+04    0.48940E-01   -0.10807E+00  4440   0.394E-01    0.369E-01
RMM:   2    -0.229512565276E+04   -0.26006E-03   -0.13507E-02  4570   0.418E-02    0.293E-01
RMM:   3    -0.229512480613E+04    0.84663E-03   -0.28361E-03  4217   0.248E-02    0.177E-01
RMM:   4    -0.229512487702E+04   -0.70888E-04   -0.10328E-03  4094   0.113E-02    0.177E-01
RMM:   5    -0.229512463828E+04    0.23874E-03   -0.27794E-04  3176   0.734E-03    0.520E-02
RMM:   6    -0.229512469995E+04   -0.61673E-04   -0.99944E-05  3208   0.490E-03    0.236E-02
RMM:   7    -0.229512470208E+04   -0.21291E-05   -0.14100E-05  2818   0.326E-03
  13 F= -.23154061E+04 E0= -.23154061E+04  d E =-.154201E-10  mag=     5.0000
