       N       E                     dE             d eps       ncg     rms          rms(c)
DAV:   1     0.127183420989E+05    0.12718E+05   -0.82958E+05  4440   0.144E+03
DAV:   2    -0.106846496990E+04   -0.13787E+05   -0.13209E+05  5288   0.330E+02
DAV:   3    -0.246547305883E+04   -0.13970E+04   -0.13841E+04  5352   0.111E+02
DAV:   4    -0.251008890366E+04   -0.44616E+02   -0.44408E+02  6664   0.295E+01
DAV:   5    -0.251090028997E+04   -0.81139E+00   -0.81008E+00  5528   0.321E+00    0.170E+02
RMM:   6    -0.146921401982E+04    0.10417E+04   -0.19374E+03  4387   0.388E+01    0.727E+01
RMM:   7    -0.164162323091E+04   -0.17241E+03   -0.27918E+02  4939   0.140E+01    0.533E+01
RMM:   8    -0.168817711060E+04   -0.46554E+02   -0.79376E+01  5165   0.814E+00    0.417E+01
RMM:   9    -0.178016036480E+04   -0.91983E+02   -0.62906E+01  4877   0.798E+00    0.302E+01
RMM:  10    -0.191616268463E+04   -0.13600E+03   -0.56024E+01  5077   0.726E+00    0.186E+01
RMM:  11    -0.204315066214E+04   -0.12699E+03   -0.60010E+01  4723   0.615E+00    0.140E+01
RMM:  12    -0.216984958438E+04   -0.12670E+03   -0.91818E+01  4409   0.705E+00    0.982E+00
RMM:  13    -0.227087485219E+04   -0.10103E+03   -0.97614E+01  4491   0.684E+00    0.500E+00
RMM:  14    -0.229468681666E+04   -0.23812E+02   -0.25246E+01  4519   0.432E+00    0.748E+00
RMM:  15    -0.229536641052E+04   -0.67959E+00   -0.39545E+00  5474   0.145E+00    0.688E+00
RMM:  16    -0.229644154219E+04   -0.10751E+01   -0.69666E-01  4789   0.519E-01    0.668E+00
RMM:  17    -0.230001026058E+04   -0.35687E+01   -0.37043E+00  4377   0.135E+00    0.596E+00
RMM:  18    -0.230314270432E+04   -0.31324E+01   -0.20484E+00  4412   0.103E+00    0.386E+00
RMM:  19    -0.230394129919E+04   -0.79859E+00   -0.43092E-01  4666   0.510E-01    0.248E+00
RMM:  20    -0.230416576442E+04   -0.22447E+00   -0.17918E-01  4516   0.265E-01    0.151E+00
RMM:  21    -0.230430150149E+04   -0.13574E+00   -0.11158E-01  4590   0.316E-01    0.358E-01
RMM:  22    -0.230436075498E+04   -0.59253E-01   -0.44268E-02  4780   0.181E-01    0.351E-01
RMM:  23    -0.230438640362E+04   -0.25649E-01   -0.11490E-02  4705   0.920E-02    0.253E-01
RMM:  24    -0.230440274807E+04   -0.16344E-01   -0.57965E-03  4409   0.526E-02    0.134E-01
RMM:  25    -0.230441325357E+04   -0.10506E-01   -0.23366E-03  4466   0.396E-02    0.102E-01
RMM:  26    -0.230442059204E+04   -0.73385E-02   -0.18169E-03  4432   0.308E-02    0.550E-02
RMM:  27    -0.230442538039E+04   -0.47884E-02   -0.11212E-03  4326   0.292E-02    0.425E-02
RMM:  28    -0.230442728479E+04   -0.19044E-02   -0.51251E-04  4218   0.159E-02    0.241E-02
RMM:  29    -0.230442811491E+04   -0.83012E-03   -0.20364E-04  3759   0.110E-02    0.113E-02
RMM:  30    -0.230442837089E+04   -0.25598E-03   -0.72232E-05  3490   0.709E-03    0.550E-03
RMM:  31    -0.230442845637E+04   -0.85482E-04   -0.22890E-05  3016   0.475E-03    0.366E-03
RMM:  32    -0.230442848825E+04   -0.31881E-04   -0.87237E-06  2825   0.335E-03    0.205E-03
RMM:  33    -0.230442850637E+04   -0.18113E-04   -0.54795E-06  2722   0.256E-03    0.249E-03
RMM:  34    -0.230442851233E+04   -0.59617E-05   -0.25041E-06  2416   0.201E-03
   1 F= -.23248620E+04 E0= -.23248620E+04  d E =-.232486E+04  mag=     2.0001
       N       E                     dE             d eps       ncg     rms          rms(c)
DAV:   1    -0.227677425926E+04    0.27654E+02   -0.19732E+03  5344   0.235E+01    0.118E+01
RMM:   2    -0.231301315630E+04   -0.36239E+02   -0.34735E+02  6592   0.628E+00    0.155E+01
RMM:   3    -0.230603102363E+04    0.69821E+01   -0.20699E+01  5743   0.193E+00    0.617E+00
RMM:   4    -0.230734872270E+04   -0.13177E+01   -0.50213E+00  6005   0.707E-01    0.732E+00
RMM:   5    -0.230743206831E+04   -0.83346E-01   -0.10351E+00  5023   0.220E-01    0.592E+00
RMM:   6    -0.230731778193E+04    0.11429E+00   -0.18652E-01  5003   0.147E-01    0.433E+00
RMM:   7    -0.230733134230E+04   -0.13560E-01   -0.12307E-01  5193   0.163E-01    0.360E+00
RMM:   8    -0.230732079934E+04    0.10543E-01   -0.26647E-01  5489   0.184E-01    0.369E+00
RMM:   9    -0.230733989943E+04   -0.19100E-01   -0.21718E-02  5034   0.796E-02    0.438E+00
RMM:  10    -0.230735012996E+04   -0.10231E-01   -0.54873E-03  4468   0.243E-02    0.491E+00
RMM:  11    -0.230732939828E+04    0.20732E-01   -0.39800E-02  4841   0.766E-02    0.358E+00
RMM:  12    -0.230729475595E+04    0.34642E-01   -0.11276E-01  4533   0.141E-01    0.154E+00
RMM:  13    -0.230731068816E+04   -0.15932E-01   -0.50127E-02  4943   0.102E-01    0.104E+00
RMM:  14    -0.230731826974E+04   -0.75816E-02   -0.10259E-02  5426   0.410E-02    0.958E-01
RMM:  15    -0.230731987614E+04   -0.16064E-02   -0.28279E-03  4591   0.213E-02    0.901E-01
RMM:  16    -0.230731786572E+04    0.20104E-02   -0.19115E-02  4526   0.557E-02    0.962E-01
RMM:  17    -0.230731415030E+04    0.37154E-02   -0.32450E-03  4352   0.316E-02    0.106E+00
RMM:  18    -0.230730276461E+04    0.11386E-01   -0.73292E-03  4388   0.337E-02    0.126E+00
RMM:  19    -0.230729344249E+04    0.93221E-02   -0.24627E-03  3848   0.252E-02    0.142E+00
RMM:  20    -0.230730747698E+04   -0.14034E-01   -0.38510E-03  3924   0.252E-02    0.104E+00
RMM:  21    -0.230731574933E+04   -0.82723E-02   -0.45857E-03  4512   0.288E-02    0.590E-01
RMM:  22    -0.230731965063E+04   -0.39013E-02   -0.38999E-03  4426   0.270E-02    0.259E-01
RMM:  23    -0.230732007849E+04   -0.42786E-03   -0.29696E-03  4126   0.227E-02    0.135E-01
RMM:  24    -0.230732024241E+04   -0.16392E-03   -0.63652E-04  3667   0.131E-02    0.151E-01
RMM:  25    -0.230732061575E+04   -0.37333E-03   -0.39463E-04  3626   0.926E-03    0.689E-02
RMM:  26    -0.230732063143E+04   -0.15678E-04   -0.84479E-05  2990   0.640E-03    0.768E-02
RMM:  27    -0.230732079147E+04   -0.16004E-03   -0.13300E-04  3119   0.618E-03    0.328E-02
RMM:  28    -0.230732083956E+04   -0.48095E-04   -0.68989E-05  2897   0.560E-03    0.182E-02
RMM:  29    -0.230732085038E+04   -0.10819E-04   -0.17648E-05  2838   0.377E-03    0.190E-02
RMM:  30    -0.230732085622E+04   -0.58417E-05   -0.53719E-06  2698   0.268E-03
   2 F= -.23277932E+04 E0= -.23277932E+04  d E =-.293121E+01  mag=     1.9956
       N       E                     dE             d eps       ncg     rms          rms(c)
DAV:   1    -0.230733807919E+04   -0.17229E-01   -0.96009E+00  4944   0.141E+00    0.118E+00
RMM:   2    -0.230760265359E+04   -0.26457E+00   -0.24437E+00  6423   0.439E-01    0.167E+00
RMM:   3    -0.230758791220E+04    0.14741E-01   -0.26504E-01  5649   0.216E-01    0.607E-01
RMM:   4    -0.230758708577E+04    0.82643E-03   -0.30309E-02  5245   0.430E-02    0.371E-01
RMM:   5    -0.230758613633E+04    0.94944E-03   -0.32230E-03  5108   0.217E-02    0.265E-01
RMM:   6    -0.230758568071E+04    0.45563E-03   -0.20336E-03  4799   0.191E-02    0.138E-01
RMM:   7    -0.230758565984E+04    0.20865E-04   -0.64955E-04  3733   0.108E-02    0.724E-02
RMM:   8    -0.230758565467E+04    0.51718E-05   -0.20376E-04  3192   0.719E-03    0.388E-02
RMM:   9    -0.230758566106E+04   -0.63963E-05   -0.35146E-05  2821   0.431E-03
   3 F= -.23280567E+04 E0= -.23280567E+04  d E =-.319475E+01  mag=     1.9990
       N       E                     dE             d eps       ncg     rms          rms(c)
DAV:   1    -0.230762080590E+04   -0.35151E-01   -0.86284E+00  4632   0.134E+00    0.109E+00
RMM:   2    -0.230785243825E+04   -0.23163E+00   -0.21832E+00  6375   0.412E-01    0.143E+00
RMM:   3    -0.230784491601E+04    0.75222E-02   -0.23632E-01  5561   0.208E-01    0.554E-01
RMM:   4    -0.230784421681E+04    0.69920E-03   -0.26564E-02  5257   0.409E-02    0.351E-01
RMM:   5    -0.230784328126E+04    0.93556E-03   -0.29375E-03  5087   0.209E-02    0.235E-01
RMM:   6    -0.230784297332E+04    0.30794E-03   -0.16231E-03  4731   0.178E-02    0.137E-01
RMM:   7    -0.230784296876E+04    0.45524E-05   -0.47411E-04  3473   0.985E-03    0.915E-02
RMM:   8    -0.230784292100E+04    0.47765E-04   -0.39078E-04  3390   0.914E-03    0.507E-02
RMM:   9    -0.230784293957E+04   -0.18575E-04   -0.68506E-05  2872   0.527E-03    0.361E-02
RMM:  10    -0.230784294935E+04   -0.97728E-05   -0.35457E-05  2750   0.338E-03
   4 F= -.23283113E+04 E0= -.23283112E+04  d E =-.344927E+01  mag=     1.9998
       N       E                     dE             d eps       ncg     rms          rms(c)
DAV:   1    -0.230185221494E+04    0.59907E+01   -0.33352E+02  4456   0.824E+00    0.878E+00
RMM:   2    -0.231696903741E+04   -0.15117E+02   -0.10204E+02  6375   0.340E+00    0.222E+01
RMM:   3    -0.230941324534E+04    0.75558E+01   -0.90185E+00  5144   0.151E+00    0.577E+00
RMM:   4    -0.230919619872E+04    0.21705E+00   -0.13476E+00  5993   0.362E-01    0.343E+00
RMM:   5    -0.230914297306E+04    0.53226E-01   -0.15979E-01  5195   0.132E-01    0.249E+00
RMM:   6    -0.230909241493E+04    0.50558E-01   -0.24021E-01  5639   0.173E-01    0.268E+00
RMM:   7    -0.230909463246E+04   -0.22175E-02   -0.36279E-02  4747   0.911E-02    0.304E+00
RMM:   8    -0.230908743437E+04    0.71981E-02   -0.85483E-03  4449   0.360E-02    0.272E+00
RMM:   9    -0.230905045660E+04    0.36978E-01   -0.44377E-02  4622   0.852E-02    0.137E+00
RMM:  10    -0.230905961073E+04   -0.91541E-02   -0.16507E-02  4487   0.654E-02    0.567E-01
RMM:  11    -0.230906925018E+04   -0.96395E-02   -0.65743E-03  4599   0.379E-02    0.244E-01
RMM:  12    -0.230908179753E+04   -0.12547E-01   -0.37908E-03  4271   0.293E-02    0.160E-01
RMM:  13    -0.230908810889E+04   -0.63114E-02   -0.23708E-03  4288   0.242E-02    0.959E-02
RMM:  14    -0.230908978766E+04   -0.16788E-02   -0.46892E-04  3979   0.149E-02    0.623E-02
RMM:  15    -0.230909135081E+04   -0.15632E-02   -0.26235E-04  3819   0.908E-03    0.405E-02
RMM:  16    -0.230909271533E+04   -0.13645E-02   -0.17475E-04  3665   0.931E-03    0.467E-02
RMM:  17    -0.230909341690E+04   -0.70157E-03   -0.13546E-04  3685   0.809E-03    0.259E-02
RMM:  18    -0.230909391292E+04   -0.49602E-03   -0.15381E-04  3643   0.789E-03    0.101E-02
RMM:  19    -0.230909401157E+04   -0.98653E-04   -0.31815E-05  3011   0.577E-03    0.142E-02
RMM:  20    -0.230909402568E+04   -0.14105E-04   -0.12072E-05  2810   0.333E-03    0.620E-03
RMM:  21    -0.230909403801E+04   -0.12334E-04   -0.44987E-06  2604   0.250E-03    0.573E-03
RMM:  22    -0.230909404281E+04   -0.47920E-05   -0.27771E-06  2505   0.194E-03
   5 F= -.23295318E+04 E0= -.23295192E+04  d E =-.466985E+01  mag=     2.6410
       N       E                     dE             d eps       ncg     rms          rms(c)
DAV:   1    -0.230828043364E+04    0.81360E+00   -0.28879E+01  4456   0.265E+00    0.251E+00
RMM:   2    -0.230920113645E+04   -0.92070E+00   -0.74965E+00  6134   0.995E-01    0.775E+00
RMM:   3    -0.230900368410E+04    0.19745E+00   -0.84327E-01  5040   0.578E-01    0.193E+00
RMM:   4    -0.230899854261E+04    0.51415E-02   -0.10646E-01  5398   0.938E-02    0.157E+00
RMM:   5    -0.230898036549E+04    0.18177E-01   -0.27076E-02  5490   0.709E-02    0.106E+00
RMM:   6    -0.230897660216E+04    0.37633E-02   -0.10755E-02  5358   0.495E-02    0.351E-01
RMM:   7    -0.230897685190E+04   -0.24974E-03   -0.22668E-03  4845   0.204E-02    0.266E-01
RMM:   8    -0.230897691348E+04   -0.61587E-04   -0.87145E-04  4496   0.145E-02    0.123E-01
RMM:   9    -0.230897758933E+04   -0.67585E-03   -0.48113E-04  4371   0.115E-02    0.968E-02
RMM:  10    -0.230897830378E+04   -0.71445E-03   -0.25572E-04  3881   0.973E-03    0.409E-02
RMM:  11    -0.230897870563E+04   -0.40185E-03   -0.53854E-05  3208   0.620E-03    0.337E-02
RMM:  12    -0.230897926165E+04   -0.55602E-03   -0.71451E-05  3410   0.605E-03    0.246E-02
RMM:  13    -0.230897966645E+04   -0.40480E-03   -0.55898E-05  3352   0.601E-03    0.210E-02
RMM:  14    -0.230897985826E+04   -0.19182E-03   -0.26308E-05  2990   0.472E-03    0.108E-02
RMM:  15    -0.230898001342E+04   -0.15516E-03   -0.23952E-05  3002   0.424E-03    0.917E-03
RMM:  16    -0.230898006813E+04   -0.54707E-04   -0.12394E-05  2821   0.390E-03    0.617E-03
RMM:  17    -0.230898008316E+04   -0.15033E-04   -0.62981E-06  2630   0.291E-03    0.208E-03
RMM:  18    -0.230898008979E+04   -0.66288E-05   -0.35382E-06  2514   0.231E-03
   6 F= -.23294170E+04 E0= -.23294105E+04  d E =-.455502E+01  mag=     2.2144
       N       E                     dE             d eps       ncg     rms          rms(c)
DAV:   1    -0.230858043733E+04    0.39965E+00   -0.16815E+01  4456   0.252E+00    0.199E+00
RMM:   2    -0.230914840006E+04   -0.56796E+00   -0.54577E+00  6358   0.749E-01    0.352E+00
RMM:   3    -0.230917844017E+04   -0.30040E-01   -0.56743E-01  5706   0.296E-01    0.485E+00
RMM:   4    -0.230914700161E+04    0.31439E-01   -0.63199E-02  4881   0.713E-02    0.386E+00
RMM:   5    -0.230909711254E+04    0.49889E-01   -0.51599E-02  5290   0.868E-02    0.201E+00
RMM:   6    -0.230910493630E+04   -0.78238E-02   -0.14762E-02  4736   0.664E-02    0.132E+00
RMM:   7    -0.230910674411E+04   -0.18078E-02   -0.59059E-03  4581   0.337E-02    0.777E-01
RMM:   8    -0.230910882046E+04   -0.20764E-02   -0.40824E-03  4788   0.306E-02    0.463E-01
RMM:   9    -0.230910933541E+04   -0.51495E-03   -0.17109E-03  4578   0.210E-02    0.129E-01
RMM:  10    -0.230910945573E+04   -0.12032E-03   -0.31183E-04  3791   0.969E-03    0.144E-01
RMM:  11    -0.230910943931E+04    0.16426E-04   -0.14467E-04  3118   0.592E-03    0.305E-02
RMM:  12    -0.230910960503E+04   -0.16572E-03   -0.24459E-05  2884   0.408E-03    0.340E-02
RMM:  13    -0.230910975022E+04   -0.14519E-03   -0.17279E-05  2875   0.325E-03    0.393E-02
RMM:  14    -0.230910985898E+04   -0.10876E-03   -0.17407E-05  2859   0.351E-03    0.102E-02
RMM:  15    -0.230910993361E+04   -0.74631E-04   -0.12462E-05  2795   0.329E-03    0.833E-03
RMM:  16    -0.230910997412E+04   -0.40516E-04   -0.10085E-05  2716   0.304E-03    0.485E-03
RMM:  17    -0.230910998330E+04   -0.91798E-05   -0.45495E-06  2573   0.256E-03
   7 F= -.23295476E+04 E0= -.23295359E+04  d E =-.468562E+01  mag=     2.5351
       N       E                     dE             d eps       ncg     rms          rms(c)
DAV:   1    -0.230910699367E+04    0.29805E-02   -0.17424E-01  4832   0.209E-01    0.248E-01
RMM:   2    -0.230911403647E+04   -0.70428E-02   -0.46993E-02  5854   0.691E-02    0.102E+00
RMM:   3    -0.230911163847E+04    0.23980E-02   -0.59107E-03  4725   0.313E-02    0.369E-01
RMM:   4    -0.230911163334E+04    0.51369E-05   -0.87970E-04  3107   0.958E-03    0.346E-01
RMM:   5    -0.230911126997E+04    0.36336E-03   -0.33876E-04  3673   0.786E-03    0.143E-01
RMM:   6    -0.230911123927E+04    0.30698E-04   -0.62937E-05  2879   0.550E-03    0.823E-02
RMM:   7    -0.230911124812E+04   -0.88419E-05   -0.27568E-05  2766   0.339E-03
   8 F= -.23295488E+04 E0= -.23295374E+04  d E =-.468682E+01  mag=     2.5127
       N       E                     dE             d eps       ncg     rms          rms(c)
DAV:   1    -0.230911125007E+04   -0.10794E-04   -0.39571E-04  4336   0.109E-02    0.261E-02
RMM:   2    -0.230911132132E+04   -0.71249E-04   -0.17953E-04  3291   0.489E-03    0.138E-01
RMM:   3    -0.230911126562E+04    0.55692E-04   -0.48312E-05  2484   0.383E-03    0.150E-02
RMM:   4    -0.230911126809E+04   -0.24707E-05   -0.63594E-06  2092   0.148E-03
   9 F= -.23295488E+04 E0= -.23295375E+04  d E =-.468685E+01  mag=     2.5110
       N       E                     dE             d eps       ncg     rms          rms(c)
DAV:   1    -0.230912083097E+04   -0.95653E-02   -0.16777E+00  4448   0.111E+00    0.394E-01
RMM:   2    -0.230914283331E+04   -0.22002E-01   -0.19534E-01  5985   0.248E-01    0.138E+00
RMM:   3    -0.230913935226E+04    0.34810E-02   -0.18718E-02  5694   0.832E-02    0.229E-01
RMM:   4    -0.230913901581E+04    0.33646E-03   -0.28890E-03  4981   0.249E-02    0.178E-01
RMM:   5    -0.230913899145E+04    0.24358E-04   -0.76979E-04  4930   0.179E-02    0.304E-01
RMM:   6    -0.230913878371E+04    0.20774E-03   -0.46468E-04  4886   0.148E-02    0.210E-01
RMM:   7    -0.230913870706E+04    0.76646E-04   -0.95412E-05  3196   0.922E-03    0.117E-01
RMM:   8    -0.230913868780E+04    0.19262E-04   -0.36722E-05  2885   0.413E-03    0.938E-02
RMM:   9    -0.230913866166E+04    0.26143E-04   -0.44356E-05  2941   0.419E-03    0.434E-02
RMM:  10    -0.230913866980E+04   -0.81427E-05   -0.79239E-06  2800   0.334E-03
  10 F= -.23295756E+04 E0= -.23295639E+04  d E =-.267201E-01  mag=     2.5362
       N       E                     dE             d eps       ncg     rms          rms(c)
DAV:   1    -0.230912842611E+04    0.10236E-01   -0.19459E+00  4448   0.120E+00    0.418E-01
RMM:   2    -0.230915318924E+04   -0.24763E-01   -0.22633E-01  5985   0.268E-01    0.140E+00
RMM:   3    -0.230914998100E+04    0.32082E-02   -0.21756E-02  5710   0.896E-02    0.264E-01
RMM:   4    -0.230914952512E+04    0.45588E-03   -0.32259E-03  5026   0.267E-02    0.173E-01
RMM:   5    -0.230914955957E+04   -0.34453E-04   -0.89215E-04  5074   0.194E-02    0.355E-01
RMM:   6    -0.230914926320E+04    0.29637E-03   -0.56102E-04  5000   0.160E-02    0.212E-01
RMM:   7    -0.230914919124E+04    0.71954E-04   -0.10767E-04  3293   0.937E-03    0.126E-01
RMM:   8    -0.230914917074E+04    0.20501E-04   -0.40238E-05  2903   0.434E-03    0.988E-02
RMM:   9    -0.230914915294E+04    0.17804E-04   -0.53750E-05  2977   0.444E-03    0.550E-02
RMM:  10    -0.230914916448E+04   -0.11540E-04   -0.10762E-05  2814   0.365E-03    0.267E-02
RMM:  11    -0.230914918224E+04   -0.17759E-04   -0.76637E-06  2663   0.188E-03    0.964E-03
RMM:  12    -0.230914919565E+04   -0.13409E-04   -0.31863E-06  2680   0.194E-03    0.605E-03
RMM:  13    -0.230914920304E+04   -0.73934E-05   -0.19164E-06  2561   0.150E-03
  11 F= -.23295853E+04 E0= -.23295731E+04  d E =-.364595E-01  mag=     2.5863
       N       E                     dE             d eps       ncg     rms          rms(c)
DAV:   1    -0.230915839916E+04   -0.92035E-02   -0.88756E-01  4480   0.778E-01    0.287E-01
RMM:   2    -0.230916869999E+04   -0.10301E-01   -0.88142E-02  6052   0.167E-01    0.970E-01
RMM:   3    -0.230916666662E+04    0.20334E-02   -0.80502E-03  5553   0.538E-02    0.302E-01
RMM:   4    -0.230916664121E+04    0.25412E-04   -0.12881E-03  4315   0.160E-02    0.299E-01
RMM:   5    -0.230916635767E+04    0.28354E-03   -0.24831E-04  3606   0.911E-03    0.583E-02
RMM:   6    -0.230916636780E+04   -0.10128E-04   -0.21633E-04  4186   0.966E-03    0.165E-01
RMM:   7    -0.230916635128E+04    0.16518E-04   -0.27223E-05  2874   0.635E-03    0.121E-01
RMM:   8    -0.230916633875E+04    0.12525E-04   -0.25875E-05  2840   0.294E-03    0.761E-02
RMM:   9    -0.230916632668E+04    0.12076E-04   -0.11949E-05  2786   0.265E-03    0.903E-03
RMM:  10    -0.230916632759E+04   -0.91031E-06   -0.29323E-06  2550   0.188E-03
  12 F= -.23296025E+04 E0= -.23295904E+04  d E =-.171597E-01  mag=     2.5810
       N       E                     dE             d eps       ncg     rms          rms(c)
DAV:   1    -0.230912635568E+04    0.39971E-01   -0.79718E+00  4408   0.234E+00    0.838E-01
RMM:   2    -0.230921564111E+04   -0.89285E-01   -0.80613E-01  6060   0.506E-01    0.268E+00
RMM:   3    -0.230920183013E+04    0.13811E-01   -0.74217E-02  5832   0.161E-01    0.871E-01
RMM:   4    -0.230920073651E+04    0.10936E-02   -0.11491E-02  5599   0.477E-02    0.719E-01
RMM:   5    -0.230919889318E+04    0.18433E-02   -0.20376E-03  4984   0.238E-02    0.197E-01
RMM:   6    -0.230919873963E+04    0.15355E-03   -0.21177E-03  5163   0.265E-02    0.397E-01
RMM:   7    -0.230919870433E+04    0.35303E-04   -0.18930E-04  3847   0.146E-02    0.330E-01
RMM:   8    -0.230919862768E+04    0.76651E-04   -0.13085E-04  3349   0.566E-03    0.230E-01
RMM:   9    -0.230919852570E+04    0.10198E-03   -0.97504E-05  3107   0.544E-03    0.278E-02
RMM:  10    -0.230919852981E+04   -0.41047E-05   -0.19085E-05  2832   0.399E-03
  13 F= -.23296347E+04 E0= -.23296228E+04  d E =-.493574E-01  mag=     2.5650
       N       E                     dE             d eps       ncg     rms          rms(c)
DAV:   1    -0.230887815770E+04    0.32037E+00   -0.31748E+01  4400   0.467E+00    0.161E+00
RMM:   2    -0.230920858392E+04   -0.33043E+00   -0.33231E+00  6071   0.104E+00    0.381E+00
RMM:   3    -0.230919119415E+04    0.17390E-01   -0.27823E-01  5884   0.313E-01    0.194E+00
RMM:   4    -0.230917938397E+04    0.11810E-01   -0.42418E-02  5932   0.945E-02    0.867E-01
RMM:   5    -0.230917626624E+04    0.31177E-02   -0.78668E-03  4928   0.433E-02    0.495E-01
RMM:   6    -0.230917468497E+04    0.15813E-02   -0.76385E-03  5238   0.495E-02    0.444E-01
RMM:   7    -0.230917527405E+04   -0.58908E-03   -0.74001E-04  4660   0.261E-02    0.626E-01
RMM:   8    -0.230917512733E+04    0.14672E-03   -0.24747E-04  3864   0.889E-03    0.525E-01
RMM:   9    -0.230917451690E+04    0.61043E-03   -0.66222E-04  4269   0.114E-02    0.374E-02
RMM:  10    -0.230917452989E+04   -0.12991E-04   -0.71785E-05  2913   0.692E-03    0.464E-02
RMM:  11    -0.230917452671E+04    0.31814E-05   -0.26459E-05  2877   0.426E-03
  14 F= -.23296102E+04 E0= -.23295981E+04  d E =-.249033E-01  mag=     2.5723
       N       E                     dE             d eps       ncg     rms          rms(c)
DAV:   1    -0.230905982634E+04    0.11470E+00   -0.15937E+01  4408   0.327E+00    0.115E+00
RMM:   2    -0.230922487106E+04   -0.16504E+00   -0.15525E+00  6039   0.678E-01    0.245E+00
RMM:   3    -0.230921120388E+04    0.13667E-01   -0.15216E-01  5877   0.228E-01    0.162E+00
RMM:   4    -0.230920662170E+04    0.45822E-02   -0.18732E-02  5437   0.603E-02    0.767E-01
RMM:   5    -0.230920447581E+04    0.21459E-02   -0.39500E-03  5270   0.347E-02    0.543E-01
RMM:   6    -0.230920498997E+04   -0.51416E-03   -0.16792E-03  4804   0.248E-02    0.720E-01
RMM:   7    -0.230920404523E+04    0.94474E-03   -0.12396E-03  4500   0.191E-02    0.292E-01
RMM:   8    -0.230920379663E+04    0.24860E-03   -0.62041E-04  4615   0.138E-02    0.171E-01
RMM:   9    -0.230920377090E+04    0.25729E-04   -0.15385E-04  3544   0.935E-03    0.148E-01
RMM:  10    -0.230920381018E+04   -0.39288E-04   -0.10030E-04  3044   0.561E-03    0.293E-02
RMM:  11    -0.230920382196E+04   -0.11773E-04   -0.24744E-05  2854   0.365E-03    0.248E-02
RMM:  12    -0.230920382241E+04   -0.45048E-06   -0.68763E-06  2820   0.259E-03
  15 F= -.23296399E+04 E0= -.23296279E+04  d E =-.545730E-01  mag=     2.5661
       N       E                     dE             d eps       ncg     rms          rms(c)
DAV:   1    -0.230920424331E+04   -0.42135E-03   -0.21759E+00  4416   0.113E+00    0.420E-01
RMM:   2    -0.230922650068E+04   -0.22257E-01   -0.23690E-01  6028   0.262E-01    0.663E-01
RMM:   3    -0.230922743730E+04   -0.93662E-03   -0.21737E-02  5814   0.820E-02    0.427E-01
RMM:   4    -0.230922710338E+04    0.33392E-03   -0.29140E-03  5253   0.264E-02    0.327E-01
RMM:   5    -0.230922664433E+04    0.45905E-03   -0.96300E-04  5018   0.200E-02    0.815E-02
RMM:   6    -0.230922668483E+04   -0.40502E-04   -0.20711E-04  4046   0.101E-02    0.152E-01
RMM:   7    -0.230922671325E+04   -0.28423E-04   -0.61900E-05  3143   0.611E-03    0.139E-01
RMM:   8    -0.230922670660E+04    0.66578E-05   -0.68240E-05  3034   0.527E-03
  16 F= -.23296628E+04 E0= -.23296506E+04  d E =-.229203E-01  mag=     2.5933
       N       E                     dE             d eps       ncg     rms          rms(c)
DAV:   1    -0.230917764814E+04    0.49065E-01   -0.62124E+00  4408   0.191E+00    0.785E-01
RMM:   2    -0.230923832701E+04   -0.60679E-01   -0.67544E-01  6033   0.441E-01    0.457E-01
RMM:   3    -0.230924251245E+04   -0.41854E-02   -0.64912E-02  5406   0.139E-01    0.599E-01
RMM:   4    -0.230924523938E+04   -0.27269E-02   -0.98500E-03  5659   0.402E-02    0.118E+00
RMM:   5    -0.230924160186E+04    0.36375E-02   -0.27070E-03  5369   0.274E-02    0.162E-01
RMM:   6    -0.230924187140E+04   -0.26953E-03   -0.10671E-03  4920   0.179E-02    0.447E-01
RMM:   7    -0.230924190826E+04   -0.36865E-04   -0.34828E-04  3960   0.119E-02    0.323E-01
RMM:   8    -0.230924193397E+04   -0.25702E-04   -0.46045E-04  4051   0.106E-02    0.110E-01
RMM:   9    -0.230924200560E+04   -0.71634E-04   -0.84551E-05  3358   0.848E-03    0.129E-01
RMM:  10    -0.230924197273E+04    0.32872E-04   -0.51624E-05  2905   0.542E-03    0.460E-02
RMM:  11    -0.230924198423E+04   -0.11506E-04   -0.15128E-05  2830   0.365E-03    0.104E-02
RMM:  12    -0.230924201370E+04   -0.29463E-04   -0.10082E-05  2828   0.292E-03    0.802E-03
RMM:  13    -0.230924203075E+04   -0.17056E-04   -0.47164E-06  2781   0.264E-03    0.996E-03
RMM:  14    -0.230924203885E+04   -0.81004E-05   -0.34941E-06  2652   0.212E-03
  17 F= -.23296781E+04 E0= -.23296651E+04  d E =-.382279E-01  mag=     2.6841
       N       E                     dE             d eps       ncg     rms          rms(c)
DAV:   1    -0.230923488315E+04    0.71476E-02   -0.25550E+00  4408   0.134E+00    0.926E-01
RMM:   2    -0.230928931604E+04   -0.54433E-01   -0.33731E-01  5978   0.300E-01    0.290E+00
RMM:   3    -0.230927165825E+04    0.17658E-01   -0.53951E-02  5862   0.119E-01    0.210E+00
RMM:   4    -0.230926695071E+04    0.47075E-02   -0.64320E-03  4668   0.361E-02    0.152E+00
RMM:   5    -0.230926232499E+04    0.46257E-02   -0.54146E-03  5549   0.348E-02    0.101E+00
RMM:   6    -0.230926206051E+04    0.26448E-03   -0.16213E-03  4441   0.239E-02    0.667E-01
RMM:   7    -0.230926163598E+04    0.42453E-03   -0.85903E-04  4105   0.130E-02    0.197E-01
RMM:   8    -0.230926184720E+04   -0.21121E-03   -0.38875E-04  4064   0.112E-02    0.785E-02
RMM:   9    -0.230926192952E+04   -0.82327E-04   -0.10009E-04  3348   0.743E-03    0.267E-02
RMM:  10    -0.230926194851E+04   -0.18985E-04   -0.18755E-05  2840   0.471E-03    0.396E-02
RMM:  11    -0.230926195869E+04   -0.10185E-04   -0.96693E-06  2824   0.327E-03    0.972E-03
RMM:  12    -0.230926198083E+04   -0.22134E-04   -0.58982E-06  2799   0.260E-03    0.463E-03
RMM:  13    -0.230926199224E+04   -0.11410E-04   -0.36362E-06  2706   0.235E-03    0.473E-03
RMM:  14    -0.230926199811E+04   -0.58748E-05   -0.24747E-06  2585   0.187E-03
  18 F= -.23296981E+04 E0= -.23296845E+04  d E =-.200461E-01  mag=     2.7875
       N       E                     dE             d eps       ncg     rms          rms(c)
DAV:   1    -0.230921121505E+04    0.50777E-01   -0.58107E+00  4400   0.203E+00    0.154E+00
RMM:   2    -0.230935352104E+04   -0.14231E+00   -0.79913E-01  5974   0.460E-01    0.467E+00
RMM:   3    -0.230929735712E+04    0.56164E-01   -0.14211E-01  5827   0.188E-01    0.304E+00
RMM:   4    -0.230928385540E+04    0.13502E-01   -0.16180E-02  4720   0.552E-02    0.221E+00
RMM:   5    -0.230927231987E+04    0.11536E-01   -0.14480E-02  5492   0.566E-02    0.171E+00
RMM:   6    -0.230927242473E+04   -0.10486E-03   -0.45900E-03  4667   0.393E-02    0.111E+00
RMM:   7    -0.230927147989E+04    0.94484E-03   -0.26948E-03  4459   0.221E-02    0.301E-01
RMM:   8    -0.230927196902E+04   -0.48913E-03   -0.98267E-04  4474   0.178E-02    0.133E-01
RMM:   9    -0.230927219156E+04   -0.22254E-03   -0.25279E-04  4088   0.108E-02    0.355E-02
RMM:  10    -0.230927226274E+04   -0.71184E-04   -0.36282E-05  3014   0.544E-03    0.729E-02
RMM:  11    -0.230927229806E+04   -0.35315E-04   -0.18812E-05  2842   0.414E-03    0.221E-02
RMM:  12    -0.230927237214E+04   -0.74083E-04   -0.15637E-05  2849   0.358E-03    0.187E-02
RMM:  13    -0.230927240687E+04   -0.34725E-04   -0.90630E-06  2815   0.341E-03    0.772E-03
RMM:  14    -0.230927242660E+04   -0.19733E-04   -0.61207E-06  2760   0.262E-03    0.986E-03
RMM:  15    -0.230927243417E+04   -0.75703E-05   -0.34082E-06  2601   0.240E-03
  19 F= -.23297087E+04 E0= -.23296946E+04  d E =-.305938E-01  mag=     2.9653
       N       E                     dE             d eps       ncg     rms          rms(c)
DAV:   1    -0.230927604611E+04   -0.36195E-02   -0.81089E-01  4512   0.689E-01    0.793E-01
RMM:   2    -0.230932093937E+04   -0.44893E-01   -0.14011E-01  6092   0.177E-01    0.357E+00
RMM:   3    -0.230928873840E+04    0.32201E-01   -0.39107E-02  5788   0.817E-02    0.146E+00
RMM:   4    -0.230928840012E+04    0.33828E-03   -0.46564E-03  3953   0.284E-02    0.136E+00
RMM:   5    -0.230928394489E+04    0.44552E-02   -0.21849E-03  4901   0.218E-02    0.401E-01
RMM:   6    -0.230928408557E+04   -0.14068E-03   -0.73009E-04  3877   0.165E-02    0.352E-01
RMM:   7    -0.230928399198E+04    0.93595E-04   -0.31624E-04  3527   0.914E-03    0.347E-02
RMM:   8    -0.230928409769E+04   -0.10571E-03   -0.85577E-05  3149   0.647E-03    0.150E-02
RMM:   9    -0.230928415825E+04   -0.60553E-04   -0.19364E-05  2862   0.457E-03    0.306E-02
RMM:  10    -0.230928418047E+04   -0.22221E-04   -0.66933E-06  2801   0.304E-03    0.254E-02
RMM:  11    -0.230928420112E+04   -0.20657E-04   -0.48349E-06  2696   0.225E-03    0.170E-02
RMM:  12    -0.230928422792E+04   -0.26798E-04   -0.56858E-06  2669   0.209E-03    0.650E-03
RMM:  13    -0.230928423842E+04   -0.10497E-04   -0.26342E-06  2584   0.196E-03    0.231E-03
RMM:  14    -0.230928424232E+04   -0.39044E-05   -0.16231E-06  2453   0.147E-03
  20 F= -.23297209E+04 E0= -.23297068E+04  d E =-.121766E-01  mag=     3.0626
       N       E                     dE             d eps       ncg     rms          rms(c)
DAV:   1    -0.230923921991E+04    0.45019E-01   -0.72853E+00  4400   0.207E+00    0.216E+00
RMM:   2    -0.230951534059E+04   -0.27612E+00   -0.11819E+00  6076   0.527E-01    0.704E+00
RMM:   3    -0.230934327732E+04    0.17206E+00   -0.27602E-01  5665   0.226E-01    0.257E+00
RMM:   4    -0.230932515645E+04    0.18121E-01   -0.26403E-02  4695   0.700E-02    0.187E+00
RMM:   5    -0.230930724688E+04    0.17910E-01   -0.15862E-02  5233   0.566E-02    0.577E-01
RMM:   6    -0.230931031374E+04   -0.30669E-02   -0.37466E-03  4535   0.368E-02    0.862E-01
RMM:   7    -0.230931168166E+04   -0.13679E-02   -0.32107E-03  4274   0.247E-02    0.257E-01
RMM:   8    -0.230931248713E+04   -0.80546E-03   -0.84416E-04  4287   0.162E-02    0.639E-02
RMM:   9    -0.230931299043E+04   -0.50330E-03   -0.20507E-04  3914   0.968E-03    0.994E-02
RMM:  10    -0.230931336385E+04   -0.37342E-03   -0.54886E-05  3226   0.644E-03    0.527E-02
RMM:  11    -0.230931373576E+04   -0.37191E-03   -0.45704E-05  3294   0.522E-03    0.289E-02
RMM:  12    -0.230931404903E+04   -0.31327E-03   -0.52478E-05  3386   0.548E-03    0.174E-02
RMM:  13    -0.230931415895E+04   -0.10992E-03   -0.23367E-05  2930   0.458E-03    0.470E-03
RMM:  14    -0.230931419960E+04   -0.40648E-04   -0.12694E-05  2844   0.353E-03    0.487E-03
RMM:  15    -0.230931420804E+04   -0.84419E-05   -0.43394E-06  2631   0.289E-03
  21 F= -.23297519E+04 E0= -.23297396E+04  d E =-.432323E-01  mag=     3.3933
       N       E                     dE             d eps       ncg     rms          rms(c)
DAV:   1    -0.230903941245E+04    0.27479E+00   -0.29024E+01  4400   0.414E+00    0.249E+00
RMM:   2    -0.230945647743E+04   -0.41706E+00   -0.35736E+00  6195   0.982E-01    0.511E+00
RMM:   3    -0.230939657609E+04    0.59901E-01   -0.45969E-01  5844   0.331E-01    0.192E+00
RMM:   4    -0.230936478307E+04    0.31793E-01   -0.48412E-02  5516   0.955E-02    0.103E+00
RMM:   5    -0.230935974103E+04    0.50420E-02   -0.95665E-03  5040   0.458E-02    0.674E-01
RMM:   6    -0.230935232021E+04    0.74208E-02   -0.13658E-02  4708   0.606E-02    0.180E-01
RMM:   7    -0.230935377039E+04   -0.14502E-02   -0.20767E-03  4469   0.354E-02    0.109E-01
RMM:   8    -0.230935558969E+04   -0.18193E-02   -0.57046E-04  4115   0.134E-02    0.778E-02
RMM:   9    -0.230935753553E+04   -0.19458E-02   -0.30200E-04  3895   0.122E-02    0.552E-02
RMM:  10    -0.230935890650E+04   -0.13710E-02   -0.16783E-04  3714   0.933E-03    0.377E-02
RMM:  11    -0.230936026539E+04   -0.13589E-02   -0.21605E-04  3769   0.996E-03    0.198E-02
RMM:  12    -0.230936089242E+04   -0.62703E-03   -0.12494E-04  3661   0.844E-03    0.128E-02
RMM:  13    -0.230936110578E+04   -0.21336E-03   -0.45694E-05  3250   0.547E-03    0.601E-03
RMM:  14    -0.230936117422E+04   -0.68439E-04   -0.12139E-05  2836   0.381E-03    0.288E-03
RMM:  15    -0.230936119720E+04   -0.22984E-04   -0.57765E-06  2746   0.288E-03    0.170E-03
RMM:  16    -0.230936120687E+04   -0.96692E-05   -0.36393E-06  2531   0.223E-03
  22 F= -.23298010E+04 E0= -.23298001E+04  d E =-.923449E-01  mag=     3.9800
       N       E                     dE             d eps       ncg     rms          rms(c)
DAV:   1    -0.230795984567E+04    0.14014E+01   -0.11473E+02  4400   0.827E+00    0.330E+00
RMM:   2    -0.230925954779E+04   -0.12997E+01   -0.13435E+01  6246   0.202E+00    0.294E+00
RMM:   3    -0.230935445112E+04   -0.94903E-01   -0.15886E+00  5848   0.676E-01    0.294E+00
RMM:   4    -0.230930247389E+04    0.51977E-01   -0.14992E-01  6186   0.163E-01    0.957E-01
RMM:   5    -0.230929372399E+04    0.87499E-02   -0.35782E-02  5352   0.904E-02    0.559E-01
RMM:   6    -0.230929157809E+04    0.21459E-02   -0.15692E-02  5226   0.665E-02    0.228E-01
RMM:   7    -0.230929142418E+04    0.15392E-03   -0.27776E-03  5190   0.404E-02    0.115E-01
RMM:   8    -0.230929126551E+04    0.15866E-03   -0.58777E-04  4440   0.162E-02    0.650E-02
RMM:   9    -0.230929121251E+04    0.53001E-04   -0.28787E-04  3973   0.115E-02    0.451E-02
RMM:  10    -0.230929119140E+04    0.21110E-04   -0.66801E-05  3247   0.621E-03    0.124E-02
RMM:  11    -0.230929119072E+04    0.67924E-06   -0.17310E-05  2856   0.481E-03
  23 F= -.23297347E+04 E0= -.23297347E+04  d E =-.259998E-01  mag=     3.9974
       N       E                     dE             d eps       ncg     rms          rms(c)
DAV:   1    -0.230865259065E+04    0.63860E+00   -0.64942E+01  4400   0.627E+00    0.234E+00
RMM:   2    -0.230932560520E+04   -0.67301E+00   -0.70735E+00  6136   0.131E+00    0.126E+00
RMM:   3    -0.230937914708E+04   -0.53542E-01   -0.70869E-01  5779   0.444E-01    0.114E+00
RMM:   4    -0.230937619417E+04    0.29529E-02   -0.71045E-02  6161   0.996E-02    0.788E-01
RMM:   5    -0.230937137821E+04    0.48160E-02   -0.12399E-02  5324   0.557E-02    0.422E-01
RMM:   6    -0.230936987721E+04    0.15010E-02   -0.63630E-03  5347   0.459E-02    0.160E-01
RMM:   7    -0.230936975024E+04    0.12697E-03   -0.80496E-04  4833   0.252E-02    0.540E-02
RMM:   8    -0.230936973454E+04    0.15702E-04   -0.15205E-04  3797   0.859E-03    0.319E-02
RMM:   9    -0.230936972589E+04    0.86552E-05   -0.43779E-05  3108   0.647E-03
  24 F= -.23298106E+04 E0= -.23298105E+04  d E =-.101864E+00  mag=     3.9990
       N       E                     dE             d eps       ncg     rms          rms(c)
DAV:   1    -0.230937335254E+04   -0.36180E-02   -0.86329E-01  4464   0.652E-01    0.246E-01
RMM:   2    -0.230938104390E+04   -0.76914E-02   -0.79789E-02  6376   0.143E-01    0.169E-01
RMM:   3    -0.230938170012E+04   -0.65623E-03   -0.77204E-03  5203   0.410E-02    0.202E-01
RMM:   4    -0.230938146175E+04    0.23837E-03   -0.85700E-04  3332   0.112E-02    0.721E-02
RMM:   5    -0.230938141656E+04    0.45191E-04   -0.16641E-04  3150   0.736E-03    0.381E-02
RMM:   6    -0.230938141830E+04   -0.17452E-05   -0.75994E-05  3045   0.590E-03
  25 F= -.23298227E+04 E0= -.23298226E+04  d E =-.120974E-01  mag=     3.9996
       N       E                     dE             d eps       ncg     rms          rms(c)
DAV:   1    -0.230933440129E+04    0.47015E-01   -0.77691E+00  4400   0.196E+00    0.747E-01
RMM:   2    -0.230940443775E+04   -0.70036E-01   -0.72661E-01  6349   0.438E-01    0.551E-01
RMM:   3    -0.230941049652E+04   -0.60588E-02   -0.75667E-02  5938   0.127E-01    0.637E-01
RMM:   4    -0.230940809968E+04    0.23968E-02   -0.80740E-03  5352   0.336E-02    0.222E-01
RMM:   5    -0.230940765005E+04    0.44963E-03   -0.16308E-03  4544   0.197E-02    0.123E-01
RMM:   6    -0.230940761363E+04    0.36419E-04   -0.76733E-04  4517   0.153E-02    0.527E-02
RMM:   7    -0.230940760123E+04    0.12404E-04   -0.90361E-05  3147   0.744E-03    0.231E-02
RMM:   8    -0.230940759490E+04    0.63271E-05   -0.30025E-05  2848   0.460E-03
  26 F= -.23298500E+04 E0= -.23298500E+04  d E =-.394696E-01  mag=     3.9999
       N       E                     dE             d eps       ncg     rms          rms(c)
DAV:   1    -0.230912514387E+04    0.28246E+00   -0.30991E+01  4400   0.391E+00    0.150E+00
RMM:   2    -0.230940816346E+04   -0.28302E+00   -0.29307E+00  6369   0.896E-01    0.124E+00
RMM:   3    -0.230943311732E+04   -0.24954E-01   -0.33976E-01  5960   0.276E-01    0.133E+00
RMM:   4    -0.230942223977E+04    0.10878E-01   -0.32729E-02  6061   0.705E-02    0.454E-01
RMM:   5    -0.230942040837E+04    0.18314E-02   -0.74096E-03  5074   0.388E-02    0.256E-01
RMM:   6    -0.230942019712E+04    0.21125E-03   -0.34283E-03  5096   0.299E-02    0.107E-01
RMM:   7    -0.230942015104E+04    0.46084E-04   -0.44293E-04  4215   0.145E-02    0.494E-02
RMM:   8    -0.230942012001E+04    0.31022E-04   -0.12509E-04  2989   0.723E-03    0.234E-02
RMM:   9    -0.230942011874E+04    0.12719E-05   -0.44746E-05  2918   0.437E-03
  27 F= -.23298649E+04 E0= -.23298649E+04  d E =-.543273E-01  mag=     4.0000
       N       E                     dE             d eps       ncg     rms          rms(c)
DAV:   1    -0.230944566561E+04   -0.25546E-01   -0.59324E-01  4744   0.723E-01    0.289E-01
RMM:   2    -0.230945090258E+04   -0.52370E-02   -0.58059E-02  5930   0.147E-01    0.197E-01
RMM:   3    -0.230945136268E+04   -0.46011E-03   -0.64497E-03  5569   0.533E-02    0.251E-01
RMM:   4    -0.230945086778E+04    0.49490E-03   -0.71712E-04  4791   0.158E-02    0.716E-02
RMM:   5    -0.230945078335E+04    0.84434E-04   -0.34095E-04  4408   0.133E-02    0.330E-02
RMM:   6    -0.230945077142E+04    0.11922E-04   -0.54026E-05  3396   0.902E-03    0.119E-02
RMM:   7    -0.230945076750E+04    0.39231E-05   -0.18027E-05  2886   0.432E-03
  28 F= -.23298959E+04 E0= -.23298959E+04  d E =-.310111E-01  mag=     4.0000
       N       E                     dE             d eps       ncg     rms          rms(c)
DAV:   1    -0.230946015828E+04   -0.93869E-02   -0.53328E+00  4400   0.216E+00    0.869E-01
RMM:   2    -0.230950784892E+04   -0.47691E-01   -0.52895E-01  5934   0.445E-01    0.595E-01
RMM:   3    -0.230951128030E+04   -0.34314E-02   -0.54895E-02  5778   0.157E-01    0.727E-01
RMM:   4    -0.230950712144E+04    0.41589E-02   -0.62632E-03  5730   0.469E-02    0.219E-01
RMM:   5    -0.230950630415E+04    0.81729E-03   -0.28975E-03  4918   0.369E-02    0.947E-02
RMM:   6    -0.230950619002E+04    0.11413E-03   -0.53057E-04  4586   0.222E-02    0.399E-02
RMM:   7    -0.230950614664E+04    0.43375E-04   -0.14112E-04  3859   0.890E-03    0.207E-02
RMM:   8    -0.230950612770E+04    0.18946E-04   -0.31838E-05  3125   0.699E-03    0.119E-02
RMM:   9    -0.230950612018E+04    0.75166E-05   -0.26615E-05  3178   0.480E-03
  29 F= -.23299523E+04 E0= -.23299523E+04  d E =-.874598E-01  mag=     4.0000
       N       E                     dE             d eps       ncg     rms          rms(c)
DAV:   1    -0.230926171663E+04    0.24441E+00   -0.21329E+01  4400   0.434E+00    0.176E+00
RMM:   2    -0.230945465240E+04   -0.19294E+00   -0.21450E+00  5928   0.894E-01    0.122E+00
RMM:   3    -0.230946672580E+04   -0.12073E-01   -0.23099E-01  5718   0.309E-01    0.137E+00
RMM:   4    -0.230945151909E+04    0.15207E-01   -0.24986E-02  5751   0.944E-02    0.450E-01
RMM:   5    -0.230944825734E+04    0.32618E-02   -0.11732E-02  4967   0.730E-02    0.193E-01
RMM:   6    -0.230944772858E+04    0.52876E-03   -0.25133E-03  4904   0.444E-02    0.900E-02
RMM:   7    -0.230944755455E+04    0.17403E-03   -0.61599E-04  4646   0.186E-02    0.437E-02
RMM:   8    -0.230944747334E+04    0.81211E-04   -0.15200E-04  4251   0.122E-02    0.280E-02
RMM:   9    -0.230944744084E+04    0.32505E-04   -0.96067E-05  3874   0.798E-03    0.146E-02
RMM:  10    -0.230944744163E+04   -0.79007E-06   -0.31427E-05  3122   0.617E-03
  30 F= -.23298959E+04 E0= -.23298959E+04  d E =-.310239E-01  mag=     4.0000
       N       E                     dE             d eps       ncg     rms          rms(c)
DAV:   1    -0.230941140320E+04    0.36038E-01   -0.11995E+01  4400   0.323E+00    0.129E+00
RMM:   2    -0.230951481174E+04   -0.10341E+00   -0.11505E+00  5897   0.640E-01    0.857E-01
RMM:   3    -0.230952348679E+04   -0.86750E-02   -0.13290E-01  5722   0.236E-01    0.101E+00
RMM:   4    -0.230951499170E+04    0.84951E-02   -0.13806E-02  5746   0.697E-02    0.320E-01
RMM:   5    -0.230951332519E+04    0.16665E-02   -0.60814E-03  4895   0.529E-02    0.139E-01
RMM:   6    -0.230951305737E+04    0.26783E-03   -0.13433E-03  5091   0.313E-02    0.584E-02
RMM:   7    -0.230951296141E+04    0.95958E-04   -0.24579E-04  4549   0.119E-02    0.325E-02
RMM:   8    -0.230951291348E+04    0.47931E-04   -0.81368E-05  3898   0.819E-03    0.153E-02
RMM:   9    -0.230951289815E+04    0.15329E-04   -0.28354E-05  3097   0.561E-03    0.111E-02
RMM:  10    -0.230951289290E+04    0.52456E-05   -0.12060E-05  2825   0.430E-03
  31 F= -.23299597E+04 E0= -.23299597E+04  d E =-.947889E-01  mag=     4.0000
       N       E                     dE             d eps       ncg     rms          rms(c)
DAV:   1    -0.230952794257E+04   -0.15044E-01   -0.12199E+00  4464   0.103E+00    0.407E-01
RMM:   2    -0.230954118449E+04   -0.13242E-01   -0.14510E-01  5893   0.203E-01    0.315E-01
RMM:   3    -0.230954176496E+04   -0.58047E-03   -0.14132E-02  5564   0.794E-02    0.294E-01
RMM:   4    -0.230954105501E+04    0.70995E-03   -0.15094E-03  5183   0.209E-02    0.973E-02
RMM:   5    -0.230954083101E+04    0.22400E-03   -0.57997E-04  4853   0.161E-02    0.464E-02
RMM:   6    -0.230954078275E+04    0.48256E-04   -0.17637E-04  4457   0.110E-02    0.319E-02
RMM:   7    -0.230954076053E+04    0.22223E-04   -0.35589E-05  3164   0.595E-03    0.120E-02
RMM:   8    -0.230954075189E+04    0.86342E-05   -0.17271E-05  2864   0.437E-03
  32 F= -.23299878E+04 E0= -.23299878E+04  d E =-.280797E-01  mag=     4.0000
       N       E                     dE             d eps       ncg     rms          rms(c)
DAV:   1    -0.230951043377E+04    0.30327E-01   -0.50165E+00  4400   0.209E+00    0.829E-01
RMM:   2    -0.230956515743E+04   -0.54724E-01   -0.60035E-01  5905   0.415E-01    0.634E-01
RMM:   3    -0.230956698959E+04   -0.18322E-02   -0.56951E-02  5677   0.153E-01    0.564E-01
RMM:   4    -0.230956434084E+04    0.26487E-02   -0.61270E-03  5605   0.418E-02    0.198E-01
RMM:   5    -0.230956341486E+04    0.92598E-03   -0.22830E-03  5027   0.309E-02    0.956E-02
RMM:   6    -0.230956320240E+04    0.21246E-03   -0.70609E-04  4919   0.214E-02    0.722E-02
RMM:   7    -0.230956310614E+04    0.96261E-04   -0.16956E-04  4357   0.108E-02    0.252E-02
RMM:   8    -0.230956307570E+04    0.30432E-04   -0.54122E-05  3403   0.644E-03    0.132E-02
RMM:   9    -0.230956307105E+04    0.46523E-05   -0.37437E-05  3256   0.564E-03
  33 F= -.23300105E+04 E0= -.23300105E+04  d E =-.507933E-01  mag=     4.0000
       N       E                     dE             d eps       ncg     rms          rms(c)
DAV:   1    -0.230957081343E+04   -0.77377E-02   -0.15619E+00  4560   0.110E+00    0.417E-01
RMM:   2    -0.230959027071E+04   -0.19457E-01   -0.19661E-01  5961   0.226E-01    0.479E-01
RMM:   3    -0.230959003052E+04    0.24018E-03   -0.20593E-02  5639   0.854E-02    0.241E-01
RMM:   4    -0.230958971669E+04    0.31383E-03   -0.22455E-03  4993   0.208E-02    0.105E-01
RMM:   5    -0.230958956436E+04    0.15233E-03   -0.36655E-04  4491   0.146E-02    0.691E-02
RMM:   6    -0.230958953550E+04    0.28856E-04   -0.23210E-04  4113   0.118E-02    0.236E-02
RMM:   7    -0.230958953276E+04    0.27454E-05   -0.24003E-05  2881   0.660E-03
  34 F= -.23300365E+04 E0= -.23300365E+04  d E =-.260847E-01  mag=     4.0000
       N       E                     dE             d eps       ncg     rms          rms(c)
DAV:   1    -0.230949207309E+04    0.97462E-01   -0.10507E+01  4400   0.286E+00    0.110E+00
RMM:   2    -0.230962691635E+04   -0.13484E+00   -0.13586E+00  5979   0.596E-01    0.131E+00
RMM:   3    -0.230962197675E+04    0.49396E-02   -0.13608E-01  5767   0.213E-01    0.597E-01
RMM:   4    -0.230962017767E+04    0.17991E-02   -0.14888E-02  5214   0.526E-02    0.275E-01
RMM:   5    -0.230961913511E+04    0.10426E-02   -0.26507E-03  4964   0.369E-02    0.194E-01
RMM:   6    -0.230961885887E+04    0.27624E-03   -0.16943E-03  4997   0.288E-02    0.751E-02
RMM:   7    -0.230961880130E+04    0.57564E-04   -0.17469E-04  4161   0.132E-02    0.288E-02
RMM:   8    -0.230961879721E+04    0.40937E-05   -0.43505E-05  3087   0.509E-03
  35 F= -.23300646E+04 E0= -.23300646E+04  d E =-.540868E-01  mag=     4.0000
       N       E                     dE             d eps       ncg     rms          rms(c)
DAV:   1    -0.230960608092E+04    0.12720E-01   -0.23802E+00  4424   0.129E+00    0.488E-01
RMM:   2    -0.230964519918E+04   -0.39118E-01   -0.41625E-01  6129   0.278E-01    0.436E-01
RMM:   3    -0.230964856672E+04   -0.33675E-02   -0.48506E-02  5625   0.112E-01    0.325E-01
RMM:   4    -0.230964800591E+04    0.56081E-03   -0.43920E-03  5163   0.238E-02    0.139E-01
RMM:   5    -0.230964773936E+04    0.26655E-03   -0.53793E-04  4302   0.131E-02    0.855E-02
RMM:   6    -0.230964766887E+04    0.70490E-04   -0.48363E-04  4437   0.126E-02    0.391E-02
RMM:   7    -0.230964766190E+04    0.69711E-05   -0.71462E-05  3006   0.910E-03
  36 F= -.23300929E+04 E0= -.23300929E+04  d E =-.283822E-01  mag=     4.0000
       N       E                     dE             d eps       ncg     rms          rms(c)
DAV:   1    -0.230930769043E+04    0.33998E+00   -0.21339E+01  4400   0.388E+00    0.149E+00
RMM:   2    -0.230966887684E+04   -0.36119E+00   -0.38172E+00  6136   0.857E-01    0.149E+00
RMM:   3    -0.230969774239E+04   -0.28866E-01   -0.49624E-01  5802   0.340E-01    0.103E+00
RMM:   4    -0.230969196150E+04    0.57809E-02   -0.42711E-02  6027   0.736E-02    0.436E-01
RMM:   5    -0.230968934390E+04    0.26176E-02   -0.57335E-03  5262   0.365E-02    0.274E-01
RMM:   6    -0.230968857124E+04    0.77266E-03   -0.43585E-03  4802   0.335E-02    0.138E-01
RMM:   7    -0.230968848860E+04    0.82645E-04   -0.70480E-04  4843   0.236E-02    0.574E-02
RMM:   8    -0.230968844165E+04    0.46953E-04   -0.19721E-04  3601   0.876E-03    0.303E-02
RMM:   9    -0.230968844501E+04   -0.33652E-05   -0.98688E-05  3027   0.713E-03
  37 F= -.23301320E+04 E0= -.23301320E+04  d E =-.674719E-01  mag=     4.0000
       N       E                     dE             d eps       ncg     rms          rms(c)
DAV:   1    -0.230965383781E+04    0.34604E-01   -0.35957E+00  4448   0.172E+00    0.645E-01
RMM:   2    -0.230971693880E+04   -0.63101E-01   -0.68264E-01  5952   0.365E-01    0.445E-01
RMM:   3    -0.230972340985E+04   -0.64711E-02   -0.72834E-02  5731   0.149E-01    0.456E-01
RMM:   4    -0.230972207507E+04    0.13348E-02   -0.74010E-03  5676   0.331E-02    0.194E-01
RMM:   5    -0.230972157609E+04    0.49898E-03   -0.11731E-03  5080   0.186E-02    0.119E-01
RMM:   6    -0.230972138753E+04    0.18856E-03   -0.93465E-04  4705   0.172E-02    0.418E-02
RMM:   7    -0.230972137776E+04    0.97655E-05   -0.10376E-04  3954   0.114E-02    0.250E-02
RMM:   8    -0.230972137647E+04    0.12897E-05   -0.44200E-05  2935   0.473E-03
  38 F= -.23301641E+04 E0= -.23301641E+04  d E =-.320694E-01  mag=     4.0000
       N       E                     dE             d eps       ncg     rms          rms(c)
DAV:   1    -0.230961235598E+04    0.10902E+00   -0.68111E+00  4400   0.237E+00    0.888E-01
RMM:   2    -0.230973138724E+04   -0.11903E+00   -0.12888E+00  5961   0.507E-01    0.622E-01
RMM:   3    -0.230974429184E+04   -0.12905E-01   -0.14760E-01  5762   0.205E-01    0.624E-01
RMM:   4    -0.230974177308E+04    0.25188E-02   -0.14116E-02  5916   0.457E-02    0.276E-01
RMM:   5    -0.230974080612E+04    0.96696E-03   -0.22896E-03  5298   0.248E-02    0.175E-01
RMM:   6    -0.230974035260E+04    0.45351E-03   -0.18919E-03  4654   0.235E-02    0.652E-02
RMM:   7    -0.230974032072E+04    0.31881E-04   -0.22063E-04  4498   0.161E-02    0.387E-02
RMM:   8    -0.230974030886E+04    0.11862E-04   -0.10463E-04  3521   0.659E-03    0.231E-02
RMM:   9    -0.230974031143E+04   -0.25691E-05   -0.31897E-05  2856   0.542E-03
  39 F= -.23301818E+04 E0= -.23301818E+04  d E =-.497310E-01  mag=     4.0000
       N       E                     dE             d eps       ncg     rms          rms(c)
DAV:   1    -0.230966277844E+04    0.77530E-01   -0.49627E+00  4400   0.185E+00    0.747E-01
RMM:   2    -0.230976577307E+04   -0.10299E+00   -0.11109E+00  6260   0.442E-01    0.464E-01
RMM:   3    -0.230977657688E+04   -0.10804E-01   -0.12921E-01  5780   0.167E-01    0.373E-01
RMM:   4    -0.230977637160E+04    0.20529E-03   -0.11995E-02  5606   0.342E-02    0.248E-01
RMM:   5    -0.230977573830E+04    0.63329E-03   -0.12972E-03  4629   0.175E-02    0.165E-01
RMM:   6    -0.230977543646E+04    0.30184E-03   -0.96842E-04  4864   0.149E-02    0.122E-01
RMM:   7    -0.230977531844E+04    0.11802E-03   -0.67043E-04  4607   0.157E-02    0.387E-02
RMM:   8    -0.230977529974E+04    0.18697E-04   -0.66933E-05  3032   0.667E-03    0.202E-02
RMM:   9    -0.230977529978E+04   -0.38446E-07   -0.32011E-05  2845   0.446E-03
  40 F= -.23302158E+04 E0= -.23302158E+04  d E =-.340852E-01  mag=     4.0000
       N       E                     dE             d eps       ncg     rms          rms(c)
DAV:   1    -0.230951454473E+04    0.26076E+00   -0.12544E+01  4400   0.294E+00    0.119E+00
RMM:   2    -0.230977702926E+04   -0.26248E+00   -0.28405E+00  6262   0.718E-01    0.725E-01
RMM:   3    -0.230980527050E+04   -0.28241E-01   -0.34490E-01  5823   0.267E-01    0.586E-01
RMM:   4    -0.230980465587E+04    0.61463E-03   -0.30927E-02  6003   0.546E-02    0.387E-01
RMM:   5    -0.230980309741E+04    0.15585E-02   -0.32712E-03  5205   0.261E-02    0.268E-01
RMM:   6    -0.230980230015E+04    0.79726E-03   -0.22791E-03  5127   0.223E-02    0.200E-01
RMM:   7    -0.230980195204E+04    0.34811E-03   -0.18997E-03  5184   0.245E-02    0.654E-02
RMM:   8    -0.230980189388E+04    0.58161E-04   -0.17311E-04  3722   0.987E-03    0.343E-02
RMM:   9    -0.230980188852E+04    0.53557E-05   -0.85656E-05  2961   0.625E-03
  41 F= -.23302408E+04 E0= -.23302408E+04  d E =-.590739E-01  mag=     4.0000
       N       E                     dE             d eps       ncg     rms          rms(c)
DAV:   1    -0.230971208885E+04    0.89805E-01   -0.57143E+00  4408   0.197E+00    0.821E-01
RMM:   2    -0.230982386095E+04   -0.11177E+00   -0.12171E+00  6036   0.482E-01    0.451E-01
RMM:   3    -0.230983563018E+04   -0.11769E-01   -0.14328E-01  5678   0.182E-01    0.315E-01
RMM:   4    -0.230983573249E+04   -0.10231E-03   -0.13505E-02  5554   0.386E-02    0.236E-01
RMM:   5    -0.230983547747E+04    0.25502E-03   -0.15516E-03  5096   0.202E-02    0.254E-01
RMM:   6    -0.230983480958E+04    0.66789E-03   -0.13174E-03  5143   0.191E-02    0.796E-02
RMM:   7    -0.230983476393E+04    0.45657E-04   -0.54104E-04  4745   0.143E-02    0.371E-02
RMM:   8    -0.230983474061E+04    0.23319E-04   -0.54876E-05  3103   0.704E-03    0.188E-02
RMM:   9    -0.230983473742E+04    0.31828E-05   -0.37484E-05  2875   0.487E-03
  42 F= -.23302726E+04 E0= -.23302726E+04  d E =-.317791E-01  mag=     4.0000
       N       E                     dE             d eps       ncg     rms          rms(c)
DAV:   1    -0.230979754795E+04    0.37193E-01   -0.20416E+00  4528   0.118E+00    0.488E-01
RMM:   2    -0.230983732863E+04   -0.39781E-01   -0.43320E-01  6029   0.284E-01    0.263E-01
RMM:   3    -0.230984137516E+04   -0.40465E-02   -0.48791E-02  5591   0.110E-01    0.184E-01
RMM:   4    -0.230984151160E+04   -0.13644E-03   -0.48537E-03  4928   0.237E-02    0.169E-01
RMM:   5    -0.230984127598E+04    0.23562E-03   -0.53161E-04  4222   0.126E-02    0.120E-01
RMM:   6    -0.230984109473E+04    0.18124E-03   -0.45342E-04  4469   0.123E-02    0.430E-02
RMM:   7    -0.230984107639E+04    0.18343E-04   -0.13290E-04  3722   0.100E-02    0.181E-02
RMM:   8    -0.230984107079E+04    0.56003E-05   -0.22640E-05  2882   0.470E-03
  43 F= -.23302782E+04 E0= -.23302782E+04  d E =-.374131E-01  mag=     4.0000
       N       E                     dE             d eps       ncg     rms          rms(c)
DAV:   1    -0.230974152508E+04    0.99551E-01   -0.63576E+00  4400   0.216E+00    0.868E-01
RMM:   2    -0.230985370202E+04   -0.11218E+00   -0.12245E+00  6013   0.489E-01    0.451E-01
RMM:   3    -0.230986520095E+04   -0.11499E-01   -0.14399E-01  5610   0.179E-01    0.318E-01
RMM:   4    -0.230986542182E+04   -0.22087E-03   -0.13578E-02  5515   0.396E-02    0.249E-01
RMM:   5    -0.230986510264E+04    0.31918E-03   -0.16424E-03  5136   0.208E-02    0.244E-01
RMM:   6    -0.230986451757E+04    0.58507E-03   -0.12017E-03  5091   0.186E-02    0.786E-02
RMM:   7    -0.230986449503E+04    0.22544E-04   -0.55052E-04  4656   0.149E-02    0.374E-02
RMM:   8    -0.230986446803E+04    0.27004E-04   -0.57671E-05  3007   0.661E-03    0.174E-02
RMM:   9    -0.230986446262E+04    0.54063E-05   -0.33211E-05  2866   0.436E-03
  44 F= -.23303015E+04 E0= -.23303015E+04  d E =-.232779E-01  mag=     4.0000
       N       E                     dE             d eps       ncg     rms          rms(c)
DAV:   1    -0.230985126882E+04    0.13199E-01   -0.78422E-01  4544   0.759E-01    0.303E-01
RMM:   2    -0.230986511125E+04   -0.13842E-01   -0.15084E-01  5989   0.169E-01    0.153E-01
RMM:   3    -0.230986641868E+04   -0.13074E-02   -0.15865E-02  5482   0.669E-02    0.115E-01
RMM:   4    -0.230986648959E+04   -0.70917E-04   -0.16733E-03  3859   0.142E-02    0.110E-01
RMM:   5    -0.230986637091E+04    0.11869E-03   -0.19672E-04  3343   0.882E-03    0.588E-02
RMM:   6    -0.230986633051E+04    0.40394E-04   -0.15562E-04  4116   0.830E-03    0.212E-02
RMM:   7    -0.230986632828E+04    0.22318E-05   -0.31378E-05  2912   0.662E-03
  45 F= -.23303033E+04 E0= -.23303033E+04  d E =-.250639E-01  mag=     4.0000
       N       E                     dE             d eps       ncg     rms          rms(c)
DAV:   1    -0.230984266936E+04    0.23661E-01   -0.23471E+00  4400   0.139E+00    0.523E-01
RMM:   2    -0.230987801312E+04   -0.35344E-01   -0.38556E-01  5870   0.301E-01    0.313E-01
RMM:   3    -0.230988132641E+04   -0.33133E-02   -0.40484E-02  5552   0.124E-01    0.323E-01
RMM:   4    -0.230988082773E+04    0.49868E-03   -0.43261E-03  5481   0.274E-02    0.173E-01
RMM:   5    -0.230988046824E+04    0.35949E-03   -0.80147E-04  4976   0.187E-02    0.845E-02
RMM:   6    -0.230988038964E+04    0.78598E-04   -0.42787E-04  4894   0.144E-02    0.314E-02
RMM:   7    -0.230988038259E+04    0.70535E-05   -0.52651E-05  3321   0.842E-03
  46 F= -.23303177E+04 E0= -.23303177E+04  d E =-.143884E-01  mag=     4.0000
       N       E                     dE             d eps       ncg     rms          rms(c)
DAV:   1    -0.230987431103E+04    0.60786E-02   -0.44170E-01  4672   0.604E-01    0.229E-01
RMM:   2    -0.230988103184E+04   -0.67208E-02   -0.73135E-02  5880   0.131E-01    0.149E-01
RMM:   3    -0.230988162647E+04   -0.59462E-03   -0.72737E-03  5367   0.518E-02    0.154E-01
RMM:   4    -0.230988149310E+04    0.13337E-03   -0.81478E-04  3792   0.124E-02    0.713E-02
RMM:   5    -0.230988142293E+04    0.70165E-04   -0.16207E-04  3978   0.955E-03    0.333E-02
RMM:   6    -0.230988141128E+04    0.11649E-04   -0.67988E-05  3444   0.760E-03    0.144E-02
RMM:   7    -0.230988140964E+04    0.16403E-05   -0.11876E-05  2839   0.518E-03
  47 F= -.23303188E+04 E0= -.23303188E+04  d E =-.155448E-01  mag=     4.0000
       N       E                     dE             d eps       ncg     rms          rms(c)
DAV:   1    -0.230985924015E+04    0.22171E-01   -0.29718E+00  4400   0.158E+00    0.559E-01
RMM:   2    -0.230989258356E+04   -0.33343E-01   -0.35433E-01  5857   0.315E-01    0.379E-01
RMM:   3    -0.230989529859E+04   -0.27150E-02   -0.35013E-02  5587   0.121E-01    0.386E-01
RMM:   4    -0.230989427242E+04    0.10262E-02   -0.39981E-03  5519   0.291E-02    0.162E-01
RMM:   5    -0.230989392491E+04    0.34751E-03   -0.97649E-04  5093   0.198E-02    0.741E-02
RMM:   6    -0.230989387134E+04    0.53562E-04   -0.36509E-04  4655   0.140E-02    0.368E-02
RMM:   7    -0.230989385756E+04    0.13789E-04   -0.47681E-05  3237   0.721E-03    0.146E-02
RMM:   8    -0.230989384989E+04    0.76614E-05   -0.20588E-05  2859   0.419E-03
  48 F= -.23303317E+04 E0= -.23303317E+04  d E =-.128895E-01  mag=     4.0000
       N       E                     dE             d eps       ncg     rms          rms(c)
DAV:   1    -0.230988725407E+04    0.66035E-02   -0.68118E-01  4552   0.756E-01    0.267E-01
RMM:   2    -0.230989491903E+04   -0.76650E-02   -0.81262E-02  5845   0.151E-01    0.182E-01
RMM:   3    -0.230989543483E+04   -0.51579E-03   -0.72355E-03  5353   0.597E-02    0.172E-01
RMM:   4    -0.230989524384E+04    0.19099E-03   -0.89314E-04  4316   0.141E-02    0.771E-02
RMM:   5    -0.230989515996E+04    0.83880E-04   -0.21599E-04  4221   0.105E-02    0.360E-02
RMM:   6    -0.230989514733E+04    0.12625E-04   -0.81771E-05  3675   0.801E-03    0.234E-02
RMM:   7    -0.230989514160E+04    0.57327E-05   -0.15559E-05  2844   0.526E-03
  49 F= -.23303332E+04 E0= -.23303332E+04  d E =-.143839E-01  mag=     4.0000
       N       E                     dE             d eps       ncg     rms          rms(c)
DAV:   1    -0.230988570692E+04    0.94404E-02   -0.19397E+00  4400   0.124E+00    0.426E-01
RMM:   2    -0.230990702139E+04   -0.21314E-01   -0.22174E-01  5822   0.244E-01    0.352E-01
RMM:   3    -0.230990840587E+04   -0.13845E-02   -0.22250E-02  5533   0.950E-02    0.276E-01
RMM:   4    -0.230990791007E+04    0.49580E-03   -0.24755E-03  5148   0.226E-02    0.130E-01
RMM:   5    -0.230990770404E+04    0.20603E-03   -0.53661E-04  4703   0.155E-02    0.612E-02
RMM:   6    -0.230990768665E+04    0.17390E-04   -0.23308E-04  4296   0.112E-02    0.429E-02
RMM:   7    -0.230990767260E+04    0.14055E-04   -0.41035E-05  2912   0.687E-03    0.118E-02
RMM:   8    -0.230990767014E+04    0.24586E-05   -0.12151E-05  2843   0.342E-03
  50 F= -.23303459E+04 E0= -.23303459E+04  d E =-.127031E-01  mag=     4.0000
       N       E                     dE             d eps       ncg     rms          rms(c)
DAV:   1    -0.230987906133E+04    0.28611E-01   -0.30262E+00  4400   0.156E+00    0.531E-01
RMM:   2    -0.230991207411E+04   -0.33013E-01   -0.34439E-01  5831   0.304E-01    0.425E-01
RMM:   3    -0.230991440070E+04   -0.23266E-02   -0.35547E-02  5548   0.120E-01    0.343E-01
RMM:   4    -0.230991363884E+04    0.76186E-03   -0.38556E-03  5369   0.281E-02    0.164E-01
RMM:   5    -0.230991331190E+04    0.32694E-03   -0.87170E-04  4989   0.190E-02    0.784E-02
RMM:   6    -0.230991327586E+04    0.36041E-04   -0.37066E-04  4585   0.132E-02    0.549E-02
RMM:   7    -0.230991325206E+04    0.23805E-04   -0.67471E-05  3072   0.775E-03    0.157E-02
RMM:   8    -0.230991324747E+04    0.45918E-05   -0.20171E-05  2857   0.406E-03
  51 F= -.23303517E+04 E0= -.23303517E+04  d E =-.184886E-01  mag=     4.0000
       N       E                     dE             d eps       ncg     rms          rms(c)
DAV:   1    -0.230990403388E+04    0.92182E-02   -0.12753E+00  4472   0.106E+00    0.410E-01
RMM:   2    -0.230992056795E+04   -0.16534E-01   -0.16780E-01  5866   0.216E-01    0.396E-01
RMM:   3    -0.230992089638E+04   -0.32843E-03   -0.16996E-02  5548   0.830E-02    0.233E-01
RMM:   4    -0.230992049332E+04    0.40306E-03   -0.18811E-03  5035   0.208E-02    0.983E-02
RMM:   5    -0.230992034175E+04    0.15157E-03   -0.35471E-04  4724   0.147E-02    0.454E-02
RMM:   6    -0.230992032974E+04    0.12007E-04   -0.14233E-04  4282   0.101E-02    0.281E-02
RMM:   7    -0.230992032243E+04    0.73095E-05   -0.26478E-05  2859   0.642E-03
  52 F= -.23303590E+04 E0= -.23303590E+04  d E =-.724215E-02  mag=     4.0000
       N       E                     dE             d eps       ncg     rms          rms(c)
DAV:   1    -0.230991555910E+04    0.47706E-02   -0.45198E-01  4576   0.631E-01    0.245E-01
RMM:   2    -0.230992140614E+04   -0.58470E-02   -0.59297E-02  5862   0.129E-01    0.238E-01
RMM:   3    -0.230992150745E+04   -0.10131E-03   -0.60949E-03  5313   0.481E-02    0.136E-01
RMM:   4    -0.230992137423E+04    0.13322E-03   -0.67390E-04  4311   0.126E-02    0.583E-02
RMM:   5    -0.230992131845E+04    0.55778E-04   -0.11972E-04  3859   0.924E-03    0.276E-02
RMM:   6    -0.230992131303E+04    0.54234E-05   -0.56216E-05  3348   0.716E-03
  53 F= -.23303601E+04 E0= -.23303601E+04  d E =-.832895E-02  mag=     4.0000
       N       E                     dE             d eps       ncg     rms          rms(c)
DAV:   1    -0.230990816904E+04    0.13149E-01   -0.12770E+00  4400   0.997E-01    0.401E-01
RMM:   2    -0.230992828247E+04   -0.20113E-01   -0.20051E-01  6094   0.211E-01    0.446E-01
RMM:   3    -0.230992849259E+04   -0.21013E-03   -0.20827E-02  5698   0.777E-02    0.208E-01
RMM:   4    -0.230992824773E+04    0.24486E-03   -0.21737E-03  4876   0.187E-02    0.944E-02
RMM:   5    -0.230992812714E+04    0.12060E-03   -0.21085E-04  4196   0.114E-02    0.559E-02
RMM:   6    -0.230992810600E+04    0.21135E-04   -0.19143E-04  4015   0.107E-02    0.186E-02
RMM:   7    -0.230992810261E+04    0.33953E-05   -0.25075E-05  2865   0.633E-03
  54 F= -.23303672E+04 E0= -.23303672E+04  d E =-.717752E-02  mag=     4.0000
       N       E                     dE             d eps       ncg     rms          rms(c)
DAV:   1    -0.230981781824E+04    0.11029E+00   -0.71074E+00  4400   0.236E+00    0.946E-01
RMM:   2    -0.230992989147E+04   -0.11207E+00   -0.11229E+00  5962   0.501E-01    0.103E+00
RMM:   3    -0.230993201513E+04   -0.21237E-02   -0.12510E-01  5729   0.183E-01    0.501E-01
RMM:   4    -0.230993054834E+04    0.14668E-02   -0.12178E-02  5452   0.443E-02    0.226E-01
RMM:   5    -0.230992985585E+04    0.69249E-03   -0.12821E-03  4971   0.256E-02    0.131E-01
RMM:   6    -0.230992971188E+04    0.14398E-03   -0.10728E-03  4670   0.232E-02    0.507E-02
RMM:   7    -0.230992968625E+04    0.25626E-04   -0.15358E-04  3787   0.125E-02    0.251E-02
RMM:   8    -0.230992967886E+04    0.73957E-05   -0.30428E-05  2841   0.422E-03
  55 F= -.23303697E+04 E0= -.23303697E+04  d E =-.964465E-02  mag=     4.0000
       N       E                     dE             d eps       ncg     rms          rms(c)
DAV:   1    -0.230991521919E+04    0.14467E-01   -0.10510E+00  4408   0.902E-01    0.359E-01
RMM:   2    -0.230993149817E+04   -0.16279E-01   -0.16217E-01  5973   0.188E-01    0.388E-01
RMM:   3    -0.230993180203E+04   -0.30386E-03   -0.16721E-02  5579   0.680E-02    0.181E-01
RMM:   4    -0.230993160933E+04    0.19270E-03   -0.16845E-03  4642   0.161E-02    0.837E-02
RMM:   5    -0.230993150906E+04    0.10028E-03   -0.17888E-04  4007   0.106E-02    0.504E-02
RMM:   6    -0.230993149320E+04    0.15853E-04   -0.16708E-04  3864   0.956E-03    0.124E-02
RMM:   7    -0.230993149249E+04    0.71106E-06   -0.17801E-05  2861   0.564E-03
  56 F= -.23303712E+04 E0= -.23303712E+04  d E =-.111199E-01  mag=     4.0000
       N       E                     dE             d eps       ncg     rms          rms(c)
DAV:   1    -0.230990792310E+04    0.23570E-01   -0.19037E+00  4408   0.115E+00    0.473E-01
RMM:   2    -0.230993926901E+04   -0.31346E-01   -0.30979E-01  5997   0.248E-01    0.559E-01
RMM:   3    -0.230993946720E+04   -0.19819E-03   -0.32667E-02  5669   0.891E-02    0.238E-01
RMM:   4    -0.230993911474E+04    0.35246E-03   -0.32415E-03  5005   0.213E-02    0.112E-01
RMM:   5    -0.230993893399E+04    0.18074E-03   -0.32135E-04  4456   0.133E-02    0.730E-02
RMM:   6    -0.230993888725E+04    0.46747E-04   -0.29835E-04  4115   0.123E-02    0.188E-02
RMM:   7    -0.230993888232E+04    0.49266E-05   -0.34240E-05  2891   0.694E-03
  57 F= -.23303787E+04 E0= -.23303787E+04  d E =-.755946E-02  mag=     4.0000
       N       E                     dE             d eps       ncg     rms          rms(c)
DAV:   1    -0.230990739723E+04    0.31490E-01   -0.20800E+00  4400   0.120E+00    0.494E-01
RMM:   2    -0.230994142002E+04   -0.34023E-01   -0.33796E-01  6019   0.258E-01    0.565E-01
RMM:   3    -0.230994190021E+04   -0.48018E-03   -0.35848E-02  5716   0.919E-02    0.254E-01
RMM:   4    -0.230994149872E+04    0.40149E-03   -0.35668E-03  5074   0.223E-02    0.118E-01
RMM:   5    -0.230994129668E+04    0.20204E-03   -0.36136E-04  4498   0.139E-02    0.745E-02
RMM:   6    -0.230994124770E+04    0.48977E-04   -0.32240E-04  4153   0.127E-02    0.195E-02
RMM:   7    -0.230994124255E+04    0.51457E-05   -0.37752E-05  2901   0.712E-03
  58 F= -.23303813E+04 E0= -.23303813E+04  d E =-.100828E-01  mag=     4.0000
       N       E                     dE             d eps       ncg     rms          rms(c)
DAV:   1    -0.230990660251E+04    0.34645E-01   -0.25491E+00  4400   0.133E+00    0.555E-01
RMM:   2    -0.230994793985E+04   -0.41337E-01   -0.41956E-01  6036   0.282E-01    0.541E-01
RMM:   3    -0.230994992093E+04   -0.19811E-02   -0.45528E-02  5764   0.101E-01    0.314E-01
RMM:   4    -0.230994920132E+04    0.71962E-03   -0.45174E-03  5218   0.249E-02    0.129E-01
RMM:   5    -0.230994898431E+04    0.21701E-03   -0.40056E-04  4293   0.137E-02    0.720E-02
RMM:   6    -0.230994894650E+04    0.37804E-04   -0.33100E-04  4301   0.130E-02    0.329E-02
RMM:   7    -0.230994893965E+04    0.68547E-05   -0.50356E-05  2892   0.794E-03
  59 F= -.23303888E+04 E0= -.23303888E+04  d E =-.754502E-02  mag=     4.0000
       N       E                     dE             d eps       ncg     rms          rms(c)
DAV:   1    -0.230981729971E+04    0.13165E+00   -0.79858E+00  4400   0.235E+00    0.988E-01
RMM:   2    -0.230994772232E+04   -0.13042E+00   -0.13228E+00  6042   0.504E-01    0.985E-01
RMM:   3    -0.230995409106E+04   -0.63687E-02   -0.15188E-01  5836   0.181E-01    0.576E-01
RMM:   4    -0.230995165612E+04    0.24349E-02   -0.14369E-02  5647   0.448E-02    0.232E-01
RMM:   5    -0.230995096129E+04    0.69483E-03   -0.12899E-03  4875   0.232E-02    0.131E-01
RMM:   6    -0.230995081543E+04    0.14586E-03   -0.10711E-03  4780   0.219E-02    0.605E-02
RMM:   7    -0.230995078921E+04    0.26219E-04   -0.16375E-04  3648   0.121E-02    0.271E-02
RMM:   8    -0.230995077998E+04    0.92346E-05   -0.31308E-05  2834   0.419E-03
  60 F= -.23303903E+04 E0= -.23303903E+04  d E =-.907012E-02  mag=     4.0000
       N       E                     dE             d eps       ncg     rms          rms(c)
DAV:   1    -0.230993146910E+04    0.19320E-01   -0.12413E+00  4432   0.925E-01    0.390E-01
RMM:   2    -0.230995164610E+04   -0.20177E-01   -0.20195E-01  6055   0.195E-01    0.412E-01
RMM:   3    -0.230995221396E+04   -0.56786E-03   -0.21345E-02  5674   0.691E-02    0.195E-01
RMM:   4    -0.230995196666E+04    0.24729E-03   -0.20801E-03  4580   0.165E-02    0.856E-02
RMM:   5    -0.230995186492E+04    0.10174E-03   -0.16614E-04  3735   0.964E-03    0.516E-02
RMM:   6    -0.230995184504E+04    0.19885E-04   -0.18987E-04  3982   0.989E-03    0.131E-02
RMM:   7    -0.230995184471E+04    0.32812E-06   -0.22120E-05  2861   0.585E-03
  61 F= -.23303915E+04 E0= -.23303915E+04  d E =-.102665E-01  mag=     4.0000
       N       E                     dE             d eps       ncg     rms          rms(c)
DAV:   1    -0.230990265497E+04    0.49190E-01   -0.32691E+00  4400   0.147E+00    0.640E-01
RMM:   2    -0.230995869899E+04   -0.56044E-01   -0.56539E-01  6042   0.317E-01    0.682E-01
RMM:   3    -0.230996069141E+04   -0.19924E-02   -0.62199E-02  5802   0.114E-01    0.341E-01
RMM:   4    -0.230995990967E+04    0.78174E-03   -0.61426E-03  5346   0.281E-02    0.148E-01
RMM:   5    -0.230995962761E+04    0.28207E-03   -0.46816E-04  4352   0.148E-02    0.871E-02
RMM:   6    -0.230995956522E+04    0.62383E-04   -0.46141E-04  4382   0.149E-02    0.356E-02
RMM:   7    -0.230995955834E+04    0.68859E-05   -0.79944E-05  2947   0.883E-03
  62 F= -.23303988E+04 E0= -.23303988E+04  d E =-.723040E-02  mag=     4.0000
       N       E                     dE             d eps       ncg     rms          rms(c)
DAV:   1    -0.230994068390E+04    0.18881E-01   -0.11513E+00  4448   0.871E-01    0.380E-01
RMM:   2    -0.230996039855E+04   -0.19715E-01   -0.19932E-01  6070   0.189E-01    0.395E-01
RMM:   3    -0.230996110597E+04   -0.70742E-03   -0.21068E-02  5671   0.660E-02    0.199E-01
RMM:   4    -0.230996085302E+04    0.25295E-03   -0.21326E-03  4556   0.166E-02    0.873E-02
RMM:   5    -0.230996075842E+04    0.94599E-04   -0.15778E-04  3503   0.931E-03    0.514E-02
RMM:   6    -0.230996074048E+04    0.17936E-04   -0.16709E-04  3941   0.980E-03    0.199E-02
RMM:   7    -0.230996073858E+04    0.19053E-05   -0.25633E-05  2860   0.595E-03
  63 F= -.23303996E+04 E0= -.23303996E+04  d E =-.811092E-02  mag=     4.0000
       N       E                     dE             d eps       ncg     rms          rms(c)
DAV:   1    -0.230993547253E+04    0.25268E-01   -0.17964E+00  4408   0.116E+00    0.495E-01
RMM:   2    -0.230996584318E+04   -0.30371E-01   -0.29920E-01  5988   0.240E-01    0.597E-01
RMM:   3    -0.230996521786E+04    0.62532E-03   -0.29085E-02  5709   0.839E-02    0.233E-01
RMM:   4    -0.230996485547E+04    0.36239E-03   -0.28685E-03  4894   0.207E-02    0.105E-01
RMM:   5    -0.230996470074E+04    0.15473E-03   -0.27939E-04  4358   0.132E-02    0.700E-02
RMM:   6    -0.230996465861E+04    0.42136E-04   -0.28663E-04  4164   0.125E-02    0.160E-02
RMM:   7    -0.230996465760E+04    0.10082E-05   -0.35789E-05  2897   0.757E-03
  64 F= -.23304033E+04 E0= -.23304033E+04  d E =-.366365E-02  mag=     4.0000
       N       E                     dE             d eps       ncg     rms          rms(c)
DAV:   1    -0.230996283124E+04    0.18274E-02   -0.12275E-01  4752   0.302E-01    0.128E-01
RMM:   2    -0.230996487164E+04   -0.20404E-02   -0.20344E-02  5967   0.636E-02    0.144E-01
RMM:   3    -0.230996486907E+04    0.25695E-05   -0.19453E-03  3710   0.214E-02    0.633E-02
RMM:   4    -0.230996484049E+04    0.28573E-04   -0.19321E-04  2924   0.659E-03    0.281E-02
RMM:   5    -0.230996482893E+04    0.11563E-04   -0.21867E-05  2849   0.429E-03    0.173E-02
RMM:   6    -0.230996482630E+04    0.26290E-05   -0.21079E-05  2846   0.442E-03
  65 F= -.23304034E+04 E0= -.23304034E+04  d E =-.376011E-02  mag=     4.0000
       N       E                     dE             d eps       ncg     rms          rms(c)
DAV:   1    -0.230994919003E+04    0.15639E-01   -0.11450E+00  4416   0.979E-01    0.408E-01
RMM:   2    -0.230996938067E+04   -0.20191E-01   -0.19399E-01  5941   0.206E-01    0.543E-01
RMM:   3    -0.230996803995E+04    0.13407E-02   -0.17564E-02  5435   0.711E-02    0.179E-01
RMM:   4    -0.230996786629E+04    0.17366E-03   -0.18459E-03  4604   0.178E-02    0.848E-02
RMM:   5    -0.230996777232E+04    0.93967E-04   -0.20274E-04  4325   0.126E-02    0.702E-02
RMM:   6    -0.230996773157E+04    0.40751E-04   -0.23460E-04  4074   0.112E-02    0.181E-02
RMM:   7    -0.230996772858E+04    0.29903E-05   -0.22954E-05  2859   0.669E-03
  66 F= -.23304061E+04 E0= -.23304061E+04  d E =-.273355E-02  mag=     4.0000
       N       E                     dE             d eps       ncg     rms          rms(c)
DAV:   1    -0.230996740743E+04    0.32414E-03   -0.22334E-02  5104   0.137E-01    0.570E-02
RMM:   2    -0.230996779602E+04   -0.38859E-03   -0.38302E-03  5951   0.302E-02    0.679E-02
RMM:   3    -0.230996778231E+04    0.13711E-04   -0.33895E-04  2892   0.974E-03    0.283E-02
RMM:   4    -0.230996777748E+04    0.48332E-05   -0.33395E-05  2867   0.357E-03
  67 F= -.23304061E+04 E0= -.23304061E+04  d E =-.275651E-02  mag=     4.0000
       N       E                     dE             d eps       ncg     rms          rms(c)
DAV:   1    -0.230996374548E+04    0.40368E-02   -0.39929E-01  4448   0.614E-01    0.236E-01
RMM:   2    -0.230997021818E+04   -0.64727E-02   -0.61142E-02  5995   0.131E-01    0.332E-01
RMM:   3    -0.230996957042E+04    0.64776E-03   -0.53678E-03  5109   0.416E-02    0.995E-02
RMM:   4    -0.230996950746E+04    0.62960E-04   -0.53168E-04  4014   0.109E-02    0.490E-02
RMM:   5    -0.230996947234E+04    0.35118E-04   -0.84170E-05  3629   0.853E-03    0.429E-02
RMM:   6    -0.230996945698E+04    0.15361E-04   -0.85010E-05  3232   0.790E-03    0.106E-02
RMM:   7    -0.230996945639E+04    0.58766E-06   -0.10248E-05  2843   0.492E-03
  68 F= -.23304076E+04 E0= -.23304076E+04  d E =-.141959E-02  mag=     4.0000
       N       E                     dE             d eps       ncg     rms          rms(c)
DAV:   1    -0.230996911524E+04    0.34174E-03   -0.33152E-02  4744   0.177E-01    0.699E-02
RMM:   2    -0.230996966781E+04   -0.55257E-03   -0.51888E-03  5955   0.385E-02    0.100E-01
RMM:   3    -0.230996960433E+04    0.63483E-04   -0.45368E-04  3022   0.133E-02    0.293E-02
RMM:   4    -0.230996959905E+04    0.52760E-05   -0.44527E-05  2869   0.414E-03
  69 F= -.23304076E+04 E0= -.23304076E+04  d E =-.148553E-02  mag=     4.0000
       N       E                     dE             d eps       ncg     rms          rms(c)
DAV:   1    -0.230996552110E+04    0.40832E-02   -0.47367E-01  4416   0.689E-01    0.230E-01
RMM:   2    -0.230997146330E+04   -0.59422E-02   -0.58903E-02  5904   0.138E-01    0.263E-01
RMM:   3    -0.230997124578E+04    0.21752E-03   -0.52089E-03  5034   0.450E-02    0.118E-01
RMM:   4    -0.230997114020E+04    0.10558E-03   -0.57278E-04  4147   0.114E-02    0.499E-02
RMM:   5    -0.230997109890E+04    0.41298E-04   -0.87969E-05  3694   0.872E-03    0.348E-02
RMM:   6    -0.230997109013E+04    0.87677E-05   -0.73285E-05  3402   0.763E-03
  70 F= -.23304090E+04 E0= -.23304090E+04  d E =-.132567E-02  mag=     4.0000
       N       E                     dE             d eps       ncg     rms          rms(c)
DAV:   1    -0.230996801642E+04    0.30825E-02   -0.26129E-01  4432   0.512E-01    0.176E-01
RMM:   2    -0.230997138436E+04   -0.33679E-02   -0.33089E-02  6104   0.105E-01    0.212E-01
RMM:   3    -0.230997119101E+04    0.19335E-03   -0.29029E-03  4997   0.322E-02    0.866E-02
RMM:   4    -0.230997113690E+04    0.54111E-04   -0.31557E-04  3196   0.877E-03    0.366E-02
RMM:   5    -0.230997111629E+04    0.20614E-04   -0.49937E-05  3116   0.640E-03    0.277E-02
RMM:   6    -0.230997110985E+04    0.64374E-05   -0.40834E-05  2886   0.648E-03
  71 F= -.23304089E+04 E0= -.23304089E+04  d E =-.121687E-02  mag=     4.0000
       N       E                     dE             d eps       ncg     rms          rms(c)
DAV:   1    -0.230997046537E+04    0.65091E-03   -0.64821E-02  4464   0.255E-01    0.862E-02
RMM:   2    -0.230997129428E+04   -0.82891E-03   -0.80516E-03  6180   0.527E-02    0.110E-01
RMM:   3    -0.230997123453E+04    0.59748E-04   -0.70667E-04  3457   0.172E-02    0.402E-02
RMM:   4    -0.230997122146E+04    0.13071E-04   -0.75756E-05  2875   0.534E-03    0.182E-02
RMM:   5    -0.230997121612E+04    0.53412E-05   -0.15841E-05  2850   0.388E-03
  72 F= -.23304090E+04 E0= -.23304090E+04  d E =-.138736E-02  mag=     4.0000
       N       E                     dE             d eps       ncg     rms          rms(c)
DAV:   1    -0.230996885836E+04    0.23631E-02   -0.35118E-01  4416   0.570E-01    0.173E-01
RMM:   2    -0.230997266178E+04   -0.38034E-02   -0.37465E-02  5982   0.109E-01    0.213E-01
RMM:   3    -0.230997248657E+04    0.17521E-03   -0.32804E-03  4760   0.379E-02    0.845E-02
RMM:   4    -0.230997243795E+04    0.48618E-04   -0.35085E-04  3214   0.886E-03    0.411E-02
RMM:   5    -0.230997240954E+04    0.28412E-04   -0.58741E-05  3168   0.666E-03    0.327E-02
RMM:   6    -0.230997240116E+04    0.83832E-05   -0.60664E-05  2983   0.701E-03
  73 F= -.23304101E+04 E0= -.23304101E+04  d E =-.103052E-02  mag=     4.0000
       N       E                     dE             d eps       ncg     rms          rms(c)
DAV:   1    -0.230996519465E+04    0.72149E-02   -0.75283E-01  4408   0.834E-01    0.257E-01
RMM:   2    -0.230997340264E+04   -0.82080E-02   -0.80680E-02  5924   0.160E-01    0.320E-01
RMM:   3    -0.230997297609E+04    0.42655E-03   -0.69979E-03  5242   0.520E-02    0.124E-01
RMM:   4    -0.230997287201E+04    0.10408E-03   -0.74937E-04  4129   0.125E-02    0.596E-02
RMM:   5    -0.230997281576E+04    0.56250E-04   -0.11994E-04  3819   0.919E-03    0.461E-02
RMM:   6    -0.230997279878E+04    0.16987E-04   -0.11989E-04  3651   0.885E-03    0.160E-02
RMM:   7    -0.230997279633E+04    0.24467E-05   -0.10478E-05  2832   0.525E-03
  74 F= -.23304102E+04 E0= -.23304102E+04  d E =-.119264E-02  mag=     4.0000
       N       E                     dE             d eps       ncg     rms          rms(c)
DAV:   1    -0.230997218059E+04    0.61819E-03   -0.65743E-02  4480   0.246E-01    0.738E-02
RMM:   2    -0.230997288197E+04   -0.70138E-03   -0.69299E-03  5961   0.471E-02    0.895E-02
RMM:   3    -0.230997285405E+04    0.27912E-04   -0.60562E-04  3195   0.158E-02    0.365E-02
RMM:   4    -0.230997284458E+04    0.94751E-05   -0.65837E-05  2878   0.472E-03
  75 F= -.23304103E+04 E0= -.23304103E+04  d E =-.131042E-02  mag=     4.0000
       N       E                     dE             d eps       ncg     rms          rms(c)
DAV:   1    -0.230997047036E+04    0.23837E-02   -0.42776E-01  4416   0.607E-01    0.190E-01
RMM:   2    -0.230997406806E+04   -0.35977E-02   -0.36060E-02  5910   0.111E-01    0.206E-01
RMM:   3    -0.230997394548E+04    0.12257E-03   -0.31669E-03  4978   0.366E-02    0.103E-01
RMM:   4    -0.230997385850E+04    0.86983E-04   -0.33727E-04  3618   0.968E-03    0.426E-02
RMM:   5    -0.230997382414E+04    0.34359E-04   -0.69989E-05  3338   0.757E-03    0.225E-02
RMM:   6    -0.230997382000E+04    0.41367E-05   -0.37261E-05  2981   0.656E-03
  76 F= -.23304112E+04 E0= -.23304112E+04  d E =-.863733E-03  mag=     4.0000
       N       E                     dE             d eps       ncg     rms          rms(c)
DAV:   1    -0.230997342500E+04    0.39914E-03   -0.56562E-02  4560   0.221E-01    0.689E-02
RMM:   2    -0.230997389551E+04   -0.47051E-03   -0.48130E-03  6116   0.424E-02    0.665E-02
RMM:   3    -0.230997389290E+04    0.26159E-05   -0.42673E-04  3204   0.139E-02    0.392E-02
RMM:   4    -0.230997388121E+04    0.11687E-04   -0.45884E-05  2867   0.475E-03    0.163E-02
RMM:   5    -0.230997387672E+04    0.44913E-05   -0.12711E-05  2846   0.342E-03
  77 F= -.23304112E+04 E0= -.23304112E+04  d E =-.879264E-03  mag=     4.0000
       N       E                     dE             d eps       ncg     rms          rms(c)
DAV:   1    -0.230997190831E+04    0.19729E-02   -0.31941E-01  4416   0.513E-01    0.143E-01
RMM:   2    -0.230997447482E+04   -0.25665E-02   -0.27137E-02  5923   0.917E-02    0.961E-02
RMM:   3    -0.230997461946E+04   -0.14464E-03   -0.25489E-03  4683   0.323E-02    0.706E-02
RMM:   4    -0.230997459528E+04    0.24183E-04   -0.25804E-04  2970   0.786E-03    0.412E-02
RMM:   5    -0.230997457487E+04    0.20408E-04   -0.57860E-05  2914   0.618E-03    0.252E-02
RMM:   6    -0.230997457137E+04    0.34966E-05   -0.38785E-05  2990   0.572E-03
  78 F= -.23304119E+04 E0= -.23304119E+04  d E =-.706296E-03  mag=     4.0000
       N       E                     dE             d eps       ncg     rms          rms(c)
DAV:   1    -0.230997378474E+04    0.79013E-03   -0.10022E-01  4464   0.287E-01    0.821E-02
RMM:   2    -0.230997459975E+04   -0.81501E-03   -0.86153E-03  6126   0.527E-02    0.586E-02
RMM:   3    -0.230997464258E+04   -0.42826E-04   -0.78732E-04  3463   0.176E-02    0.448E-02
RMM:   4    -0.230997463068E+04    0.11896E-04   -0.82495E-05  2885   0.537E-03    0.232E-02
[...]
RMM:   3    -0.230998337802E+04   -0.21352E-05   -0.60543E-05  2849   0.764E-03
 152 F= -.23304237E+04 E0= -.23304237E+04  d E =-.444445E-04  mag=     4.0000
       N       E                     dE             d eps       ncg     rms          rms(c)
DAV:   1    -0.230998335103E+04    0.24846E-04   -0.22915E-03  4696   0.490E-02    0.178E-02
RMM:   2    -0.230998337014E+04   -0.19105E-04   -0.19114E-04  3736   0.924E-03    0.199E-02
RMM:   3    -0.230998336899E+04    0.11528E-05   -0.22655E-05  2810   0.478E-03
 153 F= -.23304237E+04 E0= -.23304237E+04  d E =-.486820E-04  mag=     4.0000
       N       E                     dE             d eps       ncg     rms          rms(c)
DAV:   1    -0.230998331928E+04    0.50863E-04   -0.87426E-03  4408   0.963E-02    0.318E-02
RMM:   2    -0.230998337664E+04   -0.57361E-04   -0.63403E-04  5518   0.176E-02    0.150E-02
RMM:   3    -0.230998337788E+04   -0.12460E-05   -0.59803E-05  2841   0.744E-03
 154 F= -.23304237E+04 E0= -.23304237E+04  d E =-.475053E-04  mag=     4.0000
       N       E                     dE             d eps       ncg     rms          rms(c)
DAV:   1    -0.230998336164E+04    0.15001E-04   -0.73561E-04  5272   0.281E-02    0.117E-02
RMM:   2    -0.230998336740E+04   -0.57631E-05   -0.59849E-05  2911   0.565E-03
 155 F= -.23304237E+04 E0= -.23304237E+04  d E =-.485512E-04  mag=     4.0000
       N       E                     dE             d eps       ncg     rms          rms(c)
DAV:   1    -0.230998332746E+04    0.34173E-04   -0.68605E-03  4400   0.847E-02    0.278E-02
RMM:   2    -0.230998337598E+04   -0.48517E-04   -0.52545E-04  5276   0.171E-02    0.161E-02
RMM:   3    -0.230998337919E+04   -0.32053E-05   -0.55690E-05  2839   0.741E-03
 156 F= -.23304237E+04 E0= -.23304237E+04  d E =-.383051E-04  mag=     4.0000
       N       E                     dE             d eps       ncg     rms          rms(c)
DAV:   1    -0.230998336479E+04    0.11187E-04   -0.62704E-04  5152   0.258E-02    0.127E-02
RMM:   2    -0.230998336963E+04   -0.48399E-05   -0.53652E-05  2900   0.552E-03
 157 F= -.23304237E+04 E0= -.23304237E+04  d E =-.368290E-04  mag=     4.0000
       N       E                     dE             d eps       ncg     rms          rms(c)
DAV:   1    -0.230998334710E+04    0.17688E-04   -0.49230E-03  4408   0.701E-02    0.221E-02
RMM:   2    -0.230998338369E+04   -0.36589E-04   -0.38745E-04  4848   0.145E-02    0.163E-02
RMM:   3    -0.230998338593E+04   -0.22339E-05   -0.44295E-05  2828   0.639E-03
 158 F= -.23304238E+04 E0= -.23304238E+04  d E =-.306386E-04  mag=     4.0000
       N       E                     dE             d eps       ncg     rms          rms(c)
DAV:   1    -0.230998336632E+04    0.17371E-04   -0.20137E-03  4472   0.448E-02    0.160E-02
RMM:   2    -0.230998338072E+04   -0.14400E-04   -0.15794E-04  3546   0.901E-03    0.125E-02
RMM:   3    -0.230998338168E+04   -0.95874E-06   -0.19754E-05  2778   0.479E-03
 159 F= -.23304238E+04 E0= -.23304238E+04  d E =-.356394E-04  mag=     4.0000
       N       E                     dE             d eps       ncg     rms          rms(c)
DAV:   1    -0.230998335135E+04    0.29371E-04   -0.58084E-03  4416   0.765E-02    0.249E-02
RMM:   2    -0.230998339020E+04   -0.38847E-04   -0.42277E-04  5128   0.145E-02    0.131E-02
RMM:   3    -0.230998339172E+04   -0.15199E-05   -0.44015E-05  2828   0.635E-03
 160 F= -.23304238E+04 E0= -.23304238E+04  d E =-.383563E-04  mag=     4.0000
       N       E                     dE             d eps       ncg     rms          rms(c)
DAV:   1    -0.230998337680E+04    0.13397E-04   -0.95514E-04  4896   0.311E-02    0.154E-02
RMM:   2    -0.230998338740E+04   -0.10604E-04   -0.83605E-05  3072   0.646E-03    0.246E-02
RMM:   3    -0.230998338264E+04    0.47692E-05   -0.12584E-05  2592   0.371E-03
 161 F= -.23304238E+04 E0= -.23304238E+04  d E =-.408716E-04  mag=     4.0000
       N       E                     dE             d eps       ncg     rms          rms(c)
DAV:   1    -0.230998335492E+04    0.32484E-04   -0.42543E-03  4416   0.647E-02    0.212E-02
RMM:   2    -0.230998338433E+04   -0.29412E-04   -0.32000E-04  4768   0.122E-02    0.106E-02
RMM:   3    -0.230998338542E+04   -0.10902E-05   -0.30592E-05  2814   0.608E-03
 162 F= -.23304239E+04 E0= -.23304239E+04  d E =-.328150E-04  mag=     4.0000
       N       E                     dE             d eps       ncg     rms          rms(c)
DAV:   1    -0.230998336496E+04    0.19371E-04   -0.11614E-03  4696   0.338E-02    0.116E-02
RMM:   2    -0.230998337298E+04   -0.80200E-05   -0.90991E-05  3136   0.677E-03
 163 F= -.23304239E+04 E0= -.23304239E+04  d E =-.362797E-04  mag=     4.0000
       N       E                     dE             d eps       ncg     rms          rms(c)
DAV:   1    -0.230998334516E+04    0.19800E-04   -0.49151E-03  4400   0.697E-02    0.220E-02
RMM:   2    -0.230998338317E+04   -0.38004E-04   -0.40369E-04  4816   0.145E-02    0.122E-02
RMM:   3    -0.230998338554E+04   -0.23721E-05   -0.41911E-05  2842   0.680E-03
 164 F= -.23304239E+04 E0= -.23304239E+04  d E =-.343020E-04  mag=     4.0000
       N       E                     dE             d eps       ncg     rms          rms(c)
DAV:   1    -0.230998336338E+04    0.19782E-04   -0.17256E-03  4584   0.413E-02    0.153E-02
RMM:   2    -0.230998337662E+04   -0.13234E-04   -0.14030E-04  3436   0.842E-03    0.134E-02
RMM:   3    -0.230998337723E+04   -0.60936E-06   -0.17910E-05  2768   0.453E-03
 165 F= -.23304239E+04 E0= -.23304239E+04  d E =-.389419E-04  mag=     4.0000
       N       E                     dE             d eps       ncg     rms          rms(c)
DAV:   1    -0.230998335267E+04    0.23949E-04   -0.39676E-03  4416   0.622E-02    0.193E-02
RMM:   2    -0.230998338253E+04   -0.29865E-04   -0.31653E-04  4535   0.121E-02    0.114E-02
RMM:   3    -0.230998338455E+04   -0.20132E-05   -0.35553E-05  2809   0.569E-03
 166 F= -.23304239E+04 E0= -.23304239E+04  d E =-.252941E-04  mag=     4.0000
       N       E                     dE             d eps       ncg     rms          rms(c)
DAV:   1    -0.230998337039E+04    0.12139E-04   -0.10957E-03  4640   0.327E-02    0.129E-02
RMM:   2    -0.230998337995E+04   -0.95529E-05   -0.93053E-05  3109   0.678E-03
 167 F= -.23304239E+04 E0= -.23304239E+04  d E =-.301945E-04  mag=     4.0000
       N       E                     dE             d eps       ncg     rms          rms(c)
DAV:   1    -0.230998335417E+04    0.16221E-04   -0.37327E-03  4416   0.616E-02    0.204E-02
RMM:   2    -0.230998338412E+04   -0.29944E-04   -0.31974E-04  4590   0.134E-02    0.132E-02
RMM:   3    -0.230998338627E+04   -0.21536E-05   -0.36046E-05  2812   0.627E-03
 168 F= -.23304240E+04 E0= -.23304240E+04  d E =-.311414E-04  mag=     4.0000
       N       E                     dE             d eps       ncg     rms          rms(c)
DAV:   1    -0.230998337016E+04    0.13955E-04   -0.86650E-04  4672   0.298E-02    0.126E-02
RMM:   2    -0.230998337709E+04   -0.69274E-05   -0.76471E-05  3061   0.648E-03
 169 F= -.23304240E+04 E0= -.23304240E+04  d E =-.340144E-04  mag=     4.0000
       N       E                     dE             d eps       ncg     rms          rms(c)
DAV:   1    -0.230998333427E+04    0.35892E-04   -0.38091E-03  4416   0.621E-02    0.218E-02
RMM:   2    -0.230998336729E+04   -0.33017E-04   -0.33100E-04  4555   0.136E-02    0.223E-02
RMM:   3    -0.230998336712E+04    0.17032E-06   -0.40514E-05  2823   0.640E-03
 170 F= -.23304240E+04 E0= -.23304240E+04  d E =-.265327E-04  mag=     4.0000
       N       E                     dE             d eps       ncg     rms          rms(c)
DAV:   1    -0.230998334624E+04    0.21043E-04   -0.72220E-04  4872   0.271E-02    0.110E-02
RMM:   2    -0.230998335149E+04   -0.52449E-05   -0.61719E-05  2922   0.595E-03
 171 F= -.23304240E+04 E0= -.23304240E+04  d E =-.270063E-04  mag=     4.0000
       N       E                     dE             d eps       ncg     rms          rms(c)
DAV:   1    -0.230998331357E+04    0.32671E-04   -0.41415E-03  4400   0.654E-02    0.214E-02
RMM:   2    -0.230998334616E+04   -0.32592E-04   -0.34755E-04  4666   0.142E-02    0.114E-02
RMM:   3    -0.230998334806E+04   -0.18943E-05   -0.36910E-05  2813   0.633E-03
 172 F= -.23304240E+04 E0= -.23304240E+04  d E =-.300795E-04  mag=     4.0000
       N       E                     dE             d eps       ncg     rms          rms(c)
DAV:   1    -0.230998333277E+04    0.13396E-04   -0.58739E-04  4712   0.247E-02    0.972E-03
RMM:   2    -0.230998333718E+04   -0.44073E-05   -0.50305E-05  2851   0.546E-03
 173 F= -.23304240E+04 E0= -.23304240E+04  d E =-.319612E-04  mag=     4.0000
       N       E                     dE             d eps       ncg     rms          rms(c)
DAV:   1    -0.230998330580E+04    0.26971E-04   -0.43734E-03  4408   0.671E-02    0.221E-02
RMM:   2    -0.230998334187E+04   -0.36074E-04   -0.38148E-04  4713   0.144E-02    0.149E-02
RMM:   3    -0.230998334498E+04   -0.31100E-05   -0.43073E-05  2824   0.656E-03
 174 F= -.23304240E+04 E0= -.23304240E+04  d E =-.268263E-04  mag=     4.0000
       N       E                     dE             d eps       ncg     rms          rms(c)
DAV:   1    -0.230998333540E+04    0.64693E-05   -0.37531E-04  5072   0.198E-02    0.939E-03
RMM:   2    -0.230998333819E+04   -0.27858E-05   -0.35684E-05  2646   0.453E-03
 175 F= -.23304240E+04 E0= -.23304240E+04  d E =-.256132E-04  mag=     4.0000
       N       E                     dE             d eps       ncg     rms          rms(c)
DAV:   1    -0.230998330624E+04    0.29160E-04   -0.43077E-03  4400   0.660E-02    0.221E-02
RMM:   2    -0.230998334388E+04   -0.37635E-04   -0.38364E-04  4715   0.140E-02    0.202E-02
RMM:   3    -0.230998334498E+04   -0.10996E-05   -0.44467E-05  2820   0.645E-03
 176 F= -.23304241E+04 E0= -.23304241E+04  d E =-.281694E-04  mag=     4.0000
       N       E                     dE             d eps       ncg     rms          rms(c)
DAV:   1    -0.230998333020E+04    0.13680E-04   -0.73156E-04  4688   0.273E-02    0.111E-02
RMM:   2    -0.230998333588E+04   -0.56851E-05   -0.67281E-05  2948   0.599E-03
 177 F= -.23304241E+04 E0= -.23304241E+04  d E =-.279720E-04  mag=     4.0000
       N       E                     dE             d eps       ncg     rms          rms(c)
DAV:   1    -0.230998328052E+04    0.49674E-04   -0.47447E-03  4400   0.686E-02    0.216E-02
RMM:   2    -0.230998332249E+04   -0.41966E-04   -0.44341E-04  4783   0.148E-02    0.123E-02
RMM:   3    -0.230998332630E+04   -0.38089E-05   -0.50667E-05  2810   0.660E-03
 178 F= -.23304241E+04 E0= -.23304241E+04  d E =-.240661E-04  mag=     4.0000
       N       E                     dE             d eps       ncg     rms          rms(c)
DAV:   1    -0.230998331037E+04    0.12121E-04   -0.54958E-04  4800   0.235E-02    0.110E-02
RMM:   2    -0.230998331546E+04   -0.50926E-05   -0.55807E-05  2849   0.531E-03
 179 F= -.23304241E+04 E0= -.23304241E+04  d E =-.246567E-04  mag=     4.0000
       N       E                     dE             d eps       ncg     rms          rms(c)
DAV:   1    -0.230998327475E+04    0.35621E-04   -0.50286E-03  4400   0.704E-02    0.229E-02
RMM:   2    -0.230998332058E+04   -0.45834E-04   -0.46753E-04  4898   0.150E-02    0.207E-02
RMM:   3    -0.230998332271E+04   -0.21276E-05   -0.56330E-05  2829   0.676E-03
 180 F= -.23304241E+04 E0= -.23304241E+04  d E =-.343598E-04  mag=     4.0000
       N       E                     dE             d eps       ncg     rms          rms(c)
DAV:   1    -0.230998329792E+04    0.22656E-04   -0.13824E-03  4552   0.369E-02    0.140E-02
RMM:   2    -0.230998330943E+04   -0.11503E-04   -0.12830E-04  3252   0.793E-03    0.859E-03
RMM:   3    -0.230998331015E+04   -0.72726E-06   -0.16421E-05  2732   0.444E-03
 181 F= -.23304241E+04 E0= -.23304241E+04  d E =-.361468E-04  mag=     4.0000
       N       E                     dE             d eps       ncg     rms          rms(c)
DAV:   1    -0.230998325826E+04    0.51170E-04   -0.63391E-03  4400   0.789E-02    0.261E-02
RMM:   2    -0.230998331404E+04   -0.55780E-04   -0.56872E-04  5300   0.150E-02    0.236E-02
RMM:   3    -0.230998331616E+04   -0.21211E-05   -0.64270E-05  2828   0.685E-03
 182 F= -.23304242E+04 E0= -.23304242E+04  d E =-.302782E-04  mag=     4.0000
       N       E                     dE             d eps       ncg     rms          rms(c)
DAV:   1    -0.230998329259E+04    0.21446E-04   -0.14140E-03  4664   0.373E-02    0.141E-02
RMM:   2    -0.230998330427E+04   -0.11676E-04   -0.13217E-04  3279   0.766E-03    0.865E-03
RMM:   3    -0.230998330480E+04   -0.53503E-06   -0.15746E-05  2718   0.418E-03
 183 F= -.23304242E+04 E0= -.23304242E+04  d E =-.304645E-04  mag=     4.0000
       N       E                     dE             d eps       ncg     rms          rms(c)
DAV:   1    -0.230998324740E+04    0.56864E-04   -0.65671E-03  4400   0.792E-02    0.263E-02
RMM:   2    -0.230998330841E+04   -0.61009E-04   -0.61742E-04  5329   0.151E-02    0.249E-02
RMM:   3    -0.230998331030E+04   -0.18835E-05   -0.68513E-05  2829   0.685E-03
 184 F= -.23304242E+04 E0= -.23304242E+04  d E =-.339235E-04  mag=     4.0000
       N       E                     dE             d eps       ncg     rms          rms(c)
DAV:   1    -0.230998328566E+04    0.22751E-04   -0.13822E-03  4600   0.364E-02    0.138E-02
RMM:   2    -0.230998329772E+04   -0.12055E-04   -0.13491E-04  3247   0.748E-03    0.859E-03
RMM:   3    -0.230998329822E+04   -0.50839E-06   -0.16058E-05  2709   0.404E-03
 185 F= -.23304242E+04 E0= -.23304242E+04  d E =-.349790E-04  mag=     4.0000
       N       E                     dE             d eps       ncg     rms          rms(c)
DAV:   1    -0.230998325687E+04    0.40845E-04   -0.44630E-03  4400   0.648E-02    0.226E-02
RMM:   2    -0.230998330145E+04   -0.44575E-04   -0.43662E-04  4893   0.127E-02    0.264E-02
RMM:   3    -0.230998330044E+04    0.10094E-05   -0.50138E-05  2818   0.613E-03
 186 F= -.23304242E+04 E0= -.23304242E+04  d E =-.275497E-04  mag=     4.0000
       N       E                     dE             d eps       ncg     rms          rms(c)
DAV:   1    -0.230998328895E+04    0.12498E-04   -0.46399E-04  4768   0.209E-02    0.931E-03
RMM:   2    -0.230998329297E+04   -0.40247E-05   -0.48076E-05  2745   0.460E-03
 187 F= -.23304242E+04 E0= -.23304242E+04  d E =-.283077E-04  mag=     4.0000
       N       E                     dE             d eps       ncg     rms          rms(c)
DAV:   1    -0.230998328733E+04    0.16149E-05   -0.23397E-03  4384   0.485E-02    0.170E-02
RMM:   2    -0.230998330696E+04   -0.19631E-04   -0.21013E-04  3920   0.106E-02    0.988E-03
RMM:   3    -0.230998330830E+04   -0.13325E-05   -0.23256E-05  2677   0.569E-03
 188 F= -.23304243E+04 E0= -.23304243E+04  d E =-.259005E-04  mag=     4.0000
       N       E                     dE             d eps       ncg     rms          rms(c)
DAV:   1    -0.230998329963E+04    0.73361E-05   -0.75751E-04  4592   0.276E-02    0.111E-02
RMM:   2    -0.230998330574E+04   -0.61153E-05   -0.68582E-05  2995   0.604E-03
 189 F= -.23304243E+04 E0= -.23304243E+04  d E =-.294131E-04  mag=     4.0000
       N       E                     dE             d eps       ncg     rms          rms(c)
DAV:   1    -0.230998330391E+04   -0.42786E-05   -0.16109E-03  4416   0.406E-02    0.162E-02
RMM:   2    -0.230998331848E+04   -0.14570E-04   -0.14925E-04  3517   0.945E-03    0.152E-02
RMM:   3    -0.230998331858E+04   -0.10588E-06   -0.18386E-05  2720   0.550E-03
 190 F= -.23304243E+04 E0= -.23304243E+04  d E =-.177647E-04  mag=     4.0000
       N       E                     dE             d eps       ncg     rms          rms(c)
DAV:   1    -0.230998331688E+04    0.16006E-05   -0.50688E-05  4976   0.745E-03    0.527E-03
RMM:   2    -0.230998331713E+04   -0.25632E-06   -0.57321E-06  2319   0.206E-03
 191 F= -.23304243E+04 E0= -.23304243E+04  d E =-.171928E-04  mag=     4.0000
       N       E                     dE             d eps       ncg     rms          rms(c)
DAV:   1    -0.230998330921E+04    0.76628E-05   -0.13818E-03  4352   0.370E-02    0.137E-02
RMM:   2    -0.230998332236E+04   -0.13148E-04   -0.13338E-04  3334   0.791E-03    0.135E-02
RMM:   3    -0.230998332255E+04   -0.18851E-06   -0.16459E-05  2416   0.478E-03
 192 F= -.23304243E+04 E0= -.23304243E+04  d E =-.169658E-04  mag=     4.0000
       N       E                     dE             d eps       ncg     rms          rms(c)
DAV:   1    -0.230998331394E+04    0.84198E-05   -0.40976E-04  4592   0.201E-02    0.841E-03
RMM:   2    -0.230998331744E+04   -0.35004E-05   -0.40538E-05  2739   0.468E-03
 193 F= -.23304243E+04 E0= -.23304243E+04  d E =-.181990E-04  mag=     4.0000
       N       E                     dE             d eps       ncg     rms          rms(c)
DAV:   1    -0.230998330734E+04    0.66009E-05   -0.15252E-03  4344   0.384E-02    0.138E-02
RMM:   2    -0.230998332254E+04   -0.15203E-04   -0.15640E-04  3479   0.894E-03    0.118E-02
RMM:   3    -0.230998332344E+04   -0.89774E-06   -0.18994E-05  2556   0.505E-03
 194 F= -.23304243E+04 E0= -.23304243E+04  d E =-.164460E-04  mag=     4.0000
       N       E                     dE             d eps       ncg     rms          rms(c)
DAV:   1    -0.230998332014E+04    0.23985E-05   -0.11734E-04  5040   0.108E-02    0.569E-03
RMM:   2    -0.230998332119E+04   -0.10425E-05   -0.13037E-05  2327   0.268E-03
 195 F= -.23304243E+04 E0= -.23304243E+04  d E =-.170991E-04  mag=     4.0000
       N       E                     dE             d eps       ncg     rms          rms(c)
DAV:   1    -0.230998331474E+04    0.54033E-05   -0.17845E-03  4352   0.420E-02    0.147E-02
RMM:   2    -0.230998333088E+04   -0.16138E-04   -0.17294E-04  3530   0.916E-03    0.789E-03
RMM:   3    -0.230998333240E+04   -0.15203E-05   -0.20887E-05  2478   0.533E-03
 196 F= -.23304243E+04 E0= -.23304243E+04  d E =-.174257E-04  mag=     4.0000
       N       E                     dE             d eps       ncg     rms          rms(c)
DAV:   1    -0.230998332793E+04    0.29518E-05   -0.36884E-04  4600   0.192E-02    0.890E-03
RMM:   2    -0.230998333184E+04   -0.39084E-05   -0.40273E-05  2730   0.457E-03
 197 F= -.23304243E+04 E0= -.23304243E+04  d E =-.196946E-04  mag=     4.0000
       N       E                     dE             d eps       ncg     rms          rms(c)
DAV:   1    -0.230998332677E+04    0.11611E-05   -0.18073E-03  4344   0.416E-02    0.144E-02
RMM:   2    -0.230998334518E+04   -0.18417E-04   -0.18967E-04  3607   0.960E-03    0.132E-02
RMM:   3    -0.230998334626E+04   -0.10822E-05   -0.24065E-05  2636   0.540E-03
 198 F= -.23304243E+04 E0= -.23304243E+04  d E =-.146765E-04  mag=     4.0000
       N       E                     dE             d eps       ncg     rms          rms(c)
DAV:   1    -0.230998334531E+04   -0.12251E-06   -0.10489E-04  5048   0.102E-02    0.588E-03
RMM:   2    -0.230998334628E+04   -0.97549E-06   -0.12521E-05  2328   0.254E-03
 199 F= -.23304243E+04 E0= -.23304243E+04  d E =-.147464E-04  mag=     4.0000
       N       E                     dE             d eps       ncg     rms          rms(c)
DAV:   1    -0.230998333888E+04    0.64224E-05   -0.13981E-03  4304   0.364E-02    0.122E-02
RMM:   2    -0.230998335304E+04   -0.14159E-04   -0.14757E-04  3237   0.805E-03    0.865E-03
RMM:   3    -0.230998335447E+04   -0.14315E-05   -0.18501E-05  2296   0.478E-03
 200 F= -.23304244E+04 E0= -.23304244E+04  d E =-.150918E-04  mag=     4.0000
       N       E                     dE             d eps       ncg     rms          rms(c)
DAV:   1    -0.230998334201E+04    0.11036E-04   -0.95306E-04  4312   0.301E-02    0.111E-02
RMM:   2    -0.230998335160E+04   -0.95929E-05   -0.10279E-04  3105   0.668E-03    0.846E-03
RMM:   3    -0.230998335253E+04   -0.92965E-06   -0.14030E-05  2476   0.407E-03
 201 F= -.23304244E+04 E0= -.23304244E+04  d E =-.188532E-04  mag=     4.0000
