       N       E                     dE             d eps       ncg     rms          rms(c)
DAV:   1     0.124382631068E+05    0.12438E+05   -0.83980E+05  4640   0.142E+03
DAV:   2    -0.124585907691E+04   -0.13684E+05   -0.13155E+05  4960   0.322E+02
DAV:   3    -0.249055305795E+04   -0.12447E+04   -0.12338E+04  5440   0.105E+02
DAV:   4    -0.251892720049E+04   -0.28374E+02   -0.28193E+02  5680   0.196E+01
DAV:   5    -0.251977527768E+04   -0.84808E+00   -0.84624E+00  5840   0.285E+00    0.170E+02
RMM:   6    -0.148389225924E+04    0.10359E+04   -0.19129E+03  4508   0.377E+01    0.724E+01
RMM:   7    -0.166041651132E+04   -0.17652E+03   -0.27458E+02  5135   0.136E+01    0.492E+01
RMM:   8    -0.171832383188E+04   -0.57907E+02   -0.50931E+01  5266   0.739E+00    0.437E+01
RMM:   9    -0.179299469840E+04   -0.74671E+02   -0.68265E+01  4943   0.748E+00    0.352E+01
RMM:  10    -0.191005560419E+04   -0.11706E+03   -0.61337E+01  5257   0.735E+00    0.290E+01
RMM:  11    -0.196565351298E+04   -0.55598E+02   -0.22903E+01  5357   0.412E+00    0.254E+01
RMM:  12    -0.205068726167E+04   -0.85034E+02   -0.33415E+01  5056   0.454E+00    0.230E+01
RMM:  13    -0.209681984479E+04   -0.46133E+02   -0.17336E+01  5398   0.331E+00    0.156E+01
RMM:  14    -0.215610767146E+04   -0.59288E+02   -0.26302E+01  4719   0.380E+00    0.116E+01
RMM:  15    -0.225321220616E+04   -0.97105E+02   -0.77647E+01  4567   0.621E+00    0.124E+01
RMM:  16    -0.229519422544E+04   -0.41982E+02   -0.36838E+01  4554   0.452E+00    0.864E+00
RMM:  17    -0.230639864454E+04   -0.11204E+02   -0.11853E+01  4769   0.258E+00    0.514E+00
RMM:  18    -0.231060082172E+04   -0.42022E+01   -0.35039E+00  5041   0.129E+00    0.232E+00
RMM:  19    -0.231276271958E+04   -0.21619E+01   -0.87195E-01  4866   0.799E-01    0.151E+00
RMM:  20    -0.231325859327E+04   -0.49587E+00   -0.23480E-01  5093   0.376E-01    0.803E-01
RMM:  21    -0.231337137412E+04   -0.11278E+00   -0.71374E-02  4651   0.234E-01    0.612E-01
RMM:  22    -0.231340970990E+04   -0.38336E-01   -0.21687E-02  4732   0.137E-01    0.296E-01
RMM:  23    -0.231343205706E+04   -0.22347E-01   -0.82138E-03  4732   0.712E-02    0.216E-01
RMM:  24    -0.231345309705E+04   -0.21040E-01   -0.62017E-03  4499   0.633E-02    0.117E-01
RMM:  25    -0.231346630574E+04   -0.13209E-01   -0.38473E-03  4592   0.477E-02    0.931E-02
RMM:  26    -0.231347540093E+04   -0.90952E-02   -0.24621E-03  4575   0.403E-02    0.436E-02
RMM:  27    -0.231348265530E+04   -0.72544E-02   -0.24161E-03  4541   0.339E-02    0.289E-02
RMM:  28    -0.231348459000E+04   -0.19347E-02   -0.69887E-04  4276   0.256E-02    0.200E-02
RMM:  29    -0.231348552211E+04   -0.93211E-03   -0.32176E-04  4065   0.115E-02    0.122E-02
RMM:  30    -0.231348583674E+04   -0.31462E-03   -0.79638E-05  3712   0.104E-02    0.661E-03
RMM:  31    -0.231348598426E+04   -0.14752E-03   -0.36934E-05  3393   0.430E-03    0.425E-03
RMM:  32    -0.231348606492E+04   -0.80661E-04   -0.12788E-05  2987   0.412E-03    0.263E-03
RMM:  33    -0.231348610160E+04   -0.36677E-04   -0.87496E-06  2934   0.271E-03    0.161E-03
RMM:  34    -0.231348611760E+04   -0.16001E-04   -0.49207E-06  2593   0.249E-03    0.928E-04
RMM:  35    -0.231348612003E+04   -0.24264E-05   -0.25622E-06  2465   0.189E-03
   1 F= -.23343429E+04 E0= -.23343429E+04  d E =-.200172E-04  mag=     6.0000
       N       E                     dE             d eps       ncg     rms          rms(c)
DAV:   1    -0.231347637074E+04    0.97469E-02   -0.21163E+00  4560   0.615E-01    0.309E-01
RMM:   2    -0.231347665413E+04   -0.28339E-03   -0.10214E-02  3905   0.408E-02    0.348E-01
RMM:   3    -0.231347634623E+04    0.30790E-03   -0.22738E-03  5114   0.203E-02    0.321E-01
RMM:   4    -0.231347569879E+04    0.64744E-03   -0.10496E-03  4629   0.133E-02    0.993E-02
RMM:   5    -0.231347573503E+04   -0.36240E-04   -0.31234E-04  3314   0.886E-03    0.109E-01
RMM:   6    -0.231347564971E+04    0.85327E-04   -0.98621E-05  2960   0.506E-03    0.283E-02
RMM:   7    -0.231347564387E+04    0.58334E-05   -0.17625E-05  2648   0.262E-03
   2 F= -.23343323E+04 E0= -.23343323E+04  d E =-.221047E-04  mag=     6.0000
       N       E                     dE             d eps       ncg     rms          rms(c)
DAV:   1    -0.231347158232E+04    0.40674E-02   -0.83860E+00  4480   0.123E+00    0.615E-01
RMM:   2    -0.231347211755E+04   -0.53522E-03   -0.34319E-02  4205   0.791E-02    0.700E-01
RMM:   3    -0.231347095077E+04    0.11668E-02   -0.81772E-03  5447   0.411E-02    0.600E-01
RMM:   4    -0.231346848406E+04    0.24667E-02   -0.43611E-03  4989   0.257E-02    0.187E-01
RMM:   5    -0.231346858350E+04   -0.99438E-04   -0.11296E-03  4040   0.168E-02    0.198E-01
RMM:   6    -0.231346829977E+04    0.28373E-03   -0.34400E-04  3569   0.837E-03    0.453E-02
RMM:   7    -0.231346828283E+04    0.16938E-04   -0.57721E-05  2981   0.409E-03    0.232E-02
RMM:   8    -0.231346828117E+04    0.16591E-05   -0.16585E-05  2812   0.267E-03
   3 F= -.23343252E+04 E0= -.23343252E+04  d E =-.198989E-04  mag=     6.0000
       N       E                     dE             d eps       ncg     rms          rms(c)
DAV:   1    -0.231347277868E+04   -0.44958E-02   -0.40123E+00  4640   0.858E-01    0.464E-01
RMM:   2    -0.231347403771E+04   -0.12590E-02   -0.17419E-02  4033   0.577E-02    0.580E-01
RMM:   3    -0.231347249998E+04    0.15377E-02   -0.41936E-03  5319   0.290E-02    0.383E-01
RMM:   4    -0.231347160050E+04    0.89948E-03   -0.17460E-03  4541   0.168E-02    0.117E-01
RMM:   5    -0.231347177429E+04   -0.17379E-03   -0.62915E-04  3534   0.120E-02    0.167E-01
RMM:   6    -0.231347156674E+04    0.20756E-03   -0.18891E-04  3218   0.673E-03    0.305E-02
RMM:   7    -0.231347155896E+04    0.77726E-05   -0.32840E-05  2832   0.311E-03
   4 F= -.23343283E+04 E0= -.23343283E+04  d E =-.146380E-04  mag=     6.0000
       N       E                     dE             d eps       ncg     rms          rms(c)
DAV:   1    -0.231348149791E+04   -0.99312E-02   -0.78338E+00  4480   0.123E+00    0.570E-01
RMM:   2    -0.231348279964E+04   -0.13017E-02   -0.27286E-02  4138   0.738E-02    0.546E-01
RMM:   3    -0.231348297704E+04   -0.17740E-03   -0.62537E-03  5166   0.382E-02    0.604E-01
RMM:   4    -0.231348074444E+04    0.22326E-02   -0.35145E-03  4820   0.248E-02    0.147E-01
RMM:   5    -0.231348081836E+04   -0.73915E-04   -0.93717E-04  4335   0.147E-02    0.158E-01
RMM:   6    -0.231348065998E+04    0.15838E-03   -0.30718E-04  3181   0.767E-03    0.669E-02
RMM:   7    -0.231348062820E+04    0.31771E-04   -0.48976E-05  3000   0.405E-03    0.181E-02
RMM:   8    -0.231348062979E+04   -0.15864E-05   -0.17508E-05  2894   0.287E-03
   5 F= -.23343374E+04 E0= -.23343374E+04  d E =-.280567E-04  mag=     6.0000
       N       E                     dE             d eps       ncg     rms          rms(c)
DAV:   1    -0.231352776301E+04   -0.47135E-01   -0.42373E+00  4480   0.830E-01    0.435E-01
RMM:   2    -0.231352790023E+04   -0.13722E-03   -0.14477E-02  3936   0.517E-02    0.356E-01
RMM:   3    -0.231352851048E+04   -0.61025E-03   -0.38637E-03  5265   0.240E-02    0.514E-01
RMM:   4    -0.231352681374E+04    0.16967E-02   -0.26383E-03  4806   0.190E-02    0.131E-01
RMM:   5    -0.231352691965E+04   -0.10591E-03   -0.70341E-04  3571   0.119E-02    0.169E-01
RMM:   6    -0.231352671635E+04    0.20330E-03   -0.17894E-04  3222   0.653E-03    0.291E-02
RMM:   7    -0.231352670831E+04    0.80409E-05   -0.30061E-05  2784   0.320E-03
   6 F= -.23343838E+04 E0= -.23343838E+04  d E =-.135436E-04  mag=     6.0000
       N       E                     dE             d eps       ncg     rms          rms(c)
DAV:   1    -0.231341213666E+04    0.11458E+00   -0.80469E+00  4480   0.127E+00    0.732E-01
RMM:   2    -0.231341606273E+04   -0.39261E-02   -0.45314E-02  4654   0.966E-02    0.934E-01
RMM:   3    -0.231341145489E+04    0.46078E-02   -0.11734E-02  5220   0.542E-02    0.627E-01
RMM:   4    -0.231340918062E+04    0.22743E-02   -0.44042E-03  4775   0.262E-02    0.257E-01
RMM:   5    -0.231340968658E+04   -0.50596E-03   -0.25920E-03  4638   0.223E-02    0.331E-01
RMM:   6    -0.231340890130E+04    0.78528E-03   -0.69372E-04  4203   0.120E-02    0.913E-02
RMM:   7    -0.231340886421E+04    0.37086E-04   -0.10589E-04  3039   0.561E-03    0.270E-02
RMM:   8    -0.231340886189E+04    0.23273E-05   -0.28574E-05  2925   0.325E-03
   7 F= -.23342654E+04 E0= -.23342654E+04  d E =-.287091E-04  mag=     6.0000
       N       E                     dE             d eps       ncg     rms          rms(c)
DAV:   1    -0.231347017337E+04   -0.61309E-01   -0.71895E+00  4480   0.137E+00    0.555E-01
RMM:   2    -0.231347978730E+04   -0.96139E-02   -0.48255E-02  4639   0.954E-02    0.117E+00
RMM:   3    -0.231347144297E+04    0.83443E-02   -0.69633E-03  5343   0.427E-02    0.294E-01
RMM:   4    -0.231347103956E+04    0.40341E-03   -0.18897E-03  4299   0.170E-02    0.157E-01
RMM:   5    -0.231347115073E+04   -0.11116E-03   -0.87348E-04  3999   0.155E-02    0.169E-01
RMM:   6    -0.231347096835E+04    0.18237E-03   -0.31065E-04  3397   0.836E-03    0.601E-02
RMM:   7    -0.231347094570E+04    0.22658E-04   -0.39591E-05  3002   0.454E-03    0.191E-02
RMM:   8    -0.231347094387E+04    0.18298E-05   -0.11639E-05  2829   0.237E-03
   8 F= -.23343280E+04 E0= -.23343280E+04  d E =-.625776E-04  mag=     6.0000
       N       E                     dE             d eps       ncg     rms          rms(c)
DAV:   1    -0.231349233739E+04   -0.21392E-01   -0.20060E+01  4480   0.231E+00    0.719E-01
RMM:   2    -0.231350812208E+04   -0.15785E-01   -0.10218E-01  4982   0.159E-01    0.119E+00
RMM:   3    -0.231349839933E+04    0.97228E-02   -0.14563E-02  5267   0.726E-02    0.488E-01
RMM:   4    -0.231349716296E+04    0.12364E-02   -0.28979E-03  4980   0.259E-02    0.203E-01
RMM:   5    -0.231349775578E+04   -0.59282E-03   -0.17103E-03  4669   0.197E-02    0.311E-01
RMM:   6    -0.231349707179E+04    0.68400E-03   -0.91087E-04  4319   0.134E-02    0.737E-02
RMM:   7    -0.231349704004E+04    0.31749E-04   -0.76041E-05  3054   0.531E-03    0.262E-02
RMM:   8    -0.231349703924E+04    0.79461E-06   -0.20772E-05  2955   0.323E-03
   9 F= -.23343535E+04 E0= -.23343535E+04  d E =-.657041E-05  mag=     6.0000
       N       E                     dE             d eps       ncg     rms          rms(c)
DAV:   1    -0.231348050475E+04    0.16535E-01   -0.10069E+01  4480   0.158E+00    0.565E-01
RMM:   2    -0.231348666547E+04   -0.61607E-02   -0.67165E-02  4860   0.102E-01    0.602E-01
RMM:   3    -0.231348568069E+04    0.98478E-03   -0.93165E-03  5069   0.557E-02    0.590E-01
RMM:   4    -0.231348338895E+04    0.22917E-02   -0.19157E-03  4938   0.204E-02    0.154E-01
RMM:   5    -0.231348343772E+04   -0.48777E-04   -0.76751E-04  4447   0.132E-02    0.142E-01
RMM:   6    -0.231348333031E+04    0.10742E-03   -0.34288E-04  3195   0.927E-03    0.782E-02
RMM:   7    -0.231348329769E+04    0.32618E-04   -0.43574E-05  3000   0.411E-03    0.261E-02
RMM:   8    -0.231348329450E+04    0.31880E-05   -0.13036E-05  2848   0.270E-03
  10 F= -.23343396E+04 E0= -.23343396E+04  d E =-.176147E-04  mag=     6.0000
       N       E                     dE             d eps       ncg     rms          rms(c)
DAV:   1    -0.231346759085E+04    0.15707E-01   -0.19703E+01  4480   0.218E+00    0.891E-01
RMM:   2    -0.231347704435E+04   -0.94535E-02   -0.13604E-01  4873   0.167E-01    0.563E-01
RMM:   3    -0.231347887381E+04   -0.18295E-02   -0.19230E-02  4961   0.833E-02    0.869E-01
RMM:   4    -0.231347334373E+04    0.55301E-02   -0.71071E-03  5478   0.334E-02    0.286E-01
RMM:   5    -0.231347285305E+04    0.49069E-03   -0.17039E-03  4546   0.216E-02    0.105E-01
RMM:   6    -0.231347309453E+04   -0.24148E-03   -0.57309E-04  3689   0.145E-02    0.209E-01
RMM:   7    -0.231347284497E+04    0.24957E-03   -0.19899E-04  3416   0.786E-03    0.579E-02
RMM:   8    -0.231347283290E+04    0.12068E-04   -0.52369E-05  2977   0.453E-03    0.184E-02
RMM:   9    -0.231347283582E+04   -0.29262E-05   -0.12458E-05  2951   0.305E-03
  11 F= -.23343301E+04 E0= -.23343301E+04  d E =-.248267E-04  mag=     6.0000
       N       E                     dE             d eps       ncg     rms          rms(c)
DAV:   1    -0.231339803848E+04    0.74794E-01   -0.99614E+00  4480   0.166E+00    0.473E-01
RMM:   2    -0.231340252525E+04   -0.44868E-02   -0.42313E-02  4395   0.901E-02    0.505E-01
RMM:   3    -0.231340113160E+04    0.13937E-02   -0.57158E-03  5263   0.385E-02    0.410E-01
RMM:   4    -0.231340000222E+04    0.11294E-02   -0.15619E-03  4435   0.197E-02    0.166E-01
RMM:   5    -0.231340010023E+04   -0.98015E-04   -0.71535E-04  4159   0.132E-02    0.183E-01
RMM:   6    -0.231339990314E+04    0.19709E-03   -0.26581E-04  3676   0.866E-03    0.486E-02
RMM:   7    -0.231339990005E+04    0.30866E-05   -0.32476E-05  2961   0.401E-03
  12 F= -.23342569E+04 E0= -.23342569E+04  d E =-.191287E-04  mag=     6.0000
       N       E                     dE             d eps       ncg     rms          rms(c)
DAV:   1    -0.231355263122E+04   -0.15273E+00   -0.19342E+01  4480   0.234E+00    0.730E-01
RMM:   2    -0.231356426034E+04   -0.11629E-01   -0.11714E-01  4468   0.151E-01    0.760E-01
RMM:   3    -0.231356323793E+04    0.10224E-02   -0.16151E-02  5188   0.781E-02    0.735E-01
RMM:   4    -0.231356013390E+04    0.31040E-02   -0.46570E-03  5172   0.316E-02    0.324E-01
RMM:   5    -0.231356012867E+04    0.52312E-05   -0.22667E-03  4597   0.196E-02    0.299E-01
RMM:   6    -0.231355958955E+04    0.53912E-03   -0.77548E-04  4465   0.135E-02    0.906E-02
RMM:   7    -0.231355954827E+04    0.41285E-04   -0.80791E-05  3108   0.541E-03    0.381E-02
RMM:   8    -0.231355954184E+04    0.64250E-05   -0.30830E-05  2982   0.329E-03
  13 F= -.23344161E+04 E0= -.23344161E+04  d E =-.240075E-04  mag=     6.0000
       N       E                     dE             d eps       ncg     rms          rms(c)
DAV:   1    -0.231348020875E+04    0.79340E-01   -0.51717E+00  4480   0.115E+00    0.472E-01
RMM:   2    -0.231348296942E+04   -0.27607E-02   -0.43328E-02  4210   0.863E-02    0.422E-01
RMM:   3    -0.231348307343E+04   -0.10401E-03   -0.55334E-03  5052   0.375E-02    0.531E-01
RMM:   4    -0.231348120358E+04    0.18698E-02   -0.20754E-03  4864   0.207E-02    0.161E-01
RMM:   5    -0.231348131653E+04   -0.11295E-03   -0.83181E-04  3895   0.117E-02    0.184E-01
RMM:   6    -0.231348109723E+04    0.21930E-03   -0.32722E-04  3761   0.861E-03    0.690E-02
RMM:   7    -0.231348107110E+04    0.26138E-04   -0.39630E-05  2951   0.392E-03    0.223E-02
RMM:   8    -0.231348106992E+04    0.11783E-05   -0.11712E-05  2754   0.234E-03
  14 F= -.23343385E+04 E0= -.23343384E+04  d E =-.196813E-04  mag=     6.0000
       N       E                     dE             d eps       ncg     rms          rms(c)
DAV:   1    -0.231347965418E+04    0.14169E-02   -0.12944E+00  4880   0.404E-01    0.564E-01
RMM:   2    -0.231347528255E+04    0.43716E-02   -0.16003E-02  4281   0.412E-02    0.303E-01
RMM:   3    -0.231347569177E+04   -0.40922E-03   -0.36375E-03  4744   0.285E-02    0.438E-01
RMM:   4    -0.231347449636E+04    0.11954E-02   -0.19120E-03  4931   0.180E-02    0.187E-01
RMM:   5    -0.231347436675E+04    0.12962E-03   -0.48096E-04  3745   0.995E-03    0.119E-01
RMM:   6    -0.231347432305E+04    0.43696E-04   -0.22585E-04  3133   0.687E-03    0.886E-02
RMM:   7    -0.231347426972E+04    0.53331E-04   -0.47391E-05  2896   0.422E-03    0.126E-02
RMM:   8    -0.231347426907E+04    0.65166E-06   -0.87248E-06  2615   0.206E-03
  15 F= -.23343305E+04 E0= -.23343305E+04  d E =-.201790E-04  mag=     6.0000
       N       E                     dE             d eps       ncg     rms          rms(c)
DAV:   1    -0.231350510830E+04   -0.30839E-01   -0.65706E-01  5040   0.278E-01    0.459E-01
RMM:   2    -0.231350176481E+04    0.33435E-02   -0.11969E-02  4442   0.362E-02    0.267E-01
RMM:   3    -0.231350302960E+04   -0.12648E-02   -0.38046E-03  4990   0.276E-02    0.537E-01
RMM:   4    -0.231350102424E+04    0.20054E-02   -0.15816E-03  4912   0.172E-02    0.118E-01
RMM:   5    -0.231350094632E+04    0.77927E-04   -0.31390E-04  3951   0.797E-03    0.485E-02
RMM:   6    -0.231350092792E+04    0.18399E-04   -0.51374E-05  2974   0.426E-03    0.164E-02
RMM:   7    -0.231350093232E+04   -0.44058E-05   -0.16100E-05  2606   0.258E-03
  16 F= -.23343581E+04 E0= -.23343581E+04  d E =-.189881E-04  mag=     6.0000
       N       E                     dE             d eps       ncg     rms          rms(c)
DAV:   1    -0.231346532618E+04    0.35602E-01   -0.12533E+00  4800   0.392E-01    0.474E-01
RMM:   2    -0.231346294744E+04    0.23787E-02   -0.10756E-02  4453   0.352E-02    0.305E-01
RMM:   3    -0.231346472879E+04   -0.17813E-02   -0.43912E-03  5068   0.288E-02    0.622E-01
RMM:   4    -0.231346224113E+04    0.24877E-02   -0.19421E-03  5027   0.190E-02    0.128E-01
RMM:   5    -0.231346219645E+04    0.44679E-04   -0.37163E-04  4006   0.848E-03    0.563E-02
RMM:   6    -0.231346220348E+04   -0.70330E-05   -0.86500E-05  2923   0.508E-03
  17 F= -.23343186E+04 E0= -.23343186E+04  d E =-.202447E-04  mag=     6.0000
       N       E                     dE             d eps       ncg     rms          rms(c)
DAV:   1    -0.231345998841E+04    0.22080E-02   -0.63191E-01  4720   0.268E-01    0.374E-01
RMM:   2    -0.231345807859E+04    0.19098E-02   -0.79074E-03  4466   0.291E-02    0.224E-01
RMM:   3    -0.231345899114E+04   -0.91255E-03   -0.25113E-03  4643   0.226E-02    0.444E-01
RMM:   4    -0.231345762235E+04    0.13688E-02   -0.10424E-03  4444   0.142E-02    0.981E-02
RMM:   5    -0.231345759569E+04    0.26664E-04   -0.20395E-04  3660   0.651E-03    0.515E-02
RMM:   6    -0.231345760568E+04   -0.99900E-05   -0.80481E-05  2840   0.457E-03
  18 F= -.23343146E+04 E0= -.23343146E+04  d E =-.182709E-04  mag=     6.0000
       N       E                     dE             d eps       ncg     rms          rms(c)
DAV:   1    -0.231350917514E+04   -0.51579E-01   -0.12361E+00  4720   0.383E-01    0.426E-01
RMM:   2    -0.231350756606E+04    0.16091E-02   -0.85189E-03  4381   0.316E-02    0.253E-01
RMM:   3    -0.231350841195E+04   -0.84588E-03   -0.26926E-03  4532   0.230E-02    0.441E-01
RMM:   4    -0.231350710708E+04    0.13049E-02   -0.14965E-03  4483   0.147E-02    0.132E-01
RMM:   5    -0.231350720440E+04   -0.97324E-04   -0.36596E-04  3484   0.840E-03    0.143E-01
RMM:   6    -0.231350705790E+04    0.14650E-03   -0.15482E-04  3006   0.610E-03    0.529E-02
RMM:   7    -0.231350704072E+04    0.17180E-04   -0.29400E-05  2625   0.321E-03    0.145E-02
RMM:   8    -0.231350703915E+04    0.15778E-05   -0.57352E-06  2435   0.175E-03
  19 F= -.23343636E+04 E0= -.23343636E+04  d E =-.202093E-04  mag=     6.0000
       N       E                     dE             d eps       ncg     rms          rms(c)
DAV:   1    -0.231347835803E+04    0.28683E-01   -0.61772E-01  4640   0.292E-01    0.285E-01
RMM:   2    -0.231347799158E+04    0.36645E-03   -0.35887E-03  3798   0.214E-02    0.178E-01
RMM:   3    -0.231347859379E+04   -0.60221E-03   -0.13352E-03  4645   0.158E-02    0.362E-01
RMM:   4    -0.231347780460E+04    0.78919E-03   -0.81161E-04  4054   0.116E-02    0.644E-02
RMM:   5    -0.231347778755E+04    0.17042E-04   -0.85174E-05  2881   0.460E-03    0.253E-02
RMM:   6    -0.231347779579E+04   -0.82364E-05   -0.28435E-05  2596   0.303E-03
  20 F= -.23343347E+04 E0= -.23343346E+04  d E =-.187836E-04  mag=     6.0000
       N       E                     dE             d eps       ncg     rms          rms(c)
DAV:   1    -0.231349157451E+04   -0.13787E-01   -0.12096E+00  4480   0.413E-01    0.340E-01
RMM:   2    -0.231349204349E+04   -0.46898E-03   -0.49182E-03  3997   0.270E-02    0.297E-01
RMM:   3    -0.231349252456E+04   -0.48107E-03   -0.20710E-03  5059   0.171E-02    0.406E-01
RMM:   4    -0.231349170451E+04    0.82005E-03   -0.91128E-04  4268   0.132E-02    0.121E-01
RMM:   5    -0.231349170495E+04   -0.44308E-06   -0.35109E-04  3190   0.798E-03    0.120E-01
RMM:   6    -0.231349160749E+04    0.97463E-04   -0.80470E-05  2894   0.491E-03    0.161E-02
RMM:   7    -0.231349160713E+04    0.36070E-06   -0.14198E-05  2691   0.232E-03
  21 F= -.23343483E+04 E0= -.23343483E+04  d E =-.224570E-04  mag=     6.0000
       N       E                     dE             d eps       ncg     rms          rms(c)
DAV:   1    -0.231346549725E+04    0.26110E-01   -0.59509E-01  4640   0.282E-01    0.251E-01
RMM:   2    -0.231346545679E+04    0.40464E-04   -0.27842E-03  3768   0.189E-02    0.185E-01
RMM:   3    -0.231346608361E+04   -0.62683E-03   -0.14056E-03  4540   0.139E-02    0.362E-01
RMM:   4    -0.231346530907E+04    0.77454E-03   -0.61589E-04  3907   0.108E-02    0.599E-02
RMM:   5    -0.231346535341E+04   -0.44342E-04   -0.19206E-04  2877   0.595E-03    0.909E-02
RMM:   6    -0.231346529219E+04    0.61223E-04   -0.47864E-05  2615   0.378E-03    0.142E-02
RMM:   7    -0.231346529070E+04    0.14831E-05   -0.87483E-06  2316   0.172E-03
  22 F= -.23343220E+04 E0= -.23343219E+04  d E =-.212731E-04  mag=     6.0000
       N       E                     dE             d eps       ncg     rms          rms(c)
DAV:   1    -0.231350208051E+04   -0.36788E-01   -0.11799E+00  4800   0.392E-01    0.384E-01
RMM:   2    -0.231350138245E+04    0.69806E-03   -0.59005E-03  3743   0.279E-02    0.223E-01
RMM:   3    -0.231350110446E+04    0.27798E-03   -0.11208E-03  4190   0.161E-02    0.930E-02
RMM:   4    -0.231350129575E+04   -0.19128E-03   -0.48457E-04  3719   0.985E-03    0.169E-01
RMM:   5    -0.231350108759E+04    0.20816E-03   -0.16510E-04  3158   0.672E-03    0.296E-02
RMM:   6    -0.231350109394E+04   -0.63537E-05   -0.36798E-05  2618   0.310E-03
  23 F= -.23343580E+04 E0= -.23343580E+04  d E =-.177917E-04  mag=     6.0000
       N       E                     dE             d eps       ncg     rms          rms(c)
DAV:   1    -0.231348700676E+04    0.14081E-01   -0.64965E-01  5040   0.317E-01    0.423E-01
RMM:   2    -0.231348452418E+04    0.24826E-02   -0.10341E-02  4362   0.351E-02    0.266E-01
RMM:   3    -0.231348586153E+04   -0.13374E-02   -0.36258E-03  4826   0.267E-02    0.561E-01
RMM:   4    -0.231348382768E+04    0.20339E-02   -0.14090E-03  4738   0.163E-02    0.972E-02
RMM:   5    -0.231348383042E+04   -0.27428E-05   -0.27961E-04  3503   0.728E-03    0.871E-02
RMM:   6    -0.231348381120E+04    0.19216E-04   -0.14079E-04  2850   0.555E-03    0.730E-02
RMM:   7    -0.231348377239E+04    0.38814E-04   -0.32644E-05  2694   0.355E-03    0.151E-02
RMM:   8    -0.231348377110E+04    0.12941E-05   -0.58929E-06  2527   0.186E-03
  24 F= -.23343404E+04 E0= -.23343404E+04  d E =-.198229E-04  mag=     6.0000
       N       E                     dE             d eps       ncg     rms          rms(c)
DAV:   1    -0.231347241007E+04    0.11362E-01   -0.12644E+00  5120   0.414E-01    0.624E-01
RMM:   2    -0.231346646224E+04    0.59478E-02   -0.23518E-02  4433   0.552E-02    0.380E-01
RMM:   3    -0.231346919677E+04   -0.27345E-02   -0.78827E-03  5062   0.421E-02    0.767E-01
RMM:   4    -0.231346500064E+04    0.41961E-02   -0.32878E-03  5250   0.241E-02    0.145E-01
RMM:   5    -0.231346511537E+04   -0.11474E-03   -0.87041E-04  4393   0.117E-02    0.177E-01
RMM:   6    -0.231346491478E+04    0.20060E-03   -0.39184E-04  3115   0.835E-03    0.860E-02
RMM:   7    -0.231346486221E+04    0.52568E-04   -0.67244E-05  3015   0.486E-03    0.239E-02
RMM:   8    -0.231346485956E+04    0.26484E-05   -0.10718E-05  2645   0.253E-03
  25 F= -.23343218E+04 E0= -.23343218E+04  d E =-.200424E-04  mag=     6.0000
