       N       E                     dE             d eps       ncg     rms          rms(c)
DAV:   1     0.124963421351E+05    0.12496E+05   -0.84377E+05  4640   0.142E+03
DAV:   2    -0.125081620270E+04   -0.13747E+05   -0.13207E+05  5040   0.323E+02
DAV:   3    -0.249736972752E+04   -0.12466E+04   -0.12355E+04  5520   0.105E+02
DAV:   4    -0.252575372988E+04   -0.28384E+02   -0.28215E+02  5680   0.196E+01
DAV:   5    -0.252659281519E+04   -0.83909E+00   -0.83753E+00  5760   0.284E+00    0.171E+02
RMM:   6    -0.149581066054E+04    0.10308E+04   -0.19146E+03  4511   0.379E+01    0.736E+01
RMM:   7    -0.166663765409E+04   -0.17083E+03   -0.31197E+02  5092   0.142E+01    0.536E+01
RMM:   8    -0.171102267013E+04   -0.44385E+02   -0.59320E+01  5302   0.751E+00    0.466E+01
RMM:   9    -0.175632583838E+04   -0.45303E+02   -0.64526E+01  5012   0.673E+00    0.352E+01
RMM:  10    -0.191596308819E+04   -0.15964E+03   -0.78924E+01  5214   0.852E+00    0.357E+01
RMM:  11    -0.196374652778E+04   -0.47783E+02   -0.26585E+01  5369   0.467E+00    0.230E+01
RMM:  12    -0.204062871602E+04   -0.76882E+02   -0.31637E+01  5170   0.442E+00    0.177E+01
RMM:  13    -0.210642437954E+04   -0.65796E+02   -0.25246E+01  4845   0.378E+00    0.129E+01
RMM:  14    -0.225337652910E+04   -0.14695E+03   -0.13902E+02  4614   0.801E+00    0.909E+00
RMM:  15    -0.228919001690E+04   -0.35813E+02   -0.29575E+01  4526   0.418E+00    0.788E+00
RMM:  16    -0.230572575465E+04   -0.16536E+02   -0.14885E+01  4716   0.280E+00    0.522E+00
RMM:  17    -0.231282964724E+04   -0.71039E+01   -0.56242E+00  4664   0.184E+00    0.288E+00
RMM:  18    -0.231654300189E+04   -0.37134E+01   -0.22901E+00  4935   0.106E+00    0.166E+00
RMM:  19    -0.231733193988E+04   -0.78894E+00   -0.48695E-01  5394   0.539E-01    0.100E+00
RMM:  20    -0.231753826397E+04   -0.20632E+00   -0.10974E-01  4982   0.225E-01    0.633E-01
RMM:  21    -0.231758568456E+04   -0.47421E-01   -0.36850E-02  4914   0.171E-01    0.392E-01
RMM:  22    -0.231761503388E+04   -0.29349E-01   -0.12643E-02  4715   0.890E-02    0.210E-01
RMM:  23    -0.231763520380E+04   -0.20170E-01   -0.69352E-03  4593   0.665E-02    0.125E-01
RMM:  24    -0.231765014972E+04   -0.14946E-01   -0.48901E-03  4555   0.527E-02    0.852E-02
RMM:  25    -0.231766083691E+04   -0.10687E-01   -0.30024E-03  4573   0.448E-02    0.533E-02
RMM:  26    -0.231766633748E+04   -0.55006E-02   -0.17566E-03  4675   0.312E-02    0.302E-02
RMM:  27    -0.231766907159E+04   -0.27341E-02   -0.81278E-04  4275   0.223E-02    0.171E-02
RMM:  28    -0.231767014710E+04   -0.10755E-02   -0.32010E-04  4055   0.132E-02    0.863E-03
RMM:  29    -0.231767048135E+04   -0.33424E-03   -0.93667E-05  3808   0.855E-03    0.529E-03
RMM:  30    -0.231767062775E+04   -0.14640E-03   -0.32106E-05  3364   0.453E-03    0.324E-03
RMM:  31    -0.231767070459E+04   -0.76842E-04   -0.15095E-05  3039   0.365E-03    0.176E-03
RMM:  32    -0.231767072661E+04   -0.22019E-04   -0.65167E-06  2875   0.273E-03    0.119E-03
RMM:  33    -0.231767073166E+04   -0.50485E-05   -0.30869E-06  2490   0.210E-03
   1 F= -.23385841E+04 E0= -.23385841E+04  d E =-.345517E-08  mag=     5.0000
       N       E                     dE             d eps       ncg     rms          rms(c)
DAV:   1    -0.231765116890E+04    0.19558E-01   -0.20745E+00  4480   0.584E-01    0.430E-01
RMM:   2    -0.231765095822E+04    0.21068E-03   -0.17489E-02  4595   0.576E-02    0.308E-01
RMM:   3    -0.231765058915E+04    0.36907E-03   -0.33901E-03  5132   0.306E-02    0.302E-01
RMM:   4    -0.231765046391E+04    0.12524E-03   -0.26612E-03  4572   0.224E-02    0.285E-01
RMM:   5    -0.231764963721E+04    0.82670E-03   -0.72582E-04  4561   0.154E-02    0.500E-02
RMM:   6    -0.231764966817E+04   -0.30965E-04   -0.12985E-04  3189   0.666E-03    0.807E-02
RMM:   7    -0.231764960436E+04    0.63810E-04   -0.43898E-05  2860   0.468E-03    0.143E-02
RMM:   8    -0.231764960281E+04    0.15565E-05   -0.11996E-05  2724   0.213E-03
   2 F= -.23385624E+04 E0= -.23385624E+04  d E =-.152319E-07  mag=     5.0000
       N       E                     dE             d eps       ncg     rms          rms(c)
DAV:   1    -0.231764087421E+04    0.87302E-02   -0.82993E+00  4480   0.120E+00    0.863E-01
RMM:   2    -0.231763945844E+04    0.14158E-02   -0.65412E-02  4963   0.108E-01    0.615E-01
RMM:   3    -0.231763829355E+04    0.11649E-02   -0.13417E-02  5424   0.642E-02    0.627E-01
RMM:   4    -0.231763745895E+04    0.83461E-03   -0.10922E-02  5116   0.451E-02    0.568E-01
RMM:   5    -0.231763407253E+04    0.33864E-02   -0.30166E-03  5106   0.308E-02    0.835E-02
RMM:   6    -0.231763418212E+04   -0.10958E-03   -0.43985E-04  3729   0.111E-02    0.142E-01
RMM:   7    -0.231763398263E+04    0.19949E-03   -0.14533E-04  3192   0.731E-03    0.285E-02
RMM:   8    -0.231763397264E+04    0.99894E-05   -0.56838E-05  3071   0.379E-03
   3 F= -.23385480E+04 E0= -.23385480E+04  d E =-.741746E-09  mag=     5.0000
       N       E                     dE             d eps       ncg     rms          rms(c)
DAV:   1    -0.231765196959E+04   -0.17987E-01   -0.39536E+00  4480   0.814E-01    0.550E-01
RMM:   2    -0.231765209334E+04   -0.12375E-03   -0.30555E-02  4635   0.738E-02    0.361E-01
RMM:   3    -0.231765471544E+04   -0.26221E-02   -0.64435E-03  5124   0.413E-02    0.635E-01
RMM:   4    -0.231765051802E+04    0.41974E-02   -0.38372E-03  4982   0.314E-02    0.117E-01
RMM:   5    -0.231765047575E+04    0.42270E-04   -0.56449E-04  4243   0.121E-02    0.606E-02
RMM:   6    -0.231765045183E+04    0.23917E-04   -0.13280E-04  3534   0.635E-03    0.491E-02
RMM:   7    -0.231765044020E+04    0.11632E-04   -0.45067E-05  2865   0.425E-03    0.359E-02
RMM:   8    -0.231765042937E+04    0.10836E-04   -0.14187E-05  2714   0.261E-03    0.912E-03
RMM:   9    -0.231765043001E+04   -0.64085E-06   -0.55894E-06  2682   0.183E-03
   4 F= -.23385658E+04 E0= -.23385658E+04  d E =-.333958E-08  mag=     5.0000
       N       E                     dE             d eps       ncg     rms          rms(c)
DAV:   1    -0.231768428174E+04   -0.33852E-01   -0.72131E+00  4480   0.122E+00    0.628E-01
RMM:   2    -0.231768585524E+04   -0.15735E-02   -0.25471E-02  5094   0.808E-02    0.497E-01
RMM:   3    -0.231768600054E+04   -0.14530E-03   -0.76802E-03  5371   0.474E-02    0.534E-01
RMM:   4    -0.231768476129E+04    0.12392E-02   -0.42823E-03  5075   0.327E-02    0.340E-01
RMM:   5    -0.231768360965E+04    0.11516E-02   -0.11758E-03  4744   0.165E-02    0.878E-02
RMM:   6    -0.231768368009E+04   -0.70441E-04   -0.34279E-04  3362   0.105E-02    0.121E-01
RMM:   7    -0.231768355081E+04    0.12928E-03   -0.74363E-05  2961   0.540E-03    0.195E-02
RMM:   8    -0.231768354871E+04    0.20973E-05   -0.26778E-05  2921   0.283E-03
   5 F= -.23385951E+04 E0= -.23385951E+04  d E =-.365375E-08  mag=     5.0000
       N       E                     dE             d eps       ncg     rms          rms(c)
DAV:   1    -0.231767199037E+04    0.11560E-01   -0.39594E+00  4640   0.850E-01    0.464E-01
RMM:   2    -0.231767127726E+04    0.71310E-03   -0.19903E-02  4563   0.668E-02    0.279E-01
RMM:   3    -0.231767101345E+04    0.26381E-03   -0.32446E-03  5088   0.322E-02    0.291E-01
RMM:   4    -0.231767097846E+04    0.34994E-04   -0.21203E-03  5001   0.229E-02    0.269E-01
RMM:   5    -0.231767020244E+04    0.77602E-03   -0.72443E-04  4573   0.155E-02    0.649E-02
RMM:   6    -0.231767016662E+04    0.35818E-04   -0.10747E-04  3488   0.589E-03    0.386E-02
RMM:   7    -0.231767017641E+04   -0.97921E-05   -0.49672E-05  2945   0.448E-03
   6 F= -.23385818E+04 E0= -.23385818E+04  d E =-.540695E-08  mag=     5.0000
       N       E                     dE             d eps       ncg     rms          rms(c)
DAV:   1    -0.231764173675E+04    0.28430E-01   -0.79380E+00  4480   0.120E+00    0.686E-01
RMM:   2    -0.231764187172E+04   -0.13497E-03   -0.53196E-02  4946   0.970E-02    0.531E-01
RMM:   3    -0.231764181629E+04    0.55428E-04   -0.88625E-03  5516   0.509E-02    0.610E-01
RMM:   4    -0.231763893004E+04    0.28862E-02   -0.55566E-03  4948   0.395E-02    0.295E-01
RMM:   5    -0.231763814705E+04    0.78299E-03   -0.15206E-03  4782   0.195E-02    0.163E-01
RMM:   6    -0.231763790611E+04    0.24094E-03   -0.38575E-04  3616   0.113E-02    0.863E-02
RMM:   7    -0.231763783677E+04    0.69335E-04   -0.13774E-04  3584   0.669E-03    0.377E-02
RMM:   8    -0.231763782097E+04    0.15804E-04   -0.42776E-05  3088   0.431E-03    0.191E-02
RMM:   9    -0.231763782123E+04   -0.26631E-06   -0.15609E-05  2906   0.329E-03
   7 F= -.23385533E+04 E0= -.23385533E+04  d E =-.211309E-08  mag=     5.0000
       N       E                     dE             d eps       ncg     rms          rms(c)
DAV:   1    -0.231762522110E+04    0.12600E-01   -0.61404E+00  4800   0.107E+00    0.477E-01
RMM:   2    -0.231762700852E+04   -0.17874E-02   -0.42002E-02  4444   0.796E-02    0.356E-01
RMM:   3    -0.231762762066E+04   -0.61214E-03   -0.48158E-03  5100   0.328E-02    0.489E-01
RMM:   4    -0.231762545047E+04    0.21702E-02   -0.21207E-03  4553   0.229E-02    0.140E-01
RMM:   5    -0.231762547019E+04   -0.19728E-04   -0.53798E-04  3861   0.113E-02    0.988E-02
RMM:   6    -0.231762539666E+04    0.73537E-04   -0.17725E-04  3180   0.758E-03    0.516E-02
RMM:   7    -0.231762537617E+04    0.20483E-04   -0.32267E-05  2837   0.374E-03    0.174E-02
RMM:   8    -0.231762537379E+04    0.23895E-05   -0.93816E-06  2625   0.221E-03
   8 F= -.23385380E+04 E0= -.23385380E+04  d E =-.695610E-09  mag=     5.0000
       N       E                     dE             d eps       ncg     rms          rms(c)
DAV:   1    -0.231768251896E+04   -0.57143E-01   -0.20062E+01  4480   0.202E+00    0.836E-01
RMM:   2    -0.231768421839E+04   -0.16994E-02   -0.11371E-01  4540   0.154E-01    0.629E-01
RMM:   3    -0.231768589544E+04   -0.16770E-02   -0.17987E-02  5214   0.788E-02    0.875E-01
RMM:   4    -0.231767899325E+04    0.69022E-02   -0.97558E-03  5033   0.460E-02    0.234E-01
RMM:   5    -0.231767911381E+04   -0.12056E-03   -0.29105E-03  4907   0.301E-02    0.254E-01
RMM:   6    -0.231767855917E+04    0.55465E-03   -0.87977E-04  4471   0.156E-02    0.118E-01
RMM:   7    -0.231767843468E+04    0.12448E-03   -0.21539E-04  3927   0.709E-03    0.374E-02
RMM:   8    -0.231767841914E+04    0.15545E-04   -0.61650E-05  3082   0.528E-03    0.149E-02
RMM:   9    -0.231767842564E+04   -0.65005E-05   -0.12358E-05  2891   0.314E-03
   9 F= -.23385926E+04 E0= -.23385926E+04  d E =-.157410E-07  mag=     5.0000
       N       E                     dE             d eps       ncg     rms          rms(c)
DAV:   1    -0.231765730258E+04    0.21117E-01   -0.10104E+01  4480   0.154E+00    0.534E-01
RMM:   2    -0.231765821594E+04   -0.91336E-03   -0.52300E-02  4267   0.997E-02    0.339E-01
RMM:   3    -0.231766005709E+04   -0.18411E-02   -0.71566E-03  5102   0.429E-02    0.622E-01
RMM:   4    -0.231765637194E+04    0.36851E-02   -0.41388E-03  4767   0.303E-02    0.117E-01
RMM:   5    -0.231765641188E+04   -0.39934E-04   -0.90935E-04  4363   0.163E-02    0.123E-01
RMM:   6    -0.231765628298E+04    0.12889E-03   -0.24162E-04  3465   0.842E-03    0.645E-02
RMM:   7    -0.231765625130E+04    0.31686E-04   -0.68902E-05  3218   0.462E-03    0.221E-02
RMM:   8    -0.231765624577E+04    0.55297E-05   -0.19536E-05  2882   0.338E-03
  10 F= -.23385696E+04 E0= -.23385696E+04  d E =-.420750E-08  mag=     5.0000
       N       E                     dE             d eps       ncg     rms          rms(c)
DAV:   1    -0.231767951148E+04   -0.23260E-01   -0.19828E+01  4480   0.217E+00    0.567E-01
RMM:   2    -0.231768318536E+04   -0.36739E-02   -0.84630E-02  4206   0.133E-01    0.316E-01
RMM:   3    -0.231768421629E+04   -0.10309E-02   -0.86247E-03  4991   0.558E-02    0.571E-01
RMM:   4    -0.231768098128E+04    0.32350E-02   -0.34104E-03  4763   0.309E-02    0.116E-01
RMM:   5    -0.231768096129E+04    0.19990E-04   -0.65307E-04  4387   0.123E-02    0.876E-02
RMM:   6    -0.231768092612E+04    0.35175E-04   -0.18492E-04  3258   0.729E-03    0.728E-02
RMM:   7    -0.231768088510E+04    0.41017E-04   -0.54655E-05  2943   0.483E-03    0.218E-02
RMM:   8    -0.231768088493E+04    0.17231E-06   -0.97477E-06  2763   0.252E-03
  11 F= -.23385943E+04 E0= -.23385943E+04  d E =-.275002E-08  mag=     5.0000
       N       E                     dE             d eps       ncg     rms          rms(c)
DAV:   1    -0.231762792578E+04    0.52959E-01   -0.10185E+01  4480   0.148E+00    0.484E-01
RMM:   2    -0.231762962802E+04   -0.17022E-02   -0.49245E-02  4190   0.928E-02    0.315E-01
RMM:   3    -0.231763106847E+04   -0.14404E-02   -0.72162E-03  5151   0.447E-02    0.578E-01
RMM:   4    -0.231762747609E+04    0.35924E-02   -0.29811E-03  4767   0.288E-02    0.981E-02
RMM:   5    -0.231762748821E+04   -0.12113E-04   -0.48863E-04  4164   0.127E-02    0.111E-01
RMM:   6    -0.231762738507E+04    0.10314E-03   -0.22095E-04  3216   0.765E-03    0.571E-02
RMM:   7    -0.231762736012E+04    0.24944E-04   -0.46354E-05  2999   0.474E-03    0.224E-02
RMM:   8    -0.231762735522E+04    0.49061E-05   -0.16438E-05  2901   0.301E-03
  12 F= -.23385403E+04 E0= -.23385403E+04  d E =-.217647E-07  mag=     5.0000
       N       E                     dE             d eps       ncg     rms          rms(c)
DAV:   1    -0.231768802070E+04   -0.60661E-01   -0.20145E+01  4480   0.190E+00    0.745E-01
RMM:   2    -0.231769350403E+04   -0.54833E-02   -0.12540E-01  4328   0.144E-01    0.437E-01
RMM:   3    -0.231769628986E+04   -0.27858E-02   -0.15075E-02  5198   0.708E-02    0.797E-01
RMM:   4    -0.231768945107E+04    0.68388E-02   -0.56268E-03  5054   0.412E-02    0.157E-01
RMM:   5    -0.231768927869E+04    0.17239E-03   -0.12790E-03  4468   0.193E-02    0.125E-01
RMM:   6    -0.231768920416E+04    0.74528E-04   -0.44870E-04  3724   0.107E-02    0.954E-02
RMM:   7    -0.231768913845E+04    0.65710E-04   -0.83020E-05  3263   0.603E-03    0.262E-02
RMM:   8    -0.231768915055E+04   -0.12104E-04   -0.28129E-05  2980   0.399E-03    0.164E-02
RMM:   9    -0.231768916172E+04   -0.11163E-04   -0.11856E-05  2866   0.303E-03    0.723E-03
RMM:  10    -0.231768917343E+04   -0.11717E-04   -0.48454E-06  2747   0.237E-03    0.360E-03
RMM:  11    -0.231768918157E+04   -0.81342E-05   -0.30654E-06  2660   0.194E-03
  13 F= -.23386030E+04 E0= -.23386030E+04  d E =-.569842E-09  mag=     5.0000
       N       E                     dE             d eps       ncg     rms          rms(c)
DAV:   1    -0.231765192482E+04    0.37249E-01   -0.99400E+00  4800   0.165E+00    0.474E-01
RMM:   2    -0.231766152505E+04   -0.96002E-02   -0.74440E-02  4536   0.125E-01    0.740E-01
RMM:   3    -0.231765583514E+04    0.56899E-02   -0.74630E-03  4848   0.509E-02    0.282E-01
RMM:   4    -0.231765484552E+04    0.98962E-03   -0.22483E-03  4509   0.250E-02    0.117E-01
RMM:   5    -0.231765471910E+04    0.12642E-03   -0.58963E-04  4578   0.149E-02    0.732E-02
RMM:   6    -0.231765469904E+04    0.20053E-04   -0.18325E-04  3442   0.781E-03    0.666E-02
RMM:   7    -0.231765466227E+04    0.36773E-04   -0.44873E-05  3067   0.518E-03    0.199E-02
RMM:   8    -0.231765465683E+04    0.54423E-05   -0.12382E-05  2887   0.288E-03
  14 F= -.23385685E+04 E0= -.23385685E+04  d E =-.796376E-08  mag=     5.0000
       N       E                     dE             d eps       ncg     rms          rms(c)
DAV:   1    -0.231767159571E+04   -0.16933E-01   -0.19610E+01  4640   0.221E+00    0.596E-01
RMM:   2    -0.231769019554E+04   -0.18600E-01   -0.11696E-01  4742   0.136E-01    0.116E+00
RMM:   3    -0.231767574469E+04    0.14451E-01   -0.12152E-02  5670   0.571E-02    0.314E-01
RMM:   4    -0.231767474348E+04    0.10012E-02   -0.38632E-03  4830   0.310E-02    0.150E-01
RMM:   5    -0.231767458185E+04    0.16164E-03   -0.89992E-04  4973   0.179E-02    0.950E-02
RMM:   6    -0.231767457164E+04    0.10206E-04   -0.24518E-04  3671   0.900E-03    0.855E-02
RMM:   7    -0.231767451498E+04    0.56664E-04   -0.79514E-05  3250   0.611E-03    0.267E-02
RMM:   8    -0.231767450855E+04    0.64299E-05   -0.17599E-05  2971   0.371E-03
  15 F= -.23385874E+04 E0= -.23385874E+04  d E =-.149650E-08  mag=     5.0000
       N       E                     dE             d eps       ncg     rms          rms(c)
DAV:   1    -0.231766867464E+04    0.58403E-02   -0.98997E+00  4640   0.155E+00    0.315E-01
RMM:   2    -0.231767252082E+04   -0.38462E-02   -0.45119E-02  4328   0.786E-02    0.287E-01
RMM:   3    -0.231767220743E+04    0.31339E-03   -0.28885E-03  4733   0.294E-02    0.292E-01
RMM:   4    -0.231767130750E+04    0.89993E-03   -0.11013E-03  4479   0.180E-02    0.888E-02
RMM:   5    -0.231767134042E+04   -0.32921E-04   -0.35484E-04  3975   0.104E-02    0.924E-02
RMM:   6    -0.231767126929E+04    0.71132E-04   -0.98696E-05  3092   0.583E-03    0.342E-02
RMM:   7    -0.231767126106E+04    0.82258E-05   -0.20091E-05  2891   0.339E-03
  16 F= -.23385832E+04 E0= -.23385832E+04  d E =-.145785E-08  mag=     5.0000
       N       E                     dE             d eps       ncg     rms          rms(c)
DAV:   1    -0.231765241090E+04    0.18858E-01   -0.19580E+01  4480   0.227E+00    0.553E-01
RMM:   2    -0.231766489508E+04   -0.12484E-01   -0.10026E-01  4645   0.146E-01    0.876E-01
RMM:   3    -0.231765718365E+04    0.77114E-02   -0.10378E-02  4509   0.657E-02    0.331E-01
RMM:   4    -0.231765649584E+04    0.68781E-03   -0.46448E-03  5168   0.340E-02    0.199E-01
RMM:   5    -0.231765589062E+04    0.60522E-03   -0.13346E-03  5199   0.194E-02    0.122E-01
RMM:   6    -0.231765584769E+04    0.42929E-04   -0.30090E-04  3483   0.964E-03    0.991E-02
RMM:   7    -0.231765576617E+04    0.81529E-04   -0.10037E-04  3349   0.673E-03    0.286E-02
RMM:   8    -0.231765576546E+04    0.70706E-06   -0.21759E-05  2999   0.418E-03
  17 F= -.23385707E+04 E0= -.23385707E+04  d E =-.766072E-08  mag=     5.0000
       N       E                     dE             d eps       ncg     rms          rms(c)
DAV:   1    -0.231766455168E+04   -0.87855E-02   -0.10023E+01  4640   0.158E+00    0.433E-01
RMM:   2    -0.231767396006E+04   -0.94084E-02   -0.64359E-02  4750   0.102E-01    0.746E-01
RMM:   3    -0.231766801965E+04    0.59404E-02   -0.62821E-03  5423   0.426E-02    0.255E-01
RMM:   4    -0.231766744415E+04    0.57551E-03   -0.16908E-03  4765   0.237E-02    0.124E-01
RMM:   5    -0.231766731985E+04    0.12429E-03   -0.63415E-04  4781   0.127E-02    0.102E-01
RMM:   6    -0.231766727648E+04    0.43375E-04   -0.20392E-04  3395   0.816E-03    0.777E-02
RMM:   7    -0.231766722414E+04    0.52335E-04   -0.74369E-05  3308   0.578E-03    0.186E-02
RMM:   8    -0.231766722580E+04   -0.16622E-05   -0.11919E-05  2912   0.310E-03
  18 F= -.23385833E+04 E0= -.23385833E+04  d E =-.166185E-08  mag=     5.0000
       N       E                     dE             d eps       ncg     rms          rms(c)
DAV:   1    -0.231766937208E+04   -0.21479E-02   -0.19783E+01  4480   0.216E+00    0.621E-01
RMM:   2    -0.231768279760E+04   -0.13426E-01   -0.10999E-01  4818   0.139E-01    0.856E-01
RMM:   3    -0.231767650126E+04    0.62963E-02   -0.12683E-02  5441   0.640E-02    0.468E-01
RMM:   4    -0.231767439638E+04    0.21049E-02   -0.27587E-03  4555   0.333E-02    0.154E-01
RMM:   5    -0.231767457938E+04   -0.18300E-03   -0.12624E-03  4565   0.182E-02    0.207E-01
RMM:   6    -0.231767419937E+04    0.38000E-03   -0.38235E-04  3753   0.106E-02    0.513E-02
RMM:   7    -0.231767418803E+04    0.11337E-04   -0.59627E-05  3121   0.541E-03    0.196E-02
RMM:   8    -0.231767419523E+04   -0.72006E-05   -0.16871E-05  2947   0.340E-03
  19 F= -.23385850E+04 E0= -.23385850E+04  d E =-.689059E-08  mag=     5.0000
       N       E                     dE             d eps       ncg     rms          rms(c)
DAV:   1    -0.231767501395E+04   -0.82592E-03   -0.52582E+00  4560   0.111E+00    0.435E-01
RMM:   2    -0.231767747925E+04   -0.24653E-02   -0.41502E-02  4643   0.761E-02    0.441E-01
RMM:   3    -0.231767678308E+04    0.69618E-03   -0.48607E-03  5459   0.344E-02    0.411E-01
RMM:   4    -0.231767507161E+04    0.17115E-02   -0.16212E-03  4199   0.242E-02    0.112E-01
RMM:   5    -0.231767512884E+04   -0.57233E-04   -0.54689E-04  4265   0.113E-02    0.128E-01
RMM:   6    -0.231767500307E+04    0.12577E-03   -0.19618E-04  3225   0.756E-03    0.475E-02
RMM:   7    -0.231767499028E+04    0.12790E-04   -0.35837E-05  3002   0.402E-03    0.160E-02
RMM:   8    -0.231767498867E+04    0.16117E-05   -0.95714E-06  2697   0.246E-03
  20 F= -.23385888E+04 E0= -.23385888E+04  d E =-.331280E-08  mag=     5.0000
       N       E                     dE             d eps       ncg     rms          rms(c)
DAV:   1    -0.231764742703E+04    0.27563E-01   -0.12854E+00  4960   0.363E-01    0.599E-01
RMM:   2    -0.231764239415E+04    0.50329E-02   -0.18177E-02  4152   0.433E-02    0.313E-01
RMM:   3    -0.231764145881E+04    0.93534E-03   -0.25596E-03  4635   0.256E-02    0.193E-01
RMM:   4    -0.231764228589E+04   -0.82708E-03   -0.19337E-03  4741   0.206E-02    0.327E-01
RMM:   5    -0.231764118843E+04    0.10975E-02   -0.75117E-04  4098   0.148E-02    0.448E-02
RMM:   6    -0.231764117061E+04    0.17827E-04   -0.10309E-04  3110   0.527E-03    0.235E-02
RMM:   7    -0.231764116539E+04    0.52176E-05   -0.22758E-05  2752   0.311E-03
  21 F= -.23385541E+04 E0= -.23385541E+04  d E =-.354046E-08  mag=     5.0000
       N       E                     dE             d eps       ncg     rms          rms(c)
DAV:   1    -0.231769025072E+04   -0.49080E-01   -0.63097E-01  5120   0.243E-01    0.397E-01
RMM:   2    -0.231768816617E+04    0.20846E-02   -0.71869E-03  4185   0.288E-02    0.214E-01
RMM:   3    -0.231768840069E+04   -0.23451E-03   -0.17483E-03  4594   0.208E-02    0.281E-01
RMM:   4    -0.231768776130E+04    0.63939E-03   -0.10098E-03  4140   0.159E-02    0.133E-01
RMM:   5    -0.231768767066E+04    0.90638E-04   -0.23025E-04  3665   0.761E-03    0.568E-02
RMM:   6    -0.231768766122E+04    0.94430E-05   -0.76492E-05  2955   0.518E-03
  22 F= -.23386013E+04 E0= -.23386013E+04  d E =-.337126E-08  mag=     5.0000
       N       E                     dE             d eps       ncg     rms          rms(c)
DAV:   1    -0.231765331347E+04    0.34357E-01   -0.11872E+00  4480   0.344E-01    0.401E-01
RMM:   2    -0.231765259026E+04    0.72321E-03   -0.38621E-03  4091   0.245E-02    0.232E-01
RMM:   3    -0.231765281314E+04   -0.22288E-03   -0.18339E-03  5029   0.184E-02    0.204E-01
RMM:   4    -0.231765247740E+04    0.33574E-03   -0.99944E-04  4446   0.166E-02    0.141E-01
RMM:   5    -0.231765231755E+04    0.15985E-03   -0.21351E-04  3451   0.741E-03    0.364E-02
RMM:   6    -0.231765230858E+04    0.89661E-05   -0.29229E-05  2784   0.357E-03
  23 F= -.23385654E+04 E0= -.23385654E+04  d E =-.322551E-08  mag=     5.0000
       N       E                     dE             d eps       ncg     rms          rms(c)
DAV:   1    -0.231766599491E+04   -0.13677E-01   -0.61728E-01  4640   0.247E-01    0.281E-01
RMM:   2    -0.231766576535E+04    0.22956E-03   -0.22894E-03  3871   0.173E-02    0.173E-01
RMM:   3    -0.231766651818E+04   -0.75283E-03   -0.13818E-03  4876   0.159E-02    0.308E-01
RMM:   4    -0.231766563028E+04    0.88790E-03   -0.70747E-04  3772   0.142E-02    0.446E-02
RMM:   5    -0.231766563257E+04   -0.22919E-05   -0.11205E-04  3470   0.470E-03    0.430E-02
RMM:   6    -0.231766561742E+04    0.15152E-04   -0.32188E-05  2599   0.345E-03    0.243E-02
RMM:   7    -0.231766561177E+04    0.56524E-05   -0.83312E-06  2388   0.222E-03
  24 F= -.23385789E+04 E0= -.23385789E+04  d E =-.341652E-08  mag=     5.0000
       N       E                     dE             d eps       ncg     rms          rms(c)
DAV:   1    -0.231766866319E+04   -0.30458E-02   -0.12378E+00  4640   0.330E-01    0.436E-01
RMM:   2    -0.231766740340E+04    0.12598E-02   -0.72113E-03  3868   0.282E-02    0.251E-01
RMM:   3    -0.231766841445E+04   -0.10110E-02   -0.22585E-03  4944   0.215E-02    0.379E-01
RMM:   4    -0.231766709250E+04    0.13219E-02   -0.15543E-03  4590   0.196E-02    0.116E-01
RMM:   5    -0.231766701695E+04    0.75545E-04   -0.36787E-04  4174   0.980E-03    0.589E-02
RMM:   6    -0.231766697444E+04    0.42511E-04   -0.68132E-05  3203   0.469E-03    0.179E-02
RMM:   7    -0.231766697909E+04   -0.46517E-05   -0.16796E-05  2590   0.280E-03
  25 F= -.23385805E+04 E0= -.23385805E+04  d E =-.371773E-08  mag=     5.0000
