       N       E                     dE             d eps       ncg     rms          rms(c)
DAV:   1     0.131661022619E+05    0.13166E+05   -0.84545E+05  4536   0.145E+03
DAV:   2    -0.100824577857E+04   -0.14174E+05   -0.13547E+05  4960   0.332E+02
DAV:   3    -0.248298786779E+04   -0.14747E+04   -0.14562E+04  5544   0.115E+02
DAV:   4    -0.253010060422E+04   -0.47113E+02   -0.46872E+02  6728   0.300E+01
DAV:   5    -0.253094957547E+04   -0.84897E+00   -0.84724E+00  6224   0.351E+00    0.171E+02
RMM:   6    -0.148818364747E+04    0.10428E+04   -0.19915E+03  4474   0.386E+01    0.727E+01
RMM:   7    -0.166746970118E+04   -0.17929E+03   -0.28990E+02  5269   0.146E+01    0.540E+01
RMM:   8    -0.172022453688E+04   -0.52755E+02   -0.70002E+01  5364   0.807E+00    0.483E+01
RMM:   9    -0.177262995088E+04   -0.52405E+02   -0.54024E+01  5193   0.705E+00    0.346E+01
RMM:  10    -0.192422393781E+04   -0.15159E+03   -0.71533E+01  5328   0.815E+00    0.264E+01
RMM:  11    -0.198696302935E+04   -0.62739E+02   -0.24933E+01  5293   0.452E+00    0.237E+01
RMM:  12    -0.204817422508E+04   -0.61211E+02   -0.22664E+01  5168   0.385E+00    0.175E+01
RMM:  13    -0.210576996518E+04   -0.57596E+02   -0.21932E+01  5299   0.377E+00    0.154E+01
RMM:  14    -0.220180667269E+04   -0.96037E+02   -0.59859E+01  4577   0.577E+00    0.989E+00
RMM:  15    -0.229076495976E+04   -0.88958E+02   -0.83562E+01  4563   0.632E+00    0.543E+00
RMM:  16    -0.231291122901E+04   -0.22146E+02   -0.24077E+01  4699   0.401E+00    0.371E+00
RMM:  17    -0.231777807942E+04   -0.48669E+01   -0.62810E+00  5208   0.168E+00    0.441E+00
RMM:  18    -0.231768853047E+04    0.89549E-01   -0.42076E-01  5706   0.582E-01    0.470E+00
RMM:  19    -0.231952546010E+04   -0.18369E+01   -0.40392E-01  4471   0.431E-01    0.410E+00
RMM:  20    -0.232134299433E+04   -0.18175E+01   -0.80479E-01  4519   0.563E-01    0.409E+00
RMM:  21    -0.232143045177E+04   -0.87457E-01   -0.93770E-02  4529   0.330E-01    0.387E+00
RMM:  22    -0.232157345751E+04   -0.14301E+00   -0.16179E-01  4524   0.184E-01    0.338E+00
RMM:  23    -0.232173069075E+04   -0.15723E+00   -0.19003E-01  4795   0.253E-01    0.220E+00
RMM:  24    -0.232193721624E+04   -0.20653E+00   -0.23790E-01  4649   0.303E-01    0.103E+00
RMM:  25    -0.232215446629E+04   -0.21725E+00   -0.16406E-01  4679   0.265E-01    0.493E-01
RMM:  26    -0.232226807852E+04   -0.11361E+00   -0.51724E-02  5075   0.152E-01    0.393E-01
RMM:  27    -0.232235221733E+04   -0.84139E-01   -0.21547E-02  4506   0.863E-02    0.309E-01
RMM:  28    -0.232240620180E+04   -0.53984E-01   -0.10519E-02  4663   0.714E-02    0.151E-01
RMM:  29    -0.232242515315E+04   -0.18951E-01   -0.33710E-03  4894   0.427E-02    0.121E-01
RMM:  30    -0.232244335750E+04   -0.18204E-01   -0.39306E-03  4474   0.378E-02    0.104E-01
RMM:  31    -0.232244838752E+04   -0.50300E-02   -0.14533E-03  4461   0.288E-02    0.378E-02
RMM:  32    -0.232245018633E+04   -0.17988E-02   -0.53514E-04  4603   0.149E-02    0.244E-02
RMM:  33    -0.232245108944E+04   -0.90311E-03   -0.18738E-04  3954   0.109E-02    0.127E-02
RMM:  34    -0.232245138343E+04   -0.29399E-03   -0.71210E-05  3588   0.611E-03    0.720E-03
RMM:  35    -0.232245149316E+04   -0.10973E-03   -0.23472E-05  3106   0.477E-03    0.454E-03
RMM:  36    -0.232245154634E+04   -0.53186E-04   -0.13163E-05  2940   0.342E-03    0.265E-03
RMM:  37    -0.232245157271E+04   -0.26367E-04   -0.58947E-06  2794   0.288E-03    0.226E-03
RMM:  38    -0.232245158590E+04   -0.13185E-04   -0.36730E-06  2538   0.210E-03    0.117E-03
RMM:  39    -0.232245159099E+04   -0.50944E-05   -0.20239E-06  2472   0.175E-03
   1 F= -.23437420E+04 E0= -.23437420E+04  d E =-.234374E+04  mag=     0.0002
       N       E                     dE             d eps       ncg     rms          rms(c)
DAV:   1    -0.232244389639E+04    0.76895E-02   -0.17137E+01  4928   0.214E+00    0.108E+00
RMM:   2    -0.232253011774E+04   -0.86221E-01   -0.10807E+00  6660   0.549E-01    0.945E-01
RMM:   3    -0.232253332896E+04   -0.32112E-02   -0.76726E-02  6331   0.149E-01    0.123E+00
RMM:   4    -0.232251770591E+04    0.15623E-01   -0.13077E-02  6128   0.579E-02    0.434E-01
RMM:   5    -0.232251851976E+04   -0.81385E-03   -0.72411E-03  6026   0.376E-02    0.601E-01
RMM:   6    -0.232251679573E+04    0.17240E-02   -0.70225E-03  6092   0.362E-02    0.513E-01
RMM:   7    -0.232251440104E+04    0.23947E-02   -0.33487E-03  5696   0.272E-02    0.175E-01
RMM:   8    -0.232251403971E+04    0.36133E-03   -0.37374E-04  3749   0.969E-03    0.343E-02
RMM:   9    -0.232251413546E+04   -0.95755E-04   -0.92578E-05  3070   0.592E-03    0.153E-02
RMM:  10    -0.232251421963E+04   -0.84171E-04   -0.27771E-05  2910   0.459E-03    0.671E-03
RMM:  11    -0.232251426768E+04   -0.48044E-04   -0.13693E-05  2882   0.351E-03    0.430E-03
RMM:  12    -0.232251432014E+04   -0.52459E-04   -0.15958E-05  2882   0.292E-03    0.264E-03
RMM:  13    -0.232251433687E+04   -0.16729E-04   -0.78011E-06  2772   0.285E-03    0.143E-03
RMM:  14    -0.232251434114E+04   -0.42728E-05   -0.36651E-06  2583   0.204E-03
   2 F= -.23438048E+04 E0= -.23438048E+04  d E =-.627148E-01  mag=     0.0000
       N       E                     dE             d eps       ncg     rms          rms(c)
DAV:   1    -0.232251979871E+04   -0.54618E-02   -0.12157E+00  4746   0.559E-01    0.324E-01
RMM:   2    -0.232252641139E+04   -0.66127E-02   -0.81701E-02  6673   0.141E-01    0.326E-01
RMM:   3    -0.232252587787E+04    0.53353E-03   -0.56074E-03  6019   0.405E-02    0.342E-01
RMM:   4    -0.232252460402E+04    0.12738E-02   -0.10140E-03  4212   0.163E-02    0.114E-01
RMM:   5    -0.232252460564E+04   -0.16203E-05   -0.64700E-04  4002   0.118E-02    0.134E-01
RMM:   6    -0.232252436023E+04    0.24541E-03   -0.64255E-04  4716   0.119E-02    0.441E-02
RMM:   7    -0.232252442925E+04   -0.69022E-04   -0.12201E-04  2979   0.651E-03    0.985E-02
RMM:   8    -0.232252433368E+04    0.95574E-04   -0.39724E-05  2810   0.445E-03    0.106E-02
RMM:   9    -0.232252433255E+04    0.11315E-05   -0.97602E-06  2802   0.198E-03
   3 F= -.23438147E+04 E0= -.23438147E+04  d E =-.726446E-01  mag=     0.0000
       N       E                     dE             d eps       ncg     rms          rms(c)
DAV:   1    -0.232255403801E+04   -0.29704E-01   -0.90737E+00  4592   0.194E+00    0.708E-01
RMM:   2    -0.232263205530E+04   -0.78017E-01   -0.74066E-01  6704   0.496E-01    0.112E+00
RMM:   3    -0.232262050131E+04    0.11554E-01   -0.56919E-02  6581   0.144E-01    0.531E-01
RMM:   4    -0.232261743478E+04    0.30665E-02   -0.65180E-03  5865   0.386E-02    0.293E-01
RMM:   5    -0.232261720287E+04    0.23191E-03   -0.24362E-03  5705   0.248E-02    0.271E-01
RMM:   6    -0.232261611933E+04    0.10835E-02   -0.26283E-03  5531   0.282E-02    0.515E-02
RMM:   7    -0.232261609573E+04    0.23594E-04   -0.19604E-04  3361   0.111E-02    0.345E-02
RMM:   8    -0.232261612279E+04   -0.27063E-04   -0.39164E-05  2932   0.430E-03    0.601E-02
RMM:   9    -0.232261610003E+04    0.22766E-04   -0.16895E-05  2871   0.322E-03    0.236E-02
RMM:  10    -0.232261611132E+04   -0.11292E-04   -0.18562E-05  2907   0.293E-03    0.165E-02
RMM:  11    -0.232261611904E+04   -0.77194E-05   -0.57337E-06  2767   0.235E-03
   4 F= -.23439098E+04 E0= -.23439098E+04  d E =-.950701E-01  mag=     0.0000
       N       E                     dE             d eps       ncg     rms          rms(c)
DAV:   1    -0.232208657873E+04    0.52953E+00   -0.81494E+01  4504   0.586E+00    0.242E+00
RMM:   2    -0.232292738972E+04   -0.84081E+00   -0.75998E+00  6684   0.162E+00    0.434E+00
RMM:   3    -0.232272484288E+04    0.20255E+00   -0.60417E-01  6430   0.483E-01    0.165E+00
RMM:   4    -0.232269259695E+04    0.32246E-01   -0.76882E-02  6267   0.132E-01    0.984E-01
RMM:   5    -0.232268602359E+04    0.65734E-02   -0.20294E-02  6278   0.734E-02    0.754E-01
RMM:   6    -0.232268045886E+04    0.55647E-02   -0.19717E-02  5797   0.766E-02    0.529E-01
RMM:   7    -0.232268422841E+04   -0.37696E-02   -0.93676E-03  5669   0.528E-02    0.810E-01
RMM:   8    -0.232267758125E+04    0.66472E-02   -0.30978E-03  5796   0.283E-02    0.784E-02
RMM:   9    -0.232267760057E+04   -0.19327E-04   -0.38773E-04  3701   0.104E-02    0.677E-02
RMM:  10    -0.232267778148E+04   -0.18091E-03   -0.14686E-04  3485   0.810E-03    0.407E-02
RMM:  11    -0.232267793573E+04   -0.15424E-03   -0.62991E-05  3044   0.592E-03    0.312E-02
RMM:  12    -0.232267811337E+04   -0.17764E-03   -0.71233E-05  3089   0.513E-03    0.241E-02
RMM:  13    -0.232267826704E+04   -0.15367E-03   -0.89809E-05  3309   0.575E-03    0.170E-02
RMM:  14    -0.232267833453E+04   -0.67493E-04   -0.74280E-05  3078   0.546E-03    0.116E-02
RMM:  15    -0.232267835990E+04   -0.25372E-04   -0.34402E-05  2961   0.444E-03    0.986E-03
RMM:  16    -0.232267837878E+04   -0.18884E-04   -0.41159E-05  2934   0.405E-03    0.732E-03
RMM:  17    -0.232267839092E+04   -0.12140E-04   -0.29571E-05  2860   0.367E-03    0.473E-03
RMM:  18    -0.232267839967E+04   -0.87464E-05   -0.21838E-05  2772   0.304E-03
   5 F= -.23440510E+04 E0= -.23440510E+04  d E =-.236296E+00  mag=     0.0000
       N       E                     dE             d eps       ncg     rms          rms(c)
DAV:   1    -0.232264063732E+04    0.37754E-01   -0.82552E+00  4576   0.193E+00    0.639E-01
RMM:   2    -0.232270605465E+04   -0.65417E-01   -0.64289E-01  6671   0.469E-01    0.891E-01
RMM:   3    -0.232270206801E+04    0.39866E-02   -0.55856E-02  6547   0.141E-01    0.552E-01
RMM:   4    -0.232269850774E+04    0.35603E-02   -0.56512E-03  5860   0.383E-02    0.260E-01
RMM:   5    -0.232269859476E+04   -0.87020E-04   -0.24711E-03  5766   0.246E-02    0.280E-01
RMM:   6    -0.232269780997E+04    0.78479E-03   -0.20934E-03  5585   0.257E-02    0.197E-01
RMM:   7    -0.232269747303E+04    0.33694E-03   -0.42040E-04  3780   0.138E-02    0.802E-02
RMM:   8    -0.232269740407E+04    0.68955E-04   -0.45141E-05  2981   0.493E-03    0.259E-02
RMM:   9    -0.232269740054E+04    0.35296E-05   -0.31531E-05  2944   0.405E-03
   6 F= -.23440679E+04 E0= -.23440679E+04  d E =-.253164E+00  mag=     0.0000
       N       E                     dE             d eps       ncg     rms          rms(c)
DAV:   1    -0.232269693388E+04    0.47020E-03   -0.68420E+00  4544   0.168E+00    0.589E-01
RMM:   2    -0.232275923690E+04   -0.62303E-01   -0.62489E-01  6691   0.432E-01    0.752E-01
RMM:   3    -0.232275718493E+04    0.20520E-02   -0.53909E-02  6523   0.133E-01    0.548E-01
RMM:   4    -0.232275409027E+04    0.30947E-02   -0.57120E-03  5950   0.360E-02    0.318E-01
RMM:   5    -0.232275387193E+04    0.21834E-03   -0.13715E-03  5079   0.189E-02    0.298E-01
RMM:   6    -0.232275305946E+04    0.81247E-03   -0.22389E-03  5397   0.260E-02    0.133E-01
RMM:   7    -0.232275286228E+04    0.19718E-03   -0.54749E-04  4179   0.162E-02    0.663E-02
RMM:   8    -0.232275279853E+04    0.63746E-04   -0.52733E-05  2977   0.528E-03    0.263E-02
RMM:   9    -0.232275279098E+04    0.75591E-05   -0.29933E-05  2934   0.390E-03
   7 F= -.23441255E+04 E0= -.23441255E+04  d E =-.576400E-01  mag=     0.0000
       N       E                     dE             d eps       ncg     rms          rms(c)
DAV:   1    -0.232257663007E+04    0.17617E+00   -0.28489E+01  4504   0.344E+00    0.126E+00
RMM:   2    -0.232284722479E+04   -0.27059E+00   -0.26735E+00  6671   0.888E-01    0.174E+00
RMM:   3    -0.232283212878E+04    0.15096E-01   -0.25015E-01  6547   0.284E-01    0.113E+00
RMM:   4    -0.232282074374E+04    0.11385E-01   -0.26958E-02  6271   0.763E-02    0.798E-01
RMM:   5    -0.232281694196E+04    0.38018E-02   -0.61301E-03  5873   0.382E-02    0.544E-01
RMM:   6    -0.232281544891E+04    0.14930E-02   -0.78700E-03  5776   0.469E-02    0.400E-01
RMM:   7    -0.232281354955E+04    0.18994E-02   -0.41072E-03  5714   0.372E-02    0.158E-01
RMM:   8    -0.232281320031E+04    0.34924E-03   -0.44815E-04  4226   0.120E-02    0.555E-02
RMM:   9    -0.232281322573E+04   -0.25420E-04   -0.10288E-04  3120   0.747E-03    0.313E-02
RMM:  10    -0.232281330419E+04   -0.78462E-04   -0.83690E-05  3246   0.656E-03    0.105E-02
RMM:  11    -0.232281335771E+04   -0.53518E-04   -0.22685E-05  2916   0.439E-03    0.741E-03
RMM:  12    -0.232281339266E+04   -0.34947E-04   -0.12229E-05  2871   0.286E-03    0.539E-03
RMM:  13    -0.232281340957E+04   -0.16916E-04   -0.84397E-06  2853   0.277E-03    0.374E-03
RMM:  14    -0.232281341584E+04   -0.62637E-05   -0.43188E-06  2627   0.209E-03
   8 F= -.23441866E+04 E0= -.23441866E+04  d E =-.118748E+00  mag=     0.0000
       N       E                     dE             d eps       ncg     rms          rms(c)
DAV:   1    -0.232278832679E+04    0.25083E-01   -0.36244E+00  4592   0.122E+00    0.436E-01
RMM:   2    -0.232282084945E+04   -0.32523E-01   -0.32799E-01  6681   0.312E-01    0.554E-01
RMM:   3    -0.232282045402E+04    0.39543E-03   -0.28878E-02  6454   0.961E-02    0.449E-01
RMM:   4    -0.232281866540E+04    0.17886E-02   -0.31787E-03  5726   0.271E-02    0.284E-01
RMM:   5    -0.232281816544E+04    0.49996E-03   -0.78464E-04  4333   0.142E-02    0.186E-01
RMM:   6    -0.232281778336E+04    0.38207E-03   -0.11469E-03  5108   0.192E-02    0.702E-02
RMM:   7    -0.232281775239E+04    0.30968E-04   -0.23174E-04  3354   0.114E-02    0.539E-02
RMM:   8    -0.232281771216E+04    0.40229E-04   -0.38106E-05  2943   0.497E-03    0.184E-02
RMM:   9    -0.232281771329E+04   -0.11224E-05   -0.20798E-05  2926   0.301E-03
   9 F= -.23441910E+04 E0= -.23441910E+04  d E =-.123169E+00  mag=     0.0000
       N       E                     dE             d eps       ncg     rms          rms(c)
DAV:   1    -0.232279509457E+04    0.22618E-01   -0.54285E+00  4528   0.184E+00    0.706E-01
RMM:   2    -0.232287305446E+04   -0.77960E-01   -0.83741E-01  6530   0.504E-01    0.470E-01
RMM:   3    -0.232287776742E+04   -0.47130E-02   -0.84453E-02  6292   0.174E-01    0.489E-01
RMM:   4    -0.232287470638E+04    0.30610E-02   -0.79704E-03  6281   0.432E-02    0.220E-01
RMM:   5    -0.232287535805E+04   -0.65167E-03   -0.20093E-03  5823   0.225E-02    0.343E-01
RMM:   6    -0.232287404596E+04    0.13121E-02   -0.18416E-03  5840   0.242E-02    0.847E-02
RMM:   7    -0.232287395115E+04    0.94814E-04   -0.26896E-04  3940   0.957E-03    0.437E-02
RMM:   8    -0.232287399057E+04   -0.39416E-04   -0.71387E-05  2946   0.638E-03    0.770E-02
RMM:   9    -0.232287393714E+04    0.53422E-04   -0.25800E-05  2911   0.413E-03    0.208E-02
RMM:  10    -0.232287394498E+04   -0.78322E-05   -0.29112E-05  2947   0.390E-03
  10 F= -.23442467E+04 E0= -.23442467E+04  d E =-.556899E-01  mag=     0.0000
       N       E                     dE             d eps       ncg     rms          rms(c)
DAV:   1    -0.232279237234E+04    0.81565E-01   -0.72127E+00  4504   0.211E+00    0.814E-01
RMM:   2    -0.232289563185E+04   -0.10326E+00   -0.11104E+00  6534   0.582E-01    0.536E-01
RMM:   3    -0.232290262702E+04   -0.69952E-02   -0.11493E-01  6345   0.202E-01    0.575E-01
RMM:   4    -0.232289866819E+04    0.39588E-02   -0.10781E-02  6360   0.495E-02    0.285E-01
RMM:   5    -0.232289969306E+04   -0.10249E-02   -0.26548E-03  5759   0.241E-02    0.450E-01
RMM:   6    -0.232289806754E+04    0.16255E-02   -0.24996E-03  5664   0.264E-02    0.230E-01
RMM:   7    -0.232289789174E+04    0.17580E-03   -0.11476E-03  5125   0.194E-02    0.185E-01
RMM:   8    -0.232289749894E+04    0.39280E-03   -0.22056E-04  3592   0.892E-03    0.364E-02
RMM:   9    -0.232289749587E+04    0.30652E-05   -0.59927E-05  2981   0.583E-03
  11 F= -.23442697E+04 E0= -.23442697E+04  d E =-.786499E-01  mag=     0.0000
       N       E                     dE             d eps       ncg     rms          rms(c)
DAV:   1    -0.232281365781E+04    0.83841E-01   -0.71735E+00  4504   0.207E+00    0.808E-01
RMM:   2    -0.232294112872E+04   -0.12747E+00   -0.13767E+00  6703   0.606E-01    0.664E-01
RMM:   3    -0.232295539790E+04   -0.14269E-01   -0.15273E-01  6469   0.221E-01    0.890E-01
RMM:   4    -0.232294845679E+04    0.69411E-02   -0.14122E-02  6330   0.532E-02    0.431E-01
RMM:   5    -0.232294746904E+04    0.98776E-03   -0.29060E-03  5596   0.233E-02    0.345E-01
RMM:   6    -0.232294683230E+04    0.63673E-03   -0.18166E-03  5390   0.211E-02    0.248E-01
RMM:   7    -0.232294637192E+04    0.46038E-03   -0.17063E-03  5285   0.205E-02    0.158E-01
RMM:   8    -0.232294609500E+04    0.27693E-03   -0.51875E-04  4671   0.118E-02    0.382E-02
RMM:   9    -0.232294609366E+04    0.13365E-05   -0.47792E-05  3018   0.636E-03
  12 F= -.23443173E+04 E0= -.23443173E+04  d E =-.475866E-01  mag=     0.0000
       N       E                     dE             d eps       ncg     rms          rms(c)
DAV:   1    -0.232286880703E+04    0.77288E-01   -0.49254E+00  4560   0.172E+00    0.677E-01
RMM:   2    -0.232295672040E+04   -0.87913E-01   -0.94975E-01  6698   0.505E-01    0.554E-01
RMM:   3    -0.232296634520E+04   -0.96248E-02   -0.10560E-01  6444   0.185E-01    0.722E-01
RMM:   4    -0.232296182289E+04    0.45223E-02   -0.97497E-03  6138   0.444E-02    0.360E-01
RMM:   5    -0.232296113443E+04    0.68845E-03   -0.20534E-03  5309   0.197E-02    0.287E-01
RMM:   6    -0.232296074383E+04    0.39060E-03   -0.12424E-03  5122   0.178E-02    0.214E-01
RMM:   7    -0.232296037441E+04    0.36942E-03   -0.11900E-03  4937   0.174E-02    0.129E-01
RMM:   8    -0.232296019931E+04    0.17510E-03   -0.35364E-04  4229   0.101E-02    0.321E-02
RMM:   9    -0.232296020022E+04   -0.90990E-06   -0.33101E-05  3015   0.577E-03
  13 F= -.23443306E+04 E0= -.23443306E+04  d E =-.609095E-01  mag=     0.0000
       N       E                     dE             d eps       ncg     rms          rms(c)
DAV:   1    -0.232293453490E+04    0.25664E-01   -0.41309E+00  4516   0.169E+00    0.565E-01
RMM:   2    -0.232299177232E+04   -0.57237E-01   -0.59373E-01  6681   0.428E-01    0.525E-01
RMM:   3    -0.232299519892E+04   -0.34266E-02   -0.55349E-02  6398   0.144E-01    0.620E-01
RMM:   4    -0.232299237714E+04    0.28218E-02   -0.65689E-03  6123   0.382E-02    0.372E-01
RMM:   5    -0.232299122051E+04    0.11566E-02   -0.15439E-03  5094   0.189E-02    0.185E-01
RMM:   6    -0.232299133110E+04   -0.11060E-03   -0.12795E-03  5625   0.191E-02    0.234E-01
RMM:   7    -0.232299080193E+04    0.52917E-03   -0.78687E-04  4961   0.162E-02    0.986E-02
RMM:   8    -0.232299071481E+04    0.87126E-04   -0.15385E-04  3351   0.725E-03    0.339E-02
RMM:   9    -0.232299072752E+04   -0.12710E-04   -0.22112E-05  2961   0.469E-03    0.313E-02
RMM:  10    -0.232299075477E+04   -0.27258E-04   -0.31283E-05  2981   0.375E-03    0.230E-02
RMM:  11    -0.232299078438E+04   -0.29603E-04   -0.24552E-05  2973   0.366E-03    0.181E-02
RMM:  12    -0.232299081777E+04   -0.33391E-04   -0.41757E-05  2992   0.397E-03    0.101E-02
RMM:  13    -0.232299083429E+04   -0.16527E-04   -0.21337E-05  2915   0.353E-03    0.444E-03
RMM:  14    -0.232299084143E+04   -0.71311E-05   -0.81659E-06  2710   0.257E-03
  14 F= -.23443600E+04 E0= -.23443600E+04  d E =-.294123E-01  mag=     0.0000
       N       E                     dE             d eps       ncg     rms          rms(c)
DAV:   1    -0.232292110414E+04    0.69730E-01   -0.61898E+00  4504   0.208E+00    0.686E-01
RMM:   2    -0.232300694480E+04   -0.85841E-01   -0.89181E-01  6691   0.525E-01    0.631E-01
RMM:   3    -0.232301213180E+04   -0.51870E-02   -0.81021E-02  6447   0.174E-01    0.748E-01
RMM:   4    -0.232300779682E+04    0.43350E-02   -0.95757E-03  6374   0.467E-02    0.433E-01
RMM:   5    -0.232300634554E+04    0.14513E-02   -0.21870E-03  5438   0.221E-02    0.231E-01
RMM:   6    -0.232300670371E+04   -0.35817E-03   -0.18325E-03  5743   0.223E-02    0.324E-01
RMM:   7    -0.232300560103E+04    0.11027E-02   -0.13398E-03  5503   0.203E-02    0.941E-02
RMM:   8    -0.232300550608E+04    0.94949E-04   -0.21736E-04  3588   0.820E-03    0.305E-02
RMM:   9    -0.232300550451E+04    0.15650E-05   -0.21533E-05  2957   0.517E-03
  15 F= -.23443732E+04 E0= -.23443732E+04  d E =-.425895E-01  mag=     0.0000
       N       E                     dE             d eps       ncg     rms          rms(c)
DAV:   1    -0.232297165723E+04    0.33849E-01   -0.46269E+00  4504   0.188E+00    0.629E-01
RMM:   2    -0.232303229917E+04   -0.60642E-01   -0.64405E-01  6548   0.450E-01    0.499E-01
RMM:   3    -0.232304073959E+04   -0.84404E-02   -0.65879E-02  6334   0.169E-01    0.787E-01
RMM:   4    -0.232303499772E+04    0.57419E-02   -0.75148E-03  6398   0.447E-02    0.292E-01
RMM:   5    -0.232303465353E+04    0.34419E-03   -0.19623E-03  5228   0.214E-02    0.258E-01
RMM:   6    -0.232303438808E+04    0.26545E-03   -0.13143E-03  5714   0.193E-02    0.227E-01
RMM:   7    -0.232303386611E+04    0.52197E-03   -0.99777E-04  5106   0.184E-02    0.908E-02
RMM:   8    -0.232303378678E+04    0.79327E-04   -0.17541E-04  4315   0.825E-03    0.443E-02
RMM:   9    -0.232303378775E+04   -0.96537E-06   -0.32087E-05  3004   0.548E-03
  16 F= -.23444007E+04 E0= -.23444007E+04  d E =-.275595E-01  mag=     0.0000
       N       E                     dE             d eps       ncg     rms          rms(c)
DAV:   1    -0.232299645295E+04    0.37334E-01   -0.34458E+00  4560   0.163E+00    0.544E-01
RMM:   2    -0.232304131805E+04   -0.44865E-01   -0.47825E-01  6529   0.389E-01    0.414E-01
RMM:   3    -0.232304726335E+04   -0.59453E-02   -0.48789E-02  6311   0.145E-01    0.648E-01
RMM:   4    -0.232304352391E+04    0.37394E-02   -0.55706E-03  6280   0.383E-02    0.259E-01
RMM:   5    -0.232304326565E+04    0.25826E-03   -0.14672E-03  5017   0.186E-02    0.226E-01
RMM:   6    -0.232304304957E+04    0.21608E-03   -0.97793E-04  5621   0.169E-02    0.197E-01
RMM:   7    -0.232304268369E+04    0.36588E-03   -0.74260E-04  4810   0.159E-02    0.852E-02
RMM:   8    -0.232304262005E+04    0.63640E-04   -0.13460E-04  3914   0.738E-03    0.414E-02
RMM:   9    -0.232304262371E+04   -0.36568E-05   -0.26067E-05  2974   0.516E-03
  17 F= -.23444090E+04 E0= -.23444090E+04  d E =-.357968E-01  mag=     0.0000
       N       E                     dE             d eps       ncg     rms          rms(c)
DAV:   1    -0.232297063880E+04    0.71981E-01   -0.50127E+00  4504   0.203E+00    0.688E-01
RMM:   2    -0.232307096386E+04   -0.10033E+00   -0.10027E+00  6666   0.543E-01    0.766E-01
RMM:   3    -0.232307301435E+04   -0.20505E-02   -0.91742E-02  6489   0.182E-01    0.558E-01
RMM:   4    -0.232307123383E+04    0.17805E-02   -0.11648E-02  6192   0.474E-02    0.482E-01
RMM:   5    -0.232306927044E+04    0.19634E-02   -0.21781E-03  5196   0.216E-02    0.229E-01
RMM:   6    -0.232306969791E+04   -0.42748E-03   -0.15181E-03  5582   0.199E-02    0.342E-01
RMM:   7    -0.232306857497E+04    0.11229E-02   -0.15259E-03  5714   0.227E-02    0.565E-02
RMM:   8    -0.232306856881E+04    0.61521E-05   -0.23966E-04  3564   0.912E-03    0.503E-02
RMM:   9    -0.232306856671E+04    0.21089E-05   -0.34392E-05  2951   0.517E-03
  18 F= -.23444349E+04 E0= -.23444349E+04  d E =-.259476E-01  mag=     0.0000
       N       E                     dE             d eps       ncg     rms          rms(c)
DAV:   1    -0.232294987019E+04    0.11870E+00   -0.66250E+00  4504   0.233E+00    0.794E-01
RMM:   2    -0.232308221239E+04   -0.13234E+00   -0.13227E+00  6660   0.622E-01    0.884E-01
RMM:   3    -0.232308429142E+04   -0.20790E-02   -0.12190E-01  6493   0.209E-01    0.599E-01
RMM:   4    -0.232308225483E+04    0.20366E-02   -0.15107E-02  6282   0.536E-02    0.541E-01
RMM:   5    -0.232307985985E+04    0.23950E-02   -0.27356E-03  5324   0.240E-02    0.262E-01
RMM:   6    -0.232308041256E+04   -0.55271E-03   -0.21019E-03  5709   0.235E-02    0.396E-01
RMM:   7    -0.232307893673E+04    0.14758E-02   -0.18401E-03  5830   0.246E-02    0.651E-02
RMM:   8    -0.232307892276E+04    0.13963E-04   -0.30558E-04  3953   0.993E-03    0.548E-02
RMM:   9    -0.232307891951E+04    0.32566E-05   -0.42710E-05  2967   0.562E-03
  19 F= -.23444454E+04 E0= -.23444454E+04  d E =-.364112E-01  mag=     0.0000
       N       E                     dE             d eps       ncg     rms          rms(c)
DAV:   1    -0.232302713641E+04    0.51786E-01   -0.33966E+00  4528   0.181E+00    0.650E-01
RMM:   2    -0.232310540897E+04   -0.78273E-01   -0.71097E-01  6614   0.498E-01    0.106E+00
RMM:   3    -0.232309995681E+04    0.54522E-02   -0.76004E-02  6451   0.174E-01    0.618E-01
RMM:   4    -0.232309816416E+04    0.17927E-02   -0.10529E-02  6176   0.470E-02    0.455E-01
RMM:   5    -0.232309605204E+04    0.21121E-02   -0.23770E-03  5799   0.249E-02    0.205E-01
RMM:   6    -0.232309615581E+04   -0.10377E-03   -0.12101E-03  5419   0.167E-02    0.250E-01
RMM:   7    -0.232309548315E+04    0.67266E-03   -0.10517E-03  5596   0.206E-02    0.542E-02
RMM:   8    -0.232309545531E+04    0.27844E-04   -0.18449E-04  3701   0.101E-02    0.254E-02
RMM:   9    -0.232309544925E+04    0.60576E-05   -0.22677E-05  2934   0.459E-03
  20 F= -.23444615E+04 E0= -.23444615E+04  d E =-.161597E-01  mag=     0.0000
       N       E                     dE             d eps       ncg     rms          rms(c)
DAV:   1    -0.232309101551E+04    0.44398E-02   -0.26892E-01  4784   0.508E-01    0.182E-01
RMM:   2    -0.232309714160E+04   -0.61261E-02   -0.55857E-02  6600   0.139E-01    0.291E-01
RMM:   3    -0.232309676412E+04    0.37747E-03   -0.60902E-03  5810   0.513E-02    0.170E-01
RMM:   4    -0.232309662853E+04    0.13559E-03   -0.81292E-04  3649   0.135E-02    0.127E-01
RMM:   5    -0.232309646922E+04    0.15931E-03   -0.18133E-04  3075   0.864E-03    0.584E-02
RMM:   6    -0.232309647780E+04   -0.85827E-05   -0.99114E-05  3025   0.651E-03
  21 F= -.23444625E+04 E0= -.23444625E+04  d E =-.170924E-01  mag=     0.0000
       N       E                     dE             d eps       ncg     rms          rms(c)
DAV:   1    -0.232303790402E+04    0.58565E-01   -0.38759E+00  4528   0.194E+00    0.652E-01
RMM:   2    -0.232312094158E+04   -0.83038E-01   -0.75251E-01  6632   0.506E-01    0.119E+00
RMM:   3    -0.232311569128E+04    0.52503E-02   -0.86213E-02  6366   0.190E-01    0.616E-01
RMM:   4    -0.232311257374E+04    0.31175E-02   -0.87211E-03  5962   0.444E-02    0.275E-01
RMM:   5    -0.232311180598E+04    0.76776E-03   -0.15997E-03  5402   0.204E-02    0.172E-01
RMM:   6    -0.232311192330E+04   -0.11732E-03   -0.12019E-03  5538   0.201E-02    0.223E-01
RMM:   7    -0.232311143026E+04    0.49304E-03   -0.53345E-04  4557   0.147E-02    0.700E-02
RMM:   8    -0.232311139112E+04    0.39133E-04   -0.11189E-04  3503   0.730E-03    0.202E-02
RMM:   9    -0.232311139324E+04   -0.21192E-05   -0.14564E-05  2942   0.494E-03
  22 F= -.23444767E+04 E0= -.23444767E+04  d E =-.142078E-01  mag=     0.0000
       N       E                     dE             d eps       ncg     rms          rms(c)
DAV:   1    -0.232309822171E+04    0.13169E-01   -0.79770E-01  4592   0.883E-01    0.295E-01
RMM:   2    -0.232311515378E+04   -0.16932E-01   -0.15391E-01  6628   0.229E-01    0.531E-01
RMM:   3    -0.232311421714E+04    0.93664E-03   -0.17404E-02  6054   0.867E-02    0.286E-01
RMM:   4    -0.232311355930E+04    0.65785E-03   -0.18155E-03  5078   0.206E-02    0.128E-01
RMM:   5    -0.232311339024E+04    0.16906E-03   -0.34347E-04  3346   0.102E-02    0.810E-02
RMM:   6    -0.232311341965E+04   -0.29406E-04   -0.24996E-04  4125   0.102E-02    0.102E-01
RMM:   7    -0.232311331033E+04    0.10932E-03   -0.13590E-04  3300   0.826E-03    0.304E-02
RMM:   8    -0.232311330493E+04    0.54019E-05   -0.27621E-05  2958   0.530E-03
  23 F= -.23444783E+04 E0= -.23444783E+04  d E =-.158103E-01  mag=     0.0000
       N       E                     dE             d eps       ncg     rms          rms(c)
DAV:   1    -0.232305617934E+04    0.57131E-01   -0.39877E+00  4516   0.195E+00    0.633E-01
RMM:   2    -0.232313138167E+04   -0.75202E-01   -0.69998E-01  6591   0.476E-01    0.105E+00
RMM:   3    -0.232312772598E+04    0.36557E-02   -0.77399E-02  6408   0.177E-01    0.607E-01
RMM:   4    -0.232312474506E+04    0.29809E-02   -0.82145E-03  5981   0.420E-02    0.290E-01
RMM:   5    -0.232312408606E+04    0.65901E-03   -0.14178E-03  5294   0.204E-02    0.183E-01
RMM:   6    -0.232312402654E+04    0.59517E-04   -0.81858E-04  5170   0.163E-02    0.203E-01
RMM:   7    -0.232312363335E+04    0.39319E-03   -0.81919E-04  5282   0.174E-02    0.753E-02
RMM:   8    -0.232312357545E+04    0.57904E-04   -0.16436E-04  3889   0.867E-03    0.191E-02
RMM:   9    -0.232312357758E+04   -0.21286E-05   -0.16687E-05  2918   0.530E-03
  24 F= -.23444883E+04 E0= -.23444883E+04  d E =-.999805E-02  mag=     0.0000
       N       E                     dE             d eps       ncg     rms          rms(c)
DAV:   1    -0.232311917997E+04    0.43955E-02   -0.29225E-01  4720   0.529E-01    0.169E-01
RMM:   2    -0.232312451959E+04   -0.53396E-02   -0.50836E-02  6582   0.128E-01    0.258E-01
RMM:   3    -0.232312448843E+04    0.31158E-04   -0.54663E-03  5538   0.468E-02    0.182E-01
RMM:   4    -0.232312421530E+04    0.27313E-03   -0.57557E-04  3553   0.118E-02    0.781E-02
RMM:   5    -0.232312417064E+04    0.44664E-04   -0.10262E-04  2983   0.708E-03    0.490E-02
RMM:   6    -0.232312416764E+04    0.29975E-05   -0.65807E-05  3080   0.584E-03
  25 F= -.23444888E+04 E0= -.23444888E+04  d E =-.105187E-01  mag=     0.0000
       N       E                     dE             d eps       ncg     rms          rms(c)
DAV:   1    -0.232306542887E+04    0.58742E-01   -0.36163E+00  4516   0.188E+00    0.634E-01
RMM:   2    -0.232313706491E+04   -0.71636E-01   -0.67280E-01  6522   0.463E-01    0.974E-01
RMM:   3    -0.232313435104E+04    0.27139E-02   -0.73804E-02  6417   0.173E-01    0.590E-01
RMM:   4    -0.232313163848E+04    0.27126E-02   -0.76420E-03  5995   0.419E-02    0.337E-01
RMM:   5    -0.232313069356E+04    0.94493E-03   -0.13789E-03  5142   0.200E-02    0.175E-01
RMM:   6    -0.232313085590E+04   -0.16234E-03   -0.11286E-03  5398   0.174E-02    0.232E-01
RMM:   7    -0.232313021695E+04    0.63895E-03   -0.92287E-04  5415   0.183E-02    0.477E-02
RMM:   8    -0.232313019840E+04    0.18553E-04   -0.12613E-04  3148   0.724E-03    0.185E-02
RMM:   9    -0.232313019738E+04    0.10146E-05   -0.14756E-05  2921   0.454E-03
  26 F= -.23444951E+04 E0= -.23444951E+04  d E =-.630605E-02  mag=     0.0000
       N       E                     dE             d eps       ncg     rms          rms(c)
DAV:   1    -0.232313002767E+04    0.17073E-03   -0.12158E-02  5360   0.109E-01    0.357E-02
RMM:   2    -0.232313025589E+04   -0.22822E-03   -0.21989E-03  6075   0.273E-02    0.485E-02
RMM:   3    -0.232313026185E+04   -0.59620E-05   -0.24039E-04  2935   0.105E-02    0.393E-02
RMM:   4    -0.232313025194E+04    0.99128E-05   -0.26196E-05  2950   0.397E-03
  27 F= -.23444951E+04 E0= -.23444951E+04  d E =-.634375E-02  mag=     0.0000
       N       E                     dE             d eps       ncg     rms          rms(c)
DAV:   1    -0.232310475903E+04    0.25503E-01   -0.16892E+00  4528   0.121E+00    0.403E-01
RMM:   2    -0.232313466434E+04   -0.29905E-01   -0.30693E-01  6591   0.303E-01    0.393E-01
RMM:   3    -0.232313846981E+04   -0.38055E-02   -0.31436E-02  6251   0.106E-01    0.557E-01
RMM:   4    -0.232313552533E+04    0.29445E-02   -0.34113E-03  5900   0.290E-02    0.157E-01
RMM:   5    -0.232313549681E+04    0.28524E-04   -0.81883E-04  4520   0.142E-02    0.150E-01
RMM:   6    -0.232313530155E+04    0.19526E-03   -0.41296E-04  4601   0.125E-02    0.993E-02
RMM:   7    -0.232313525256E+04    0.48990E-04   -0.30460E-04  3839   0.104E-02    0.691E-02
RMM:   8    -0.232313519137E+04    0.61188E-04   -0.58573E-05  2988   0.651E-03    0.128E-02
RMM:   9    -0.232313519011E+04    0.12621E-05   -0.13385E-05  2936   0.417E-03
  28 F= -.23445003E+04 E0= -.23445003E+04  d E =-.516014E-02  mag=     0.0000
       N       E                     dE             d eps       ncg     rms          rms(c)
DAV:   1    -0.232312306054E+04    0.12131E-01   -0.70356E-01  4528   0.779E-01    0.260E-01
RMM:   2    -0.232313557920E+04   -0.12519E-01   -0.12790E-01  6582   0.196E-01    0.264E-01
RMM:   3    -0.232313711732E+04   -0.15381E-02   -0.13009E-02  5964   0.687E-02    0.359E-01
RMM:   4    -0.232313588421E+04    0.12331E-02   -0.14306E-03  5160   0.189E-02    0.981E-02
RMM:   5    -0.232313587199E+04    0.12224E-04   -0.33681E-04  3385   0.979E-03    0.945E-02
RMM:   6    -0.232313578717E+04    0.84819E-04   -0.19406E-04  3494   0.962E-03    0.605E-02
RMM:   7    -0.232313577873E+04    0.84394E-05   -0.12341E-04  3160   0.772E-03    0.508E-02
RMM:   8    -0.232313574775E+04    0.30984E-04   -0.28970E-05  2920   0.552E-03    0.909E-03
RMM:   9    -0.232313574700E+04    0.74157E-06   -0.75687E-06  2896   0.323E-03
  29 F= -.23445010E+04 E0= -.23445010E+04  d E =-.586405E-02  mag=     0.0000
       N       E                     dE             d eps       ncg     rms          rms(c)
DAV:   1    -0.232312302771E+04    0.12720E-01   -0.98710E-01  4516   0.914E-01    0.309E-01
RMM:   2    -0.232313975214E+04   -0.16724E-01   -0.16652E-01  6560   0.226E-01    0.362E-01
RMM:   3    -0.232314114810E+04   -0.13960E-02   -0.16163E-02  6015   0.774E-02    0.401E-01
RMM:   4    -0.232313960604E+04    0.15421E-02   -0.18737E-03  5437   0.213E-02    0.123E-01
RMM:   5    -0.232313956290E+04    0.43144E-04   -0.39773E-04  3307   0.108E-02    0.111E-01
RMM:   6    -0.232313948719E+04    0.75707E-04   -0.24152E-04  4242   0.997E-03    0.792E-02
RMM:   7    -0.232313944160E+04    0.45594E-04   -0.16843E-04  3189   0.848E-03    0.449E-02
RMM:   8    -0.232313941513E+04    0.26473E-04   -0.34842E-05  2992   0.570E-03    0.112E-02
RMM:   9    -0.232313941545E+04   -0.32589E-06   -0.75891E-06  2896   0.325E-03
  30 F= -.23445049E+04 E0= -.23445049E+04  d E =-.384054E-02  mag=     0.0000
       N       E                     dE             d eps       ncg     rms          rms(c)
DAV:   1    -0.232310273612E+04    0.36679E-01   -0.23212E+00  4504   0.140E+00    0.474E-01
RMM:   2    -0.232314202084E+04   -0.39285E-01   -0.39182E-01  6577   0.347E-01    0.551E-01
RMM:   3    -0.232314551338E+04   -0.34925E-02   -0.38942E-02  6246   0.119E-01    0.622E-01
RMM:   4    -0.232314176865E+04    0.37447E-02   -0.43853E-03  5926   0.325E-02    0.181E-01
RMM:   5    -0.232314168826E+04    0.80387E-04   -0.94809E-04  4241   0.160E-02    0.168E-01
RMM:   6    -0.232314150539E+04    0.18287E-03   -0.58063E-04  5251   0.139E-02    0.121E-01
RMM:   7    -0.232314141333E+04    0.92062E-04   -0.38660E-04  4041   0.117E-02    0.739E-02
RMM:   8    -0.232314133913E+04    0.74193E-04   -0.73862E-05  3127   0.670E-03    0.172E-02
RMM:   9    -0.232314133989E+04   -0.76117E-06   -0.15855E-05  2939   0.424E-03
  31 F= -.23445070E+04 E0= -.23445070E+04  d E =-.603148E-02  mag=     0.0000
       N       E                     dE             d eps       ncg     rms          rms(c)
DAV:   1    -0.232312943623E+04    0.11903E-01   -0.80238E-01  4560   0.831E-01    0.297E-01
RMM:   2    -0.232314639713E+04   -0.16961E-01   -0.15898E-01  6627   0.219E-01    0.486E-01
RMM:   3    -0.232314611058E+04    0.28655E-03   -0.16334E-02  6080   0.757E-02    0.314E-01
RMM:   4    -0.232314521742E+04    0.89316E-03   -0.17327E-03  5240   0.193E-02    0.106E-01
RMM:   5    -0.232314517656E+04    0.40856E-04   -0.30729E-04  3361   0.987E-03    0.984E-02
RMM:   6    -0.232314514096E+04    0.35602E-04   -0.20105E-04  3917   0.995E-03    0.888E-02
RMM:   7    -0.232314506737E+04    0.73588E-04   -0.14283E-04  3280   0.833E-03    0.300E-02
RMM:   8    -0.232314505983E+04    0.75417E-05   -0.25910E-05  3003   0.510E-03
  32 F= -.23445107E+04 E0= -.23445107E+04  d E =-.370399E-02  mag=     0.0000
       N       E                     dE             d eps       ncg     rms          rms(c)
DAV:   1    -0.232313182674E+04    0.13241E-01   -0.73317E-01  4516   0.795E-01    0.285E-01
RMM:   2    -0.232314737846E+04   -0.15552E-01   -0.14555E-01  6618   0.210E-01    0.467E-01
RMM:   3    -0.232314708287E+04    0.29559E-03   -0.14915E-02  6028   0.715E-02    0.301E-01
RMM:   4    -0.232314626295E+04    0.81992E-03   -0.15960E-03  5142   0.186E-02    0.102E-01
RMM:   5    -0.232314621979E+04    0.43154E-04   -0.28542E-04  3294   0.945E-03    0.927E-02
RMM:   6    -0.232314619599E+04    0.23802E-04   -0.18422E-04  3791   0.964E-03    0.878E-02
RMM:   7    -0.232314612229E+04    0.73700E-04   -0.13006E-04  3243   0.809E-03    0.278E-02
RMM:   8    -0.232314611588E+04    0.64153E-05   -0.24809E-05  3008   0.504E-03
  33 F= -.23445118E+04 E0= -.23445118E+04  d E =-.474957E-02  mag=     0.0000
       N       E                     dE             d eps       ncg     rms          rms(c)
DAV:   1    -0.232312894342E+04    0.17179E-01   -0.11513E+00  4516   0.976E-01    0.359E-01
RMM:   2    -0.232315173327E+04   -0.22790E-01   -0.21336E-01  6628   0.256E-01    0.564E-01
RMM:   3    -0.232315101198E+04    0.72130E-03   -0.21651E-02  6252   0.889E-02    0.383E-01
RMM:   4    -0.232314988939E+04    0.11226E-02   -0.25628E-03  5525   0.233E-02    0.190E-01
RMM:   5    -0.232314955235E+04    0.33705E-03   -0.52682E-04  3775   0.118E-02    0.101E-01
RMM:   6    -0.232314955851E+04   -0.61663E-05   -0.25246E-04  3631   0.967E-03    0.109E-01
RMM:   7    -0.232314943352E+04    0.12500E-03   -0.25257E-04  4224   0.102E-02    0.350E-02
RMM:   8    -0.232314942233E+04    0.11192E-04   -0.50177E-05  3113   0.577E-03    0.114E-02
RMM:   9    -0.232314942266E+04   -0.33084E-06   -0.55663E-06  2874   0.350E-03
  34 F= -.23445150E+04 E0= -.23445150E+04  d E =-.324521E-02  mag=     0.0000
       N       E                     dE             d eps       ncg     rms          rms(c)
DAV:   1    -0.232313833023E+04    0.11092E-01   -0.67046E-01  4528   0.746E-01    0.272E-01
RMM:   2    -0.232315148196E+04   -0.13152E-01   -0.12373E-01  6624   0.195E-01    0.421E-01
RMM:   3    -0.232315120026E+04    0.28170E-03   -0.12581E-02  6065   0.686E-02    0.295E-01
RMM:   4    -0.232315052190E+04    0.67836E-03   -0.14763E-03  4783   0.179E-02    0.143E-01
RMM:   5    -0.232315033077E+04    0.19113E-03   -0.30204E-04  3294   0.950E-03    0.777E-02
RMM:   6    -0.232315033350E+04   -0.27309E-05   -0.14786E-04  3171   0.799E-03    0.839E-02
RMM:   7    -0.232315025972E+04    0.73787E-04   -0.15015E-04  3474   0.854E-03    0.268E-02
RMM:   8    -0.232315025301E+04    0.67023E-05   -0.32431E-05  3067   0.546E-03
  35 F= -.23445158E+04 E0= -.23445158E+04  d E =-.403260E-02  mag=     0.0000
       N       E                     dE             d eps       ncg     rms          rms(c)
DAV:   1    -0.232313083996E+04    0.19420E-01   -0.11764E+00  4504   0.103E+00    0.364E-01
RMM:   2    -0.232315571074E+04   -0.24871E-01   -0.23152E-01  6613   0.271E-01    0.588E-01
RMM:   3    -0.232315446657E+04    0.12442E-02   -0.24494E-02  6338   0.978E-02    0.331E-01
RMM:   4    -0.232315380522E+04    0.66135E-03   -0.26071E-03  5623   0.240E-02    0.235E-01
RMM:   5    -0.232315332741E+04    0.47781E-03   -0.52104E-04  3652   0.125E-02    0.102E-01
RMM:   6    -0.232315330888E+04    0.18534E-04   -0.37816E-04  4907   0.123E-02    0.965E-02
RMM:   7    -0.232315319821E+04    0.11067E-03   -0.22615E-04  3518   0.100E-02    0.350E-02
RMM:   8    -0.232315318295E+04    0.15261E-04   -0.26923E-05  2956   0.484E-03    0.964E-03
RMM:   9    -0.232315318118E+04    0.17617E-05   -0.61434E-06  2892   0.314E-03
  36 F= -.23445190E+04 E0= -.23445190E+04  d E =-.321965E-02  mag=     0.0000
       N       E                     dE             d eps       ncg     rms          rms(c)
DAV:   1    -0.232314947476E+04    0.37082E-02   -0.20023E-01  4624   0.424E-01    0.149E-01
RMM:   2    -0.232315363035E+04   -0.41556E-02   -0.39240E-02  6608   0.112E-01    0.229E-01
RMM:   3    -0.232315350952E+04    0.12084E-03   -0.41256E-03  5390   0.408E-02    0.140E-01
RMM:   4    -0.232315337745E+04    0.13207E-03   -0.43304E-04  3299   0.104E-02    0.928E-02
RMM:   5    -0.232315330610E+04    0.71350E-04   -0.86981E-05  2959   0.649E-03    0.433E-02
RMM:   6    -0.232315330246E+04    0.36354E-05   -0.67414E-05  3100   0.569E-03
  37 F= -.23445193E+04 E0= -.23445193E+04  d E =-.346294E-02  mag=     0.0000
       N       E                     dE             d eps       ncg     rms          rms(c)
DAV:   1    -0.232314002080E+04    0.13285E-01   -0.96604E-01  4504   0.939E-01    0.299E-01
RMM:   2    -0.232315462798E+04   -0.14607E-01   -0.15321E-01  6534   0.226E-01    0.238E-01
RMM:   3    -0.232315645908E+04   -0.18311E-02   -0.15443E-02  6165   0.785E-02    0.361E-01
RMM:   4    -0.232315513585E+04    0.13232E-02   -0.16290E-03  5612   0.214E-02    0.122E-01
RMM:   5    -0.232315524751E+04   -0.11166E-03   -0.46413E-04  3413   0.112E-02    0.163E-01
RMM:   6    -0.232315497463E+04    0.27288E-03   -0.30897E-04  4843   0.118E-02    0.345E-02
RMM:   7    -0.232315498522E+04   -0.10584E-04   -0.86729E-05  3012   0.759E-03    0.376E-02
RMM:   8    -0.232315496613E+04    0.19090E-04   -0.28186E-05  2914   0.477E-03    0.136E-02
RMM:   9    -0.232315496561E+04    0.51499E-06   -0.64938E-06  2928   0.235E-03
  38 F= -.23445213E+04 E0= -.23445213E+04  d E =-.203505E-02  mag=     0.0000
       N       E                     dE             d eps       ncg     rms          rms(c)
DAV:   1    -0.232315393339E+04    0.10327E-02   -0.65601E-02  4672   0.245E-01    0.777E-02
RMM:   2    -0.232315491828E+04   -0.98488E-03   -0.10351E-02  6531   0.592E-02    0.594E-02
RMM:   3    -0.232315505214E+04   -0.13386E-03   -0.10301E-03  3472   0.208E-02    0.976E-02
RMM:   4    -0.232315496047E+04    0.91664E-04   -0.11360E-04  2975   0.732E-03    0.346E-02
RMM:   5    -0.232315496636E+04   -0.58923E-05   -0.34696E-05  2941   0.380E-03
  39 F= -.23445214E+04 E0= -.23445214E+04  d E =-.213271E-02  mag=     0.0000
       N       E                     dE             d eps       ncg     rms          rms(c)
DAV:   1    -0.232314809800E+04    0.68625E-02   -0.77613E-01  4516   0.840E-01    0.261E-01
RMM:   2    -0.232315746394E+04   -0.93659E-02   -0.92370E-02  6531   0.189E-01    0.306E-01
RMM:   3    -0.232315808033E+04   -0.61639E-03   -0.90696E-03  6082   0.633E-02    0.336E-01
RMM:   4    -0.232315703306E+04    0.10473E-02   -0.11037E-03  5248   0.187E-02    0.131E-01
RMM:   5    -0.232315693785E+04    0.95210E-04   -0.27914E-04  3365   0.104E-02    0.963E-02
RMM:   6    -0.232315685259E+04    0.85259E-04   -0.23350E-04  4519   0.109E-02    0.518E-02
RMM:   7    -0.232315684652E+04    0.60675E-05   -0.11819E-04  3081   0.867E-03    0.401E-02
RMM:   8    -0.232315682443E+04    0.22094E-04   -0.28107E-05  2997   0.497E-03    0.885E-03
RMM:   9    -0.232315682444E+04   -0.12238E-07   -0.53545E-06  2898   0.277E-03
  40 F= -.23445233E+04 E0= -.23445233E+04  d E =-.191315E-02  mag=     0.0000
       N       E                     dE             d eps       ncg     rms          rms(c)
DAV:   1    -0.232315628764E+04    0.53679E-03   -0.52169E-02  4688   0.218E-01    0.680E-02
RMM:   2    -0.232315692719E+04   -0.63955E-03   -0.62374E-03  6483   0.493E-02    0.841E-02
RMM:   3    -0.232315695733E+04   -0.30139E-04   -0.61285E-04  3361   0.170E-02    0.857E-02
RMM:   4    -0.232315688965E+04    0.67681E-04   -0.75211E-05  2994   0.647E-03    0.343E-02
RMM:   5    -0.232315688252E+04    0.71272E-05   -0.19732E-05  2910   0.338E-03
  41 F= -.23445234E+04 E0= -.23445234E+04  d E =-.198576E-02  mag=     0.0000
       N       E                     dE             d eps       ncg     rms          rms(c)
DAV:   1    -0.232315362260E+04    0.32671E-02   -0.57140E-01  4516   0.747E-01    0.226E-01
RMM:   2    -0.232315947168E+04   -0.58491E-02   -0.52452E-02  6454   0.157E-01    0.344E-01
RMM:   3    -0.232315905647E+04    0.41521E-03   -0.50867E-03  5876   0.515E-02    0.249E-01
RMM:   4    -0.232315849526E+04    0.56122E-03   -0.59017E-04  4924   0.153E-02    0.109E-01
RMM:   5    -0.232315842917E+04    0.66083E-04   -0.18553E-04  3234   0.986E-03    0.800E-02
RMM:   6    -0.232315835359E+04    0.75587E-04   -0.19344E-04  4364   0.104E-02    0.159E-02
RMM:   7    -0.232315835246E+04    0.11303E-05   -0.20321E-05  2954   0.727E-03
  42 F= -.23445247E+04 E0= -.23445247E+04  d E =-.134302E-02  mag=     0.0000
       N       E                     dE             d eps       ncg     rms          rms(c)
DAV:   1    -0.232315833860E+04    0.14989E-04   -0.22697E-03  5432   0.475E-02    0.184E-02
RMM:   2    -0.232315837386E+04   -0.35262E-04   -0.23601E-04  4513   0.107E-02    0.370E-02
RMM:   3    -0.232315836160E+04    0.12264E-04   -0.29069E-05  2876   0.519E-03    0.177E-02
RMM:   4    -0.232315836059E+04    0.10043E-05   -0.67830E-06  2750   0.198E-03
  43 F= -.23445247E+04 E0= -.23445247E+04  d E =-.134318E-02  mag=     0.0000
       N       E                     dE             d eps       ncg     rms          rms(c)
DAV:   1    -0.232315693507E+04    0.14265E-02   -0.50007E-01  4516   0.683E-01    0.195E-01
RMM:   2    -0.232316066255E+04   -0.37275E-02   -0.34304E-02  6280   0.134E-01    0.261E-01
RMM:   3    -0.232316057165E+04    0.90902E-04   -0.30085E-03  5681   0.434E-02    0.241E-01
RMM:   4    -0.232316004821E+04    0.52344E-03   -0.42687E-04  4822   0.134E-02    0.901E-02
RMM:   5    -0.232316000749E+04    0.40725E-04   -0.13889E-04  3132   0.870E-03    0.712E-02
RMM:   6    -0.232316001059E+04   -0.31016E-05   -0.16981E-04  4143   0.931E-03    0.675E-02
RMM:   7    -0.232315995509E+04    0.55503E-04   -0.74988E-05  3082   0.727E-03    0.187E-02
RMM:   8    -0.232315995089E+04    0.41918E-05   -0.12696E-05  2956   0.389E-03
  44 F= -.23445262E+04 E0= -.23445262E+04  d E =-.148330E-02  mag=     0.0000
       N       E                     dE             d eps       ncg     rms          rms(c)
DAV:   1    -0.232315914382E+04    0.81126E-03   -0.17604E-01  4560   0.406E-01    0.118E-01
RMM:   2    -0.232316051233E+04   -0.13685E-02   -0.12293E-02  6231   0.805E-02    0.166E-01
RMM:   3    -0.232316042634E+04    0.85991E-04   -0.10497E-03  4566   0.240E-02    0.140E-01
RMM:   4    -0.232316025801E+04    0.16834E-03   -0.15535E-04  3236   0.871E-03    0.619E-02
RMM:   5    -0.232316023045E+04    0.27554E-04   -0.50557E-05  2951   0.592E-03    0.382E-02
RMM:   6    -0.232316024080E+04   -0.10348E-04   -0.61041E-05  3035   0.585E-03    0.451E-02
RMM:   7    -0.232316021614E+04    0.24658E-04   -0.33159E-05  2937   0.567E-03    0.110E-02
RMM:   8    -0.232316021535E+04    0.79142E-06   -0.70496E-06  2900   0.305E-03
  45 F= -.23445264E+04 E0= -.23445264E+04  d E =-.168472E-02  mag=     0.0000
       N       E                     dE             d eps       ncg     rms          rms(c)
DAV:   1    -0.232315935290E+04    0.86324E-03   -0.35047E-01  4504   0.565E-01    0.164E-01
RMM:   2    -0.232316184646E+04   -0.24936E-02   -0.25031E-02  6211   0.113E-01    0.152E-01
RMM:   3    -0.232316220893E+04   -0.36247E-03   -0.22229E-03  5437   0.380E-02    0.233E-01
RMM:   4    -0.232316171566E+04    0.49327E-03   -0.34653E-04  3968   0.118E-02    0.738E-02
RMM:   5    -0.232316168164E+04    0.34019E-04   -0.11242E-04  3022   0.784E-03    0.533E-02
RMM:   6    -0.232316169468E+04   -0.13032E-04   -0.11809E-04  3855   0.821E-03    0.612E-02
RMM:   7    -0.232316165457E+04    0.40102E-04   -0.39159E-05  2969   0.613E-03    0.143E-02
RMM:   8    -0.232316165281E+04    0.17641E-05   -0.66716E-06  2890   0.287E-03
  46 F= -.23445279E+04 E0= -.23445279E+04  d E =-.143496E-02  mag=     0.0000
       N       E                     dE             d eps       ncg     rms          rms(c)
DAV:   1    -0.232315985068E+04    0.18039E-02   -0.34407E-01  4504   0.560E-01    0.163E-01
RMM:   2    -0.232316230940E+04   -0.24587E-02   -0.24654E-02  6188   0.113E-01    0.151E-01
RMM:   3    -0.232316265981E+04   -0.35040E-03   -0.21705E-03  5347   0.361E-02    0.231E-01
RMM:   4    -0.232316217588E+04    0.48393E-03   -0.34122E-04  3968   0.117E-02    0.735E-02
RMM:   5    -0.232316214167E+04    0.34212E-04   -0.11060E-04  3019   0.767E-03    0.525E-02
RMM:   6    -0.232316215467E+04   -0.13006E-04   -0.11649E-04  3817   0.814E-03    0.608E-02
RMM:   7    -0.232316211529E+04    0.39385E-04   -0.38441E-05  2961   0.607E-03    0.143E-02
RMM:   8    -0.232316211349E+04    0.17954E-05   -0.67407E-06  2897   0.288E-03
  47 F= -.23445283E+04 E0= -.23445283E+04  d E =-.189458E-02  mag=     0.0000
       N       E                     dE             d eps       ncg     rms          rms(c)
DAV:   1    -0.232316110483E+04    0.10105E-02   -0.35623E-01  4504   0.555E-01    0.168E-01
RMM:   2    -0.232316380686E+04   -0.27020E-02   -0.27252E-02  6260   0.115E-01    0.157E-01
RMM:   3    -0.232316428123E+04   -0.47436E-03   -0.25090E-03  5454   0.381E-02    0.243E-01
RMM:   4    -0.232316371008E+04    0.57115E-03   -0.34015E-04  4241   0.123E-02    0.579E-02
RMM:   5    -0.232316376692E+04   -0.56842E-04   -0.15120E-04  3417   0.868E-03    0.893E-02
RMM:   6    -0.232316369342E+04    0.73501E-04   -0.11504E-04  3312   0.850E-03    0.314E-02
RMM:   7    -0.232316369034E+04    0.30751E-05   -0.34984E-05  2938   0.575E-03
  48 F= -.23445299E+04 E0= -.23445299E+04  d E =-.152405E-02  mag=     0.0000
       N       E                     dE             d eps       ncg     rms          rms(c)
DAV:   1    -0.232316160485E+04    0.20886E-02   -0.34969E-01  4504   0.550E-01    0.168E-01
RMM:   2    -0.232316427920E+04   -0.26743E-02   -0.26878E-02  6295   0.114E-01    0.159E-01
RMM:   3    -0.232316474029E+04   -0.46109E-03   -0.25074E-03  5466   0.388E-02    0.242E-01
RMM:   4    -0.232316417916E+04    0.56113E-03   -0.33823E-04  4204   0.123E-02    0.594E-02
RMM:   5    -0.232316423134E+04   -0.52183E-04   -0.14242E-04  3286   0.846E-03    0.883E-02
RMM:   6    -0.232316416173E+04    0.69613E-04   -0.11373E-04  3397   0.855E-03    0.324E-02
RMM:   7    -0.232316415869E+04    0.30375E-05   -0.37868E-05  2935   0.582E-03
  49 F= -.23445303E+04 E0= -.23445303E+04  d E =-.194181E-02  mag=     0.0000
       N       E                     dE             d eps       ncg     rms          rms(c)
DAV:   1    -0.232316378189E+04    0.37983E-03   -0.22423E-01  4528   0.432E-01    0.133E-01
RMM:   2    -0.232316592930E+04   -0.21474E-02   -0.19267E-02  6467   0.913E-02    0.195E-01
RMM:   3    -0.232316579766E+04    0.13165E-03   -0.16126E-03  4842   0.289E-02    0.136E-01
RMM:   4    -0.232316565681E+04    0.14085E-03   -0.21282E-04  3265   0.934E-03    0.809E-02
RMM:   5    -0.232316561210E+04    0.44709E-04   -0.65944E-05  2958   0.617E-03    0.417E-02
RMM:   6    -0.232316560243E+04    0.96682E-05   -0.59972E-05  3106   0.609E-03
  50 F= -.23445316E+04 E0= -.23445316E+04  d E =-.130464E-02  mag=     0.0000
       N       E                     dE             d eps       ncg     rms          rms(c)
DAV:   1    -0.232315202730E+04    0.13585E-01   -0.20160E+00  4504   0.129E+00    0.392E-01
RMM:   2    -0.232317078699E+04   -0.18760E-01   -0.17177E-01  6441   0.273E-01    0.550E-01
RMM:   3    -0.232317017090E+04    0.61608E-03   -0.14408E-02  6157   0.836E-02    0.416E-01
RMM:   4    -0.232316879443E+04    0.13765E-02   -0.19051E-03  5755   0.253E-02    0.231E-01
RMM:   5    -0.232316845145E+04    0.34298E-03   -0.58589E-04  4244   0.143E-02    0.133E-01
RMM:   6    -0.232316833865E+04    0.11279E-03   -0.56222E-04  4767   0.161E-02    0.530E-02
RMM:   7    -0.232316834879E+04   -0.10141E-04   -0.14835E-04  3267   0.104E-02    0.478E-02
RMM:   8    -0.232316832040E+04    0.28390E-04   -0.40415E-05  2945   0.490E-03    0.214E-02
RMM:   9    -0.232316831766E+04    0.27405E-05   -0.12801E-05  2942   0.290E-03
  51 F= -.23445339E+04 E0= -.23445339E+04  d E =-.360909E-02  mag=     0.0000
       N       E                     dE             d eps       ncg     rms          rms(c)
DAV:   1    -0.232316653507E+04    0.17853E-02   -0.48412E-01  4504   0.656E-01    0.236E-01
RMM:   2    -0.232317301378E+04   -0.64787E-02   -0.52204E-02  6392   0.149E-01    0.415E-01
RMM:   3    -0.232317166262E+04    0.13512E-02   -0.44199E-03  5912   0.491E-02    0.190E-01
RMM:   4    -0.232317154055E+04    0.12207E-03   -0.76969E-04  5064   0.155E-02    0.176E-01
RMM:   5    -0.232317126087E+04    0.27968E-03   -0.24562E-04  3454   0.101E-02    0.651E-02
RMM:   6    -0.232317130413E+04   -0.43253E-04   -0.21177E-04  4056   0.965E-03    0.840E-02
RMM:   7    -0.232317122061E+04    0.83513E-04   -0.11788E-04  3338   0.818E-03    0.133E-02
RMM:   8    -0.232317121952E+04    0.10942E-05   -0.17774E-05  2945   0.459E-03
  52 F= -.23445365E+04 E0= -.23445365E+04  d E =-.260800E-02  mag=     0.0000
       N       E                     dE             d eps       ncg     rms          rms(c)
DAV:   1    -0.232316802079E+04    0.31998E-02   -0.43648E-01  4504   0.623E-01    0.226E-01
RMM:   2    -0.232317395443E+04   -0.59336E-02   -0.47367E-02  6374   0.142E-01    0.402E-01
RMM:   3    -0.232317264985E+04    0.13046E-02   -0.39908E-03  5873   0.438E-02    0.180E-01
RMM:   4    -0.232317254775E+04    0.10210E-03   -0.70825E-04  4971   0.148E-02    0.168E-01
RMM:   5    -0.232317229104E+04    0.25671E-03   -0.22529E-04  3365   0.952E-03    0.624E-02
RMM:   6    -0.232317233027E+04   -0.39231E-04   -0.19056E-04  3897   0.921E-03    0.808E-02
RMM:   7    -0.232317225235E+04    0.77917E-04   -0.10887E-04  3338   0.800E-03    0.123E-02
RMM:   8    -0.232317225081E+04    0.15424E-05   -0.16904E-05  2941   0.458E-03
  53 F= -.23445372E+04 E0= -.23445372E+04  d E =-.336266E-02  mag=     0.0000
       N       E                     dE             d eps       ncg     rms          rms(c)
DAV:   1    -0.232316919907E+04    0.30533E-02   -0.41989E-01  4504   0.575E-01    0.206E-01
RMM:   2    -0.232317618018E+04   -0.69811E-02   -0.54741E-02  6594   0.137E-01    0.433E-01
RMM:   3    -0.232317450384E+04    0.16763E-02   -0.46753E-03  5831   0.429E-02    0.144E-01
RMM:   4    -0.232317454535E+04   -0.41510E-04   -0.78757E-04  3806   0.134E-02    0.163E-01
RMM:   5    -0.232317430567E+04    0.23968E-03   -0.21300E-04  3204   0.899E-03    0.608E-02
RMM:   6    -0.232317434479E+04   -0.39126E-04   -0.15277E-04  3099   0.763E-03    0.799E-02
RMM:   7    -0.232317427961E+04    0.65187E-04   -0.11418E-04  3207   0.801E-03    0.111E-02
RMM:   8    -0.232317427883E+04    0.77835E-06   -0.16364E-05  2945   0.461E-03
  54 F= -.23445390E+04 E0= -.23445390E+04  d E =-.177850E-02  mag=     0.0000
       N       E                     dE             d eps       ncg     rms          rms(c)
DAV:   1    -0.232314460756E+04    0.29672E-01   -0.26362E+00  4504   0.144E+00    0.516E-01
RMM:   2    -0.232318856401E+04   -0.43956E-01   -0.34655E-01  6604   0.346E-01    0.108E+00
RMM:   3    -0.232317792924E+04    0.10635E-01   -0.29055E-02  6404   0.107E-01    0.358E-01
RMM:   4    -0.232317824605E+04   -0.31681E-03   -0.50097E-03  5888   0.329E-02    0.412E-01
RMM:   5    -0.232317670656E+04    0.15395E-02   -0.13493E-03  5480   0.192E-02    0.153E-01
RMM:   6    -0.232317694049E+04   -0.23393E-03   -0.94580E-04  5122   0.153E-02    0.199E-01
RMM:   7    -0.232317652604E+04    0.41445E-03   -0.66424E-04  5110   0.157E-02    0.279E-02
RMM:   8    -0.232317651886E+04    0.71765E-05   -0.78029E-05  3011   0.655E-03
  55 F= -.23445406E+04 E0= -.23445406E+04  d E =-.340588E-02  mag=     0.0000
       N       E                     dE             d eps       ncg     rms          rms(c)
DAV:   1    -0.232317535782E+04    0.11682E-02   -0.28207E-01  4624   0.468E-01    0.168E-01
RMM:   2    -0.232317949065E+04   -0.41328E-02   -0.33670E-02  6571   0.109E-01    0.316E-01
RMM:   3    -0.232317869516E+04    0.79549E-03   -0.29765E-03  5315   0.346E-02    0.126E-01
RMM:   4    -0.232317867138E+04    0.23787E-04   -0.43804E-04  3388   0.106E-02    0.125E-01
RMM:   5    -0.232317853737E+04    0.13401E-03   -0.12489E-04  3023   0.755E-03    0.462E-02
RMM:   6    -0.232317856817E+04   -0.30798E-04   -0.10365E-04  3045   0.642E-03    0.617E-02
RMM:   7    -0.232317852708E+04    0.41086E-04   -0.63671E-05  2991   0.629E-03    0.100E-02
RMM:   8    -0.232317852698E+04    0.95577E-07   -0.10280E-05  2923   0.332E-03
  56 F= -.23445425E+04 E0= -.23445425E+04  d E =-.181081E-02  mag=     0.0000
       N       E                     dE             d eps       ncg     rms          rms(c)
DAV:   1    -0.232315436869E+04    0.24158E-01   -0.25264E+00  4504   0.140E+00    0.488E-01
RMM:   2    -0.232318994831E+04   -0.35580E-01   -0.29900E-01  6558   0.324E-01    0.876E-01
RMM:   3    -0.232318415128E+04    0.57970E-02   -0.26413E-02  6341   0.103E-01    0.377E-01
RMM:   4    -0.232318382824E+04    0.32304E-03   -0.37942E-03  5815   0.301E-02    0.360E-01
RMM:   5    -0.232318271823E+04    0.11100E-02   -0.10711E-03  5035   0.174E-02    0.143E-01
RMM:   6    -0.232318295217E+04   -0.23394E-03   -0.90904E-04  5153   0.162E-02    0.181E-01
RMM:   7    -0.232318258144E+04    0.37073E-03   -0.52658E-04  4846   0.141E-02    0.285E-02
RMM:   8    -0.232318257560E+04    0.58417E-05   -0.63010E-05  3057   0.496E-03
  57 F= -.23445459E+04 E0= -.23445459E+04  d E =-.527446E-02  mag=     0.0000
       N       E                     dE             d eps       ncg     rms          rms(c)
DAV:   1    -0.232306871036E+04    0.11387E+00   -0.10041E+01  4504   0.280E+00    0.980E-01
RMM:   2    -0.232321219798E+04   -0.14349E+00   -0.12050E+00  6574   0.654E-01    0.175E+00
RMM:   3    -0.232318774855E+04    0.24449E-01   -0.10737E-01  6447   0.206E-01    0.740E-01
RMM:   4    -0.232318685771E+04    0.89085E-03   -0.15341E-02  6115   0.600E-02    0.732E-01
RMM:   5    -0.232318226444E+04    0.45933E-02   -0.43687E-03  5983   0.343E-02    0.285E-01
RMM:   6    -0.232318319937E+04   -0.93493E-03   -0.37368E-03  5677   0.317E-02    0.361E-01
RMM:   7    -0.232318172030E+04    0.14791E-02   -0.20255E-03  5697   0.262E-02    0.611E-02
RMM:   8    -0.232318170047E+04    0.19828E-04   -0.23191E-04  3448   0.764E-03    0.474E-02
RMM:   9    -0.232318167635E+04    0.24122E-04   -0.61236E-05  2969   0.626E-03    0.241E-02
RMM:  10    -0.232318167349E+04    0.28610E-05   -0.38020E-05  3002   0.462E-03
  58 F= -.23445439E+04 E0= -.23445439E+04  d E =-.323235E-02  mag=     0.0000
       N       E                     dE             d eps       ncg     rms          rms(c)
DAV:   1    -0.232313320326E+04    0.48473E-01   -0.45014E+00  4504   0.188E+00    0.642E-01
RMM:   2    -0.232319366854E+04   -0.60465E-01   -0.52486E-01  6588   0.428E-01    0.109E+00
RMM:   3    -0.232318702939E+04    0.66391E-02   -0.47900E-02  6400   0.139E-01    0.547E-01
RMM:   4    -0.232318529062E+04    0.17388E-02   -0.64511E-03  5961   0.400E-02    0.401E-01
RMM:   5    -0.232318399073E+04    0.12999E-02   -0.18209E-03  5537   0.223E-02    0.207E-01
RMM:   6    -0.232318433301E+04   -0.34228E-03   -0.14338E-03  5492   0.199E-02    0.250E-01
RMM:   7    -0.232318366944E+04    0.66356E-03   -0.97324E-04  5360   0.185E-02    0.438E-02
RMM:   8    -0.232318365023E+04    0.19214E-04   -0.11587E-04  3146   0.652E-03    0.206E-02
RMM:   9    -0.232318364319E+04    0.70427E-05   -0.16009E-05  2932   0.423E-03
  59 F= -.23445466E+04 E0= -.23445466E+04  d E =-.596081E-02  mag=     0.0000
       N       E                     dE             d eps       ncg     rms          rms(c)
DAV:   1    -0.232317832012E+04    0.53301E-02   -0.95353E-01  4504   0.838E-01    0.296E-01
RMM:   2    -0.232318898384E+04   -0.10664E-01   -0.10018E-01  6507   0.189E-01    0.385E-01
RMM:   3    -0.232318899214E+04   -0.82971E-05   -0.94560E-03  6012   0.627E-02    0.308E-01
RMM:   4    -0.232318818905E+04    0.80309E-03   -0.11540E-03  5424   0.188E-02    0.169E-01
RMM:   5    -0.232318802475E+04    0.16430E-03   -0.32474E-04  3529   0.107E-02    0.104E-01
RMM:   6    -0.232318793796E+04    0.86795E-04   -0.28720E-04  4284   0.117E-02    0.298E-02
RMM:   7    -0.232318793535E+04    0.26033E-05   -0.50143E-05  3090   0.679E-03
  60 F= -.23445505E+04 E0= -.23445505E+04  d E =-.385480E-02  mag=     0.0000
       N       E                     dE             d eps       ncg     rms          rms(c)
DAV:   1    -0.232316291887E+04    0.25019E-01   -0.27767E+00  4504   0.143E+00    0.511E-01
RMM:   2    -0.232319467968E+04   -0.31761E-01   -0.29477E-01  6499   0.325E-01    0.682E-01
RMM:   3    -0.232319413687E+04    0.54281E-03   -0.27932E-02  6263   0.109E-01    0.512E-01
RMM:   4    -0.232319200203E+04    0.21348E-02   -0.34465E-03  5884   0.319E-02    0.299E-01
RMM:   5    -0.232319146347E+04    0.53856E-03   -0.97034E-04  4969   0.175E-02    0.173E-01
RMM:   6    -0.232319124866E+04    0.21482E-03   -0.85368E-04  5039   0.183E-02    0.599E-02
RMM:   7    -0.232319127045E+04   -0.21794E-04   -0.20112E-04  3718   0.114E-02    0.582E-02
RMM:   8    -0.232319122759E+04    0.42860E-04   -0.65318E-05  3030   0.544E-03    0.208E-02
RMM:   9    -0.232319122056E+04    0.70349E-05   -0.18836E-05  2942   0.364E-03
  61 F= -.23445530E+04 E0= -.23445530E+04  d E =-.639960E-02  mag=     0.0000
       N       E                     dE             d eps       ncg     rms          rms(c)
DAV:   1    -0.232318485210E+04    0.63755E-02   -0.10886E+00  4504   0.887E-01    0.315E-01
RMM:   2    -0.232319666384E+04   -0.11812E-01   -0.11312E-01  6490   0.201E-01    0.369E-01
RMM:   3    -0.232319716772E+04   -0.50388E-03   -0.10732E-02  6006   0.678E-02    0.346E-01
RMM:   4    -0.232319616424E+04    0.10035E-02   -0.13835E-03  5532   0.202E-02    0.176E-01
RMM:   5    -0.232319599912E+04    0.16512E-03   -0.40148E-04  3616   0.114E-02    0.115E-01
RMM:   6    -0.232319602896E+04   -0.29836E-04   -0.38045E-04  4320   0.119E-02    0.102E-01
RMM:   7    -0.232319591376E+04    0.11520E-03   -0.19615E-04  3526   0.911E-03    0.323E-02
RMM:   8    -0.232319590173E+04    0.12033E-04   -0.23931E-05  3011   0.481E-03    0.114E-02
RMM:   9    -0.232319590001E+04    0.17182E-05   -0.60086E-06  2900   0.261E-03
  62 F= -.23445571E+04 E0= -.23445571E+04  d E =-.405337E-02  mag=     0.0000
       N       E                     dE             d eps       ncg     rms          rms(c)
DAV:   1    -0.232317584562E+04    0.20056E-01   -0.23555E+00  4504   0.131E+00    0.464E-01
RMM:   2    -0.232320138681E+04   -0.25541E-01   -0.24541E-01  6504   0.297E-01    0.539E-01
RMM:   3    -0.232320260250E+04   -0.12157E-02   -0.23464E-02  6205   0.998E-02    0.515E-01
RMM:   4    -0.232320035755E+04    0.22449E-02   -0.30060E-03  5921   0.297E-02    0.254E-01
RMM:   5    -0.232320003511E+04    0.32244E-03   -0.88797E-04  4760   0.164E-02    0.173E-01
RMM:   6    -0.232320008022E+04   -0.45109E-04   -0.82434E-04  5153   0.162E-02    0.151E-01
RMM:   7    -0.232319983118E+04    0.24904E-03   -0.41593E-04  4316   0.125E-02    0.488E-02
RMM:   8    -0.232319980188E+04    0.29298E-04   -0.46333E-05  3058   0.537E-03    0.166E-02
RMM:   9    -0.232319979778E+04    0.41036E-05   -0.11734E-05  2920   0.347E-03
  63 F= -.23445600E+04 E0= -.23445600E+04  d E =-.703426E-02  mag=     0.0000
       N       E                     dE             d eps       ncg     rms          rms(c)
DAV:   1    -0.232319534377E+04    0.44581E-02   -0.11077E+00  4504   0.945E-01    0.346E-01
RMM:   2    -0.232320753707E+04   -0.12193E-01   -0.10495E-01  6412   0.214E-01    0.514E-01
RMM:   3    -0.232320608502E+04    0.14521E-02   -0.91504E-03  6106   0.697E-02    0.313E-01
RMM:   4    -0.232320544681E+04    0.63821E-03   -0.14345E-03  5609   0.218E-02    0.215E-01
RMM:   5    -0.232320511606E+04    0.33075E-03   -0.49901E-04  4103   0.135E-02    0.113E-01
RMM:   6    -0.232320515791E+04   -0.41859E-04   -0.39993E-04  4654   0.123E-02    0.107E-01
RMM:   7    -0.232320501903E+04    0.13888E-03   -0.20603E-04  3801   0.101E-02    0.284E-02
RMM:   8    -0.232320500916E+04    0.98674E-05   -0.28900E-05  3067   0.480E-03
  64 F= -.23445645E+04 E0= -.23445645E+04  d E =-.445897E-02  mag=     0.0000
       N       E                     dE             d eps       ncg     rms          rms(c)
DAV:   1    -0.232319883779E+04    0.61812E-02   -0.92717E-01  4516   0.866E-01    0.319E-01
RMM:   2    -0.232320915861E+04   -0.10321E-01   -0.88286E-02  6406   0.196E-01    0.479E-01
RMM:   3    -0.232320785598E+04    0.13026E-02   -0.76968E-03  6048   0.615E-02    0.287E-01
RMM:   4    -0.232320732867E+04    0.52731E-03   -0.12185E-03  5541   0.199E-02    0.198E-01
RMM:   5    -0.232320704464E+04    0.28403E-03   -0.42206E-04  3882   0.124E-02    0.103E-01
RMM:   6    -0.232320708289E+04   -0.38252E-04   -0.34063E-04  4533   0.115E-02    0.985E-02
RMM:   7    -0.232320696251E+04    0.12038E-03   -0.17376E-04  3623   0.935E-03    0.258E-02
RMM:   8    -0.232320695396E+04    0.85477E-05   -0.25250E-05  3043   0.473E-03
  65 F= -.23445658E+04 E0= -.23445658E+04  d E =-.571563E-02  mag=     0.0000
       N       E                     dE             d eps       ncg     rms          rms(c)
DAV:   1    -0.232320366184E+04    0.33007E-02   -0.80393E-01  4548   0.783E-01    0.280E-01
RMM:   2    -0.232321363872E+04   -0.99769E-02   -0.78466E-02  6549   0.177E-01    0.529E-01
RMM:   3    -0.232321119952E+04    0.24392E-02   -0.63978E-03  6116   0.530E-02    0.206E-01
RMM:   4    -0.232321108684E+04    0.11268E-03   -0.99373E-04  4982   0.163E-02    0.188E-01
RMM:   5    -0.232321082360E+04    0.26324E-03   -0.33602E-04  3499   0.103E-02    0.883E-02
RMM:   6    -0.232321081744E+04    0.61655E-05   -0.21292E-04  4057   0.988E-03    0.579E-02
RMM:   7    -0.232321079657E+04    0.20863E-04   -0.11469E-04  3038   0.766E-03    0.355E-02
RMM:   8    -0.232321077979E+04    0.16778E-04   -0.23109E-05  3014   0.449E-03    0.728E-03
RMM:   9    -0.232321077929E+04    0.50677E-06   -0.51959E-06  2885   0.233E-03
  66 F= -.23445689E+04 E0= -.23445689E+04  d E =-.317357E-02  mag=     0.0000
       N       E                     dE             d eps       ncg     rms          rms(c)
DAV:   1    -0.232317313743E+04    0.37642E-01   -0.47756E+00  4504   0.192E+00    0.675E-01
RMM:   2    -0.232323145173E+04   -0.58314E-01   -0.46609E-01  6618   0.434E-01    0.124E+00
RMM:   3    -0.232321804984E+04    0.13402E-01   -0.37774E-02  6432   0.128E-01    0.498E-01
RMM:   4    -0.232321726638E+04    0.78346E-03   -0.57246E-03  5922   0.390E-02    0.442E-01
RMM:   5    -0.232321587574E+04    0.13906E-02   -0.19332E-03  5562   0.235E-02    0.221E-01
RMM:   6    -0.232321570228E+04    0.17347E-03   -0.11510E-03  4971   0.205E-02    0.114E-01
RMM:   7    -0.232321567705E+04    0.25224E-04   -0.57407E-04  4357   0.163E-02    0.911E-02
RMM:   8    -0.232321556213E+04    0.11492E-03   -0.12003E-04  3315   0.678E-03    0.189E-02
RMM:   9    -0.232321555679E+04    0.53365E-05   -0.23404E-05  2968   0.421E-03
  67 F= -.23445721E+04 E0= -.23445721E+04  d E =-.636320E-02  mag=     0.0000
       N       E                     dE             d eps       ncg     rms          rms(c)
DAV:   1    -0.232320972640E+04    0.58357E-02   -0.14354E+00  4504   0.108E+00    0.378E-01
RMM:   2    -0.232322440706E+04   -0.14681E-01   -0.12350E-01  6457   0.231E-01    0.582E-01
RMM:   3    -0.232322221150E+04    0.21956E-02   -0.10905E-02  6216   0.753E-02    0.336E-01
RMM:   4    -0.232322149534E+04    0.71616E-03   -0.16544E-03  5628   0.232E-02    0.232E-01
RMM:   5    -0.232322113173E+04    0.36361E-03   -0.58461E-04  4328   0.142E-02    0.131E-01
RMM:   6    -0.232322102488E+04    0.10685E-03   -0.39017E-04  4608   0.133E-02    0.528E-02
RMM:   7    -0.232322103454E+04   -0.96553E-05   -0.16010E-04  3259   0.105E-02    0.502E-02
RMM:   8    -0.232322099969E+04    0.34848E-04   -0.36959E-05  2975   0.489E-03    0.123E-02
RMM:   9    -0.232322099861E+04    0.10813E-05   -0.94748E-06  2933   0.293E-03
  68 F= -.23445769E+04 E0= -.23445769E+04  d E =-.478688E-02  mag=     0.0000
       N       E                     dE             d eps       ncg     rms          rms(c)
DAV:   1    -0.232321280388E+04    0.81958E-02   -0.13746E+00  4504   0.106E+00    0.371E-01
RMM:   2    -0.232322690052E+04   -0.14097E-01   -0.11846E-01  6460   0.227E-01    0.573E-01
RMM:   3    -0.232322478161E+04    0.21189E-02   -0.10498E-02  6219   0.738E-02    0.330E-01
RMM:   4    -0.232322410002E+04    0.68159E-03   -0.16034E-03  5603   0.228E-02    0.228E-01
RMM:   5    -0.232322374446E+04    0.35556E-03   -0.56805E-04  4311   0.140E-02    0.129E-01
RMM:   6    -0.232322364074E+04    0.10372E-03   -0.37928E-04  4602   0.130E-02    0.534E-02
RMM:   7    -0.232322364623E+04   -0.54911E-05   -0.15623E-04  3245   0.103E-02    0.490E-02
RMM:   8    -0.232322361293E+04    0.33301E-04   -0.35363E-05  2975   0.484E-03    0.120E-02
RMM:   9    -0.232322361163E+04    0.12910E-05   -0.94450E-06  2931   0.292E-03
  69 F= -.23445789E+04 E0= -.23445789E+04  d E =-.675844E-02  mag=     0.0000
       N       E                     dE             d eps       ncg     rms          rms(c)
DAV:   1    -0.232322183500E+04    0.17779E-02   -0.70488E-01  4576   0.770E-01    0.271E-01
RMM:   2    -0.232322778466E+04   -0.59497E-02   -0.60888E-02  6242   0.160E-01    0.230E-01
RMM:   3    -0.232322847183E+04   -0.68716E-03   -0.55030E-03  5988   0.574E-02    0.309E-01
RMM:   4    -0.232322747542E+04    0.99641E-03   -0.87037E-04  5546   0.183E-02    0.105E-01
RMM:   5    -0.232322758415E+04   -0.10873E-03   -0.37428E-04  3795   0.113E-02    0.154E-01
RMM:   6    -0.232322741924E+04    0.16491E-03   -0.28814E-04  4679   0.111E-02    0.778E-02
RMM:   7    -0.232322736438E+04    0.54864E-04   -0.13073E-04  3047   0.813E-03    0.319E-02
RMM:   8    -0.232322735205E+04    0.12331E-04   -0.18070E-05  2935   0.453E-03    0.117E-02
RMM:   9    -0.232322735208E+04   -0.32960E-07   -0.85831E-06  2925   0.274E-03
  70 F= -.23445824E+04 E0= -.23445824E+04  d E =-.355724E-02  mag=     0.0000
       N       E                     dE             d eps       ncg     rms          rms(c)
DAV:   1    -0.232322547081E+04    0.18812E-02   -0.35239E-01  4576   0.544E-01    0.192E-01
RMM:   2    -0.232322846249E+04   -0.29917E-02   -0.30499E-02  6283   0.113E-01    0.166E-01
RMM:   3    -0.232322880461E+04   -0.34212E-03   -0.27663E-03  5723   0.408E-02    0.222E-01
RMM:   4    -0.232322829764E+04    0.50697E-03   -0.43941E-04  4677   0.131E-02    0.765E-02
RMM:   5    -0.232322834511E+04   -0.47470E-04   -0.18619E-04  3182   0.852E-03    0.107E-01
RMM:   6    -0.232322826481E+04    0.80303E-04   -0.14931E-04  3792   0.871E-03    0.545E-02
RMM:   7    -0.232322823792E+04    0.26886E-04   -0.68748E-05  2952   0.673E-03    0.226E-02
RMM:   8    -0.232322823207E+04    0.58534E-05   -0.10751E-05  2890   0.369E-03
  71 F= -.23445832E+04 E0= -.23445832E+04  d E =-.430813E-02  mag=     0.0000
       N       E                     dE             d eps       ncg     rms          rms(c)
DAV:   1    -0.232322482296E+04    0.34150E-02   -0.63976E-01  4504   0.775E-01    0.247E-01
RMM:   2    -0.232323114859E+04   -0.63256E-02   -0.66127E-02  6294   0.160E-01    0.179E-01
RMM:   3    -0.232323183441E+04   -0.68582E-03   -0.62340E-03  5933   0.562E-02    0.241E-01
RMM:   4    -0.232323123315E+04    0.60126E-03   -0.79316E-04  5025   0.163E-02    0.995E-02
RMM:   5    -0.232323126970E+04   -0.36548E-04   -0.32341E-04  3746   0.103E-02    0.118E-01
RMM:   6    -0.232323122991E+04    0.39791E-04   -0.26224E-04  4070   0.106E-02    0.103E-01
RMM:   7    -0.232323113702E+04    0.92893E-04   -0.11429E-04  3084   0.753E-03    0.270E-02
RMM:   8    -0.232323113170E+04    0.53106E-05   -0.15326E-05  2934   0.442E-03
  72 F= -.23445860E+04 E0= -.23445860E+04  d E =-.276479E-02  mag=     0.0000
       N       E                     dE             d eps       ncg     rms          rms(c)
DAV:   1    -0.232322506663E+04    0.60704E-02   -0.72095E-01  4504   0.824E-01    0.263E-01
RMM:   2    -0.232323222931E+04   -0.71627E-02   -0.74778E-02  6278   0.170E-01    0.192E-01
RMM:   3    -0.232323300340E+04   -0.77409E-03   -0.70390E-03  5952   0.588E-02    0.257E-01
RMM:   4    -0.232323231474E+04    0.68866E-03   -0.90022E-04  5227   0.173E-02    0.105E-01
RMM:   5    -0.232323235711E+04   -0.42370E-04   -0.36821E-04  3953   0.108E-02    0.126E-01
RMM:   6    -0.232323231043E+04    0.46676E-04   -0.29579E-04  4199   0.110E-02    0.109E-01
RMM:   7    -0.232323220740E+04    0.10303E-03   -0.12747E-04  3117   0.776E-03    0.292E-02
RMM:   8    -0.232323220175E+04    0.56521E-05   -0.17029E-05  2936   0.456E-03
  73 F= -.23445869E+04 E0= -.23445869E+04  d E =-.369503E-02  mag=     0.0000
       N       E                     dE             d eps       ncg     rms          rms(c)
DAV:   1    -0.232322910247E+04    0.31049E-02   -0.64829E-01  4536   0.793E-01    0.248E-01
RMM:   2    -0.232323553639E+04   -0.64339E-02   -0.64418E-02  6281   0.162E-01    0.237E-01
RMM:   3    -0.232323604969E+04   -0.51330E-03   -0.61862E-03  6003   0.572E-02    0.271E-01
RMM:   4    -0.232323530757E+04    0.74213E-03   -0.80271E-04  5252   0.170E-02    0.983E-02
RMM:   5    -0.232323536314E+04   -0.55569E-04   -0.28896E-04  3373   0.984E-03    0.130E-01
RMM:   6    -0.232323529004E+04    0.73098E-04   -0.24436E-04  4179   0.102E-02    0.862E-02
RMM:   7    -0.232323521650E+04    0.73542E-04   -0.13199E-04  3091   0.805E-03    0.261E-02
RMM:   8    -0.232323521128E+04    0.52200E-05   -0.17129E-05  2952   0.465E-03
  74 F= -.23445895E+04 E0= -.23445895E+04  d E =-.265356E-02  mag=     0.0000
       N       E                     dE             d eps       ncg     rms          rms(c)
DAV:   1    -0.232322806390E+04    0.71526E-02   -0.91509E-01  4504   0.944E-01    0.294E-01
RMM:   2    -0.232323713109E+04   -0.90672E-02   -0.90949E-02  6294   0.193E-01    0.279E-01
RMM:   3    -0.232323787986E+04   -0.74877E-03   -0.87307E-03  6044   0.676E-02    0.323E-01
RMM:   4    -0.232323683528E+04    0.10446E-02   -0.11376E-03  5555   0.201E-02    0.120E-01
RMM:   5    -0.232323690084E+04   -0.65562E-04   -0.40955E-04  3711   0.115E-02    0.152E-01
RMM:   6    -0.232323680157E+04    0.99279E-04   -0.34910E-04  4594   0.117E-02    0.103E-01
RMM:   7    -0.232323669463E+04    0.10693E-03   -0.18539E-04  3370   0.923E-03    0.305E-02
RMM:   8    -0.232323668563E+04    0.90024E-05   -0.22741E-05  2979   0.493E-03
  75 F= -.23445906E+04 E0= -.23445906E+04  d E =-.370809E-02  mag=     0.0000
       N       E                     dE             d eps       ncg     rms          rms(c)
DAV:   1    -0.232323268990E+04    0.40047E-02   -0.80279E-01  4528   0.876E-01    0.293E-01
RMM:   2    -0.232324174831E+04   -0.90584E-02   -0.79609E-02  6335   0.187E-01    0.439E-01
RMM:   3    -0.232324068951E+04    0.10588E-02   -0.76006E-03  6073   0.643E-02    0.271E-01
RMM:   4    -0.232324009926E+04    0.59025E-03   -0.10083E-03  5315   0.187E-02    0.153E-01
RMM:   5    -0.232323996367E+04    0.13559E-03   -0.32902E-04  3640   0.112E-02    0.103E-01
RMM:   6    -0.232323986333E+04    0.10034E-03   -0.22389E-04  4265   0.110E-02    0.270E-02
RMM:   7    -0.232323986540E+04   -0.20740E-05   -0.51366E-05  3132   0.795E-03
  76 F= -.23445933E+04 E0= -.23445933E+04  d E =-.267404E-02  mag=     0.0000
       N       E                     dE             d eps       ncg     rms          rms(c)
DAV:   1    -0.232323531168E+04    0.45517E-02   -0.58349E-01  4548   0.748E-01    0.249E-01
RMM:   2    -0.232324181445E+04   -0.65028E-02   -0.57903E-02  6403   0.160E-01    0.362E-01
RMM:   3    -0.232324118093E+04    0.63352E-03   -0.55102E-03  6016   0.558E-02    0.237E-01
RMM:   4    -0.232324071999E+04    0.46094E-03   -0.72658E-04  5050   0.162E-02    0.127E-01
RMM:   5    -0.232324063710E+04    0.82881E-04   -0.24462E-04  3346   0.978E-03    0.909E-02
RMM:   6    -0.232324055928E+04    0.77822E-04   -0.16606E-04  4153   0.973E-03    0.251E-02
RMM:   7    -0.232324056369E+04   -0.44111E-05   -0.49858E-05  3119   0.713E-03
  77 F= -.23445935E+04 E0= -.23445935E+04  d E =-.294206E-02  mag=     0.0000
       N       E                     dE             d eps       ncg     rms          rms(c)
DAV:   1    -0.232323765377E+04    0.29055E-02   -0.54022E-01  4516   0.729E-01    0.224E-01
RMM:   2    -0.232324358526E+04   -0.59315E-02   -0.53560E-02  6471   0.154E-01    0.324E-01
RMM:   3    -0.232324312153E+04    0.46373E-03   -0.50214E-03  5947   0.527E-02    0.205E-01
RMM:   4    -0.232324280096E+04    0.32057E-03   -0.60735E-04  4664   0.147E-02    0.117E-01
RMM:   5    -0.232324273250E+04    0.68462E-04   -0.19515E-04  3184   0.877E-03    0.807E-02
RMM:   6    -0.232324269452E+04    0.37983E-04   -0.15307E-04  4042   0.919E-03    0.378E-02
RMM:   7    -0.232324269392E+04    0.59744E-06   -0.64858E-05  2985   0.687E-03
  78 F= -.23445954E+04 E0= -.23445953E+04  d E =-.181696E-02  mag=     0.0000
       N       E                     dE             d eps       ncg     rms          rms(c)
DAV:   1    -0.232323073572E+04    0.11959E-01   -0.14469E+00  4504   0.120E+00    0.364E-01
RMM:   2    -0.232324662847E+04   -0.15893E-01   -0.14360E-01  6466   0.252E-01    0.527E-01
RMM:   3    -0.232324536625E+04    0.12622E-02   -0.13427E-02  6211   0.857E-02    0.332E-01
RMM:   4    -0.232324452262E+04    0.84363E-03   -0.16384E-03  5583   0.236E-02    0.188E-01
RMM:   5    -0.232324435082E+04    0.17180E-03   -0.51791E-04  4130   0.133E-02    0.134E-01
RMM:   6    -0.232324424522E+04    0.10560E-03   -0.40192E-04  4593   0.135E-02    0.660E-02
RMM:   7    -0.232324422872E+04    0.16506E-04   -0.17467E-04  3318   0.107E-02    0.486E-02
RMM:   8    -0.232324419713E+04    0.31589E-04   -0.38675E-05  3076   0.515E-03    0.995E-03
RMM:   9    -0.232324419567E+04    0.14561E-05   -0.78564E-06  2928   0.301E-03
  79 F= -.23445963E+04 E0= -.23445963E+04  d E =-.280924E-02  mag=     0.0000
       N       E                     dE             d eps       ncg     rms          rms(c)
DAV:   1    -0.232324323213E+04    0.96500E-03   -0.56239E-01  4560   0.756E-01    0.243E-01
RMM:   2    -0.232324737015E+04   -0.41380E-02   -0.42393E-02  6186   0.150E-01    0.194E-01
RMM:   3    -0.232324794280E+04   -0.57265E-03   -0.41957E-03  5926   0.553E-02    0.269E-01
RMM:   4    -0.232324713084E+04    0.81196E-03   -0.62591E-04  5446   0.169E-02    0.660E-02
RMM:   5    -0.232324716923E+04   -0.38392E-04   -0.29934E-04  4442   0.116E-02    0.814E-02
RMM:   6    -0.232324708251E+04    0.86725E-04   -0.15592E-04  3840   0.881E-03    0.248E-02
RMM:   7    -0.232324708123E+04    0.12805E-05   -0.24273E-05  2967   0.550E-03
  80 F= -.23445991E+04 E0= -.23445991E+04  d E =-.279336E-02  mag=     0.0000
       N       E                     dE             d eps       ncg     rms          rms(c)
DAV:   1    -0.232324583224E+04    0.12503E-02   -0.26303E-01  4608   0.518E-01    0.168E-01
RMM:   2    -0.232324780011E+04   -0.19679E-02   -0.19965E-02  6163   0.103E-01    0.142E-01
RMM:   3    -0.232324808912E+04   -0.28901E-03   -0.20512E-03  5620   0.387E-02    0.198E-01
RMM:   4    -0.232324769460E+04    0.39452E-03   -0.30655E-04  4382   0.119E-02    0.654E-02
RMM:   5    -0.232324771252E+04   -0.17912E-04   -0.12121E-04  3059   0.770E-03    0.803E-02
RMM:   6    -0.232324766485E+04    0.47663E-04   -0.10545E-04  3577   0.781E-03    0.377E-02
RMM:   7    -0.232324765099E+04    0.13859E-04   -0.40040E-05  2922   0.606E-03    0.196E-02
RMM:   8    -0.232324764596E+04    0.50335E-05   -0.77807E-06  2874   0.313E-03
  81 F= -.23445996E+04 E0= -.23445996E+04  d E =-.329586E-02  mag=     0.0000
       N       E                     dE             d eps       ncg     rms          rms(c)
DAV:   1    -0.232324620361E+04    0.14474E-02   -0.54573E-01  4504   0.737E-01    0.223E-01
RMM:   2    -0.232325018940E+04   -0.39858E-02   -0.40797E-02  6198   0.144E-01    0.198E-01
RMM:   3    -0.232325068457E+04   -0.49517E-03   -0.40508E-03  5857   0.511E-02    0.273E-01
RMM:   4    -0.232324994123E+04    0.74333E-03   -0.56121E-04  4951   0.153E-02    0.857E-02
[...]
RMM:   3    -0.232326524680E+04   -0.30858E-05   -0.18607E-04  3035   0.114E-02    0.516E-02
RMM:   4    -0.232326522159E+04    0.25214E-04   -0.26578E-05  2922   0.479E-03    0.231E-02
RMM:   5    -0.232326522047E+04    0.11200E-05   -0.12481E-05  2895   0.277E-03
 142 F= -.23446159E+04 E0= -.23446159E+04  d E =-.746976E-04  mag=     0.0000
       N       E                     dE             d eps       ncg     rms          rms(c)
DAV:   1    -0.232326521638E+04    0.52106E-05   -0.49111E-05  4568   0.799E-03    0.670E-03
RMM:   2    -0.232326521930E+04   -0.29248E-05   -0.11448E-05  2553   0.334E-03
 143 F= -.23446159E+04 E0= -.23446159E+04  d E =-.717737E-04  mag=     0.0000
       N       E                     dE             d eps       ncg     rms          rms(c)
DAV:   1    -0.232326517270E+04    0.43677E-04   -0.14077E-02  4516   0.119E-01    0.408E-02
RMM:   2    -0.232326527564E+04   -0.10294E-03   -0.11204E-03  6044   0.244E-02    0.252E-02
RMM:   3    -0.232326529446E+04   -0.18819E-04   -0.12793E-04  2954   0.102E-02    0.411E-02
RMM:   4    -0.232326527530E+04    0.19161E-04   -0.17742E-05  2912   0.390E-03    0.122E-02
RMM:   5    -0.232326527818E+04   -0.28802E-05   -0.89692E-06  2895   0.249E-03
 144 F= -.23446159E+04 E0= -.23446159E+04  d E =-.581379E-04  mag=     0.0000
       N       E                     dE             d eps       ncg     rms          rms(c)
DAV:   1    -0.232326527169E+04    0.36092E-05   -0.23951E-04  5112   0.159E-02    0.713E-03
RMM:   2    -0.232326527581E+04   -0.41273E-05   -0.22262E-05  2659   0.388E-03
 145 F= -.23446159E+04 E0= -.23446159E+04  d E =-.556766E-04  mag=     0.0000
       N       E                     dE             d eps       ncg     rms          rms(c)
DAV:   1    -0.232326523564E+04    0.36044E-04   -0.10991E-02  4516   0.106E-01    0.366E-02
RMM:   2    -0.232326532455E+04   -0.88902E-04   -0.96846E-04  6106   0.232E-02    0.230E-02
RMM:   3    -0.232326533745E+04   -0.12910E-04   -0.97965E-05  2935   0.897E-03    0.355E-02
RMM:   4    -0.232326532425E+04    0.13200E-04   -0.15907E-05  2916   0.358E-03    0.150E-02
RMM:   5    -0.232326532586E+04   -0.16017E-05   -0.77935E-06  2889   0.221E-03
 146 F= -.23446160E+04 E0= -.23446160E+04  d E =-.510211E-04  mag=     0.0000
       N       E                     dE             d eps       ncg     rms          rms(c)
DAV:   1    -0.232326532166E+04    0.25927E-05   -0.76184E-05  5288   0.914E-03    0.101E-02
RMM:   2    -0.232326533397E+04   -0.12304E-04   -0.19672E-05  2608   0.299E-03    0.346E-02
RMM:   3    -0.232326532176E+04    0.12211E-04   -0.69960E-06  2352   0.248E-03    0.596E-03
RMM:   4    -0.232326532133E+04    0.42339E-06   -0.79829E-07  1012   0.743E-04
 147 F= -.23446160E+04 E0= -.23446160E+04  d E =-.465756E-04  mag=     0.0000
       N       E                     dE             d eps       ncg     rms          rms(c)
DAV:   1    -0.232326526994E+04    0.51812E-04   -0.89080E-03  4516   0.959E-02    0.316E-02
RMM:   2    -0.232326536934E+04   -0.99394E-04   -0.10148E-03  6139   0.215E-02    0.290E-02
RMM:   3    -0.232326537741E+04   -0.80772E-05   -0.98848E-05  2913   0.791E-03
 148 F= -.23446160E+04 E0= -.23446160E+04  d E =-.551521E-04  mag=     0.0000
       N       E                     dE             d eps       ncg     rms          rms(c)
DAV:   1    -0.232326536466E+04    0.46748E-05   -0.18551E-04  5408   0.138E-02    0.154E-02
RMM:   2    -0.232326538807E+04   -0.23406E-04   -0.41664E-05  2895   0.410E-03    0.481E-02
RMM:   3    -0.232326536485E+04    0.23218E-04   -0.14428E-05  2496   0.330E-03    0.968E-03
RMM:   4    -0.232326536462E+04    0.23039E-06   -0.35845E-06  1823   0.126E-03
 149 F= -.23446160E+04 E0= -.23446160E+04  d E =-.422465E-04  mag=     0.0000
       N       E                     dE             d eps       ncg     rms          rms(c)
DAV:   1    -0.232326529936E+04    0.65495E-04   -0.76210E-03  4516   0.904E-02    0.299E-02
RMM:   2    -0.232326539360E+04   -0.94241E-04   -0.92515E-04  6142   0.205E-02    0.331E-02
RMM:   3    -0.232326539635E+04   -0.27533E-05   -0.95883E-05  2912   0.774E-03
 150 F= -.23446161E+04 E0= -.23446161E+04  d E =-.463313E-04  mag=     0.0000
       N       E                     dE             d eps       ncg     rms          rms(c)
DAV:   1    -0.232326538353E+04    0.10068E-04   -0.29924E-04  5328   0.178E-02    0.169E-02
RMM:   2    -0.232326541392E+04   -0.30389E-04   -0.69120E-05  3075   0.513E-03    0.513E-02
RMM:   3    -0.232326538506E+04    0.28862E-04   -0.20723E-05  2534   0.388E-03    0.127E-02
RMM:   4    -0.232326538376E+04    0.12927E-05   -0.42302E-06  1833   0.136E-03
 151 F= -.23446161E+04 E0= -.23446161E+04  d E =-.364093E-04  mag=     0.0000
       N       E                     dE             d eps       ncg     rms          rms(c)
DAV:   1    -0.232326533486E+04    0.50193E-04   -0.52483E-03  4516   0.754E-02    0.253E-02
RMM:   2    -0.232326538593E+04   -0.51069E-04   -0.53908E-04  6011   0.164E-02    0.193E-02
RMM:   3    -0.232326539158E+04   -0.56491E-05   -0.56205E-05  2901   0.663E-03
 152 F= -.23446161E+04 E0= -.23446161E+04  d E =-.367209E-04  mag=     0.0000
       N       E                     dE             d eps       ncg     rms          rms(c)
DAV:   1    -0.232326538389E+04    0.20419E-05   -0.55927E-05  4344   0.721E-03    0.133E-02
RMM:   2    -0.232326540610E+04   -0.22211E-04   -0.26887E-05  2719   0.401E-03    0.478E-02
RMM:   3    -0.232326538283E+04    0.23270E-04   -0.99602E-06  2255   0.246E-03    0.731E-03
RMM:   4    -0.232326538245E+04    0.38100E-06   -0.18688E-06  1739   0.114E-03
 153 F= -.23446161E+04 E0= -.23446161E+04  d E =-.293702E-04  mag=     0.0000
       N       E                     dE             d eps       ncg     rms          rms(c)
DAV:   1    -0.232326537931E+04    0.35244E-05   -0.33082E-03  4516   0.585E-02    0.193E-02
RMM:   2    -0.232326540546E+04   -0.26150E-04   -0.29215E-04  4999   0.124E-02    0.106E-02
RMM:   3    -0.232326540723E+04   -0.17772E-05   -0.30416E-05  2875   0.605E-03
 154 F= -.23446161E+04 E0= -.23446161E+04  d E =-.211481E-04  mag=     0.0000
       N       E                     dE             d eps       ncg     rms          rms(c)
DAV:   1    -0.232326540673E+04   -0.12717E-05   -0.28291E-05  4208   0.562E-03    0.108E-02
RMM:   2    -0.232326542241E+04   -0.15677E-04   -0.17453E-05  2531   0.340E-03    0.412E-02
RMM:   3    -0.232326540604E+04    0.16368E-04   -0.65915E-06  2083   0.200E-03    0.373E-03
RMM:   4    -0.232326540614E+04   -0.96828E-07   -0.10558E-06  1635   0.959E-04
 155 F= -.23446161E+04 E0= -.23446161E+04  d E =-.197767E-04  mag=     0.0000
       N       E                     dE             d eps       ncg     rms          rms(c)
DAV:   1    -0.232326541180E+04   -0.57652E-05   -0.32843E-03  4500   0.569E-02    0.186E-02
RMM:   2    -0.232326543641E+04   -0.24610E-04   -0.27583E-04  4359   0.117E-02    0.100E-02
RMM:   3    -0.232326543965E+04   -0.32404E-05   -0.33663E-05  2816   0.643E-03
 156 F= -.23446161E+04 E0= -.23446161E+04  d E =-.230220E-04  mag=     0.0000
       N       E                     dE             d eps       ncg     rms          rms(c)
DAV:   1    -0.232326543930E+04   -0.28816E-05   -0.34726E-04  4736   0.187E-02    0.963E-03
RMM:   2    -0.232326544494E+04   -0.56419E-05   -0.34469E-05  2850   0.432E-03
 157 F= -.23446161E+04 E0= -.23446161E+04  d E =-.249161E-04  mag=     0.0000
       N       E                     dE             d eps       ncg     rms          rms(c)
DAV:   1    -0.232326544467E+04   -0.53710E-05   -0.27813E-03  4484   0.524E-02    0.168E-02
RMM:   2    -0.232326546711E+04   -0.22446E-04   -0.24186E-04  3891   0.115E-02    0.127E-02
RMM:   3    -0.232326547165E+04   -0.45385E-05   -0.30945E-05  2843   0.634E-03
 158 F= -.23446162E+04 E0= -.23446162E+04  d E =-.225398E-04  mag=     0.0000
       N       E                     dE             d eps       ncg     rms          rms(c)
DAV:   1    -0.232326546442E+04    0.26889E-05   -0.16050E-03  4448   0.396E-02    0.153E-02
RMM:   2    -0.232326548320E+04   -0.18772E-04   -0.14037E-04  3393   0.846E-03    0.274E-02
RMM:   3    -0.232326547818E+04    0.50186E-05   -0.20273E-05  2845   0.510E-03
 159 F= -.23446162E+04 E0= -.23446162E+04  d E =-.259023E-04  mag=     0.0000
       N       E                     dE             d eps       ncg     rms          rms(c)
DAV:   1    -0.232326547204E+04    0.11154E-04   -0.28878E-03  4492   0.549E-02    0.192E-02
RMM:   2    -0.232326549569E+04   -0.23643E-04   -0.22302E-04  4418   0.114E-02    0.209E-02
RMM:   3    -0.232326549636E+04   -0.67669E-06   -0.26490E-05  2876   0.601E-03
 160 F= -.23446162E+04 E0= -.23446162E+04  d E =-.261241E-04  mag=     0.0000
       N       E                     dE             d eps       ncg     rms          rms(c)
DAV:   1    -0.232326548274E+04    0.12946E-04   -0.10836E-03  4672   0.338E-02    0.141E-02
RMM:   2    -0.232326549448E+04   -0.11736E-04   -0.89096E-05  3262   0.746E-03    0.220E-02
RMM:   3    -0.232326549087E+04    0.36056E-05   -0.12491E-05  2711   0.438E-03
 161 F= -.23446162E+04 E0= -.23446162E+04  d E =-.255131E-04  mag=     0.0000
       N       E                     dE             d eps       ncg     rms          rms(c)
DAV:   1    -0.232326546681E+04    0.27664E-04   -0.27117E-03  4468   0.524E-02    0.196E-02
RMM:   2    -0.232326550155E+04   -0.34742E-04   -0.25284E-04  4671   0.115E-02    0.341E-02
RMM:   3    -0.232326549124E+04    0.10312E-04   -0.33058E-05  2877   0.578E-03    0.151E-02
RMM:   4    -0.232326549044E+04    0.80584E-06   -0.52869E-06  2678   0.215E-03
 162 F= -.23446162E+04 E0= -.23446162E+04  d E =-.170877E-04  mag=     0.0000
       N       E                     dE             d eps       ncg     rms          rms(c)
DAV:   1    -0.232326547774E+04    0.13499E-04   -0.50142E-04  4656   0.227E-02    0.993E-03
RMM:   2    -0.232326548435E+04   -0.66054E-05   -0.46968E-05  3052   0.523E-03
 163 F= -.23446162E+04 E0= -.23446162E+04  d E =-.185504E-04  mag=     0.0000
       N       E                     dE             d eps       ncg     rms          rms(c)
DAV:   1    -0.232326546638E+04    0.11360E-04   -0.27510E-03  4468   0.530E-02    0.180E-02
RMM:   2    -0.232326549559E+04   -0.29208E-04   -0.29939E-04  4840   0.130E-02    0.143E-02
RMM:   3    -0.232326549981E+04   -0.42154E-05   -0.37204E-05  2814   0.612E-03
 164 F= -.23446162E+04 E0= -.23446162E+04  d E =-.251851E-04  mag=     0.0000
       N       E                     dE             d eps       ncg     rms          rms(c)
DAV:   1    -0.232326548566E+04    0.99353E-05   -0.86681E-04  4456   0.299E-02    0.130E-02
RMM:   2    -0.232326550341E+04   -0.17751E-04   -0.10621E-04  3579   0.742E-03    0.307E-02
RMM:   3    -0.232326549472E+04    0.86894E-05   -0.14147E-05  2643   0.439E-03
 165 F= -.23446162E+04 E0= -.23446162E+04  d E =-.256012E-04  mag=     0.0000
       N       E                     dE             d eps       ncg     rms          rms(c)
DAV:   1    -0.232326550314E+04    0.26148E-06   -0.15388E-03  4464   0.402E-02    0.164E-02
RMM:   2    -0.232326552290E+04   -0.19754E-04   -0.13647E-04  3880   0.912E-03    0.277E-02
RMM:   3    -0.232326551560E+04    0.73017E-05   -0.18168E-05  2734   0.536E-03
 166 F= -.23446163E+04 E0= -.23446163E+04  d E =-.194033E-04  mag=     0.0000
       N       E                     dE             d eps       ncg     rms          rms(c)
DAV:   1    -0.232326551537E+04    0.75303E-05   -0.25323E-04  5032   0.164E-02    0.103E-02
RMM:   2    -0.232326552261E+04   -0.72426E-05   -0.28051E-05  2695   0.418E-03
 167 F= -.23446163E+04 E0= -.23446163E+04  d E =-.258089E-04  mag=     0.0000
       N       E                     dE             d eps       ncg     rms          rms(c)
DAV:   1    -0.232326550769E+04    0.76814E-05   -0.11957E-03  4420   0.355E-02    0.139E-02
RMM:   2    -0.232326551971E+04   -0.12022E-04   -0.11271E-04  3553   0.862E-03    0.152E-02
RMM:   3    -0.232326552085E+04   -0.11400E-05   -0.16443E-05  2630   0.512E-03
 168 F= -.23446163E+04 E0= -.23446163E+04  d E =-.666083E-05  mag=     0.0000
       N       E                     dE             d eps       ncg     rms          rms(c)
DAV:   1    -0.232326551674E+04    0.29672E-05   -0.45961E-05  4520   0.716E-03    0.745E-03
RMM:   2    -0.232326552113E+04   -0.43913E-05   -0.11312E-05  2452   0.314E-03
 169 F= -.23446163E+04 E0= -.23446163E+04  d E =-.847813E-05  mag=     0.0000
       N       E                     dE             d eps       ncg     rms          rms(c)
DAV:   1    -0.232326551828E+04   -0.15371E-05   -0.57501E-04  4224   0.240E-02    0.941E-03
RMM:   2    -0.232326552455E+04   -0.62740E-05   -0.54549E-05  2673   0.571E-03
 170 F= -.23446163E+04 E0= -.23446163E+04  d E =-.475513E-05  mag=     0.0000
       N       E                     dE             d eps       ncg     rms          rms(c)
DAV:   1    -0.232326552250E+04   -0.42258E-05   -0.24215E-04  4720   0.159E-02    0.106E-02
RMM:   2    -0.232326553775E+04   -0.15245E-04   -0.37582E-05  2757   0.487E-03    0.378E-02
RMM:   3    -0.232326552438E+04    0.13365E-04   -0.79362E-06  2377   0.322E-03    0.436E-03
RMM:   4    -0.232326552430E+04    0.82568E-07   -0.11086E-06  1914   0.110E-03
 171 F= -.23446163E+04 E0= -.23446163E+04  d E =-.534649E-05  mag=     0.0000
       N       E                     dE             d eps       ncg     rms          rms(c)
DAV:   1    -0.232326551330E+04    0.11087E-04   -0.89555E-04  4400   0.295E-02    0.112E-02
RMM:   2    -0.232326552328E+04   -0.99820E-05   -0.83105E-05  3138   0.639E-03
 172 F= -.23446163E+04 E0= -.23446163E+04  d E =-.600886E-05  mag=     0.0000
       N       E                     dE             d eps       ncg     rms          rms(c)
DAV:   1    -0.232326552046E+04   -0.71624E-05   -0.50685E-04  4224   0.226E-02    0.104E-02
RMM:   2    -0.232326553160E+04   -0.11136E-04   -0.52282E-05  2608   0.570E-03    0.251E-02
RMM:   3    -0.232326552431E+04    0.72903E-05   -0.85082E-06  2358   0.366E-03
 173 F= -.23446163E+04 E0= -.23446163E+04  d E =-.579540E-05  mag=     0.0000
       N       E                     dE             d eps       ncg     rms          rms(c)
DAV:   1    -0.232326553377E+04   -0.21713E-05   -0.69426E-04  4256   0.262E-02    0.868E-03
RMM:   2    -0.232326553928E+04   -0.55119E-05   -0.60110E-05  2695   0.566E-03
 174 F= -.23446163E+04 E0= -.23446163E+04  d E =-.104492E-04  mag=     0.0000
       N       E                     dE             d eps       ncg     rms          rms(c)
DAV:   1    -0.232326554405E+04   -0.10286E-04   -0.13022E-04  5024   0.118E-02    0.137E-02
RMM:   2    -0.232326557630E+04   -0.32243E-04   -0.45416E-05  2797   0.429E-03    0.569E-02
RMM:   3    -0.232326554399E+04    0.32309E-04   -0.13255E-05  2405   0.337E-03    0.416E-03
RMM:   4    -0.232326554396E+04    0.27925E-07   -0.14672E-06  1494   0.101E-03
 175 F= -.23446163E+04 E0= -.23446163E+04  d E =-.133082E-04  mag=     0.0000
       N       E                     dE             d eps       ncg     rms          rms(c)
DAV:   1    -0.232326554460E+04   -0.61702E-06   -0.44797E-04  4224   0.211E-02    0.793E-03
RMM:   2    -0.232326554931E+04   -0.47038E-05   -0.40152E-05  2564   0.461E-03
 176 F= -.23446163E+04 E0= -.23446163E+04  d E =-.150205E-04  mag=     0.0000
       N       E                     dE             d eps       ncg     rms          rms(c)
DAV:   1    -0.232326555963E+04   -0.15028E-04   -0.87440E-04  4376   0.294E-02    0.133E-02
RMM:   2    -0.232326557854E+04   -0.18910E-04   -0.93470E-05  3138   0.737E-03    0.346E-02
RMM:   3    -0.232326556748E+04    0.11068E-04   -0.13834E-05  2513   0.444E-03    0.881E-03
RMM:   4    -0.232326556681E+04    0.66374E-06   -0.17530E-06  2267   0.154E-03
 177 F= -.23446163E+04 E0= -.23446163E+04  d E =-.112201E-04  mag=     0.0000
       N       E                     dE             d eps       ncg     rms          rms(c)
DAV:   1    -0.232326556430E+04    0.31769E-05   -0.19700E-03  4452   0.441E-02    0.161E-02
RMM:   2    -0.232326558412E+04   -0.19825E-04   -0.17366E-04  3786   0.966E-03    0.212E-02
RMM:   3    -0.232326558243E+04    0.16974E-05   -0.24948E-05  2843   0.577E-03
 178 F= -.23446163E+04 E0= -.23446163E+04  d E =-.172791E-04  mag=     0.0000
       N       E                     dE             d eps       ncg     rms          rms(c)
DAV:   1    -0.232326558622E+04   -0.20924E-05   -0.10624E-03  4384   0.313E-02    0.124E-02
RMM:   2    -0.232326559931E+04   -0.13094E-04   -0.99574E-05  3211   0.740E-03    0.214E-02
RMM:   3    -0.232326559600E+04    0.33118E-05   -0.13623E-05  2567   0.451E-03
 179 F= -.23446163E+04 E0= -.23446163E+04  d E =-.974235E-05  mag=     0.0000
       N       E                     dE             d eps       ncg     rms          rms(c)
DAV:   1    -0.232326559735E+04    0.19549E-05   -0.43600E-04  4560   0.200E-02    0.110E-02
RMM:   2    -0.232326560898E+04   -0.11628E-04   -0.48364E-05  2928   0.499E-03    0.280E-02
RMM:   3    -0.232326560098E+04    0.80025E-05   -0.90165E-06  2381   0.333E-03
 180 F= -.23446163E+04 E0= -.23446163E+04  d E =-.122735E-04  mag=     0.0000
       N       E                     dE             d eps       ncg     rms          rms(c)
DAV:   1    -0.232326560334E+04    0.56468E-05   -0.73969E-04  4432   0.276E-02    0.122E-02
RMM:   2    -0.232326561191E+04   -0.85752E-05   -0.58316E-05  3065   0.633E-03
 181 F= -.23446163E+04 E0= -.23446163E+04  d E =-.195591E-04  mag=     0.0000
       N       E                     dE             d eps       ncg     rms          rms(c)
DAV:   1    -0.232326560407E+04   -0.73377E-06   -0.23813E-04  5208   0.163E-02    0.121E-02
RMM:   2    -0.232326562024E+04   -0.16168E-04   -0.33984E-05  2800   0.497E-03    0.403E-02
RMM:   3    -0.232326560492E+04    0.15321E-04   -0.88097E-06  2352   0.348E-03    0.513E-03
RMM:   4    -0.232326560504E+04   -0.12782E-06   -0.19767E-06  2173   0.127E-03
 182 F= -.23446163E+04 E0= -.23446163E+04  d E =-.173386E-04  mag=     0.0000
       N       E                     dE             d eps       ncg     rms          rms(c)
DAV:   1    -0.232326559953E+04    0.53865E-05   -0.61432E-04  4344   0.241E-02    0.970E-03
RMM:   2    -0.232326560705E+04   -0.75169E-05   -0.55150E-05  3048   0.584E-03
 183 F= -.23446164E+04 E0= -.23446164E+04  d E =-.867068E-05  mag=     0.0000
       N       E                     dE             d eps       ncg     rms          rms(c)
DAV:   1    -0.232326560501E+04   -0.54828E-05   -0.21478E-05  2952   0.544E-03    0.731E-03
RMM:   2    -0.232326561116E+04   -0.61520E-05   -0.88064E-06  2275   0.258E-03
 184 F= -.23446164E+04 E0= -.23446164E+04  d E =-.123158E-04  mag=     0.0000
       N       E                     dE             d eps       ncg     rms          rms(c)
DAV:   1    -0.232326561201E+04   -0.69947E-05   -0.59895E-04  4344   0.247E-02    0.912E-03
RMM:   2    -0.232326561570E+04   -0.36969E-05   -0.40834E-05  2739   0.558E-03
 185 F= -.23446164E+04 E0= -.23446164E+04  d E =0.168532E-05  mag=     0.0000
       N       E                     dE             d eps       ncg     rms          rms(c)
DAV:   1    -0.232326561643E+04   -0.44272E-05   -0.13861E-05  2744   0.501E-03    0.115E-02
RMM:   2    -0.232326563932E+04   -0.22886E-04   -0.24262E-05  2528   0.327E-03    0.480E-02
RMM:   3    -0.232326561545E+04    0.23867E-04   -0.82302E-06  2082   0.250E-03    0.387E-03
RMM:   4    -0.232326561519E+04    0.26390E-06   -0.67215E-07  1170   0.791E-04
 186 F= -.23446164E+04 E0= -.23446164E+04  d E =0.189147E-05  mag=     0.0000
       N       E                     dE             d eps       ncg     rms          rms(c)
DAV:   1    -0.232326562266E+04   -0.72026E-05   -0.53362E-04  4256   0.232E-02    0.805E-03
RMM:   2    -0.232326562609E+04   -0.34365E-05   -0.36732E-05  2635   0.488E-03
 187 F= -.23446164E+04 E0= -.23446164E+04  d E =-.583766E-05  mag=     0.0000
