       N       E                     dE             d eps       ncg     rms          rms(c)
DAV:   1     0.124297948189E+05    0.12430E+05   -0.84052E+05  4640   0.142E+03
DAV:   2    -0.125168515905E+04   -0.13681E+05   -0.13145E+05  4960   0.322E+02
DAV:   3    -0.249373091840E+04   -0.12420E+04   -0.12311E+04  5440   0.105E+02
DAV:   4    -0.252205658499E+04   -0.28326E+02   -0.28133E+02  5680   0.196E+01
DAV:   5    -0.252289233220E+04   -0.83575E+00   -0.83414E+00  5760   0.283E+00    0.170E+02
RMM:   6    -0.149225814649E+04    0.10306E+04   -0.19161E+03  4505   0.377E+01    0.731E+01
RMM:   7    -0.167760013101E+04   -0.18534E+03   -0.32059E+02  5175   0.149E+01    0.574E+01
RMM:   8    -0.169742470351E+04   -0.19825E+02   -0.74352E+01  5254   0.788E+00    0.444E+01
RMM:   9    -0.178017459831E+04   -0.82750E+02   -0.58301E+01  4957   0.746E+00    0.355E+01
RMM:  10    -0.191259223196E+04   -0.13242E+03   -0.56636E+01  5268   0.708E+00    0.224E+01
RMM:  11    -0.200038349291E+04   -0.87791E+02   -0.36305E+01  5246   0.480E+00    0.231E+01
RMM:  12    -0.206343831302E+04   -0.63055E+02   -0.24934E+01  5055   0.388E+00    0.152E+01
RMM:  13    -0.217334163242E+04   -0.10990E+03   -0.65048E+01  4573   0.619E+00    0.100E+01
RMM:  14    -0.227407363542E+04   -0.10073E+03   -0.90518E+01  4597   0.655E+00    0.724E+00
RMM:  15    -0.230104422467E+04   -0.26971E+02   -0.24717E+01  4870   0.409E+00    0.436E+00
RMM:  16    -0.231258203531E+04   -0.11538E+02   -0.11921E+01  4676   0.229E+00    0.263E+00
RMM:  17    -0.231633254989E+04   -0.37505E+01   -0.31879E+00  4789   0.157E+00    0.136E+00
RMM:  18    -0.231776753450E+04   -0.14350E+01   -0.12044E+00  5058   0.633E-01    0.842E-01
RMM:  19    -0.231825359363E+04   -0.48606E+00   -0.36386E-01  4774   0.424E-01    0.542E-01
RMM:  20    -0.231834952721E+04   -0.95934E-01   -0.81331E-02  4894   0.198E-01    0.245E-01
RMM:  21    -0.231839303855E+04   -0.43511E-01   -0.24127E-02  4625   0.112E-01    0.176E-01
RMM:  22    -0.231841517246E+04   -0.22134E-01   -0.10098E-02  4595   0.787E-02    0.101E-01
RMM:  23    -0.231842750837E+04   -0.12336E-01   -0.44684E-03  4594   0.561E-02    0.566E-02
RMM:  24    -0.231843582505E+04   -0.83167E-02   -0.29826E-03  4537   0.438E-02    0.357E-02
RMM:  25    -0.231843962674E+04   -0.38017E-02   -0.14340E-03  4638   0.324E-02    0.214E-02
RMM:  26    -0.231844118041E+04   -0.15537E-02   -0.59946E-04  4224   0.196E-02    0.157E-02
RMM:  27    -0.231844178868E+04   -0.60827E-03   -0.21601E-04  3936   0.136E-02    0.791E-03
RMM:  28    -0.231844197931E+04   -0.19064E-03   -0.68006E-05  3670   0.817E-03    0.590E-03
RMM:  29    -0.231844209622E+04   -0.11691E-03   -0.31259E-05  3345   0.554E-03    0.358E-03
RMM:  30    -0.231844215273E+04   -0.56504E-04   -0.17564E-05  3095   0.436E-03    0.243E-03
RMM:  31    -0.231844217370E+04   -0.20972E-04   -0.92262E-06  2930   0.336E-03    0.111E-03
RMM:  32    -0.231844217842E+04   -0.47232E-05   -0.39261E-06  2512   0.235E-03
   1 F= -.23393281E+04 E0= -.23393281E+04  d E =-.218330E-12  mag=     6.9999
       N       E                     dE             d eps       ncg     rms          rms(c)
DAV:   1    -0.231842873528E+04    0.13438E-01   -0.18762E+00  4480   0.571E-01    0.318E-01
RMM:   2    -0.231842918696E+04   -0.45167E-03   -0.83734E-03  3899   0.348E-02    0.243E-01
RMM:   3    -0.231842939556E+04   -0.20860E-03   -0.22227E-03  4763   0.183E-02    0.301E-01
RMM:   4    -0.231842873290E+04    0.66266E-03   -0.73101E-04  3807   0.118E-02    0.695E-02
RMM:   5    -0.231842873169E+04    0.12046E-05   -0.16488E-04  3102   0.667E-03    0.343E-02
RMM:   6    -0.231842872658E+04    0.51063E-05   -0.35830E-05  2762   0.352E-03
   2 F= -.23393147E+04 E0= -.23393147E+04  d E =-.112552E-12  mag=     7.0000
       N       E                     dE             d eps       ncg     rms          rms(c)
DAV:   1    -0.231843497499E+04   -0.62433E-02   -0.74423E+00  4480   0.111E+00    0.621E-01
RMM:   2    -0.231843622294E+04   -0.12480E-02   -0.27868E-02  4083   0.692E-02    0.462E-01
RMM:   3    -0.231843730890E+04   -0.10860E-02   -0.83067E-03  5302   0.382E-02    0.606E-01
RMM:   4    -0.231843448600E+04    0.28229E-02   -0.31467E-03  4571   0.237E-02    0.131E-01
RMM:   5    -0.231843448419E+04    0.18150E-05   -0.67091E-04  3657   0.127E-02    0.606E-02
RMM:   6    -0.231843447083E+04    0.13354E-04   -0.12689E-04  3123   0.578E-03    0.476E-02
RMM:   7    -0.231843444834E+04    0.22494E-04   -0.41171E-05  2933   0.374E-03    0.162E-02
RMM:   8    -0.231843444590E+04    0.24428E-05   -0.17089E-05  2875   0.284E-03
   3 F= -.23393203E+04 E0= -.23393203E+04  d E =-.563649E-11  mag=     7.0000
       N       E                     dE             d eps       ncg     rms          rms(c)
DAV:   1    -0.231842505668E+04    0.93917E-02   -0.39283E+00  4480   0.899E-01    0.458E-01
RMM:   2    -0.231842486633E+04    0.19035E-03   -0.12560E-02  3920   0.466E-02    0.303E-01
RMM:   3    -0.231842614516E+04   -0.12788E-02   -0.48152E-03  5191   0.259E-02    0.477E-01
RMM:   4    -0.231842414317E+04    0.20020E-02   -0.18471E-03  4552   0.177E-02    0.747E-02
RMM:   5    -0.231842416233E+04   -0.19155E-04   -0.32029E-04  3258   0.770E-03    0.347E-02
RMM:   6    -0.231842415932E+04    0.30059E-05   -0.46164E-05  2861   0.410E-03
   4 F= -.23393101E+04 E0= -.23393101E+04  d E =-.510837E-13  mag=     7.0000
       N       E                     dE             d eps       ncg     rms          rms(c)
DAV:   1    -0.231842203998E+04    0.21223E-02   -0.84015E+00  4480   0.128E+00    0.652E-01
RMM:   2    -0.231841992888E+04    0.21111E-02   -0.25683E-02  3985   0.684E-02    0.376E-01
RMM:   3    -0.231841917167E+04    0.75721E-03   -0.82572E-03  5005   0.367E-02    0.314E-01
RMM:   4    -0.231841873666E+04    0.43502E-03   -0.27217E-03  4698   0.197E-02    0.182E-01
RMM:   5    -0.231841848109E+04    0.25556E-03   -0.23090E-04  3200   0.772E-03    0.299E-02
RMM:   6    -0.231841845560E+04    0.25495E-04   -0.88986E-05  3071   0.430E-03    0.219E-02
RMM:   7    -0.231841845183E+04    0.37681E-05   -0.30005E-05  2956   0.365E-03
   5 F= -.23393043E+04 E0= -.23393043E+04  d E =-.124113E-12  mag=     7.0000
       N       E                     dE             d eps       ncg     rms          rms(c)
DAV:   1    -0.231839702439E+04    0.21431E-01   -0.40351E+00  4480   0.892E-01    0.474E-01
RMM:   2    -0.231839622439E+04    0.80001E-03   -0.17251E-02  4010   0.504E-02    0.313E-01
RMM:   3    -0.231839639370E+04   -0.16932E-03   -0.38094E-03  4635   0.282E-02    0.369E-01
RMM:   4    -0.231839543885E+04    0.95486E-03   -0.20995E-03  4596   0.176E-02    0.139E-01
RMM:   5    -0.231839534073E+04    0.98121E-04   -0.31096E-04  3490   0.975E-03    0.332E-02
RMM:   6    -0.231839533282E+04    0.79048E-05   -0.45514E-05  3083   0.468E-03
   6 F= -.23392818E+04 E0= -.23392818E+04  d E =-.257462E-13  mag=     7.0000
       N       E                     dE             d eps       ncg     rms          rms(c)
DAV:   1    -0.231847859821E+04   -0.83257E-01   -0.79615E+00  4480   0.120E+00    0.659E-01
RMM:   2    -0.231847749934E+04    0.10989E-02   -0.41802E-02  4230   0.764E-02    0.459E-01
RMM:   3    -0.231847739377E+04    0.10557E-03   -0.74641E-03  4603   0.406E-02    0.508E-01
RMM:   4    -0.231847553100E+04    0.18628E-02   -0.40979E-03  4713   0.241E-02    0.198E-01
RMM:   5    -0.231847529048E+04    0.24052E-03   -0.68573E-04  3907   0.148E-02    0.510E-02
RMM:   6    -0.231847528622E+04    0.42633E-05   -0.13032E-04  3293   0.673E-03    0.454E-02
RMM:   7    -0.231847527238E+04    0.13840E-04   -0.46129E-05  2975   0.421E-03    0.281E-02
RMM:   8    -0.231847526870E+04    0.36772E-05   -0.13178E-05  2888   0.301E-03
   7 F= -.23393606E+04 E0= -.23393606E+04  d E =-.179759E-11  mag=     7.0000
       N       E                     dE             d eps       ncg     rms          rms(c)
DAV:   1    -0.231845968747E+04    0.15585E-01   -0.66860E+00  4480   0.111E+00    0.497E-01
RMM:   2    -0.231846045857E+04   -0.77109E-03   -0.36793E-02  4146   0.668E-02    0.353E-01
RMM:   3    -0.231846003379E+04    0.42478E-03   -0.45398E-03  4763   0.296E-02    0.409E-01
RMM:   4    -0.231845878429E+04    0.12495E-02   -0.17744E-03  4288   0.164E-02    0.117E-01
RMM:   5    -0.231845877409E+04    0.10199E-04   -0.37864E-04  3508   0.953E-03    0.331E-02
RMM:   6    -0.231845877072E+04    0.33658E-05   -0.45208E-05  2955   0.517E-03
   8 F= -.23393438E+04 E0= -.23393438E+04  d E =-.121774E-11  mag=     7.0000
       N       E                     dE             d eps       ncg     rms          rms(c)
DAV:   1    -0.231841045927E+04    0.48315E-01   -0.19945E+01  4480   0.178E+00    0.694E-01
RMM:   2    -0.231841839151E+04   -0.79322E-02   -0.12653E-01  4174   0.112E-01    0.371E-01
RMM:   3    -0.231841802239E+04    0.36912E-03   -0.99160E-03  4813   0.476E-02    0.566E-01
RMM:   4    -0.231841555322E+04    0.24692E-02   -0.37943E-03  4615   0.230E-02    0.130E-01
RMM:   5    -0.231841556439E+04   -0.11171E-04   -0.77139E-04  3755   0.110E-02    0.462E-02
RMM:   6    -0.231841555395E+04    0.10444E-04   -0.86533E-05  3020   0.655E-03    0.377E-02
RMM:   7    -0.231841554750E+04    0.64478E-05   -0.29540E-05  2895   0.335E-03
   9 F= -.23393024E+04 E0= -.23393024E+04  d E =-.120122E-12  mag=     7.0000
       N       E                     dE             d eps       ncg     rms          rms(c)
DAV:   1    -0.231841652235E+04   -0.96840E-03   -0.10184E+01  4480   0.125E+00    0.494E-01
RMM:   2    -0.231841931268E+04   -0.27903E-02   -0.52196E-02  4066   0.703E-02    0.276E-01
RMM:   3    -0.231841940006E+04   -0.87389E-04   -0.39943E-03  5070   0.262E-02    0.373E-01
RMM:   4    -0.231841828007E+04    0.11200E-02   -0.16110E-03  4379   0.160E-02    0.101E-01
RMM:   5    -0.231841827019E+04    0.98787E-05   -0.26179E-04  3346   0.753E-03    0.273E-02
RMM:   6    -0.231841827039E+04   -0.20063E-06   -0.38059E-05  2879   0.459E-03
  10 F= -.23393041E+04 E0= -.23393041E+04  d E =-.636244E-12  mag=     7.0000
       N       E                     dE             d eps       ncg     rms          rms(c)
DAV:   1    -0.231844817336E+04   -0.29903E-01   -0.20575E+01  4480   0.176E+00    0.950E-01
RMM:   2    -0.231844352046E+04    0.46529E-02   -0.11172E-01  4250   0.997E-02    0.423E-01
RMM:   3    -0.231844220782E+04    0.13126E-02   -0.73971E-03  4188   0.446E-02    0.453E-01
RMM:   4    -0.231844107464E+04    0.11332E-02   -0.37890E-03  4662   0.222E-02    0.263E-01
RMM:   5    -0.231844069844E+04    0.37620E-03   -0.12033E-03  3816   0.140E-02    0.477E-02
RMM:   6    -0.231844068534E+04    0.13093E-04   -0.12245E-04  3035   0.745E-03    0.444E-02
RMM:   7    -0.231844066753E+04    0.17808E-04   -0.38565E-05  2806   0.313E-03    0.179E-02
RMM:   8    -0.231844066460E+04    0.29295E-05   -0.20224E-05  2715   0.242E-03
  11 F= -.23393266E+04 E0= -.23393266E+04  d E =-.275806E-12  mag=     7.0000
       N       E                     dE             d eps       ncg     rms          rms(c)
DAV:   1    -0.231846489566E+04   -0.24228E-01   -0.98468E+00  4480   0.116E+00    0.764E-01
RMM:   2    -0.231846070717E+04    0.41885E-02   -0.68297E-02  4293   0.759E-02    0.381E-01
RMM:   3    -0.231845972351E+04    0.98365E-03   -0.70358E-03  4181   0.426E-02    0.434E-01
RMM:   4    -0.231845836400E+04    0.13595E-02   -0.30779E-03  4619   0.214E-02    0.206E-01
RMM:   5    -0.231845809094E+04    0.27306E-03   -0.11996E-03  4001   0.133E-02    0.491E-02
RMM:   6    -0.231845807210E+04    0.18841E-04   -0.12584E-04  3041   0.679E-03    0.468E-02
RMM:   7    -0.231845805467E+04    0.17433E-04   -0.40745E-05  2909   0.351E-03    0.215E-02
RMM:   8    -0.231845805249E+04    0.21824E-05   -0.15613E-05  2885   0.277E-03
  12 F= -.23393437E+04 E0= -.23393437E+04  d E =-.403187E-11  mag=     7.0000
       N       E                     dE             d eps       ncg     rms          rms(c)
DAV:   1    -0.231840931056E+04    0.48744E-01   -0.19756E+01  4480   0.173E+00    0.834E-01
RMM:   2    -0.231840717524E+04    0.21353E-02   -0.99429E-02  4272   0.104E-01    0.479E-01
RMM:   3    -0.231840625355E+04    0.92169E-03   -0.11768E-02  5171   0.477E-02    0.632E-01
RMM:   4    -0.231840298579E+04    0.32678E-02   -0.52046E-03  4864   0.273E-02    0.190E-01
RMM:   5    -0.231840272505E+04    0.26074E-03   -0.96204E-04  4196   0.134E-02    0.573E-02
RMM:   6    -0.231840272473E+04    0.32288E-06   -0.15915E-04  3084   0.753E-03    0.632E-02
RMM:   7    -0.231840268700E+04    0.37724E-04   -0.55244E-05  3057   0.452E-03    0.269E-02
RMM:   8    -0.231840268058E+04    0.64210E-05   -0.20158E-05  2957   0.359E-03
  13 F= -.23392888E+04 E0= -.23392888E+04  d E =-.654376E-13  mag=     7.0000
       N       E                     dE             d eps       ncg     rms          rms(c)
DAV:   1    -0.231845585392E+04   -0.53167E-01   -0.52321E+00  4480   0.901E-01    0.460E-01
RMM:   2    -0.231845738705E+04   -0.15331E-02   -0.45050E-02  4048   0.616E-02    0.280E-01
RMM:   3    -0.231845689666E+04    0.49039E-03   -0.38176E-03  4933   0.249E-02    0.347E-01
RMM:   4    -0.231845594723E+04    0.94943E-03   -0.17300E-03  4252   0.158E-02    0.121E-01
RMM:   5    -0.231845583676E+04    0.11047E-03   -0.32941E-04  3653   0.880E-03    0.323E-02
RMM:   6    -0.231845584112E+04   -0.43522E-05   -0.59637E-05  2914   0.505E-03
  14 F= -.23393421E+04 E0= -.23393421E+04  d E =-.336319E-12  mag=     7.0000
       N       E                     dE             d eps       ncg     rms          rms(c)
DAV:   1    -0.231842350713E+04    0.32330E-01   -0.12344E+00  4480   0.442E-01    0.403E-01
RMM:   2    -0.231842255849E+04    0.94864E-03   -0.69442E-03  3831   0.309E-02    0.226E-01
RMM:   3    -0.231842222796E+04    0.33054E-03   -0.18171E-03  4288   0.167E-02    0.706E-02
RMM:   4    -0.231842225424E+04   -0.26280E-04   -0.28761E-04  3086   0.801E-03    0.877E-02
RMM:   5    -0.231842218556E+04    0.68680E-04   -0.69014E-05  2789   0.442E-03    0.153E-02
RMM:   6    -0.231842218412E+04    0.14374E-05   -0.17096E-05  2636   0.232E-03
  15 F= -.23393077E+04 E0= -.23393077E+04  d E =-.129912E-11  mag=     7.0000
       N       E                     dE             d eps       ncg     rms          rms(c)
DAV:   1    -0.231842783442E+04   -0.56489E-02   -0.63684E-01  4800   0.317E-01    0.421E-01
RMM:   2    -0.231842506826E+04    0.27662E-02   -0.94973E-03  4257   0.345E-02    0.218E-01
RMM:   3    -0.231842486984E+04    0.19842E-03   -0.19406E-03  4209   0.197E-02    0.215E-01
RMM:   4    -0.231842455431E+04    0.31553E-03   -0.90670E-04  3873   0.115E-02    0.107E-01
RMM:   5    -0.231842445795E+04    0.96361E-04   -0.10903E-04  3043   0.568E-03    0.205E-02
RMM:   6    -0.231842446187E+04   -0.39219E-05   -0.25572E-05  2658   0.317E-03
  16 F= -.23393109E+04 E0= -.23393109E+04  d E =-.107399E-11  mag=     7.0000
       N       E                     dE             d eps       ncg     rms          rms(c)
DAV:   1    -0.231844462359E+04   -0.20166E-01   -0.13005E+00  4880   0.462E-01    0.613E-01
RMM:   2    -0.231843840677E+04    0.62168E-02   -0.20025E-02  4504   0.496E-02    0.311E-01
RMM:   3    -0.231843776177E+04    0.64501E-03   -0.32810E-03  4165   0.299E-02    0.232E-01
RMM:   4    -0.231843773288E+04    0.28882E-04   -0.19509E-03  4593   0.169E-02    0.213E-01
RMM:   5    -0.231843731863E+04    0.41425E-03   -0.37117E-04  3383   0.972E-03    0.317E-02
RMM:   6    -0.231843731493E+04    0.37033E-05   -0.61757E-05  2885   0.448E-03
  17 F= -.23393227E+04 E0= -.23393227E+04  d E =-.473768E-12  mag=     7.0000
       N       E                     dE             d eps       ncg     rms          rms(c)
DAV:   1    -0.231844961895E+04   -0.12300E-01   -0.63139E-01  4560   0.305E-01    0.323E-01
RMM:   2    -0.231844857708E+04    0.10419E-02   -0.53813E-03  4237   0.266E-02    0.181E-01
RMM:   3    -0.231844875469E+04   -0.17761E-03   -0.13760E-03  3998   0.172E-02    0.226E-01
RMM:   4    -0.231844830386E+04    0.45083E-03   -0.68009E-04  3729   0.106E-02    0.717E-02
RMM:   5    -0.231844829398E+04    0.98794E-05   -0.74784E-05  2926   0.494E-03
  18 F= -.23393344E+04 E0= -.23393344E+04  d E =-.346470E-11  mag=     7.0000
       N       E                     dE             d eps       ncg     rms          rms(c)
DAV:   1    -0.231843112405E+04    0.17180E-01   -0.12265E+00  4480   0.432E-01    0.371E-01
RMM:   2    -0.231843091838E+04    0.20567E-03   -0.62697E-03  3784   0.303E-02    0.231E-01
RMM:   3    -0.231843161870E+04   -0.70032E-03   -0.23552E-03  4946   0.193E-02    0.369E-01
RMM:   4    -0.231843058634E+04    0.10324E-02   -0.12009E-03  4003   0.138E-02    0.410E-02
RMM:   5    -0.231843059103E+04   -0.46938E-05   -0.14686E-04  3002   0.532E-03    0.174E-02
RMM:   6    -0.231843059313E+04   -0.21013E-05   -0.19244E-05  2750   0.298E-03
  19 F= -.23393163E+04 E0= -.23393163E+04  d E =-.176387E-12  mag=     7.0000
       N       E                     dE             d eps       ncg     rms          rms(c)
DAV:   1    -0.231842127644E+04    0.93146E-02   -0.61291E-01  4880   0.322E-01    0.288E-01
RMM:   2    -0.231842083277E+04    0.44366E-03   -0.39643E-03  3670   0.229E-02    0.168E-01
RMM:   3    -0.231842095020E+04   -0.11742E-03   -0.11925E-03  4425   0.135E-02    0.207E-01
RMM:   4    -0.231842057290E+04    0.37729E-03   -0.48641E-04  3385   0.875E-03    0.415E-02
RMM:   5    -0.231842056600E+04    0.69065E-05   -0.39927E-05  2810   0.346E-03
  20 F= -.23393068E+04 E0= -.23393068E+04  d E =-.525591E-12  mag=     7.0000
       N       E                     dE             d eps       ncg     rms          rms(c)
DAV:   1    -0.231845589899E+04   -0.35326E-01   -0.12145E+00  4880   0.425E-01    0.468E-01
RMM:   2    -0.231845327762E+04    0.26214E-02   -0.99830E-03  4000   0.341E-02    0.257E-01
RMM:   3    -0.231845323514E+04    0.42484E-04   -0.30446E-03  4489   0.256E-02    0.301E-01
RMM:   4    -0.231845262909E+04    0.60606E-03   -0.12709E-03  4091   0.140E-02    0.894E-02
RMM:   5    -0.231845256358E+04    0.65509E-04   -0.11815E-04  3057   0.563E-03    0.216E-02
RMM:   6    -0.231845256464E+04   -0.10633E-05   -0.22989E-05  2758   0.337E-03
  21 F= -.23393381E+04 E0= -.23393381E+04  d E =-.118424E-11  mag=     7.0000
       N       E                     dE             d eps       ncg     rms          rms(c)
DAV:   1    -0.231845366309E+04   -0.10995E-02   -0.60185E-01  4720   0.284E-01    0.252E-01
RMM:   2    -0.231845346676E+04    0.19633E-03   -0.23146E-03  3570   0.175E-02    0.146E-01
RMM:   3    -0.231845342994E+04    0.36820E-04   -0.52830E-04  3878   0.946E-03    0.940E-02
RMM:   4    -0.231845339188E+04    0.38055E-04   -0.21637E-04  2984   0.647E-03    0.633E-02
RMM:   5    -0.231845336488E+04    0.27005E-04   -0.23431E-05  2693   0.330E-03    0.106E-02
RMM:   6    -0.231845336380E+04    0.10813E-05   -0.62203E-06  2348   0.173E-03
  22 F= -.23393389E+04 E0= -.23393389E+04  d E =-.574701E-12  mag=     7.0000
       N       E                     dE             d eps       ncg     rms          rms(c)
DAV:   1    -0.231842052102E+04    0.32844E-01   -0.12159E+00  4960   0.416E-01    0.522E-01
RMM:   2    -0.231841649837E+04    0.40227E-02   -0.15042E-02  4320   0.401E-02    0.267E-01
RMM:   3    -0.231841617476E+04    0.32361E-03   -0.25238E-03  4094   0.255E-02    0.233E-01
RMM:   4    -0.231841596804E+04    0.20671E-03   -0.14375E-03  4111   0.142E-02    0.163E-01
RMM:   5    -0.231841574382E+04    0.22422E-03   -0.21822E-04  3250   0.752E-03    0.266E-02
RMM:   6    -0.231841574979E+04   -0.59690E-05   -0.42517E-05  2834   0.415E-03
  23 F= -.23393021E+04 E0= -.23393021E+04  d E =-.102618E-11  mag=     7.0000
       N       E                     dE             d eps       ncg     rms          rms(c)
DAV:   1    -0.231843388860E+04   -0.18145E-01   -0.60177E-01  4960   0.294E-01    0.330E-01
RMM:   2    -0.231843256319E+04    0.13254E-02   -0.51252E-03  4095   0.241E-02    0.173E-01
RMM:   3    -0.231843230241E+04    0.26078E-03   -0.79151E-04  3791   0.139E-02    0.746E-02
RMM:   4    -0.231843235863E+04   -0.56222E-04   -0.33220E-04  3325   0.764E-03    0.961E-02
RMM:   5    -0.231843228172E+04    0.76912E-04   -0.88936E-05  2828   0.507E-03    0.203E-02
RMM:   6    -0.231843227859E+04    0.31317E-05   -0.12100E-05  2583   0.231E-03
  24 F= -.23393185E+04 E0= -.23393185E+04  d E =-.508410E-11  mag=     7.0000
       N       E                     dE             d eps       ncg     rms          rms(c)
DAV:   1    -0.231844817032E+04   -0.15889E-01   -0.11949E+00  4560   0.404E-01    0.338E-01
RMM:   2    -0.231844808026E+04    0.90062E-04   -0.49542E-03  3735   0.248E-02    0.202E-01
RMM:   3    -0.231844849670E+04   -0.41644E-03   -0.15812E-03  4741   0.162E-02    0.280E-01
RMM:   4    -0.231844785392E+04    0.64278E-03   -0.72082E-04  3605   0.111E-02    0.386E-02
RMM:   5    -0.231844786174E+04   -0.78239E-05   -0.82335E-05  2934   0.443E-03
  25 F= -.23393335E+04 E0= -.23393335E+04  d E =-.104156E-12  mag=     7.0000
       N       E                     dE             d eps       ncg     rms          rms(c)
DAV:   1    -0.231844197825E+04    0.58757E-02   -0.56539E-01  4640   0.265E-01    0.241E-01
RMM:   2    -0.231844211715E+04   -0.13890E-03   -0.45136E-03  3695   0.217E-02    0.139E-01
RMM:   3    -0.231844216780E+04   -0.50652E-04   -0.49369E-04  3888   0.101E-02    0.149E-01
RMM:   4    -0.231844207683E+04    0.90969E-04   -0.35647E-04  3081   0.744E-03    0.781E-02
RMM:   5    -0.231844205536E+04    0.21473E-04   -0.50946E-05  2970   0.446E-03    0.109E-02
RMM:   6    -0.231844205636E+04   -0.10010E-05   -0.91146E-06  2643   0.261E-03
  26 F= -.23393276E+04 E0= -.23393276E+04  d E =-.107190E-11  mag=     7.0000
       N       E                     dE             d eps       ncg     rms          rms(c)
DAV:   1    -0.231843771453E+04    0.43408E-02   -0.10728E+00  4640   0.291E-01    0.326E-01
RMM:   2    -0.231843838193E+04   -0.66739E-03   -0.66082E-03  3969   0.234E-02    0.187E-01
RMM:   3    -0.231843856350E+04   -0.18158E-03   -0.38163E-04  3631   0.115E-02    0.817E-02
RMM:   4    -0.231843870512E+04   -0.14162E-03   -0.18446E-04  3363   0.670E-03    0.539E-02
RMM:   5    -0.231843867879E+04    0.26327E-04   -0.35385E-05  2759   0.412E-03    0.114E-02
RMM:   6    -0.231843868184E+04   -0.30510E-05   -0.84932E-06  2651   0.184E-03
  27 F= -.23393249E+04 E0= -.23393249E+04  d E =-.666062E-12  mag=     7.0000
       N       E                     dE             d eps       ncg     rms          rms(c)
DAV:   1    -0.231843252811E+04    0.61507E-02   -0.55263E-01  4480   0.216E-01    0.303E-01
RMM:   2    -0.231843240662E+04    0.12149E-03   -0.70068E-03  3766   0.248E-02    0.165E-01
RMM:   3    -0.231843247254E+04   -0.65926E-04   -0.59400E-04  3207   0.134E-02    0.150E-01
RMM:   4    -0.231843246969E+04    0.28566E-05   -0.47116E-04  3299   0.849E-03    0.119E-01
RMM:   5    -0.231843242561E+04    0.44071E-04   -0.11223E-04  3027   0.600E-03    0.167E-02
RMM:   6    -0.231843242524E+04    0.37854E-06   -0.15913E-05  2700   0.310E-03
  28 F= -.23393181E+04 E0= -.23393181E+04  d E =-.519911E-12  mag=     7.0000
       N       E                     dE             d eps       ncg     rms          rms(c)
DAV:   1    -0.231843556924E+04   -0.31436E-02   -0.11011E+00  4960   0.309E-01    0.639E-01
RMM:   2    -0.231843195428E+04    0.36150E-02   -0.38376E-02  4215   0.525E-02    0.305E-01
RMM:   3    -0.231843108255E+04    0.87172E-03   -0.27276E-03  3639   0.331E-02    0.248E-01
RMM:   4    -0.231843113325E+04   -0.50699E-04   -0.16245E-03  4311   0.150E-02    0.234E-01
RMM:   5    -0.231843080720E+04    0.32606E-03   -0.53304E-04  3518   0.103E-02    0.388E-02
RMM:   6    -0.231843079088E+04    0.16315E-04   -0.64685E-05  2889   0.525E-03    0.285E-02
RMM:   7    -0.231843078610E+04    0.47782E-05   -0.29236E-05  2600   0.260E-03
  29 F= -.23393169E+04 E0= -.23393169E+04  d E =-.134984E-11  mag=     7.0000
       N       E                     dE             d eps       ncg     rms          rms(c)
DAV:   1    -0.231845162001E+04   -0.20829E-01   -0.56225E-01  4960   0.235E-01    0.537E-01
RMM:   2    -0.231844836116E+04    0.32588E-02   -0.25228E-02  4270   0.454E-02    0.253E-01
RMM:   3    -0.231844774770E+04    0.61346E-03   -0.18756E-03  3543   0.289E-02    0.204E-01
RMM:   4    -0.231844777126E+04   -0.23559E-04   -0.12092E-03  3948   0.129E-02    0.198E-01
RMM:   5    -0.231844747145E+04    0.29981E-03   -0.37471E-04  3368   0.875E-03    0.273E-02
RMM:   6    -0.231844746263E+04    0.88199E-05   -0.39269E-05  2779   0.431E-03
  30 F= -.23393331E+04 E0= -.23393331E+04  d E =-.608192E-12  mag=     7.0000
       N       E                     dE             d eps       ncg     rms          rms(c)
DAV:   1    -0.231842074980E+04    0.26722E-01   -0.10869E+00  4800   0.317E-01    0.553E-01
RMM:   2    -0.231841866650E+04    0.20833E-02   -0.24615E-02  4283   0.428E-02    0.272E-01
RMM:   3    -0.231841803080E+04    0.63570E-03   -0.15982E-03  3615   0.248E-02    0.186E-01
RMM:   4    -0.231841850805E+04   -0.47725E-03   -0.17019E-03  4388   0.154E-02    0.256E-01
RMM:   5    -0.231841796640E+04    0.54165E-03   -0.53146E-04  3898   0.104E-02    0.286E-02
RMM:   6    -0.231841795462E+04    0.11775E-04   -0.59701E-05  2947   0.400E-03    0.127E-02
RMM:   7    -0.231841795636E+04   -0.17362E-05   -0.17693E-05  2632   0.244E-03
  31 F= -.23393041E+04 E0= -.23393041E+04  d E =-.111754E-11  mag=     7.0000
