       N       E                     dE             d eps       ncg     rms          rms(c)
DAV:   1     0.128918340576E+05    0.12892E+05   -0.84046E+05  4528   0.144E+03
DAV:   2    -0.106688043245E+04   -0.13959E+05   -0.13361E+05  5112   0.330E+02
DAV:   3    -0.247714900730E+04   -0.14103E+04   -0.13950E+04  5424   0.111E+02
DAV:   4    -0.252118333758E+04   -0.44034E+02   -0.43790E+02  6768   0.292E+01
DAV:   5    -0.252195386547E+04   -0.77053E+00   -0.76892E+00  5944   0.332E+00    0.170E+02
RMM:   6    -0.149600689308E+04    0.10259E+04   -0.19143E+03  4437   0.381E+01    0.719E+01
RMM:   7    -0.166126026877E+04   -0.16525E+03   -0.28474E+02  4997   0.138E+01    0.465E+01
RMM:   8    -0.171879983004E+04   -0.57540E+02   -0.29231E+01  5271   0.650E+00    0.359E+01
RMM:   9    -0.186161992502E+04   -0.14282E+03   -0.62944E+01  4829   0.774E+00    0.409E+01
RMM:  10    -0.192743130043E+04   -0.65811E+02   -0.43001E+01  5062   0.593E+00    0.229E+01
RMM:  11    -0.203236591948E+04   -0.10493E+03   -0.43829E+01  4870   0.534E+00    0.226E+01
RMM:  12    -0.207099477760E+04   -0.38629E+02   -0.14288E+01  5121   0.325E+00    0.152E+01
RMM:  13    -0.217075836409E+04   -0.99764E+02   -0.55139E+01  4458   0.567E+00    0.141E+01
RMM:  14    -0.226435194204E+04   -0.93594E+02   -0.85889E+01  4552   0.634E+00    0.951E+00
RMM:  15    -0.229606673389E+04   -0.31715E+02   -0.29307E+01  4640   0.445E+00    0.642E+00
RMM:  16    -0.230826518493E+04   -0.12198E+02   -0.14532E+01  4670   0.244E+00    0.348E+00
RMM:  17    -0.231266364784E+04   -0.43985E+01   -0.37927E+00  5054   0.147E+00    0.171E+00
RMM:  18    -0.231378667091E+04   -0.11230E+01   -0.98602E-01  5067   0.657E-01    0.915E-01
RMM:  19    -0.231418905589E+04   -0.40238E+00   -0.33139E-01  4838   0.347E-01    0.452E-01
RMM:  20    -0.231427741847E+04   -0.88363E-01   -0.73946E-02  4818   0.213E-01    0.239E-01
RMM:  21    -0.231430968542E+04   -0.32267E-01   -0.20461E-02  4845   0.110E-01    0.166E-01
RMM:  22    -0.231433106064E+04   -0.21375E-01   -0.85805E-03  4488   0.767E-02    0.122E-01
RMM:  23    -0.231434138273E+04   -0.10322E-01   -0.32639E-03  4660   0.475E-02    0.748E-02
RMM:  24    -0.231435342183E+04   -0.12039E-01   -0.39284E-03  4426   0.435E-02    0.437E-02
RMM:  25    -0.231435748198E+04   -0.40602E-02   -0.12419E-03  4382   0.309E-02    0.364E-02
RMM:  26    -0.231436010581E+04   -0.26238E-02   -0.82302E-04  4147   0.177E-02    0.181E-02
RMM:  27    -0.231436091819E+04   -0.81239E-03   -0.22903E-04  3925   0.154E-02    0.131E-02
RMM:  28    -0.231436121121E+04   -0.29302E-03   -0.95844E-05  3634   0.657E-03    0.604E-03
RMM:  29    -0.231436136242E+04   -0.15121E-03   -0.29128E-05  3171   0.611E-03    0.479E-03
RMM:  30    -0.231436143548E+04   -0.73058E-04   -0.17294E-05  3010   0.338E-03    0.226E-03
RMM:  31    -0.231436147251E+04   -0.37027E-04   -0.77141E-06  2841   0.307E-03    0.154E-03
RMM:  32    -0.231436148119E+04   -0.86766E-05   -0.39737E-06  2573   0.229E-03
   1 F= -.23352036E+04 E0= -.23352036E+04  d E =-.233520E+04  mag=     6.0000
       N       E                     dE             d eps       ncg     rms          rms(c)
DAV:   1    -0.231438557946E+04   -0.24107E-01   -0.69363E+01  4800   0.576E+00    0.244E+00
RMM:   2    -0.231495839412E+04   -0.57281E+00   -0.66184E+00  6073   0.109E+00    0.192E+00
RMM:   3    -0.231498327772E+04   -0.24884E-01   -0.72760E-01  5804   0.475E-01    0.162E+00
RMM:   4    -0.231496282337E+04    0.20454E-01   -0.76556E-02  5866   0.106E-01    0.742E-01
RMM:   5    -0.231496012961E+04    0.26938E-02   -0.23586E-02  5441   0.659E-02    0.875E-01
RMM:   6    -0.231495261244E+04    0.75172E-02   -0.12109E-02  5645   0.484E-02    0.355E-01
RMM:   7    -0.231495124341E+04    0.13690E-02   -0.38218E-03  4970   0.312E-02    0.192E-01
RMM:   8    -0.231495130003E+04   -0.56617E-04   -0.76526E-04  4290   0.186E-02    0.630E-02
RMM:   9    -0.231495168725E+04   -0.38722E-03   -0.30021E-04  3865   0.103E-02    0.374E-02
RMM:  10    -0.231495216919E+04   -0.48194E-03   -0.17823E-04  3799   0.849E-03    0.164E-02
RMM:  11    -0.231495250582E+04   -0.33663E-03   -0.10248E-04  3559   0.708E-03    0.102E-02
RMM:  12    -0.231495269387E+04   -0.18804E-03   -0.64443E-05  3349   0.601E-03    0.563E-03
RMM:  13    -0.231495274745E+04   -0.53587E-04   -0.23635E-05  2942   0.471E-03    0.436E-03
RMM:  14    -0.231495276203E+04   -0.14577E-04   -0.95472E-06  2858   0.351E-03    0.248E-03
RMM:  15    -0.231495276629E+04   -0.42650E-05   -0.38901E-06  2757   0.261E-03
   2 F= -.23358013E+04 E0= -.23358013E+04  d E =-.597745E+00  mag=     6.0000
       N       E                     dE             d eps       ncg     rms          rms(c)
DAV:   1    -0.231486554048E+04    0.87222E-01   -0.23418E+01  4592   0.307E+00    0.141E+00
RMM:   2    -0.231504727713E+04   -0.18174E+00   -0.22069E+00  5969   0.613E-01    0.947E-01
RMM:   3    -0.231505814919E+04   -0.10872E-01   -0.25092E-01  5549   0.310E-01    0.787E-01
RMM:   4    -0.231505252132E+04    0.56279E-02   -0.25064E-02  5743   0.640E-02    0.436E-01
RMM:   5    -0.231505056482E+04    0.19565E-02   -0.60782E-03  5209   0.337E-02    0.416E-01
RMM:   6    -0.231504919188E+04    0.13729E-02   -0.44483E-03  5234   0.314E-02    0.277E-01
RMM:   7    -0.231504838126E+04    0.81062E-03   -0.14598E-03  4869   0.203E-02    0.104E-01
RMM:   8    -0.231504847013E+04   -0.88874E-04   -0.24463E-04  3576   0.109E-02    0.436E-02
RMM:   9    -0.231504865871E+04   -0.18858E-03   -0.12094E-04  3422   0.690E-03    0.213E-02
RMM:  10    -0.231504884350E+04   -0.18480E-03   -0.64570E-05  3370   0.582E-03    0.108E-02
RMM:  11    -0.231504893672E+04   -0.93213E-04   -0.32825E-05  2989   0.498E-03    0.578E-03
RMM:  12    -0.231504898221E+04   -0.45496E-04   -0.21049E-05  2920   0.438E-03    0.333E-03
RMM:  13    -0.231504899609E+04   -0.13877E-04   -0.91030E-06  2842   0.362E-03    0.252E-03
RMM:  14    -0.231504900097E+04   -0.48841E-05   -0.47972E-06  2740   0.269E-03
   3 F= -.23359014E+04 E0= -.23359014E+04  d E =-.697829E+00  mag=     6.0000
       N       E                     dE             d eps       ncg     rms          rms(c)
DAV:   1    -0.231523473697E+04   -0.18574E+00   -0.31017E+01  4512   0.347E+00    0.162E+00
RMM:   2    -0.231540812090E+04   -0.17338E+00   -0.24087E+00  6023   0.678E-01    0.128E+00
RMM:   3    -0.231542340197E+04   -0.15281E-01   -0.30756E-01  5674   0.316E-01    0.125E+00
RMM:   4    -0.231540746165E+04    0.15940E-01   -0.29132E-02  5761   0.761E-02    0.489E-01
RMM:   5    -0.231540502432E+04    0.24373E-02   -0.75446E-03  5129   0.391E-02    0.445E-01
RMM:   6    -0.231540238560E+04    0.26387E-02   -0.60719E-03  5079   0.385E-02    0.264E-01
RMM:   7    -0.231540148644E+04    0.89916E-03   -0.23243E-03  5002   0.264E-02    0.942E-02
RMM:   8    -0.231540171205E+04   -0.22561E-03   -0.31006E-04  3872   0.125E-02    0.436E-02
RMM:   9    -0.231540214786E+04   -0.43581E-03   -0.22263E-04  3787   0.902E-03    0.277E-02
RMM:  10    -0.231540254040E+04   -0.39254E-03   -0.11453E-04  3585   0.715E-03    0.116E-02
RMM:  11    -0.231540279804E+04   -0.25763E-03   -0.73944E-05  3401   0.609E-03    0.800E-03
RMM:  12    -0.231540289255E+04   -0.94514E-04   -0.34753E-05  3042   0.501E-03    0.435E-03
RMM:  13    -0.231540291782E+04   -0.25267E-04   -0.14459E-05  2880   0.400E-03    0.267E-03
RMM:  14    -0.231540292394E+04   -0.61196E-05   -0.59274E-06  2820   0.311E-03
   4 F= -.23362585E+04 E0= -.23362585E+04  d E =-.357135E+00  mag=     6.0000
       N       E                     dE             d eps       ncg     rms          rms(c)
DAV:   1    -0.231532045808E+04    0.82460E-01   -0.37494E+01  4480   0.400E+00    0.171E+00
RMM:   2    -0.231554904405E+04   -0.22859E+00   -0.30431E+00  6166   0.806E-01    0.141E+00
RMM:   3    -0.231556986600E+04   -0.20822E-01   -0.39163E-01  5742   0.363E-01    0.135E+00
RMM:   4    -0.231555166254E+04    0.18203E-01   -0.36476E-02  5904   0.832E-02    0.530E-01
RMM:   5    -0.231554736519E+04    0.42974E-02   -0.82826E-03  5188   0.443E-02    0.418E-01
RMM:   6    -0.231554507434E+04    0.22908E-02   -0.66431E-03  5259   0.422E-02    0.332E-01
RMM:   7    -0.231554369290E+04    0.13814E-02   -0.34703E-03  5226   0.306E-02    0.111E-01
RMM:   8    -0.231554389327E+04   -0.20037E-03   -0.41678E-04  3958   0.143E-02    0.457E-02
RMM:   9    -0.231554437614E+04   -0.48287E-03   -0.27404E-04  3900   0.968E-03    0.307E-02
RMM:  10    -0.231554479798E+04   -0.42184E-03   -0.13848E-04  3677   0.756E-03    0.127E-02
RMM:  11    -0.231554506135E+04   -0.26337E-03   -0.75668E-05  3418   0.629E-03    0.842E-03
RMM:  12    -0.231554516769E+04   -0.10635E-03   -0.38066E-05  3115   0.513E-03    0.491E-03
RMM:  13    -0.231554519850E+04   -0.30805E-04   -0.15704E-05  2888   0.413E-03    0.274E-03
RMM:  14    -0.231554520614E+04   -0.76471E-05   -0.66704E-06  2827   0.325E-03
   5 F= -.23364046E+04 E0= -.23364046E+04  d E =-.503253E+00  mag=     6.0000
       N       E                     dE             d eps       ncg     rms          rms(c)
DAV:   1    -0.231573031710E+04   -0.18512E+00   -0.29319E+01  4632   0.367E+00    0.148E+00
RMM:   2    -0.231593203864E+04   -0.20172E+00   -0.23426E+00  6370   0.743E-01    0.111E+00
RMM:   3    -0.231593554474E+04   -0.35061E-02   -0.19222E-01  5690   0.270E-01    0.104E+00
RMM:   4    -0.231592662167E+04    0.89231E-02   -0.23733E-02  6072   0.650E-02    0.436E-01
RMM:   5    -0.231592473330E+04    0.18884E-02   -0.66575E-03  5454   0.381E-02    0.324E-01
RMM:   6    -0.231592463143E+04    0.10187E-03   -0.60326E-03  5390   0.379E-02    0.289E-01
RMM:   7    -0.231592390496E+04    0.72647E-03   -0.10361E-03  4831   0.187E-02    0.606E-02
RMM:   8    -0.231592385531E+04    0.49653E-04   -0.15472E-04  3165   0.851E-03    0.294E-02
RMM:   9    -0.231592384551E+04    0.97997E-05   -0.84770E-05  3172   0.632E-03
   6 F= -.23367797E+04 E0= -.23367797E+04  d E =-.375039E+00  mag=     6.0000
       N       E                     dE             d eps       ncg     rms          rms(c)
DAV:   1    -0.231582019408E+04    0.10366E+00   -0.42602E+01  4528   0.427E+00    0.174E+00
RMM:   2    -0.231611251081E+04   -0.29232E+00   -0.33926E+00  6367   0.858E-01    0.135E+00
RMM:   3    -0.231611301960E+04   -0.50879E-03   -0.24706E-01  5751   0.292E-01    0.130E+00
RMM:   4    -0.231609849363E+04    0.14526E-01   -0.31611E-02  6045   0.745E-02    0.513E-01
RMM:   5    -0.231609546771E+04    0.30259E-02   -0.11154E-02  5520   0.474E-02    0.392E-01
RMM:   6    -0.231609518488E+04    0.28282E-03   -0.80845E-03  5450   0.436E-02    0.348E-01
RMM:   7    -0.231609419398E+04    0.99091E-03   -0.13981E-03  4971   0.203E-02    0.705E-02
RMM:   8    -0.231609414284E+04    0.51139E-04   -0.25587E-04  3337   0.103E-02    0.348E-02
RMM:   9    -0.231609414523E+04   -0.23868E-05   -0.11748E-04  3366   0.723E-03    0.153E-02
RMM:  10    -0.231609414681E+04   -0.15849E-05   -0.20484E-05  2954   0.481E-03
   7 F= -.23369453E+04 E0= -.23369453E+04  d E =-.540658E+00  mag=     6.0000
       N       E                     dE             d eps       ncg     rms          rms(c)
DAV:   1    -0.231608565290E+04    0.84923E-02   -0.33160E+00  4664   0.167E+00    0.664E-01
RMM:   2    -0.231612652306E+04   -0.40870E-01   -0.43069E-01  5878   0.347E-01    0.539E-01
RMM:   3    -0.231612736247E+04   -0.83940E-03   -0.45306E-02  5257   0.159E-01    0.432E-01
RMM:   4    -0.231612555446E+04    0.18080E-02   -0.49082E-03  5184   0.359E-02    0.190E-01
RMM:   5    -0.231612511500E+04    0.43947E-03   -0.16423E-03  5160   0.258E-02    0.170E-01
RMM:   6    -0.231612484329E+04    0.27171E-03   -0.95450E-04  5054   0.176E-02    0.108E-01
RMM:   7    -0.231612471971E+04    0.12358E-03   -0.23673E-04  4164   0.118E-02    0.293E-02
RMM:   8    -0.231612470472E+04    0.14993E-04   -0.49160E-05  3029   0.618E-03    0.167E-02
RMM:   9    -0.231612469802E+04    0.66936E-05   -0.24907E-05  2939   0.450E-03
   8 F= -.23369745E+04 E0= -.23369745E+04  d E =-.292248E-01  mag=     6.0000
       N       E                     dE             d eps       ncg     rms          rms(c)
DAV:   1    -0.231612438839E+04    0.31633E-03   -0.10336E-01  5120   0.295E-01    0.116E-01
RMM:   2    -0.231612563332E+04   -0.12449E-02   -0.13194E-02  6086   0.624E-02    0.915E-02
RMM:   3    -0.231612568266E+04   -0.49341E-04   -0.15330E-03  3687   0.292E-02    0.754E-02
RMM:   4    -0.231612562598E+04    0.56679E-04   -0.15714E-04  3136   0.739E-03    0.336E-02
RMM:   5    -0.231612560908E+04    0.16908E-04   -0.55046E-05  3001   0.557E-03    0.293E-02
RMM:   6    -0.231612560028E+04    0.87981E-05   -0.31452E-05  2950   0.505E-03
   9 F= -.23369752E+04 E0= -.23369752E+04  d E =-.298944E-01  mag=     6.0000
       N       E                     dE             d eps       ncg     rms          rms(c)
DAV:   1    -0.231611808214E+04    0.75269E-02   -0.29210E+00  4528   0.139E+00    0.478E-01
RMM:   2    -0.231615331745E+04   -0.35235E-01   -0.35678E-01  6080   0.289E-01    0.476E-01
RMM:   3    -0.231615338697E+04   -0.69517E-04   -0.30862E-02  5347   0.113E-01    0.291E-01
RMM:   4    -0.231615277150E+04    0.61547E-03   -0.31213E-03  4911   0.244E-02    0.144E-01
RMM:   5    -0.231615259400E+04    0.17751E-03   -0.63643E-04  4065   0.148E-02    0.129E-01
RMM:   6    -0.231615242282E+04    0.17118E-03   -0.54745E-04  4429   0.130E-02    0.801E-02
RMM:   7    -0.231615237715E+04    0.45670E-04   -0.13579E-04  3264   0.931E-03    0.227E-02
RMM:   8    -0.231615237405E+04    0.30986E-05   -0.22958E-05  2919   0.504E-03
  10 F= -.23370005E+04 E0= -.23370005E+04  d E =-.252851E-01  mag=     6.0000
       N       E                     dE             d eps       ncg     rms          rms(c)
DAV:   1    -0.231592229572E+04    0.23008E+00   -0.20650E+01  4496   0.372E+00    0.128E+00
RMM:   2    -0.231618181224E+04   -0.25952E+00   -0.26186E+00  6193   0.796E-01    0.136E+00
RMM:   3    -0.231617665005E+04    0.51622E-02   -0.21377E-01  5610   0.279E-01    0.769E-01
RMM:   4    -0.231617228909E+04    0.43610E-02   -0.21742E-02  5456   0.643E-02    0.401E-01
RMM:   5    -0.231617142947E+04    0.85962E-03   -0.44001E-03  5161   0.361E-02    0.390E-01
RMM:   6    -0.231616968743E+04    0.17420E-02   -0.43562E-03  5205   0.337E-02    0.195E-01
RMM:   7    -0.231616943381E+04    0.25363E-03   -0.97637E-04  4630   0.222E-02    0.536E-02
RMM:   8    -0.231616940937E+04    0.24436E-04   -0.16032E-04  3399   0.953E-03    0.282E-02
RMM:   9    -0.231616940818E+04    0.11846E-05   -0.56757E-05  2990   0.608E-03
  11 F= -.23370133E+04 E0= -.23370133E+04  d E =-.381496E-01  mag=     6.0000
       N       E                     dE             d eps       ncg     rms          rms(c)
DAV:   1    -0.231614475462E+04    0.24655E-01   -0.23534E+00  4528   0.125E+00    0.425E-01
RMM:   2    -0.231617227659E+04   -0.27522E-01   -0.27981E-01  5986   0.256E-01    0.388E-01
RMM:   3    -0.231617319875E+04   -0.92216E-03   -0.26660E-02  5247   0.110E-01    0.258E-01
RMM:   4    -0.231617272725E+04    0.47150E-03   -0.26706E-03  4809   0.223E-02    0.125E-01
RMM:   5    -0.231617251311E+04    0.21414E-03   -0.52469E-04  4157   0.137E-02    0.859E-02
RMM:   6    -0.231617248383E+04    0.29284E-04   -0.35731E-04  3902   0.112E-02    0.905E-02
RMM:   7    -0.231617242174E+04    0.62088E-04   -0.10731E-04  3152   0.807E-03    0.224E-02
RMM:   8    -0.231617241807E+04    0.36711E-05   -0.19564E-05  2933   0.443E-03
  12 F= -.23370178E+04 E0= -.23370178E+04  d E =-.426048E-01  mag=     6.0000
       N       E                     dE             d eps       ncg     rms          rms(c)
DAV:   1    -0.231617484024E+04   -0.24185E-02   -0.28716E+00  4512   0.136E+00    0.415E-01
RMM:   2    -0.231619621627E+04   -0.21376E-01   -0.21285E-01  5949   0.255E-01    0.435E-01
RMM:   3    -0.231619602665E+04    0.18961E-03   -0.18116E-02  5295   0.966E-02    0.256E-01
RMM:   4    -0.231619542872E+04    0.59794E-03   -0.19161E-03  4842   0.224E-02    0.121E-01
RMM:   5    -0.231619535507E+04    0.73646E-04   -0.49658E-04  4258   0.146E-02    0.122E-01
RMM:   6    -0.231619517755E+04    0.17753E-03   -0.51772E-04  4582   0.138E-02    0.500E-02
RMM:   7    -0.231619515620E+04    0.21343E-04   -0.73646E-05  3156   0.901E-03    0.149E-02
RMM:   8    -0.231619515209E+04    0.41096E-05   -0.16318E-05  2894   0.402E-03
  13 F= -.23370398E+04 E0= -.23370398E+04  d E =-.220433E-01  mag=     6.0000
       N       E                     dE             d eps       ncg     rms          rms(c)
DAV:   1    -0.231605214742E+04    0.14301E+00   -0.23351E+01  4480   0.387E+00    0.119E+00
RMM:   2    -0.231623171714E+04   -0.17957E+00   -0.17977E+00  6039   0.748E-01    0.123E+00
RMM:   3    -0.231622945886E+04    0.22583E-02   -0.14453E-01  5559   0.256E-01    0.734E-01
RMM:   4    -0.231622462931E+04    0.48296E-02   -0.15506E-02  5332   0.628E-02    0.364E-01
RMM:   5    -0.231622401962E+04    0.60969E-03   -0.40966E-03  5312   0.380E-02    0.352E-01
RMM:   6    -0.231622247991E+04    0.15397E-02   -0.44580E-03  5036   0.380E-02    0.141E-01
RMM:   7    -0.231622233463E+04    0.14528E-03   -0.66332E-04  4507   0.230E-02    0.469E-02
RMM:   8    -0.231622229173E+04    0.42895E-04   -0.14316E-04  3817   0.863E-03    0.258E-02
RMM:   9    -0.231622227507E+04    0.16659E-04   -0.62401E-05  3194   0.722E-03    0.113E-02
RMM:  10    -0.231622227224E+04    0.28379E-05   -0.24518E-05  3005   0.476E-03
  14 F= -.23370648E+04 E0= -.23370648E+04  d E =-.469684E-01  mag=     6.0000
       N       E                     dE             d eps       ncg     rms          rms(c)
DAV:   1    -0.231621814538E+04    0.41297E-02   -0.54792E+00  4512   0.179E+00    0.510E-01
RMM:   2    -0.231625208223E+04   -0.33937E-01   -0.33374E-01  6002   0.320E-01    0.630E-01
RMM:   3    -0.231625032533E+04    0.17569E-02   -0.23369E-02  5698   0.105E-01    0.315E-01
RMM:   4    -0.231624948952E+04    0.83581E-03   -0.26823E-03  4887   0.257E-02    0.138E-01
RMM:   5    -0.231624919759E+04    0.29193E-03   -0.60825E-04  4489   0.170E-02    0.803E-02
RMM:   6    -0.231624917904E+04    0.18556E-04   -0.43490E-04  4264   0.153E-02    0.553E-02
RMM:   7    -0.231624915147E+04    0.27564E-04   -0.69162E-05  3155   0.734E-03    0.187E-02
RMM:   8    -0.231624915004E+04    0.14355E-05   -0.95700E-06  2894   0.329E-03
  15 F= -.23370914E+04 E0= -.23370914E+04  d E =-.266583E-01  mag=     6.0000
       N       E                     dE             d eps       ncg     rms          rms(c)
DAV:   1    -0.231600426766E+04    0.24488E+00   -0.49025E+01  4480   0.536E+00    0.156E+00
RMM:   2    -0.231632630864E+04   -0.32204E+00   -0.31955E+00  5981   0.104E+00    0.186E+00
RMM:   3    -0.231630938136E+04    0.16927E-01   -0.22454E-01  5721   0.357E-01    0.939E-01
RMM:   4    -0.231630205354E+04    0.73278E-02   -0.25105E-02  5425   0.853E-02    0.437E-01
RMM:   5    -0.231629912786E+04    0.29257E-02   -0.62202E-03  5009   0.518E-02    0.234E-01
RMM:   6    -0.231629871603E+04    0.41183E-03   -0.36992E-03  4999   0.430E-02    0.729E-02
RMM:   7    -0.231629874973E+04   -0.33696E-04   -0.51268E-04  4576   0.180E-02    0.751E-02
RMM:   8    -0.231629870237E+04    0.47360E-04   -0.11863E-04  3199   0.679E-03    0.367E-02
RMM:   9    -0.231629869558E+04    0.67817E-05   -0.67793E-05  3056   0.606E-03
  16 F= -.23371398E+04 E0= -.23371398E+04  d E =-.750581E-01  mag=     6.0000
       N       E                     dE             d eps       ncg     rms          rms(c)
DAV:   1    -0.231623842345E+04    0.60279E-01   -0.11498E+01  4480   0.266E+00    0.743E-01
RMM:   2    -0.231631031802E+04   -0.71895E-01   -0.71870E-01  5950   0.485E-01    0.829E-01
RMM:   3    -0.231630761592E+04    0.27021E-02   -0.49686E-02  5713   0.160E-01    0.457E-01
RMM:   4    -0.231630582518E+04    0.17907E-02   -0.57330E-03  5235   0.387E-02    0.207E-01
RMM:   5    -0.231630516355E+04    0.66163E-03   -0.14442E-03  4820   0.254E-02    0.111E-01
RMM:   6    -0.231630517037E+04   -0.68181E-05   -0.89490E-04  4847   0.206E-02    0.995E-02
RMM:   7    -0.231630507999E+04    0.90381E-04   -0.21614E-04  3613   0.104E-02    0.343E-02
RMM:   8    -0.231630507196E+04    0.80337E-05   -0.27117E-05  2947   0.454E-03
  17 F= -.23371456E+04 E0= -.23371456E+04  d E =-.808237E-01  mag=     6.0000
       N       E                     dE             d eps       ncg     rms          rms(c)
DAV:   1    -0.231626944788E+04    0.35632E-01   -0.10039E+01  4480   0.264E+00    0.815E-01
RMM:   2    -0.231634507421E+04   -0.75626E-01   -0.77523E-01  5960   0.519E-01    0.725E-01
RMM:   3    -0.231634600647E+04   -0.93225E-03   -0.61492E-02  5550   0.189E-01    0.546E-01
RMM:   4    -0.231634349837E+04    0.25081E-02   -0.70160E-03  5506   0.456E-02    0.218E-01
RMM:   5    -0.231634306362E+04    0.43475E-03   -0.14899E-03  5067   0.270E-02    0.180E-01
RMM:   6    -0.231634283935E+04    0.22428E-03   -0.12187E-03  5322   0.213E-02    0.132E-01
RMM:   7    -0.231634267874E+04    0.16061E-03   -0.33002E-04  4520   0.147E-02    0.296E-02
RMM:   8    -0.231634267598E+04    0.27539E-05   -0.48497E-05  3030   0.601E-03
  18 F= -.23371835E+04 E0= -.23371835E+04  d E =-.379579E-01  mag=     6.0000
       N       E                     dE             d eps       ncg     rms          rms(c)
DAV:   1    -0.231626510779E+04    0.77571E-01   -0.12444E+01  4480   0.297E+00    0.908E-01
RMM:   2    -0.231635909139E+04   -0.93984E-01   -0.96630E-01  5947   0.564E-01    0.786E-01
RMM:   3    -0.231636060931E+04   -0.15179E-02   -0.76235E-02  5508   0.200E-01    0.612E-01
RMM:   4    -0.231635743997E+04    0.31693E-02   -0.86520E-03  5505   0.494E-02    0.247E-01
RMM:   5    -0.231635693986E+04    0.50011E-03   -0.19333E-03  5141   0.296E-02    0.214E-01
RMM:   6    -0.231635656263E+04    0.37723E-03   -0.15682E-03  5358   0.238E-02    0.144E-01
RMM:   7    -0.231635636838E+04    0.19425E-03   -0.42991E-04  4676   0.163E-02    0.329E-02
RMM:   8    -0.231635636561E+04    0.27652E-05   -0.61584E-05  3126   0.674E-03
  19 F= -.23371977E+04 E0= -.23371977E+04  d E =-.520885E-01  mag=     6.0000
       N       E                     dE             d eps       ncg     rms          rms(c)
DAV:   1    -0.231632847511E+04    0.27893E-01   -0.11143E+01  4480   0.264E+00    0.757E-01
RMM:   2    -0.231639071964E+04   -0.62245E-01   -0.65012E-01  5899   0.468E-01    0.567E-01
RMM:   3    -0.231639222884E+04   -0.15092E-02   -0.43838E-02  5412   0.159E-01    0.546E-01
RMM:   4    -0.231638962405E+04    0.26048E-02   -0.53899E-03  5589   0.405E-02    0.214E-01
RMM:   5    -0.231638925509E+04    0.36896E-03   -0.17629E-03  4989   0.250E-02    0.180E-01
RMM:   6    -0.231638903835E+04    0.21674E-03   -0.13217E-03  5280   0.217E-02    0.128E-01
RMM:   7    -0.231638889459E+04    0.14377E-03   -0.25442E-04  4007   0.125E-02    0.262E-02
RMM:   8    -0.231638889315E+04    0.14381E-05   -0.32287E-05  2971   0.491E-03
  20 F= -.23372302E+04 E0= -.23372302E+04  d E =-.325262E-01  mag=     6.0000
       N       E                     dE             d eps       ncg     rms          rms(c)
DAV:   1    -0.231633176755E+04    0.57127E-01   -0.12472E+01  4480   0.277E+00    0.797E-01
RMM:   2    -0.231640061844E+04   -0.68851E-01   -0.72033E-01  5871   0.490E-01    0.567E-01
RMM:   3    -0.231640280462E+04   -0.21862E-02   -0.52740E-02  5398   0.173E-01    0.550E-01
RMM:   4    -0.231640016403E+04    0.26406E-02   -0.62815E-03  5692   0.425E-02    0.231E-01
RMM:   5    -0.231639974715E+04    0.41688E-03   -0.18563E-03  4972   0.254E-02    0.195E-01
RMM:   6    -0.231639945747E+04    0.28969E-03   -0.14935E-03  5283   0.228E-02    0.133E-01
RMM:   7    -0.231639929952E+04    0.15795E-03   -0.29360E-04  4277   0.136E-02    0.275E-02
RMM:   8    -0.231639929710E+04    0.24202E-05   -0.37175E-05  2988   0.522E-03
  21 F= -.23372405E+04 E0= -.23372405E+04  d E =-.428158E-01  mag=     6.0000
       N       E                     dE             d eps       ncg     rms          rms(c)
DAV:   1    -0.231637777644E+04    0.21523E-01   -0.10246E+01  4480   0.240E+00    0.641E-01
RMM:   2    -0.231641966935E+04   -0.41893E-01   -0.45085E-01  5629   0.396E-01    0.410E-01
RMM:   3    -0.231642009516E+04   -0.42580E-03   -0.35083E-02  5150   0.155E-01    0.348E-01
RMM:   4    -0.231641944115E+04    0.65401E-03   -0.40302E-03  5580   0.344E-02    0.250E-01
RMM:   5    -0.231641866900E+04    0.77215E-03   -0.14446E-03  4948   0.253E-02    0.985E-02
RMM:   6    -0.231641866087E+04    0.81296E-05   -0.61300E-04  4533   0.180E-02    0.889E-02
RMM:   7    -0.231641860091E+04    0.59956E-04   -0.17746E-04  3325   0.867E-03    0.334E-02
RMM:   8    -0.231641859514E+04    0.57763E-05   -0.28410E-05  2948   0.468E-03
  22 F= -.23372578E+04 E0= -.23372578E+04  d E =-.173349E-01  mag=     6.0000
       N       E                     dE             d eps       ncg     rms          rms(c)
DAV:   1    -0.231641853854E+04    0.62376E-04   -0.54325E-03  5344   0.545E-02    0.152E-02
RMM:   2    -0.231641856181E+04   -0.23271E-04   -0.22689E-04  3646   0.990E-03    0.984E-03
RMM:   3    -0.231641856337E+04   -0.15582E-05   -0.20334E-05  2874   0.499E-03
  23 F= -.23372578E+04 E0= -.23372578E+04  d E =-.173509E-01  mag=     6.0000
       N       E                     dE             d eps       ncg     rms          rms(c)
DAV:   1    -0.231639793642E+04    0.20625E-01   -0.58214E+00  4512   0.195E+00    0.563E-01
RMM:   2    -0.231643557893E+04   -0.37643E-01   -0.39338E-01  5760   0.355E-01    0.369E-01
RMM:   3    -0.231643721448E+04   -0.16355E-02   -0.32351E-02  5219   0.138E-01    0.334E-01
RMM:   4    -0.231643615833E+04    0.10562E-02   -0.35811E-03  5421   0.302E-02    0.153E-01
RMM:   5    -0.231643578612E+04    0.37221E-03   -0.10194E-03  4979   0.206E-02    0.985E-02
RMM:   6    -0.231643579389E+04   -0.77659E-05   -0.53344E-04  4611   0.151E-02    0.108E-01
RMM:   7    -0.231643569363E+04    0.10026E-03   -0.16232E-04  3549   0.917E-03    0.291E-02
RMM:   8    -0.231643568614E+04    0.74834E-05   -0.22202E-05  2922   0.480E-03
  24 F= -.23372736E+04 E0= -.23372736E+04  d E =-.157241E-01  mag=     6.0000
       N       E                     dE             d eps       ncg     rms          rms(c)
DAV:   1    -0.231642580017E+04    0.98935E-02   -0.19881E+00  4512   0.114E+00    0.330E-01
RMM:   2    -0.231643871899E+04   -0.12919E-01   -0.13501E-01  5800   0.207E-01    0.222E-01
RMM:   3    -0.231643922060E+04   -0.50161E-03   -0.10829E-02  5207   0.809E-02    0.195E-01
RMM:   4    -0.231643888690E+04    0.33370E-03   -0.12311E-03  4742   0.177E-02    0.885E-02
RMM:   5    -0.231643874568E+04    0.14122E-03   -0.33777E-04  4299   0.129E-02    0.431E-02
RMM:   6    -0.231643874227E+04    0.34103E-05   -0.14248E-04  3842   0.949E-03    0.391E-02
RMM:   7    -0.231643873186E+04    0.10413E-04   -0.37940E-05  2963   0.616E-03    0.233E-02
RMM:   8    -0.231643872718E+04    0.46778E-05   -0.75707E-06  2870   0.310E-03
  25 F= -.23372758E+04 E0= -.23372758E+04  d E =-.179286E-01  mag=     6.0000
       N       E                     dE             d eps       ncg     rms          rms(c)
DAV:   1    -0.231640095941E+04    0.37772E-01   -0.63141E+00  4480   0.211E+00    0.602E-01
RMM:   2    -0.231645298391E+04   -0.52025E-01   -0.53246E-01  5839   0.395E-01    0.496E-01
RMM:   3    -0.231645484710E+04   -0.18632E-02   -0.45543E-02  5311   0.152E-01    0.379E-01
RMM:   4    -0.231645358211E+04    0.12650E-02   -0.47040E-03  5396   0.319E-02    0.166E-01
RMM:   5    -0.231645319752E+04    0.38459E-03   -0.89322E-04  4822   0.194E-02    0.120E-01
RMM:   6    -0.231645319188E+04    0.56369E-05   -0.76404E-04  4850   0.169E-02    0.130E-01
RMM:   7    -0.231645305078E+04    0.14110E-03   -0.20610E-04  3793   0.108E-02    0.248E-02
RMM:   8    -0.231645304585E+04    0.49303E-05   -0.32500E-05  2928   0.533E-03
  26 F= -.23372891E+04 E0= -.23372891E+04  d E =-.133577E-01  mag=     6.0000
       N       E                     dE             d eps       ncg     rms          rms(c)
DAV:   1    -0.231643205566E+04    0.20995E-01   -0.28983E+00  4480   0.143E+00    0.409E-01
RMM:   2    -0.231645596753E+04   -0.23912E-01   -0.24440E-01  5853   0.269E-01    0.343E-01
RMM:   3    -0.231645671041E+04   -0.74288E-03   -0.20430E-02  5277   0.107E-01    0.253E-01
RMM:   4    -0.231645620095E+04    0.50946E-03   -0.21862E-03  5009   0.219E-02    0.112E-01
RMM:   5    -0.231645602045E+04    0.18049E-03   -0.40681E-04  4357   0.138E-02    0.772E-02
RMM:   6    -0.231645602625E+04   -0.57989E-05   -0.33697E-04  4313   0.120E-02    0.891E-02
RMM:   7    -0.231645595954E+04    0.66709E-04   -0.92783E-05  3205   0.816E-03    0.170E-02
RMM:   8    -0.231645595775E+04    0.17929E-05   -0.16433E-05  2905   0.424E-03
  27 F= -.23372914E+04 E0= -.23372914E+04  d E =-.155993E-01  mag=     6.0000
       N       E                     dE             d eps       ncg     rms          rms(c)
DAV:   1    -0.231643845779E+04    0.17502E-01   -0.40622E+00  4480   0.178E+00    0.478E-01
RMM:   2    -0.231646390991E+04   -0.25452E-01   -0.27067E-01  5705   0.312E-01    0.316E-01
RMM:   3    -0.231646471621E+04   -0.80630E-03   -0.19786E-02  5213   0.117E-01    0.285E-01
RMM:   4    -0.231646404004E+04    0.67617E-03   -0.24746E-03  5401   0.260E-02    0.137E-01
RMM:   5    -0.231646381602E+04    0.22401E-03   -0.60501E-04  4850   0.173E-02    0.101E-01
RMM:   6    -0.231646380104E+04    0.14978E-04   -0.48757E-04  4569   0.150E-02    0.892E-02
RMM:   7    -0.231646372376E+04    0.77281E-04   -0.11534E-04  3536   0.867E-03    0.197E-02
RMM:   8    -0.231646371855E+04    0.52155E-05   -0.17243E-05  2907   0.492E-03
  28 F= -.23372993E+04 E0= -.23372993E+04  d E =-.795839E-02  mag=     6.0000
       N       E                     dE             d eps       ncg     rms          rms(c)
DAV:   1    -0.231646254623E+04    0.11775E-02   -0.22266E-01  4720   0.416E-01    0.113E-01
RMM:   2    -0.231646395553E+04   -0.14093E-02   -0.14916E-02  5904   0.742E-02    0.803E-02
RMM:   3    -0.231646398961E+04   -0.34080E-04   -0.10772E-03  4171   0.268E-02    0.673E-02
RMM:   4    -0.231646395168E+04    0.37929E-04   -0.13451E-04  3040   0.691E-03    0.321E-02
RMM:   5    -0.231646393841E+04    0.13275E-04   -0.33825E-05  2980   0.507E-03    0.256E-02
RMM:   6    -0.231646393577E+04    0.26336E-05   -0.29645E-05  2939   0.499E-03
  29 F= -.23372996E+04 E0= -.23372996E+04  d E =-.822128E-02  mag=     6.0000
       N       E                     dE             d eps       ncg     rms          rms(c)
DAV:   1    -0.231644922917E+04    0.14709E-01   -0.24276E+00  4512   0.146E+00    0.379E-01
RMM:   2    -0.231646753375E+04   -0.18305E-01   -0.19615E-01  5563   0.258E-01    0.222E-01
RMM:   3    -0.231646823823E+04   -0.70448E-03   -0.17964E-02  4894   0.111E-01    0.136E-01
RMM:   4    -0.231646807384E+04    0.16438E-03   -0.19293E-03  4794   0.232E-02    0.874E-02
RMM:   5    -0.231646811776E+04   -0.43917E-04   -0.45985E-04  4269   0.159E-02    0.127E-01
RMM:   6    -0.231646794856E+04    0.16919E-03   -0.19700E-04  3850   0.950E-03    0.206E-02
RMM:   7    -0.231646794867E+04   -0.10940E-06   -0.47903E-05  3006   0.639E-03
  30 F= -.23373039E+04 E0= -.23373039E+04  d E =-.431351E-02  mag=     6.0000
       N       E                     dE             d eps       ncg     rms          rms(c)
DAV:   1    -0.231646793895E+04    0.96133E-05   -0.47447E-03  5360   0.647E-02    0.192E-02
RMM:   2    -0.231646797976E+04   -0.40809E-04   -0.36694E-04  4370   0.126E-02    0.292E-02
RMM:   3    -0.231646797488E+04    0.48763E-05   -0.39468E-05  2891   0.606E-03
  31 F= -.23373039E+04 E0= -.23373039E+04  d E =-.432640E-02  mag=     6.0000
       N       E                     dE             d eps       ncg     rms          rms(c)
DAV:   1    -0.231645052388E+04    0.17456E-01   -0.23383E+00  4512   0.149E+00    0.384E-01
RMM:   2    -0.231647010480E+04   -0.19581E-01   -0.20758E-01  5519   0.264E-01    0.249E-01
RMM:   3    -0.231647116238E+04   -0.10576E-02   -0.18427E-02  4955   0.109E-01    0.225E-01
RMM:   4    -0.231647077315E+04    0.38923E-03   -0.19223E-03  5297   0.215E-02    0.113E-01
RMM:   5    -0.231647057657E+04    0.19658E-03   -0.45665E-04  4698   0.154E-02    0.650E-02
RMM:   6    -0.231647057334E+04    0.32361E-05   -0.28914E-04  4277   0.126E-02    0.681E-02
RMM:   7    -0.231647053142E+04    0.41913E-04   -0.67044E-05  3102   0.731E-03    0.168E-02
RMM:   8    -0.231647052726E+04    0.41669E-05   -0.12007E-05  2897   0.387E-03
  32 F= -.23373072E+04 E0= -.23373072E+04  d E =-.326576E-02  mag=     6.0000
       N       E                     dE             d eps       ncg     rms          rms(c)
DAV:   1    -0.231647051750E+04    0.13918E-04   -0.74747E-03  5200   0.843E-02    0.218E-02
RMM:   2    -0.231647057905E+04   -0.61547E-04   -0.64569E-04  5075   0.160E-02    0.162E-02
RMM:   3    -0.231647058345E+04   -0.43948E-05   -0.68282E-05  2921   0.707E-03
  33 F= -.23373072E+04 E0= -.23373072E+04  d E =-.328164E-02  mag=     6.0000
       N       E                     dE             d eps       ncg     rms          rms(c)
DAV:   1    -0.231646052931E+04    0.10050E-01   -0.16630E+00  4512   0.131E+00    0.332E-01
RMM:   2    -0.231647448645E+04   -0.13957E-01   -0.14306E-01  5633   0.233E-01    0.312E-01
RMM:   3    -0.231647472632E+04   -0.23987E-03   -0.12690E-02  5026   0.921E-02    0.226E-01
RMM:   4    -0.231647427644E+04    0.44988E-03   -0.13846E-03  5072   0.192E-02    0.871E-02
RMM:   5    -0.231647422166E+04    0.54779E-04   -0.24838E-04  4027   0.117E-02    0.855E-02
RMM:   6    -0.231647414783E+04    0.73828E-04   -0.21228E-04  4166   0.105E-02    0.430E-02
RMM:   7    -0.231647413196E+04    0.15872E-04   -0.64565E-05  3272   0.808E-03    0.978E-03
RMM:   8    -0.231647413135E+04    0.61028E-06   -0.10434E-05  2880   0.479E-03
  34 F= -.23373108E+04 E0= -.23373108E+04  d E =-.364011E-02  mag=     6.0000
       N       E                     dE             d eps       ncg     rms          rms(c)
DAV:   1    -0.231644897069E+04    0.25161E-01   -0.30866E+00  4480   0.178E+00    0.451E-01
RMM:   2    -0.231647484784E+04   -0.25877E-01   -0.26593E-01  5674   0.318E-01    0.416E-01
RMM:   3    -0.231647549617E+04   -0.64833E-03   -0.24292E-02  5064   0.124E-01    0.309E-01
RMM:   4    -0.231647466677E+04    0.82940E-03   -0.25872E-03  5359   0.260E-02    0.120E-01
RMM:   5    -0.231647454572E+04    0.12105E-03   -0.47877E-04  4657   0.156E-02    0.111E-01
RMM:   6    -0.231647443026E+04    0.11546E-03   -0.39061E-04  4615   0.137E-02    0.651E-02
RMM:   7    -0.231647439399E+04    0.36271E-04   -0.12150E-04  3838   0.101E-02    0.140E-02
RMM:   8    -0.231647439209E+04    0.18963E-05   -0.16471E-05  2899   0.525E-03
  35 F= -.23373112E+04 E0= -.23373112E+04  d E =-.402979E-02  mag=     6.0000
       N       E                     dE             d eps       ncg     rms          rms(c)
DAV:   1    -0.231647079337E+04    0.36006E-02   -0.50516E-01  4512   0.720E-01    0.182E-01
RMM:   2    -0.231647506960E+04   -0.42762E-02   -0.43541E-02  5689   0.129E-01    0.177E-01
RMM:   3    -0.231647508965E+04   -0.20047E-04   -0.37362E-03  4888   0.512E-02    0.117E-01
RMM:   4    -0.231647496841E+04    0.12124E-03   -0.40933E-04  3737   0.107E-02    0.473E-02
RMM:   5    -0.231647494809E+04    0.20312E-04   -0.71694E-05  3130   0.735E-03    0.444E-02
RMM:   6    -0.231647492953E+04    0.18568E-04   -0.62248E-05  3065   0.684E-03    0.252E-02
RMM:   7    -0.231647492478E+04    0.47424E-05   -0.22392E-05  2941   0.554E-03
  36 F= -.23373117E+04 E0= -.23373117E+04  d E =-.450988E-02  mag=     6.0000
       N       E                     dE             d eps       ncg     rms          rms(c)
DAV:   1    -0.231646905333E+04    0.58762E-02   -0.11247E+00  4480   0.108E+00    0.266E-01
RMM:   2    -0.231647849952E+04   -0.94462E-02   -0.94905E-02  5881   0.195E-01    0.267E-01
RMM:   3    -0.231647840586E+04    0.93659E-04   -0.72948E-03  5233   0.646E-02    0.169E-01
RMM:   4    -0.231647816378E+04    0.24208E-03   -0.81634E-04  4565   0.150E-02    0.699E-02
RMM:   5    -0.231647812982E+04    0.33959E-04   -0.14156E-04  3557   0.985E-03    0.677E-02
RMM:   6    -0.231647808859E+04    0.41234E-04   -0.14168E-04  3877   0.921E-03    0.393E-02
RMM:   7    -0.231647807644E+04    0.12151E-04   -0.40797E-05  3007   0.704E-03    0.808E-03
RMM:   8    -0.231647807618E+04    0.25806E-06   -0.69461E-06  2856   0.411E-03
  37 F= -.23373146E+04 E0= -.23373146E+04  d E =-.289438E-02  mag=     6.0000
       N       E                     dE             d eps       ncg     rms          rms(c)
DAV:   1    -0.231646729495E+04    0.10781E-01   -0.15576E+00  4464   0.127E+00    0.315E-01
RMM:   2    -0.231648044790E+04   -0.13153E-01   -0.13210E-01  5773   0.229E-01    0.318E-01
RMM:   3    -0.231648029372E+04    0.15418E-03   -0.10262E-02  5115   0.786E-02    0.200E-01
RMM:   4    -0.231647996413E+04    0.32959E-03   -0.11534E-03  4898   0.177E-02    0.829E-02
RMM:   5    -0.231647992186E+04    0.42266E-04   -0.19603E-04  3850   0.111E-02    0.814E-02
RMM:   6    -0.231647986103E+04    0.60839E-04   -0.19674E-04  4166   0.103E-02    0.451E-02
RMM:   7    -0.231647984515E+04    0.15880E-04   -0.55878E-05  3118   0.793E-03    0.974E-03
RMM:   8    -0.231647984473E+04    0.41942E-06   -0.87574E-06  2866   0.435E-03
  38 F= -.23373161E+04 E0= -.23373161E+04  d E =-.435957E-02  mag=     6.0000
       N       E                     dE             d eps       ncg     rms          rms(c)
DAV:   1    -0.231647900040E+04    0.84475E-03   -0.12117E-01  4672   0.354E-01    0.886E-02
RMM:   2    -0.231648002959E+04   -0.10292E-02   -0.10310E-02  5892   0.643E-02    0.903E-02
RMM:   3    -0.231648001432E+04    0.15273E-04   -0.78770E-04  3821   0.225E-02    0.555E-02
RMM:   4    -0.231647998908E+04    0.25235E-04   -0.88537E-05  3012   0.585E-03    0.229E-02
RMM:   5    -0.231647998574E+04    0.33386E-05   -0.16584E-05  2911   0.385E-03
  39 F= -.23373161E+04 E0= -.23373161E+04  d E =-.441585E-02  mag=     6.0000
       N       E                     dE             d eps       ncg     rms          rms(c)
DAV:   1    -0.231647463031E+04    0.53588E-02   -0.13128E+00  4480   0.117E+00    0.270E-01
RMM:   2    -0.231648379949E+04   -0.91692E-02   -0.94004E-02  5785   0.205E-01    0.239E-01
RMM:   3    -0.231648375855E+04    0.40942E-04   -0.70391E-03  5113   0.712E-02    0.175E-01
RMM:   4    -0.231648349902E+04    0.25952E-03   -0.80981E-04  4807   0.163E-02    0.781E-02
RMM:   5    -0.231648342048E+04    0.78540E-04   -0.19944E-04  4223   0.120E-02    0.419E-02
RMM:   6    -0.231648343809E+04   -0.17602E-04   -0.13347E-04  3717   0.947E-03    0.589E-02
RMM:   7    -0.231648340822E+04    0.29864E-04   -0.38267E-05  2949   0.644E-03    0.100E-02
RMM:   8    -0.231648340785E+04    0.37177E-06   -0.68090E-06  2886   0.299E-03
  40 F= -.23373191E+04 E0= -.23373191E+04  d E =-.296598E-02  mag=     6.0000
       N       E                     dE             d eps       ncg     rms          rms(c)
DAV:   1    -0.231646698425E+04    0.16424E-01   -0.27791E+00  4480   0.170E+00    0.397E-01
RMM:   2    -0.231648661980E+04   -0.19636E-01   -0.20049E-01  5663   0.298E-01    0.364E-01
RMM:   3    -0.231648640731E+04    0.21248E-03   -0.15071E-02  5076   0.106E-01    0.257E-01
RMM:   4    -0.231648586594E+04    0.54138E-03   -0.17353E-03  5203   0.235E-02    0.114E-01
RMM:   5    -0.231648574817E+04    0.11777E-03   -0.41840E-04  4588   0.160E-02    0.915E-02
RMM:   6    -0.231648571704E+04    0.31130E-04   -0.32605E-04  4459   0.128E-02    0.779E-02
RMM:   7    -0.231648566782E+04    0.49223E-04   -0.82351E-05  3310   0.859E-03    0.141E-02
RMM:   8    -0.231648566699E+04    0.82733E-06   -0.13679E-05  2918   0.459E-03
  41 F= -.23373207E+04 E0= -.23373207E+04  d E =-.456705E-02  mag=     6.0000
       N       E                     dE             d eps       ncg     rms          rms(c)
DAV:   1    -0.231648164282E+04    0.40250E-02   -0.17122E+00  4480   0.126E+00    0.280E-01
RMM:   2    -0.231648894142E+04   -0.72986E-02   -0.76669E-02  5477   0.204E-01    0.223E-01
RMM:   3    -0.231648880292E+04    0.13849E-03   -0.48165E-03  4936   0.743E-02    0.195E-01
RMM:   4    -0.231648844331E+04    0.35961E-03   -0.65013E-04  5062   0.170E-02    0.881E-02
RMM:   5    -0.231648838965E+04    0.53663E-04   -0.34122E-04  4419   0.140E-02    0.705E-02
RMM:   6    -0.231648836859E+04    0.21059E-04   -0.17704E-04  3720   0.105E-02    0.481E-02
RMM:   7    -0.231648834811E+04    0.20484E-04   -0.31661E-05  2945   0.587E-03    0.104E-02
RMM:   8    -0.231648834741E+04    0.70047E-06   -0.69230E-06  2888   0.319E-03
  42 F= -.23373233E+04 E0= -.23373233E+04  d E =-.258429E-02  mag=     6.0000
       N       E                     dE             d eps       ncg     rms          rms(c)
DAV:   1    -0.231648624421E+04    0.21039E-02   -0.63368E-01  4512   0.768E-01    0.170E-01
RMM:   2    -0.231648894053E+04   -0.26963E-02   -0.28309E-02  5537   0.124E-01    0.136E-01
RMM:   3    -0.231648888699E+04    0.53534E-04   -0.17486E-03  4744   0.425E-02    0.118E-01
RMM:   4    -0.231648875352E+04    0.13348E-03   -0.23614E-04  3910   0.104E-02    0.537E-02
RMM:   5    -0.231648873153E+04    0.21985E-04   -0.12619E-04  3663   0.908E-03    0.428E-02
RMM:   6    -0.231648872351E+04    0.80169E-05   -0.66880E-05  3054   0.732E-03
  43 F= -.23373236E+04 E0= -.23373236E+04  d E =-.290342E-02  mag=     6.0000
       N       E                     dE             d eps       ncg     rms          rms(c)
DAV:   1    -0.231648643170E+04    0.22998E-02   -0.14563E+00  4464   0.118E+00    0.265E-01
RMM:   2    -0.231649167487E+04   -0.52432E-02   -0.56920E-02  5380   0.184E-01    0.196E-01
RMM:   3    -0.231649144127E+04    0.23360E-03   -0.34351E-03  4922   0.632E-02    0.169E-01
RMM:   4    -0.231649122529E+04    0.21598E-03   -0.49739E-04  4909   0.152E-02    0.941E-02
RMM:   5    -0.231649115973E+04    0.65569E-04   -0.26944E-04  4377   0.135E-02    0.385E-02
RMM:   6    -0.231649118008E+04   -0.20355E-04   -0.10012E-04  3294   0.966E-03    0.530E-02
RMM:   7    -0.231649115394E+04    0.26138E-04   -0.35599E-05  2935   0.541E-03    0.952E-03
RMM:   8    -0.231649115342E+04    0.51796E-06   -0.53613E-06  2880   0.293E-03
  44 F= -.23373259E+04 E0= -.23373259E+04  d E =-.228924E-02  mag=     6.0000
       N       E                     dE             d eps       ncg     rms          rms(c)
DAV:   1    -0.231648990774E+04    0.12462E-02   -0.54416E-01  4480   0.721E-01    0.161E-01
RMM:   2    -0.231649189253E+04   -0.19848E-02   -0.21446E-02  5291   0.113E-01    0.122E-01
RMM:   3    -0.231649179510E+04    0.97435E-04   -0.12690E-03  4720   0.406E-02    0.106E-01
RMM:   4    -0.231649170639E+04    0.88706E-04   -0.18600E-04  3872   0.962E-03    0.570E-02
RMM:   5    -0.231649167802E+04    0.28373E-04   -0.10123E-04  3742   0.881E-03    0.214E-02
RMM:   6    -0.231649168478E+04   -0.67597E-05   -0.33933E-05  2957   0.654E-03
  45 F= -.23373263E+04 E0= -.23373263E+04  d E =-.273627E-02  mag=     6.0000
       N       E                     dE             d eps       ncg     rms          rms(c)
DAV:   1    -0.231648886353E+04    0.28145E-02   -0.14874E+00  4480   0.118E+00    0.278E-01
RMM:   2    -0.231649503036E+04   -0.61668E-02   -0.66520E-02  5310   0.187E-01    0.176E-01
RMM:   3    -0.231649495414E+04    0.76214E-04   -0.45551E-03  4768   0.682E-02    0.157E-01
RMM:   4    -0.231649478501E+04    0.16914E-03   -0.57872E-04  4860   0.155E-02    0.917E-02
RMM:   5    -0.231649471405E+04    0.70959E-04   -0.27758E-04  4320   0.131E-02    0.389E-02
RMM:   6    -0.231649472261E+04   -0.85613E-05   -0.90365E-05  3439   0.894E-03
  46 F= -.23373292E+04 E0= -.23373292E+04  d E =-.289864E-02  mag=     6.0000
       N       E                     dE             d eps       ncg     rms          rms(c)
DAV:   1    -0.231648394369E+04    0.10770E-01   -0.30998E+00  4480   0.170E+00    0.401E-01
RMM:   2    -0.231649677769E+04   -0.12834E-01   -0.13885E-01  5314   0.270E-01    0.246E-01
RMM:   3    -0.231649660253E+04    0.17515E-03   -0.95642E-03  4813   0.101E-01    0.210E-01
RMM:   4    -0.231649634490E+04    0.25764E-03   -0.12097E-03  5470   0.225E-02    0.137E-01
RMM:   5    -0.231649620560E+04    0.13930E-03   -0.56702E-04  4667   0.177E-02    0.687E-02
RMM:   6    -0.231649621017E+04   -0.45743E-05   -0.22654E-04  4277   0.126E-02    0.573E-02
RMM:   7    -0.231649618220E+04    0.27978E-04   -0.61465E-05  3013   0.653E-03    0.268E-02
RMM:   8    -0.231649617509E+04    0.71037E-05   -0.11033E-05  2905   0.357E-03
  47 F= -.23373305E+04 E0= -.23373305E+04  d E =-.415478E-02  mag=     6.0000
       N       E                     dE             d eps       ncg     rms          rms(c)
DAV:   1    -0.231649339976E+04    0.27824E-02   -0.12517E+00  4480   0.108E+00    0.252E-01
RMM:   2    -0.231649870409E+04   -0.53043E-02   -0.57196E-02  5272   0.169E-01    0.168E-01
RMM:   3    -0.231649865158E+04    0.52508E-04   -0.42198E-03  4767   0.660E-02    0.143E-01
RMM:   4    -0.231649852454E+04    0.12704E-03   -0.51432E-04  4684   0.143E-02    0.865E-02
RMM:   5    -0.231649846281E+04    0.61725E-04   -0.22918E-04  4157   0.120E-02    0.371E-02
RMM:   6    -0.231649846034E+04    0.24757E-05   -0.69601E-05  3395   0.824E-03
  48 F= -.23373325E+04 E0= -.23373325E+04  d E =-.199817E-02  mag=     6.0000
       N       E                     dE             d eps       ncg     rms          rms(c)
DAV:   1    -0.231647759834E+04    0.20864E-01   -0.55121E+00  4480   0.226E+00    0.530E-01
RMM:   2    -0.231650079178E+04   -0.23193E-01   -0.25127E-01  5300   0.354E-01    0.343E-01
RMM:   3    -0.231650066390E+04    0.12788E-03   -0.18973E-02  4794   0.136E-01    0.291E-01
RMM:   4    -0.231650015216E+04    0.51174E-03   -0.22950E-03  5636   0.296E-02    0.182E-01
RMM:   5    -0.231649988137E+04    0.27079E-03   -0.10082E-03  4844   0.233E-02    0.780E-02
RMM:   6    -0.231649986723E+04    0.14147E-04   -0.29376E-04  4604   0.151E-02    0.317E-02
RMM:   7    -0.231649986015E+04    0.70749E-05   -0.40874E-05  3055   0.628E-03
  49 F= -.23373333E+04 E0= -.23373333E+04  d E =-.280161E-02  mag=     6.0000
       N       E                     dE             d eps       ncg     rms          rms(c)
DAV:   1    -0.231649836374E+04    0.15035E-02   -0.39803E-01  4592   0.608E-01    0.139E-01
RMM:   2    -0.231650000846E+04   -0.16447E-02   -0.17677E-02  5544   0.950E-02    0.964E-02
RMM:   3    -0.231650000617E+04    0.22836E-05   -0.13404E-03  4593   0.377E-02    0.827E-02
RMM:   4    -0.231649995689E+04    0.49288E-04   -0.15339E-04  3289   0.851E-03    0.488E-02
RMM:   5    -0.231649993343E+04    0.23456E-04   -0.75412E-05  3458   0.759E-03    0.174E-02
RMM:   6    -0.231649993670E+04   -0.32742E-05   -0.21908E-05  2960   0.570E-03
  50 F= -.23373335E+04 E0= -.23373335E+04  d E =-.303729E-02  mag=     6.0000
       N       E                     dE             d eps       ncg     rms          rms(c)
DAV:   1    -0.231649780258E+04    0.21309E-02   -0.45396E-01  4512   0.650E-01    0.153E-01
RMM:   2    -0.231649972114E+04   -0.19186E-02   -0.20763E-02  5336   0.102E-01    0.988E-02
RMM:   3    -0.231649971774E+04    0.34034E-05   -0.15832E-03  4521   0.405E-02    0.854E-02
RMM:   4    -0.231649967191E+04    0.45830E-04   -0.18730E-04  3496   0.880E-03    0.529E-02
RMM:   5    -0.231649964737E+04    0.24545E-04   -0.71241E-05  3246   0.730E-03    0.227E-02
RMM:   6    -0.231649965000E+04   -0.26321E-05   -0.31181E-05  2952   0.599E-03
  51 F= -.23373334E+04 E0= -.23373334E+04  d E =-.292165E-02  mag=     6.0000
       N       E                     dE             d eps       ncg     rms          rms(c)
DAV:   1    -0.231650013010E+04   -0.48273E-03   -0.96772E-02  4544   0.315E-01    0.110E-01
RMM:   2    -0.231650105295E+04   -0.92286E-03   -0.99923E-03  6052   0.629E-02    0.674E-02
RMM:   3    -0.231650110143E+04   -0.48474E-04   -0.10435E-03  4022   0.261E-02    0.690E-02
RMM:   4    -0.231650105807E+04    0.43355E-04   -0.10471E-04  3015   0.709E-03    0.310E-02
RMM:   5    -0.231650105158E+04    0.64947E-05   -0.38623E-05  2956   0.505E-03
  52 F= -.23373346E+04 E0= -.23373346E+04  d E =-.120177E-02  mag=     6.0000
       N       E                     dE             d eps       ncg     rms          rms(c)
DAV:   1    -0.231650061386E+04    0.44421E-03   -0.10298E-01  4512   0.324E-01    0.116E-01
RMM:   2    -0.231650159761E+04   -0.98375E-03   -0.10522E-02  6069   0.644E-02    0.870E-02
RMM:   3    -0.231650163725E+04   -0.39640E-04   -0.12402E-03  4065   0.275E-02    0.775E-02
RMM:   4    -0.231650157917E+04    0.58083E-04   -0.11594E-04  3017   0.764E-03    0.299E-02
RMM:   5    -0.231650157768E+04    0.14916E-05   -0.54502E-05  3018   0.593E-03
  53 F= -.23373349E+04 E0= -.23373349E+04  d E =-.152033E-02  mag=     6.0000
       N       E                     dE             d eps       ncg     rms          rms(c)
DAV:   1    -0.231650141580E+04    0.16337E-03   -0.11925E-01  4512   0.355E-01    0.979E-02
RMM:   2    -0.231650252854E+04   -0.11127E-02   -0.11605E-02  6235   0.679E-02    0.846E-02
RMM:   3    -0.231650254785E+04   -0.19306E-04   -0.10979E-03  3823   0.233E-02    0.633E-02
RMM:   4    -0.231650251388E+04    0.33967E-04   -0.10329E-04  3009   0.692E-03    0.300E-02
RMM:   5    -0.231650251039E+04    0.34885E-05   -0.27742E-05  2924   0.421E-03
  54 F= -.23373357E+04 E0= -.23373357E+04  d E =-.742233E-03  mag=     6.0000
       N       E                     dE             d eps       ncg     rms          rms(c)
DAV:   1    -0.231650071432E+04    0.17996E-02   -0.26409E-01  4512   0.527E-01    0.145E-01
RMM:   2    -0.231650317861E+04   -0.24643E-02   -0.25794E-02  6030   0.973E-02    0.119E-01
RMM:   3    -0.231650321251E+04   -0.33903E-04   -0.21047E-03  4502   0.345E-02    0.933E-02
RMM:   4    -0.231650313513E+04    0.77384E-04   -0.21933E-04  3199   0.896E-03    0.392E-02
RMM:   5    -0.231650311662E+04    0.18513E-04   -0.64978E-05  3299   0.684E-03    0.355E-02
RMM:   6    -0.231650310887E+04    0.77477E-05   -0.39958E-05  2940   0.613E-03
  55 F= -.23373360E+04 E0= -.23373360E+04  d E =-.105700E-02  mag=     6.0000
       N       E                     dE             d eps       ncg     rms          rms(c)
DAV:   1    -0.231650303024E+04    0.86372E-04   -0.13984E-01  4512   0.391E-01    0.938E-02
RMM:   2    -0.231650385170E+04   -0.82145E-03   -0.86540E-03  5884   0.680E-02    0.713E-02
RMM:   3    -0.231650385330E+04   -0.15980E-05   -0.62198E-04  4063   0.225E-02    0.602E-02
RMM:   4    -0.231650382137E+04    0.31928E-04   -0.77749E-05  3022   0.656E-03    0.272E-02
RMM:   5    -0.231650381405E+04    0.73194E-05   -0.31336E-05  2971   0.526E-03
  56 F= -.23373367E+04 E0= -.23373367E+04  d E =-.727044E-03  mag=     6.0000
       N       E                     dE             d eps       ncg     rms          rms(c)
DAV:   1    -0.231650307521E+04    0.74616E-03   -0.17094E-01  4512   0.432E-01    0.106E-01
RMM:   2    -0.231650409143E+04   -0.10162E-02   -0.10606E-02  5962   0.758E-02    0.918E-02
RMM:   3    -0.231650406889E+04    0.22533E-04   -0.78732E-04  4164   0.258E-02    0.660E-02
RMM:   4    -0.231650402544E+04    0.43456E-04   -0.95468E-05  3066   0.742E-03    0.304E-02
RMM:   5    -0.231650401435E+04    0.11085E-04   -0.42067E-05  3205   0.610E-03    0.206E-02
RMM:   6    -0.231650401533E+04   -0.97547E-06   -0.21704E-05  2900   0.535E-03
  57 F= -.23373369E+04 E0= -.23373369E+04  d E =-.953160E-03  mag=     6.0000
       N       E                     dE             d eps       ncg     rms          rms(c)
DAV:   1    -0.231650365965E+04    0.35470E-03   -0.11653E-01  4544   0.349E-01    0.796E-02
RMM:   2    -0.231650442742E+04   -0.76777E-03   -0.80971E-03  5744   0.605E-02    0.614E-02
RMM:   3    -0.231650445066E+04   -0.23241E-04   -0.65976E-04  3922   0.233E-02    0.497E-02
RMM:   4    -0.231650443084E+04    0.19825E-04   -0.70850E-05  2978   0.562E-03    0.242E-02
RMM:   5    -0.231650442378E+04    0.70620E-05   -0.25513E-05  2959   0.442E-03
  58 F= -.23373375E+04 E0= -.23373375E+04  d E =-.598522E-03  mag=     6.0000
       N       E                     dE             d eps       ncg     rms          rms(c)
DAV:   1    -0.231650262175E+04    0.18091E-02   -0.28472E-01  4512   0.546E-01    0.124E-01
RMM:   2    -0.231650445316E+04   -0.18314E-02   -0.19316E-02  5899   0.943E-02    0.978E-02
RMM:   3    -0.231650451910E+04   -0.65939E-04   -0.17819E-03  4390   0.351E-02    0.715E-02
RMM:   4    -0.231650447124E+04    0.47856E-04   -0.17342E-04  3153   0.824E-03    0.374E-02
RMM:   5    -0.231650445093E+04    0.20314E-04   -0.74655E-05  3421   0.725E-03    0.190E-02
RMM:   6    -0.231650445334E+04   -0.24142E-05   -0.24612E-05  2939   0.570E-03
  59 F= -.23373379E+04 E0= -.23373379E+04  d E =-.926272E-03  mag=     6.0000
       N       E                     dE             d eps       ncg     rms          rms(c)
DAV:   1    -0.231650428017E+04    0.17076E-03   -0.11918E-01  4528   0.360E-01    0.872E-02
RMM:   2    -0.231650491058E+04   -0.63041E-03   -0.68062E-03  5787   0.611E-02    0.578E-02
RMM:   3    -0.231650492535E+04   -0.14764E-04   -0.52697E-04  4009   0.226E-02    0.547E-02
RMM:   4    -0.231650490159E+04    0.23756E-04   -0.61167E-05  2976   0.587E-03    0.258E-02
RMM:   5    -0.231650489489E+04    0.67050E-05   -0.26554E-05  2955   0.475E-03
  60 F= -.23373384E+04 E0= -.23373384E+04  d E =-.557823E-03  mag=     6.0000
       N       E                     dE             d eps       ncg     rms          rms(c)
DAV:   1    -0.231650391891E+04    0.98268E-03   -0.21139E-01  4496   0.479E-01    0.117E-01
RMM:   2    -0.231650504356E+04   -0.11247E-02   -0.11972E-02  5831   0.815E-02    0.885E-02
RMM:   3    -0.231650505911E+04   -0.15555E-04   -0.97229E-04  4313   0.304E-02    0.744E-02
RMM:   4    -0.231650500860E+04    0.50517E-04   -0.11201E-04  3114   0.780E-03    0.332E-02
RMM:   5    -0.231650499504E+04    0.13556E-04   -0.51989E-05  3262   0.670E-03    0.147E-02
RMM:   6    -0.231650499515E+04   -0.11042E-06   -0.15138E-05  2920   0.534E-03
  61 F= -.23373387E+04 E0= -.23373387E+04  d E =-.813819E-03  mag=     6.0000
       N       E                     dE             d eps       ncg     rms          rms(c)
DAV:   1    -0.231650466225E+04    0.33279E-03   -0.14189E-01  4496   0.400E-01    0.950E-02
RMM:   2    -0.231650559844E+04   -0.93620E-03   -0.99951E-03  5837   0.701E-02    0.662E-02
RMM:   3    -0.231650563498E+04   -0.36540E-04   -0.83967E-04  4206   0.265E-02    0.612E-02
RMM:   4    -0.231650560333E+04    0.31657E-04   -0.86208E-05  2998   0.653E-03    0.268E-02
RMM:   5    -0.231650559295E+04    0.10378E-04   -0.31682E-05  2971   0.524E-03    0.126E-02
RMM:   6    -0.231650559161E+04    0.13433E-05   -0.14511E-05  2922   0.460E-03
  62 F= -.23373392E+04 E0= -.23373392E+04  d E =-.548155E-03  mag=     6.0000
       N       E                     dE             d eps       ncg     rms          rms(c)
DAV:   1    -0.231650364850E+04    0.19445E-02   -0.34272E-01  4480   0.622E-01    0.146E-01
RMM:   2    -0.231650589388E+04   -0.22454E-02   -0.24015E-02  5585   0.108E-01    0.982E-02
RMM:   3    -0.231650598773E+04   -0.93852E-04   -0.20843E-03  4697   0.470E-02    0.917E-02
RMM:   4    -0.231650591947E+04    0.68257E-04   -0.21166E-04  3470   0.926E-03    0.421E-02
RMM:   5    -0.231650589360E+04    0.25871E-04   -0.69581E-05  3233   0.765E-03    0.201E-02
RMM:   6    -0.231650589022E+04    0.33863E-05   -0.37257E-05  3173   0.639E-03
  63 F= -.23373395E+04 E0= -.23373395E+04  d E =-.771751E-03  mag=     6.0000
       N       E                     dE             d eps       ncg     rms          rms(c)
DAV:   1    -0.231650536964E+04    0.52396E-03   -0.18156E-01  4496   0.448E-01    0.102E-01
RMM:   2    -0.231650651413E+04   -0.11445E-02   -0.11889E-02  5976   0.774E-02    0.862E-02
RMM:   3    -0.231650653769E+04   -0.23561E-04   -0.10029E-03  4239   0.283E-02    0.702E-02
RMM:   4    -0.231650649388E+04    0.43807E-04   -0.10213E-04  3059   0.722E-03    0.282E-02
RMM:   5    -0.231650648403E+04    0.98503E-05   -0.33650E-05  2962   0.548E-03
  64 F= -.23373399E+04 E0= -.23373399E+04  d E =-.417997E-03  mag=     6.0000
       N       E                     dE             d eps       ncg     rms          rms(c)
DAV:   1    -0.231650473877E+04    0.17551E-02   -0.35179E-01  4480   0.623E-01    0.140E-01
RMM:   2    -0.231650691943E+04   -0.21807E-02   -0.22831E-02  5927   0.107E-01    0.108E-01
RMM:   3    -0.231650698190E+04   -0.62468E-04   -0.19003E-03  4679   0.382E-02    0.925E-02
RMM:   4    -0.231650690787E+04    0.74033E-04   -0.20282E-04  3353   0.925E-03    0.403E-02
RMM:   5    -0.231650688532E+04    0.22546E-04   -0.65724E-05  3271   0.746E-03    0.187E-02
RMM:   6    -0.231650688493E+04    0.38694E-06   -0.30646E-05  3084   0.614E-03
  65 F= -.23373400E+04 E0= -.23373400E+04  d E =-.573537E-03  mag=     6.0000
       N       E                     dE             d eps       ncg     rms          rms(c)
DAV:   1    -0.231650603434E+04    0.85098E-03   -0.25437E-01  4480   0.522E-01    0.125E-01
RMM:   2    -0.231650761808E+04   -0.15837E-02   -0.16360E-02  5857   0.891E-02    0.107E-01
RMM:   3    -0.231650763832E+04   -0.20235E-04   -0.13997E-03  4484   0.342E-02    0.853E-02
RMM:   4    -0.231650757334E+04    0.64976E-04   -0.14834E-04  3246   0.829E-03    0.357E-02
RMM:   5    -0.231650756142E+04    0.11924E-04   -0.50733E-05  3066   0.639E-03    0.272E-02
RMM:   6    -0.231650755898E+04    0.24306E-05   -0.35738E-05  2964   0.597E-03
  66 F= -.23373406E+04 E0= -.23373406E+04  d E =-.539205E-03  mag=     6.0000
       N       E                     dE             d eps       ncg     rms          rms(c)
DAV:   1    -0.231650684864E+04    0.71277E-03   -0.14243E-01  4528   0.390E-01    0.942E-02
RMM:   2    -0.231650773998E+04   -0.89133E-03   -0.92490E-03  5999   0.675E-02    0.783E-02
RMM:   3    -0.231650775575E+04   -0.15779E-04   -0.77501E-04  4038   0.245E-02    0.636E-02
RMM:   4    -0.231650772083E+04    0.34923E-04   -0.83744E-05  3012   0.666E-03    0.276E-02
RMM:   5    -0.231650771566E+04    0.51752E-05   -0.28855E-05  2936   0.489E-03
  67 F= -.23373406E+04 E0= -.23373406E+04  d E =-.594617E-03  mag=     6.0000
       N       E                     dE             d eps       ncg     rms          rms(c)
DAV:   1    -0.231650652299E+04    0.11978E-02   -0.30262E-01  4496   0.564E-01    0.132E-01
RMM:   2    -0.231650828337E+04   -0.17604E-02   -0.18282E-02  5903   0.952E-02    0.113E-01
RMM:   3    -0.231650829976E+04   -0.16388E-04   -0.14877E-03  4516   0.354E-02    0.897E-02
RMM:   4    -0.231650822792E+04    0.71836E-04   -0.16189E-04  3283   0.869E-03    0.378E-02
RMM:   5    -0.231650820903E+04    0.18891E-04   -0.69292E-05  3466   0.724E-03    0.174E-02
RMM:   6    -0.231650821148E+04   -0.24470E-05   -0.24728E-05  2938   0.603E-03
  68 F= -.23373410E+04 E0= -.23373410E+04  d E =-.424852E-03  mag=     6.0000
       N       E                     dE             d eps       ncg     rms          rms(c)
DAV:   1    -0.231650776723E+04    0.44180E-03   -0.86504E-02  4592   0.302E-01    0.713E-02
RMM:   2    -0.231650827034E+04   -0.50312E-03   -0.52989E-03  5971   0.521E-02    0.524E-02
RMM:   3    -0.231650828524E+04   -0.14901E-04   -0.43747E-04  3734   0.192E-02    0.465E-02
RMM:   4    -0.231650826767E+04    0.17569E-04   -0.47470E-05  2967   0.530E-03    0.205E-02
RMM:   5    -0.231650826307E+04    0.46065E-05   -0.18315E-05  2918   0.392E-03
  69 F= -.23373411E+04 E0= -.23373411E+04  d E =-.438457E-03  mag=     6.0000
       N       E                     dE             d eps       ncg     rms          rms(c)
DAV:   1    -0.231650768570E+04    0.58198E-03   -0.28419E-01  4528   0.546E-01    0.134E-01
RMM:   2    -0.231650892739E+04   -0.12417E-02   -0.13165E-02  5733   0.902E-02    0.102E-01
RMM:   3    -0.231650891962E+04    0.77619E-05   -0.90730E-04  4585   0.315E-02    0.997E-02
RMM:   4    -0.231650882970E+04    0.89928E-04   -0.12770E-04  3398   0.853E-03    0.357E-02
RMM:   5    -0.231650881451E+04    0.15187E-04   -0.56727E-05  3448   0.716E-03    0.153E-02
RMM:   6    -0.231650881715E+04   -0.26422E-05   -0.19429E-05  2923   0.570E-03
  70 F= -.23373415E+04 E0= -.23373415E+04  d E =-.444668E-03  mag=     6.0000
       N       E                     dE             d eps       ncg     rms          rms(c)
DAV:   1    -0.231650869770E+04    0.11681E-03   -0.36478E-02  4704   0.196E-01    0.489E-02
RMM:   2    -0.231650885881E+04   -0.16111E-03   -0.17232E-03  5924   0.336E-02    0.323E-02
RMM:   3    -0.231650885932E+04   -0.50513E-06   -0.11441E-04  3212   0.117E-02    0.336E-02
RMM:   4    -0.231650884999E+04    0.93260E-05   -0.17465E-05  2913   0.393E-03
  71 F= -.23373415E+04 E0= -.23373415E+04  d E =-.438288E-03  mag=     6.0000
       N       E                     dE             d eps       ncg     rms          rms(c)
DAV:   1    -0.231650817523E+04    0.68408E-03   -0.28137E-01  4480   0.531E-01    0.120E-01
RMM:   2    -0.231650937988E+04   -0.12046E-02   -0.12919E-02  5344   0.852E-02    0.837E-02
RMM:   3    -0.231650937399E+04    0.58843E-05   -0.82562E-04  4508   0.347E-02    0.870E-02
RMM:   4    -0.231650930646E+04    0.67530E-04   -0.10847E-04  3302   0.772E-03    0.356E-02
RMM:   5    -0.231650928946E+04    0.16999E-04   -0.56541E-05  3370   0.697E-03    0.130E-02
RMM:   6    -0.231650929004E+04   -0.57856E-06   -0.13602E-05  2893   0.539E-03
  72 F= -.23373419E+04 E0= -.23373419E+04  d E =-.364137E-03  mag=     6.0000
       N       E                     dE             d eps       ncg     rms          rms(c)
DAV:   1    -0.231650900443E+04    0.28503E-03   -0.79100E-02  4496   0.282E-01    0.648E-02
RMM:   2    -0.231650934960E+04   -0.34517E-03   -0.37055E-03  5645   0.465E-02    0.444E-02
RMM:   3    -0.231650935105E+04   -0.14468E-05   -0.23518E-04  3726   0.179E-02    0.468E-02
RMM:   4    -0.231650933192E+04    0.19128E-04   -0.30529E-05  2938   0.471E-03    0.184E-02
RMM:   5    -0.231650932740E+04    0.45153E-05   -0.15796E-05  2922   0.385E-03
  73 F= -.23373419E+04 E0= -.23373419E+04  d E =-.361427E-03  mag=     6.0000
       N       E                     dE             d eps       ncg     rms          rms(c)
DAV:   1    -0.231650872220E+04    0.60972E-03   -0.29577E-01  4496   0.549E-01    0.122E-01
RMM:   2    -0.231650984688E+04   -0.11247E-02   -0.12055E-02  5519   0.873E-02    0.848E-02
RMM:   3    -0.231650983685E+04    0.10030E-04   -0.76735E-04  4468   0.329E-02    0.858E-02
RMM:   4    -0.231650977075E+04    0.66098E-04   -0.10482E-04  3261   0.792E-03    0.365E-02
RMM:   5    -0.231650975291E+04    0.17840E-04   -0.53114E-05  3269   0.699E-03    0.140E-02
RMM:   6    -0.231650975338E+04   -0.46255E-06   -0.18057E-05  2920   0.567E-03
  74 F= -.23373422E+04 E0= -.23373422E+04  d E =-.368573E-03  mag=     6.0000
       N       E                     dE             d eps       ncg     rms          rms(c)
DAV:   1    -0.231650947742E+04    0.27549E-03   -0.83644E-02  4528   0.292E-01    0.664E-02
RMM:   2    -0.231650980145E+04   -0.32403E-03   -0.34768E-03  5768   0.477E-02    0.464E-02
RMM:   3    -0.231650980002E+04    0.14267E-05   -0.22427E-04  3739   0.175E-02    0.472E-02
RMM:   4    -0.231650978028E+04    0.19748E-04   -0.29967E-05  2954   0.493E-03    0.194E-02
RMM:   5    -0.231650977557E+04    0.47027E-05   -0.15708E-05  2911   0.393E-03
  75 F= -.23373422E+04 E0= -.23373422E+04  d E =-.360474E-03  mag=     6.0000
       N       E                     dE             d eps       ncg     rms          rms(c)
DAV:   1    -0.231650909182E+04    0.68846E-03   -0.26036E-01  4496   0.516E-01    0.111E-01
RMM:   2    -0.231651030410E+04   -0.12123E-02   -0.12515E-02  5638   0.829E-02    0.970E-02
RMM:   3    -0.231651029347E+04    0.10630E-04   -0.95535E-04  4293   0.308E-02    0.746E-02
RMM:   4    -0.231651023911E+04    0.54355E-04   -0.10229E-04  3149   0.751E-03    0.315E-02
RMM:   5    -0.231651022700E+04    0.12117E-04   -0.51424E-05  3105   0.647E-03    0.205E-02
RMM:   6    -0.231651022742E+04   -0.42727E-06   -0.23583E-05  2918   0.549E-03
  76 F= -.23373426E+04 E0= -.23373426E+04  d E =-.424429E-03  mag=     6.0000
       N       E                     dE             d eps       ncg     rms          rms(c)
DAV:   1    -0.231650651031E+04    0.37167E-02   -0.86944E-01  4480   0.944E-01    0.201E-01
RMM:   2    -0.231651058583E+04   -0.40755E-02   -0.42331E-02  5346   0.151E-01    0.166E-01
RMM:   3    -0.231651055316E+04    0.32667E-04   -0.31390E-03  4787   0.558E-02    0.138E-01
RMM:   4    -0.231651037583E+04    0.17734E-03   -0.35795E-04  4505   0.125E-02    0.591E-02
RMM:   5    -0.231651034354E+04    0.32292E-04   -0.15300E-04  3824   0.101E-02    0.483E-02
RMM:   6    -0.231651033025E+04    0.13282E-04   -0.94330E-05  3365   0.837E-03    0.306E-02
RMM:   7    -0.231651032206E+04    0.81930E-05   -0.18481E-05  2925   0.564E-03
  77 F= -.23373427E+04 E0= -.23373427E+04  d E =-.471132E-03  mag=     6.0000
       N       E                     dE             d eps       ncg     rms          rms(c)
DAV:   1    -0.231651012810E+04    0.20215E-03   -0.59455E-02  4592   0.247E-01    0.506E-02
RMM:   2    -0.231651039571E+04   -0.26761E-03   -0.27833E-03  5682   0.398E-02    0.406E-02
RMM:   3    -0.231651039614E+04   -0.42695E-06   -0.20138E-04  3488   0.155E-02    0.343E-02
RMM:   4    -0.231651038479E+04    0.11344E-04   -0.23244E-05  2922   0.415E-03    0.156E-02
RMM:   5    -0.231651038142E+04    0.33674E-05   -0.11430E-05  2856   0.326E-03
  78 F= -.23373428E+04 E0= -.23373428E+04  d E =-.542706E-03  mag=     6.0000
       N       E                     dE             d eps       ncg     rms          rms(c)
DAV:   1    -0.231650985357E+04    0.53122E-03   -0.11845E-01  4512   0.349E-01    0.743E-02
RMM:   2    -0.231651040176E+04   -0.54819E-03   -0.56758E-03  5695   0.561E-02    0.632E-02
RMM:   3    -0.231651040039E+04    0.13763E-05   -0.43799E-04  3815   0.209E-02    0.503E-02
RMM:   4    -0.231651037537E+04    0.25018E-04   -0.46980E-05  2979   0.555E-03    0.212E-02
RMM:   5    -0.231651036794E+04    0.74291E-05   -0.24961E-05  2936   0.471E-03
  79 F= -.23373428E+04 E0= -.23373428E+04  d E =-.546889E-03  mag=     6.0000
       N       E                     dE             d eps       ncg     rms          rms(c)
DAV:   1    -0.231651022381E+04    0.15156E-03   -0.12980E-01  4512   0.375E-01    0.996E-02
RMM:   2    -0.231651095621E+04   -0.73240E-03   -0.76978E-03  5686   0.643E-02    0.781E-02
RMM:   3    -0.231651096328E+04   -0.70684E-05   -0.64627E-04  4137   0.256E-02    0.699E-02
RMM:   4    -0.231651091751E+04    0.45772E-04   -0.79609E-05  3004   0.658E-03    0.252E-02
RMM:   5    -0.231651090986E+04    0.76426E-05   -0.32237E-05  2947   0.526E-03
  80 F= -.23373432E+04 E0= -.23373432E+04  d E =-.430062E-03  mag=     6.0000
       N       E                     dE             d eps       ncg     rms          rms(c)
DAV:   1    -0.231651079484E+04    0.12267E-03   -0.35320E-02  4544   0.196E-01    0.541E-02
RMM:   2    -0.231651100035E+04   -0.20551E-03   -0.21457E-03  5976   0.357E-02    0.487E-02
RMM:   3    -0.231651099602E+04    0.43333E-05   -0.21272E-04  3290   0.126E-02    0.352E-02
RMM:   4    -0.231651098209E+04    0.13931E-04   -0.21767E-05  2908   0.452E-03    0.132E-02
RMM:   5    -0.231651097867E+04    0.34202E-05   -0.13643E-05  2894   0.360E-03
  81 F= -.23373432E+04 E0= -.23373432E+04  d E =-.439830E-03  mag=     6.0000
       N       E                     dE             d eps       ncg     rms          rms(c)
DAV:   1    -0.231651096135E+04    0.20735E-04   -0.23091E-03  4992   0.502E-02    0.159E-02
RMM:   2    -0.231651097761E+04   -0.16253E-04   -0.13956E-04  3718   0.103E-02    0.242E-02
RMM:   3    -0.231651097367E+04    0.39367E-05   -0.17815E-05  2768   0.532E-03
  82 F= -.23373432E+04 E0= -.23373432E+04  d E =-.449547E-03  mag=     6.0000
       N       E                     dE             d eps       ncg     rms          rms(c)
DAV:   1    -0.231651079716E+04    0.18045E-03   -0.84464E-02  4512   0.302E-01    0.685E-02
RMM:   2    -0.231651126374E+04   -0.46659E-03   -0.48479E-03  5644   0.500E-02    0.552E-02
RMM:   3    -0.231651126486E+04   -0.11164E-05   -0.35444E-04  3620   0.182E-02    0.453E-02
RMM:   4    -0.231651124615E+04    0.18713E-04   -0.41171E-05  2935   0.507E-03    0.195E-02
RMM:   5    -0.231651124431E+04    0.18330E-05   -0.16229E-05  2889   0.369E-03
  83 F= -.23373434E+04 E0= -.23373434E+04  d E =-.205859E-03  mag=     6.0000
       N       E                     dE             d eps       ncg     rms          rms(c)
DAV:   1    -0.231651086695E+04    0.37920E-03   -0.89539E-02  4512   0.311E-01    0.708E-02
RMM:   2    -0.231651135847E+04   -0.49153E-03   -0.51239E-03  5786   0.519E-02    0.595E-02
RMM:   3    -0.231651135880E+04   -0.33237E-06   -0.39132E-04  3652   0.187E-02    0.467E-02
RMM:   4    -0.231651133765E+04    0.21151E-04   -0.44132E-05  2955   0.547E-03    0.201E-02
RMM:   5    -0.231651133359E+04    0.40675E-05   -0.24441E-05  2929   0.465E-03
  84 F= -.23373434E+04 E0= -.23373434E+04  d E =-.228200E-03  mag=     6.0000
       N       E                     dE             d eps       ncg     rms          rms(c)
DAV:   1    -0.231651130016E+04    0.37493E-04   -0.61567E-02  4512   0.254E-01    0.551E-02
RMM:   2    -0.231651158000E+04   -0.27983E-03   -0.29269E-03  6007   0.427E-02    0.450E-02
RMM:   3    -0.231651157177E+04    0.82202E-05   -0.19102E-04  3430   0.138E-02    0.363E-02
RMM:   4    -0.231651155825E+04    0.13523E-04   -0.23719E-05  2919   0.465E-03    0.153E-02
RMM:   5    -0.231651155449E+04    0.37578E-05   -0.15866E-05  2914   0.381E-03
  85 F= -.23373436E+04 E0= -.23373436E+04  d E =-.185225E-03  mag=     6.0000
       N       E                     dE             d eps       ncg     rms          rms(c)
DAV:   1    -0.231651100142E+04    0.55684E-03   -0.17490E-01  4496   0.427E-01    0.918E-02
RMM:   2    -0.231651178334E+04   -0.78193E-03   -0.81818E-03  5750   0.693E-02    0.733E-02
RMM:   3    -0.231651177384E+04    0.95063E-05   -0.52127E-04  4079   0.251E-02    0.627E-02
RMM:   4    -0.231651173465E+04    0.39186E-04   -0.63969E-05  3034   0.662E-03    0.269E-02
RMM:   5    -0.231651172860E+04    0.60535E-05   -0.37314E-05  2983   0.557E-03
  86 F= -.23373437E+04 E0= -.23373437E+04  d E =-.299478E-03  mag=     6.0000
       N       E                     dE             d eps       ncg     rms          rms(c)
DAV:   1    -0.231651180664E+04   -0.71991E-04   -0.46665E-02  4528   0.225E-01    0.562E-02
RMM:   2    -0.231651199173E+04   -0.18509E-03   -0.20338E-03  6004   0.389E-02    0.334E-02
RMM:   3    -0.231651199098E+04    0.75327E-06   -0.16086E-04  3495   0.136E-02    0.344E-02
RMM:   4    -0.231651197866E+04    0.12320E-04   -0.21691E-05  2908   0.464E-03    0.148E-02
RMM:   5    -0.231651197538E+04    0.32757E-05   -0.11672E-05  2883   0.353E-03
  87 F= -.23373440E+04 E0= -.23373440E+04  d E =-.208795E-03  mag=     6.0000
       N       E                     dE             d eps       ncg     rms          rms(c)
DAV:   1    -0.231651195140E+04    0.27253E-04   -0.26121E-02  4608   0.168E-01    0.433E-02
RMM:   2    -0.231651206445E+04   -0.11305E-03   -0.11649E-03  5890   0.290E-02    0.424E-02
RMM:   3    -0.231651205493E+04    0.95179E-05   -0.88030E-05  3147   0.105E-02
  88 F= -.23373440E+04 E0= -.23373440E+04  d E =-.260032E-03  mag=     6.0000
       N       E                     dE             d eps       ncg     rms          rms(c)
DAV:   1    -0.231651205321E+04    0.11242E-04   -0.39725E-02  4512   0.208E-01    0.533E-02
RMM:   2    -0.231651223524E+04   -0.18203E-03   -0.19450E-03  5877   0.359E-02    0.369E-02
RMM:   3    -0.231651223488E+04    0.35780E-06   -0.13544E-04  3177   0.114E-02    0.393E-02
RMM:   4    -0.231651222061E+04    0.14272E-04   -0.20945E-05  2917   0.438E-03    0.145E-02
RMM:   5    -0.231651221688E+04    0.37247E-05   -0.12835E-05  2889   0.371E-03
  89 F= -.23373442E+04 E0= -.23373442E+04  d E =-.147294E-03  mag=     6.0000
       N       E                     dE             d eps       ncg     rms          rms(c)
DAV:   1    -0.231651210794E+04    0.11267E-03   -0.36287E-02  4528   0.198E-01    0.502E-02
RMM:   2    -0.231651227602E+04   -0.16808E-03   -0.17636E-03  5954   0.345E-02    0.333E-02
RMM:   3    -0.231651227862E+04   -0.26078E-05   -0.12028E-04  3196   0.116E-02    0.378E-02
RMM:   4    -0.231651226542E+04    0.13204E-04   -0.18343E-05  2908   0.413E-03    0.120E-02
RMM:   5    -0.231651226296E+04    0.24588E-05   -0.86604E-06  2866   0.308E-03
  90 F= -.23373442E+04 E0= -.23373442E+04  d E =-.179354E-03  mag=     6.0000
       N       E                     dE             d eps       ncg     rms          rms(c)
DAV:   1    -0.231651224210E+04    0.23315E-04   -0.38860E-02  4512   0.206E-01    0.493E-02
RMM:   2    -0.231651242633E+04   -0.18422E-03   -0.19040E-03  5927   0.351E-02    0.403E-02
RMM:   3    -0.231651242404E+04    0.22870E-05   -0.12849E-04  3228   0.122E-02    0.372E-02
RMM:   4    -0.231651241083E+04    0.13213E-04   -0.17701E-05  2905   0.418E-03    0.123E-02
RMM:   5    -0.231651240850E+04    0.23246E-05   -0.95817E-06  2866   0.323E-03
  91 F= -.23373443E+04 E0= -.23373443E+04  d E =-.133834E-03  mag=     6.0000
       N       E                     dE             d eps       ncg     rms          rms(c)
DAV:   1    -0.231651231288E+04    0.97948E-04   -0.30756E-02  4512   0.184E-01    0.439E-02
RMM:   2    -0.231651245874E+04   -0.14586E-03   -0.15159E-03  5911   0.316E-02    0.351E-02
RMM:   3    -0.231651245702E+04    0.17128E-05   -0.10474E-04  3155   0.112E-02    0.328E-02
RMM:   4    -0.231651244676E+04    0.10269E-04   -0.14307E-05  2889   0.381E-03    0.112E-02
RMM:   5    -0.231651244475E+04    0.20103E-05   -0.79395E-06  2852   0.295E-03
  92 F= -.23373443E+04 E0= -.23373443E+04  d E =-.159673E-03  mag=     6.0000
       N       E                     dE             d eps       ncg     rms          rms(c)
DAV:   1    -0.231651245399E+04   -0.72388E-05   -0.36349E-02  4512   0.199E-01    0.478E-02
RMM:   2    -0.231651262306E+04   -0.16907E-03   -0.17913E-03  5883   0.339E-02    0.339E-02
RMM:   3    -0.231651262535E+04   -0.22892E-05   -0.13087E-04  3234   0.126E-02    0.345E-02
RMM:   4    -0.231651261431E+04    0.11044E-04   -0.17969E-05  2913   0.408E-03    0.129E-02
RMM:   5    -0.231651261197E+04    0.23371E-05   -0.96365E-06  2882   0.322E-03
  93 F= -.23373445E+04 E0= -.23373445E+04  d E =-.127360E-03  mag=     6.0000
       N       E                     dE             d eps       ncg     rms          rms(c)
DAV:   1    -0.231651259213E+04    0.22176E-04   -0.14057E-02  4624   0.124E-01    0.307E-02
RMM:   2    -0.231651266154E+04   -0.69407E-04   -0.70592E-04  5652   0.220E-02    0.289E-02
RMM:   3    -0.231651265854E+04    0.29968E-05   -0.57641E-05  2963   0.841E-03
  94 F= -.23373445E+04 E0= -.23373445E+04  d E =-.149027E-03  mag=     6.0000
       N       E                     dE             d eps       ncg     rms          rms(c)
DAV:   1    -0.231651269889E+04   -0.37350E-04   -0.30493E-02  4512   0.186E-01    0.491E-02
RMM:   2    -0.231651286147E+04   -0.16258E-03   -0.17003E-03  5746   0.322E-02    0.369E-02
RMM:   3    -0.231651286127E+04    0.19924E-06   -0.13318E-04  3111   0.109E-02    0.343E-02
RMM:   4    -0.231651284968E+04    0.11583E-04   -0.18626E-05  2910   0.399E-03    0.131E-02
RMM:   5    -0.231651284795E+04    0.17350E-05   -0.10909E-05  2873   0.322E-03
  95 F= -.23373446E+04 E0= -.23373446E+04  d E =-.103239E-03  mag=     6.0000
       N       E                     dE             d eps       ncg     rms          rms(c)
DAV:   1    -0.231651284324E+04    0.64431E-05   -0.15072E-02  4576   0.131E-01    0.345E-02
RMM:   2    -0.231651292300E+04   -0.79763E-04   -0.83195E-04  5687   0.233E-02    0.256E-02
RMM:   3    -0.231651292409E+04   -0.10846E-05   -0.77044E-05  2962   0.914E-03
  96 F= -.23373446E+04 E0= -.23373446E+04  d E =-.118458E-03  mag=     6.0000
       N       E                     dE             d eps       ncg     rms          rms(c)
DAV:   1    -0.231651296454E+04   -0.41532E-04   -0.24486E-02  4512   0.167E-01    0.396E-02
RMM:   2    -0.231651310725E+04   -0.14271E-03   -0.14907E-03  5744   0.293E-02    0.323E-02
RMM:   3    -0.231651310746E+04   -0.20908E-06   -0.11520E-04  3009   0.999E-03    0.263E-02
RMM:   4    -0.231651310132E+04    0.61306E-05   -0.14678E-05  2903   0.348E-03
  97 F= -.23373447E+04 E0= -.23373447E+04  d E =-.798278E-04  mag=     6.0000
       N       E                     dE             d eps       ncg     rms          rms(c)
DAV:   1    -0.231651300789E+04    0.99564E-04   -0.46700E-02  4512   0.231E-01    0.547E-02
RMM:   2    -0.231651327164E+04   -0.26374E-03   -0.27399E-03  5570   0.382E-02    0.479E-02
RMM:   3    -0.231651327230E+04   -0.66316E-06   -0.22801E-04  3474   0.165E-02    0.378E-02
RMM:   4    -0.231651325900E+04    0.13304E-04   -0.27568E-05  2949   0.415E-03    0.154E-02
RMM:   5    -0.231651325556E+04    0.34313E-05   -0.11393E-05  2877   0.336E-03
  98 F= -.23373447E+04 E0= -.23373447E+04  d E =-.992407E-04  mag=     6.0000
       N       E                     dE             d eps       ncg     rms          rms(c)
DAV:   1    -0.231651326225E+04   -0.32591E-05   -0.30526E-02  4528   0.186E-01    0.455E-02
RMM:   2    -0.231651342229E+04   -0.16003E-03   -0.16464E-03  5849   0.322E-02    0.397E-02
RMM:   3    -0.231651341961E+04    0.26738E-05   -0.12815E-04  3159   0.116E-02    0.307E-02
RMM:   4    -0.231651340979E+04    0.98220E-05   -0.16117E-05  2901   0.386E-03
  99 F= -.23373448E+04 E0= -.23373448E+04  d E =-.100208E-03  mag=     6.0000
       N       E                     dE             d eps       ncg     rms          rms(c)
DAV:   1    -0.231651332927E+04    0.90343E-04   -0.34711E-02  4512   0.199E-01    0.472E-02
RMM:   2    -0.231651350331E+04   -0.17404E-03   -0.18422E-03  5544   0.327E-02    0.357E-02
RMM:   3    -0.231651350395E+04   -0.63676E-06   -0.13663E-04  3351   0.137E-02    0.334E-02
RMM:   4    -0.231651349280E+04    0.11145E-04   -0.18175E-05  2916   0.380E-03    0.128E-02
RMM:   5    -0.231651349002E+04    0.27840E-05   -0.99306E-06  2879   0.318E-03
 100 F= -.23373448E+04 E0= -.23373448E+04  d E =-.122667E-03  mag=     6.0000
       N       E                     dE             d eps       ncg     rms          rms(c)
DAV:   1    -0.231651346975E+04    0.23056E-04   -0.28753E-02  4512   0.177E-01    0.437E-02
RMM:   2    -0.231651360439E+04   -0.13464E-03   -0.14232E-03  5765   0.304E-02    0.311E-02
RMM:   3    -0.231651360459E+04   -0.20990E-06   -0.10382E-04  3118   0.112E-02    0.295E-02
RMM:   4    -0.231651359622E+04    0.83710E-05   -0.14885E-05  2900   0.372E-03
 101 F= -.23373449E+04 E0= -.23373449E+04  d E =-.104601E-03  mag=     6.0000
       N       E                     dE             d eps       ncg     rms          rms(c)
DAV:   1    -0.231651351267E+04    0.91920E-04   -0.24771E-02  4544   0.164E-01    0.407E-02
RMM:   2    -0.231651362630E+04   -0.11363E-03   -0.12047E-03  5538   0.269E-02    0.331E-02
RMM:   3    -0.231651362428E+04    0.20169E-05   -0.84488E-05  3132   0.114E-02
 102 F= -.23373450E+04 E0= -.23373450E+04  d E =-.131220E-03  mag=     6.0000
       N       E                     dE             d eps       ncg     rms          rms(c)
DAV:   1    -0.231651354643E+04    0.79868E-04   -0.37438E-02  4512   0.204E-01    0.497E-02
RMM:   2    -0.231651372783E+04   -0.18139E-03   -0.19350E-03  5617   0.343E-02    0.368E-02
RMM:   3    -0.231651372547E+04    0.23534E-05   -0.13090E-04  3151   0.116E-02    0.333E-02
[...]
 143 F= -.23373457E+04 E0= -.23373457E+04  d E =-.415507E-05  mag=     6.0000
       N       E                     dE             d eps       ncg     rms          rms(c)
DAV:   1    -0.231651492341E+04   -0.81612E-05   -0.77894E-04  4360   0.289E-02    0.761E-03
RMM:   2    -0.231651492788E+04   -0.44686E-05   -0.49245E-05  2724   0.537E-03
 144 F= -.23373457E+04 E0= -.23373457E+04  d E =-.604239E-05  mag=     6.0000
       N       E                     dE             d eps       ncg     rms          rms(c)
DAV:   1    -0.231651492920E+04   -0.57914E-05   -0.17032E-05  3208   0.520E-03    0.412E-03
RMM:   2    -0.231651492999E+04   -0.78793E-06   -0.41007E-06  2230   0.275E-03
 145 F= -.23373457E+04 E0= -.23373457E+04  d E =-.729461E-05  mag=     6.0000
       N       E                     dE             d eps       ncg     rms          rms(c)
DAV:   1    -0.231651494135E+04   -0.12152E-04   -0.72796E-04  4296   0.275E-02    0.786E-03
RMM:   2    -0.231651494612E+04   -0.47668E-05   -0.51190E-05  2755   0.558E-03
 146 F= -.23373457E+04 E0= -.23373457E+04  d E =-.671923E-05  mag=     6.0000
       N       E                     dE             d eps       ncg     rms          rms(c)
DAV:   1    -0.231651494736E+04   -0.60083E-05   -0.12578E-05  2776   0.475E-03    0.586E-03
RMM:   2    -0.231651494916E+04   -0.17955E-05   -0.56425E-06  2266   0.242E-03
 147 F= -.23373457E+04 E0= -.23373457E+04  d E =-.898514E-05  mag=     6.0000
       N       E                     dE             d eps       ncg     rms          rms(c)
DAV:   1    -0.231651495808E+04   -0.10720E-04   -0.64354E-04  4232   0.255E-02    0.716E-03
RMM:   2    -0.231651496233E+04   -0.42473E-05   -0.46528E-05  2699   0.537E-03
 148 F= -.23373457E+04 E0= -.23373457E+04  d E =-.389407E-05  mag=     6.0000
       N       E                     dE             d eps       ncg     rms          rms(c)
DAV:   1    -0.231651496487E+04   -0.67844E-05   -0.31786E-05  3560   0.655E-03    0.498E-03
RMM:   2    -0.231651496634E+04   -0.14780E-05   -0.69162E-06  2297   0.318E-03
 149 F= -.23373457E+04 E0= -.23373457E+04  d E =-.599369E-05  mag=     6.0000
       N       E                     dE             d eps       ncg     rms          rms(c)
DAV:   1    -0.231651497303E+04   -0.81679E-05   -0.50599E-04  4232   0.223E-02    0.617E-03
RMM:   2    -0.231651497664E+04   -0.36094E-05   -0.39223E-05  2587   0.476E-03
 150 F= -.23373457E+04 E0= -.23373457E+04  d E =-.410456E-05  mag=     6.0000
       N       E                     dE             d eps       ncg     rms          rms(c)
DAV:   1    -0.231651498126E+04   -0.82267E-05   -0.25204E-04  4264   0.159E-02    0.653E-03
RMM:   2    -0.231651498458E+04   -0.33148E-05   -0.25742E-05  2465   0.429E-03
 151 F= -.23373457E+04 E0= -.23373457E+04  d E =-.763027E-05  mag=     6.0000
       N       E                     dE             d eps       ncg     rms          rms(c)
DAV:   1    -0.231651498492E+04   -0.36600E-05   -0.58966E-04  4368   0.242E-02    0.670E-03
RMM:   2    -0.231651498969E+04   -0.47649E-05   -0.49497E-05  2763   0.577E-03
 152 F= -.23373457E+04 E0= -.23373457E+04  d E =-.339759E-05  mag=     6.0000
       N       E                     dE             d eps       ncg     rms          rms(c)
DAV:   1    -0.231651499073E+04   -0.58115E-05   -0.52727E-05  4272   0.779E-03    0.516E-03
RMM:   2    -0.231651499215E+04   -0.14131E-05   -0.82098E-06  2330   0.270E-03
 153 F= -.23373457E+04 E0= -.23373457E+04  d E =-.537993E-05  mag=     6.0000
       N       E                     dE             d eps       ncg     rms          rms(c)
DAV:   1    -0.231651499545E+04   -0.47143E-05   -0.55749E-04  4240   0.235E-02    0.629E-03
RMM:   2    -0.231651499938E+04   -0.39346E-05   -0.41582E-05  2596   0.510E-03
 154 F= -.23373457E+04 E0= -.23373457E+04  d E =-.588931E-05  mag=     6.0000
       N       E                     dE             d eps       ncg     rms          rms(c)
DAV:   1    -0.231651500023E+04   -0.47808E-05   -0.83557E-04  4400   0.288E-02    0.969E-03
RMM:   2    -0.231651500824E+04   -0.80163E-05   -0.70222E-05  2944   0.694E-03
 155 F= -.23373457E+04 E0= -.23373457E+04  d E =-.130928E-04  mag=     6.0000
       N       E                     dE             d eps       ncg     rms          rms(c)
DAV:   1    -0.231651501475E+04   -0.14525E-04   -0.74528E-04  4376   0.277E-02    0.864E-03
RMM:   2    -0.231651502105E+04   -0.62955E-05   -0.62151E-05  2966   0.665E-03
 156 F= -.23373457E+04 E0= -.23373457E+04  d E =-.578302E-05  mag=     6.0000
       N       E                     dE             d eps       ncg     rms          rms(c)
DAV:   1    -0.231651502242E+04   -0.76684E-05   -0.36776E-05  4072   0.716E-03    0.552E-03
RMM:   2    -0.231651502361E+04   -0.11839E-05   -0.72056E-06  2320   0.327E-03
 157 F= -.23373457E+04 E0= -.23373457E+04  d E =-.700645E-05  mag=     6.0000
       N       E                     dE             d eps       ncg     rms          rms(c)
DAV:   1    -0.231651503328E+04   -0.10859E-04   -0.51416E-04  4248   0.226E-02    0.660E-03
RMM:   2    -0.231651503690E+04   -0.36207E-05   -0.38407E-05  2555   0.492E-03
 158 F= -.23373458E+04 E0= -.23373458E+04  d E =-.590708E-05  mag=     6.0000
       N       E                     dE             d eps       ncg     rms          rms(c)
DAV:   1    -0.231651504159E+04   -0.83055E-05   -0.15737E-04  4216   0.129E-02    0.648E-03
RMM:   2    -0.231651504424E+04   -0.26558E-05   -0.17731E-05  2420   0.361E-03
 159 F= -.23373458E+04 E0= -.23373458E+04  d E =-.918525E-05  mag=     6.0000
       N       E                     dE             d eps       ncg     rms          rms(c)
DAV:   1    -0.231651504705E+04   -0.54639E-05   -0.43572E-04  4240   0.209E-02    0.614E-03
RMM:   2    -0.231651505031E+04   -0.32573E-05   -0.34764E-05  2614   0.514E-03
 160 F= -.23373458E+04 E0= -.23373458E+04  d E =-.339019E-05  mag=     6.0000
       N       E                     dE             d eps       ncg     rms          rms(c)
DAV:   1    -0.231651505276E+04   -0.57140E-05   -0.18536E-04  4528   0.139E-02    0.626E-03
RMM:   2    -0.231651505543E+04   -0.26685E-05   -0.19816E-05  2451   0.386E-03
 161 F= -.23373458E+04 E0= -.23373458E+04  d E =-.678426E-05  mag=     6.0000
       N       E                     dE             d eps       ncg     rms          rms(c)
DAV:   1    -0.231651505714E+04   -0.43790E-05   -0.53772E-04  4320   0.231E-02    0.645E-03
RMM:   2    -0.231651506111E+04   -0.39708E-05   -0.41294E-05  2646   0.552E-03
 162 F= -.23373458E+04 E0= -.23373458E+04  d E =-.402188E-05  mag=     6.0000
       N       E                     dE             d eps       ncg     rms          rms(c)
DAV:   1    -0.231651506243E+04   -0.52898E-05   -0.62872E-05  4328   0.846E-03    0.524E-03
RMM:   2    -0.231651506392E+04   -0.14853E-05   -0.87131E-06  2352   0.252E-03
 163 F= -.23373458E+04 E0= -.23373458E+04  d E =-.629806E-05  mag=     6.0000
       N       E                     dE             d eps       ncg     rms          rms(c)
DAV:   1    -0.231651506329E+04   -0.85693E-06   -0.22605E-04  4288   0.151E-02    0.448E-03
RMM:   2    -0.231651506487E+04   -0.15833E-05   -0.17376E-05  2395   0.365E-03
 164 F= -.23373458E+04 E0= -.23373458E+04  d E =-.617856E-05  mag=     6.0000
       N       E                     dE             d eps       ncg     rms          rms(c)
DAV:   1    -0.231651506933E+04   -0.60408E-05   -0.52005E-04  4272   0.226E-02    0.726E-03
RMM:   2    -0.231651507414E+04   -0.48054E-05   -0.42371E-05  2577   0.553E-03
 165 F= -.23373458E+04 E0= -.23373458E+04  d E =-.804665E-05  mag=     6.0000
       N       E                     dE             d eps       ncg     rms          rms(c)
DAV:   1    -0.231651507391E+04   -0.45775E-05   -0.61959E-04  4344   0.248E-02    0.765E-03
RMM:   2    -0.231651507922E+04   -0.53124E-05   -0.52180E-05  2828   0.609E-03
 166 F= -.23373458E+04 E0= -.23373458E+04  d E =-.118034E-04  mag=     6.0000
       N       E                     dE             d eps       ncg     rms          rms(c)
DAV:   1    -0.231651508644E+04   -0.12532E-04   -0.58182E-04  4296   0.242E-02    0.811E-03
RMM:   2    -0.231651509206E+04   -0.56160E-05   -0.51907E-05  2753   0.610E-03
 167 F= -.23373458E+04 E0= -.23373458E+04  d E =-.842169E-05  mag=     6.0000
       N       E                     dE             d eps       ncg     rms          rms(c)
DAV:   1    -0.231651509373E+04   -0.72855E-05   -0.14572E-04  4888   0.127E-02    0.562E-03
RMM:   2    -0.231651509538E+04   -0.16523E-05   -0.15207E-05  2424   0.337E-03
 168 F= -.23373458E+04 E0= -.23373458E+04  d E =-.960567E-05  mag=     6.0000
       N       E                     dE             d eps       ncg     rms          rms(c)
DAV:   1    -0.231651509635E+04   -0.26287E-05   -0.54154E-04  4304   0.232E-02    0.743E-03
RMM:   2    -0.231651510062E+04   -0.42639E-05   -0.43065E-05  2611   0.557E-03
 169 F= -.23373458E+04 E0= -.23373458E+04  d E =-.105482E-04  mag=     6.0000
       N       E                     dE             d eps       ncg     rms          rms(c)
DAV:   1    -0.231651510420E+04   -0.78509E-05   -0.91854E-04  4416   0.299E-02    0.949E-03
RMM:   2    -0.231651511271E+04   -0.85018E-05   -0.77620E-05  2957   0.720E-03
 170 F= -.23373458E+04 E0= -.23373458E+04  d E =-.807319E-05  mag=     6.0000
       N       E                     dE             d eps       ncg     rms          rms(c)
DAV:   1    -0.231651511409E+04   -0.98834E-05   -0.15730E-04  4832   0.131E-02    0.595E-03
RMM:   2    -0.231651511607E+04   -0.19862E-05   -0.17785E-05  2435   0.345E-03
 171 F= -.23373458E+04 E0= -.23373458E+04  d E =-.987643E-05  mag=     6.0000
       N       E                     dE             d eps       ncg     rms          rms(c)
DAV:   1    -0.231651512262E+04   -0.85359E-05   -0.62779E-04  4312   0.251E-02    0.759E-03
RMM:   2    -0.231651512748E+04   -0.48565E-05   -0.49103E-05  2634   0.597E-03
 172 F= -.23373458E+04 E0= -.23373458E+04  d E =-.969311E-05  mag=     6.0000
       N       E                     dE             d eps       ncg     rms          rms(c)
DAV:   1    -0.231651512982E+04   -0.71909E-05   -0.75961E-04  4408   0.278E-02    0.101E-02
RMM:   2    -0.231651513686E+04   -0.70488E-05   -0.63903E-05  2956   0.687E-03
 173 F= -.23373458E+04 E0= -.23373458E+04  d E =-.171921E-04  mag=     6.0000
       N       E                     dE             d eps       ncg     rms          rms(c)
DAV:   1    -0.231651513945E+04   -0.96376E-05   -0.60490E-04  4328   0.251E-02    0.882E-03
RMM:   2    -0.231651514500E+04   -0.55487E-05   -0.54870E-05  2943   0.624E-03
 174 F= -.23373458E+04 E0= -.23373458E+04  d E =-.482616E-05  mag=     6.0000
       N       E                     dE             d eps       ncg     rms          rms(c)
DAV:   1    -0.231651514421E+04   -0.47596E-05   -0.10333E-05  3392   0.456E-03    0.510E-03
RMM:   2    -0.231651514464E+04   -0.42858E-06   -0.26122E-06  2206   0.174E-03
 175 F= -.23373458E+04 E0= -.23373458E+04  d E =-.450027E-05  mag=     6.0000
       N       E                     dE             d eps       ncg     rms          rms(c)
DAV:   1    -0.231651514406E+04    0.14858E-06   -0.24912E-06  2360   0.211E-03    0.235E-03
RMM:   2    -0.231651514406E+04    0.45984E-08   -0.24873E-07  1015   0.673E-04
 176 F= -.23373458E+04 E0= -.23373458E+04  d E =-.388577E-05  mag=     6.0000
       N       E                     dE             d eps       ncg     rms          rms(c)
DAV:   1    -0.231651515046E+04   -0.63948E-05   -0.60928E-04  4256   0.245E-02    0.713E-03
RMM:   2    -0.231651515508E+04   -0.46180E-05   -0.45231E-05  2626   0.479E-03
 177 F= -.23373458E+04 E0= -.23373458E+04  d E =-.634831E-05  mag=     6.0000
       N       E                     dE             d eps       ncg     rms          rms(c)
DAV:   1    -0.231651515539E+04   -0.49307E-05   -0.12803E-05  2552   0.442E-03    0.440E-03
RMM:   2    -0.231651515629E+04   -0.89945E-06   -0.38685E-06  2213   0.227E-03
 178 F= -.23373458E+04 E0= -.23373458E+04  d E =-.710961E-05  mag=     6.0000
       N       E                     dE             d eps       ncg     rms          rms(c)
DAV:   1    -0.231651516402E+04   -0.86312E-05   -0.61705E-04  4272   0.246E-02    0.733E-03
RMM:   2    -0.231651516869E+04   -0.46695E-05   -0.49440E-05  2677   0.511E-03
 179 F= -.23373458E+04 E0= -.23373458E+04  d E =-.532264E-05  mag=     6.0000
       N       E                     dE             d eps       ncg     rms          rms(c)
DAV:   1    -0.231651517175E+04   -0.77282E-05   -0.71503E-05  4496   0.891E-03    0.637E-03
RMM:   2    -0.231651517413E+04   -0.23765E-05   -0.11714E-05  2377   0.263E-03
 180 F= -.23373458E+04 E0= -.23373458E+04  d E =-.845604E-05  mag=     6.0000
       N       E                     dE             d eps       ncg     rms          rms(c)
DAV:   1    -0.231651517844E+04   -0.66928E-05   -0.46055E-04  4264   0.214E-02    0.627E-03
RMM:   2    -0.231651518208E+04   -0.36415E-05   -0.39248E-05  2580   0.499E-03
 181 F= -.23373458E+04 E0= -.23373458E+04  d E =-.264784E-05  mag=     6.0000
       N       E                     dE             d eps       ncg     rms          rms(c)
DAV:   1    -0.231651518275E+04   -0.43107E-05   -0.69358E-06  2456   0.367E-03    0.463E-03
RMM:   2    -0.231651518382E+04   -0.10694E-05   -0.32540E-06  2182   0.166E-03
 182 F= -.23373458E+04 E0= -.23373458E+04  d E =-.414159E-05  mag=     6.0000
       N       E                     dE             d eps       ncg     rms          rms(c)
DAV:   1    -0.231651518841E+04   -0.56537E-05   -0.29505E-04  4176   0.168E-02    0.469E-03
RMM:   2    -0.231651519072E+04   -0.23181E-05   -0.24853E-05  2448   0.378E-03
 183 F= -.23373458E+04 E0= -.23373458E+04  d E =-.290294E-05  mag=     6.0000
       N       E                     dE             d eps       ncg     rms          rms(c)
DAV:   1    -0.231651519281E+04   -0.43994E-05   -0.52347E-05  4096   0.749E-03    0.392E-03
RMM:   2    -0.231651519389E+04   -0.10806E-05   -0.73257E-06  2334   0.235E-03
 184 F= -.23373458E+04 E0= -.23373458E+04  d E =-.441165E-05  mag=     6.0000
       N       E                     dE             d eps       ncg     rms          rms(c)
DAV:   1    -0.231651519581E+04   -0.30047E-05   -0.20127E-04  4216   0.140E-02    0.432E-03
RMM:   2    -0.231651519755E+04   -0.17388E-05   -0.18631E-05  2394   0.350E-03
 185 F= -.23373458E+04 E0= -.23373458E+04  d E =-.476972E-05  mag=     6.0000
       N       E                     dE             d eps       ncg     rms          rms(c)
DAV:   1    -0.231651520333E+04   -0.75242E-05   -0.31749E-04  4216   0.174E-02    0.626E-03
RMM:   2    -0.231651520698E+04   -0.36507E-05   -0.31514E-05  2483   0.455E-03
 186 F= -.23373459E+04 E0= -.23373459E+04  d E =-.586662E-05  mag=     6.0000
       N       E                     dE             d eps       ncg     rms          rms(c)
DAV:   1    -0.231651520856E+04   -0.52267E-05   -0.11588E-04  4496   0.110E-02    0.412E-03
RMM:   2    -0.231651520986E+04   -0.12959E-05   -0.13064E-05  2383   0.304E-03
 187 F= -.23373459E+04 E0= -.23373459E+04  d E =-.665236E-05  mag=     6.0000
       N       E                     dE             d eps       ncg     rms          rms(c)
DAV:   1    -0.231651521729E+04   -0.87334E-05   -0.32700E-04  4184   0.176E-02    0.563E-03
RMM:   2    -0.231651522042E+04   -0.31303E-05   -0.30333E-05  2459   0.450E-03
 188 F= -.23373459E+04 E0= -.23373459E+04  d E =-.619609E-05  mag=     6.0000
       N       E                     dE             d eps       ncg     rms          rms(c)
DAV:   1    -0.231651522543E+04   -0.81352E-05   -0.39224E-04  4224   0.194E-02    0.677E-03
RMM:   2    -0.231651522948E+04   -0.40505E-05   -0.38364E-05  2594   0.516E-03
 189 F= -.23373459E+04 E0= -.23373459E+04  d E =-.104671E-04  mag=     6.0000
       N       E                     dE             d eps       ncg     rms          rms(c)
DAV:   1    -0.231651523111E+04   -0.56778E-05   -0.86036E-05  4640   0.963E-03    0.471E-03
RMM:   2    -0.231651523228E+04   -0.11775E-05   -0.10702E-05  2371   0.285E-03
 190 F= -.23373459E+04 E0= -.23373459E+04  d E =-.111338E-04  mag=     6.0000
       N       E                     dE             d eps       ncg     rms          rms(c)
DAV:   1    -0.231651523777E+04   -0.66652E-05   -0.30711E-04  4184   0.168E-02    0.538E-03
RMM:   2    -0.231651524047E+04   -0.26961E-05   -0.27048E-05  2442   0.419E-03
 191 F= -.23373459E+04 E0= -.23373459E+04  d E =-.444535E-05  mag=     6.0000
       N       E                     dE             d eps       ncg     rms          rms(c)
DAV:   1    -0.231651524313E+04   -0.53549E-05   -0.12302E-04  4192   0.110E-02    0.477E-03
RMM:   2    -0.231651524480E+04   -0.16718E-05   -0.14125E-05  2378   0.312E-03
 192 F= -.23373459E+04 E0= -.23373459E+04  d E =-.644413E-05  mag=     6.0000
       N       E                     dE             d eps       ncg     rms          rms(c)
DAV:   1    -0.231651525119E+04   -0.80665E-05   -0.21831E-04  4224   0.144E-02    0.445E-03
RMM:   2    -0.231651525312E+04   -0.19285E-05   -0.19685E-05  2409   0.377E-03
 193 F= -.23373459E+04 E0= -.23373459E+04  d E =-.466571E-05  mag=     6.0000
       N       E                     dE             d eps       ncg     rms          rms(c)
DAV:   1    -0.231651525887E+04   -0.76724E-05   -0.38828E-04  4200   0.191E-02    0.656E-03
RMM:   2    -0.231651526266E+04   -0.37962E-05   -0.35037E-05  2536   0.499E-03
 194 F= -.23373459E+04 E0= -.23373459E+04  d E =-.930419E-05  mag=     6.0000
       N       E                     dE             d eps       ncg     rms          rms(c)
DAV:   1    -0.231651526768E+04   -0.88134E-05   -0.27969E-04  4208   0.167E-02    0.589E-03
RMM:   2    -0.231651527051E+04   -0.28276E-05   -0.27420E-05  2459   0.449E-03
 195 F= -.23373459E+04 E0= -.23373459E+04  d E =-.456594E-05  mag=     6.0000
       N       E                     dE             d eps       ncg     rms          rms(c)
DAV:   1    -0.231651527158E+04   -0.39013E-05   -0.34444E-05  3456   0.655E-03    0.377E-03
RMM:   2    -0.231651527221E+04   -0.63327E-06   -0.53774E-06  2290   0.303E-03
 196 F= -.23373459E+04 E0= -.23373459E+04  d E =-.518916E-05  mag=     6.0000
       N       E                     dE             d eps       ncg     rms          rms(c)
DAV:   1    -0.231651527499E+04   -0.34061E-05   -0.23561E-04  4168   0.147E-02    0.463E-03
RMM:   2    -0.231651527688E+04   -0.18978E-05   -0.19663E-05  2398   0.348E-03
 197 F= -.23373459E+04 E0= -.23373459E+04  d E =-.362495E-05  mag=     6.0000
       N       E                     dE             d eps       ncg     rms          rms(c)
DAV:   1    -0.231651527722E+04   -0.22346E-05   -0.13191E-05  2688   0.417E-03    0.332E-03
RMM:   2    -0.231651527779E+04   -0.56630E-06   -0.30877E-06  2203   0.231E-03
 198 F= -.23373459E+04 E0= -.23373459E+04  d E =-.430181E-05  mag=     6.0000
       N       E                     dE             d eps       ncg     rms          rms(c)
DAV:   1    -0.231651528068E+04   -0.34598E-05   -0.10771E-04  4136   0.986E-03    0.305E-03
RMM:   2    -0.231651528157E+04   -0.89151E-06   -0.95405E-06  2325   0.235E-03
 199 F= -.23373459E+04 E0= -.23373459E+04  d E =-.218072E-05  mag=     6.0000
       N       E                     dE             d eps       ncg     rms          rms(c)
DAV:   1    -0.231651528361E+04   -0.29274E-05   -0.48800E-04  4216   0.204E-02    0.679E-03
RMM:   2    -0.231651528820E+04   -0.45923E-05   -0.42577E-05  2582   0.483E-03
 200 F= -.23373459E+04 E0= -.23373459E+04  d E =-.533576E-05  mag=     6.0000
       N       E                     dE             d eps       ncg     rms          rms(c)
DAV:   1    -0.231651529348E+04   -0.98751E-05   -0.15828E-04  4360   0.122E-02    0.481E-03
RMM:   2    -0.231651529554E+04   -0.20540E-05   -0.18052E-05  2393   0.334E-03
 201 F= -.23373459E+04 E0= -.23373459E+04  d E =-.448986E-05  mag=     6.0000
