       N       E                     dE             d eps       ncg     rms          rms(c)
DAV:   1     0.131793369674E+05    0.13179E+05   -0.84521E+05  4528   0.145E+03
DAV:   2    -0.994078258920E+03   -0.14173E+05   -0.13535E+05  4936   0.332E+02
DAV:   3    -0.248166249202E+04   -0.14876E+04   -0.14685E+04  5496   0.116E+02
DAV:   4    -0.252981716090E+04   -0.48155E+02   -0.47860E+02  6752   0.304E+01
DAV:   5    -0.253066460132E+04   -0.84744E+00   -0.84491E+00  6368   0.355E+00    0.170E+02
RMM:   6    -0.149902263971E+04    0.10316E+04   -0.19723E+03  4470   0.385E+01    0.731E+01
RMM:   7    -0.166995715258E+04   -0.17093E+03   -0.30115E+02  5336   0.149E+01    0.551E+01
RMM:   8    -0.171734687435E+04   -0.47390E+02   -0.78669E+01  5292   0.832E+00    0.467E+01
RMM:   9    -0.177327801791E+04   -0.55931E+02   -0.56100E+01  5163   0.683E+00    0.378E+01
RMM:  10    -0.189600676096E+04   -0.12273E+03   -0.63767E+01  5495   0.781E+00    0.319E+01
RMM:  11    -0.197382000316E+04   -0.77813E+02   -0.34727E+01  5474   0.533E+00    0.221E+01
RMM:  12    -0.204577054435E+04   -0.71951E+02   -0.26747E+01  5118   0.418E+00    0.210E+01
RMM:  13    -0.209737938278E+04   -0.51609E+02   -0.19624E+01  5303   0.356E+00    0.146E+01
RMM:  14    -0.219456246471E+04   -0.97183E+02   -0.59212E+01  4777   0.581E+00    0.128E+01
RMM:  15    -0.227734033829E+04   -0.82778E+02   -0.71938E+01  4724   0.594E+00    0.695E+00
RMM:  16    -0.230887712120E+04   -0.31537E+02   -0.31518E+01  4949   0.417E+00    0.485E+00
RMM:  17    -0.231655576822E+04   -0.76786E+01   -0.92925E+00  5170   0.220E+00    0.421E+00
RMM:  18    -0.231822951810E+04   -0.16737E+01   -0.15564E+00  5618   0.835E-01    0.310E+00
RMM:  19    -0.232097343958E+04   -0.27439E+01   -0.14731E+00  4620   0.808E-01    0.134E+00
RMM:  20    -0.232156591790E+04   -0.59248E+00   -0.37672E-01  4680   0.519E-01    0.765E-01
RMM:  21    -0.232184365540E+04   -0.27774E+00   -0.16973E-01  4767   0.247E-01    0.423E-01
RMM:  22    -0.232192084754E+04   -0.77192E-01   -0.54323E-02  4934   0.168E-01    0.225E-01
RMM:  23    -0.232196107844E+04   -0.40231E-01   -0.17960E-02  4694   0.976E-02    0.167E-01
RMM:  24    -0.232198418953E+04   -0.23111E-01   -0.72929E-03  4647   0.687E-02    0.108E-01
RMM:  25    -0.232200094111E+04   -0.16752E-01   -0.48411E-03  4556   0.530E-02    0.746E-02
RMM:  26    -0.232200880134E+04   -0.78602E-02   -0.22696E-03  4687   0.392E-02    0.518E-02
RMM:  27    -0.232201294992E+04   -0.41486E-02   -0.13848E-03  4536   0.253E-02    0.244E-02
RMM:  28    -0.232201488383E+04   -0.19339E-02   -0.64233E-04  4187   0.193E-02    0.142E-02
RMM:  29    -0.232201532165E+04   -0.43782E-03   -0.17782E-04  4038   0.104E-02    0.781E-03
RMM:  30    -0.232201554682E+04   -0.22516E-03   -0.63853E-05  3591   0.703E-03    0.461E-03
RMM:  31    -0.232201563355E+04   -0.86734E-04   -0.22655E-05  3076   0.477E-03    0.248E-03
RMM:  32    -0.232201567200E+04   -0.38450E-04   -0.98332E-06  2870   0.343E-03    0.163E-03
RMM:  33    -0.232201568982E+04   -0.17825E-04   -0.61559E-06  2839   0.275E-03    0.934E-04
RMM:  34    -0.232201569267E+04   -0.28463E-05   -0.26571E-06  2436   0.211E-03
   1 F= -.23433888E+04 E0= -.23433888E+04  d E =-.234339E+04  mag=     2.0000
       N       E                     dE             d eps       ncg     rms          rms(c)
DAV:   1    -0.232167544323E+04    0.34025E+00   -0.49289E+01  4928   0.616E+00    0.207E+00
RMM:   2    -0.232242832160E+04   -0.75288E+00   -0.80991E+00  6580   0.159E+00    0.157E+00
RMM:   3    -0.232248524567E+04   -0.56924E-01   -0.75801E-01  6298   0.532E-01    0.210E+00
RMM:   4    -0.232243785908E+04    0.47387E-01   -0.71482E-02  6555   0.136E-01    0.728E-01
RMM:   5    -0.232243331733E+04    0.45418E-02   -0.18815E-02  6018   0.727E-02    0.642E-01
RMM:   6    -0.232243073629E+04    0.25810E-02   -0.18193E-02  6091   0.689E-02    0.507E-01
RMM:   7    -0.232242765104E+04    0.30852E-02   -0.83472E-03  6178   0.510E-02    0.153E-01
RMM:   8    -0.232242737901E+04    0.27203E-03   -0.73562E-04  5020   0.183E-02    0.755E-02
RMM:   9    -0.232242726371E+04    0.11530E-03   -0.44633E-04  4246   0.129E-02    0.333E-02
RMM:  10    -0.232242727165E+04   -0.79351E-05   -0.19470E-04  3894   0.767E-03    0.297E-02
RMM:  11    -0.232242726781E+04    0.38320E-05   -0.27134E-05  2921   0.493E-03
   2 F= -.23438031E+04 E0= -.23438031E+04  d E =-.414249E+00  mag=     2.0000
       N       E                     dE             d eps       ncg     rms          rms(c)
DAV:   1    -0.232193299948E+04    0.49427E+00   -0.40847E+01  4656   0.577E+00    0.185E+00
RMM:   2    -0.232254163655E+04   -0.60864E+00   -0.64990E+00  6599   0.149E+00    0.151E+00
RMM:   3    -0.232259203677E+04   -0.50400E-01   -0.62794E-01  6282   0.500E-01    0.197E+00
RMM:   4    -0.232254903624E+04    0.43001E-01   -0.60962E-02  6609   0.130E-01    0.661E-01
RMM:   5    -0.232254504856E+04    0.39877E-02   -0.14905E-02  6095   0.660E-02    0.578E-01
RMM:   6    -0.232254287991E+04    0.21686E-02   -0.13943E-02  6097   0.608E-02    0.467E-01
RMM:   7    -0.232254013529E+04    0.27446E-02   -0.73871E-03  6232   0.490E-02    0.132E-01
RMM:   8    -0.232253991780E+04    0.21748E-03   -0.53477E-04  4660   0.171E-02    0.656E-02
RMM:   9    -0.232253988278E+04    0.35026E-04   -0.34608E-04  4051   0.106E-02    0.776E-02
RMM:  10    -0.232253981345E+04    0.69328E-04   -0.14487E-04  3188   0.771E-03    0.269E-02
RMM:  11    -0.232253980618E+04    0.72671E-05   -0.58586E-05  3183   0.512E-03
   3 F= -.23439186E+04 E0= -.23439186E+04  d E =-.529726E+00  mag=     2.0000
       N       E                     dE             d eps       ncg     rms          rms(c)
DAV:   1    -0.232230242974E+04    0.23738E+00   -0.55386E+01  4560   0.703E+00    0.253E+00
RMM:   2    -0.232271128452E+04   -0.40885E+00   -0.44019E+00  6185   0.154E+00    0.167E+00
RMM:   3    -0.232277742839E+04   -0.66144E-01   -0.43210E-01  6123   0.548E-01    0.287E+00
RMM:   4    -0.232267920944E+04    0.98219E-01   -0.63613E-02  6457   0.172E-01    0.660E-01
RMM:   5    -0.232267851585E+04    0.69360E-03   -0.25965E-02  5991   0.101E-01    0.788E-01
RMM:   6    -0.232267126103E+04    0.72548E-02   -0.16565E-02  5993   0.791E-02    0.345E-01
RMM:   7    -0.232266951436E+04    0.17467E-02   -0.36390E-03  5866   0.465E-02    0.105E-01
RMM:   8    -0.232266927871E+04    0.23566E-03   -0.62027E-04  5165   0.154E-02    0.556E-02
RMM:   9    -0.232266913873E+04    0.13998E-03   -0.24118E-04  4546   0.123E-02    0.259E-02
RMM:  10    -0.232266910216E+04    0.36562E-04   -0.10118E-04  4274   0.854E-03    0.340E-02
RMM:  11    -0.232266907945E+04    0.22710E-04   -0.40172E-05  3144   0.641E-03    0.157E-02
RMM:  12    -0.232266906547E+04    0.13986E-04   -0.25876E-05  3065   0.472E-03    0.759E-03
RMM:  13    -0.232266906198E+04    0.34912E-05   -0.20319E-05  3067   0.451E-03
   4 F= -.23440496E+04 E0= -.23440496E+04  d E =-.131035E+00  mag=     2.0000
       N       E                     dE             d eps       ncg     rms          rms(c)
DAV:   1    -0.232266249566E+04    0.65698E-02   -0.26694E+00  4688   0.149E+00    0.567E-01
RMM:   2    -0.232268197076E+04   -0.19475E-01   -0.20729E-01  6221   0.339E-01    0.376E-01
RMM:   3    -0.232268565497E+04   -0.36842E-02   -0.19498E-02  6098   0.115E-01    0.660E-01
RMM:   4    -0.232268047111E+04    0.51839E-02   -0.30820E-03  5987   0.380E-02    0.125E-01
RMM:   5    -0.232268038383E+04    0.87275E-04   -0.14716E-03  5571   0.250E-02    0.146E-01
RMM:   6    -0.232268012241E+04    0.26142E-03   -0.57928E-04  5174   0.159E-02    0.554E-02
RMM:   7    -0.232268007695E+04    0.45464E-04   -0.97371E-05  4037   0.736E-03    0.212E-02
RMM:   8    -0.232268006650E+04    0.10446E-04   -0.26218E-05  3060   0.463E-03    0.162E-02
RMM:   9    -0.232268006409E+04    0.24077E-05   -0.15051E-05  2904   0.383E-03
   5 F= -.23440602E+04 E0= -.23440602E+04  d E =-.141670E+00  mag=     2.0000
       N       E                     dE             d eps       ncg     rms          rms(c)
DAV:   1    -0.232258083600E+04    0.99231E-01   -0.23936E+01  4544   0.420E+00    0.123E+00
RMM:   2    -0.232279700376E+04   -0.21617E+00   -0.21882E+00  6473   0.963E-01    0.114E+00
RMM:   3    -0.232281020767E+04   -0.13204E-01   -0.19452E-01  6406   0.289E-01    0.131E+00
RMM:   4    -0.232279143463E+04    0.18773E-01   -0.22654E-02  6349   0.853E-02    0.399E-01
RMM:   5    -0.232279094361E+04    0.49102E-03   -0.54384E-03  5829   0.386E-02    0.397E-01
RMM:   6    -0.232278898785E+04    0.19558E-02   -0.48190E-03  5642   0.443E-02    0.140E-01
RMM:   7    -0.232278885923E+04    0.12862E-03   -0.10326E-03  5635   0.229E-02    0.625E-02
RMM:   8    -0.232278885387E+04    0.53548E-05   -0.21147E-04  3818   0.917E-03    0.647E-02
RMM:   9    -0.232278880789E+04    0.45981E-04   -0.86473E-05  3284   0.699E-03    0.289E-02
RMM:  10    -0.232278879476E+04    0.13131E-04   -0.32438E-05  3017   0.454E-03    0.110E-02
RMM:  11    -0.232278879397E+04    0.78969E-06   -0.12920E-05  2911   0.377E-03
   6 F= -.23441684E+04 E0= -.23441684E+04  d E =-.108221E+00  mag=     2.0000
       N       E                     dE             d eps       ncg     rms          rms(c)
DAV:   1    -0.232257106866E+04    0.21773E+00   -0.30012E+01  4528   0.468E+00    0.136E+00
RMM:   2    -0.232284220803E+04   -0.27114E+00   -0.27523E+00  6471   0.107E+00    0.123E+00
RMM:   3    -0.232285946608E+04   -0.17258E-01   -0.24533E-01  6399   0.319E-01    0.145E+00
RMM:   4    -0.232283635162E+04    0.23114E-01   -0.28286E-02  6348   0.943E-02    0.433E-01
RMM:   5    -0.232283583976E+04    0.51186E-03   -0.66701E-03  5848   0.425E-02    0.442E-01
RMM:   6    -0.232283345586E+04    0.23839E-02   -0.59208E-03  5692   0.486E-02    0.165E-01
RMM:   7    -0.232283324925E+04    0.20661E-03   -0.13385E-03  5713   0.254E-02    0.704E-02
RMM:   8    -0.232283324371E+04    0.55339E-05   -0.26999E-04  4049   0.103E-02    0.717E-02
RMM:   9    -0.232283318816E+04    0.55556E-04   -0.11218E-04  3419   0.764E-03    0.333E-02
RMM:  10    -0.232283317207E+04    0.16086E-04   -0.39251E-05  3057   0.494E-03    0.127E-02
RMM:  11    -0.232283317201E+04    0.63563E-07   -0.16430E-05  2937   0.408E-03
   7 F= -.23442120E+04 E0= -.23442120E+04  d E =-.151783E+00  mag=     2.0000
       N       E                     dE             d eps       ncg     rms          rms(c)
DAV:   1    -0.232269025873E+04    0.14291E+00   -0.22498E+01  4516   0.405E+00    0.124E+00
RMM:   2    -0.232291330480E+04   -0.22305E+00   -0.23332E+00  6457   0.950E-01    0.830E-01
RMM:   3    -0.232293368743E+04   -0.20383E-01   -0.22179E-01  6342   0.297E-01    0.115E+00
RMM:   4    -0.232292018375E+04    0.13504E-01   -0.24784E-02  6498   0.822E-02    0.431E-01
RMM:   5    -0.232291914208E+04    0.10417E-02   -0.48373E-03  5805   0.352E-02    0.378E-01
RMM:   6    -0.232291745317E+04    0.16889E-02   -0.41230E-03  5669   0.395E-02    0.170E-01
RMM:   7    -0.232291716613E+04    0.28704E-03   -0.16574E-03  5704   0.254E-02    0.638E-02
RMM:   8    -0.232291711849E+04    0.47638E-04   -0.17306E-04  4173   0.112E-02    0.396E-02
RMM:   9    -0.232291712141E+04   -0.29169E-05   -0.94673E-05  3208   0.669E-03
   8 F= -.23442952E+04 E0= -.23442952E+04  d E =-.832282E-01  mag=     2.0000
       N       E                     dE             d eps       ncg     rms          rms(c)
DAV:   1    -0.232277239706E+04    0.14472E+00   -0.16957E+01  4516   0.352E+00    0.108E+00
RMM:   2    -0.232293917772E+04   -0.16678E+00   -0.17481E+00  6440   0.820E-01    0.710E-01
RMM:   3    -0.232295509466E+04   -0.15917E-01   -0.16525E-01  6327   0.260E-01    0.101E+00
RMM:   4    -0.232294459902E+04    0.10496E-01   -0.18624E-02  6476   0.718E-02    0.367E-01
RMM:   5    -0.232294392975E+04    0.66927E-03   -0.37116E-03  5686   0.310E-02    0.334E-01
RMM:   6    -0.232294260991E+04    0.13198E-02   -0.31455E-03  5616   0.345E-02    0.146E-01
RMM:   7    -0.232294239454E+04    0.21537E-03   -0.12035E-03  5584   0.219E-02    0.560E-02
RMM:   8    -0.232294235676E+04    0.37788E-04   -0.13052E-04  3926   0.101E-02    0.344E-02
RMM:   9    -0.232294235731E+04   -0.55229E-06   -0.71863E-05  3120   0.612E-03
   9 F= -.23443196E+04 E0= -.23443196E+04  d E =-.107579E+00  mag=     2.0000
       N       E                     dE             d eps       ncg     rms          rms(c)
DAV:   1    -0.232277019779E+04    0.17216E+00   -0.22176E+01  4504   0.402E+00    0.128E+00
RMM:   2    -0.232299979841E+04   -0.22960E+00   -0.24106E+00  6441   0.928E-01    0.925E-01
RMM:   3    -0.232301309536E+04   -0.13297E-01   -0.24227E-01  6296   0.314E-01    0.869E-01
RMM:   4    -0.232300362626E+04    0.94691E-02   -0.23731E-02  6284   0.787E-02    0.359E-01
RMM:   5    -0.232300220734E+04    0.14189E-02   -0.50666E-03  5849   0.428E-02    0.276E-01
RMM:   6    -0.232300282128E+04   -0.61393E-03   -0.34818E-03  5859   0.350E-02    0.364E-01
RMM:   7    -0.232300136567E+04    0.14556E-02   -0.14772E-03  5846   0.245E-02    0.864E-02
RMM:   8    -0.232300127064E+04    0.95033E-04   -0.23120E-04  4507   0.102E-02    0.498E-02
RMM:   9    -0.232300124835E+04    0.22284E-04   -0.10113E-04  3165   0.684E-03    0.457E-02
RMM:  10    -0.232300120339E+04    0.44964E-04   -0.53319E-05  3072   0.562E-03    0.152E-02
RMM:  11    -0.232300119205E+04    0.11334E-04   -0.40638E-05  3150   0.513E-03    0.648E-03
RMM:  12    -0.232300118850E+04    0.35574E-05   -0.94038E-06  2873   0.402E-03
  10 F= -.23443782E+04 E0= -.23443782E+04  d E =-.586365E-01  mag=     2.0000
       N       E                     dE             d eps       ncg     rms          rms(c)
DAV:   1    -0.232296655869E+04    0.34633E-01   -0.39507E+00  4592   0.168E+00    0.534E-01
RMM:   2    -0.232300645576E+04   -0.39897E-01   -0.41948E-01  6450   0.386E-01    0.372E-01
RMM:   3    -0.232300904277E+04   -0.25870E-02   -0.41312E-02  6224   0.129E-01    0.371E-01
RMM:   4    -0.232300731592E+04    0.17269E-02   -0.41276E-03  5821   0.330E-02    0.147E-01
RMM:   5    -0.232300706332E+04    0.25260E-03   -0.95564E-04  5269   0.187E-02    0.116E-01
RMM:   6    -0.232300713920E+04   -0.75875E-04   -0.58644E-04  4912   0.157E-02    0.142E-01
RMM:   7    -0.232300692066E+04    0.21854E-03   -0.21641E-04  4817   0.997E-03    0.396E-02
RMM:   8    -0.232300690563E+04    0.15032E-04   -0.48504E-05  3039   0.582E-03    0.275E-02
RMM:   9    -0.232300689384E+04    0.11787E-04   -0.16981E-05  2952   0.379E-03    0.130E-02
RMM:  10    -0.232300688736E+04    0.64799E-05   -0.12287E-05  2921   0.297E-03
  11 F= -.23443837E+04 E0= -.23443837E+04  d E =-.641480E-01  mag=     2.0000
       N       E                     dE             d eps       ncg     rms          rms(c)
DAV:   1    -0.232292021179E+04    0.86682E-01   -0.14103E+01  4504   0.322E+00    0.948E-01
RMM:   2    -0.232304896087E+04   -0.12875E+00   -0.13216E+00  6483   0.688E-01    0.872E-01
RMM:   3    -0.232305221530E+04   -0.32544E-02   -0.13465E-01  6284   0.236E-01    0.735E-01
RMM:   4    -0.232304647603E+04    0.57393E-02   -0.12976E-02  6157   0.607E-02    0.357E-01
RMM:   5    -0.232304619437E+04    0.28165E-03   -0.30202E-03  5847   0.295E-02    0.374E-01
RMM:   6    -0.232304442915E+04    0.17652E-02   -0.29849E-03  5531   0.323E-02    0.114E-01
RMM:   7    -0.232304443977E+04   -0.10622E-04   -0.11053E-03  5479   0.216E-02    0.104E-01
RMM:   8    -0.232304432570E+04    0.11407E-03   -0.27828E-04  3703   0.102E-02    0.472E-02
RMM:   9    -0.232304429177E+04    0.33929E-04   -0.46721E-05  3323   0.615E-03    0.213E-02
RMM:  10    -0.232304428094E+04    0.10833E-04   -0.30019E-05  2999   0.410E-03    0.868E-03
RMM:  11    -0.232304427963E+04    0.13043E-05   -0.91363E-06  2923   0.330E-03
  12 F= -.23444212E+04 E0= -.23444212E+04  d E =-.374267E-01  mag=     2.0000
       N       E                     dE             d eps       ncg     rms          rms(c)
DAV:   1    -0.232300027900E+04    0.44002E-01   -0.58547E+00  4528   0.208E+00    0.609E-01
RMM:   2    -0.232305325074E+04   -0.52972E-01   -0.54288E-01  6483   0.443E-01    0.565E-01
RMM:   3    -0.232305467358E+04   -0.14228E-02   -0.55139E-02  6240   0.151E-01    0.482E-01
RMM:   4    -0.232305218694E+04    0.24866E-02   -0.52971E-03  5898   0.391E-02    0.226E-01
RMM:   5    -0.232305210210E+04    0.84837E-04   -0.12949E-03  5434   0.195E-02    0.243E-01
RMM:   6    -0.232305135956E+04    0.74254E-03   -0.12600E-03  5335   0.212E-02    0.750E-02
RMM:   7    -0.232305139162E+04   -0.32053E-04   -0.46967E-04  4889   0.147E-02    0.821E-02
RMM:   8    -0.232305130771E+04    0.83909E-04   -0.12705E-04  3271   0.724E-03    0.245E-02
RMM:   9    -0.232305129853E+04    0.91731E-05   -0.20325E-05  3058   0.442E-03
  13 F= -.23444281E+04 E0= -.23444281E+04  d E =-.443972E-01  mag=     2.0000
       N       E                     dE             d eps       ncg     rms          rms(c)
DAV:   1    -0.232301018224E+04    0.41125E-01   -0.14659E+01  4504   0.336E+00    0.872E-01
RMM:   2    -0.232308167890E+04   -0.71497E-01   -0.77590E-01  6211   0.625E-01    0.424E-01
RMM:   3    -0.232308503982E+04   -0.33609E-02   -0.65001E-02  5903   0.202E-01    0.611E-01
RMM:   4    -0.232308182459E+04    0.32152E-02   -0.72188E-03  6311   0.515E-02    0.273E-01
RMM:   5    -0.232308147167E+04    0.35291E-03   -0.29612E-03  5539   0.336E-02    0.277E-01
RMM:   6    -0.232308068194E+04    0.78974E-03   -0.21548E-03  5747   0.285E-02    0.151E-01
RMM:   7    -0.232308039043E+04    0.29151E-03   -0.52852E-04  5322   0.163E-02    0.501E-02
RMM:   8    -0.232308038041E+04    0.10019E-04   -0.10374E-04  3208   0.744E-03    0.478E-02
RMM:   9    -0.232308034632E+04    0.34089E-04   -0.42293E-05  3033   0.576E-03    0.182E-02
RMM:  10    -0.232308033576E+04    0.10569E-04   -0.23819E-05  3004   0.422E-03    0.699E-03
RMM:  11    -0.232308033313E+04    0.26271E-05   -0.70663E-06  2872   0.374E-03
  14 F= -.23444573E+04 E0= -.23444573E+04  d E =-.291416E-01  mag=     2.0000
       N       E                     dE             d eps       ncg     rms          rms(c)
DAV:   1    -0.232307213663E+04    0.81991E-02   -0.22621E+00  4624   0.131E+00    0.340E-01
RMM:   2    -0.232308293928E+04   -0.10803E-01   -0.11708E-01  6195   0.244E-01    0.165E-01
RMM:   3    -0.232308359736E+04   -0.65808E-03   -0.99694E-03  5772   0.791E-02    0.257E-01
RMM:   4    -0.232308300467E+04    0.59269E-03   -0.11084E-03  5143   0.203E-02    0.101E-01
RMM:   5    -0.232308295980E+04    0.44868E-04   -0.50624E-04  4738   0.148E-02    0.107E-01
RMM:   6    -0.232308282401E+04    0.13580E-03   -0.31223E-04  4569   0.119E-02    0.491E-02
RMM:   7    -0.232308279411E+04    0.29896E-04   -0.68953E-05  3631   0.685E-03    0.192E-02
RMM:   8    -0.232308279208E+04    0.20275E-05   -0.15744E-05  2908   0.427E-03
  15 F= -.23444598E+04 E0= -.23444598E+04  d E =-.316219E-01  mag=     2.0000
       N       E                     dE             d eps       ncg     rms          rms(c)
DAV:   1    -0.232304920938E+04    0.33585E-01   -0.11412E+01  4504   0.295E+00    0.753E-01
RMM:   2    -0.232311120669E+04   -0.61997E-01   -0.64672E-01  6309   0.585E-01    0.560E-01
RMM:   3    -0.232311329662E+04   -0.20899E-02   -0.55154E-02  6029   0.174E-01    0.610E-01
RMM:   4    -0.232310858017E+04    0.47164E-02   -0.58549E-03  6016   0.488E-02    0.208E-01
RMM:   5    -0.232310834502E+04    0.23515E-03   -0.21029E-03  5510   0.295E-02    0.211E-01
RMM:   6    -0.232310816867E+04    0.17635E-03   -0.12690E-03  5648   0.221E-02    0.195E-01
RMM:   7    -0.232310780268E+04    0.36599E-03   -0.55117E-04  5275   0.157E-02    0.647E-02
RMM:   8    -0.232310776405E+04    0.38632E-04   -0.11083E-04  3223   0.769E-03    0.380E-02
RMM:   9    -0.232310774361E+04    0.20439E-04   -0.31849E-05  3051   0.485E-03    0.140E-02
RMM:  10    -0.232310774027E+04    0.33476E-05   -0.14188E-05  2939   0.364E-03
  16 F= -.23444851E+04 E0= -.23444851E+04  d E =-.253992E-01  mag=     2.0000
       N       E                     dE             d eps       ncg     rms          rms(c)
DAV:   1    -0.232305850598E+04    0.49238E-01   -0.11055E+01  4504   0.290E+00    0.741E-01
RMM:   2    -0.232311845480E+04   -0.59949E-01   -0.62594E-01  6307   0.574E-01    0.547E-01
RMM:   3    -0.232312052301E+04   -0.20682E-02   -0.53215E-02  6033   0.170E-01    0.598E-01
RMM:   4    -0.232311598834E+04    0.45347E-02   -0.56145E-03  5985   0.479E-02    0.204E-01
RMM:   5    -0.232311568000E+04    0.30835E-03   -0.20608E-03  5448   0.292E-02    0.189E-01
RMM:   6    -0.232311561915E+04    0.60849E-04   -0.12526E-03  5618   0.222E-02    0.198E-01
RMM:   7    -0.232311523577E+04    0.38338E-03   -0.51456E-04  5229   0.150E-02    0.663E-02
RMM:   8    -0.232311519546E+04    0.40313E-04   -0.10790E-04  3197   0.747E-03    0.378E-02
RMM:   9    -0.232311517494E+04    0.20520E-04   -0.30714E-05  3062   0.482E-03    0.139E-02
RMM:  10    -0.232311517128E+04    0.36567E-05   -0.14614E-05  2937   0.364E-03
  17 F= -.23444930E+04 E0= -.23444930E+04  d E =-.332586E-01  mag=     2.0000
       N       E                     dE             d eps       ncg     rms          rms(c)
DAV:   1    -0.232306056764E+04    0.54607E-01   -0.11496E+01  4504   0.303E+00    0.827E-01
RMM:   2    -0.232314273398E+04   -0.82166E-01   -0.81063E-01  6289   0.649E-01    0.880E-01
RMM:   3    -0.232314185627E+04    0.87770E-03   -0.72429E-02  6124   0.197E-01    0.759E-01
RMM:   4    -0.232313588720E+04    0.59691E-02   -0.85391E-03  6177   0.565E-02    0.352E-01
RMM:   5    -0.232313503042E+04    0.85677E-03   -0.23701E-03  5710   0.296E-02    0.268E-01
RMM:   6    -0.232313416801E+04    0.86242E-03   -0.17545E-03  4950   0.273E-02    0.116E-01
RMM:   7    -0.232313404714E+04    0.12086E-03   -0.82011E-04  5336   0.222E-02    0.703E-02
RMM:   8    -0.232313401317E+04    0.33978E-04   -0.19643E-04  3916   0.910E-03    0.488E-02
RMM:   9    -0.232313397645E+04    0.36711E-04   -0.36746E-05  3063   0.594E-03    0.171E-02
RMM:  10    -0.232313396971E+04    0.67407E-05   -0.20980E-05  2952   0.404E-03
  18 F= -.23445132E+04 E0= -.23445132E+04  d E =-.201564E-01  mag=     2.0000
       N       E                     dE             d eps       ncg     rms          rms(c)
DAV:   1    -0.232312424072E+04    0.97357E-02   -0.17390E+00  4656   0.119E+00    0.323E-01
RMM:   2    -0.232313678802E+04   -0.12547E-01   -0.12256E-01  6290   0.255E-01    0.357E-01
RMM:   3    -0.232313640963E+04    0.37839E-03   -0.10254E-02  5849   0.738E-02    0.289E-01
RMM:   4    -0.232313558335E+04    0.82628E-03   -0.13421E-03  5594   0.219E-02    0.143E-01
RMM:   5    -0.232313542245E+04    0.16090E-03   -0.35270E-04  3956   0.122E-02    0.101E-01
RMM:   6    -0.232313529503E+04    0.12742E-03   -0.28434E-04  4443   0.120E-02    0.435E-02
RMM:   7    -0.232313528102E+04    0.14012E-04   -0.12089E-04  3878   0.982E-03    0.306E-02
RMM:   8    -0.232313527101E+04    0.10005E-04   -0.32339E-05  3011   0.486E-03    0.159E-02
RMM:   9    -0.232313526698E+04    0.40384E-05   -0.64336E-06  2863   0.335E-03
  19 F= -.23445150E+04 E0= -.23445150E+04  d E =-.219815E-01  mag=     2.0000
       N       E                     dE             d eps       ncg     rms          rms(c)
DAV:   1    -0.232310542785E+04    0.29843E-01   -0.41976E+00  4528   0.193E+00    0.608E-01
RMM:   2    -0.232314920099E+04   -0.43773E-01   -0.41239E-01  6136   0.445E-01    0.776E-01
RMM:   3    -0.232314734079E+04    0.18602E-02   -0.41499E-02  6041   0.152E-01    0.575E-01
RMM:   4    -0.232314414586E+04    0.31949E-02   -0.49301E-03  6053   0.410E-02    0.245E-01
RMM:   5    -0.232314364675E+04    0.49911E-03   -0.12960E-03  5368   0.221E-02    0.187E-01
RMM:   6    -0.232314318653E+04    0.46022E-03   -0.89196E-04  5031   0.202E-02    0.668E-02
RMM:   7    -0.232314313748E+04    0.49049E-04   -0.31930E-04  4796   0.144E-02    0.257E-02
RMM:   8    -0.232314313141E+04    0.60699E-05   -0.33111E-05  3043   0.520E-03
  20 F= -.23445244E+04 E0= -.23445244E+04  d E =-.944809E-02  mag=     2.0000
       N       E                     dE             d eps       ncg     rms          rms(c)
DAV:   1    -0.232314229721E+04    0.84027E-03   -0.80708E-02  5008   0.268E-01    0.905E-02
RMM:   2    -0.232314320833E+04   -0.91111E-03   -0.82302E-03  6213   0.637E-02    0.127E-01
RMM:   3    -0.232314310679E+04    0.10154E-03   -0.82528E-04  4048   0.211E-02    0.791E-02
RMM:   4    -0.232314305403E+04    0.52762E-04   -0.10866E-04  3111   0.715E-03    0.417E-02
RMM:   5    -0.232314303627E+04    0.17758E-04   -0.30433E-05  2899   0.455E-03    0.246E-02
RMM:   6    -0.232314302688E+04    0.93844E-05   -0.19689E-05  2952   0.397E-03
  21 F= -.23445246E+04 E0= -.23445246E+04  d E =-.956315E-02  mag=     2.0000
       N       E                     dE             d eps       ncg     rms          rms(c)
DAV:   1    -0.232310964520E+04    0.33391E-01   -0.26581E+00  4528   0.154E+00    0.470E-01
RMM:   2    -0.232315247893E+04   -0.42834E-01   -0.42240E-01  6463   0.391E-01    0.621E-01
RMM:   3    -0.232315235360E+04    0.12533E-03   -0.41248E-02  6217   0.125E-01    0.450E-01
RMM:   4    -0.232315049379E+04    0.18598E-02   -0.44837E-03  5970   0.327E-02    0.198E-01
RMM:   5    -0.232315016330E+04    0.33049E-03   -0.75028E-04  4455   0.146E-02    0.150E-01
RMM:   6    -0.232314986060E+04    0.30270E-03   -0.56107E-04  4879   0.146E-02    0.683E-02
RMM:   7    -0.232314981775E+04    0.42850E-04   -0.36269E-04  4828   0.130E-02    0.327E-02
RMM:   8    -0.232314981520E+04    0.25539E-05   -0.51925E-05  3000   0.600E-03
  22 F= -.23445326E+04 E0= -.23445326E+04  d E =-.808644E-02  mag=     2.0000
       N       E                     dE             d eps       ncg     rms          rms(c)
DAV:   1    -0.232306654582E+04    0.83272E-01   -0.55978E+00  4504   0.224E+00    0.685E-01
RMM:   2    -0.232315641129E+04   -0.89865E-01   -0.88514E-01  6422   0.564E-01    0.917E-01
RMM:   3    -0.232315647132E+04   -0.60023E-04   -0.88413E-02  6259   0.182E-01    0.660E-01
RMM:   4    -0.232315243292E+04    0.40384E-02   -0.93832E-03  6210   0.474E-02    0.284E-01
RMM:   5    -0.232315177313E+04    0.65980E-03   -0.15719E-03  5257   0.207E-02    0.218E-01
RMM:   6    -0.232315114356E+04    0.62957E-03   -0.11398E-03  5201   0.202E-02    0.101E-01
RMM:   7    -0.232315105894E+04    0.84621E-04   -0.77989E-04  5267   0.179E-02    0.569E-02
RMM:   8    -0.232315104332E+04    0.15622E-04   -0.13165E-04  3310   0.830E-03    0.441E-02
RMM:   9    -0.232315101325E+04    0.30067E-04   -0.26936E-05  2979   0.535E-03    0.173E-02
RMM:  10    -0.232315100380E+04    0.94471E-05   -0.26460E-05  2950   0.385E-03
  23 F= -.23445357E+04 E0= -.23445357E+04  d E =-.111664E-01  mag=     2.0000
       N       E                     dE             d eps       ncg     rms          rms(c)
DAV:   1    -0.232313579701E+04    0.15216E-01   -0.10896E+00  4528   0.998E-01    0.310E-01
RMM:   2    -0.232315497184E+04   -0.19175E-01   -0.19685E-01  6486   0.260E-01    0.320E-01
RMM:   3    -0.232315590866E+04   -0.93682E-03   -0.18180E-02  5771   0.805E-02    0.261E-01
RMM:   4    -0.232315520431E+04    0.70435E-03   -0.20331E-03  5121   0.210E-02    0.135E-01
RMM:   5    -0.232315507285E+04    0.13146E-03   -0.26746E-04  3455   0.917E-03    0.101E-01
RMM:   6    -0.232315492893E+04    0.14392E-03   -0.25430E-04  4174   0.101E-02    0.454E-02
RMM:   7    -0.232315491290E+04    0.16033E-04   -0.19047E-04  4198   0.940E-03    0.230E-02
RMM:   8    -0.232315491036E+04    0.25427E-05   -0.23835E-05  2915   0.506E-03
  24 F= -.23445402E+04 E0= -.23445402E+04  d E =-.451922E-02  mag=     2.0000
       N       E                     dE             d eps       ncg     rms          rms(c)
DAV:   1    -0.232301819711E+04    0.13672E+00   -0.79370E+00  4504   0.269E+00    0.834E-01
RMM:   2    -0.232315613243E+04   -0.13794E+00   -0.14276E+00  6448   0.689E-01    0.834E-01
RMM:   3    -0.232316590524E+04   -0.97728E-02   -0.13899E-01  6192   0.222E-01    0.761E-01
RMM:   4    -0.232315966340E+04    0.62418E-02   -0.14613E-02  6338   0.571E-02    0.348E-01
RMM:   5    -0.232315886267E+04    0.80073E-03   -0.20620E-03  5489   0.224E-02    0.274E-01
RMM:   6    -0.232315788470E+04    0.97797E-03   -0.16741E-03  5338   0.230E-02    0.133E-01
RMM:   7    -0.232315773646E+04    0.14824E-03   -0.14211E-03  5596   0.221E-02    0.737E-02
RMM:   8    -0.232315771201E+04    0.24450E-04   -0.20928E-04  3611   0.103E-02    0.578E-02
RMM:   9    -0.232315766354E+04    0.48463E-04   -0.49766E-05  3142   0.593E-03    0.258E-02
RMM:  10    -0.232315764585E+04    0.17699E-04   -0.41590E-05  2980   0.466E-03    0.101E-02
RMM:  11    -0.232315764418E+04    0.16637E-05   -0.13057E-05  2925   0.356E-03
  25 F= -.23445446E+04 E0= -.23445446E+04  d E =-.891074E-02  mag=     2.0000
       N       E                     dE             d eps       ncg     rms          rms(c)
DAV:   1    -0.232314683206E+04    0.10814E-01   -0.76378E-01  4624   0.834E-01    0.282E-01
RMM:   2    -0.232316248860E+04   -0.15657E-01   -0.15991E-01  6507   0.224E-01    0.328E-01
RMM:   3    -0.232316314498E+04   -0.65638E-03   -0.15386E-02  6124   0.737E-02    0.283E-01
RMM:   4    -0.232316244719E+04    0.69779E-03   -0.18120E-03  4769   0.195E-02    0.117E-01
RMM:   5    -0.232316232511E+04    0.12208E-03   -0.25289E-04  3604   0.899E-03    0.989E-02
RMM:   6    -0.232316217622E+04    0.14889E-03   -0.29031E-04  4453   0.107E-02    0.392E-02
RMM:   7    -0.232316217573E+04    0.48713E-06   -0.14020E-04  3890   0.886E-03    0.317E-02
RMM:   8    -0.232316216588E+04    0.98511E-05   -0.28381E-05  2913   0.490E-03
  26 F= -.23445493E+04 E0= -.23445493E+04  d E =-.469195E-02  mag=     2.0000
       N       E                     dE             d eps       ncg     rms          rms(c)
DAV:   1    -0.232309986257E+04    0.62313E-01   -0.32514E+00  4504   0.172E+00    0.581E-01
RMM:   2    -0.232316584790E+04   -0.65985E-01   -0.68187E-01  6464   0.460E-01    0.638E-01
RMM:   3    -0.232316967263E+04   -0.38247E-02   -0.65627E-02  6283   0.151E-01    0.600E-01
RMM:   4    -0.232316644085E+04    0.32318E-02   -0.75561E-03  6006   0.397E-02    0.233E-01
RMM:   5    -0.232316601032E+04    0.43052E-03   -0.10643E-03  5080   0.171E-02    0.210E-01
RMM:   6    -0.232316535983E+04    0.65050E-03   -0.11753E-03  5345   0.197E-02    0.795E-02
RMM:   7    -0.232316533615E+04    0.23681E-04   -0.55561E-04  5097   0.159E-02    0.529E-02
RMM:   8    -0.232316531645E+04    0.19695E-04   -0.90173E-05  3144   0.703E-03    0.387E-02
RMM:   9    -0.232316529449E+04    0.21962E-04   -0.23321E-05  3018   0.493E-03    0.171E-02
RMM:  10    -0.232316528591E+04    0.85782E-05   -0.24891E-05  2948   0.345E-03
  27 F= -.23445528E+04 E0= -.23445528E+04  d E =-.816187E-02  mag=     2.0000
       N       E                     dE             d eps       ncg     rms          rms(c)
DAV:   1    -0.232314355914E+04    0.21735E-01   -0.13467E+00  4516   0.111E+00    0.371E-01
RMM:   2    -0.232317023770E+04   -0.26679E-01   -0.27231E-01  6431   0.286E-01    0.444E-01
RMM:   3    -0.232317133572E+04   -0.10980E-02   -0.27577E-02  6226   0.101E-01    0.410E-01
RMM:   4    -0.232316977311E+04    0.15626E-02   -0.30356E-03  5475   0.259E-02    0.142E-01
RMM:   5    -0.232316962947E+04    0.14365E-03   -0.46694E-04  4349   0.116E-02    0.141E-01
RMM:   6    -0.232316932618E+04    0.30328E-03   -0.59744E-04  5040   0.144E-02    0.496E-02
RMM:   7    -0.232316932803E+04   -0.18457E-05   -0.22444E-04  4344   0.109E-02    0.426E-02
RMM:   8    -0.232316930921E+04    0.18820E-04   -0.48897E-05  2960   0.539E-03    0.227E-02
RMM:   9    -0.232316930055E+04    0.86636E-05   -0.10416E-05  2909   0.374E-03
  28 F= -.23445570E+04 E0= -.23445570E+04  d E =-.417810E-02  mag=     2.0000
       N       E                     dE             d eps       ncg     rms          rms(c)
DAV:   1    -0.232316499904E+04    0.43102E-02   -0.24220E-01  4624   0.469E-01    0.159E-01
RMM:   2    -0.232316987398E+04   -0.48749E-02   -0.49278E-02  6403   0.123E-01    0.200E-01
RMM:   3    -0.232316999575E+04   -0.12178E-03   -0.50708E-03  5596   0.442E-02    0.170E-01
RMM:   4    -0.232316973301E+04    0.26274E-03   -0.56054E-04  3478   0.114E-02    0.624E-02
RMM:   5    -0.232316970131E+04    0.31698E-04   -0.86689E-05  3091   0.631E-03    0.592E-02
RMM:   6    -0.232316964659E+04    0.54727E-04   -0.11949E-04  3627   0.734E-03    0.215E-02
RMM:   7    -0.232316964786E+04   -0.12735E-05   -0.46789E-05  3251   0.576E-03
  29 F= -.23445574E+04 E0= -.23445574E+04  d E =-.459451E-02  mag=     2.0000
       N       E                     dE             d eps       ncg     rms          rms(c)
DAV:   1    -0.232316734520E+04    0.23014E-02   -0.30669E-01  4528   0.576E-01    0.167E-01
RMM:   2    -0.232317146808E+04   -0.41229E-02   -0.45701E-02  6369   0.134E-01    0.881E-02
RMM:   3    -0.232317168322E+04   -0.21514E-03   -0.43248E-03  5443   0.457E-02    0.665E-02
RMM:   4    -0.232317172949E+04   -0.46263E-04   -0.44997E-04  3583   0.111E-02    0.946E-02
RMM:   5    -0.232317163560E+04    0.93881E-04   -0.12763E-04  3632   0.878E-03    0.388E-02
RMM:   6    -0.232317163419E+04    0.14154E-05   -0.94330E-05  3324   0.754E-03
  30 F= -.23445596E+04 E0= -.23445596E+04  d E =-.225237E-02  mag=     2.0000
       N       E                     dE             d eps       ncg     rms          rms(c)
DAV:   1    -0.232316605819E+04    0.55774E-02   -0.42797E-01  4528   0.680E-01    0.198E-01
RMM:   2    -0.232317184030E+04   -0.57821E-02   -0.63947E-02  6265   0.158E-01    0.106E-01
RMM:   3    -0.232317214295E+04   -0.30264E-03   -0.60922E-03  5699   0.514E-02    0.914E-02
RMM:   4    -0.232317215690E+04   -0.13958E-04   -0.64774E-04  3628   0.125E-02    0.924E-02
RMM:   5    -0.232317207907E+04    0.77832E-04   -0.17602E-04  4077   0.948E-03    0.639E-02
RMM:   6    -0.232317204952E+04    0.29553E-04   -0.12439E-04  3568   0.811E-03    0.446E-02
RMM:   7    -0.232317203051E+04    0.19011E-04   -0.49474E-05  3125   0.644E-03    0.213E-02
RMM:   8    -0.232317202670E+04    0.38042E-05   -0.12652E-05  2881   0.443E-03
  31 F= -.23445603E+04 E0= -.23445603E+04  d E =-.296016E-02  mag=     2.0000
       N       E                     dE             d eps       ncg     rms          rms(c)
DAV:   1    -0.232316989377E+04    0.21367E-02   -0.26305E-01  4528   0.547E-01    0.149E-01
RMM:   2    -0.232317335954E+04   -0.34658E-02   -0.36086E-02  6336   0.125E-01    0.139E-01
RMM:   3    -0.232317366868E+04   -0.30914E-03   -0.34511E-03  5272   0.418E-02    0.162E-01
RMM:   4    -0.232317338533E+04    0.28335E-03   -0.37234E-04  3649   0.115E-02    0.506E-02
RMM:   5    -0.232317338101E+04    0.43176E-05   -0.96692E-05  3223   0.698E-03
  32 F= -.23445620E+04 E0= -.23445620E+04  d E =-.163975E-02  mag=     2.0000
       N       E                     dE             d eps       ncg     rms          rms(c)
DAV:   1    -0.232315253119E+04    0.20854E-01   -0.16438E+00  4504   0.137E+00    0.368E-01
RMM:   2    -0.232317413244E+04   -0.21601E-01   -0.22410E-01  6383   0.311E-01    0.351E-01
RMM:   3    -0.232317596198E+04   -0.18295E-02   -0.21475E-02  6095   0.104E-01    0.393E-01
RMM:   4    -0.232317427427E+04    0.16877E-02   -0.22715E-03  5962   0.278E-02    0.128E-01
RMM:   5    -0.232317427892E+04   -0.46534E-05   -0.64775E-04  4951   0.149E-02    0.154E-01
RMM:   6    -0.232317398661E+04    0.29231E-03   -0.52834E-04  5115   0.145E-02    0.473E-02
RMM:   7    -0.232317396869E+04    0.17923E-04   -0.16282E-04  4245   0.960E-03    0.240E-02
RMM:   8    -0.232317396596E+04    0.27256E-05   -0.30413E-05  2925   0.515E-03
  33 F= -.23445633E+04 E0= -.23445633E+04  d E =-.294196E-02  mag=     2.0000
       N       E                     dE             d eps       ncg     rms          rms(c)
DAV:   1    -0.232317143974E+04    0.25289E-02   -0.31275E-01  4592   0.596E-01    0.167E-01
RMM:   2    -0.232317583017E+04   -0.43904E-02   -0.43028E-02  6284   0.141E-01    0.203E-01
RMM:   3    -0.232317583559E+04   -0.54186E-05   -0.39065E-03  5333   0.446E-02    0.150E-01
RMM:   4    -0.232317563423E+04    0.20136E-03   -0.49170E-04  3940   0.123E-02    0.783E-02
RMM:   5    -0.232317558322E+04    0.51010E-04   -0.10845E-04  3109   0.739E-03    0.535E-02
RMM:   6    -0.232317554728E+04    0.35943E-04   -0.97980E-05  3794   0.761E-03    0.224E-02
RMM:   7    -0.232317554929E+04   -0.20153E-05   -0.38497E-05  3118   0.611E-03
  34 F= -.23445652E+04 E0= -.23445652E+04  d E =-.190207E-02  mag=     2.0000
       N       E                     dE             d eps       ncg     rms          rms(c)
DAV:   1    -0.232315638338E+04    0.19164E-01   -0.15168E+00  4504   0.131E+00    0.363E-01
RMM:   2    -0.232317734692E+04   -0.20964E-01   -0.20700E-01  6249   0.308E-01    0.425E-01
RMM:   3    -0.232317772347E+04   -0.37655E-03   -0.18956E-02  5997   0.994E-02    0.336E-01
RMM:   4    -0.232317666788E+04    0.10556E-02   -0.23317E-03  5942   0.265E-02    0.164E-01
RMM:   5    -0.232317645543E+04    0.21244E-03   -0.50451E-04  4284   0.135E-02    0.120E-01
RMM:   6    -0.232317628117E+04    0.17426E-03   -0.44909E-04  4728   0.142E-02    0.561E-02
RMM:   7    -0.232317627995E+04    0.12204E-05   -0.20049E-04  3947   0.118E-02    0.522E-02
RMM:   8    -0.232317624490E+04    0.35052E-04   -0.54284E-05  3277   0.570E-03    0.159E-02
RMM:   9    -0.232317624124E+04    0.36588E-05   -0.84620E-06  2937   0.372E-03
  35 F= -.23445666E+04 E0= -.23445666E+04  d E =-.329837E-02  mag=     2.0000
       N       E                     dE             d eps       ncg     rms          rms(c)
DAV:   1    -0.232317295081E+04    0.32941E-02   -0.39460E-01  4560   0.655E-01    0.188E-01
RMM:   2    -0.232317822475E+04   -0.52739E-02   -0.51683E-02  6318   0.158E-01    0.210E-01
RMM:   3    -0.232317818403E+04    0.40722E-04   -0.46630E-03  5466   0.488E-02    0.142E-01
RMM:   4    -0.232317801518E+04    0.16885E-03   -0.58884E-04  4341   0.133E-02    0.944E-02
RMM:   5    -0.232317794358E+04    0.71607E-04   -0.12987E-04  3176   0.787E-03    0.612E-02
RMM:   6    -0.232317790402E+04    0.39560E-04   -0.13612E-04  4100   0.852E-03    0.314E-02
RMM:   7    -0.232317790136E+04    0.26604E-05   -0.50420E-05  3072   0.669E-03
  36 F= -.23445686E+04 E0= -.23445686E+04  d E =-.199175E-02  mag=     2.0000
       N       E                     dE             d eps       ncg     rms          rms(c)
DAV:   1    -0.232316844340E+04    0.94606E-02   -0.77811E-01  4504   0.920E-01    0.265E-01
RMM:   2    -0.232317880459E+04   -0.10361E-01   -0.10201E-01  6326   0.222E-01    0.291E-01
RMM:   3    -0.232317879614E+04    0.84482E-05   -0.93008E-03  5830   0.694E-02    0.204E-01
RMM:   4    -0.232317843820E+04    0.35794E-03   -0.11706E-03  5348   0.186E-02    0.131E-01
RMM:   5    -0.232317830185E+04    0.13636E-03   -0.25423E-04  3582   0.101E-02    0.863E-02
RMM:   6    -0.232317822939E+04    0.72453E-04   -0.25096E-04  4495   0.109E-02    0.490E-02
RMM:   7    -0.232317821542E+04    0.13979E-04   -0.10229E-04  3330   0.869E-03    0.353E-02
RMM:   8    -0.232317819942E+04    0.15993E-04   -0.24347E-05  3041   0.456E-03    0.991E-03
RMM:   9    -0.232317819781E+04    0.16151E-05   -0.46328E-06  2866   0.292E-03
  37 F= -.23445693E+04 E0= -.23445693E+04  d E =-.275554E-02  mag=     2.0000
       N       E                     dE             d eps       ncg     rms          rms(c)
DAV:   1    -0.232317471820E+04    0.34812E-02   -0.48499E-01  4504   0.702E-01    0.187E-01
RMM:   2    -0.232317986588E+04   -0.51477E-02   -0.51705E-02  6303   0.160E-01    0.178E-01
RMM:   3    -0.232317995985E+04   -0.93972E-04   -0.44604E-03  5435   0.481E-02    0.130E-01
RMM:   4    -0.232317975358E+04    0.20628E-03   -0.51513E-04  4263   0.129E-02    0.642E-02
RMM:   5    -0.232317979156E+04   -0.37981E-04   -0.14483E-04  3396   0.829E-03    0.948E-02
RMM:   6    -0.232317969716E+04    0.94396E-04   -0.14513E-04  4010   0.881E-03    0.270E-02
RMM:   7    -0.232317969832E+04   -0.11621E-05   -0.47431E-05  3092   0.613E-03
  38 F= -.23445712E+04 E0= -.23445712E+04  d E =-.184703E-02  mag=     2.0000
       N       E                     dE             d eps       ncg     rms          rms(c)
DAV:   1    -0.232317017541E+04    0.95218E-02   -0.95550E-01  4504   0.986E-01    0.264E-01
RMM:   2    -0.232318031804E+04   -0.10143E-01   -0.10211E-01  6342   0.225E-01    0.249E-01
RMM:   3    -0.232318052557E+04   -0.20753E-03   -0.88373E-03  5807   0.678E-02    0.185E-01
RMM:   4    -0.232318010890E+04    0.41666E-03   -0.10254E-03  5113   0.182E-02    0.900E-02
RMM:   5    -0.232318018024E+04   -0.71337E-04   -0.28709E-04  4032   0.110E-02    0.131E-01
RMM:   6    -0.232318000192E+04    0.17832E-03   -0.27023E-04  4688   0.111E-02    0.426E-02
RMM:   7    -0.232317999925E+04    0.26716E-05   -0.98114E-05  3319   0.807E-03
  39 F= -.23445720E+04 E0= -.23445720E+04  d E =-.263555E-02  mag=     2.0000
       N       E                     dE             d eps       ncg     rms          rms(c)
DAV:   1    -0.232317450971E+04    0.54922E-02   -0.62543E-01  4504   0.807E-01    0.216E-01
RMM:   2    -0.232318158652E+04   -0.70768E-02   -0.74262E-02  6289   0.183E-01    0.153E-01
RMM:   3    -0.232318201222E+04   -0.42570E-03   -0.62136E-03  5816   0.574E-02    0.155E-01
RMM:   4    -0.232318174456E+04    0.26767E-03   -0.72772E-04  4235   0.152E-02    0.775E-02
RMM:   5    -0.232318177308E+04   -0.28522E-04   -0.21602E-04  4081   0.100E-02    0.102E-01
RMM:   6    -0.232318166939E+04    0.10369E-03   -0.16946E-04  4106   0.933E-03    0.386E-02
RMM:   7    -0.232318165367E+04    0.15716E-04   -0.51459E-05  3472   0.631E-03    0.129E-02
RMM:   8    -0.232318165308E+04    0.59890E-06   -0.10307E-05  2891   0.406E-03
  40 F= -.23445741E+04 E0= -.23445741E+04  d E =-.208656E-02  mag=     2.0000
       N       E                     dE             d eps       ncg     rms          rms(c)
DAV:   1    -0.232317669647E+04    0.49572E-02   -0.45181E-01  4528   0.685E-01    0.182E-01
RMM:   2    -0.232318180267E+04   -0.51062E-02   -0.53538E-02  6271   0.155E-01    0.129E-01
RMM:   3    -0.232318210635E+04   -0.30368E-03   -0.45444E-03  5570   0.467E-02    0.129E-01
RMM:   4    -0.232318192117E+04    0.18517E-03   -0.51640E-04  3802   0.127E-02    0.655E-02
RMM:   5    -0.232318194259E+04   -0.21413E-04   -0.16123E-04  3744   0.889E-03    0.877E-02
RMM:   6    -0.232318186406E+04    0.78527E-04   -0.12198E-04  3701   0.838E-03    0.316E-02
RMM:   7    -0.232318185354E+04    0.10520E-04   -0.36384E-05  3303   0.569E-03    0.874E-03
RMM:   8    -0.232318185245E+04    0.10882E-05   -0.57285E-06  2866   0.359E-03
  41 F= -.23445746E+04 E0= -.23445746E+04  d E =-.265463E-02  mag=     2.0000
       N       E                     dE             d eps       ncg     rms          rms(c)
DAV:   1    -0.232317274695E+04    0.91066E-02   -0.75470E-01  4504   0.894E-01    0.247E-01
RMM:   2    -0.232318305256E+04   -0.10306E-01   -0.10858E-01  6340   0.207E-01    0.169E-01
RMM:   3    -0.232318370535E+04   -0.65279E-03   -0.91857E-03  5978   0.653E-02    0.198E-01
RMM:   4    -0.232318332940E+04    0.37595E-03   -0.10996E-03  4436   0.175E-02    0.949E-02
RMM:   5    -0.232318332240E+04    0.70004E-05   -0.23276E-04  3834   0.967E-03    0.102E-01
RMM:   6    -0.232318319263E+04    0.12977E-03   -0.24084E-04  4426   0.106E-02    0.332E-02
RMM:   7    -0.232318318666E+04    0.59712E-05   -0.71125E-05  3568   0.695E-03
  42 F= -.23445767E+04 E0= -.23445767E+04  d E =-.203653E-02  mag=     2.0000
       N       E                     dE             d eps       ncg     rms          rms(c)
DAV:   1    -0.232317909330E+04    0.40993E-02   -0.28211E-01  4528   0.547E-01    0.154E-01
RMM:   2    -0.232318295181E+04   -0.38585E-02   -0.40871E-02  6452   0.128E-01    0.105E-01
RMM:   3    -0.232318320283E+04   -0.25102E-03   -0.35703E-03  5414   0.412E-02    0.119E-01
RMM:   4    -0.232318306320E+04    0.13963E-03   -0.40474E-04  3372   0.110E-02    0.569E-02
RMM:   5    -0.232318306687E+04   -0.36719E-05   -0.90624E-05  3217   0.682E-03
  43 F= -.23445770E+04 E0= -.23445770E+04  d E =-.234843E-02  mag=     2.0000
       N       E                     dE             d eps       ncg     rms          rms(c)
DAV:   1    -0.232317352798E+04    0.95352E-02   -0.76571E-01  4504   0.901E-01    0.244E-01
RMM:   2    -0.232318412101E+04   -0.10593E-01   -0.10940E-01  6372   0.201E-01    0.199E-01
RMM:   3    -0.232318477509E+04   -0.65408E-03   -0.93246E-03  6004   0.661E-02    0.215E-01
RMM:   4    -0.232318431245E+04    0.46264E-03   -0.11331E-03  4580   0.178E-02    0.966E-02
RMM:   5    -0.232318430653E+04    0.59232E-05   -0.24740E-04  3762   0.987E-03    0.104E-01
RMM:   6    -0.232318416400E+04    0.14253E-03   -0.27405E-04  4576   0.112E-02    0.246E-02
RMM:   7    -0.232318416443E+04   -0.43071E-06   -0.47008E-05  3082   0.679E-03
  44 F= -.23445788E+04 E0= -.23445788E+04  d E =-.177557E-02  mag=     2.0000
       N       E                     dE             d eps       ncg     rms          rms(c)
DAV:   1    -0.232317392577E+04    0.10238E-01   -0.72136E-01  4504   0.875E-01    0.239E-01
RMM:   2    -0.232318388106E+04   -0.99553E-02   -0.10346E-01  6337   0.196E-01    0.188E-01
RMM:   3    -0.232318466016E+04   -0.77911E-03   -0.89635E-03  6001   0.650E-02    0.237E-01
RMM:   4    -0.232318412503E+04    0.53514E-03   -0.10940E-03  4460   0.178E-02    0.909E-02
RMM:   5    -0.232318409635E+04    0.28680E-04   -0.23004E-04  3649   0.939E-03    0.915E-02
RMM:   6    -0.232318398305E+04    0.11330E-03   -0.23981E-04  4372   0.108E-02    0.249E-02
RMM:   7    -0.232318398372E+04   -0.67266E-06   -0.60527E-05  3319   0.687E-03
  45 F= -.23445792E+04 E0= -.23445792E+04  d E =-.225456E-02  mag=     2.0000
       N       E                     dE             d eps       ncg     rms          rms(c)
DAV:   1    -0.232317121790E+04    0.12765E-01   -0.84986E-01  4504   0.931E-01    0.267E-01
RMM:   2    -0.232318538794E+04   -0.14170E-01   -0.14553E-01  6456   0.219E-01    0.238E-01
RMM:   3    -0.232318606902E+04   -0.68108E-03   -0.12767E-02  6038   0.726E-02    0.210E-01
RMM:   4    -0.232318564356E+04    0.42547E-03   -0.14711E-03  4674   0.187E-02    0.109E-01
RMM:   5    -0.232318559931E+04    0.44242E-04   -0.23139E-04  3645   0.938E-03    0.102E-01
RMM:   6    -0.232318545951E+04    0.13981E-03   -0.29005E-04  4527   0.113E-02    0.255E-02
RMM:   7    -0.232318545950E+04    0.13388E-07   -0.67067E-05  3298   0.682E-03
  46 F= -.23445813E+04 E0= -.23445813E+04  d E =-.206070E-02  mag=     2.0000
       N       E                     dE             d eps       ncg     rms          rms(c)
DAV:   1    -0.232316698338E+04    0.18476E-01   -0.11045E+00  4504   0.106E+00    0.304E-01
RMM:   2    -0.232318541558E+04   -0.18432E-01   -0.18924E-01  6449   0.251E-01    0.271E-01
RMM:   3    -0.232318631502E+04   -0.89944E-03   -0.16579E-02  6136   0.824E-02    0.243E-01
RMM:   4    -0.232318575828E+04    0.55674E-03   -0.19349E-03  5105   0.213E-02    0.126E-01
RMM:   5    -0.232318569053E+04    0.67753E-04   -0.30153E-04  3869   0.103E-02    0.115E-01
RMM:   6    -0.232318550934E+04    0.18119E-03   -0.37723E-04  4702   0.126E-02    0.293E-02
RMM:   7    -0.232318550958E+04   -0.24179E-06   -0.93132E-05  3508   0.757E-03
  47 F= -.23445820E+04 E0= -.23445820E+04  d E =-.278292E-02  mag=     2.0000
       N       E                     dE             d eps       ncg     rms          rms(c)
DAV:   1    -0.232317323202E+04    0.12277E-01   -0.72389E-01  4516   0.850E-01    0.260E-01
RMM:   2    -0.232318677910E+04   -0.13547E-01   -0.13833E-01  6473   0.211E-01    0.240E-01
RMM:   3    -0.232318728316E+04   -0.50405E-03   -0.12388E-02  5968   0.698E-02    0.177E-01
RMM:   4    -0.232318691456E+04    0.36860E-03   -0.13537E-03  4348   0.173E-02    0.761E-02
RMM:   5    -0.232318690953E+04    0.50328E-05   -0.24302E-04  4058   0.102E-02    0.925E-02
RMM:   6    -0.232318683449E+04    0.75041E-04   -0.15990E-04  3814   0.880E-03    0.509E-02
RMM:   7    -0.232318683143E+04    0.30611E-05   -0.73208E-05  3166   0.668E-03
  48 F= -.23445840E+04 E0= -.23445840E+04  d E =-.194289E-02  mag=     2.0000
       N       E                     dE             d eps       ncg     rms          rms(c)
DAV:   1    -0.232315976672E+04    0.27068E-01   -0.14298E+00  4504   0.120E+00    0.365E-01
RMM:   2    -0.232318656188E+04   -0.26795E-01   -0.27325E-01  6429   0.297E-01    0.338E-01
RMM:   3    -0.232318752180E+04   -0.95992E-03   -0.24630E-02  6122   0.986E-02    0.245E-01
RMM:   4    -0.232318681278E+04    0.70902E-03   -0.26728E-03  5267   0.240E-02    0.107E-01
RMM:   5    -0.232318677116E+04    0.41617E-04   -0.48178E-04  4757   0.137E-02    0.119E-01
RMM:   6    -0.232318665930E+04    0.11186E-03   -0.30843E-04  4551   0.112E-02    0.775E-02
RMM:   7    -0.232318664558E+04    0.13717E-04   -0.14027E-04  3466   0.809E-03    0.537E-02
RMM:   8    -0.232318660671E+04    0.38872E-04   -0.41428E-05  2966   0.576E-03    0.145E-02
RMM:   9    -0.232318660269E+04    0.40182E-05   -0.82166E-06  2904   0.286E-03
  49 F= -.23445846E+04 E0= -.23445846E+04  d E =-.259483E-02  mag=     2.0000
       N       E                     dE             d eps       ncg     rms          rms(c)
DAV:   1    -0.232316810968E+04    0.18497E-01   -0.98792E-01  4504   0.971E-01    0.298E-01
RMM:   2    -0.232318744664E+04   -0.19337E-01   -0.19680E-01  6488   0.247E-01    0.273E-01
RMM:   3    -0.232318822639E+04   -0.77975E-03   -0.17734E-02  5924   0.801E-02    0.199E-01
RMM:   4    -0.232318776453E+04    0.46187E-03   -0.18914E-03  4496   0.197E-02    0.901E-02
RMM:   5    -0.232318780108E+04   -0.36552E-04   -0.28592E-04  4111   0.103E-02    0.126E-01
RMM:   6    -0.232318763371E+04    0.16736E-03   -0.23012E-04  3982   0.981E-03    0.429E-02
RMM:   7    -0.232318764316E+04   -0.94462E-05   -0.10979E-04  3498   0.743E-03    0.426E-02
RMM:   8    -0.232318762033E+04    0.22833E-04   -0.29624E-05  2913   0.523E-03    0.107E-02
RMM:   9    -0.232318761840E+04    0.19245E-05   -0.59047E-06  2860   0.257E-03
  50 F= -.23445865E+04 E0= -.23445865E+04  d E =-.192678E-02  mag=     2.0000
       N       E                     dE             d eps       ncg     rms          rms(c)
DAV:   1    -0.232311462206E+04    0.72998E-01   -0.36686E+00  4504   0.187E+00    0.575E-01
RMM:   2    -0.232318636112E+04   -0.71739E-01   -0.73056E-01  6525   0.477E-01    0.524E-01
RMM:   3    -0.232318944311E+04   -0.30820E-02   -0.67023E-02  6196   0.155E-01    0.387E-01
RMM:   4    -0.232318772458E+04    0.17185E-02   -0.69854E-03  5717   0.379E-02    0.179E-01
RMM:   5    -0.232318788308E+04   -0.15851E-03   -0.10441E-03  5208   0.178E-02    0.247E-01
RMM:   6    -0.232318721837E+04    0.66472E-03   -0.87768E-04  5175   0.173E-02    0.765E-02
RMM:   7    -0.232318723765E+04   -0.19287E-04   -0.39173E-04  4732   0.123E-02    0.702E-02
RMM:   8    -0.232318717559E+04    0.62062E-04   -0.89258E-05  3060   0.695E-03    0.222E-02
RMM:   9    -0.232318716718E+04    0.84056E-05   -0.16490E-05  2952   0.386E-03
  51 F= -.23445879E+04 E0= -.23445879E+04  d E =-.324794E-02  mag=     2.0000
       N       E                     dE             d eps       ncg     rms          rms(c)
DAV:   1    -0.232316871604E+04    0.18460E-01   -0.99459E-01  4504   0.954E-01    0.297E-01
RMM:   2    -0.232318811395E+04   -0.19398E-01   -0.19969E-01  6534   0.247E-01    0.235E-01
RMM:   3    -0.232318921731E+04   -0.11034E-02   -0.17955E-02  5931   0.793E-02    0.201E-01
RMM:   4    -0.232318875547E+04    0.46184E-03   -0.19106E-03  4410   0.197E-02    0.905E-02
RMM:   5    -0.232318866477E+04    0.90693E-04   -0.27584E-04  4083   0.107E-02    0.659E-02
RMM:   6    -0.232318868366E+04   -0.18888E-04   -0.20692E-04  3831   0.956E-03    0.819E-02
RMM:   7    -0.232318863222E+04    0.51441E-04   -0.85915E-05  3287   0.712E-03    0.349E-02
RMM:   8    -0.232318861722E+04    0.14998E-04   -0.22151E-05  2897   0.468E-03    0.129E-02
RMM:   9    -0.232318861474E+04    0.24794E-05   -0.43797E-06  2808   0.229E-03
  52 F= -.23445903E+04 E0= -.23445903E+04  d E =-.246372E-02  mag=     2.0000
       N       E                     dE             d eps       ncg     rms          rms(c)
DAV:   1    -0.232309547981E+04    0.93137E-01   -0.46404E+00  4504   0.206E+00    0.642E-01
RMM:   2    -0.232318582757E+04   -0.90348E-01   -0.93064E-01  6558   0.532E-01    0.505E-01
RMM:   3    -0.232319117982E+04   -0.53523E-02   -0.85420E-02  6221   0.171E-01    0.436E-01
RMM:   4    -0.232318903871E+04    0.21411E-02   -0.89068E-03  5905   0.421E-02    0.198E-01
RMM:   5    -0.232318865513E+04    0.38357E-03   -0.12426E-03  5180   0.208E-02    0.155E-01
RMM:   6    -0.232318873020E+04   -0.75072E-04   -0.93684E-04  5293   0.178E-02    0.187E-01
RMM:   7    -0.232318844363E+04    0.28658E-03   -0.45197E-04  4814   0.129E-02    0.683E-02
RMM:   8    -0.232318838441E+04    0.59215E-04   -0.95922E-05  3082   0.707E-03    0.297E-02
RMM:   9    -0.232318837060E+04    0.13811E-04   -0.19337E-05  3034   0.372E-03    0.172E-02
RMM:  10    -0.232318836485E+04    0.57454E-05   -0.19847E-05  2933   0.332E-03
  53 F= -.23445923E+04 E0= -.23445923E+04  d E =-.442852E-02  mag=     2.0000
       N       E                     dE             d eps       ncg     rms          rms(c)
DAV:   1    -0.232315799620E+04    0.30374E-01   -0.16546E+00  4504   0.120E+00    0.380E-01
RMM:   2    -0.232318913113E+04   -0.31135E-01   -0.31937E-01  6560   0.309E-01    0.316E-01
RMM:   3    -0.232319117198E+04   -0.20409E-02   -0.29099E-02  6177   0.993E-02    0.323E-01
RMM:   4    -0.232319024370E+04    0.92828E-03   -0.32677E-03  5441   0.264E-02    0.158E-01
RMM:   5    -0.232319012029E+04    0.12341E-03   -0.46166E-04  4035   0.114E-02    0.134E-01
RMM:   6    -0.232318988413E+04    0.23616E-03   -0.46247E-04  4723   0.133E-02    0.442E-02
RMM:   7    -0.232318989435E+04   -0.10217E-04   -0.18556E-04  3951   0.903E-03    0.425E-02
RMM:   8    -0.232318987270E+04    0.21651E-04   -0.36914E-05  2943   0.527E-03    0.156E-02
RMM:   9    -0.232318986873E+04    0.39660E-05   -0.70470E-06  2842   0.279E-03
  54 F= -.23445950E+04 E0= -.23445950E+04  d E =-.266576E-02  mag=     2.0000
       N       E                     dE             d eps       ncg     rms          rms(c)
DAV:   1    -0.232314289243E+04    0.46980E-01   -0.24141E+00  4504   0.145E+00    0.459E-01
RMM:   2    -0.232318837145E+04   -0.45479E-01   -0.46646E-01  6566   0.373E-01    0.385E-01
RMM:   3    -0.232319134806E+04   -0.29766E-02   -0.42716E-02  6232   0.121E-01    0.392E-01
RMM:   4    -0.232318999688E+04    0.13512E-02   -0.47816E-03  5775   0.320E-02    0.192E-01
RMM:   5    -0.232318980438E+04    0.19250E-03   -0.67469E-04  4396   0.136E-02    0.161E-01
RMM:   6    -0.232318946420E+04    0.34018E-03   -0.65750E-04  4953   0.155E-02    0.548E-02
RMM:   7    -0.232318947709E+04   -0.12897E-04   -0.28292E-04  4279   0.108E-02    0.523E-02
RMM:   8    -0.232318944420E+04    0.32897E-04   -0.54645E-05  2975   0.583E-03    0.194E-02
RMM:   9    -0.232318943797E+04    0.62303E-05   -0.10363E-05  2910   0.332E-03
  55 F= -.23445959E+04 E0= -.23445959E+04  d E =-.364935E-02  mag=     2.0000
       N       E                     dE             d eps       ncg     rms          rms(c)
DAV:   1    -0.232315110942E+04    0.38335E-01   -0.21903E+00  4504   0.138E+00    0.435E-01
RMM:   2    -0.232319130977E+04   -0.40200E-01   -0.40352E-01  6572   0.346E-01    0.463E-01
RMM:   3    -0.232319299889E+04   -0.16891E-02   -0.38071E-02  6302   0.114E-01    0.392E-01
RMM:   4    -0.232319180822E+04    0.11907E-02   -0.44245E-03  5679   0.309E-02    0.202E-01
RMM:   5    -0.232319146303E+04    0.34520E-03   -0.66156E-04  4269   0.135E-02    0.138E-01
RMM:   6    -0.232319119367E+04    0.26935E-03   -0.63499E-04  4923   0.152E-02    0.498E-02
RMM:   7    -0.232319122973E+04   -0.36053E-04   -0.26095E-04  3920   0.109E-02    0.611E-02
RMM:   8    -0.232319118176E+04    0.47962E-04   -0.61142E-05  3038   0.567E-03    0.175E-02
RMM:   9    -0.232319117668E+04    0.50819E-05   -0.11534E-05  2913   0.337E-03
  56 F= -.23445987E+04 E0= -.23445987E+04  d E =-.274833E-02  mag=     2.0000
       N       E                     dE             d eps       ncg     rms          rms(c)
DAV:   1    -0.232315867377E+04    0.32508E-01   -0.17661E+00  4504   0.124E+00    0.390E-01
RMM:   2    -0.232319105422E+04   -0.32380E-01   -0.32540E-01  6574   0.310E-01    0.412E-01
RMM:   3    -0.232319247320E+04   -0.14190E-02   -0.30591E-02  6279   0.102E-01    0.354E-01
RMM:   4    -0.232319149266E+04    0.98054E-03   -0.35603E-03  5511   0.278E-02    0.180E-01
RMM:   5    -0.232319121963E+04    0.27304E-03   -0.53209E-04  4058   0.122E-02    0.125E-01
RMM:   6    -0.232319100000E+04    0.21962E-03   -0.51849E-04  4814   0.139E-02    0.445E-02
RMM:   7    -0.232319102836E+04   -0.28355E-04   -0.21000E-04  3748   0.995E-03    0.545E-02
RMM:   8    -0.232319099040E+04    0.37957E-04   -0.49533E-05  3001   0.540E-03    0.159E-02
RMM:   9    -0.232319098625E+04    0.41479E-05   -0.95492E-06  2880   0.313E-03
  57 F= -.23445994E+04 E0= -.23445994E+04  d E =-.347098E-02  mag=     2.0000
       N       E                     dE             d eps       ncg     rms          rms(c)
DAV:   1    -0.232314443772E+04    0.46553E-01   -0.27378E+00  4504   0.155E+00    0.489E-01
RMM:   2    -0.232319308932E+04   -0.48652E-01   -0.48786E-01  6562   0.383E-01    0.524E-01
RMM:   3    -0.232319475557E+04   -0.16662E-02   -0.46673E-02  6281   0.128E-01    0.417E-01
RMM:   4    -0.232319345505E+04    0.13005E-02   -0.53480E-03  5862   0.342E-02    0.235E-01
RMM:   5    -0.232319299022E+04    0.46483E-03   -0.84159E-04  4683   0.154E-02    0.156E-01
RMM:   6    -0.232319263896E+04    0.35126E-03   -0.87547E-04  5083   0.175E-02    0.555E-02
RMM:   7    -0.232319268204E+04   -0.43088E-04   -0.31546E-04  4169   0.121E-02    0.689E-02
RMM:   8    -0.232319262001E+04    0.62031E-04   -0.77069E-05  3084   0.594E-03    0.194E-02
RMM:   9    -0.232319261307E+04    0.69424E-05   -0.14658E-05  2930   0.366E-03
  58 F= -.23446021E+04 E0= -.23446021E+04  d E =-.273582E-02  mag=     2.0000
       N       E                     dE             d eps       ncg     rms          rms(c)
DAV:   1    -0.232318377761E+04    0.88424E-02   -0.48477E-01  4560   0.654E-01    0.206E-01
RMM:   2    -0.232319239430E+04   -0.86167E-02   -0.86442E-02  6553   0.161E-01    0.220E-01
RMM:   3    -0.232319269312E+04   -0.29883E-03   -0.81363E-03  5817   0.542E-02    0.177E-01
RMM:   4    -0.232319245386E+04    0.23926E-03   -0.94066E-04  3931   0.146E-02    0.982E-02
RMM:   5    -0.232319237293E+04    0.80933E-04   -0.15009E-04  3272   0.773E-03    0.662E-02
RMM:   6    -0.232319230946E+04    0.63471E-04   -0.17071E-04  4022   0.860E-03    0.224E-02
RMM:   7    -0.232319231670E+04   -0.72437E-05   -0.52674E-05  3083   0.612E-03
  59 F= -.23446023E+04 E0= -.23446023E+04  d E =-.290789E-02  mag=     2.0000
       N       E                     dE             d eps       ncg     rms          rms(c)
DAV:   1    -0.232315774579E+04    0.34564E-01   -0.20154E+00  4504   0.136E+00    0.419E-01
RMM:   2    -0.232319248273E+04   -0.34737E-01   -0.35681E-01  6537   0.338E-01    0.348E-01
RMM:   3    -0.232319436652E+04   -0.18838E-02   -0.32798E-02  6168   0.111E-01    0.309E-01
RMM:   4    -0.232319338993E+04    0.97659E-03   -0.35333E-03  5537   0.282E-02    0.149E-01
RMM:   5    -0.232319345099E+04   -0.61065E-04   -0.58600E-04  4701   0.137E-02    0.180E-01
RMM:   6    -0.232319306811E+04    0.38288E-03   -0.57845E-04  5085   0.146E-02    0.516E-02
RMM:   7    -0.232319308173E+04   -0.13623E-04   -0.19327E-04  3969   0.932E-03    0.510E-02
RMM:   8    -0.232319304837E+04    0.33367E-04   -0.50322E-05  2982   0.569E-03    0.175E-02
RMM:   9    -0.232319304300E+04    0.53709E-05   -0.97857E-06  2916   0.314E-03
  60 F= -.23446041E+04 E0= -.23446041E+04  d E =-.181063E-02  mag=     2.0000
       N       E                     dE             d eps       ncg     rms          rms(c)
DAV:   1    -0.232318453473E+04    0.85136E-02   -0.45000E-01  4560   0.641E-01    0.198E-01
RMM:   2    -0.232319231856E+04   -0.77838E-02   -0.79656E-02  6479   0.160E-01    0.169E-01
RMM:   3    -0.232319271589E+04   -0.39732E-03   -0.72629E-03  5660   0.529E-02    0.149E-01
RMM:   4    -0.232319249491E+04    0.22098E-03   -0.78404E-04  3701   0.135E-02    0.753E-02
RMM:   5    -0.232319249207E+04    0.28424E-05   -0.12699E-04  3265   0.758E-03    0.799E-02
RMM:   6    -0.232319241125E+04    0.80821E-04   -0.15056E-04  3821   0.830E-03    0.218E-02
RMM:   7    -0.232319241389E+04   -0.26452E-05   -0.43102E-05  3171   0.560E-03
  61 F= -.23446040E+04 E0= -.23446040E+04  d E =-.169525E-02  mag=     2.0000
       N       E                     dE             d eps       ncg     rms          rms(c)
DAV:   1    -0.232319049090E+04    0.19203E-02   -0.13499E-01  4624   0.351E-01    0.106E-01
RMM:   2    -0.232319281509E+04   -0.23242E-02   -0.23632E-02  6417   0.869E-02    0.965E-02
RMM:   3    -0.232319293749E+04   -0.12241E-03   -0.22006E-03  4367   0.282E-02    0.884E-02
RMM:   4    -0.232319286490E+04    0.72593E-04   -0.23525E-04  3160   0.827E-03    0.461E-02
RMM:   5    -0.232319285303E+04    0.11868E-04   -0.39399E-05  2924   0.458E-03    0.382E-02
RMM:   6    -0.232319283176E+04    0.21276E-04   -0.54864E-05  3174   0.513E-03    0.956E-03
RMM:   7    -0.232319283169E+04    0.71101E-07   -0.10563E-05  2882   0.365E-03
  62 F= -.23446042E+04 E0= -.23446042E+04  d E =-.183179E-02  mag=     2.0000
       N       E                     dE             d eps       ncg     rms          rms(c)
DAV:   1    -0.232316526777E+04    0.27564E-01   -0.15697E+00  4504   0.121E+00    0.372E-01
RMM:   2    -0.232319249301E+04   -0.27225E-01   -0.28325E-01  6539   0.306E-01    0.243E-01
RMM:   3    -0.232319436535E+04   -0.18723E-02   -0.25447E-02  6001   0.980E-02    0.253E-01
RMM:   4    -0.232319368112E+04    0.68423E-03   -0.27355E-03  5091   0.256E-02    0.118E-01
RMM:   5    -0.232319371815E+04   -0.37024E-04   -0.52346E-04  4922   0.136E-02    0.156E-01
RMM:   6    -0.232319349139E+04    0.22676E-03   -0.33812E-04  4386   0.116E-02    0.597E-02
RMM:   7    -0.232319346614E+04    0.25247E-04   -0.99529E-05  3862   0.726E-03    0.247E-02
RMM:   8    -0.232319346165E+04    0.44932E-05   -0.22619E-05  2901   0.518E-03
  63 F= -.23446059E+04 E0= -.23446059E+04  d E =-.177658E-02  mag=     2.0000
       N       E                     dE             d eps       ncg     rms          rms(c)
DAV:   1    -0.232318669863E+04    0.67675E-02   -0.34706E-01  4528   0.570E-01    0.178E-01
RMM:   2    -0.232319275527E+04   -0.60566E-02   -0.63024E-02  6490   0.144E-01    0.120E-01
RMM:   3    -0.232319317253E+04   -0.41726E-03   -0.56433E-03  5294   0.458E-02    0.127E-01
RMM:   4    -0.232319299915E+04    0.17338E-03   -0.61398E-04  3465   0.126E-02    0.571E-02
RMM:   5    -0.232319302387E+04   -0.24716E-04   -0.12037E-04  3373   0.731E-03    0.831E-02
RMM:   6    -0.232319295327E+04    0.70600E-04   -0.93359E-05  3261   0.705E-03    0.212E-02
RMM:   7    -0.232319295141E+04    0.18592E-05   -0.27026E-05  3061   0.497E-03
  64 F= -.23446060E+04 E0= -.23446060E+04  d E =-.180634E-02  mag=     2.0000
       N       E                     dE             d eps       ncg     rms          rms(c)
DAV:   1    -0.232316722966E+04    0.25724E-01   -0.14378E+00  4504   0.115E+00    0.354E-01
RMM:   2    -0.232319210227E+04   -0.24873E-01   -0.25882E-01  6587   0.290E-01    0.236E-01
RMM:   3    -0.232319386237E+04   -0.17601E-02   -0.23415E-02  6061   0.920E-02    0.245E-01
RMM:   4    -0.232319323936E+04    0.62301E-03   -0.25230E-03  4957   0.240E-02    0.116E-01
RMM:   5    -0.232319327516E+04   -0.35806E-04   -0.48255E-04  4763   0.131E-02    0.145E-01
RMM:   6    -0.232319307290E+04    0.20226E-03   -0.30002E-04  4312   0.110E-02    0.592E-02
RMM:   7    -0.232319304298E+04    0.29928E-04   -0.84103E-05  3468   0.683E-03    0.134E-02
RMM:   8    -0.232319304171E+04    0.12627E-05   -0.10712E-05  2916   0.468E-03
  65 F= -.23446073E+04 E0= -.23446073E+04  d E =-.133958E-02  mag=     2.0000
       N       E                     dE             d eps       ncg     rms          rms(c)
DAV:   1    -0.232319081968E+04    0.22233E-02   -0.10673E-01  4688   0.314E-01    0.984E-02
RMM:   2    -0.232319268346E+04   -0.18638E-02   -0.19325E-02  6479   0.791E-02    0.721E-02
RMM:   3    -0.232319280757E+04   -0.12412E-03   -0.17720E-03  4120   0.255E-02    0.718E-02
RMM:   4    -0.232319275155E+04    0.56022E-04   -0.18804E-04  3099   0.765E-03    0.307E-02
RMM:   5    -0.232319275949E+04   -0.79362E-05   -0.39649E-05  2960   0.445E-03
  66 F= -.23446074E+04 E0= -.23446074E+04  d E =-.139796E-02  mag=     2.0000
       N       E                     dE             d eps       ncg     rms          rms(c)
DAV:   1    -0.232318276844E+04    0.99831E-02   -0.65561E-01  4528   0.796E-01    0.242E-01
RMM:   2    -0.232319349531E+04   -0.10727E-01   -0.10630E-01  6424   0.191E-01    0.271E-01
RMM:   3    -0.232319381359E+04   -0.31829E-03   -0.95815E-03  6059   0.626E-02    0.213E-01
RMM:   4    -0.232319342116E+04    0.39243E-03   -0.11696E-03  4984   0.174E-02    0.112E-01
RMM:   5    -0.232319333308E+04    0.88079E-04   -0.23155E-04  3492   0.926E-03    0.812E-02
RMM:   6    -0.232319323899E+04    0.94095E-04   -0.24400E-04  4523   0.107E-02    0.214E-02
RMM:   7    -0.232319323761E+04    0.13795E-05   -0.41116E-05  3125   0.658E-03
  67 F= -.23446086E+04 E0= -.23446086E+04  d E =-.125521E-02  mag=     2.0000
       N       E                     dE             d eps       ncg     rms          rms(c)
DAV:   1    -0.232319122442E+04    0.20146E-02   -0.11144E-01  4544   0.328E-01    0.102E-01
RMM:   2    -0.232319306831E+04   -0.18439E-02   -0.18220E-02  6405   0.792E-02    0.118E-01
RMM:   3    -0.232319311477E+04   -0.46455E-04   -0.16571E-03  4540   0.270E-02    0.922E-02
RMM:   4    -0.232319304435E+04    0.70424E-04   -0.20556E-04  3186   0.837E-03    0.481E-02
RMM:   5    -0.232319302548E+04    0.18869E-04   -0.41918E-05  2943   0.495E-03    0.318E-02
RMM:   6    -0.232319301117E+04    0.14306E-04   -0.41918E-05  3114   0.494E-03    0.887E-03
RMM:   7    -0.232319301143E+04   -0.25662E-06   -0.89394E-06  2851   0.370E-03
  68 F= -.23446087E+04 E0= -.23446087E+04  d E =-.134970E-02  mag=     2.0000
       N       E                     dE             d eps       ncg     rms          rms(c)
DAV:   1    -0.232318269700E+04    0.10314E-01   -0.69573E-01  4516   0.832E-01    0.248E-01
RMM:   2    -0.232319443813E+04   -0.11741E-01   -0.11202E-01  6452   0.196E-01    0.350E-01
RMM:   3    -0.232319414940E+04    0.28873E-03   -0.99563E-03  6127   0.636E-02    0.201E-01
RMM:   4    -0.232319388024E+04    0.26917E-03   -0.13167E-03  4885   0.179E-02    0.123E-01
RMM:   5    -0.232319373120E+04    0.14904E-03   -0.23698E-04  3448   0.923E-03    0.732E-02
RMM:   6    -0.232319365443E+04    0.76763E-04   -0.23290E-04  4522   0.107E-02    0.258E-02
RMM:   7    -0.232319365427E+04    0.16083E-06   -0.49472E-05  3109   0.724E-03
  69 F= -.23446100E+04 E0= -.23446100E+04  d E =-.132843E-02  mag=     2.0000
       N       E                     dE             d eps       ncg     rms          rms(c)
DAV:   1    -0.232318850171E+04    0.51527E-02   -0.30733E-01  4516   0.553E-01    0.167E-01
RMM:   2    -0.232319368952E+04   -0.51878E-02   -0.49776E-02  6410   0.132E-01    0.230E-01
RMM:   3    -0.232319358879E+04    0.10073E-03   -0.44508E-03  5726   0.435E-02    0.137E-01
RMM:   4    -0.232319346461E+04    0.12418E-03   -0.58762E-04  3707   0.122E-02    0.827E-02
RMM:   5    -0.232319339851E+04    0.66101E-04   -0.10714E-04  3119   0.713E-03    0.488E-02
RMM:   6    -0.232319336529E+04    0.33220E-04   -0.10329E-04  3841   0.749E-03    0.179E-02
RMM:   7    -0.232319336530E+04   -0.49913E-08   -0.25200E-05  2976   0.563E-03
  70 F= -.23446102E+04 E0= -.23446102E+04  d E =-.149655E-02  mag=     2.0000
       N       E                     dE             d eps       ncg     rms          rms(c)
DAV:   1    -0.232318016616E+04    0.13199E-01   -0.84002E-01  4504   0.928E-01    0.269E-01
RMM:   2    -0.232319391347E+04   -0.13747E-01   -0.13606E-01  6412   0.217E-01    0.310E-01
RMM:   3    -0.232319420633E+04   -0.29286E-03   -0.12168E-02  6102   0.714E-02    0.231E-01
RMM:   4    -0.232319379317E+04    0.41316E-03   -0.15288E-03  5265   0.199E-02    0.133E-01
RMM:   5    -0.232319363890E+04    0.15427E-03   -0.26758E-04  3542   0.994E-03    0.824E-02
RMM:   6    -0.232319354718E+04    0.91718E-04   -0.27192E-04  4515   0.116E-02    0.308E-02
RMM:   7    -0.232319355895E+04   -0.11773E-04   -0.87924E-05  3215   0.821E-03    0.374E-02
RMM:   8    -0.232319354045E+04    0.18507E-04   -0.22634E-05  2918   0.427E-03    0.944E-03
RMM:   9    -0.232319353907E+04    0.13782E-05   -0.45475E-06  2852   0.243E-03
  71 F= -.23446112E+04 E0= -.23446112E+04  d E =-.101289E-02  mag=     2.0000
       N       E                     dE             d eps       ncg     rms          rms(c)
DAV:   1    -0.232319134017E+04    0.22003E-02   -0.11721E-01  4560   0.347E-01    0.100E-01
RMM:   2    -0.232319326747E+04   -0.19273E-02   -0.18980E-02  6372   0.812E-02    0.118E-01
RMM:   3    -0.232319329957E+04   -0.32102E-04   -0.16837E-03  4518   0.269E-02    0.859E-02
RMM:   4    -0.232319324265E+04    0.56916E-04   -0.21306E-04  3187   0.829E-03    0.500E-02
RMM:   5    -0.232319322032E+04    0.22328E-04   -0.38453E-05  2934   0.487E-03    0.308E-02
RMM:   6    -0.232319320734E+04    0.12981E-04   -0.43929E-05  3092   0.508E-03    0.113E-02
RMM:   7    -0.232319320913E+04   -0.17839E-05   -0.13387E-05  2875   0.400E-03
  72 F= -.23446112E+04 E0= -.23446112E+04  d E =-.996207E-03  mag=     2.0000
       N       E                     dE             d eps       ncg     rms          rms(c)
DAV:   1    -0.232317951126E+04    0.13696E-01   -0.78944E-01  4504   0.901E-01    0.259E-01
RMM:   2    -0.232319298073E+04   -0.13469E-01   -0.13751E-01  6409   0.214E-01    0.229E-01
RMM:   3    -0.232319357198E+04   -0.59125E-03   -0.12307E-02  5867   0.706E-02    0.175E-01
RMM:   4    -0.232319320497E+04    0.36701E-03   -0.13158E-03  4576   0.175E-02    0.799E-02
RMM:   5    -0.232319321729E+04   -0.12314E-04   -0.24419E-04  3884   0.103E-02    0.102E-01
RMM:   6    -0.232319311488E+04    0.10240E-03   -0.18022E-04  4242   0.930E-03    0.482E-02
RMM:   7    -0.232319311878E+04   -0.38979E-05   -0.85978E-05  3147   0.692E-03
  73 F= -.23446121E+04 E0= -.23446121E+04  d E =-.854716E-03  mag=     2.0000
       N       E                     dE             d eps       ncg     rms          rms(c)
DAV:   1    -0.232319072662E+04    0.23883E-02   -0.11489E-01  4544   0.344E-01    0.102E-01
RMM:   2    -0.232319269438E+04   -0.19678E-02   -0.20261E-02  6367   0.835E-02    0.856E-02
RMM:   3    -0.232319279428E+04   -0.99903E-04   -0.18386E-03  4269   0.279E-02    0.702E-02
RMM:   4    -0.232319273814E+04    0.56137E-04   -0.19961E-04  3081   0.808E-03    0.310E-02
RMM:   5    -0.232319274291E+04   -0.47651E-05   -0.37798E-05  2996   0.456E-03
  74 F= -.23446120E+04 E0= -.23446120E+04  d E =-.841164E-03  mag=     2.0000
       N       E                     dE             d eps       ncg     rms          rms(c)
DAV:   1    -0.232317564248E+04    0.17096E-01   -0.94151E-01  4504   0.101E+00    0.297E-01
RMM:   2    -0.232319238168E+04   -0.16739E-01   -0.17171E-01  6311   0.241E-01    0.252E-01
RMM:   3    -0.232319326977E+04   -0.88809E-03   -0.15768E-02  5867   0.824E-02    0.218E-01
RMM:   4    -0.232319274284E+04    0.52694E-03   -0.16954E-03  4991   0.209E-02    0.110E-01
RMM:   5    -0.232319273705E+04    0.57851E-05   -0.29675E-04  3836   0.103E-02    0.123E-01
RMM:   6    -0.232319255770E+04    0.17935E-03   -0.28368E-04  4471   0.114E-02    0.304E-02
RMM:   7    -0.232319256567E+04   -0.79689E-05   -0.97958E-05  3521   0.785E-03
  75 F= -.23446129E+04 E0= -.23446129E+04  d E =-.902888E-03  mag=     2.0000
       N       E                     dE             d eps       ncg     rms          rms(c)
DAV:   1    -0.232319219648E+04    0.36122E-03   -0.11920E-02  5168   0.114E-01    0.381E-02
RMM:   2    -0.232319241236E+04   -0.21588E-03   -0.22652E-03  5986   0.290E-02    0.327E-02
RMM:   3    -0.232319243017E+04   -0.17813E-04   -0.22903E-04  3086   0.103E-02    0.363E-02
RMM:   4    -0.232319241862E+04    0.11549E-04   -0.27594E-05  2929   0.409E-03    0.176E-02
RMM:   5    -0.232319241660E+04    0.20196E-05   -0.60713E-06  2763   0.188E-03
  76 F= -.23446129E+04 E0= -.23446129E+04  d E =-.876295E-03  mag=     2.0000
       N       E                     dE             d eps       ncg     rms          rms(c)
DAV:   1    -0.232318352189E+04    0.88967E-02   -0.49789E-01  4516   0.745E-01    0.221E-01
RMM:   2    -0.232319220426E+04   -0.86824E-02   -0.89933E-02  6246   0.176E-01    0.175E-01
RMM:   3    -0.232319271074E+04   -0.50649E-03   -0.82548E-03  5699   0.608E-02    0.158E-01
RMM:   4    -0.232319241288E+04    0.29786E-03   -0.87778E-04  4124   0.156E-02    0.713E-02
RMM:   5    -0.232319244666E+04   -0.33783E-04   -0.17462E-04  3609   0.887E-03    0.104E-01
RMM:   6    -0.232319233009E+04    0.11657E-03   -0.15997E-04  3939   0.910E-03    0.238E-02
RMM:   7    -0.232319233360E+04   -0.35117E-05   -0.49901E-05  3163   0.622E-03
  77 F= -.23446135E+04 E0= -.23446135E+04  d E =-.616587E-03  mag=     2.0000
       N       E                     dE             d eps       ncg     rms          rms(c)
DAV:   1    -0.232319226960E+04    0.60490E-04   -0.97543E-04  5240   0.340E-02    0.144E-02
RMM:   2    -0.232319228751E+04   -0.17904E-04   -0.20144E-04  4051   0.907E-03    0.130E-02
RMM:   3    -0.232319228959E+04   -0.20814E-05   -0.26318E-05  2796   0.500E-03
  78 F= -.23446135E+04 E0= -.23446135E+04  d E =-.604187E-03  mag=     2.0000
       N       E                     dE             d eps       ncg     rms          rms(c)
DAV:   1    -0.232318608371E+04    0.62038E-02   -0.38331E-01  4516   0.653E-01    0.187E-01
RMM:   2    -0.232319241697E+04   -0.63333E-02   -0.63982E-02  6290   0.149E-01    0.195E-01
RMM:   3    -0.232319267135E+04   -0.25438E-03   -0.58606E-03  5858   0.517E-02    0.169E-01
RMM:   4    -0.232319242645E+04    0.24490E-03   -0.69907E-04  3971   0.140E-02    0.880E-02
RMM:   5    -0.232319236108E+04    0.65367E-04   -0.12648E-04  3184   0.783E-03    0.597E-02
RMM:   6    -0.232319230532E+04    0.55761E-04   -0.15028E-04  4135   0.892E-03    0.171E-02
RMM:   7    -0.232319230571E+04   -0.38755E-06   -0.33326E-05  3025   0.614E-03
  79 F= -.23446140E+04 E0= -.23446140E+04  d E =-.487850E-03  mag=     2.0000
       N       E                     dE             d eps       ncg     rms          rms(c)
DAV:   1    -0.232319138299E+04    0.92233E-03   -0.43100E-02  4576   0.219E-01    0.646E-02
RMM:   2    -0.232319208977E+04   -0.70678E-03   -0.73163E-03  6277   0.513E-02    0.577E-02
RMM:   3    -0.232319212571E+04   -0.35934E-04   -0.66030E-04  3564   0.177E-02    0.523E-02
RMM:   4    -0.232319209977E+04    0.25938E-04   -0.76672E-05  2978   0.601E-03    0.265E-02
RMM:   5    -0.232319209690E+04    0.28725E-05   -0.15071E-05  2896   0.312E-03
  80 F= -.23446140E+04 E0= -.23446140E+04  d E =-.437949E-03  mag=     2.0000
       N       E                     dE             d eps       ncg     rms          rms(c)
DAV:   1    -0.232319191512E+04    0.18465E-03   -0.20479E-02  4576   0.151E-01    0.439E-02
RMM:   2    -0.232319225219E+04   -0.33707E-03   -0.33924E-03  6167   0.353E-02    0.453E-02
RMM:   3    -0.232319227002E+04   -0.17827E-04   -0.33025E-04  3193   0.123E-02    0.427E-02
RMM:   4    -0.232319225456E+04    0.15457E-04   -0.38936E-05  2920   0.447E-03    0.196E-02
RMM:   5    -0.232319225043E+04    0.41346E-05   -0.63811E-06  2544   0.214E-03
  81 F= -.23446140E+04 E0= -.23446140E+04  d E =-.483575E-03  mag=     2.0000
       N       E                     dE             d eps       ncg     rms          rms(c)
DAV:   1    -0.232318620359E+04    0.60510E-02   -0.40149E-01  4516   0.670E-01    0.193E-01
RMM:   2    -0.232319252976E+04   -0.63262E-02   -0.62314E-02  6242   0.150E-01    0.236E-01
RMM:   3    -0.232319261040E+04   -0.80633E-04   -0.56831E-03  5867   0.533E-02    0.183E-01
RMM:   4    -0.232319232247E+04    0.28792E-03   -0.71982E-04  4169   0.143E-02    0.838E-02
RMM:   5    -0.232319225158E+04    0.70894E-04   -0.13251E-04  3190   0.785E-03    0.567E-02
RMM:   6    -0.232319219730E+04    0.54277E-04   -0.14354E-04  4163   0.882E-03    0.169E-02
RMM:   7    -0.232319219618E+04    0.11182E-05   -0.29874E-05  2995   0.618E-03
  82 F= -.23446144E+04 E0= -.23446144E+04  d E =-.394828E-03  mag=     2.0000
       N       E                     dE             d eps       ncg     rms          rms(c)
DAV:   1    -0.232319220178E+04   -0.44820E-05   -0.73491E-05  4816   0.932E-03    0.561E-03
RMM:   2    -0.232319220304E+04   -0.12580E-05   -0.10190E-05  2844   0.256E-03
  83 F= -.23446144E+04 E0= -.23446144E+04  d E =-.396309E-03  mag=     2.0000
       N       E                     dE             d eps       ncg     rms          rms(c)
DAV:   1    -0.232318837580E+04    0.38260E-02   -0.25203E-01  4516   0.534E-01    0.152E-01
RMM:   2    -0.232319235203E+04   -0.39762E-02   -0.38803E-02  6253   0.121E-01    0.195E-01
RMM:   3    -0.232319234625E+04    0.57754E-05   -0.34404E-03  5674   0.423E-02    0.142E-01
RMM:   4    -0.232319217843E+04    0.16783E-03   -0.44527E-04  3502   0.114E-02    0.656E-02
RMM:   5    -0.232319213727E+04    0.41158E-04   -0.84427E-05  3060   0.691E-03    0.456E-02
RMM:   6    -0.232319210595E+04    0.31316E-04   -0.87928E-05  3813   0.741E-03    0.165E-02
RMM:   7    -0.232319210701E+04   -0.10603E-05   -0.23179E-05  2987   0.570E-03
  84 F= -.23446147E+04 E0= -.23446147E+04  d E =-.305331E-03  mag=     2.0000
       N       E                     dE             d eps       ncg     rms          rms(c)
DAV:   1    -0.232319204541E+04    0.60538E-04   -0.13798E-03  5312   0.401E-02    0.141E-02
RMM:   2    -0.232319206775E+04   -0.22337E-04   -0.23076E-04  4224   0.100E-02    0.145E-02
RMM:   3    -0.232319206849E+04   -0.73637E-06   -0.27657E-05  2718   0.498E-03
  85 F= -.23446147E+04 E0= -.23446147E+04  d E =-.297078E-03  mag=     2.0000
       N       E                     dE             d eps       ncg     rms          rms(c)
DAV:   1    -0.232318940177E+04    0.26660E-02   -0.17354E-01  4516   0.449E-01    0.132E-01
RMM:   2    -0.232319198230E+04   -0.25805E-02   -0.26137E-02  6256   0.102E-01    0.122E-01
RMM:   3    -0.232319208067E+04   -0.98367E-04   -0.22726E-03  5190   0.350E-02    0.111E-01
RMM:   4    -0.232319195927E+04    0.12140E-03   -0.27999E-04  3293   0.978E-03    0.552E-02
RMM:   5    -0.232319193980E+04    0.19473E-04   -0.56465E-05  2998   0.621E-03    0.418E-02
RMM:   6    -0.232319191416E+04    0.25642E-04   -0.61562E-05  3359   0.621E-03    0.131E-02
RMM:   7    -0.232319191313E+04    0.10289E-05   -0.15748E-05  2990   0.473E-03
  86 F= -.23446149E+04 E0= -.23446149E+04  d E =-.187650E-03  mag=     2.0000
       N       E                     dE             d eps       ncg     rms          rms(c)
DAV:   1    -0.232319192554E+04   -0.11379E-04   -0.27871E-04  5184   0.180E-02    0.615E-03
RMM:   2    -0.232319193003E+04   -0.44963E-05   -0.38235E-05  3012   0.462E-03
  87 F= -.23446149E+04 E0= -.23446149E+04  d E =-.191366E-03  mag=     2.0000
       N       E                     dE             d eps       ncg     rms          rms(c)
DAV:   1    -0.232318988020E+04    0.20453E-02   -0.13118E-01  4516   0.389E-01    0.113E-01
[...]
RMM:   3    -0.232319014858E+04   -0.65834E-05   -0.21801E-04  3049   0.997E-03    0.267E-02
RMM:   4    -0.232319014213E+04    0.64465E-05   -0.24702E-05  2944   0.356E-03
 156 F= -.23446169E+04 E0= -.23446169E+04  d E =-.428782E-04  mag=     2.0000
       N       E                     dE             d eps       ncg     rms          rms(c)
DAV:   1    -0.232318996101E+04    0.18757E-03   -0.84899E-03  4500   0.904E-02    0.297E-02
RMM:   2    -0.232319012717E+04   -0.16616E-03   -0.16531E-03  5916   0.234E-02    0.358E-02
RMM:   3    -0.232319013601E+04   -0.88337E-05   -0.17701E-04  2977   0.933E-03    0.336E-02
RMM:   4    -0.232319012587E+04    0.10141E-04   -0.17631E-05  2909   0.334E-03    0.118E-02
RMM:   5    -0.232319012666E+04   -0.79500E-06   -0.74156E-06  2756   0.187E-03
 157 F= -.23446169E+04 E0= -.23446169E+04  d E =-.398518E-04  mag=     2.0000
       N       E                     dE             d eps       ncg     rms          rms(c)
DAV:   1    -0.232319000863E+04    0.11723E-03   -0.42263E-03  4448   0.639E-02    0.215E-02
RMM:   2    -0.232319008946E+04   -0.80827E-04   -0.84929E-04  5321   0.169E-02    0.176E-02
RMM:   3    -0.232319009503E+04   -0.55709E-05   -0.86847E-05  2926   0.663E-03
 158 F= -.23446169E+04 E0= -.23446169E+04  d E =-.476385E-04  mag=     2.0000
       N       E                     dE             d eps       ncg     rms          rms(c)
DAV:   1    -0.232318985457E+04    0.23489E-03   -0.95001E-03  4516   0.978E-02    0.330E-02
RMM:   2    -0.232319004531E+04   -0.19074E-03   -0.19801E-03  6035   0.264E-02    0.248E-02
RMM:   3    -0.232319005743E+04   -0.12120E-04   -0.19528E-04  3010   0.975E-03    0.218E-02
RMM:   4    -0.232319005218E+04    0.52456E-05   -0.20917E-05  2934   0.328E-03
 159 F= -.23446170E+04 E0= -.23446170E+04  d E =-.371925E-04  mag=     2.0000
       N       E                     dE             d eps       ncg     rms          rms(c)
DAV:   1    -0.232318996580E+04    0.91632E-04   -0.23353E-03  4640   0.487E-02    0.213E-02
RMM:   2    -0.232319004153E+04   -0.75738E-04   -0.49957E-04  4755   0.130E-02    0.543E-02
RMM:   3    -0.232319001266E+04    0.28874E-04   -0.58331E-05  2917   0.603E-03    0.120E-02
RMM:   4    -0.232319001179E+04    0.87230E-06   -0.79091E-06  2809   0.217E-03
 160 F= -.23446170E+04 E0= -.23446170E+04  d E =-.370834E-04  mag=     2.0000
       N       E                     dE             d eps       ncg     rms          rms(c)
DAV:   1    -0.232318971890E+04    0.29376E-03   -0.10873E-02  4516   0.104E-01    0.352E-02
RMM:   2    -0.232318994467E+04   -0.22577E-03   -0.23272E-03  6101   0.278E-02    0.312E-02
RMM:   3    -0.232318996709E+04   -0.22417E-04   -0.23689E-04  3020   0.106E-02    0.411E-02
RMM:   4    -0.232318995143E+04    0.15658E-04   -0.25800E-05  2927   0.374E-03    0.132E-02
RMM:   5    -0.232318995107E+04    0.36519E-06   -0.58871E-06  2686   0.174E-03
 161 F= -.23446170E+04 E0= -.23446170E+04  d E =-.361258E-04  mag=     2.0000
       N       E                     dE             d eps       ncg     rms          rms(c)
DAV:   1    -0.232318988946E+04    0.61972E-04   -0.12357E-03  4752   0.353E-02    0.129E-02
RMM:   2    -0.232318991773E+04   -0.28266E-04   -0.27420E-04  4218   0.970E-03    0.165E-02
RMM:   3    -0.232318991726E+04    0.46304E-06   -0.28691E-05  2711   0.469E-03
 162 F= -.23446170E+04 E0= -.23446170E+04  d E =-.356762E-04  mag=     2.0000
       N       E                     dE             d eps       ncg     rms          rms(c)
DAV:   1    -0.232318961123E+04    0.30649E-03   -0.11251E-02  4516   0.105E-01    0.370E-02
RMM:   2    -0.232318986114E+04   -0.24991E-03   -0.25260E-03  6139   0.292E-02    0.369E-02
RMM:   3    -0.232318986789E+04   -0.67516E-05   -0.24731E-04  3048   0.109E-02    0.260E-02
RMM:   4    -0.232318986059E+04    0.73083E-05   -0.26529E-05  2953   0.355E-03
 163 F= -.23446171E+04 E0= -.23446171E+04  d E =-.419397E-04  mag=     2.0000
       N       E                     dE             d eps       ncg     rms          rms(c)
DAV:   1    -0.232318983741E+04    0.30486E-04   -0.32150E-04  5152   0.179E-02    0.179E-02
RMM:   2    -0.232318987943E+04   -0.42025E-04   -0.10586E-04  3600   0.565E-03    0.608E-02
RMM:   3    -0.232318984163E+04    0.37806E-04   -0.24469E-05  2588   0.391E-03    0.755E-03
RMM:   4    -0.232318984130E+04    0.32395E-06   -0.39821E-06  2038   0.155E-03
 164 F= -.23446171E+04 E0= -.23446171E+04  d E =-.393633E-04  mag=     2.0000
       N       E                     dE             d eps       ncg     rms          rms(c)
DAV:   1    -0.232318973575E+04    0.10588E-03   -0.47225E-03  4516   0.721E-02    0.263E-02
RMM:   2    -0.232318982079E+04   -0.85040E-04   -0.87236E-04  5805   0.180E-02    0.231E-02
RMM:   3    -0.232318982630E+04   -0.55115E-05   -0.90354E-05  2943   0.750E-03
 165 F= -.23446171E+04 E0= -.23446171E+04  d E =-.331995E-04  mag=     2.0000
       N       E                     dE             d eps       ncg     rms          rms(c)
DAV:   1    -0.232318980923E+04    0.11561E-04   -0.16429E-04  5512   0.139E-02    0.128E-02
RMM:   2    -0.232318982736E+04   -0.18127E-04   -0.48818E-05  2954   0.417E-03    0.411E-02
RMM:   3    -0.232318981053E+04    0.16820E-04   -0.12665E-05  2379   0.343E-03    0.625E-03
RMM:   4    -0.232318981051E+04    0.28900E-07   -0.26247E-06  1547   0.115E-03
 166 F= -.23446171E+04 E0= -.23446171E+04  d E =-.257845E-04  mag=     2.0000
       N       E                     dE             d eps       ncg     rms          rms(c)
DAV:   1    -0.232318971697E+04    0.93567E-04   -0.38178E-03  4516   0.654E-02    0.232E-02
RMM:   2    -0.232318978126E+04   -0.64296E-04   -0.67919E-04  5598   0.164E-02    0.157E-02
RMM:   3    -0.232318978785E+04   -0.65834E-05   -0.70002E-05  2923   0.676E-03
 167 F= -.23446171E+04 E0= -.23446171E+04  d E =-.246686E-04  mag=     2.0000
       N       E                     dE             d eps       ncg     rms          rms(c)
DAV:   1    -0.232318977775E+04    0.35187E-05   -0.57356E-05  4568   0.851E-03    0.955E-03
RMM:   2    -0.232318978740E+04   -0.96592E-05   -0.19091E-05  2602   0.409E-03
 168 F= -.23446171E+04 E0= -.23446171E+04  d E =-.289757E-04  mag=     2.0000
       N       E                     dE             d eps       ncg     rms          rms(c)
DAV:   1    -0.232318966643E+04    0.11132E-03   -0.38162E-03  4468   0.611E-02    0.216E-02
RMM:   2    -0.232318974897E+04   -0.82543E-04   -0.79646E-04  5376   0.168E-02    0.303E-02
RMM:   3    -0.232318974809E+04    0.88190E-06   -0.81267E-05  2900   0.695E-03
 169 F= -.23446171E+04 E0= -.23446171E+04  d E =-.860482E-05  mag=     2.0000
       N       E                     dE             d eps       ncg     rms          rms(c)
DAV:   1    -0.232318974104E+04    0.79332E-05   -0.26881E-05  4176   0.564E-03    0.738E-03
RMM:   2    -0.232318974166E+04   -0.62192E-06   -0.64616E-06  2397   0.261E-03
 170 F= -.23446171E+04 E0= -.23446171E+04  d E =-.508488E-05  mag=     2.0000
       N       E                     dE             d eps       ncg     rms          rms(c)
DAV:   1    -0.232318963303E+04    0.10801E-03   -0.37903E-03  4516   0.617E-02    0.222E-02
RMM:   2    -0.232318971398E+04   -0.80955E-04   -0.78393E-04  5457   0.164E-02    0.298E-02
RMM:   3    -0.232318971330E+04    0.68026E-06   -0.78753E-05  2927   0.688E-03
 171 F= -.23446171E+04 E0= -.23446171E+04  d E =-.185877E-04  mag=     2.0000
       N       E                     dE             d eps       ncg     rms          rms(c)
DAV:   1    -0.232318970213E+04    0.11852E-04   -0.76017E-05  4760   0.907E-03    0.975E-03
RMM:   2    -0.232318970851E+04   -0.63825E-05   -0.24337E-05  2603   0.380E-03
 172 F= -.23446171E+04 E0= -.23446171E+04  d E =-.198125E-04  mag=     2.0000
       N       E                     dE             d eps       ncg     rms          rms(c)
DAV:   1    -0.232318959010E+04    0.11203E-03   -0.35346E-03  4468   0.596E-02    0.208E-02
RMM:   2    -0.232318966366E+04   -0.73564E-04   -0.76476E-04  5388   0.163E-02    0.178E-02
RMM:   3    -0.232318967110E+04   -0.74407E-05   -0.75856E-05  2894   0.686E-03
 173 F= -.23446171E+04 E0= -.23446171E+04  d E =-.101867E-04  mag=     2.0000
       N       E                     dE             d eps       ncg     rms          rms(c)
DAV:   1    -0.232318967142E+04   -0.77556E-05   -0.72445E-05  4528   0.886E-03    0.852E-03
RMM:   2    -0.232318967375E+04   -0.23342E-05   -0.14911E-05  2450   0.324E-03
 174 F= -.23446171E+04 E0= -.23446171E+04  d E =-.733676E-05  mag=     2.0000
       N       E                     dE             d eps       ncg     rms          rms(c)
DAV:   1    -0.232318955826E+04    0.11316E-03   -0.34387E-03  4468   0.590E-02    0.202E-02
RMM:   2    -0.232318962871E+04   -0.70454E-04   -0.75212E-04  5293   0.162E-02    0.128E-02
RMM:   3    -0.232318963448E+04   -0.57687E-05   -0.77666E-05  2872   0.677E-03
 175 F= -.23446172E+04 E0= -.23446172E+04  d E =-.102098E-04  mag=     2.0000
       N       E                     dE             d eps       ncg     rms          rms(c)
DAV:   1    -0.232318963859E+04   -0.98809E-05   -0.62796E-05  4520   0.849E-03    0.828E-03
RMM:   2    -0.232318964255E+04   -0.39649E-05   -0.15417E-05  2523   0.293E-03
 176 F= -.23446172E+04 E0= -.23446172E+04  d E =-.123016E-04  mag=     2.0000
       N       E                     dE             d eps       ncg     rms          rms(c)
DAV:   1    -0.232318953103E+04    0.10756E-03   -0.29254E-03  4420   0.547E-02    0.195E-02
RMM:   2    -0.232318959674E+04   -0.65718E-04   -0.67964E-04  5042   0.153E-02    0.180E-02
RMM:   3    -0.232318960089E+04   -0.41517E-05   -0.71153E-05  2817   0.656E-03
 177 F= -.23446172E+04 E0= -.23446172E+04  d E =-.128202E-04  mag=     2.0000
       N       E                     dE             d eps       ncg     rms          rms(c)
DAV:   1    -0.232318959716E+04   -0.41307E-06   -0.16922E-05  3616   0.458E-03    0.955E-03
RMM:   2    -0.232318960620E+04   -0.90475E-05   -0.11058E-05  2414   0.246E-03
 178 F= -.23446172E+04 E0= -.23446172E+04  d E =-.195101E-04  mag=     2.0000
       N       E                     dE             d eps       ncg     rms          rms(c)
DAV:   1    -0.232318951104E+04    0.86112E-04   -0.26492E-03  4428   0.519E-02    0.181E-02
RMM:   2    -0.232318956944E+04   -0.58393E-04   -0.62428E-04  4921   0.144E-02    0.110E-02
RMM:   3    -0.232318957409E+04   -0.46487E-05   -0.60488E-05  2723   0.618E-03
 179 F= -.23446172E+04 E0= -.23446172E+04  d E =-.803010E-05  mag=     2.0000
       N       E                     dE             d eps       ncg     rms          rms(c)
DAV:   1    -0.232318955463E+04    0.14809E-04   -0.25282E-04  4952   0.163E-02    0.909E-03
RMM:   2    -0.232318956544E+04   -0.10814E-04   -0.68171E-05  3053   0.485E-03    0.226E-02
RMM:   3    -0.232318956071E+04    0.47362E-05   -0.93871E-06  2333   0.331E-03
 180 F= -.23446172E+04 E0= -.23446172E+04  d E =-.707030E-05  mag=     2.0000
       N       E                     dE             d eps       ncg     rms          rms(c)
DAV:   1    -0.232318947382E+04    0.91619E-04   -0.23746E-03  4420   0.487E-02    0.173E-02
RMM:   2    -0.232318952830E+04   -0.54481E-04   -0.56340E-04  4769   0.136E-02    0.152E-02
RMM:   3    -0.232318953200E+04   -0.36937E-05   -0.60755E-05  2715   0.608E-03
 181 F= -.23446172E+04 E0= -.23446172E+04  d E =-.130594E-04  mag=     2.0000
       N       E                     dE             d eps       ncg     rms          rms(c)
DAV:   1    -0.232318952766E+04    0.64242E-06   -0.16286E-05  3656   0.466E-03    0.761E-03
RMM:   2    -0.232318953295E+04   -0.52887E-05   -0.83005E-06  2362   0.243E-03
 182 F= -.23446172E+04 E0= -.23446172E+04  d E =-.162374E-04  mag=     2.0000
       N       E                     dE             d eps       ncg     rms          rms(c)
DAV:   1    -0.232318947128E+04    0.56382E-04   -0.12028E-03  4288   0.342E-02    0.123E-02
RMM:   2    -0.232318950151E+04   -0.30232E-04   -0.30667E-04  4189   0.100E-02    0.123E-02
RMM:   3    -0.232318950356E+04   -0.20432E-05   -0.29982E-05  2354   0.491E-03
 183 F= -.23446172E+04 E0= -.23446172E+04  d E =-.638497E-05  mag=     2.0000
       N       E                     dE             d eps       ncg     rms          rms(c)
DAV:   1    -0.232318945407E+04    0.47446E-04   -0.78513E-04  4264   0.276E-02    0.110E-02
RMM:   2    -0.232318947546E+04   -0.21388E-04   -0.20853E-04  3891   0.832E-03    0.134E-02
RMM:   3    -0.232318947515E+04    0.30766E-06   -0.22656E-05  2482   0.455E-03
 184 F= -.23446172E+04 E0= -.23446172E+04  d E =-.715444E-05  mag=     2.0000
       N       E                     dE             d eps       ncg     rms          rms(c)
DAV:   1    -0.232318944500E+04    0.30460E-04   -0.62819E-04  4248   0.250E-02    0.914E-03
RMM:   2    -0.232318946062E+04   -0.15626E-04   -0.15371E-04  3647   0.734E-03    0.112E-02
RMM:   3    -0.232318946113E+04   -0.50578E-06   -0.18518E-05  2379   0.431E-03
 185 F= -.23446172E+04 E0= -.23446172E+04  d E =-.100406E-04  mag=     2.0000
       N       E                     dE             d eps       ncg     rms          rms(c)
DAV:   1    -0.232318943845E+04    0.22167E-04   -0.31283E-04  4664   0.177E-02    0.861E-03
RMM:   2    -0.232318944945E+04   -0.11000E-04   -0.80512E-05  3224   0.542E-03    0.186E-02
RMM:   3    -0.232318944615E+04    0.33025E-05   -0.10763E-05  2317   0.359E-03
 186 F= -.23446172E+04 E0= -.23446172E+04  d E =-.119923E-04  mag=     2.0000
       N       E                     dE             d eps       ncg     rms          rms(c)
DAV:   1    -0.232318942825E+04    0.21208E-04   -0.57214E-04  4272   0.248E-02    0.999E-03
RMM:   2    -0.232318944172E+04   -0.13470E-04   -0.11791E-04  3361   0.686E-03    0.162E-02
RMM:   3    -0.232318943984E+04    0.18782E-05   -0.14641E-05  2328   0.423E-03
 187 F= -.23446172E+04 E0= -.23446172E+04  d E =-.933817E-05  mag=     2.0000
       N       E                     dE             d eps       ncg     rms          rms(c)
DAV:   1    -0.232318942228E+04    0.19432E-04   -0.30600E-04  4384   0.182E-02    0.935E-03
RMM:   2    -0.232318943326E+04   -0.10976E-04   -0.67915E-05  3174   0.531E-03    0.216E-02
RMM:   3    -0.232318942838E+04    0.48814E-05   -0.97486E-06  2322   0.363E-03
 188 F= -.23446172E+04 E0= -.23446172E+04  d E =-.935372E-05  mag=     2.0000
       N       E                     dE             d eps       ncg     rms          rms(c)
DAV:   1    -0.232318941061E+04    0.22649E-04   -0.39880E-04  4208   0.196E-02    0.889E-03
RMM:   2    -0.232318942234E+04   -0.11725E-04   -0.92997E-05  3250   0.569E-03    0.176E-02
RMM:   3    -0.232318941944E+04    0.29000E-05   -0.12106E-05  2332   0.376E-03
 189 F= -.23446172E+04 E0= -.23446172E+04  d E =-.420341E-05  mag=     2.0000
       N       E                     dE             d eps       ncg     rms          rms(c)
DAV:   1    -0.232318939489E+04    0.27444E-04   -0.49650E-04  4192   0.219E-02    0.921E-03
RMM:   2    -0.232318940857E+04   -0.13681E-04   -0.11551E-04  3398   0.634E-03    0.168E-02
RMM:   3    -0.232318940643E+04    0.21432E-05   -0.14777E-05  2391   0.406E-03
 190 F= -.23446172E+04 E0= -.23446172E+04  d E =-.587306E-05  mag=     2.0000
       N       E                     dE             d eps       ncg     rms          rms(c)
DAV:   1    -0.232318938487E+04    0.23705E-04   -0.46897E-04  4208   0.207E-02    0.894E-03
RMM:   2    -0.232318939951E+04   -0.14641E-04   -0.11475E-04  3372   0.609E-03    0.198E-02
RMM:   3    -0.232318939605E+04    0.34545E-05   -0.14333E-05  2346   0.384E-03
 191 F= -.23446172E+04 E0= -.23446172E+04  d E =-.887667E-05  mag=     2.0000
       N       E                     dE             d eps       ncg     rms          rms(c)
DAV:   1    -0.232318933231E+04    0.67199E-04   -0.15758E-03  4308   0.378E-02    0.136E-02
RMM:   2    -0.232318936940E+04   -0.37087E-04   -0.36935E-04  4174   0.108E-02    0.156E-02
RMM:   3    -0.232318937033E+04   -0.93326E-06   -0.41188E-05  2561   0.532E-03
 192 F= -.23446173E+04 E0= -.23446173E+04  d E =-.184868E-04  mag=     2.0000
       N       E                     dE             d eps       ncg     rms          rms(c)
DAV:   1    -0.232318935359E+04    0.15807E-04   -0.18028E-04  4976   0.130E-02    0.898E-03
RMM:   2    -0.232318936546E+04   -0.11868E-04   -0.52281E-05  2886   0.413E-03    0.277E-02
RMM:   3    -0.232318935775E+04    0.77108E-05   -0.82715E-06  2309   0.294E-03
 193 F= -.23446173E+04 E0= -.23446173E+04  d E =-.177798E-04  mag=     2.0000
       N       E                     dE             d eps       ncg     rms          rms(c)
DAV:   1    -0.232318933437E+04    0.31093E-04   -0.75410E-04  4192   0.269E-02    0.100E-02
RMM:   2    -0.232318935229E+04   -0.17929E-04   -0.16610E-04  3515   0.750E-03    0.152E-02
RMM:   3    -0.232318935093E+04    0.13648E-05   -0.18599E-05  2329   0.430E-03
 194 F= -.23446173E+04 E0= -.23446173E+04  d E =-.106930E-04  mag=     2.0000
       N       E                     dE             d eps       ncg     rms          rms(c)
DAV:   1    -0.232318927117E+04    0.81121E-04   -0.25370E-03  4452   0.491E-02    0.174E-02
RMM:   2    -0.232318932417E+04   -0.52992E-04   -0.55061E-04  4644   0.136E-02    0.143E-02
RMM:   3    -0.232318932816E+04   -0.39904E-05   -0.58611E-05  2825   0.609E-03
 195 F= -.23446173E+04 E0= -.23446173E+04  d E =-.200088E-04  mag=     2.0000
       N       E                     dE             d eps       ncg     rms          rms(c)
DAV:   1    -0.232318929281E+04    0.31354E-04   -0.89028E-04  4280   0.286E-02    0.104E-02
RMM:   2    -0.232318931403E+04   -0.21218E-04   -0.21568E-04  3883   0.836E-03    0.105E-02
RMM:   3    -0.232318931549E+04   -0.14590E-05   -0.24478E-05  2481   0.459E-03
 196 F= -.23446173E+04 E0= -.23446173E+04  d E =-.819634E-05  mag=     2.0000
       N       E                     dE             d eps       ncg     rms          rms(c)
DAV:   1    -0.232318925029E+04    0.63736E-04   -0.18043E-03  4356   0.403E-02    0.157E-02
RMM:   2    -0.232318929844E+04   -0.48142E-04   -0.42283E-04  4295   0.114E-02    0.302E-02
RMM:   3    -0.232318929278E+04    0.56581E-05   -0.48101E-05  2776   0.561E-03
 197 F= -.23446173E+04 E0= -.23446173E+04  d E =-.151198E-04  mag=     2.0000
       N       E                     dE             d eps       ncg     rms          rms(c)
DAV:   1    -0.232318925241E+04    0.46030E-04   -0.12800E-03  4324   0.352E-02    0.141E-02
RMM:   2    -0.232318928523E+04   -0.32819E-04   -0.28868E-04  4029   0.100E-02    0.232E-02
RMM:   3    -0.232318928078E+04    0.44460E-05   -0.33576E-05  2575   0.528E-03
 198 F= -.23446173E+04 E0= -.23446173E+04  d E =-.111530E-04  mag=     2.0000
       N       E                     dE             d eps       ncg     rms          rms(c)
DAV:   1    -0.232318926560E+04    0.19628E-04   -0.23891E-04  4880   0.153E-02    0.847E-03
RMM:   2    -0.232318927531E+04   -0.97113E-05   -0.57800E-05  2954   0.460E-03
 199 F= -.23446173E+04 E0= -.23446173E+04  d E =-.157532E-04  mag=     2.0000
       N       E                     dE             d eps       ncg     rms          rms(c)
DAV:   1    -0.232318922239E+04    0.43203E-04   -0.13253E-03  4404   0.370E-02    0.131E-02
RMM:   2    -0.232318924962E+04   -0.27225E-04   -0.28548E-04  4165   0.104E-02    0.930E-03
RMM:   3    -0.232318925235E+04   -0.27267E-05   -0.32121E-05  2421   0.527E-03
 200 F= -.23446173E+04 E0= -.23446173E+04  d E =-.614353E-05  mag=     2.0000
       N       E                     dE             d eps       ncg     rms          rms(c)
DAV:   1    -0.232318920410E+04    0.45519E-04   -0.10343E-03  4292   0.326E-02    0.127E-02
RMM:   2    -0.232318922801E+04   -0.23913E-04   -0.22378E-04  3900   0.894E-03    0.185E-02
RMM:   3    -0.232318922711E+04    0.90401E-06   -0.26072E-05  2615   0.490E-03
 201 F= -.23446173E+04 E0= -.23446173E+04  d E =-.680939E-05  mag=     2.0000
