       N       E                     dE             d eps       ncg     rms          rms(c)
DAV:   1     0.130764720423E+05    0.13076E+05   -0.84470E+05  4560   0.143E+03
DAV:   2    -0.104291214673E+04   -0.14119E+05   -0.13510E+05  4980   0.329E+02
DAV:   3    -0.248565566674E+04   -0.14427E+04   -0.14261E+04  5500   0.113E+02
DAV:   4    -0.252828802687E+04   -0.42632E+02   -0.42403E+02  6760   0.276E+01
DAV:   5    -0.252904537763E+04   -0.75735E+00   -0.75565E+00  5740   0.307E+00    0.170E+02
RMM:   6    -0.149744882762E+04    0.10316E+04   -0.19381E+03  4518   0.379E+01    0.737E+01
RMM:   7    -0.166809864279E+04   -0.17065E+03   -0.30866E+02  5165   0.147E+01    0.518E+01
RMM:   8    -0.171397353396E+04   -0.45875E+02   -0.58800E+01  5395   0.747E+00    0.430E+01
RMM:   9    -0.177755815038E+04   -0.63585E+02   -0.62607E+01  5154   0.692E+00    0.378E+01
RMM:  10    -0.190850326716E+04   -0.13095E+03   -0.65811E+01  5126   0.775E+00    0.342E+01
RMM:  11    -0.195451486777E+04   -0.46012E+02   -0.24687E+01  5057   0.464E+00    0.230E+01
RMM:  12    -0.203635170066E+04   -0.81837E+02   -0.29660E+01  5229   0.447E+00    0.197E+01
RMM:  13    -0.208700099771E+04   -0.50649E+02   -0.17264E+01  5321   0.338E+00    0.139E+01
RMM:  14    -0.217044683124E+04   -0.83446E+02   -0.44504E+01  4669   0.492E+00    0.122E+01
RMM:  15    -0.226633770864E+04   -0.95891E+02   -0.79979E+01  4626   0.635E+00    0.840E+00
RMM:  16    -0.230503026758E+04   -0.38693E+02   -0.37688E+01  4649   0.446E+00    0.752E+00
RMM:  17    -0.231317013722E+04   -0.81399E+01   -0.96866E+00  4951   0.241E+00    0.517E+00
RMM:  18    -0.231669488848E+04   -0.35248E+01   -0.32023E+00  5058   0.123E+00    0.230E+00
RMM:  19    -0.231918846898E+04   -0.24936E+01   -0.14697E+00  4769   0.878E-01    0.125E+00
RMM:  20    -0.231994169792E+04   -0.75323E+00   -0.46780E-01  4953   0.468E-01    0.692E-01
RMM:  21    -0.232007898244E+04   -0.13728E+00   -0.12398E-01  4977   0.262E-01    0.381E-01
RMM:  22    -0.232014416705E+04   -0.65185E-01   -0.44431E-02  4636   0.153E-01    0.275E-01
RMM:  23    -0.232016270029E+04   -0.18533E-01   -0.10031E-02  4753   0.951E-02    0.190E-01
RMM:  24    -0.232018050847E+04   -0.17808E-01   -0.67048E-03  4519   0.623E-02    0.929E-02
RMM:  25    -0.232019029821E+04   -0.97897E-02   -0.25910E-03  4592   0.463E-02    0.618E-02
RMM:  26    -0.232019823342E+04   -0.79352E-02   -0.22629E-03  4538   0.344E-02    0.415E-02
RMM:  27    -0.232020295353E+04   -0.47201E-02   -0.13862E-03  4362   0.317E-02    0.263E-02
RMM:  28    -0.232020481640E+04   -0.18629E-02   -0.75229E-04  4278   0.208E-02    0.157E-02
RMM:  29    -0.232020532297E+04   -0.50657E-03   -0.20480E-04  3914   0.142E-02    0.102E-02
RMM:  30    -0.232020552917E+04   -0.20620E-03   -0.75288E-05  3690   0.719E-03    0.535E-03
RMM:  31    -0.232020561524E+04   -0.86071E-04   -0.25396E-05  3216   0.600E-03    0.340E-03
RMM:  32    -0.232020567913E+04   -0.63885E-04   -0.17585E-05  3079   0.392E-03    0.189E-03
RMM:  33    -0.232020569925E+04   -0.20123E-04   -0.68911E-06  2884   0.316E-03    0.121E-03
RMM:  34    -0.232020570900E+04   -0.97501E-05   -0.41606E-06  2489   0.217E-03
   1 F= -.23416209E+04 E0= -.23416209E+04  d E =-.159698E-05  mag=     4.0000
       N       E                     dE             d eps       ncg     rms          rms(c)
DAV:   1    -0.232021238476E+04   -0.66855E-02   -0.20013E+00  4580   0.698E-01    0.338E-01
RMM:   2    -0.232021325056E+04   -0.86580E-03   -0.17893E-02  4505   0.851E-02    0.285E-01
RMM:   3    -0.232021304321E+04    0.20735E-03   -0.36169E-03  5283   0.303E-02    0.265E-01
RMM:   4    -0.232021238442E+04    0.65879E-03   -0.13792E-03  4625   0.160E-02    0.140E-01
RMM:   5    -0.232021237354E+04    0.10874E-04   -0.65721E-04  3613   0.110E-02    0.132E-01
RMM:   6    -0.232021221179E+04    0.16176E-03   -0.20415E-04  3122   0.728E-03    0.254E-02
RMM:   7    -0.232021220639E+04    0.53943E-05   -0.29943E-05  2810   0.324E-03
   2 F= -.23416284E+04 E0= -.23416284E+04  d E =-.361191E-05  mag=     4.0000
       N       E                     dE             d eps       ncg     rms          rms(c)
DAV:   1    -0.232016931592E+04    0.42896E-01   -0.79223E+00  4560   0.137E+00    0.667E-01
RMM:   2    -0.232017304911E+04   -0.37332E-02   -0.73045E-02  5014   0.165E-01    0.556E-01
RMM:   3    -0.232017233918E+04    0.70993E-03   -0.14138E-02  5885   0.597E-02    0.527E-01
RMM:   4    -0.232016958363E+04    0.27556E-02   -0.55055E-03  5345   0.315E-02    0.276E-01
RMM:   5    -0.232016961348E+04   -0.29852E-04   -0.26926E-03  4897   0.210E-02    0.276E-01
RMM:   6    -0.232016892011E+04    0.69337E-03   -0.79616E-04  4181   0.125E-02    0.443E-02
RMM:   7    -0.232016889461E+04    0.25497E-04   -0.11365E-04  3099   0.494E-03    0.278E-02
RMM:   8    -0.232016890368E+04   -0.90720E-05   -0.54895E-05  3051   0.428E-03
   3 F= -.23415832E+04 E0= -.23415832E+04  d E =-.605747E-06  mag=     4.0000
       N       E                     dE             d eps       ncg     rms          rms(c)
DAV:   1    -0.232019555402E+04   -0.26659E-01   -0.36398E+00  4540   0.823E-01    0.357E-01
RMM:   2    -0.232019643793E+04   -0.88390E-03   -0.21545E-02  4116   0.107E-01    0.267E-01
RMM:   3    -0.232019719672E+04   -0.75879E-03   -0.49658E-03  4791   0.323E-02    0.340E-01
RMM:   4    -0.232019606897E+04    0.11278E-02   -0.15452E-03  4795   0.183E-02    0.115E-01
RMM:   5    -0.232019609203E+04   -0.23069E-04   -0.44043E-04  3630   0.972E-03    0.102E-01
RMM:   6    -0.232019597859E+04    0.11345E-03   -0.14248E-04  3088   0.672E-03    0.298E-02
RMM:   7    -0.232019597076E+04    0.78253E-05   -0.29867E-05  2854   0.322E-03
   4 F= -.23416111E+04 E0= -.23416111E+04  d E =-.945382E-06  mag=     4.0000
       N       E                     dE             d eps       ncg     rms          rms(c)
DAV:   1    -0.232019658345E+04   -0.60486E-03   -0.75531E+00  4500   0.130E+00    0.589E-01
RMM:   2    -0.232020179825E+04   -0.52148E-02   -0.59128E-02  5046   0.146E-01    0.700E-01
RMM:   3    -0.232019761739E+04    0.41809E-02   -0.11666E-02  5800   0.519E-02    0.381E-01
RMM:   4    -0.232019685680E+04    0.76058E-03   -0.41541E-03  5223   0.262E-02    0.303E-01
RMM:   5    -0.232019617982E+04    0.67699E-03   -0.19017E-03  4767   0.181E-02    0.141E-01
RMM:   6    -0.232019602410E+04    0.15572E-03   -0.24145E-04  3250   0.778E-03    0.525E-02
RMM:   7    -0.232019601700E+04    0.71039E-05   -0.11213E-04  3002   0.599E-03    0.462E-02
RMM:   8    -0.232019598904E+04    0.27954E-04   -0.36952E-05  2994   0.393E-03    0.130E-02
RMM:   9    -0.232019598917E+04   -0.13140E-06   -0.72002E-06  2725   0.217E-03
   5 F= -.23416113E+04 E0= -.23416113E+04  d E =-.271473E-05  mag=     4.0000
       N       E                     dE             d eps       ncg     rms          rms(c)
DAV:   1    -0.232024268138E+04   -0.46692E-01   -0.39081E+00  4520   0.955E-01    0.473E-01
RMM:   2    -0.232024570224E+04   -0.30209E-02   -0.42828E-02  5092   0.115E-01    0.557E-01
RMM:   3    -0.232024348868E+04    0.22136E-02   -0.70604E-03  5081   0.402E-02    0.344E-01
RMM:   4    -0.232024254653E+04    0.94215E-03   -0.28584E-03  4950   0.212E-02    0.191E-01
RMM:   5    -0.232024255636E+04   -0.98294E-05   -0.12408E-03  4820   0.167E-02    0.180E-01
RMM:   6    -0.232024215836E+04    0.39800E-03   -0.39744E-04  3641   0.103E-02    0.365E-02
RMM:   7    -0.232024214165E+04    0.16711E-04   -0.64695E-05  3014   0.466E-03    0.161E-02
RMM:   8    -0.232024213896E+04    0.26830E-05   -0.13841E-05  2888   0.257E-03
   6 F= -.23416580E+04 E0= -.23416580E+04  d E =-.446400E-05  mag=     4.0000
       N       E                     dE             d eps       ncg     rms          rms(c)
DAV:   1    -0.232015421538E+04    0.87926E-01   -0.78764E+00  4480   0.132E+00    0.692E-01
RMM:   2    -0.232016001813E+04   -0.58027E-02   -0.10243E-01  5383   0.167E-01    0.721E-01
RMM:   3    -0.232015526723E+04    0.47509E-02   -0.14863E-02  5654   0.551E-02    0.483E-01
RMM:   4    -0.232015353941E+04    0.17278E-02   -0.50942E-03  5447   0.293E-02    0.271E-01
RMM:   5    -0.232015356743E+04   -0.28019E-04   -0.25190E-03  5080   0.233E-02    0.266E-01
RMM:   6    -0.232015273860E+04    0.82883E-03   -0.10490E-03  4498   0.148E-02    0.784E-02
RMM:   7    -0.232015266751E+04    0.71090E-04   -0.12645E-04  3239   0.631E-03    0.439E-02
RMM:   8    -0.232015265509E+04    0.12416E-04   -0.59299E-05  2946   0.472E-03    0.318E-02
RMM:   9    -0.232015264338E+04    0.11712E-04   -0.20647E-05  2924   0.333E-03    0.884E-03
RMM:  10    -0.232015264280E+04    0.58142E-06   -0.77684E-06  2838   0.252E-03
   7 F= -.23415672E+04 E0= -.23415672E+04  d E =-.559089E-06  mag=     4.0000
       N       E                     dE             d eps       ncg     rms          rms(c)
DAV:   1    -0.232018241973E+04   -0.29776E-01   -0.68717E+00  4560   0.116E+00    0.613E-01
RMM:   2    -0.232019228130E+04   -0.98616E-02   -0.13025E-01  5046   0.153E-01    0.444E-01
RMM:   3    -0.232019063941E+04    0.16419E-02   -0.13132E-02  5259   0.600E-02    0.422E-01
RMM:   4    -0.232018852459E+04    0.21148E-02   -0.28145E-03  5174   0.250E-02    0.190E-01
RMM:   5    -0.232018833201E+04    0.19258E-03   -0.15207E-03  4300   0.159E-02    0.975E-02
RMM:   6    -0.232018841195E+04   -0.79937E-04   -0.56753E-04  3592   0.125E-02    0.119E-01
RMM:   7    -0.232018823950E+04    0.17245E-03   -0.15529E-04  3170   0.716E-03    0.333E-02
RMM:   8    -0.232018823510E+04    0.44004E-05   -0.36872E-05  2818   0.356E-03
   8 F= -.23416028E+04 E0= -.23416028E+04  d E =-.129812E-05  mag=     4.0000
       N       E                     dE             d eps       ncg     rms          rms(c)
DAV:   1    -0.232018293601E+04    0.53035E-02   -0.20145E+01  4480   0.180E+00    0.127E+00
RMM:   2    -0.232019270976E+04   -0.97737E-02   -0.34774E-01  4748   0.207E-01    0.857E-01
RMM:   3    -0.232018175062E+04    0.10959E-01   -0.36995E-02  5176   0.104E-01    0.548E-01
RMM:   4    -0.232017999631E+04    0.17543E-02   -0.95732E-03  5851   0.396E-02    0.401E-01
RMM:   5    -0.232017860502E+04    0.13913E-02   -0.40955E-03  5086   0.268E-02    0.179E-01
RMM:   6    -0.232017889241E+04   -0.28739E-03   -0.16857E-03  4496   0.207E-02    0.224E-01
RMM:   7    -0.232017835471E+04    0.53770E-03   -0.45776E-04  3440   0.102E-02    0.338E-02
RMM:   8    -0.232017833897E+04    0.15743E-04   -0.60322E-05  3023   0.447E-03    0.287E-02
RMM:   9    -0.232017833253E+04    0.64405E-05   -0.27336E-05  2848   0.331E-03
   9 F= -.23415943E+04 E0= -.23415943E+04  d E =-.179531E-05  mag=     4.0000
       N       E                     dE             d eps       ncg     rms          rms(c)
DAV:   1    -0.232023764768E+04   -0.59309E-01   -0.99727E+00  4560   0.120E+00    0.864E-01
RMM:   2    -0.232024884738E+04   -0.11200E-01   -0.21043E-01  4629   0.143E-01    0.661E-01
RMM:   3    -0.232024233115E+04    0.65162E-02   -0.20900E-02  4419   0.802E-02    0.394E-01
RMM:   4    -0.232024147024E+04    0.86091E-03   -0.46132E-03  5166   0.264E-02    0.285E-01
RMM:   5    -0.232024078256E+04    0.68768E-03   -0.29030E-03  4801   0.209E-02    0.128E-01
RMM:   6    -0.232024086966E+04   -0.87100E-04   -0.94566E-04  4333   0.160E-02    0.143E-01
RMM:   7    -0.232024061421E+04    0.25545E-03   -0.24429E-04  3271   0.794E-03    0.289E-02
RMM:   8    -0.232024060468E+04    0.95278E-05   -0.45596E-05  2942   0.382E-03
  10 F= -.23416553E+04 E0= -.23416553E+04  d E =-.234723E-05  mag=     4.0000
       N       E                     dE             d eps       ncg     rms          rms(c)
DAV:   1    -0.232015593405E+04    0.84680E-01   -0.20288E+01  4480   0.148E+00    0.565E-01
RMM:   2    -0.232017037533E+04   -0.14441E-01   -0.17728E-01  4237   0.133E-01    0.369E-01
RMM:   3    -0.232017138292E+04   -0.10076E-02   -0.14928E-02  4165   0.587E-02    0.494E-01
RMM:   4    -0.232016924428E+04    0.21386E-02   -0.48023E-03  4902   0.263E-02    0.201E-01
RMM:   5    -0.232016880724E+04    0.43705E-03   -0.12089E-03  4430   0.150E-02    0.820E-02
RMM:   6    -0.232016887289E+04   -0.65653E-04   -0.40917E-04  3837   0.103E-02    0.990E-02
RMM:   7    -0.232016874279E+04    0.13010E-03   -0.13960E-04  3276   0.722E-03    0.230E-02
RMM:   8    -0.232016874179E+04    0.99441E-06   -0.23261E-05  2897   0.332E-03
  11 F= -.23415845E+04 E0= -.23415845E+04  d E =-.105547E-05  mag=     4.0000
       N       E                     dE             d eps       ncg     rms          rms(c)
DAV:   1    -0.232019494659E+04   -0.26204E-01   -0.98978E+00  4500   0.105E+00    0.446E-01
RMM:   2    -0.232020495838E+04   -0.10012E-01   -0.12405E-01  4376   0.106E-01    0.371E-01
RMM:   3    -0.232020370084E+04    0.12575E-02   -0.98004E-03  3956   0.477E-02    0.278E-01
RMM:   4    -0.232020326923E+04    0.43160E-03   -0.23674E-03  4487   0.183E-02    0.209E-01
RMM:   5    -0.232020264305E+04    0.62618E-03   -0.13332E-03  4527   0.153E-02    0.660E-02
RMM:   6    -0.232020271353E+04   -0.70477E-04   -0.40435E-04  3808   0.114E-02    0.102E-01
RMM:   7    -0.232020257441E+04    0.13912E-03   -0.11663E-04  3059   0.651E-03    0.206E-02
RMM:   8    -0.232020256934E+04    0.50720E-05   -0.17784E-05  2864   0.304E-03
  12 F= -.23416165E+04 E0= -.23416165E+04  d E =-.233143E-05  mag=     4.0000
       N       E                     dE             d eps       ncg     rms          rms(c)
DAV:   1    -0.232018811462E+04    0.14460E-01   -0.19950E+01  4480   0.150E+00    0.627E-01
RMM:   2    -0.232020853006E+04   -0.20415E-01   -0.24358E-01  4659   0.141E-01    0.433E-01
RMM:   3    -0.232020813094E+04    0.39913E-03   -0.20012E-02  4925   0.617E-02    0.382E-01
RMM:   4    -0.232020693455E+04    0.11964E-02   -0.50849E-03  5560   0.292E-02    0.269E-01
RMM:   5    -0.232020587717E+04    0.10574E-02   -0.12937E-03  4974   0.162E-02    0.129E-01
RMM:   6    -0.232020597494E+04   -0.97771E-04   -0.80234E-04  4018   0.138E-02    0.170E-01
RMM:   7    -0.232020565524E+04    0.31970E-03   -0.31207E-04  3513   0.883E-03    0.245E-02
RMM:   8    -0.232020565284E+04    0.23950E-05   -0.57840E-05  3064   0.538E-03
  13 F= -.23416220E+04 E0= -.23416220E+04  d E =-.109125E-05  mag=     4.0000
       N       E                     dE             d eps       ncg     rms          rms(c)
DAV:   1    -0.232019669116E+04    0.89641E-02   -0.53097E+00  4540   0.827E-01    0.439E-01
RMM:   2    -0.232020211054E+04   -0.54194E-02   -0.77618E-02  4643   0.881E-02    0.328E-01
RMM:   3    -0.232020110162E+04    0.10089E-02   -0.60082E-03  4565   0.389E-02    0.242E-01
RMM:   4    -0.232020078855E+04    0.31307E-03   -0.20010E-03  4881   0.194E-02    0.199E-01
RMM:   5    -0.232020020053E+04    0.58802E-03   -0.60232E-04  4389   0.119E-02    0.427E-02
RMM:   6    -0.232020020780E+04   -0.72655E-05   -0.17447E-04  3242   0.718E-03    0.409E-02
RMM:   7    -0.232020018705E+04    0.20745E-04   -0.40852E-05  2941   0.443E-03    0.164E-02
RMM:   8    -0.232020018361E+04    0.34445E-05   -0.75237E-06  2750   0.242E-03
  14 F= -.23416159E+04 E0= -.23416159E+04  d E =-.142960E-05  mag=     4.0000
       N       E                     dE             d eps       ncg     rms          rms(c)
DAV:   1    -0.232019917117E+04    0.10159E-02   -0.12754E+00  4860   0.528E-01    0.586E-01
RMM:   2    -0.232019550857E+04    0.36626E-02   -0.23434E-02  4779   0.753E-02    0.390E-01
RMM:   3    -0.232019519916E+04    0.30941E-03   -0.58138E-03  4861   0.442E-02    0.408E-01
RMM:   4    -0.232019409474E+04    0.11044E-02   -0.30982E-03  4968   0.227E-02    0.279E-01
RMM:   5    -0.232019347103E+04    0.62370E-03   -0.12006E-03  4085   0.152E-02    0.139E-01
RMM:   6    -0.232019331235E+04    0.15868E-03   -0.42575E-04  3366   0.109E-02    0.737E-02
RMM:   7    -0.232019325198E+04    0.60374E-04   -0.82513E-05  3016   0.532E-03    0.176E-02
RMM:   8    -0.232019325384E+04   -0.18671E-05   -0.24268E-05  2647   0.317E-03
  15 F= -.23416080E+04 E0= -.23416080E+04  d E =-.195242E-05  mag=     4.0000
       N       E                     dE             d eps       ncg     rms          rms(c)
DAV:   1    -0.232019737666E+04   -0.41247E-02   -0.60463E-01  4540   0.365E-01    0.320E-01
RMM:   2    -0.232019689137E+04    0.48530E-03   -0.46479E-03  4201   0.366E-02    0.200E-01
RMM:   3    -0.232019720385E+04   -0.31249E-03   -0.17861E-03  4560   0.220E-02    0.231E-01
RMM:   4    -0.232019671178E+04    0.49207E-03   -0.10771E-03  4395   0.156E-02    0.122E-01
RMM:   5    -0.232019651761E+04    0.19417E-03   -0.20585E-04  3403   0.773E-03    0.247E-02
RMM:   6    -0.232019652218E+04   -0.45729E-05   -0.37943E-05  2731   0.395E-03
  16 F= -.23416113E+04 E0= -.23416113E+04  d E =-.142656E-05  mag=     4.0000
       N       E                     dE             d eps       ncg     rms          rms(c)
DAV:   1    -0.232021220749E+04   -0.15690E-01   -0.11863E+00  4600   0.515E-01    0.434E-01
RMM:   2    -0.232021125274E+04    0.95474E-03   -0.99660E-03  4765   0.559E-02    0.276E-01
RMM:   3    -0.232021206246E+04   -0.80971E-03   -0.36621E-03  5107   0.304E-02    0.339E-01
RMM:   4    -0.232021081313E+04    0.12493E-02   -0.17863E-03  4903   0.204E-02    0.167E-01
RMM:   5    -0.232021067203E+04    0.14111E-03   -0.64440E-04  3670   0.109E-02    0.130E-01
RMM:   6    -0.232021051014E+04    0.16188E-03   -0.18963E-04  3066   0.767E-03    0.276E-02
RMM:   7    -0.232021050118E+04    0.89646E-05   -0.30726E-05  2790   0.321E-03
  17 F= -.23416262E+04 E0= -.23416262E+04  d E =-.161348E-05  mag=     4.0000
       N       E                     dE             d eps       ncg     rms          rms(c)
DAV:   1    -0.232019595354E+04    0.14557E-01   -0.62180E-01  4680   0.372E-01    0.343E-01
RMM:   2    -0.232019502943E+04    0.92411E-03   -0.76853E-03  4489   0.444E-02    0.220E-01
RMM:   3    -0.232019515365E+04   -0.12422E-03   -0.18962E-03  4336   0.251E-02    0.238E-01
RMM:   4    -0.232019468951E+04    0.46414E-03   -0.10748E-03  4448   0.151E-02    0.137E-01
RMM:   5    -0.232019453050E+04    0.15902E-03   -0.33154E-04  3464   0.892E-03    0.715E-02
RMM:   6    -0.232019449126E+04    0.39234E-04   -0.86650E-05  2813   0.558E-03    0.355E-02
RMM:   7    -0.232019447972E+04    0.11538E-04   -0.22110E-05  2642   0.276E-03    0.123E-02
RMM:   8    -0.232019447973E+04   -0.11933E-08   -0.81159E-06  2378   0.213E-03
  18 F= -.23416101E+04 E0= -.23416101E+04  d E =-.145040E-05  mag=     4.0000
       N       E                     dE             d eps       ncg     rms          rms(c)
DAV:   1    -0.232020813833E+04   -0.13659E-01   -0.12151E+00  4660   0.520E-01    0.416E-01
RMM:   2    -0.232020756856E+04    0.56977E-03   -0.11566E-02  4544   0.576E-02    0.274E-01
RMM:   3    -0.232020824794E+04   -0.67939E-03   -0.33335E-03  5011   0.315E-02    0.321E-01
RMM:   4    -0.232020711428E+04    0.11337E-02   -0.17423E-03  5054   0.205E-02    0.133E-01
RMM:   5    -0.232020697677E+04    0.13750E-03   -0.41657E-04  3951   0.999E-03    0.760E-02
RMM:   6    -0.232020692954E+04    0.47233E-04   -0.10278E-04  2906   0.586E-03    0.359E-02
RMM:   7    -0.232020691964E+04    0.99034E-05   -0.25319E-05  2737   0.303E-03
  19 F= -.23416218E+04 E0= -.23416218E+04  d E =-.180266E-05  mag=     4.0000
       N       E                     dE             d eps       ncg     rms          rms(c)
DAV:   1    -0.232016317762E+04    0.43752E-01   -0.63644E-01  4860   0.393E-01    0.518E-01
RMM:   2    -0.232016271043E+04    0.46720E-03   -0.32894E-02  4466   0.663E-02    0.441E-01
RMM:   3    -0.232016057231E+04    0.21381E-02   -0.52908E-03  4555   0.412E-02    0.268E-01
RMM:   4    -0.232016036510E+04    0.20721E-03   -0.18982E-03  4839   0.194E-02    0.226E-01
RMM:   5    -0.232016001422E+04    0.35089E-03   -0.73959E-04  4146   0.128E-02    0.119E-01
RMM:   6    -0.232015989064E+04    0.12358E-03   -0.29158E-04  3237   0.888E-03    0.561E-02
RMM:   7    -0.232015985370E+04    0.36934E-04   -0.40777E-05  2935   0.405E-03    0.106E-02
RMM:   8    -0.232015985276E+04    0.94206E-06   -0.84436E-06  2599   0.221E-03
  20 F= -.23415747E+04 E0= -.23415747E+04  d E =-.149755E-05  mag=     4.0000
       N       E                     dE             d eps       ncg     rms          rms(c)
DAV:   1    -0.232022146910E+04   -0.61615E-01   -0.12919E+00  5080   0.488E-01    0.102E+00
RMM:   2    -0.232022081829E+04    0.65081E-03   -0.15002E-01  4877   0.115E-01    0.890E-01
RMM:   3    -0.232020882650E+04    0.11992E-01   -0.20892E-02  5052   0.817E-02    0.429E-01
RMM:   4    -0.232020878131E+04    0.45196E-04   -0.67055E-03  5542   0.324E-02    0.391E-01
RMM:   5    -0.232020773449E+04    0.10468E-02   -0.24620E-03  4827   0.221E-02    0.191E-01
RMM:   6    -0.232020759435E+04    0.14014E-03   -0.10190E-03  4075   0.160E-02    0.160E-01
RMM:   7    -0.232020727605E+04    0.31830E-03   -0.27008E-04  3486   0.821E-03    0.360E-02
RMM:   8    -0.232020726173E+04    0.14318E-04   -0.73172E-05  3025   0.412E-03    0.163E-02
RMM:   9    -0.232020725951E+04    0.22171E-05   -0.14678E-05  2660   0.295E-03
  21 F= -.23416229E+04 E0= -.23416229E+04  d E =-.171225E-05  mag=     4.0000
       N       E                     dE             d eps       ncg     rms          rms(c)
DAV:   1    -0.232019512634E+04    0.12135E-01   -0.62222E-01  4960   0.347E-01    0.604E-01
RMM:   2    -0.232019428202E+04    0.84432E-03   -0.49979E-02  4336   0.684E-02    0.505E-01
RMM:   3    -0.232019078197E+04    0.35000E-02   -0.66211E-03  4246   0.457E-02    0.247E-01
RMM:   4    -0.232019106269E+04   -0.28072E-03   -0.22626E-03  4804   0.194E-02    0.273E-01
RMM:   5    -0.232019043494E+04    0.62774E-03   -0.79819E-04  4155   0.142E-02    0.961E-02
RMM:   6    -0.232019041304E+04    0.21903E-04   -0.31114E-04  3378   0.933E-03    0.836E-02
RMM:   7    -0.232019032657E+04    0.86471E-04   -0.64955E-05  2952   0.505E-03    0.142E-02
RMM:   8    -0.232019032447E+04    0.21048E-05   -0.13960E-05  2624   0.232E-03
  22 F= -.23416054E+04 E0= -.23416054E+04  d E =-.168592E-05  mag=     4.0000
       N       E                     dE             d eps       ncg     rms          rms(c)
DAV:   1    -0.232021699851E+04   -0.26672E-01   -0.11352E+00  4580   0.447E-01    0.413E-01
RMM:   2    -0.232021812961E+04   -0.11311E-02   -0.19866E-02  4217   0.486E-02    0.295E-01
RMM:   3    -0.232021745870E+04    0.67091E-03   -0.22361E-03  3932   0.265E-02    0.178E-01
RMM:   4    -0.232021836728E+04   -0.90858E-03   -0.17095E-03  4417   0.163E-02    0.288E-01
RMM:   5    -0.232021763508E+04    0.73220E-03   -0.65261E-04  3922   0.129E-02    0.570E-02
RMM:   6    -0.232021761928E+04    0.15809E-04   -0.12888E-04  3115   0.644E-03    0.459E-02
RMM:   7    -0.232021759350E+04    0.25775E-04   -0.34071E-05  2857   0.398E-03    0.111E-02
RMM:   8    -0.232021759430E+04   -0.79841E-06   -0.10366E-05  2719   0.216E-03
  23 F= -.23416330E+04 E0= -.23416330E+04  d E =-.150790E-05  mag=     4.0000
       N       E                     dE             d eps       ncg     rms          rms(c)
DAV:   1    -0.232019880125E+04    0.18792E-01   -0.56475E-01  4500   0.314E-01    0.241E-01
RMM:   2    -0.232019938025E+04   -0.57900E-03   -0.54671E-03  3716   0.291E-02    0.155E-01
RMM:   3    -0.232019945658E+04   -0.76326E-04   -0.67725E-04  3316   0.152E-02    0.104E-01
RMM:   4    -0.232019967508E+04   -0.21851E-03   -0.45919E-04  3371   0.971E-03    0.139E-01
RMM:   5    -0.232019949019E+04    0.18489E-03   -0.15190E-04  2919   0.713E-03    0.215E-02
RMM:   6    -0.232019949076E+04   -0.56643E-06   -0.28535E-05  2813   0.341E-03
  24 F= -.23416148E+04 E0= -.23416148E+04  d E =-.164543E-05  mag=     4.0000
       N       E                     dE             d eps       ncg     rms          rms(c)
DAV:   1    -0.232020987405E+04   -0.10384E-01   -0.11275E+00  4500   0.445E-01    0.323E-01
RMM:   2    -0.232021125254E+04   -0.13785E-02   -0.10066E-02  3887   0.398E-02    0.199E-01
RMM:   3    -0.232021198697E+04   -0.73443E-03   -0.14001E-03  3915   0.227E-02    0.209E-01
RMM:   4    -0.232021177060E+04    0.21638E-03   -0.96337E-04  4444   0.149E-02    0.131E-01
RMM:   5    -0.232021160693E+04    0.16367E-03   -0.21951E-04  3344   0.809E-03    0.386E-02
RMM:   6    -0.232021160183E+04    0.51024E-05   -0.49034E-05  2879   0.477E-03
  25 F= -.23416267E+04 E0= -.23416267E+04  d E =-.161164E-05  mag=     4.0000
