       N       E                     dE             d eps       ncg     rms          rms(c)
DAV:   1     0.129128843769E+05    0.12913E+05   -0.83641E+05  4496   0.144E+03
DAV:   2    -0.104273332310E+04   -0.13956E+05   -0.13348E+05  5104   0.331E+02
DAV:   3    -0.246751224342E+04   -0.14248E+04   -0.14094E+04  5400   0.112E+02
DAV:   4    -0.251291792339E+04   -0.45406E+02   -0.45148E+02  6720   0.298E+01
DAV:   5    -0.251377937798E+04   -0.86145E+00   -0.85992E+00  6008   0.345E+00    0.170E+02
RMM:   6    -0.149044729147E+04    0.10233E+04   -0.19243E+03  4434   0.383E+01    0.725E+01
RMM:   7    -0.165975930057E+04   -0.16931E+03   -0.30044E+02  5014   0.141E+01    0.496E+01
RMM:   8    -0.171087187819E+04   -0.51113E+02   -0.49661E+01  5265   0.730E+00    0.416E+01
RMM:   9    -0.179821097492E+04   -0.87339E+02   -0.66872E+01  5017   0.760E+00    0.374E+01
RMM:  10    -0.191348400815E+04   -0.11527E+03   -0.61879E+01  5215   0.741E+00    0.268E+01
RMM:  11    -0.196250312532E+04   -0.49019E+02   -0.21325E+01  5280   0.400E+00    0.238E+01
RMM:  12    -0.204874219014E+04   -0.86239E+02   -0.32054E+01  4681   0.438E+00    0.153E+01
RMM:  13    -0.215246429933E+04   -0.10372E+03   -0.59527E+01  4602   0.590E+00    0.122E+01
RMM:  14    -0.222742207771E+04   -0.74958E+02   -0.50505E+01  4829   0.550E+00    0.917E+00
RMM:  15    -0.227859852767E+04   -0.51176E+02   -0.43746E+01  4633   0.475E+00    0.548E+00
RMM:  16    -0.229793212372E+04   -0.19334E+02   -0.20183E+01  4858   0.340E+00    0.294E+00
RMM:  17    -0.230319808719E+04   -0.52660E+01   -0.54435E+00  4958   0.160E+00    0.206E+00
RMM:  18    -0.230526499335E+04   -0.20669E+01   -0.12556E+00  5206   0.832E-01    0.149E+00
RMM:  19    -0.230560788084E+04   -0.34289E+00   -0.23334E-01  5087   0.353E-01    0.160E+00
RMM:  20    -0.230562696517E+04   -0.19084E-01   -0.31691E-02  5656   0.126E-01    0.161E+00
RMM:  21    -0.230558217884E+04    0.44786E-01   -0.18299E-02  4642   0.893E-02    0.955E-01
RMM:  22    -0.230577591358E+04   -0.19373E+00   -0.56261E-02  4419   0.168E-01    0.800E-01
RMM:  23    -0.230581466495E+04   -0.38751E-01   -0.39413E-02  4494   0.145E-01    0.135E+00
RMM:  24    -0.230580786983E+04    0.67951E-02   -0.76764E-03  5225   0.613E-02    0.155E+00
RMM:  25    -0.230589144208E+04   -0.83572E-01   -0.55918E-02  4440   0.135E-01    0.106E+00
RMM:  26    -0.230591963401E+04   -0.28192E-01   -0.16911E-02  4628   0.966E-02    0.130E+00
RMM:  27    -0.230594660489E+04   -0.26971E-01   -0.32195E-02  5054   0.102E-01    0.216E+00
RMM:  28    -0.230594862601E+04   -0.20211E-02   -0.39699E-03  4931   0.578E-02    0.212E+00
RMM:  29    -0.230594955322E+04   -0.92721E-03   -0.11365E-03  4644   0.165E-02    0.215E+00
RMM:  30    -0.230594954977E+04    0.34461E-05   -0.80774E-05  3190   0.101E-02
   1 F= -.23267374E+04 E0= -.23267260E+04  d E =-.232674E+04  mag=     6.4278
       N       E                     dE             d eps       ncg     rms          rms(c)
DAV:   1    -0.230554107150E+04    0.40848E+00   -0.38285E+02  4752   0.135E+01    0.556E+00
RMM:   2    -0.230800119705E+04   -0.24601E+01   -0.25550E+01  6017   0.310E+00    0.546E+00
RMM:   3    -0.230777297824E+04    0.22822E+00   -0.19054E+00  5763   0.127E+00    0.438E+00
RMM:   4    -0.230757408840E+04    0.19889E+00   -0.32982E-01  6145   0.345E-01    0.241E+00
RMM:   5    -0.230761410270E+04   -0.40014E-01   -0.13994E-01  5642   0.190E-01    0.311E+00
RMM:   6    -0.230754987467E+04    0.64228E-01   -0.10446E-01  5798   0.157E-01    0.107E+00
RMM:   7    -0.230758145029E+04   -0.31576E-01   -0.44268E-02  5140   0.107E-01    0.411E-01
RMM:   8    -0.230762331830E+04   -0.41868E-01   -0.88180E-03  4666   0.630E-02    0.277E-01
RMM:   9    -0.230764776067E+04   -0.24442E-01   -0.39562E-03  4751   0.375E-02    0.198E-01
RMM:  10    -0.230767085197E+04   -0.23091E-01   -0.26915E-03  4493   0.320E-02    0.118E-01
RMM:  11    -0.230768739024E+04   -0.16538E-01   -0.21219E-03  4478   0.302E-02    0.105E-01
RMM:  12    -0.230769560425E+04   -0.82140E-02   -0.11899E-03  4399   0.231E-02    0.627E-02
RMM:  13    -0.230770304922E+04   -0.74450E-02   -0.12070E-03  4218   0.208E-02    0.431E-02
RMM:  14    -0.230770659194E+04   -0.35427E-02   -0.73233E-04  4249   0.181E-02    0.307E-02
RMM:  15    -0.230770767902E+04   -0.10871E-02   -0.29409E-04  4187   0.104E-02    0.103E-02
RMM:  16    -0.230770798878E+04   -0.30976E-03   -0.59898E-05  3586   0.587E-03    0.625E-03
RMM:  17    -0.230770810693E+04   -0.11815E-03   -0.17332E-05  2977   0.373E-03    0.326E-03
RMM:  18    -0.230770815877E+04   -0.51840E-04   -0.97407E-06  2818   0.318E-03    0.221E-03
RMM:  19    -0.230770817004E+04   -0.11272E-04   -0.47143E-06  2713   0.266E-03    0.941E-04
RMM:  20    -0.230770817236E+04   -0.23236E-05   -0.24373E-06  2449   0.190E-03
   2 F= -.23285060E+04 E0= -.23285060E+04  d E =-.176865E+01  mag=     5.0001
       N       E                     dE             d eps       ncg     rms          rms(c)
DAV:   1    -0.230770818376E+04   -0.13721E-04   -0.37331E-01  5120   0.433E-01    0.123E-01
RMM:   2    -0.230770926127E+04   -0.10775E-02   -0.13196E-02  6245   0.750E-02    0.113E-01
RMM:   3    -0.230770920971E+04    0.51560E-04   -0.10650E-03  4069   0.264E-02    0.110E-01
RMM:   4    -0.230770912048E+04    0.89227E-04   -0.16926E-04  3189   0.839E-03    0.562E-02
RMM:   5    -0.230770911542E+04    0.50555E-05   -0.99368E-05  3083   0.648E-03
   3 F= -.23285066E+04 E0= -.23285066E+04  d E =-.176920E+01  mag=     5.0001
       N       E                     dE             d eps       ncg     rms          rms(c)
DAV:   1    -0.230754444966E+04    0.16467E+00   -0.59875E+01  4488   0.624E+00    0.207E+00
RMM:   2    -0.230825653582E+04   -0.71209E+00   -0.71804E+00  6525   0.157E+00    0.219E+00
RMM:   3    -0.230824438318E+04    0.12153E-01   -0.65753E-01  5435   0.512E-01    0.117E+00
RMM:   4    -0.230823683872E+04    0.75445E-02   -0.72981E-02  5689   0.110E-01    0.773E-01
RMM:   5    -0.230823568538E+04    0.11533E-02   -0.12616E-02  5500   0.569E-02    0.811E-01
RMM:   6    -0.230823009542E+04    0.55900E-02   -0.12066E-02  5303   0.549E-02    0.314E-01
RMM:   7    -0.230822954314E+04    0.55229E-03   -0.40298E-03  5164   0.426E-02    0.114E-01
RMM:   8    -0.230822948019E+04    0.62951E-04   -0.47965E-04  4419   0.168E-02    0.592E-02
RMM:   9    -0.230822947140E+04    0.87878E-05   -0.18595E-04  3753   0.887E-03    0.360E-02
RMM:  10    -0.230822948365E+04   -0.12251E-04   -0.63620E-05  3024   0.683E-03    0.131E-02
RMM:  11    -0.230822949741E+04   -0.13766E-04   -0.14124E-05  2898   0.378E-03    0.812E-03
RMM:  12    -0.230822950951E+04   -0.12092E-04   -0.56702E-06  2833   0.282E-03    0.477E-03
RMM:  13    -0.230822951608E+04   -0.65773E-05   -0.31519E-06  2795   0.235E-03
   4 F= -.23290325E+04 E0= -.23290325E+04  d E =-.525881E+00  mag=     5.0000
       N       E                     dE             d eps       ncg     rms          rms(c)
DAV:   1    -0.230811314326E+04    0.11637E+00   -0.16647E+01  4512   0.335E+00    0.103E+00
RMM:   2    -0.230829863463E+04   -0.18549E+00   -0.19373E+00  6476   0.814E-01    0.815E-01
RMM:   3    -0.230830726893E+04   -0.86343E-02   -0.18638E-01  5616   0.280E-01    0.621E-01
RMM:   4    -0.230830526595E+04    0.20030E-02   -0.18664E-02  5986   0.562E-02    0.402E-01
RMM:   5    -0.230830500482E+04    0.26113E-03   -0.41031E-03  5501   0.298E-02    0.447E-01
RMM:   6    -0.230830321422E+04    0.17906E-02   -0.37538E-03  5591   0.312E-02    0.130E-01
RMM:   7    -0.230830319995E+04    0.14276E-04   -0.72604E-04  4654   0.169E-02    0.658E-02
RMM:   8    -0.230830316822E+04    0.31726E-04   -0.10357E-04  3263   0.854E-03    0.295E-02
RMM:   9    -0.230830315675E+04    0.11472E-04   -0.58677E-05  2984   0.593E-03    0.114E-02
RMM:  10    -0.230830315972E+04   -0.29721E-05   -0.13379E-05  2916   0.355E-03
   5 F= -.23291088E+04 E0= -.23291088E+04  d E =-.602192E+00  mag=     5.0000
       N       E                     dE             d eps       ncg     rms          rms(c)
DAV:   1    -0.230824025913E+04    0.62898E-01   -0.17773E+01  4488   0.392E+00    0.120E+00
RMM:   2    -0.230841532178E+04   -0.17506E+00   -0.18691E+00  6272   0.795E-01    0.787E-01
RMM:   3    -0.230842994434E+04   -0.14623E-01   -0.21680E-01  5922   0.324E-01    0.779E-01
RMM:   4    -0.230842488208E+04    0.50623E-02   -0.19929E-02  6349   0.732E-02    0.328E-01
RMM:   5    -0.230842380619E+04    0.10759E-02   -0.60477E-03  5164   0.419E-02    0.348E-01
RMM:   6    -0.230842316129E+04    0.64489E-03   -0.26764E-03  5359   0.308E-02    0.258E-01
RMM:   7    -0.230842268467E+04    0.47663E-03   -0.94994E-04  5053   0.192E-02    0.703E-02
RMM:   8    -0.230842264824E+04    0.36425E-04   -0.13518E-04  3549   0.115E-02    0.296E-02
RMM:   9    -0.230842264145E+04    0.67899E-05   -0.64807E-05  3197   0.583E-03
   6 F= -.23292284E+04 E0= -.23292284E+04  d E =-.119610E+00  mag=     5.0000
       N       E                     dE             d eps       ncg     rms          rms(c)
DAV:   1    -0.230835607739E+04    0.66571E-01   -0.90654E+00  4512   0.280E+00    0.849E-01
RMM:   2    -0.230844486540E+04   -0.88788E-01   -0.94476E-01  6313   0.566E-01    0.566E-01
RMM:   3    -0.230845181407E+04   -0.69487E-02   -0.10511E-01  5933   0.224E-01    0.555E-01
RMM:   4    -0.230844926879E+04    0.25453E-02   -0.10248E-02  6201   0.520E-02    0.229E-01
RMM:   5    -0.230844848085E+04    0.78795E-03   -0.29134E-03  5012   0.305E-02    0.192E-01
RMM:   6    -0.230844847046E+04    0.10390E-04   -0.12594E-03  4862   0.230E-02    0.219E-01
RMM:   7    -0.230844813047E+04    0.33998E-03   -0.49741E-04  4725   0.134E-02    0.505E-02
RMM:   8    -0.230844810856E+04    0.21914E-04   -0.75870E-05  3128   0.851E-03    0.204E-02
RMM:   9    -0.230844810526E+04    0.32965E-05   -0.32629E-05  2949   0.455E-03
   7 F= -.23292540E+04 E0= -.23292540E+04  d E =-.145192E+00  mag=     5.0000
       N       E                     dE             d eps       ncg     rms          rms(c)
DAV:   1    -0.230840315676E+04    0.44952E-01   -0.95084E+00  4480   0.274E+00    0.837E-01
RMM:   2    -0.230852387194E+04   -0.12072E+00   -0.12691E+00  6502   0.633E-01    0.698E-01
RMM:   3    -0.230853413617E+04   -0.10264E-01   -0.14699E-01  6092   0.230E-01    0.678E-01
RMM:   4    -0.230853102106E+04    0.31151E-02   -0.14293E-02  6094   0.507E-02    0.263E-01
RMM:   5    -0.230853048391E+04    0.53715E-03   -0.25717E-03  5327   0.252E-02    0.261E-01
RMM:   6    -0.230852989408E+04    0.58983E-03   -0.15744E-03  5415   0.201E-02    0.176E-01
RMM:   7    -0.230852962310E+04    0.27098E-03   -0.74512E-04  4905   0.162E-02    0.465E-02
RMM:   8    -0.230852960907E+04    0.14025E-04   -0.73430E-05  3199   0.913E-03    0.240E-02
RMM:   9    -0.230852960394E+04    0.51344E-05   -0.33527E-05  2909   0.474E-03
   8 F= -.23293352E+04 E0= -.23293352E+04  d E =-.812311E-01  mag=     5.0000
       N       E                     dE             d eps       ncg     rms          rms(c)
DAV:   1    -0.230830018734E+04    0.22942E+00   -0.20638E+01  4496   0.407E+00    0.124E+00
RMM:   2    -0.230856222884E+04   -0.26204E+00   -0.27485E+00  6463   0.909E-01    0.110E+00
RMM:   3    -0.230858651427E+04   -0.24285E-01   -0.33753E-01  5972   0.364E-01    0.109E+00
RMM:   4    -0.230857785602E+04    0.86582E-02   -0.31762E-02  6296   0.783E-02    0.379E-01
RMM:   5    -0.230857584255E+04    0.20135E-02   -0.54169E-03  5259   0.366E-02    0.260E-01
RMM:   6    -0.230857607535E+04   -0.23279E-03   -0.38906E-03  5721   0.321E-02    0.393E-01
RMM:   7    -0.230857479813E+04    0.12772E-02   -0.18431E-03  5504   0.238E-02    0.684E-02
RMM:   8    -0.230857476298E+04    0.35148E-04   -0.29578E-04  3889   0.948E-03    0.446E-02
RMM:   9    -0.230857473246E+04    0.30519E-04   -0.10458E-04  3013   0.791E-03    0.207E-02
RMM:  10    -0.230857472868E+04    0.37797E-05   -0.39008E-05  3000   0.482E-03
   9 F= -.23293800E+04 E0= -.23293800E+04  d E =-.126004E+00  mag=     5.0000
       N       E                     dE             d eps       ncg     rms          rms(c)
DAV:   1    -0.230856853547E+04    0.61970E-02   -0.28065E+00  4688   0.152E+00    0.463E-01
RMM:   2    -0.230860402228E+04   -0.35487E-01   -0.36850E-01  6429   0.342E-01    0.388E-01
RMM:   3    -0.230860683986E+04   -0.28176E-02   -0.40292E-02  6015   0.124E-01    0.341E-01
RMM:   4    -0.230860622245E+04    0.61742E-03   -0.49285E-03  5541   0.283E-02    0.179E-01
RMM:   5    -0.230860613626E+04    0.86187E-04   -0.83025E-04  5006   0.160E-02    0.172E-01
RMM:   6    -0.230860587509E+04    0.26117E-03   -0.64822E-04  4838   0.149E-02    0.704E-02
RMM:   7    -0.230860583660E+04    0.38484E-04   -0.15682E-04  4116   0.928E-03    0.218E-02
RMM:   8    -0.230860583416E+04    0.24401E-05   -0.20648E-05  2923   0.545E-03
  10 F= -.23294115E+04 E0= -.23294115E+04  d E =-.315605E-01  mag=     5.0000
       N       E                     dE             d eps       ncg     rms          rms(c)
DAV:   1    -0.230830803826E+04    0.29780E+00   -0.25305E+01  4464   0.454E+00    0.140E+00
RMM:   2    -0.230863237269E+04   -0.32433E+00   -0.33531E+00  6357   0.103E+00    0.125E+00
RMM:   3    -0.230865273745E+04   -0.20365E-01   -0.37432E-01  6057   0.400E-01    0.887E-01
RMM:   4    -0.230864936862E+04    0.33688E-02   -0.41913E-02  6004   0.847E-02    0.590E-01
RMM:   5    -0.230864810683E+04    0.12618E-02   -0.65893E-03  5775   0.430E-02    0.502E-01
RMM:   6    -0.230864574219E+04    0.23646E-02   -0.62495E-03  5346   0.459E-02    0.202E-01
RMM:   7    -0.230864544178E+04    0.30041E-03   -0.16911E-03  5368   0.285E-02    0.806E-02
RMM:   8    -0.230864537893E+04    0.62853E-04   -0.22670E-04  4173   0.124E-02    0.561E-02
RMM:   9    -0.230864534860E+04    0.30329E-04   -0.14956E-04  3278   0.932E-03    0.218E-02
RMM:  10    -0.230864534734E+04    0.12550E-05   -0.30077E-05  2966   0.474E-03
  11 F= -.23294525E+04 E0= -.23294525E+04  d E =-.725386E-01  mag=     5.0000
       N       E                     dE             d eps       ncg     rms          rms(c)
DAV:   1    -0.230864580722E+04   -0.45862E-03   -0.14866E+00  4752   0.110E+00    0.349E-01
RMM:   2    -0.230866698657E+04   -0.21179E-01   -0.21536E-01  6474   0.254E-01    0.358E-01
RMM:   3    -0.230866807706E+04   -0.10905E-02   -0.23046E-02  5971   0.940E-02    0.225E-01
RMM:   4    -0.230866782519E+04    0.25187E-03   -0.27840E-03  4893   0.207E-02    0.124E-01
RMM:   5    -0.230866780381E+04    0.21371E-04   -0.33944E-04  3571   0.101E-02    0.123E-01
RMM:   6    -0.230866766499E+04    0.13882E-03   -0.27498E-04  4096   0.108E-02    0.477E-02
RMM:   7    -0.230866765949E+04    0.55038E-05   -0.92076E-05  3367   0.768E-03
  12 F= -.23294753E+04 E0= -.23294753E+04  d E =-.228076E-01  mag=     5.0000
       N       E                     dE             d eps       ncg     rms          rms(c)
DAV:   1    -0.230852520102E+04    0.14246E+00   -0.13370E+01  4472   0.331E+00    0.107E+00
RMM:   2    -0.230872049682E+04   -0.19530E+00   -0.19724E+00  6433   0.758E-01    0.116E+00
RMM:   3    -0.230872560416E+04   -0.51073E-02   -0.20863E-01  6152   0.286E-01    0.598E-01
RMM:   4    -0.230872451824E+04    0.10859E-02   -0.24604E-02  5964   0.599E-02    0.409E-01
RMM:   5    -0.230872402483E+04    0.49340E-03   -0.29172E-03  5283   0.256E-02    0.345E-01
RMM:   6    -0.230872286958E+04    0.11553E-02   -0.24159E-03  5248   0.294E-02    0.136E-01
RMM:   7    -0.230872282198E+04    0.47601E-04   -0.89702E-04  4855   0.209E-02    0.405E-02
RMM:   8    -0.230872281510E+04    0.68731E-05   -0.74354E-05  3240   0.739E-03
  13 F= -.23295320E+04 E0= -.23295320E+04  d E =-.794850E-01  mag=     5.0000
       N       E                     dE             d eps       ncg     rms          rms(c)
DAV:   1    -0.230797307503E+04    0.74975E+00   -0.53438E+01  4464   0.662E+00    0.221E+00
RMM:   2    -0.230880053737E+04   -0.82746E+00   -0.82984E+00  6445   0.155E+00    0.247E+00
RMM:   3    -0.230878887676E+04    0.11661E-01   -0.80483E-01  6233   0.543E-01    0.995E-01
RMM:   4    -0.230878788515E+04    0.99162E-03   -0.95242E-02  5763   0.117E-01    0.825E-01
RMM:   5    -0.230878586539E+04    0.20198E-02   -0.11157E-02  5469   0.520E-02    0.677E-01
RMM:   6    -0.230878155089E+04    0.43145E-02   -0.91697E-03  5138   0.578E-02    0.293E-01
RMM:   7    -0.230878135690E+04    0.19399E-03   -0.42225E-03  4970   0.469E-02    0.152E-01
RMM:   8    -0.230878120226E+04    0.15464E-03   -0.49487E-04  4421   0.153E-02    0.519E-02
RMM:   9    -0.230878122576E+04   -0.23496E-04   -0.17192E-04  3697   0.949E-03    0.364E-02
RMM:  10    -0.230878124461E+04   -0.18851E-04   -0.54494E-05  2929   0.624E-03    0.117E-02
RMM:  11    -0.230878125997E+04   -0.15358E-04   -0.15469E-05  2891   0.396E-03    0.502E-03
RMM:  12    -0.230878126905E+04   -0.90824E-05   -0.58448E-06  2836   0.290E-03
  14 F= -.23295936E+04 E0= -.23295936E+04  d E =-.141099E+00  mag=     5.0000
       N       E                     dE             d eps       ncg     rms          rms(c)
DAV:   1    -0.230865857304E+04    0.12269E+00   -0.13102E+01  4472   0.320E+00    0.106E+00
RMM:   2    -0.230884543524E+04   -0.18686E+00   -0.18768E+00  6456   0.724E-01    0.116E+00
RMM:   3    -0.230884757383E+04   -0.21386E-02   -0.18858E-01  6213   0.266E-01    0.579E-01
RMM:   4    -0.230884638146E+04    0.11924E-02   -0.23093E-02  5739   0.586E-02    0.389E-01
RMM:   5    -0.230884599981E+04    0.38164E-03   -0.28266E-03  5096   0.264E-02    0.347E-01
RMM:   6    -0.230884482850E+04    0.11713E-02   -0.20603E-03  5114   0.276E-02    0.140E-01
RMM:   7    -0.230884478602E+04    0.42480E-04   -0.10259E-03  4784   0.227E-02    0.567E-02
RMM:   8    -0.230884478403E+04    0.19898E-05   -0.11363E-04  3457   0.762E-03    0.232E-02
RMM:   9    -0.230884480714E+04   -0.23107E-04   -0.45736E-05  2981   0.553E-03    0.122E-02
RMM:  10    -0.230884482407E+04   -0.16932E-04   -0.15823E-05  2886   0.366E-03    0.510E-03
RMM:  11    -0.230884483341E+04   -0.93382E-05   -0.48687E-06  2821   0.260E-03
  15 F= -.23296585E+04 E0= -.23296585E+04  d E =-.648828E-01  mag=     5.0000
       N       E                     dE             d eps       ncg     rms          rms(c)
DAV:   1    -0.230740612604E+04    0.14387E+01   -0.10119E+02  4464   0.884E+00    0.315E+00
RMM:   2    -0.230902366107E+04   -0.16175E+01   -0.15972E+01  6494   0.213E+00    0.372E+00
RMM:   3    -0.230893004905E+04    0.93612E-01   -0.14735E+00  6261   0.757E-01    0.127E+00
RMM:   4    -0.230892805541E+04    0.19936E-02   -0.17459E-01  5538   0.164E-01    0.105E+00
RMM:   5    -0.230892716126E+04    0.89416E-03   -0.21153E-02  5543   0.758E-02    0.102E+00
RMM:   6    -0.230891847129E+04    0.86900E-02   -0.13527E-02  5128   0.693E-02    0.477E-01
RMM:   7    -0.230891737817E+04    0.10931E-02   -0.10263E-02  5092   0.706E-02    0.248E-01
RMM:   8    -0.230891707055E+04    0.30762E-03   -0.13388E-03  5047   0.238E-02    0.725E-02
RMM:   9    -0.230891729839E+04   -0.22784E-03   -0.35577E-04  3996   0.127E-02    0.526E-02
RMM:  10    -0.230891747713E+04   -0.17874E-03   -0.15109E-04  3540   0.896E-03    0.231E-02
RMM:  11    -0.230891759374E+04   -0.11661E-03   -0.46557E-05  3195   0.543E-03    0.950E-03
RMM:  12    -0.230891767715E+04   -0.83408E-04   -0.18266E-05  2905   0.418E-03    0.526E-03
RMM:  13    -0.230891774897E+04   -0.71818E-04   -0.18680E-05  2903   0.372E-03    0.468E-03
RMM:  14    -0.230891778710E+04   -0.38129E-04   -0.11925E-05  2859   0.351E-03    0.289E-03
RMM:  15    -0.230891779754E+04   -0.10444E-04   -0.58740E-06  2718   0.278E-03    0.170E-03
RMM:  16    -0.230891780312E+04   -0.55767E-05   -0.35071E-06  2535   0.211E-03
  16 F= -.23297351E+04 E0= -.23297351E+04  d E =-.141504E+00  mag=     5.0000
       N       E                     dE             d eps       ncg     rms          rms(c)
DAV:   1    -0.230868114419E+04    0.23665E+00   -0.21089E+01  4464   0.394E+00    0.136E+00
RMM:   2    -0.230896726844E+04   -0.28612E+00   -0.28739E+00  6512   0.876E-01    0.148E+00
RMM:   3    -0.230897108029E+04   -0.38119E-02   -0.28063E-01  6342   0.304E-01    0.822E-01
RMM:   4    -0.230896855747E+04    0.25228E-02   -0.35662E-02  5889   0.712E-02    0.553E-01
RMM:   5    -0.230896705707E+04    0.15004E-02   -0.46553E-03  5477   0.316E-02    0.391E-01
RMM:   6    -0.230896557581E+04    0.14813E-02   -0.30222E-03  5093   0.331E-02    0.172E-01
RMM:   7    -0.230896552033E+04    0.55476E-04   -0.17249E-03  4917   0.279E-02    0.719E-02
RMM:   8    -0.230896551788E+04    0.24575E-05   -0.18628E-04  3865   0.922E-03    0.263E-02
RMM:   9    -0.230896555088E+04   -0.33009E-04   -0.59417E-05  3022   0.612E-03    0.149E-02
RMM:  10    -0.230896557464E+04   -0.23755E-04   -0.21175E-05  2900   0.399E-03    0.577E-03
RMM:  11    -0.230896558795E+04   -0.13312E-04   -0.70357E-06  2859   0.297E-03    0.412E-03
RMM:  12    -0.230896559516E+04   -0.72123E-05   -0.32279E-06  2767   0.210E-03
  17 F= -.23297846E+04 E0= -.23297846E+04  d E =-.495167E-01  mag=     5.0000
       N       E                     dE             d eps       ncg     rms          rms(c)
DAV:   1    -0.230790843741E+04    0.10572E+01   -0.78410E+01  4448   0.756E+00    0.271E+00
RMM:   2    -0.230902570028E+04   -0.11173E+01   -0.11234E+01  6516   0.175E+00    0.285E+00
RMM:   3    -0.230902566117E+04    0.39107E-04   -0.11009E+00  6314   0.621E-01    0.146E+00
RMM:   4    -0.230901856308E+04    0.70981E-02   -0.13160E-01  5917   0.141E-01    0.113E+00
RMM:   5    -0.230901254303E+04    0.60201E-02   -0.17370E-02  5715   0.614E-02    0.764E-01
RMM:   6    -0.230900732988E+04    0.52132E-02   -0.11188E-02  5159   0.620E-02    0.362E-01
RMM:   7    -0.230900687696E+04    0.45292E-03   -0.73995E-03  5205   0.560E-02    0.162E-01
RMM:   8    -0.230900682836E+04    0.48595E-04   -0.90344E-04  4865   0.193E-02    0.564E-02
RMM:   9    -0.230900697790E+04   -0.14953E-03   -0.23996E-04  3873   0.104E-02    0.409E-02
RMM:  10    -0.230900709390E+04   -0.11600E-03   -0.88572E-05  3181   0.728E-03    0.164E-02
RMM:  11    -0.230900717547E+04   -0.81570E-04   -0.30946E-05  2964   0.462E-03    0.972E-03
RMM:  12    -0.230900722473E+04   -0.49263E-04   -0.12411E-05  2864   0.376E-03    0.598E-03
RMM:  13    -0.230900726247E+04   -0.37737E-04   -0.11219E-05  2860   0.310E-03    0.342E-03
RMM:  14    -0.230900727813E+04   -0.15659E-04   -0.62536E-06  2802   0.284E-03    0.284E-03
RMM:  15    -0.230900728333E+04   -0.51971E-05   -0.33206E-06  2577   0.215E-03
  18 F= -.23298297E+04 E0= -.23298297E+04  d E =-.946424E-01  mag=     5.0000
       N       E                     dE             d eps       ncg     rms          rms(c)
DAV:   1    -0.230862222129E+04    0.38506E+00   -0.34119E+01  4448   0.483E+00    0.178E+00
RMM:   2    -0.230908388054E+04   -0.46166E+00   -0.46730E+00  6460   0.107E+00    0.185E+00
RMM:   3    -0.230910736378E+04   -0.23483E-01   -0.49432E-01  6288   0.388E-01    0.141E+00
RMM:   4    -0.230909677192E+04    0.10592E-01   -0.60909E-02  6108   0.963E-02    0.681E-01
RMM:   5    -0.230909425487E+04    0.25170E-02   -0.94224E-03  5806   0.432E-02    0.534E-01
RMM:   6    -0.230909154924E+04    0.27056E-02   -0.63207E-03  5311   0.458E-02    0.213E-01
RMM:   7    -0.230909148043E+04    0.68811E-04   -0.29179E-03  5057   0.329E-02    0.843E-02
RMM:   8    -0.230909149970E+04   -0.19267E-04   -0.27155E-04  4258   0.125E-02    0.362E-02
RMM:   9    -0.230909154075E+04   -0.41048E-04   -0.95372E-05  3170   0.771E-03    0.196E-02
RMM:  10    -0.230909156662E+04   -0.25876E-04   -0.30976E-05  2904   0.485E-03    0.772E-03
RMM:  11    -0.230909158291E+04   -0.16283E-04   -0.10824E-05  2875   0.354E-03    0.570E-03
RMM:  12    -0.230909159049E+04   -0.75853E-05   -0.41097E-06  2818   0.254E-03
  19 F= -.23299175E+04 E0= -.23299175E+04  d E =-.877542E-01  mag=     5.0000
       N       E                     dE             d eps       ncg     rms          rms(c)
DAV:   1    -0.230446608273E+04    0.46255E+01   -0.30058E+02  4432   0.145E+01    0.549E+00
RMM:   2    -0.230896986073E+04   -0.45038E+01   -0.46446E+01  6438   0.346E+00    0.470E+00
RMM:   3    -0.230936905677E+04   -0.39920E+00   -0.52166E+00  6218   0.126E+00    0.494E+00
RMM:   4    -0.230922295136E+04    0.14611E+00   -0.49159E-01  6315   0.277E-01    0.218E+00
RMM:   5    -0.230919949934E+04    0.23452E-01   -0.81399E-02  6033   0.124E-01    0.161E+00
RMM:   6    -0.230917648818E+04    0.23011E-01   -0.54369E-02  5518   0.122E-01    0.900E-01
RMM:   7    -0.230917065286E+04    0.58353E-02   -0.41443E-02  5194   0.113E-01    0.274E-01
RMM:   8    -0.230917110864E+04   -0.45578E-03   -0.47139E-03  5316   0.551E-02    0.170E-01
RMM:   9    -0.230917122396E+04   -0.11532E-03   -0.13185E-03  4725   0.227E-02    0.757E-02
RMM:  10    -0.230917145556E+04   -0.23160E-03   -0.49181E-04  4300   0.162E-02    0.358E-02
RMM:  11    -0.230917158391E+04   -0.12835E-03   -0.10276E-04  3495   0.756E-03    0.174E-02
RMM:  12    -0.230917167712E+04   -0.93209E-04   -0.31185E-05  2988   0.547E-03    0.938E-03
RMM:  13    -0.230917174803E+04   -0.70912E-04   -0.20732E-05  2938   0.399E-03    0.818E-03
RMM:  14    -0.230917178474E+04   -0.36712E-04   -0.10293E-05  2848   0.372E-03    0.454E-03
RMM:  15    -0.230917180885E+04   -0.24109E-04   -0.91914E-06  2835   0.303E-03    0.427E-03
RMM:  16    -0.230917181594E+04   -0.70907E-05   -0.40127E-06  2786   0.286E-03
  20 F= -.23300091E+04 E0= -.23300091E+04  d E =-.179326E+00  mag=     5.0000
       N       E                     dE             d eps       ncg     rms          rms(c)
DAV:   1    -0.230907009252E+04    0.10172E+00   -0.10539E+01  4560   0.260E+00    0.105E+00
RMM:   2    -0.230921817822E+04   -0.14809E+00   -0.14154E+00  6502   0.558E-01    0.161E+00
RMM:   3    -0.230921495213E+04    0.32261E-02   -0.14651E-01  6212   0.195E-01    0.867E-01
RMM:   4    -0.230921123777E+04    0.37144E-02   -0.19017E-02  5776   0.528E-02    0.337E-01
RMM:   5    -0.230921061754E+04    0.62024E-03   -0.27396E-03  5116   0.242E-02    0.291E-01
RMM:   6    -0.230920982807E+04    0.78946E-03   -0.18962E-03  5089   0.241E-02    0.133E-01
RMM:   7    -0.230920981025E+04    0.17827E-04   -0.82776E-04  4206   0.177E-02    0.537E-02
RMM:   8    -0.230920980198E+04    0.82647E-05   -0.85950E-05  3139   0.663E-03
  21 F= -.23300494E+04 E0= -.23300494E+04  d E =-.403572E-01  mag=     5.0000
       N       E                     dE             d eps       ncg     rms          rms(c)
DAV:   1    -0.230797069320E+04    0.12391E+01   -0.93980E+01  4464   0.778E+00    0.321E+00
RMM:   2    -0.230934419770E+04   -0.13735E+01   -0.13348E+01  6475   0.172E+00    0.466E+00
RMM:   3    -0.230936500549E+04   -0.20808E-01   -0.15142E+00  6225   0.634E-01    0.313E+00
RMM:   4    -0.230930728640E+04    0.57719E-01   -0.16540E-01  6082   0.164E-01    0.104E+00
RMM:   5    -0.230930206125E+04    0.52252E-02   -0.23975E-02  5776   0.696E-02    0.862E-01
RMM:   6    -0.230929568000E+04    0.63812E-02   -0.16396E-02  5528   0.666E-02    0.488E-01
RMM:   7    -0.230929450735E+04    0.11726E-02   -0.11626E-02  5020   0.603E-02    0.171E-01
RMM:   8    -0.230929455389E+04   -0.46538E-04   -0.14404E-03  5105   0.242E-02    0.888E-02
RMM:   9    -0.230929455854E+04   -0.46527E-05   -0.31978E-04  3946   0.115E-02    0.432E-02
RMM:  10    -0.230929459848E+04   -0.39934E-04   -0.13811E-04  3360   0.799E-03    0.218E-02
RMM:  11    -0.230929462257E+04   -0.24089E-04   -0.26546E-05  2909   0.514E-03    0.136E-02
RMM:  12    -0.230929463284E+04   -0.10269E-04   -0.88018E-06  2869   0.339E-03    0.745E-03
RMM:  13    -0.230929464506E+04   -0.12221E-04   -0.66400E-06  2832   0.262E-03    0.449E-03
RMM:  14    -0.230929464983E+04   -0.47779E-05   -0.29383E-06  2774   0.239E-03
  22 F= -.23301416E+04 E0= -.23301416E+04  d E =-.132550E+00  mag=     5.0000
       N       E                     dE             d eps       ncg     rms          rms(c)
DAV:   1    -0.230336589353E+04    0.59288E+01   -0.36676E+02  4448   0.157E+01    0.637E+00
RMM:   2    -0.230903138502E+04   -0.56655E+01   -0.58287E+01  6478   0.358E+00    0.618E+00
RMM:   3    -0.230963704338E+04   -0.60566E+00   -0.68054E+00  6195   0.129E+00    0.645E+00
RMM:   4    -0.230930011413E+04    0.33693E+00   -0.60005E-01  6093   0.303E-01    0.234E+00
RMM:   5    -0.230927897055E+04    0.21144E-01   -0.99660E-02  5777   0.128E-01    0.180E+00
RMM:   6    -0.230926117745E+04    0.17793E-01   -0.58377E-02  5579   0.116E-01    0.142E+00
RMM:   7    -0.230924126498E+04    0.19912E-01   -0.71987E-02  5241   0.135E-01    0.463E-01
RMM:   8    -0.230924283958E+04   -0.15746E-02   -0.14773E-02  5391   0.745E-02    0.366E-01
RMM:   9    -0.230924184550E+04    0.99408E-03   -0.20782E-03  4840   0.289E-02    0.187E-01
RMM:  10    -0.230924156955E+04    0.27595E-03   -0.13403E-03  4591   0.221E-02    0.480E-02
RMM:  11    -0.230924161979E+04   -0.50236E-04   -0.23569E-04  4068   0.105E-02    0.473E-02
RMM:  12    -0.230924163265E+04   -0.12866E-04   -0.39546E-05  2948   0.578E-03    0.175E-02
RMM:  13    -0.230924165609E+04   -0.23434E-04   -0.25514E-05  2930   0.421E-03    0.969E-03
RMM:  14    -0.230924166518E+04   -0.90931E-05   -0.88864E-06  2855   0.372E-03
  23 F= -.23301038E+04 E0= -.23301038E+04  d E =-.947100E-01  mag=     5.0011
       N       E                     dE             d eps       ncg     rms          rms(c)
DAV:   1    -0.230708768072E+04    0.21540E+01   -0.15959E+02  4464   0.102E+01    0.469E+00
RMM:   2    -0.230992316210E+04   -0.28355E+01   -0.24433E+01  6552   0.237E+00    0.915E+00
RMM:   3    -0.230935087500E+04    0.57229E+00   -0.26580E+00  6106   0.791E-01    0.250E+00
RMM:   4    -0.230932977714E+04    0.21098E-01   -0.33959E-01  5666   0.201E-01    0.117E+00
RMM:   5    -0.230932932910E+04    0.44805E-03   -0.38089E-02  5720   0.965E-02    0.129E+00
RMM:   6    -0.230932146345E+04    0.78657E-02   -0.24828E-02  5784   0.753E-02    0.889E-01
RMM:   7    -0.230931819963E+04    0.32638E-02   -0.17513E-02  5478   0.617E-02    0.417E-01
RMM:   8    -0.230931746411E+04    0.73552E-03   -0.30887E-03  5214   0.312E-02    0.168E-01
RMM:   9    -0.230931755537E+04   -0.91265E-04   -0.46319E-04  4481   0.142E-02    0.702E-02
RMM:  10    -0.230931761895E+04   -0.63574E-04   -0.13479E-04  3251   0.837E-03    0.598E-02
RMM:  11    -0.230931764521E+04   -0.26258E-04   -0.10875E-04  3146   0.673E-03    0.201E-02
RMM:  12    -0.230931765874E+04   -0.13534E-04   -0.18545E-05  2900   0.424E-03    0.125E-02
RMM:  13    -0.230931766767E+04   -0.89339E-05   -0.83885E-06  2849   0.292E-03
  24 F= -.23301699E+04 E0= -.23301699E+04  d E =-.160801E+00  mag=     5.0001
       N       E                     dE             d eps       ncg     rms          rms(c)
DAV:   1    -0.230936681386E+04   -0.49155E-01   -0.47406E+00  4512   0.193E+00    0.799E-01
RMM:   2    -0.230942557899E+04   -0.58765E-01   -0.49915E-01  5951   0.396E-01    0.158E+00
RMM:   3    -0.230941393550E+04    0.11643E-01   -0.47393E-02  5844   0.156E-01    0.607E-01
RMM:   4    -0.230941187627E+04    0.20592E-02   -0.71699E-03  5059   0.446E-02    0.252E-01
RMM:   5    -0.230941177303E+04    0.10324E-03   -0.22195E-03  5401   0.326E-02    0.250E-01
RMM:   6    -0.230941119647E+04    0.57656E-03   -0.12503E-03  5251   0.224E-02    0.154E-01
RMM:   7    -0.230941103411E+04    0.16236E-03   -0.38677E-04  4298   0.162E-02    0.275E-02
RMM:   8    -0.230941102759E+04    0.65184E-05   -0.59338E-05  3194   0.605E-03
  25 F= -.23302650E+04 E0= -.23302650E+04  d E =-.951417E-01  mag=     5.0000
       N       E                     dE             d eps       ncg     rms          rms(c)
DAV:   1    -0.230921787913E+04    0.19315E+00   -0.30091E+01  4464   0.485E+00    0.200E+00
RMM:   2    -0.230959129138E+04   -0.37341E+00   -0.32144E+00  5940   0.998E-01    0.407E+00
RMM:   3    -0.230952550496E+04    0.65786E-01   -0.31259E-01  5863   0.395E-01    0.165E+00
RMM:   4    -0.230951037243E+04    0.15133E-01   -0.46411E-02  5082   0.115E-01    0.672E-01
RMM:   5    -0.230950856498E+04    0.18075E-02   -0.13514E-02  5623   0.824E-02    0.569E-01
RMM:   6    -0.230950571918E+04    0.28458E-02   -0.83352E-03  5540   0.545E-02    0.379E-01
RMM:   7    -0.230950443962E+04    0.12796E-02   -0.26731E-03  4944   0.391E-02    0.852E-02
RMM:   8    -0.230950446686E+04   -0.27231E-04   -0.44396E-04  4575   0.161E-02    0.498E-02
RMM:   9    -0.230950448519E+04   -0.18332E-04   -0.11247E-04  3734   0.100E-02    0.267E-02
RMM:  10    -0.230950452159E+04   -0.36403E-04   -0.62571E-05  3651   0.652E-03    0.145E-02
RMM:  11    -0.230950454181E+04   -0.20219E-04   -0.13527E-05  2859   0.468E-03    0.128E-02
RMM:  12    -0.230950455994E+04   -0.18133E-04   -0.11710E-05  2860   0.338E-03    0.500E-03
RMM:  13    -0.230950457657E+04   -0.16630E-04   -0.10377E-05  2842   0.337E-03    0.429E-03
RMM:  14    -0.230950458136E+04   -0.47892E-05   -0.47054E-06  2813   0.306E-03
  26 F= -.23303630E+04 E0= -.23303630E+04  d E =-.193136E+00  mag=     5.0000
       N       E                     dE             d eps       ncg     rms          rms(c)
DAV:   1    -0.230952423221E+04   -0.19656E-01   -0.48801E+00  4528   0.195E+00    0.747E-01
RMM:   2    -0.230957938302E+04   -0.55151E-01   -0.46092E-01  5991   0.375E-01    0.162E+00
RMM:   3    -0.230956782849E+04    0.11555E-01   -0.48055E-02  5814   0.144E-01    0.551E-01
RMM:   4    -0.230956622370E+04    0.16048E-02   -0.62187E-03  5174   0.370E-02    0.237E-01
RMM:   5    -0.230956608203E+04    0.14167E-03   -0.18006E-03  5373   0.266E-02    0.214E-01
RMM:   6    -0.230956570697E+04    0.37506E-03   -0.11701E-03  5377   0.192E-02    0.162E-01
RMM:   7    -0.230956552600E+04    0.18097E-03   -0.32336E-04  4162   0.129E-02    0.271E-02
RMM:   8    -0.230956551887E+04    0.71354E-05   -0.41872E-05  2967   0.539E-03
  27 F= -.23304254E+04 E0= -.23304253E+04  d E =-.624002E-01  mag=     5.0000
       N       E                     dE             d eps       ncg     rms          rms(c)
DAV:   1    -0.230927499073E+04    0.29054E+00   -0.43807E+01  4448   0.587E+00    0.214E+00
RMM:   2    -0.230975999883E+04   -0.48501E+00   -0.41925E+00  5997   0.114E+00    0.509E+00
RMM:   3    -0.230968015258E+04    0.79846E-01   -0.45506E-01  5842   0.441E-01    0.161E+00
RMM:   4    -0.230966549447E+04    0.14658E-01   -0.57769E-02  5122   0.111E-01    0.703E-01
RMM:   5    -0.230966197289E+04    0.35216E-02   -0.13104E-02  5593   0.758E-02    0.431E-01
RMM:   6    -0.230966174615E+04    0.22674E-03   -0.95506E-03  5844   0.561E-02    0.426E-01
RMM:   7    -0.230965980533E+04    0.19408E-02   -0.27086E-03  5455   0.334E-02    0.111E-01
RMM:   8    -0.230965980414E+04    0.11926E-05   -0.37914E-04  4351   0.125E-02    0.483E-02
RMM:   9    -0.230965978273E+04    0.21402E-04   -0.87842E-05  3467   0.889E-03    0.256E-02
RMM:  10    -0.230965977687E+04    0.58672E-05   -0.64378E-05  3525   0.652E-03
  28 F= -.23305237E+04 E0= -.23305231E+04  d E =-.160653E+00  mag=     5.0000
       N       E                     dE             d eps       ncg     rms          rms(c)
DAV:   1    -0.230968439724E+04   -0.24615E-01   -0.66084E+00  4512   0.230E+00    0.721E-01
RMM:   2    -0.230974064680E+04   -0.56250E-01   -0.56155E-01  6012   0.422E-01    0.998E-01
RMM:   3    -0.230974235021E+04   -0.17034E-02   -0.63331E-02  5746   0.164E-01    0.688E-01
RMM:   4    -0.230973936491E+04    0.29853E-02   -0.70955E-03  5264   0.420E-02    0.258E-01
RMM:   5    -0.230973914365E+04    0.22126E-03   -0.24554E-03  5551   0.299E-02    0.215E-01
RMM:   6    -0.230973873421E+04    0.40944E-03   -0.14570E-03  5344   0.214E-02    0.107E-01
RMM:   7    -0.230973862947E+04    0.10474E-03   -0.23217E-04  4132   0.118E-02    0.326E-02
RMM:   8    -0.230973862453E+04    0.49352E-05   -0.49650E-05  3015   0.588E-03
  29 F= -.23306039E+04 E0= -.23306035E+04  d E =-.802202E-01  mag=     5.0000
       N       E                     dE             d eps       ncg     rms          rms(c)
DAV:   1    -0.230940021539E+04    0.33841E+00   -0.59189E+01  4464   0.695E+00    0.215E+00
RMM:   2    -0.230990321738E+04   -0.50300E+00   -0.52082E+00  5974   0.128E+00    0.225E+00
RMM:   3    -0.230994473763E+04   -0.41520E-01   -0.61944E-01  5731   0.506E-01    0.221E+00
RMM:   4    -0.230991389171E+04    0.30846E-01   -0.68640E-02  5681   0.127E-01    0.101E+00
RMM:   5    -0.230991020609E+04    0.36856E-02   -0.21239E-02  5822   0.782E-02    0.664E-01
RMM:   6    -0.230990556572E+04    0.46404E-02   -0.16508E-02  5158   0.701E-02    0.347E-01
RMM:   7    -0.230990455921E+04    0.10065E-02   -0.31281E-03  5151   0.430E-02    0.108E-01
RMM:   8    -0.230990452620E+04    0.33009E-04   -0.60800E-04  4677   0.160E-02    0.737E-02
RMM:   9    -0.230990452653E+04   -0.32371E-06   -0.18677E-04  4006   0.129E-02    0.289E-02
RMM:  10    -0.230990454627E+04   -0.19745E-04   -0.61488E-05  3391   0.581E-03    0.194E-02
RMM:  11    -0.230990455796E+04   -0.11684E-04   -0.17408E-05  2884   0.477E-03    0.134E-02
RMM:  12    -0.230990456999E+04   -0.12033E-04   -0.18353E-05  2880   0.416E-03    0.705E-03
RMM:  13    -0.230990457654E+04   -0.65561E-05   -0.75781E-06  2837   0.390E-03
  30 F= -.23307737E+04 E0= -.23307737E+04  d E =-.250081E+00  mag=     5.0000
       N       E                     dE             d eps       ncg     rms          rms(c)
DAV:   1    -0.230767358022E+04    0.22310E+01   -0.23301E+02  4456   0.139E+01    0.435E+00
RMM:   2    -0.230995529057E+04   -0.22817E+01   -0.23182E+01  5976   0.260E+00    0.481E+00
RMM:   3    -0.230996750656E+04   -0.12216E-01   -0.25758E+00  5808   0.102E+00    0.347E+00
RMM:   4    -0.230989335487E+04    0.74152E-01   -0.27875E-01  5376   0.245E-01    0.212E+00
RMM:   5    -0.230987726530E+04    0.16090E-01   -0.71058E-02  5546   0.147E-01    0.145E+00
RMM:   6    -0.230985249660E+04    0.24769E-01   -0.60005E-02  4879   0.134E-01    0.666E-01
RMM:   7    -0.230985033030E+04    0.21663E-02   -0.13656E-02  4859   0.932E-02    0.214E-01
RMM:   8    -0.230985060363E+04   -0.27332E-03   -0.25929E-03  5198   0.373E-02    0.178E-01
RMM:   9    -0.230985053651E+04    0.67120E-04   -0.92378E-04  4895   0.225E-02    0.662E-02
RMM:  10    -0.230985057539E+04   -0.38885E-04   -0.28572E-04  4255   0.113E-02    0.343E-02
RMM:  11    -0.230985060186E+04   -0.26471E-04   -0.71647E-05  3723   0.795E-03    0.197E-02
RMM:  12    -0.230985062274E+04   -0.20874E-04   -0.42649E-05  3380   0.589E-03    0.124E-02
RMM:  13    -0.230985064418E+04   -0.21449E-04   -0.25021E-05  3036   0.558E-03    0.707E-03
RMM:  14    -0.230985065810E+04   -0.13912E-04   -0.13773E-05  2849   0.447E-03    0.478E-03
RMM:  15    -0.230985066902E+04   -0.10924E-04   -0.99829E-06  2819   0.390E-03    0.334E-03
RMM:  16    -0.230985067579E+04   -0.67675E-05   -0.74052E-06  2812   0.332E-03
  31 F= -.23307295E+04 E0= -.23307293E+04  d E =-.205798E+00  mag=     4.9962
       N       E                     dE             d eps       ncg     rms          rms(c)
DAV:   1    -0.230919421867E+04    0.65645E+00   -0.87602E+01  4464   0.840E+00    0.255E+00
RMM:   2    -0.230995098153E+04   -0.75676E+00   -0.78213E+00  6031   0.160E+00    0.273E+00
RMM:   3    -0.231000927912E+04   -0.58298E-01   -0.93023E-01  5813   0.597E-01    0.274E+00
RMM:   4    -0.230996366201E+04    0.45617E-01   -0.98886E-02  5920   0.153E-01    0.974E-01
RMM:   5    -0.230996157299E+04    0.20890E-02   -0.33050E-02  5834   0.974E-02    0.854E-01
RMM:   6    -0.230995283703E+04    0.87360E-02   -0.18539E-02  5581   0.738E-02    0.376E-01
RMM:   7    -0.230995203106E+04    0.80597E-03   -0.38532E-03  5218   0.458E-02    0.135E-01
RMM:   8    -0.230995210183E+04   -0.70769E-04   -0.78050E-04  4861   0.211E-02    0.107E-01
RMM:   9    -0.230995215684E+04   -0.55006E-04   -0.29718E-04  4190   0.137E-02    0.369E-02
RMM:  10    -0.230995221189E+04   -0.55050E-04   -0.87844E-05  3653   0.749E-03    0.175E-02
RMM:  11    -0.230995225641E+04   -0.44527E-04   -0.37855E-05  3313   0.561E-03    0.104E-02
RMM:  12    -0.230995227734E+04   -0.20929E-04   -0.15596E-05  2880   0.468E-03    0.968E-03
RMM:  13    -0.230995228955E+04   -0.12212E-04   -0.10468E-05  2841   0.375E-03    0.403E-03
RMM:  14    -0.230995229825E+04   -0.86988E-05   -0.83111E-06  2816   0.345E-03
  32 F= -.23308249E+04 E0= -.23308249E+04  d E =-.301234E+00  mag=     4.9992
       N       E                     dE             d eps       ncg     rms          rms(c)
DAV:   1    -0.230995739164E+04   -0.51021E-02   -0.63319E+00  4472   0.220E+00    0.666E-01
RMM:   2    -0.231001670112E+04   -0.59309E-01   -0.60691E-01  6149   0.400E-01    0.699E-01
RMM:   3    -0.231002083486E+04   -0.41337E-02   -0.72908E-02  5822   0.157E-01    0.594E-01
RMM:   4    -0.231001906132E+04    0.17735E-02   -0.79268E-03  5515   0.369E-02    0.336E-01
RMM:   5    -0.231001855455E+04    0.50677E-03   -0.18374E-03  4952   0.214E-02    0.212E-01
RMM:   6    -0.231001797851E+04    0.57604E-03   -0.14067E-03  4828   0.202E-02    0.810E-02
RMM:   7    -0.231001797512E+04    0.33929E-05   -0.24629E-04  3885   0.127E-02    0.318E-02
RMM:   8    -0.231001797878E+04   -0.36642E-05   -0.40675E-05  3005   0.523E-03
  33 F= -.23308925E+04 E0= -.23308925E+04  d E =-.676429E-01  mag=     4.9990
       N       E                     dE             d eps       ncg     rms          rms(c)
DAV:   1    -0.230959352433E+04    0.42445E+00   -0.56815E+01  4464   0.660E+00    0.203E+00
RMM:   2    -0.231017419942E+04   -0.58068E+00   -0.58124E+00  6131   0.120E+00    0.253E+00
RMM:   3    -0.231017900651E+04   -0.48071E-02   -0.66771E-01  5894   0.472E-01    0.158E+00
RMM:   4    -0.231016770731E+04    0.11299E-01   -0.71922E-02  5593   0.108E-01    0.998E-01
RMM:   5    -0.231016363035E+04    0.40770E-02   -0.15805E-02  5566   0.611E-02    0.676E-01
RMM:   6    -0.231015785754E+04    0.57728E-02   -0.12466E-02  4893   0.574E-02    0.250E-01
RMM:   7    -0.231015792917E+04   -0.71625E-04   -0.21081E-03  4593   0.373E-02    0.101E-01
RMM:   8    -0.231015803592E+04   -0.10676E-03   -0.44475E-04  4206   0.146E-02    0.741E-02
RMM:   9    -0.231015807811E+04   -0.42187E-04   -0.17970E-04  3517   0.105E-02    0.340E-02
RMM:  10    -0.231015809112E+04   -0.13011E-04   -0.40919E-05  2957   0.510E-03    0.147E-02
RMM:  11    -0.231015809821E+04   -0.70868E-05   -0.10953E-05  2880   0.350E-03
  34 F= -.23310390E+04 E0= -.23310388E+04  d E =-.214157E+00  mag=     4.9966
       N       E                     dE             d eps       ncg     rms          rms(c)
DAV:   1    -0.230757793089E+04    0.25802E+01   -0.22360E+02  4464   0.130E+01    0.435E+00
RMM:   2    -0.231054277960E+04   -0.29648E+01   -0.27435E+01  6152   0.255E+00    0.726E+00
RMM:   3    -0.231014000248E+04    0.40278E+00   -0.28478E+00  5815   0.101E+00    0.289E+00
RMM:   4    -0.231011142877E+04    0.28574E-01   -0.34670E-01  5871   0.234E-01    0.254E+00
RMM:   5    -0.231009696644E+04    0.14462E-01   -0.62814E-02  5754   0.111E-01    0.198E+00
RMM:   6    -0.231007835772E+04    0.18609E-01   -0.55519E-02  4797   0.112E-01    0.253E+00
RMM:   7    -0.231007859760E+04   -0.23988E-03   -0.95410E-03  4615   0.593E-02    0.257E+00
RMM:   8    -0.231007571652E+04    0.28811E-02   -0.85351E-03  4493   0.407E-02    0.253E+00
RMM:   9    -0.231007079936E+04    0.49172E-02   -0.26211E-02  4630   0.681E-02    0.210E+00
RMM:  10    -0.231005659072E+04    0.14209E-01   -0.11486E-01  4663   0.142E-01    0.862E-01
RMM:  11    -0.231004327458E+04    0.13316E-01   -0.44672E-02  4690   0.107E-01    0.159E+00
RMM:  12    -0.231004228862E+04    0.98596E-03   -0.59260E-03  5340   0.300E-02    0.162E+00
RMM:  13    -0.231005277322E+04   -0.10485E-01   -0.28028E-03  4622   0.238E-02    0.130E+00
RMM:  14    -0.231006630000E+04   -0.13527E-01   -0.33185E-02  4587   0.812E-02    0.598E-01
RMM:  15    -0.231006963893E+04   -0.33389E-02   -0.15786E-02  4602   0.656E-02    0.983E-01
RMM:  16    -0.231007633684E+04   -0.66979E-02   -0.11452E-02  5258   0.448E-02    0.168E+00
RMM:  17    -0.231008818974E+04   -0.11853E-01   -0.79590E-03  4632   0.396E-02    0.225E+00
RMM:  18    -0.231007835550E+04    0.98342E-02   -0.26935E-03  4380   0.251E-02    0.164E+00
RMM:  19    -0.231007115053E+04    0.72050E-02   -0.48250E-03  4509   0.299E-02    0.991E-01
RMM:  20    -0.231006876403E+04    0.23865E-02   -0.73422E-03  4592   0.385E-02    0.427E-01
RMM:  21    -0.231006883776E+04   -0.73733E-04   -0.69368E-04  3846   0.183E-02    0.468E-01
RMM:  22    -0.231006886772E+04   -0.29966E-04   -0.91928E-04  4418   0.124E-02    0.345E-01
RMM:  23    -0.231006906441E+04   -0.19669E-03   -0.71043E-04  4106   0.140E-02    0.273E-01
RMM:  24    -0.231006918355E+04   -0.11914E-03   -0.16708E-03  4619   0.192E-02    0.187E-01
RMM:  25    -0.231006859213E+04    0.59142E-03   -0.23065E-03  4318   0.228E-02    0.244E-01
RMM:  26    -0.231006757743E+04    0.10147E-02   -0.11964E-03  4125   0.163E-02    0.357E-01
RMM:  27    -0.231006647665E+04    0.11008E-02   -0.70312E-04  3832   0.115E-02    0.465E-01
RMM:  28    -0.231006679605E+04   -0.31939E-03   -0.39598E-05  2907   0.473E-03    0.435E-01
RMM:  29    -0.231006763366E+04   -0.83761E-03   -0.21074E-04  3052   0.629E-03    0.352E-01
RMM:  30    -0.231007000554E+04   -0.23719E-02   -0.46437E-03  4422   0.282E-02    0.140E-01
RMM:  31    -0.231007034984E+04   -0.34430E-03   -0.92418E-04  3767   0.160E-02    0.127E-01
RMM:  32    -0.231007049088E+04   -0.14104E-03   -0.20652E-04  3131   0.577E-03    0.134E-01
RMM:  33    -0.231007069262E+04   -0.20174E-03   -0.94382E-05  2923   0.528E-03    0.151E-01
RMM:  34    -0.231007121603E+04   -0.52341E-03   -0.39894E-04  3452   0.870E-03    0.212E-01
RMM:  35    -0.231007131555E+04   -0.99519E-04   -0.68667E-05  2879   0.499E-03    0.217E-01
RMM:  36    -0.231007135406E+04   -0.38504E-04   -0.18961E-05  2763   0.250E-03    0.222E-01
RMM:  37    -0.231007129713E+04    0.56926E-04   -0.48409E-06  2463   0.186E-03    0.214E-01
RMM:  38    -0.231007105358E+04    0.24355E-03   -0.11398E-04  2914   0.449E-03    0.190E-01
RMM:  39    -0.231007069848E+04    0.35510E-03   -0.27212E-04  3244   0.664E-03    0.164E-01
RMM:  40    -0.231007032970E+04    0.36878E-03   -0.37860E-04  3231   0.781E-03    0.156E-01
RMM:  41    -0.231007009977E+04    0.22993E-03   -0.20375E-04  3040   0.637E-03    0.161E-01
RMM:  42    -0.231007039794E+04   -0.29817E-03   -0.13615E-04  2902   0.545E-03    0.163E-01
RMM:  43    -0.231007075001E+04   -0.35207E-03   -0.30319E-04  3247   0.741E-03    0.173E-01
RMM:  44    -0.231007281120E+04   -0.20612E-02   -0.36764E-03  4425   0.236E-02    0.409E-01
RMM:  45    -0.231007241975E+04    0.39146E-03   -0.20138E-04  2999   0.991E-03    0.333E-01
RMM:  46    -0.231007320328E+04   -0.78353E-03   -0.36517E-04  3276   0.680E-03    0.451E-01
RMM:  47    -0.231007313098E+04    0.72305E-04   -0.23705E-05  2822   0.368E-03    0.428E-01
RMM:  48    -0.231007321319E+04   -0.82219E-04   -0.11148E-05  2587   0.165E-03    0.443E-01
RMM:  49    -0.231007314590E+04    0.67298E-04   -0.18996E-06  2290   0.140E-03    0.432E-01
RMM:  50    -0.231007308026E+04    0.65635E-04   -0.20245E-06  1921   0.899E-04    0.423E-01
RMM:  51    -0.231007231177E+04    0.76850E-03   -0.27279E-04  3101   0.635E-03    0.316E-01
RMM:  52    -0.231007210599E+04    0.20578E-03   -0.62169E-05  2695   0.415E-03    0.302E-01
RMM:  53    -0.231007197872E+04    0.12727E-03   -0.37281E-05  2763   0.285E-03    0.284E-01
RMM:  54    -0.231007185563E+04    0.12309E-03   -0.18606E-05  2690   0.230E-03    0.269E-01
RMM:  55    -0.231007175080E+04    0.10484E-03   -0.15988E-05  2629   0.229E-03    0.255E-01
RMM:  56    -0.231007175602E+04   -0.52296E-05   -0.18301E-06  2106   0.130E-03
  35 F= -.23309658E+04 E0= -.23309559E+04  d E =-.140929E+00  mag=     4.6942
       N       E                     dE             d eps       ncg     rms          rms(c)
DAV:   1    -0.230922302347E+04    0.84873E+00   -0.93955E+01  4464   0.830E+00    0.286E+00
RMM:   2    -0.231014533203E+04   -0.92231E+00   -0.94431E+00  6198   0.163E+00    0.227E+00
RMM:   3    -0.231026436181E+04   -0.11903E+00   -0.11740E+00  5931   0.622E-01    0.299E+00
RMM:   4    -0.231019361046E+04    0.70751E-01   -0.12657E-01  6236   0.159E-01    0.107E+00
RMM:   5    -0.231019213437E+04    0.14761E-02   -0.42169E-02  5170   0.910E-02    0.117E+00
RMM:   6    -0.231019079349E+04    0.13409E-02   -0.32380E-02  5939   0.809E-02    0.113E+00
RMM:   7    -0.231018530193E+04    0.54916E-02   -0.92034E-03  5155   0.498E-02    0.221E-01
RMM:   8    -0.231018683211E+04   -0.15302E-02   -0.22979E-03  4627   0.273E-02    0.123E-01
RMM:   9    -0.231018793093E+04   -0.10988E-02   -0.70903E-04  4123   0.173E-02    0.623E-02
RMM:  10    -0.231018858661E+04   -0.65568E-03   -0.24882E-04  3875   0.107E-02    0.407E-02
RMM:  11    -0.231018896477E+04   -0.37816E-03   -0.92007E-05  3499   0.690E-03    0.307E-02
RMM:  12    -0.231018916808E+04   -0.20331E-03   -0.40695E-05  3026   0.540E-03    0.214E-02
RMM:  13    -0.231018940594E+04   -0.23785E-03   -0.49176E-05  3267   0.501E-03    0.139E-02
RMM:  14    -0.231018954492E+04   -0.13898E-03   -0.29425E-05  3041   0.481E-03    0.898E-03
RMM:  15    -0.231018958081E+04   -0.35896E-04   -0.10079E-05  2843   0.372E-03    0.625E-03
RMM:  16    -0.231018960625E+04   -0.25436E-04   -0.81748E-06  2794   0.279E-03    0.459E-03
RMM:  17    -0.231018961303E+04   -0.67827E-05   -0.39861E-06  2624   0.262E-03
  36 F= -.23310754E+04 E0= -.23310744E+04  d E =-.250462E+00  mag=     4.9881
       N       E                     dE             d eps       ncg     rms          rms(c)
DAV:   1    -0.231023778590E+04   -0.48180E-01   -0.50309E+00  4464   0.197E+00    0.794E-01
RMM:   2    -0.231029814391E+04   -0.60358E-01   -0.61908E-01  5909   0.408E-01    0.663E-01
RMM:   3    -0.231030265628E+04   -0.45124E-02   -0.65766E-02  5683   0.168E-01    0.718E-01
RMM:   4    -0.231029927449E+04    0.33818E-02   -0.83974E-03  5670   0.450E-02    0.318E-01
RMM:   5    -0.231030015294E+04   -0.87845E-03   -0.54079E-03  5187   0.404E-02    0.522E-01
RMM:   6    -0.231029837436E+04    0.17786E-02   -0.23550E-03  5261   0.252E-02    0.146E-01
RMM:   7    -0.231029834540E+04    0.28962E-04   -0.39315E-04  4039   0.111E-02    0.721E-02
RMM:   8    -0.231029840248E+04   -0.57083E-04   -0.15837E-04  3334   0.820E-03    0.369E-02
RMM:   9    -0.231029843593E+04   -0.33440E-04   -0.62366E-05  3203   0.625E-03    0.186E-02
RMM:  10    -0.231029845347E+04   -0.17547E-04   -0.18627E-05  2891   0.511E-03    0.933E-03
RMM:  11    -0.231029846323E+04   -0.97542E-05   -0.73917E-06  2846   0.351E-03
  37 F= -.23311861E+04 E0= -.23311828E+04  d E =-.110745E+00  mag=     4.9505
       N       E                     dE             d eps       ncg     rms          rms(c)
DAV:   1    -0.230984783240E+04    0.45062E+00   -0.45079E+01  4464   0.589E+00    0.269E+00
RMM:   2    -0.231046133377E+04   -0.61350E+00   -0.58829E+00  5944   0.124E+00    0.324E+00
RMM:   3    -0.231044909757E+04    0.12236E-01   -0.63114E-01  5659   0.504E-01    0.225E+00
RMM:   4    -0.231044932650E+04   -0.22893E-03   -0.86900E-02  5128   0.137E-01    0.268E+00
RMM:   5    -0.231044907650E+04    0.25001E-03   -0.98249E-03  4831   0.556E-02    0.260E+00
RMM:   6    -0.231047982606E+04   -0.30750E-01   -0.58119E-02  5455   0.859E-02    0.387E+00
RMM:   7    -0.231044595024E+04    0.33876E-01   -0.21057E-02  4675   0.566E-02    0.290E+00
RMM:   8    -0.231039604962E+04    0.49901E-01   -0.11102E-01  4806   0.146E-01    0.143E+00
RMM:   9    -0.231036048125E+04    0.35568E-01   -0.58711E-02  4730   0.119E-01    0.232E+00
RMM:  10    -0.231032336766E+04    0.37114E-01   -0.25454E-02  5178   0.698E-02    0.302E+00
RMM:  11    -0.231040648342E+04   -0.83116E-01   -0.11799E-01  4522   0.138E-01    0.796E-01
RMM:  12    -0.231040909662E+04   -0.26132E-02   -0.16424E-02  5015   0.741E-02    0.530E-01
RMM:  13    -0.231041425181E+04   -0.51552E-02   -0.18500E-02  5218   0.546E-02    0.683E-01
RMM:  14    -0.231041740590E+04   -0.31541E-02   -0.43777E-03  4542   0.344E-02    0.974E-01
RMM:  15    -0.231042156462E+04   -0.41587E-02   -0.36638E-03  4710   0.242E-02    0.130E+00
RMM:  16    -0.231041711504E+04    0.44496E-02   -0.23530E-03  4266   0.211E-02    0.856E-01
RMM:  17    -0.231041364142E+04    0.34736E-02   -0.55240E-03  4485   0.300E-02    0.595E-01
RMM:  18    -0.231041024405E+04    0.33974E-02   -0.76656E-03  4698   0.372E-02    0.532E-01
RMM:  19    -0.231040882270E+04    0.14213E-02   -0.24075E-03  4363   0.217E-02    0.593E-01
RMM:  20    -0.231040700828E+04    0.18144E-02   -0.14786E-03  4473   0.148E-02    0.682E-01
RMM:  21    -0.231040530651E+04    0.17018E-02   -0.76132E-04  3827   0.133E-02    0.778E-01
RMM:  22    -0.231040651725E+04   -0.12107E-02   -0.16836E-04  2989   0.611E-03    0.707E-01
RMM:  23    -0.231040796218E+04   -0.14449E-02   -0.54489E-04  3658   0.961E-03    0.612E-01
RMM:  24    -0.231041109834E+04   -0.31362E-02   -0.33449E-03  4425   0.235E-02    0.497E-01
RMM:  25    -0.231041424055E+04   -0.31422E-02   -0.42390E-03  4585   0.276E-02    0.589E-01
RMM:  26    -0.231041362892E+04    0.61163E-03   -0.23484E-04  3073   0.911E-03    0.538E-01
RMM:  27    -0.231041374016E+04   -0.11125E-03   -0.66188E-05  2890   0.347E-03    0.552E-01
RMM:  28    -0.231041363822E+04    0.10194E-03   -0.48709E-06  2505   0.225E-03    0.544E-01
RMM:  29    -0.231041272791E+04    0.91031E-03   -0.27688E-04  3111   0.652E-03    0.505E-01
RMM:  30    -0.231040865363E+04    0.40743E-02   -0.64070E-03  4586   0.311E-02    0.575E-01
RMM:  31    -0.231040336260E+04    0.52910E-02   -0.64516E-03  4566   0.348E-02    0.903E-01
RMM:  32    -0.231040416579E+04   -0.80319E-03   -0.41852E-04  3329   0.107E-02    0.852E-01
RMM:  33    -0.231040439267E+04   -0.22688E-03   -0.51395E-05  2878   0.362E-03    0.826E-01
RMM:  34    -0.231040567224E+04   -0.12796E-02   -0.36572E-04  3373   0.778E-03    0.723E-01
RMM:  35    -0.231040972028E+04   -0.40480E-02   -0.45933E-03  4567   0.271E-02    0.471E-01
RMM:  36    -0.231041303621E+04   -0.33159E-02   -0.52693E-03  4601   0.315E-02    0.451E-01
RMM:  37    -0.231041467732E+04   -0.16411E-02   -0.21259E-03  4581   0.188E-02    0.517E-01
RMM:  38    -0.231041524662E+04   -0.56930E-03   -0.42867E-04  3405   0.857E-03    0.546E-01
RMM:  39    -0.231041475736E+04    0.48926E-03   -0.50340E-05  2851   0.476E-03    0.514E-01
RMM:  40    -0.231041436475E+04    0.39262E-03   -0.52000E-05  2769   0.344E-03    0.497E-01
RMM:  41    -0.231041365875E+04    0.70600E-03   -0.18241E-04  3060   0.555E-03    0.467E-01
RMM:  42    -0.231041210059E+04    0.15582E-02   -0.10378E-03  4034   0.124E-02    0.431E-01
RMM:  43    -0.231041003240E+04    0.20682E-02   -0.19931E-03  4211   0.182E-02    0.466E-01
RMM:  44    -0.231040933538E+04    0.69702E-03   -0.54279E-04  3438   0.104E-02    0.497E-01
RMM:  45    -0.231040865439E+04    0.68099E-03   -0.29840E-04  3342   0.697E-03    0.528E-01
RMM:  46    -0.231040797053E+04    0.68386E-03   -0.16635E-04  3068   0.663E-03    0.564E-01
RMM:  47    -0.231040843664E+04   -0.46611E-03   -0.44302E-05  2824   0.418E-03    0.537E-01
RMM:  48    -0.231040826690E+04    0.16974E-03   -0.70144E-06  2433   0.156E-03    0.545E-01
RMM:  49    -0.231040808263E+04    0.18427E-03   -0.11089E-05  2572   0.187E-03    0.556E-01
RMM:  50    -0.231040857867E+04   -0.49604E-03   -0.57876E-05  2603   0.294E-03    0.530E-01
RMM:  51    -0.231041038755E+04   -0.18089E-02   -0.10608E-03  3987   0.127E-02    0.458E-01
RMM:  52    -0.231041158505E+04   -0.11975E-02   -0.77308E-04  3666   0.124E-02    0.441E-01
RMM:  53    -0.231041213474E+04   -0.54969E-03   -0.31180E-04  3258   0.727E-03    0.444E-01
RMM:  54    -0.231041222641E+04   -0.91670E-04   -0.41995E-05  2873   0.408E-03    0.445E-01
RMM:  55    -0.231041216697E+04    0.59442E-04   -0.37900E-06  2390   0.184E-03    0.444E-01
RMM:  56    -0.231041161820E+04    0.54877E-03   -0.10949E-04  2814   0.422E-03    0.439E-01
RMM:  57    -0.231040969185E+04    0.19264E-02   -0.14628E-03  4130   0.148E-02    0.480E-01
RMM:  58    -0.231040877993E+04    0.91191E-03   -0.46931E-04  3332   0.103E-02    0.522E-01
RMM:  59    -0.231040869571E+04    0.84228E-04   -0.78263E-05  2897   0.403E-03    0.526E-01
RMM:  60    -0.231040882767E+04   -0.13197E-03   -0.60327E-06  2502   0.229E-03    0.520E-01
RMM:  61    -0.231040973970E+04   -0.91202E-03   -0.25667E-04  3090   0.636E-03    0.478E-01
RMM:  62    -0.231041095295E+04   -0.12133E-02   -0.61140E-04  3734   0.995E-03    0.446E-01
RMM:  63    -0.231041173795E+04   -0.78501E-03   -0.39701E-04  3212   0.819E-03    0.438E-01
RMM:  64    -0.231041274831E+04   -0.10104E-02   -0.53270E-04  3751   0.934E-03    0.449E-01
RMM:  65    -0.231041454826E+04   -0.18000E-02   -0.12406E-03  4103   0.147E-02    0.521E-01
RMM:  66    -0.231041552758E+04   -0.97932E-03   -0.54993E-04  3485   0.107E-02    0.570E-01
RMM:  67    -0.231041580632E+04   -0.27874E-03   -0.12096E-04  2954   0.543E-03    0.584E-01
RMM:  68    -0.231041656376E+04   -0.75744E-03   -0.13496E-04  3085   0.561E-03    0.639E-01
RMM:  69    -0.231041608446E+04    0.47930E-03   -0.40980E-05  2745   0.437E-03    0.603E-01
RMM:  70    -0.231041370913E+04    0.23753E-02   -0.16280E-03  4087   0.155E-02    0.472E-01
RMM:  71    -0.231041227428E+04    0.14349E-02   -0.10163E-03  3783   0.148E-02    0.447E-01
RMM:  72    -0.231041113208E+04    0.11422E-02   -0.98336E-04  4260   0.125E-02    0.455E-01
RMM:  73    -0.231041044378E+04    0.68830E-03   -0.35606E-04  3317   0.890E-03    0.474E-01
RMM:  74    -0.231040949842E+04    0.94536E-03   -0.46830E-04  3860   0.940E-03    0.512E-01
RMM:  75    -0.231040886228E+04    0.63614E-03   -0.23595E-04  3118   0.778E-03    0.546E-01
RMM:  76    -0.231040850112E+04    0.36116E-03   -0.10580E-04  2961   0.536E-03    0.567E-01
RMM:  77    -0.231040766962E+04    0.83150E-03   -0.27017E-04  3535   0.743E-03    0.625E-01
RMM:  78    -0.231040762458E+04    0.45044E-04   -0.22208E-05  2839   0.408E-03    0.626E-01
RMM:  79    -0.231040757897E+04    0.45607E-04   -0.62175E-06  2569   0.159E-03    0.627E-01
RMM:  80    -0.231040762574E+04   -0.46765E-04   -0.11337E-06  2347   0.140E-03    0.623E-01
RMM:  81    -0.231040776175E+04   -0.13601E-03   -0.85901E-06  2186   0.133E-03    0.611E-01
RMM:  82    -0.231040976927E+04   -0.20075E-02   -0.12611E-03  4143   0.138E-02    0.503E-01
RMM:  83    -0.231040921957E+04    0.54971E-03   -0.63626E-05  2874   0.577E-03    0.509E-01
RMM:  84    -0.231040889136E+04    0.32820E-03   -0.39071E-05  2599   0.323E-03    0.523E-01
RMM:  85    -0.231040889249E+04   -0.11331E-05   -0.20303E-06  2016   0.179E-03
  38 F= -.23313021E+04 E0= -.23312981E+04  d E =-.226714E+00  mag=     5.0749
       N       E                     dE             d eps       ncg     rms          rms(c)
DAV:   1    -0.231041417128E+04   -0.52799E-02   -0.52547E+00  4464   0.180E+00    0.906E-01
RMM:   2    -0.231048465104E+04   -0.70480E-01   -0.71872E-01  6172   0.383E-01    0.789E-01
RMM:   3    -0.231049242981E+04   -0.77788E-02   -0.83124E-02  5481   0.158E-01    0.960E-01
RMM:   4    -0.231049375583E+04   -0.13260E-02   -0.88930E-03  4835   0.304E-02    0.909E-01
RMM:   5    -0.231049130004E+04    0.24558E-02   -0.81433E-03  5063   0.325E-02    0.938E-01
RMM:   6    -0.231048760020E+04    0.36998E-02   -0.69555E-03  4524   0.314E-02    0.774E-01
RMM:   7    -0.231048534661E+04    0.22536E-02   -0.11396E-02  5379   0.447E-02    0.108E+00
RMM:   8    -0.231047224153E+04    0.13105E-01   -0.10527E-02  4694   0.428E-02    0.136E+00
RMM:   9    -0.231048576906E+04   -0.13528E-01   -0.16946E-02  4556   0.512E-02    0.670E-01
RMM:  10    -0.231048797942E+04   -0.22104E-02   -0.66979E-03  4669   0.394E-02    0.502E-01
RMM:  11    -0.231049077172E+04   -0.27923E-02   -0.80641E-03  5043   0.364E-02    0.639E-01
RMM:  12    -0.231049159684E+04   -0.82513E-03   -0.12841E-03  4214   0.189E-02    0.718E-01
RMM:  13    -0.231048925322E+04    0.23436E-02   -0.25524E-03  4102   0.202E-02    0.503E-01
RMM:  14    -0.231048557470E+04    0.36785E-02   -0.83763E-03  4578   0.373E-02    0.567E-01
RMM:  15    -0.231047944410E+04    0.61306E-02   -0.93653E-03  4826   0.416E-02    0.944E-01
RMM:  16    -0.231048416953E+04   -0.47254E-02   -0.22562E-03  4344   0.194E-02    0.663E-01
RMM:  17    -0.231048780458E+04   -0.36351E-02   -0.51762E-03  4580   0.286E-02    0.501E-01
RMM:  18    -0.231048987657E+04   -0.20720E-02   -0.27926E-03  4450   0.232E-02    0.535E-01
RMM:  19    -0.231049183518E+04   -0.19586E-02   -0.20402E-03  4465   0.180E-02    0.649E-01
RMM:  20    -0.231049155585E+04    0.27933E-03   -0.11763E-04  2914   0.698E-03    0.620E-01
RMM:  21    -0.231049155189E+04    0.39552E-05   -0.25778E-05  2874   0.270E-03
  39 F= -.23313862E+04 E0= -.23313756E+04  d E =-.840908E-01  mag=     4.8177
       N       E                     dE             d eps       ncg     rms          rms(c)
DAV:   1    -0.230994359168E+04    0.54796E+00   -0.46638E+01  4464   0.542E+00    0.208E+00
RMM:   2    -0.231058844738E+04   -0.64486E+00   -0.67559E+00  6273   0.117E+00    0.145E+00
RMM:   3    -0.231064146438E+04   -0.53017E-01   -0.77273E-01  5865   0.461E-01    0.137E+00
RMM:   4    -0.231063269995E+04    0.87644E-02   -0.84029E-02  6198   0.113E-01    0.105E+00
RMM:   5    -0.231062934806E+04    0.33519E-02   -0.17873E-02  5373   0.566E-02    0.732E-01
RMM:   6    -0.231062994022E+04   -0.59216E-03   -0.13143E-02  5749   0.483E-02    0.109E+00
RMM:   7    -0.231062743427E+04    0.25059E-02   -0.33422E-03  5023   0.269E-02    0.915E-01
RMM:   8    -0.231062753182E+04   -0.97550E-04   -0.48193E-04  3038   0.783E-03    0.943E-01
RMM:   9    -0.231062474624E+04    0.27856E-02   -0.46322E-03  4784   0.291E-02    0.239E-01
RMM:  10    -0.231062439411E+04    0.35213E-03   -0.16049E-03  4705   0.224E-02    0.142E-01
RMM:  11    -0.231062431033E+04    0.83776E-04   -0.34177E-04  3971   0.105E-02    0.127E-01
RMM:  12    -0.231062415731E+04    0.15302E-03   -0.37643E-04  3743   0.106E-02    0.129E-01
RMM:  13    -0.231062406845E+04    0.88864E-04   -0.12492E-04  3025   0.686E-03    0.129E-01
RMM:  14    -0.231062395895E+04    0.10950E-03   -0.91352E-05  2973   0.554E-03    0.135E-01
RMM:  15    -0.231062398279E+04   -0.23835E-04   -0.81401E-06  2851   0.360E-03    0.133E-01
RMM:  16    -0.231062405563E+04   -0.72849E-04   -0.46858E-05  2796   0.321E-03    0.116E-01
RMM:  17    -0.231062425443E+04   -0.19879E-03   -0.29895E-04  3325   0.663E-03    0.970E-02
RMM:  18    -0.231062455796E+04   -0.30353E-03   -0.77989E-04  3797   0.107E-02    0.107E-01
RMM:  19    -0.231062476807E+04   -0.21011E-03   -0.48869E-04  3374   0.987E-03    0.135E-01
RMM:  20    -0.231062454900E+04    0.21907E-03   -0.28542E-04  3128   0.733E-03    0.110E-01
RMM:  21    -0.231062431813E+04    0.23087E-03   -0.62713E-04  3819   0.101E-02    0.115E-01
RMM:  22    -0.231062372234E+04    0.59579E-03   -0.26630E-03  4332   0.203E-02    0.191E-01
RMM:  23    -0.231062397690E+04   -0.25456E-03   -0.20759E-04  3063   0.887E-03    0.155E-01
RMM:  24    -0.231062420843E+04   -0.23154E-03   -0.44498E-04  3649   0.882E-03    0.121E-01
RMM:  25    -0.231062448059E+04   -0.27215E-03   -0.69886E-04  3798   0.111E-02    0.117E-01
RMM:  26    -0.231062502213E+04   -0.54155E-03   -0.18234E-03  4391   0.167E-02    0.174E-01
RMM:  27    -0.231062520149E+04   -0.17936E-03   -0.36915E-04  3234   0.960E-03    0.201E-01
RMM:  28    -0.231062488897E+04    0.31252E-03   -0.24011E-04  3050   0.697E-03    0.154E-01
RMM:  29    -0.231062448788E+04    0.40109E-03   -0.10985E-03  3974   0.127E-02    0.121E-01
RMM:  30    -0.231062418135E+04    0.30653E-03   -0.97747E-04  3792   0.130E-02    0.131E-01
RMM:  31    -0.231062365760E+04    0.52375E-03   -0.20058E-03  4556   0.173E-02    0.208E-01
RMM:  32    -0.231062328973E+04    0.36788E-03   -0.67721E-04  3710   0.121E-02    0.267E-01
RMM:  33    -0.231062337571E+04   -0.85982E-04   -0.64086E-05  2898   0.421E-03    0.254E-01
RMM:  34    -0.231062357004E+04   -0.19433E-03   -0.98372E-05  2790   0.443E-03    0.220E-01
RMM:  35    -0.231062386039E+04   -0.29035E-03   -0.37766E-04  3441   0.755E-03    0.169E-01
RMM:  36    -0.231062423039E+04   -0.37000E-03   -0.10569E-03  3939   0.124E-02    0.118E-01
RMM:  37    -0.231062448366E+04   -0.25327E-03   -0.81111E-04  3774   0.121E-02    0.111E-01
RMM:  38    -0.231062466054E+04   -0.17688E-03   -0.44958E-04  3528   0.854E-03    0.122E-01
RMM:  39    -0.231062480191E+04   -0.14137E-03   -0.19861E-04  3018   0.688E-03    0.140E-01
RMM:  40    -0.231062487088E+04   -0.68971E-04   -0.63501E-05  2882   0.472E-03    0.150E-01
RMM:  41    -0.231062488510E+04   -0.14215E-04   -0.13941E-05  2748   0.302E-03    0.152E-01
RMM:  42    -0.231062488427E+04    0.82827E-06   -0.18404E-06  2445   0.165E-03
  40 F= -.23315235E+04 E0= -.23315145E+04  d E =-.221384E+00  mag=     4.7101
       N       E                     dE             d eps       ncg     rms          rms(c)
DAV:   1    -0.231072095761E+04   -0.96073E-01   -0.39414E+00  4464   0.179E+00    0.829E-01
RMM:   2    -0.231078071178E+04   -0.59754E-01   -0.60179E-01  5887   0.412E-01    0.981E-01
RMM:   3    -0.231078277769E+04   -0.20659E-02   -0.77268E-02  5744   0.180E-01    0.843E-01
RMM:   4    -0.231077867086E+04    0.41068E-02   -0.79428E-03  4873   0.462E-02    0.383E-01
RMM:   5    -0.231077741312E+04    0.12577E-02   -0.45382E-03  5272   0.440E-02    0.227E-01
RMM:   6    -0.231077749782E+04   -0.84703E-04   -0.24417E-03  5558   0.270E-02    0.261E-01
RMM:   7    -0.231077677215E+04    0.72568E-03   -0.87513E-04  4351   0.150E-02    0.776E-02
RMM:   8    -0.231077687446E+04   -0.10231E-03   -0.23794E-04  3839   0.870E-03    0.450E-02
RMM:   9    -0.231077709939E+04   -0.22493E-03   -0.83108E-05  3460   0.760E-03    0.265E-02
RMM:  10    -0.231077729771E+04   -0.19832E-03   -0.36923E-05  3106   0.559E-03    0.202E-02
RMM:  11    -0.231077748774E+04   -0.19003E-03   -0.32277E-05  3137   0.521E-03    0.148E-02
RMM:  12    -0.231077761433E+04   -0.12660E-03   -0.30085E-05  3109   0.503E-03    0.802E-03
RMM:  13    -0.231077766282E+04   -0.48491E-04   -0.10930E-05  2848   0.405E-03    0.457E-03
RMM:  14    -0.231077769667E+04   -0.33841E-04   -0.80934E-06  2827   0.308E-03    0.238E-03
RMM:  15    -0.231077770708E+04   -0.10411E-04   -0.35773E-06  2621   0.263E-03    0.140E-03
RMM:  16    -0.231077771159E+04   -0.45154E-05   -0.22479E-06  2468   0.172E-03
  41 F= -.23316769E+04 E0= -.23316746E+04  d E =-.153448E+00  mag=     4.9436
       N       E                     dE             d eps       ncg     rms          rms(c)
DAV:   1    -0.231058277018E+04    0.19494E+00   -0.23219E+01  4464   0.438E+00    0.173E+00
RMM:   2    -0.231091087018E+04   -0.32810E+00   -0.35478E+00  5912   0.101E+00    0.143E+00
RMM:   3    -0.231094314886E+04   -0.32279E-01   -0.45903E-01  5760   0.445E-01    0.146E+00
RMM:   4    -0.231092698508E+04    0.16164E-01   -0.45765E-02  5642   0.108E-01    0.633E-01
RMM:   5    -0.231092333243E+04    0.36527E-02   -0.15976E-02  5196   0.841E-02    0.434E-01
RMM:   6    -0.231092325486E+04    0.77568E-04   -0.10349E-02  5561   0.603E-02    0.451E-01
RMM:   7    -0.231092082227E+04    0.24326E-02   -0.29920E-03  5560   0.347E-02    0.101E-01
RMM:   8    -0.231092062377E+04    0.19849E-03   -0.56996E-04  4685   0.128E-02    0.517E-02
RMM:   9    -0.231092056822E+04    0.55559E-04   -0.13834E-04  3975   0.107E-02    0.279E-02
RMM:  10    -0.231092055623E+04    0.11980E-04   -0.65039E-05  3645   0.652E-03    0.162E-02
RMM:  11    -0.231092055491E+04    0.13205E-05   -0.19630E-05  2915   0.591E-03
  42 F= -.23318212E+04 E0= -.23318210E+04  d E =-.297713E+00  mag=     4.9910
       N       E                     dE             d eps       ncg     rms          rms(c)
DAV:   1    -0.231087152882E+04    0.49027E-01   -0.69733E+00  4496   0.228E+00    0.904E-01
RMM:   2    -0.231099720501E+04   -0.12568E+00   -0.13195E+00  6066   0.523E-01    0.854E-01
RMM:   3    -0.231100932039E+04   -0.12115E-01   -0.16343E-01  5863   0.215E-01    0.732E-01
RMM:   4    -0.231100515476E+04    0.41656E-02   -0.15172E-02  5779   0.483E-02    0.278E-01
RMM:   5    -0.231100406713E+04    0.10876E-02   -0.27678E-03  5187   0.274E-02    0.150E-01
RMM:   6    -0.231100389298E+04    0.17416E-03   -0.13142E-03  4988   0.223E-02    0.783E-02
RMM:   7    -0.231100383757E+04    0.55412E-04   -0.19172E-04  4169   0.113E-02    0.349E-02
RMM:   8    -0.231100384182E+04   -0.42542E-05   -0.63929E-05  2930   0.520E-03
  43 F= -.23319059E+04 E0= -.23319058E+04  d E =-.846962E-01  mag=     4.9971
       N       E                     dE             d eps       ncg     rms          rms(c)
DAV:   1    -0.231081578617E+04    0.18805E+00   -0.11995E+01  4464   0.298E+00    0.117E+00
RMM:   2    -0.231103063515E+04   -0.21485E+00   -0.22809E+00  6072   0.687E-01    0.101E+00
RMM:   3    -0.231105463578E+04   -0.24001E-01   -0.28853E-01  5862   0.284E-01    0.984E-01
RMM:   4    -0.231104713316E+04    0.75026E-02   -0.26665E-02  6042   0.637E-02    0.375E-01
RMM:   5    -0.231104541505E+04    0.17181E-02   -0.46741E-03  5121   0.340E-02    0.218E-01
RMM:   6    -0.231104524405E+04    0.17100E-03   -0.30248E-03  5202   0.295E-02    0.201E-01
RMM:   7    -0.231104500686E+04    0.23718E-03   -0.10083E-03  5014   0.190E-02    0.107E-01
RMM:   8    -0.231104485832E+04    0.14854E-03   -0.16948E-04  3374   0.762E-03    0.372E-02
RMM:   9    -0.231104483666E+04    0.21659E-04   -0.88282E-05  2934   0.649E-03    0.171E-02
RMM:  10    -0.231104483571E+04    0.95471E-06   -0.20665E-05  2898   0.450E-03
  44 F= -.23319487E+04 E0= -.23319487E+04  d E =-.127493E+00  mag=     4.9994
       N       E                     dE             d eps       ncg     rms          rms(c)
DAV:   1    -0.231096863310E+04    0.76204E-01   -0.77018E+00  4432   0.253E+00    0.983E-01
RMM:   2    -0.231112936536E+04   -0.16073E+00   -0.16280E+00  6006   0.595E-01    0.111E+00
RMM:   3    -0.231113969707E+04   -0.10332E-01   -0.19543E-01  5870   0.236E-01    0.716E-01
RMM:   4    -0.231113629932E+04    0.33978E-02   -0.17940E-02  5350   0.555E-02    0.316E-01
RMM:   5    -0.231113500876E+04    0.12906E-02   -0.28286E-03  5145   0.345E-02    0.168E-01
RMM:   6    -0.231113487594E+04    0.13282E-03   -0.16307E-03  4823   0.261E-02    0.121E-01
RMM:   7    -0.231113486113E+04    0.14815E-04   -0.49207E-04  4460   0.172E-02    0.966E-02
RMM:   8    -0.231113475611E+04    0.10502E-03   -0.12060E-04  3130   0.671E-03    0.349E-02
RMM:   9    -0.231113474858E+04    0.75296E-05   -0.55900E-05  2880   0.547E-03
  45 F= -.23320400E+04 E0= -.23320400E+04  d E =-.913112E-01  mag=     4.9998
       N       E                     dE             d eps       ncg     rms          rms(c)
DAV:   1    -0.231089533550E+04    0.23942E+00   -0.13196E+01  4432   0.333E+00    0.128E+00
RMM:   2    -0.231116974263E+04   -0.27441E+00   -0.27933E+00  6027   0.783E-01    0.140E+00
RMM:   3    -0.231119022652E+04   -0.20484E-01   -0.34881E-01  5863   0.313E-01    0.951E-01
RMM:   4    -0.231118425651E+04    0.59700E-02   -0.31368E-02  5505   0.740E-02    0.429E-01
RMM:   5    -0.231118222746E+04    0.20290E-02   -0.51846E-03  5170   0.447E-02    0.255E-01
RMM:   6    -0.231118248671E+04   -0.25925E-03   -0.37242E-03  5302   0.341E-02    0.307E-01
RMM:   7    -0.231118170523E+04    0.78149E-03   -0.16135E-03  5316   0.251E-02    0.109E-01
RMM:   8    -0.231118160805E+04    0.97171E-04   -0.27442E-04  3992   0.979E-03    0.516E-02
RMM:   9    -0.231118160546E+04    0.25902E-05   -0.12019E-04  3100   0.844E-03    0.207E-02
RMM:  10    -0.231118162225E+04   -0.16785E-04   -0.33089E-05  2922   0.499E-03    0.852E-03
RMM:  11    -0.231118163474E+04   -0.12493E-04   -0.93752E-06  2863   0.381E-03    0.487E-03
RMM:  12    -0.231118164262E+04   -0.78816E-05   -0.52295E-06  2825   0.280E-03
  46 F= -.23320886E+04 E0= -.23320886E+04  d E =-.139905E+00  mag=     4.9999
       N       E                     dE             d eps       ncg     rms          rms(c)
DAV:   1    -0.231112526402E+04    0.56371E-01   -0.47004E+00  4456   0.202E+00    0.793E-01
RMM:   2    -0.231121714336E+04   -0.91879E-01   -0.93193E-01  5983   0.450E-01    0.794E-01
RMM:   3    -0.231122310540E+04   -0.59620E-02   -0.11730E-01  5790   0.196E-01    0.528E-01
RMM:   4    -0.231122110387E+04    0.20015E-02   -0.10731E-02  5636   0.438E-02    0.238E-01
RMM:   5    -0.231122046575E+04    0.63812E-03   -0.18456E-03  5205   0.247E-02    0.165E-01
RMM:   6    -0.231122037992E+04    0.85829E-04   -0.11924E-03  5069   0.187E-02    0.160E-01
RMM:   7    -0.231122012560E+04    0.25432E-03   -0.48478E-04  4879   0.143E-02    0.514E-02
RMM:   8    -0.231122010322E+04    0.22379E-04   -0.90621E-05  3051   0.781E-03    0.269E-02
RMM:   9    -0.231122009550E+04    0.77255E-05   -0.31330E-05  2884   0.491E-03
  47 F= -.23321274E+04 E0= -.23321274E+04  d E =-.388174E-01  mag=     4.9998
       N       E                     dE             d eps       ncg     rms          rms(c)
DAV:   1    -0.231116902994E+04    0.51073E-01   -0.29208E+00  4544   0.160E+00    0.628E-01
RMM:   2    -0.231122760163E+04   -0.58572E-01   -0.59522E-01  6002   0.358E-01    0.614E-01
RMM:   3    -0.231123165866E+04   -0.40570E-02   -0.75888E-02  5781   0.156E-01    0.406E-01
RMM:   4    -0.231123045604E+04    0.12026E-02   -0.67245E-03  5415   0.342E-02    0.189E-01
RMM:   5    -0.231123003750E+04    0.41854E-03   -0.11588E-03  5134   0.199E-02    0.129E-01
RMM:   6    -0.231122998776E+04    0.49741E-04   -0.75216E-04  4777   0.149E-02    0.128E-01
RMM:   7    -0.231122982062E+04    0.16713E-03   -0.31032E-04  4575   0.117E-02    0.373E-02
RMM:   8    -0.231122980872E+04    0.11907E-04   -0.54896E-05  2927   0.664E-03    0.220E-02
RMM:   9    -0.231122980372E+04    0.50024E-05   -0.23505E-05  2863   0.434E-03
  48 F= -.23321373E+04 E0= -.23321373E+04  d E =-.487784E-01  mag=     4.9996
       N       E                     dE             d eps       ncg     rms          rms(c)
DAV:   1    -0.231117612635E+04    0.53682E-01   -0.35122E+00  4448   0.167E+00    0.656E-01
RMM:   2    -0.231125343757E+04   -0.77311E-01   -0.79470E-01  6182   0.388E-01    0.568E-01
RMM:   3    -0.231126073166E+04   -0.72941E-02   -0.10433E-01  5850   0.166E-01    0.426E-01
RMM:   4    -0.231125951088E+04    0.12208E-02   -0.88681E-03  5547   0.358E-02    0.208E-01
RMM:   5    -0.231125902405E+04    0.48683E-03   -0.10874E-03  4680   0.176E-02    0.123E-01
RMM:   6    -0.231125907644E+04   -0.52382E-04   -0.76983E-04  4650   0.151E-02    0.152E-01
RMM:   7    -0.231125887952E+04    0.19692E-03   -0.39893E-04  4333   0.119E-02    0.517E-02
RMM:   8    -0.231125886449E+04    0.15029E-04   -0.86108E-05  2948   0.679E-03    0.240E-02
RMM:   9    -0.231125886650E+04   -0.20056E-05   -0.17317E-05  2867   0.436E-03
  49 F= -.23321666E+04 E0= -.23321665E+04  d E =-.292709E-01  mag=     4.9989
       N       E                     dE             d eps       ncg     rms          rms(c)
DAV:   1    -0.231114447760E+04    0.11439E+00   -0.54130E+00  4432   0.208E+00    0.819E-01
RMM:   2    -0.231126441166E+04   -0.11993E+00   -0.12346E+00  6181   0.485E-01    0.704E-01
RMM:   3    -0.231127559007E+04   -0.11178E-01   -0.16459E-01  5865   0.205E-01    0.516E-01
RMM:   4    -0.231127379136E+04    0.17987E-02   -0.13674E-02  5804   0.443E-02    0.254E-01
RMM:   5    -0.231127302337E+04    0.76799E-03   -0.16735E-03  4822   0.209E-02    0.146E-01
RMM:   6    -0.231127301864E+04    0.47328E-05   -0.10679E-03  4928   0.183E-02    0.160E-01
RMM:   7    -0.231127283668E+04    0.18196E-03   -0.55612E-04  4629   0.138E-02    0.748E-02
RMM:   8    -0.231127279262E+04    0.44058E-04   -0.12610E-04  3028   0.708E-03    0.303E-02
RMM:   9    -0.231127279469E+04   -0.20690E-05   -0.25879E-05  2873   0.496E-03
  50 F= -.23321807E+04 E0= -.23321805E+04  d E =-.433788E-01  mag=     4.9966
       N       E                     dE             d eps       ncg     rms          rms(c)
DAV:   1    -0.231125712011E+04    0.15673E-01   -0.19356E+00  4544   0.133E+00    0.482E-01
RMM:   2    -0.231128898943E+04   -0.31869E-01   -0.33835E-01  6001   0.289E-01    0.229E-01
RMM:   3    -0.231129224065E+04   -0.32512E-02   -0.41560E-02  5647   0.123E-01    0.182E-01
RMM:   4    -0.231129227080E+04   -0.30154E-04   -0.38282E-03  5010   0.249E-02    0.149E-01
RMM:   5    -0.231129205974E+04    0.21106E-03   -0.58080E-04  4478   0.144E-02    0.846E-02
RMM:   6    -0.231129200346E+04    0.56277E-04   -0.31983E-04  4403   0.116E-02    0.539E-02
RMM:   7    -0.231129200463E+04   -0.11636E-05   -0.10683E-04  2931   0.844E-03    0.494E-02
RMM:   8    -0.231129198221E+04    0.22412E-04   -0.32793E-05  2889   0.498E-03    0.113E-02
RMM:   9    -0.231129198302E+04   -0.80231E-06   -0.91374E-06  2875   0.353E-03
  51 F= -.23322002E+04 E0= -.23322000E+04  d E =-.194378E-01  mag=     4.9968
       N       E                     dE             d eps       ncg     rms          rms(c)
DAV:   1    -0.231121537840E+04    0.76604E-01   -0.48649E+00  4464   0.210E+00    0.762E-01
RMM:   2    -0.231129582217E+04   -0.80444E-01   -0.85450E-01  6003   0.461E-01    0.362E-01
RMM:   3    -0.231130412797E+04   -0.83058E-02   -0.10620E-01  5675   0.194E-01    0.302E-01
RMM:   4    -0.231130409987E+04    0.28106E-04   -0.96665E-03  5743   0.394E-02    0.236E-01
RMM:   5    -0.231130358806E+04    0.51181E-03   -0.14208E-03  5075   0.210E-02    0.139E-01
RMM:   6    -0.231130340607E+04    0.18200E-03   -0.83537E-04  4994   0.175E-02    0.786E-02
RMM:   7    -0.231130343303E+04   -0.26965E-04   -0.28277E-04  3934   0.121E-02    0.876E-02
RMM:   8    -0.231130336027E+04    0.72765E-04   -0.90450E-05  3002   0.648E-03    0.197E-02
RMM:   9    -0.231130336053E+04   -0.26668E-06   -0.21911E-05  2885   0.486E-03
  52 F= -.23322119E+04 E0= -.23322117E+04  d E =-.311353E-01  mag=     4.9976
       N       E                     dE             d eps       ncg     rms          rms(c)
DAV:   1    -0.231128663664E+04    0.16724E-01   -0.16242E+00  4544   0.117E+00    0.430E-01
RMM:   2    -0.231131480966E+04   -0.28173E-01   -0.29916E-01  6073   0.254E-01    0.224E-01
RMM:   3    -0.231131806972E+04   -0.32601E-02   -0.38606E-02  5720   0.108E-01    0.230E-01
RMM:   4    -0.231131781576E+04    0.25395E-03   -0.34233E-03  4433   0.221E-02    0.128E-01
RMM:   5    -0.231131764374E+04    0.17202E-03   -0.43745E-04  4147   0.123E-02    0.755E-02
RMM:   6    -0.231131761570E+04    0.28038E-04   -0.31850E-04  4182   0.106E-02    0.683E-02
RMM:   7    -0.231131758481E+04    0.30895E-04   -0.11274E-04  2953   0.818E-03    0.356E-02
RMM:   8    -0.231131757460E+04    0.10204E-04   -0.25600E-05  2916   0.490E-03    0.103E-02
RMM:   9    -0.231131757510E+04   -0.50174E-06   -0.85788E-06  2869   0.374E-03
  53 F= -.23322264E+04 E0= -.23322263E+04  d E =-.145601E-01  mag=     4.9984
       N       E                     dE             d eps       ncg     rms          rms(c)
DAV:   1    -0.231120506591E+04    0.11251E+00   -0.63998E+00  4464   0.231E+00    0.854E-01
RMM:   2    -0.231131698407E+04   -0.11192E+00   -0.11903E+00  6077   0.508E-01    0.434E-01
RMM:   3    -0.231133012045E+04   -0.13136E-01   -0.15692E-01  5748   0.218E-01    0.446E-01
RMM:   4    -0.231132922386E+04    0.89659E-03   -0.13634E-02  5942   0.433E-02    0.264E-01
RMM:   5    -0.231132853626E+04    0.68761E-03   -0.16255E-03  5134   0.203E-02    0.161E-01
RMM:   6    -0.231132831666E+04    0.21959E-03   -0.13719E-03  4888   0.192E-02    0.124E-01
RMM:   7    -0.231132826375E+04    0.52915E-04   -0.50199E-04  4467   0.140E-02    0.958E-02
RMM:   8    -0.231132817970E+04    0.84046E-04   -0.13002E-04  3437   0.749E-03    0.237E-02
[...]
       N       E                     dE             d eps       ncg     rms          rms(c)
DAV:   1    -0.231203998220E+04    0.31171E-03   -0.26546E-02  4480   0.143E-01    0.525E-02
RMM:   2    -0.231204033339E+04   -0.35119E-03   -0.37525E-03  6093   0.308E-02    0.240E-02
RMM:   3    -0.231204036346E+04   -0.30069E-04   -0.38286E-04  2962   0.124E-02    0.220E-02
RMM:   4    -0.231204036549E+04   -0.20292E-05   -0.46540E-05  2918   0.332E-03
 268 F= -.23328307E+04 E0= -.23328307E+04  d E =-.210477E-03  mag=     3.0000
       N       E                     dE             d eps       ncg     rms          rms(c)
DAV:   1    -0.231203983993E+04    0.52353E-03   -0.57204E-02  4464   0.203E-01    0.728E-02
RMM:   2    -0.231204055971E+04   -0.71978E-03   -0.76423E-03  6190   0.436E-02    0.374E-02
RMM:   3    -0.231204062417E+04   -0.64462E-04   -0.80044E-04  3078   0.171E-02    0.381E-02
RMM:   4    -0.231204062064E+04    0.35308E-05   -0.95790E-05  2930   0.486E-03
 269 F= -.23328309E+04 E0= -.23328309E+04  d E =-.207250E-03  mag=     3.0000
       N       E                     dE             d eps       ncg     rms          rms(c)
DAV:   1    -0.231203895515E+04    0.16690E-02   -0.13343E-01  4448   0.310E-01    0.112E-01
RMM:   2    -0.231204064920E+04   -0.16941E-02   -0.18062E-02  6163   0.663E-02    0.541E-02
RMM:   3    -0.231204079626E+04   -0.14706E-03   -0.19013E-03  3647   0.262E-02    0.481E-02
RMM:   4    -0.231204080272E+04   -0.64632E-05   -0.21998E-04  2944   0.664E-03    0.402E-02
RMM:   5    -0.231204078560E+04    0.17119E-04   -0.40219E-05  2931   0.462E-03    0.156E-02
RMM:   6    -0.231204078754E+04   -0.19381E-05   -0.13923E-05  2916   0.390E-03
 270 F= -.23328310E+04 E0= -.23328310E+04  d E =-.301278E-03  mag=     3.0000
       N       E                     dE             d eps       ncg     rms          rms(c)
DAV:   1    -0.231204003674E+04    0.74886E-03   -0.74454E-02  4448   0.225E-01    0.851E-02
RMM:   2    -0.231204099791E+04   -0.96117E-03   -0.10083E-02  6143   0.489E-02    0.589E-02
RMM:   3    -0.231204111338E+04   -0.11547E-03   -0.11299E-03  3254   0.199E-02    0.772E-02
RMM:   4    -0.231204105828E+04    0.55095E-04   -0.12553E-04  2935   0.601E-03    0.236E-02
RMM:   5    -0.231204105405E+04    0.42303E-05   -0.24864E-05  2924   0.345E-03
 271 F= -.23328312E+04 E0= -.23328312E+04  d E =-.248806E-03  mag=     3.0000
       N       E                     dE             d eps       ncg     rms          rms(c)
DAV:   1    -0.231203963283E+04    0.14254E-02   -0.11347E-01  4464   0.278E-01    0.105E-01
RMM:   2    -0.231204107675E+04   -0.14439E-02   -0.15162E-02  6294   0.614E-02    0.687E-02
RMM:   3    -0.231204123210E+04   -0.15534E-03   -0.16337E-03  3500   0.232E-02    0.816E-02
RMM:   4    -0.231204116744E+04    0.64652E-04   -0.19091E-04  2964   0.730E-03    0.324E-02
RMM:   5    -0.231204116870E+04   -0.12530E-05   -0.46567E-05  2912   0.426E-03
 272 F= -.23328313E+04 E0= -.23328313E+04  d E =-.341915E-03  mag=     3.0000
       N       E                     dE             d eps       ncg     rms          rms(c)
DAV:   1    -0.231204033273E+04    0.83472E-03   -0.84401E-02  4464   0.243E-01    0.928E-02
RMM:   2    -0.231204135170E+04   -0.10190E-02   -0.10786E-02  6267   0.538E-02    0.541E-02
RMM:   3    -0.231204146554E+04   -0.11384E-03   -0.11873E-03  3393   0.210E-02    0.670E-02
RMM:   4    -0.231204142687E+04    0.38674E-04   -0.13580E-04  2944   0.649E-03    0.290E-02
RMM:   5    -0.231204142238E+04    0.44876E-05   -0.35165E-05  2903   0.424E-03
 273 F= -.23328315E+04 E0= -.23328315E+04  d E =-.234698E-03  mag=     3.0000
       N       E                     dE             d eps       ncg     rms          rms(c)
DAV:   1    -0.231204089245E+04    0.53442E-03   -0.44751E-02  4528   0.176E-01    0.699E-02
RMM:   2    -0.231204144413E+04   -0.55168E-03   -0.57650E-03  6290   0.398E-02    0.478E-02
RMM:   3    -0.231204150019E+04   -0.56057E-04   -0.66642E-04  3072   0.153E-02    0.505E-02
RMM:   4    -0.231204147444E+04    0.25754E-04   -0.73075E-05  2922   0.525E-03    0.193E-02
RMM:   5    -0.231204147370E+04    0.73935E-06   -0.22541E-05  2903   0.335E-03
 274 F= -.23328316E+04 E0= -.23328316E+04  d E =-.272273E-03  mag=     3.0000
       N       E                     dE             d eps       ncg     rms          rms(c)
DAV:   1    -0.231204038739E+04    0.10870E-02   -0.10770E-01  4464   0.270E-01    0.103E-01
RMM:   2    -0.231204166720E+04   -0.12798E-02   -0.13708E-02  6261   0.592E-02    0.467E-02
RMM:   3    -0.231204176924E+04   -0.10204E-03   -0.14232E-03  3467   0.230E-02    0.318E-02
RMM:   4    -0.231204177900E+04   -0.97569E-05   -0.16312E-04  2967   0.609E-03    0.315E-02
RMM:   5    -0.231204177557E+04    0.34311E-05   -0.37906E-05  2886   0.446E-03
 275 F= -.23328318E+04 E0= -.23328318E+04  d E =-.262422E-03  mag=     3.0000
       N       E                     dE             d eps       ncg     rms          rms(c)
DAV:   1    -0.231204071809E+04    0.10609E-02   -0.86502E-02  4464   0.242E-01    0.934E-02
RMM:   2    -0.231204175628E+04   -0.10382E-02   -0.11077E-02  6268   0.537E-02    0.460E-02
RMM:   3    -0.231204185212E+04   -0.95839E-04   -0.11707E-03  3353   0.208E-02    0.450E-02
RMM:   4    -0.231204184778E+04    0.43401E-05   -0.13978E-04  2955   0.579E-03    0.343E-02
RMM:   5    -0.231204183790E+04    0.98764E-05   -0.30554E-05  2885   0.397E-03
 276 F= -.23328319E+04 E0= -.23328319E+04  d E =-.289446E-03  mag=     3.0000
       N       E                     dE             d eps       ncg     rms          rms(c)
DAV:   1    -0.231204127230E+04    0.57548E-03   -0.58856E-02  4480   0.193E-01    0.756E-02
RMM:   2    -0.231204200284E+04   -0.73054E-03   -0.76812E-03  6296   0.430E-02    0.484E-02
RMM:   3    -0.231204207793E+04   -0.75091E-04   -0.86107E-04  3066   0.164E-02    0.518E-02
RMM:   4    -0.231204205344E+04    0.24487E-04   -0.94679E-05  2926   0.539E-03    0.218E-02
RMM:   5    -0.231204205105E+04    0.23917E-05   -0.22727E-05  2896   0.315E-03
 277 F= -.23328321E+04 E0= -.23328321E+04  d E =-.201942E-03  mag=     3.0000
       N       E                     dE             d eps       ncg     rms          rms(c)
DAV:   1    -0.231203719475E+04    0.48587E-02   -0.38559E-01  4464   0.492E-01    0.188E-01
RMM:   2    -0.231204188415E+04   -0.46894E-02   -0.50130E-02  6227   0.107E-01    0.859E-02
RMM:   3    -0.231204227527E+04   -0.39111E-03   -0.52353E-03  4751   0.413E-02    0.605E-02
RMM:   4    -0.231204230712E+04   -0.31852E-04   -0.58991E-04  3047   0.960E-03    0.554E-02
RMM:   5    -0.231204229412E+04    0.13000E-04   -0.10537E-04  2921   0.652E-03    0.440E-02
RMM:   6    -0.231204227880E+04    0.15319E-04   -0.41344E-05  2954   0.513E-03    0.204E-02
RMM:   7    -0.231204228063E+04   -0.18246E-05   -0.18600E-05  2873   0.407E-03
 278 F= -.23328323E+04 E0= -.23328323E+04  d E =-.403499E-03  mag=     3.0000
       N       E                     dE             d eps       ncg     rms          rms(c)
DAV:   1    -0.231204103780E+04    0.12410E-02   -0.11730E-01  4464   0.276E-01    0.109E-01
RMM:   2    -0.231204250423E+04   -0.14664E-02   -0.15711E-02  6233   0.614E-02    0.544E-02
RMM:   3    -0.231204264952E+04   -0.14529E-03   -0.16754E-03  3582   0.247E-02    0.605E-02
RMM:   4    -0.231204263464E+04    0.14880E-04   -0.19598E-04  2948   0.650E-03    0.366E-02
RMM:   5    -0.231204262227E+04    0.12369E-04   -0.35870E-05  2895   0.424E-03    0.180E-02
RMM:   6    -0.231204262323E+04   -0.95846E-06   -0.17515E-05  2924   0.366E-03
 279 F= -.23328327E+04 E0= -.23328327E+04  d E =-.371820E-03  mag=     3.0000
       N       E                     dE             d eps       ncg     rms          rms(c)
DAV:   1    -0.231204040467E+04    0.22176E-02   -0.17118E-01  4464   0.333E-01    0.131E-01
RMM:   2    -0.231204255130E+04   -0.21466E-02   -0.22959E-02  6185   0.737E-02    0.659E-02
RMM:   3    -0.231204276414E+04   -0.21284E-03   -0.24129E-03  3919   0.280E-02    0.782E-02
RMM:   4    -0.231204273113E+04    0.33013E-04   -0.28425E-04  2978   0.733E-03    0.433E-02
RMM:   5    -0.231204271182E+04    0.19311E-04   -0.49904E-05  2925   0.489E-03    0.193E-02
RMM:   6    -0.231204270870E+04    0.31166E-05   -0.19144E-05  2936   0.419E-03
 280 F= -.23328328E+04 E0= -.23328328E+04  d E =-.492861E-03  mag=     3.0000
       N       E                     dE             d eps       ncg     rms          rms(c)
DAV:   1    -0.231204172013E+04    0.99169E-03   -0.89937E-02  4480   0.242E-01    0.971E-02
RMM:   2    -0.231204289755E+04   -0.11774E-02   -0.12599E-02  6304   0.545E-02    0.529E-02
RMM:   3    -0.231204301557E+04   -0.11802E-03   -0.13515E-03  3342   0.211E-02    0.623E-02
RMM:   4    -0.231204299165E+04    0.23928E-04   -0.15495E-04  2929   0.613E-03    0.290E-02
RMM:   5    -0.231204298912E+04    0.25287E-05   -0.33910E-05  2903   0.392E-03
 281 F= -.23328331E+04 E0= -.23328331E+04  d E =-.285368E-03  mag=     3.0000
       N       E                     dE             d eps       ncg     rms          rms(c)
DAV:   1    -0.231204181428E+04    0.11774E-02   -0.86945E-02  4464   0.238E-01    0.955E-02
RMM:   2    -0.231204295516E+04   -0.11409E-02   -0.12177E-02  6304   0.542E-02    0.552E-02
RMM:   3    -0.231204308641E+04   -0.13125E-03   -0.14412E-03  3330   0.219E-02    0.686E-02
RMM:   4    -0.231204305032E+04    0.36093E-04   -0.16170E-04  2958   0.651E-03    0.301E-02
RMM:   5    -0.231204305281E+04   -0.24894E-05   -0.36356E-05  2925   0.373E-03
 282 F= -.23328331E+04 E0= -.23328331E+04  d E =-.354173E-03  mag=     3.0000
       N       E                     dE             d eps       ncg     rms          rms(c)
DAV:   1    -0.231204186029E+04    0.11900E-02   -0.10505E-01  4464   0.268E-01    0.108E-01
RMM:   2    -0.231204323512E+04   -0.13748E-02   -0.14773E-02  6228   0.605E-02    0.603E-02
RMM:   3    -0.231204339955E+04   -0.16443E-03   -0.17358E-03  3574   0.246E-02    0.825E-02
RMM:   4    -0.231204335083E+04    0.48717E-04   -0.18863E-04  2932   0.693E-03    0.329E-02
RMM:   5    -0.231204334617E+04    0.46681E-05   -0.41234E-05  2921   0.435E-03
 283 F= -.23328334E+04 E0= -.23328334E+04  d E =-.253068E-03  mag=     3.0000
       N       E                     dE             d eps       ncg     rms          rms(c)
DAV:   1    -0.231204283642E+04    0.51442E-03   -0.38604E-02  4560   0.162E-01    0.667E-02
RMM:   2    -0.231204335555E+04   -0.51913E-03   -0.55086E-03  6238   0.377E-02    0.473E-02
RMM:   3    -0.231204341415E+04   -0.58596E-04   -0.68239E-04  3019   0.150E-02    0.540E-02
RMM:   4    -0.231204338681E+04    0.27334E-04   -0.71266E-05  2922   0.511E-03    0.211E-02
RMM:   5    -0.231204338948E+04   -0.26647E-05   -0.23726E-05  2896   0.278E-03
 284 F= -.23328334E+04 E0= -.23328334E+04  d E =-.271999E-03  mag=     3.0000
       N       E                     dE             d eps       ncg     rms          rms(c)
DAV:   1    -0.231204201414E+04    0.13727E-02   -0.11292E-01  4464   0.275E-01    0.108E-01
RMM:   2    -0.231204355745E+04   -0.15433E-02   -0.16692E-02  6180   0.631E-02    0.528E-02
RMM:   3    -0.231204370584E+04   -0.14838E-03   -0.18383E-03  3563   0.251E-02    0.542E-02
RMM:   4    -0.231204370500E+04    0.83161E-06   -0.20699E-04  2946   0.638E-03    0.410E-02
RMM:   5    -0.231204368888E+04    0.16123E-04   -0.38048E-05  2922   0.424E-03    0.172E-02
RMM:   6    -0.231204368952E+04   -0.64184E-06   -0.15725E-05  2903   0.373E-03
 285 F= -.23328337E+04 E0= -.23328337E+04  d E =-.260798E-03  mag=     3.0000
       N       E                     dE             d eps       ncg     rms          rms(c)
DAV:   1    -0.231204322154E+04    0.46735E-03   -0.34028E-02  4496   0.151E-01    0.603E-02
RMM:   2    -0.231204369146E+04   -0.46993E-03   -0.50587E-03  6108   0.346E-02    0.325E-02
RMM:   3    -0.231204374141E+04   -0.49945E-04   -0.55498E-04  2999   0.138E-02    0.370E-02
RMM:   4    -0.231204373189E+04    0.95195E-05   -0.64072E-05  2931   0.412E-03
 286 F= -.23328337E+04 E0= -.23328337E+04  d E =-.281697E-03  mag=     3.0000
       N       E                     dE             d eps       ncg     rms          rms(c)
DAV:   1    -0.231204199100E+04    0.17504E-02   -0.14152E-01  4464   0.320E-01    0.126E-01
RMM:   2    -0.231204387672E+04   -0.18857E-02   -0.20175E-02  6107   0.713E-02    0.766E-02
RMM:   3    -0.231204409470E+04   -0.21798E-03   -0.22876E-03  4002   0.292E-02    0.103E-01
RMM:   4    -0.231204401453E+04    0.80176E-04   -0.26087E-04  2948   0.789E-03    0.380E-02
RMM:   5    -0.231204401237E+04    0.21523E-05   -0.64228E-05  2943   0.519E-03
 287 F= -.23328340E+04 E0= -.23328340E+04  d E =-.271703E-03  mag=     3.0000
       N       E                     dE             d eps       ncg     rms          rms(c)
DAV:   1    -0.231204382779E+04    0.18673E-03   -0.11763E-02  4928   0.927E-02    0.396E-02
RMM:   2    -0.231204400056E+04   -0.17277E-03   -0.17678E-03  5635   0.221E-02    0.387E-02
RMM:   3    -0.231204400772E+04   -0.71594E-05   -0.20614E-04  2900   0.914E-03    0.299E-02
RMM:   4    -0.231204400033E+04    0.73905E-05   -0.23915E-05  2894   0.331E-03
 288 F= -.23328339E+04 E0= -.23328339E+04  d E =-.257107E-03  mag=     3.0000
       N       E                     dE             d eps       ncg     rms          rms(c)
DAV:   1    -0.231204245495E+04    0.15528E-02   -0.13014E-01  4464   0.313E-01    0.119E-01
RMM:   2    -0.231204413489E+04   -0.16799E-02   -0.18071E-02  6087   0.689E-02    0.617E-02
RMM:   3    -0.231204430302E+04   -0.16813E-03   -0.19568E-03  3762   0.279E-02    0.767E-02
RMM:   4    -0.231204427347E+04    0.29552E-04   -0.23297E-04  2944   0.739E-03    0.407E-02
RMM:   5    -0.231204425837E+04    0.15102E-04   -0.58996E-05  2962   0.527E-03    0.222E-02
RMM:   6    -0.231204425941E+04   -0.10410E-05   -0.27032E-05  2897   0.478E-03
 289 F= -.23328342E+04 E0= -.23328342E+04  d E =-.224215E-03  mag=     3.0000
       N       E                     dE             d eps       ncg     rms          rms(c)
DAV:   1    -0.231204423599E+04    0.22375E-04   -0.11648E-03  5072   0.301E-02    0.130E-02
RMM:   2    -0.231204425257E+04   -0.16575E-04   -0.18010E-04  3104   0.735E-03    0.890E-03
RMM:   3    -0.231204425474E+04   -0.21698E-05   -0.20020E-05  2678   0.460E-03
 290 F= -.23328342E+04 E0= -.23328342E+04  d E =-.216166E-03  mag=     3.0000
       N       E                     dE             d eps       ncg     rms          rms(c)
DAV:   1    -0.231204335150E+04    0.90107E-03   -0.88570E-02  4480   0.267E-01    0.102E-01
RMM:   2    -0.231204442135E+04   -0.10698E-02   -0.11662E-02  5952   0.578E-02    0.459E-02
RMM:   3    -0.231204450011E+04   -0.78763E-04   -0.12026E-03  3633   0.236E-02    0.339E-02
RMM:   4    -0.231204451437E+04   -0.14259E-04   -0.15106E-04  2955   0.646E-03    0.404E-02
RMM:   5    -0.231204449722E+04    0.17153E-04   -0.42727E-05  2925   0.483E-03    0.192E-02
RMM:   6    -0.231204449683E+04    0.39153E-06   -0.15100E-05  2867   0.395E-03
 291 F= -.23328343E+04 E0= -.23328343E+04  d E =-.168556E-03  mag=     3.0000
       N       E                     dE             d eps       ncg     rms          rms(c)
DAV:   1    -0.231204449287E+04    0.43466E-05   -0.71419E-05  4968   0.826E-03    0.706E-03
RMM:   2    -0.231204449570E+04   -0.28291E-05   -0.12207E-05  2674   0.252E-03
 292 F= -.23328343E+04 E0= -.23328343E+04  d E =-.169142E-03  mag=     3.0000
       N       E                     dE             d eps       ncg     rms          rms(c)
DAV:   1    -0.231204414425E+04    0.34863E-03   -0.43289E-02  4480   0.188E-01    0.710E-02
RMM:   2    -0.231204462527E+04   -0.48102E-03   -0.52597E-03  5966   0.410E-02    0.356E-02
RMM:   3    -0.231204467225E+04   -0.46986E-04   -0.55910E-04  3267   0.173E-02    0.445E-02
RMM:   4    -0.231204465885E+04    0.13402E-04   -0.67612E-05  2926   0.485E-03    0.239E-02
RMM:   5    -0.231204465479E+04    0.40587E-05   -0.21011E-05  2896   0.341E-03
 293 F= -.23328344E+04 E0= -.23328344E+04  d E =-.121398E-03  mag=     3.0000
       N       E                     dE             d eps       ncg     rms          rms(c)
DAV:   1    -0.231204465184E+04    0.70054E-05   -0.10345E-04  5216   0.104E-02    0.108E-02
RMM:   2    -0.231204465871E+04   -0.68695E-05   -0.28234E-05  2755   0.323E-03
 294 F= -.23328344E+04 E0= -.23328344E+04  d E =-.123410E-03  mag=     3.0000
       N       E                     dE             d eps       ncg     rms          rms(c)
DAV:   1    -0.231204442810E+04    0.22375E-03   -0.28077E-02  4480   0.155E-01    0.575E-02
RMM:   2    -0.231204471235E+04   -0.28425E-03   -0.30970E-03  5902   0.329E-02    0.304E-02
RMM:   3    -0.231204473928E+04   -0.26933E-04   -0.31652E-04  3117   0.143E-02    0.376E-02
RMM:   4    -0.231204472955E+04    0.97349E-05   -0.41677E-05  2916   0.413E-03
 295 F= -.23328345E+04 E0= -.23328345E+04  d E =-.880701E-04  mag=     3.0000
       N       E                     dE             d eps       ncg     rms          rms(c)
DAV:   1    -0.231204472246E+04    0.16817E-04   -0.84467E-05  5048   0.911E-03    0.958E-03
RMM:   2    -0.231204472790E+04   -0.54332E-05   -0.19566E-05  2700   0.306E-03
 296 F= -.23328345E+04 E0= -.23328345E+04  d E =-.874052E-04  mag=     3.0000
       N       E                     dE             d eps       ncg     rms          rms(c)
DAV:   1    -0.231204459903E+04    0.12344E-03   -0.22484E-02  4480   0.141E-01    0.523E-02
RMM:   2    -0.231204480021E+04   -0.20118E-03   -0.21872E-03  5871   0.294E-02    0.287E-02
RMM:   3    -0.231204482427E+04   -0.24052E-04   -0.24641E-04  3061   0.132E-02    0.396E-02
RMM:   4    -0.231204480974E+04    0.14525E-04   -0.30982E-05  2907   0.397E-03    0.168E-02
RMM:   5    -0.231204480986E+04   -0.12328E-06   -0.13051E-05  2884   0.254E-03
 297 F= -.23328346E+04 E0= -.23328346E+04  d E =-.754764E-04  mag=     3.0000
       N       E                     dE             d eps       ncg     rms          rms(c)
DAV:   1    -0.231204479319E+04    0.16547E-04   -0.15738E-03  4936   0.376E-02    0.150E-02
RMM:   2    -0.231204480877E+04   -0.15582E-04   -0.16162E-04  3289   0.863E-03    0.135E-02
RMM:   3    -0.231204480942E+04   -0.64951E-06   -0.19410E-05  2743   0.484E-03
 298 F= -.23328346E+04 E0= -.23328346E+04  d E =-.732918E-04  mag=     3.0000
       N       E                     dE             d eps       ncg     rms          rms(c)
DAV:   1    -0.231204475303E+04    0.55742E-04   -0.14688E-02  4480   0.107E-01    0.389E-02
RMM:   2    -0.231204489019E+04   -0.13716E-03   -0.14353E-03  5781   0.230E-02    0.303E-02
RMM:   3    -0.231204490458E+04   -0.14389E-04   -0.16055E-04  2918   0.952E-03    0.360E-02
RMM:   4    -0.231204489221E+04    0.12372E-04   -0.20569E-05  2889   0.322E-03    0.132E-02
RMM:   5    -0.231204489292E+04   -0.71019E-06   -0.86957E-06  2824   0.198E-03
 299 F= -.23328347E+04 E0= -.23328347E+04  d E =-.750374E-04  mag=     3.0000
       N       E                     dE             d eps       ncg     rms          rms(c)
DAV:   1    -0.231204482346E+04    0.68753E-04   -0.88685E-03  4480   0.835E-02    0.302E-02
RMM:   2    -0.231204490479E+04   -0.81333E-04   -0.87165E-04  5364   0.178E-02    0.205E-02
RMM:   3    -0.231204491327E+04   -0.84851E-05   -0.91274E-05  2903   0.763E-03
 300 F= -.23328347E+04 E0= -.23328347E+04  d E =-.888122E-04  mag=     3.0000
       N       E                     dE             d eps       ncg     rms          rms(c)
DAV:   1    -0.231204485170E+04    0.53083E-04   -0.15998E-02  4480   0.110E-01    0.407E-02
RMM:   2    -0.231204498680E+04   -0.13510E-03   -0.14485E-03  5787   0.234E-02    0.242E-02
RMM:   3    -0.231204499686E+04   -0.10060E-04   -0.14653E-04  2911   0.902E-03    0.226E-02
RMM:   4    -0.231204499385E+04    0.30179E-05   -0.20589E-05  2906   0.296E-03
 301 F= -.23328348E+04 E0= -.23328348E+04  d E =-.750145E-04  mag=     3.0000
