       N       E                     dE             d eps       ncg     rms          rms(c)
DAV:   1     0.124470894023E+05    0.12447E+05   -0.84073E+05  4640   0.142E+03
DAV:   2    -0.125184552882E+04   -0.13699E+05   -0.13164E+05  4960   0.322E+02
DAV:   3    -0.249540263819E+04   -0.12436E+04   -0.12328E+04  5440   0.105E+02
DAV:   4    -0.252349110316E+04   -0.28088E+02   -0.27903E+02  5600   0.196E+01
DAV:   5    -0.252440576095E+04   -0.91466E+00   -0.91302E+00  5840   0.294E+00    0.171E+02
RMM:   6    -0.149052744773E+04    0.10339E+04   -0.19226E+03  4508   0.378E+01    0.758E+01
RMM:   7    -0.171242277637E+04   -0.22190E+03   -0.41428E+02  5229   0.162E+01    0.684E+01
RMM:   8    -0.168156800382E+04    0.30855E+02   -0.12139E+02  5022   0.104E+01    0.403E+01
RMM:   9    -0.177273708239E+04   -0.91169E+02   -0.50408E+01  4847   0.611E+00    0.326E+01
RMM:  10    -0.191849573824E+04   -0.14576E+03   -0.63285E+01  5268   0.772E+00    0.254E+01
RMM:  11    -0.199955792469E+04   -0.81062E+02   -0.32098E+01  5329   0.507E+00    0.211E+01
RMM:  12    -0.206722742045E+04   -0.67669E+02   -0.26335E+01  5066   0.419E+00    0.162E+01
RMM:  13    -0.215175824133E+04   -0.84531E+02   -0.40698E+01  4752   0.503E+00    0.112E+01
RMM:  14    -0.226345144454E+04   -0.11169E+03   -0.95236E+01  4530   0.689E+00    0.689E+00
RMM:  15    -0.229797122797E+04   -0.34520E+02   -0.28763E+01  4567   0.449E+00    0.581E+00
RMM:  16    -0.230978040069E+04   -0.11809E+02   -0.11672E+01  4817   0.240E+00    0.442E+00
RMM:  17    -0.231518936393E+04   -0.54090E+01   -0.41058E+00  4575   0.158E+00    0.235E+00
RMM:  18    -0.231978642669E+04   -0.45971E+01   -0.29703E+00  4550   0.107E+00    0.151E+00
RMM:  19    -0.232134104720E+04   -0.15546E+01   -0.11982E+00  4804   0.697E-01    0.976E-01
RMM:  20    -0.232168321722E+04   -0.34217E+00   -0.42906E-01  4812   0.356E-01    0.579E-01
RMM:  21    -0.232178686908E+04   -0.10365E+00   -0.12711E-01  4748   0.225E-01    0.304E-01
RMM:  22    -0.232184008131E+04   -0.53212E-01   -0.43686E-02  4729   0.122E-01    0.228E-01
RMM:  23    -0.232185867921E+04   -0.18598E-01   -0.92835E-03  4797   0.763E-02    0.128E-01
RMM:  24    -0.232187312537E+04   -0.14446E-01   -0.47631E-03  4547   0.481E-02    0.128E-01
RMM:  25    -0.232188195932E+04   -0.88339E-02   -0.26354E-03  4563   0.421E-02    0.770E-02
RMM:  26    -0.232188690666E+04   -0.49473E-02   -0.14015E-03  4675   0.301E-02    0.426E-02
RMM:  27    -0.232188963143E+04   -0.27248E-02   -0.70769E-04  4212   0.226E-02    0.303E-02
RMM:  28    -0.232189181035E+04   -0.21789E-02   -0.54578E-04  4108   0.168E-02    0.223E-02
RMM:  29    -0.232189250866E+04   -0.69831E-03   -0.18857E-04  3914   0.135E-02    0.141E-02
RMM:  30    -0.232189271446E+04   -0.20580E-03   -0.62471E-05  3688   0.644E-03    0.119E-02
RMM:  31    -0.232189290101E+04   -0.18655E-03   -0.37042E-05  3429   0.628E-03    0.529E-03
RMM:  32    -0.232189297958E+04   -0.78568E-04   -0.21419E-05  3197   0.451E-03    0.277E-03
RMM:  33    -0.232189301616E+04   -0.36580E-04   -0.10434E-05  2924   0.376E-03    0.218E-03
RMM:  34    -0.232189303246E+04   -0.16303E-04   -0.70549E-06  2805   0.288E-03    0.101E-03
RMM:  35    -0.232189303627E+04   -0.38043E-05   -0.33982E-06  2483   0.224E-03
   1 F= -.23427846E+04 E0= -.23427846E+04  d E =-.271075E-05  mag=     6.0001
       N       E                     dE             d eps       ncg     rms          rms(c)
DAV:   1    -0.232190521789E+04   -0.12185E-01   -0.20622E+00  4480   0.515E-01    0.302E-01
RMM:   2    -0.232190547079E+04   -0.25290E-03   -0.11283E-02  3721   0.329E-02    0.183E-01
RMM:   3    -0.232190547182E+04   -0.10297E-05   -0.24153E-03  4262   0.170E-02    0.195E-01
RMM:   4    -0.232190516135E+04    0.31047E-03   -0.54297E-04  3312   0.111E-02    0.528E-02
RMM:   5    -0.232190515002E+04    0.11333E-04   -0.11314E-04  2899   0.455E-03    0.456E-02
RMM:   6    -0.232190512514E+04    0.24878E-04   -0.32553E-05  2668   0.307E-03    0.131E-02
RMM:   7    -0.232190512234E+04    0.27965E-05   -0.11486E-05  2667   0.195E-03
   2 F= -.23427966E+04 E0= -.23427966E+04  d E =-.266635E-05  mag=     6.0000
       N       E                     dE             d eps       ncg     rms          rms(c)
DAV:   1    -0.232184169832E+04    0.63427E-01   -0.81828E+00  4480   0.104E+00    0.597E-01
RMM:   2    -0.232184144026E+04    0.25806E-03   -0.32108E-02  3975   0.693E-02    0.363E-01
RMM:   3    -0.232184170478E+04   -0.26452E-03   -0.87284E-03  5014   0.359E-02    0.413E-01
RMM:   4    -0.232184031501E+04    0.13898E-02   -0.20843E-03  4359   0.195E-02    0.105E-01
RMM:   5    -0.232184026531E+04    0.49694E-04   -0.45930E-04  3273   0.844E-03    0.967E-02
RMM:   6    -0.232184015036E+04    0.11496E-03   -0.15138E-04  3139   0.567E-03    0.260E-02
RMM:   7    -0.232184014051E+04    0.98492E-05   -0.44911E-05  3059   0.359E-03
   3 F= -.23427318E+04 E0= -.23427318E+04  d E =-.270799E-05  mag=     6.0000
       N       E                     dE             d eps       ncg     rms          rms(c)
DAV:   1    -0.232186459037E+04   -0.24440E-01   -0.42685E+00  4800   0.750E-01    0.408E-01
RMM:   2    -0.232186422489E+04    0.36548E-03   -0.13494E-02  3807   0.435E-02    0.243E-01
RMM:   3    -0.232186447820E+04   -0.25332E-03   -0.39317E-03  4696   0.210E-02    0.333E-01
RMM:   4    -0.232186366572E+04    0.81248E-03   -0.10708E-03  3613   0.152E-02    0.447E-02
RMM:   5    -0.232186364111E+04    0.24613E-04   -0.91025E-05  2996   0.407E-03    0.184E-02
RMM:   6    -0.232186363416E+04    0.69508E-05   -0.25129E-05  2749   0.264E-03
   4 F= -.23427552E+04 E0= -.23427552E+04  d E =-.222931E-05  mag=     6.0000
       N       E                     dE             d eps       ncg     rms          rms(c)
DAV:   1    -0.232188636598E+04   -0.22725E-01   -0.82215E+00  4720   0.998E-01    0.614E-01
RMM:   2    -0.232188530181E+04    0.10642E-02   -0.28821E-02  3954   0.607E-02    0.353E-01
RMM:   3    -0.232188531057E+04   -0.87620E-05   -0.61036E-03  5010   0.304E-02    0.307E-01
RMM:   4    -0.232188444920E+04    0.86137E-03   -0.24086E-03  4538   0.191E-02    0.117E-01
RMM:   5    -0.232188439508E+04    0.54120E-04   -0.24705E-04  3179   0.721E-03    0.871E-02
RMM:   6    -0.232188433402E+04    0.61060E-04   -0.67855E-05  2921   0.462E-03    0.299E-02
RMM:   7    -0.232188431464E+04    0.19377E-04   -0.47217E-05  2999   0.330E-03    0.173E-02
RMM:   8    -0.232188430707E+04    0.75679E-05   -0.21576E-05  2943   0.336E-03
   5 F= -.23427759E+04 E0= -.23427759E+04  d E =-.314933E-05  mag=     6.0000
       N       E                     dE             d eps       ncg     rms          rms(c)
DAV:   1    -0.232187468523E+04    0.96294E-02   -0.39598E+00  4640   0.689E-01    0.426E-01
RMM:   2    -0.232187518173E+04   -0.49650E-03   -0.19582E-02  3929   0.530E-02    0.266E-01
RMM:   3    -0.232187559472E+04   -0.41299E-03   -0.42646E-03  4962   0.250E-02    0.302E-01
RMM:   4    -0.232187456233E+04    0.10324E-02   -0.14015E-03  4094   0.159E-02    0.524E-02
RMM:   5    -0.232187456941E+04   -0.70798E-05   -0.21870E-04  3188   0.658E-03    0.788E-02
RMM:   6    -0.232187452201E+04    0.47398E-04   -0.70979E-05  2950   0.438E-03    0.269E-02
RMM:   7    -0.232187451340E+04    0.86087E-05   -0.21154E-05  2902   0.279E-03
   6 F= -.23427661E+04 E0= -.23427661E+04  d E =-.227006E-05  mag=     6.0000
       N       E                     dE             d eps       ncg     rms          rms(c)
DAV:   1    -0.232187152109E+04    0.30009E-02   -0.81995E+00  4640   0.105E+00    0.623E-01
RMM:   2    -0.232187102517E+04    0.49592E-03   -0.32162E-02  3897   0.639E-02    0.372E-01
RMM:   3    -0.232187220470E+04   -0.11795E-02   -0.95330E-03  5125   0.351E-02    0.493E-01
RMM:   4    -0.232187000235E+04    0.22023E-02   -0.29426E-03  4628   0.209E-02    0.117E-01
RMM:   5    -0.232186995164E+04    0.50714E-04   -0.54275E-04  3219   0.850E-03    0.981E-02
RMM:   6    -0.232186984826E+04    0.10338E-03   -0.11503E-04  2998   0.514E-03    0.242E-02
RMM:   7    -0.232186983630E+04    0.11957E-04   -0.59910E-05  3085   0.371E-03    0.162E-02
RMM:   8    -0.232186983213E+04    0.41705E-05   -0.13490E-05  2848   0.305E-03
   7 F= -.23427613E+04 E0= -.23427613E+04  d E =-.314918E-05  mag=     6.0000
       N       E                     dE             d eps       ncg     rms          rms(c)
DAV:   1    -0.232186804969E+04    0.17866E-02   -0.75292E+00  4640   0.885E-01    0.515E-01
RMM:   2    -0.232186974277E+04   -0.16931E-02   -0.50975E-02  4322   0.668E-02    0.327E-01
RMM:   3    -0.232187006960E+04   -0.32682E-03   -0.62930E-03  5451   0.289E-02    0.403E-01
RMM:   4    -0.232186834439E+04    0.17252E-02   -0.28248E-03  4620   0.193E-02    0.967E-02
RMM:   5    -0.232186844882E+04   -0.10443E-03   -0.58377E-04  3313   0.105E-02    0.147E-01
RMM:   6    -0.232186827739E+04    0.17143E-03   -0.21383E-04  3110   0.687E-03    0.384E-02
RMM:   7    -0.232186825377E+04    0.23621E-04   -0.44959E-05  3016   0.381E-03    0.201E-02
RMM:   8    -0.232186823992E+04    0.13855E-04   -0.20871E-05  2966   0.332E-03    0.885E-03
RMM:   9    -0.232186823394E+04    0.59786E-05   -0.11110E-05  2912   0.277E-03
   8 F= -.23427591E+04 E0= -.23427591E+04  d E =-.935457E-06  mag=     6.0000
       N       E                     dE             d eps       ncg     rms          rms(c)
DAV:   1    -0.232190163707E+04   -0.33397E-01   -0.20310E+01  4480   0.131E+00    0.803E-01
RMM:   2    -0.232190583646E+04   -0.41994E-02   -0.12846E-01  4531   0.104E-01    0.498E-01
RMM:   3    -0.232190574735E+04    0.89110E-04   -0.12818E-02  5889   0.439E-02    0.568E-01
RMM:   4    -0.232190247995E+04    0.32674E-02   -0.61856E-03  5270   0.291E-02    0.176E-01
RMM:   5    -0.232190254487E+04   -0.64915E-04   -0.13164E-03  4147   0.149E-02    0.187E-01
RMM:   6    -0.232190228555E+04    0.25932E-03   -0.38692E-04  3227   0.869E-03    0.574E-02
RMM:   7    -0.232190223968E+04    0.45866E-04   -0.10052E-04  3122   0.530E-03    0.354E-02
RMM:   8    -0.232190221281E+04    0.26870E-04   -0.32624E-05  3019   0.428E-03    0.169E-02
RMM:   9    -0.232190219372E+04    0.19087E-04   -0.25584E-05  3012   0.350E-03    0.939E-03
RMM:  10    -0.232190218914E+04    0.45813E-05   -0.72004E-06  2879   0.324E-03
   9 F= -.23427944E+04 E0= -.23427944E+04  d E =-.768559E-05  mag=     6.0000
       N       E                     dE             d eps       ncg     rms          rms(c)
DAV:   1    -0.232186586930E+04    0.36324E-01   -0.10096E+01  4480   0.105E+00    0.582E-01
RMM:   2    -0.232186944886E+04   -0.35796E-02   -0.68704E-02  4460   0.746E-02    0.386E-01
RMM:   3    -0.232186973141E+04   -0.28255E-03   -0.82748E-03  5626   0.342E-02    0.516E-01
RMM:   4    -0.232186746737E+04    0.22640E-02   -0.36494E-03  4756   0.228E-02    0.207E-01
RMM:   5    -0.232186728236E+04    0.18500E-03   -0.10891E-03  3548   0.131E-02    0.137E-01
RMM:   6    -0.232186715041E+04    0.13195E-03   -0.23737E-04  3148   0.735E-03    0.405E-02
RMM:   7    -0.232186713471E+04    0.15700E-04   -0.44241E-05  2995   0.435E-03    0.180E-02
RMM:   8    -0.232186713099E+04    0.37269E-05   -0.18617E-05  2966   0.312E-03
  10 F= -.23427592E+04 E0= -.23427592E+04  d E =-.109056E-05  mag=     6.0000
       N       E                     dE             d eps       ncg     rms          rms(c)
DAV:   1    -0.232190337180E+04   -0.36237E-01   -0.20390E+01  4480   0.155E+00    0.917E-01
RMM:   2    -0.232190704527E+04   -0.36735E-02   -0.15647E-01  4452   0.133E-01    0.505E-01
RMM:   3    -0.232190888307E+04   -0.18378E-02   -0.16210E-02  5575   0.591E-02    0.828E-01
RMM:   4    -0.232190371201E+04    0.51711E-02   -0.67208E-03  5177   0.313E-02    0.271E-01
RMM:   5    -0.232190395424E+04   -0.24223E-03   -0.29204E-03  4399   0.193E-02    0.294E-01
RMM:   6    -0.232190320560E+04    0.74864E-03   -0.97790E-04  4102   0.136E-02    0.693E-02
RMM:   7    -0.232190318220E+04    0.23402E-04   -0.14099E-04  3086   0.617E-03    0.433E-02
RMM:   8    -0.232190316156E+04    0.20643E-04   -0.43467E-05  2981   0.390E-03    0.188E-02
RMM:   9    -0.232190316392E+04   -0.23646E-05   -0.13774E-05  2905   0.283E-03
  11 F= -.23427941E+04 E0= -.23427941E+04  d E =-.579072E-05  mag=     6.0000
       N       E                     dE             d eps       ncg     rms          rms(c)
DAV:   1    -0.232187662631E+04    0.26535E-01   -0.10054E+01  4480   0.113E+00    0.703E-01
RMM:   2    -0.232187597589E+04    0.65042E-03   -0.75703E-02  4225   0.862E-02    0.352E-01
RMM:   3    -0.232187602203E+04   -0.46136E-04   -0.73694E-03  4756   0.415E-02    0.563E-01
RMM:   4    -0.232187384374E+04    0.21783E-02   -0.30951E-03  4467   0.205E-02    0.188E-01
RMM:   5    -0.232187382645E+04    0.17297E-04   -0.12889E-03  3900   0.136E-02    0.142E-01
RMM:   6    -0.232187364478E+04    0.18167E-03   -0.38325E-04  3274   0.923E-03    0.467E-02
RMM:   7    -0.232187361532E+04    0.29455E-04   -0.75820E-05  3045   0.468E-03    0.248E-02
RMM:   8    -0.232187360505E+04    0.10269E-04   -0.23823E-05  2912   0.316E-03    0.105E-02
RMM:   9    -0.232187360130E+04    0.37487E-05   -0.92944E-06  2798   0.240E-03
  12 F= -.23427659E+04 E0= -.23427659E+04  d E =-.236648E-05  mag=     6.0000
       N       E                     dE             d eps       ncg     rms          rms(c)
DAV:   1    -0.232189954214E+04   -0.25937E-01   -0.20558E+01  4480   0.143E+00    0.761E-01
RMM:   2    -0.232190089218E+04   -0.13500E-02   -0.99375E-02  4445   0.926E-02    0.430E-01
RMM:   3    -0.232190010300E+04    0.78919E-03   -0.85632E-03  5467   0.397E-02    0.561E-01
RMM:   4    -0.232189795683E+04    0.21462E-02   -0.40737E-03  4981   0.231E-02    0.264E-01
RMM:   5    -0.232189790851E+04    0.48318E-04   -0.18115E-03  4409   0.170E-02    0.214E-01
RMM:   6    -0.232189739046E+04    0.51805E-03   -0.48913E-04  3411   0.105E-02    0.415E-02
RMM:   7    -0.232189734961E+04    0.40854E-04   -0.10074E-04  3075   0.540E-03    0.262E-02
RMM:   8    -0.232189732374E+04    0.25861E-04   -0.35857E-05  3030   0.440E-03    0.117E-02
RMM:   9    -0.232189731520E+04    0.85413E-05   -0.14725E-05  2946   0.356E-03
  13 F= -.23427880E+04 E0= -.23427880E+04  d E =-.295399E-05  mag=     6.0000
       N       E                     dE             d eps       ncg     rms          rms(c)
DAV:   1    -0.232186333266E+04    0.33991E-01   -0.54515E+00  4480   0.707E-01    0.463E-01
RMM:   2    -0.232186486245E+04   -0.15298E-02   -0.53285E-02  4078   0.630E-02    0.259E-01
RMM:   3    -0.232186439667E+04    0.46579E-03   -0.42465E-03  4607   0.261E-02    0.292E-01
RMM:   4    -0.232186395646E+04    0.44021E-03   -0.17236E-03  4051   0.152E-02    0.177E-01
RMM:   5    -0.232186383380E+04    0.12266E-03   -0.44514E-04  3276   0.967E-03    0.105E-01
RMM:   6    -0.232186371937E+04    0.11443E-03   -0.16751E-04  3049   0.631E-03    0.346E-02
RMM:   7    -0.232186370755E+04    0.11820E-04   -0.49590E-05  2976   0.376E-03    0.149E-02
RMM:   8    -0.232186370446E+04    0.30940E-05   -0.86470E-06  2719   0.284E-03
  14 F= -.23427555E+04 E0= -.23427555E+04  d E =-.256707E-05  mag=     6.0000
       N       E                     dE             d eps       ncg     rms          rms(c)
DAV:   1    -0.232190867103E+04   -0.44963E-01   -0.12885E+00  4960   0.393E-01    0.546E-01
RMM:   2    -0.232190446286E+04    0.42082E-02   -0.15805E-02  3656   0.415E-02    0.289E-01
RMM:   3    -0.232190377356E+04    0.68930E-03   -0.68165E-03  4316   0.216E-02    0.857E-02
RMM:   4    -0.232190369399E+04    0.79571E-04   -0.66518E-04  3480   0.107E-02    0.155E-01
RMM:   5    -0.232190352292E+04    0.17107E-03   -0.26912E-04  3104   0.714E-03    0.301E-02
RMM:   6    -0.232190351115E+04    0.11770E-04   -0.27189E-05  2700   0.318E-03    0.132E-02
RMM:   7    -0.232190350927E+04    0.18778E-05   -0.10616E-05  2347   0.183E-03
  15 F= -.23427948E+04 E0= -.23427948E+04  d E =-.285153E-05  mag=     6.0000
       N       E                     dE             d eps       ncg     rms          rms(c)
DAV:   1    -0.232188556503E+04    0.17946E-01   -0.64871E-01  5040   0.293E-01    0.424E-01
RMM:   2    -0.232188276796E+04    0.27971E-02   -0.99749E-03  3601   0.311E-02    0.215E-01
RMM:   3    -0.232188247509E+04    0.29287E-03   -0.36783E-03  4039   0.167E-02    0.141E-01
RMM:   4    -0.232188234709E+04    0.12800E-03   -0.42742E-04  3309   0.870E-03    0.107E-01
RMM:   5    -0.232188225272E+04    0.94371E-04   -0.50233E-04  3109   0.684E-03    0.384E-02
RMM:   6    -0.232188223431E+04    0.18404E-04   -0.54143E-05  2590   0.474E-03    0.229E-02
RMM:   7    -0.232188222568E+04    0.86328E-05   -0.13488E-05  2350   0.177E-03
  16 F= -.23427739E+04 E0= -.23427739E+04  d E =-.286852E-05  mag=     6.0000
       N       E                     dE             d eps       ncg     rms          rms(c)
DAV:   1    -0.232189629208E+04   -0.14058E-01   -0.12358E+00  4400   0.386E-01    0.407E-01
RMM:   2    -0.232189485321E+04    0.14389E-02   -0.61945E-03  3553   0.250E-02    0.226E-01
RMM:   3    -0.232189468218E+04    0.17103E-03   -0.25933E-03  3956   0.149E-02    0.114E-01
RMM:   4    -0.232189460904E+04    0.73140E-04   -0.38323E-04  3227   0.858E-03    0.978E-02
RMM:   5    -0.232189455362E+04    0.55418E-04   -0.20832E-04  2935   0.554E-03    0.605E-02
RMM:   6    -0.232189451948E+04    0.34139E-04   -0.52016E-05  2609   0.393E-03    0.139E-02
RMM:   7    -0.232189451842E+04    0.10667E-05   -0.42477E-06  2339   0.167E-03
  17 F= -.23427859E+04 E0= -.23427859E+04  d E =-.253119E-05  mag=     6.0000
       N       E                     dE             d eps       ncg     rms          rms(c)
DAV:   1    -0.232189761864E+04   -0.30992E-02   -0.61617E-01  4480   0.274E-01    0.256E-01
RMM:   2    -0.232189734226E+04    0.27638E-03   -0.21984E-03  3386   0.156E-02    0.149E-01
RMM:   3    -0.232189736379E+04   -0.21535E-04   -0.94142E-04  3562   0.105E-02    0.117E-01
RMM:   4    -0.232189725106E+04    0.11273E-03   -0.16875E-04  2898   0.697E-03    0.330E-02
RMM:   5    -0.232189725054E+04    0.52324E-06   -0.50122E-05  2662   0.302E-03
  18 F= -.23427888E+04 E0= -.23427888E+04  d E =-.273796E-05  mag=     6.0000
       N       E                     dE             d eps       ncg     rms          rms(c)
DAV:   1    -0.232188425876E+04    0.12992E-01   -0.12260E+00  4480   0.386E-01    0.337E-01
RMM:   2    -0.232188397684E+04    0.28192E-03   -0.45357E-03  3529   0.238E-02    0.198E-01
RMM:   3    -0.232188407876E+04   -0.10193E-03   -0.15455E-03  3784   0.136E-02    0.170E-01
RMM:   4    -0.232188387516E+04    0.20360E-03   -0.33152E-04  3009   0.943E-03    0.395E-02
RMM:   5    -0.232188386054E+04    0.14621E-04   -0.53345E-05  2775   0.342E-03    0.212E-02
RMM:   6    -0.232188385707E+04    0.34700E-05   -0.17909E-05  2356   0.248E-03
  19 F= -.23427753E+04 E0= -.23427753E+04  d E =-.250796E-05  mag=     6.0000
       N       E                     dE             d eps       ncg     rms          rms(c)
DAV:   1    -0.232188158464E+04    0.22759E-02   -0.60739E-01  4480   0.267E-01    0.230E-01
RMM:   2    -0.232188150392E+04    0.80715E-04   -0.24373E-03  3390   0.171E-02    0.135E-01
RMM:   3    -0.232188147895E+04    0.24972E-04   -0.71997E-04  3345   0.888E-03    0.765E-02
RMM:   4    -0.232188144027E+04    0.38680E-04   -0.10451E-04  2610   0.652E-03    0.248E-02
RMM:   5    -0.232188143469E+04    0.55838E-05   -0.10456E-05  2348   0.186E-03
  20 F= -.23427731E+04 E0= -.23427731E+04  d E =-.276462E-05  mag=     6.0000
       N       E                     dE             d eps       ncg     rms          rms(c)
DAV:   1    -0.232189991281E+04   -0.18473E-01   -0.12200E+00  4640   0.329E-01    0.339E-01
RMM:   2    -0.232189954197E+04    0.37085E-03   -0.47950E-03  3492   0.206E-02    0.196E-01
RMM:   3    -0.232189942012E+04    0.12185E-03   -0.15217E-03  3743   0.125E-02    0.706E-02
RMM:   4    -0.232189939526E+04    0.24858E-04   -0.21580E-04  3049   0.707E-03    0.543E-02
RMM:   5    -0.232189936456E+04    0.30693E-04   -0.40311E-05  2667   0.337E-03    0.257E-02
RMM:   6    -0.232189936311E+04    0.14541E-05   -0.20742E-05  2302   0.228E-03
  21 F= -.23427907E+04 E0= -.23427907E+04  d E =-.267941E-05  mag=     6.0000
       N       E                     dE             d eps       ncg     rms          rms(c)
DAV:   1    -0.232190593390E+04   -0.65693E-02   -0.62410E-01  4560   0.233E-01    0.286E-01
RMM:   2    -0.232190530613E+04    0.62777E-03   -0.35129E-03  3404   0.171E-02    0.159E-01
RMM:   3    -0.232190524414E+04    0.61992E-04   -0.14065E-03  3521   0.103E-02    0.769E-02
RMM:   4    -0.232190520213E+04    0.42009E-04   -0.18018E-04  2821   0.687E-03    0.635E-02
RMM:   5    -0.232190518076E+04    0.21367E-04   -0.13170E-04  2787   0.410E-03    0.452E-02
RMM:   6    -0.232190516178E+04    0.18985E-04   -0.28045E-05  2397   0.314E-03    0.916E-03
RMM:   7    -0.232190516066E+04    0.11183E-05   -0.48839E-06  2125   0.128E-03
  22 F= -.23427961E+04 E0= -.23427961E+04  d E =-.275845E-05  mag=     6.0000
       N       E                     dE             d eps       ncg     rms          rms(c)
DAV:   1    -0.232186823715E+04    0.36925E-01   -0.12450E+00  4960   0.340E-01    0.554E-01
RMM:   2    -0.232186363171E+04    0.46054E-02   -0.15888E-02  3677   0.352E-02    0.278E-01
RMM:   3    -0.232186315457E+04    0.47715E-03   -0.61634E-03  4218   0.238E-02    0.133E-01
RMM:   4    -0.232186311978E+04    0.34789E-04   -0.81394E-04  3676   0.116E-02    0.175E-01
RMM:   5    -0.232186287251E+04    0.24727E-03   -0.43112E-04  3227   0.789E-03    0.556E-02
RMM:   6    -0.232186285429E+04    0.18222E-04   -0.10319E-04  2810   0.533E-03    0.326E-02
RMM:   7    -0.232186284188E+04    0.12404E-04   -0.14771E-05  2488   0.254E-03    0.849E-03
RMM:   8    -0.232186284092E+04    0.96054E-06   -0.12612E-05  2251   0.149E-03
  23 F= -.23427549E+04 E0= -.23427549E+04  d E =-.266789E-05  mag=     6.0000
       N       E                     dE             d eps       ncg     rms          rms(c)
DAV:   1    -0.232187496828E+04   -0.12126E-01   -0.60400E-01  4560   0.231E-01    0.246E-01
RMM:   2    -0.232187462604E+04    0.34224E-03   -0.25191E-03  3281   0.144E-02    0.139E-01
RMM:   3    -0.232187456828E+04    0.57761E-04   -0.85187E-04  3354   0.841E-03    0.590E-02
RMM:   4    -0.232187458059E+04   -0.12316E-04   -0.17071E-04  2695   0.670E-03    0.741E-02
RMM:   5    -0.232187453860E+04    0.41999E-04   -0.38570E-05  2520   0.307E-03    0.164E-02
RMM:   6    -0.232187453831E+04    0.28388E-06   -0.15035E-05  2215   0.194E-03
  24 F= -.23427665E+04 E0= -.23427665E+04  d E =-.285012E-05  mag=     6.0000
       N       E                     dE             d eps       ncg     rms          rms(c)
DAV:   1    -0.232190441722E+04   -0.29879E-01   -0.12248E+00  4800   0.322E-01    0.386E-01
RMM:   2    -0.232190334201E+04    0.10752E-02   -0.63751E-03  3539   0.237E-02    0.217E-01
RMM:   3    -0.232190312063E+04    0.22138E-03   -0.21416E-03  3803   0.127E-02    0.787E-02
RMM:   4    -0.232190316862E+04   -0.47988E-04   -0.35554E-04  3077   0.923E-03    0.129E-01
RMM:   5    -0.232190303626E+04    0.13236E-03   -0.11515E-04  2849   0.480E-03    0.154E-02
RMM:   6    -0.232190303763E+04   -0.13706E-05   -0.30257E-05  2609   0.269E-03
  25 F= -.23427941E+04 E0= -.23427941E+04  d E =-.270017E-05  mag=     6.0000
       N       E                     dE             d eps       ncg     rms          rms(c)
DAV:   1    -0.232188937032E+04    0.13666E-01   -0.61165E-01  4880   0.238E-01    0.273E-01
RMM:   2    -0.232188927090E+04    0.99419E-04   -0.27789E-03  3296   0.161E-02    0.165E-01
RMM:   3    -0.232188935907E+04   -0.88169E-04   -0.80866E-04  3365   0.983E-03    0.179E-01
RMM:   4    -0.232188911615E+04    0.24292E-03   -0.21247E-04  2805   0.745E-03    0.142E-02
RMM:   5    -0.232188911523E+04    0.92199E-06   -0.30354E-05  2607   0.240E-03
  26 F= -.23427803E+04 E0= -.23427803E+04  d E =-.291167E-05  mag=     6.0000
       N       E                     dE             d eps       ncg     rms          rms(c)
DAV:   1    -0.232188973095E+04   -0.61480E-03   -0.12362E+00  4800   0.310E-01    0.411E-01
RMM:   2    -0.232188847932E+04    0.12516E-02   -0.73083E-03  3518   0.237E-02    0.230E-01
RMM:   3    -0.232188849589E+04   -0.16568E-04   -0.26656E-03  4081   0.161E-02    0.209E-01
RMM:   4    -0.232188817672E+04    0.31917E-03   -0.52541E-04  3249   0.104E-02    0.694E-02
RMM:   5    -0.232188814808E+04    0.28637E-04   -0.24429E-04  3037   0.552E-03    0.471E-02
RMM:   6    -0.232188812491E+04    0.23172E-04   -0.49989E-05  2640   0.406E-03    0.155E-02
RMM:   7    -0.232188812225E+04    0.26629E-05   -0.67258E-06  2288   0.175E-03
  27 F= -.23427800E+04 E0= -.23427800E+04  d E =-.257302E-05  mag=     6.0000
       N       E                     dE             d eps       ncg     rms          rms(c)
DAV:   1    -0.232188917020E+04   -0.10453E-02   -0.61927E-01  4800   0.234E-01    0.279E-01
RMM:   2    -0.232188858258E+04    0.58763E-03   -0.27378E-03  3303   0.148E-02    0.157E-01
RMM:   3    -0.232188856231E+04    0.20263E-04   -0.12224E-03  3394   0.102E-02    0.747E-02
RMM:   4    -0.232188853170E+04    0.30609E-04   -0.15045E-04  2800   0.557E-03    0.660E-02
RMM:   5    -0.232188849829E+04    0.33409E-04   -0.10853E-04  2706   0.378E-03    0.228E-02
RMM:   6    -0.232188849332E+04    0.49704E-05   -0.15665E-05  2275   0.271E-03
  28 F= -.23427799E+04 E0= -.23427799E+04  d E =-.274176E-05  mag=     6.0000
       N       E                     dE             d eps       ncg     rms          rms(c)
DAV:   1    -0.232189354227E+04   -0.50440E-02   -0.12251E+00  4480   0.309E-01    0.354E-01
RMM:   2    -0.232189307903E+04    0.46324E-03   -0.40065E-03  3375   0.181E-02    0.205E-01
RMM:   3    -0.232189303205E+04    0.46983E-04   -0.13833E-03  3489   0.107E-02    0.630E-02
RMM:   4    -0.232189305925E+04   -0.27200E-04   -0.24783E-04  2920   0.858E-03    0.901E-02
RMM:   5    -0.232189299737E+04    0.61875E-04   -0.58054E-05  2643   0.357E-03    0.189E-02
RMM:   6    -0.232189299517E+04    0.22075E-05   -0.18054E-05  2362   0.222E-03
  29 F= -.23427846E+04 E0= -.23427846E+04  d E =-.276122E-05  mag=     6.0000
       N       E                     dE             d eps       ncg     rms          rms(c)
DAV:   1    -0.232189337005E+04   -0.37268E-03   -0.65102E-01  5040   0.236E-01    0.381E-01
RMM:   2    -0.232189149508E+04    0.18750E-02   -0.72745E-03  3506   0.242E-02    0.202E-01
RMM:   3    -0.232189125409E+04    0.24099E-03   -0.29934E-03  3936   0.150E-02    0.119E-01
RMM:   4    -0.232189115618E+04    0.97907E-04   -0.35148E-04  3095   0.862E-03    0.968E-02
RMM:   5    -0.232189106413E+04    0.92054E-04   -0.20007E-04  2889   0.507E-03    0.161E-02
RMM:   6    -0.232189106497E+04   -0.84125E-06   -0.27308E-05  2541   0.327E-03
  30 F= -.23427822E+04 E0= -.23427822E+04  d E =-.264186E-05  mag=     6.0000
       N       E                     dE             d eps       ncg     rms          rms(c)
DAV:   1    -0.232188024313E+04    0.10821E-01   -0.13082E+00  5120   0.339E-01    0.594E-01
RMM:   2    -0.232187486406E+04    0.53791E-02   -0.18254E-02  3664   0.359E-02    0.299E-01
RMM:   3    -0.232187412894E+04    0.73512E-03   -0.65893E-03  4295   0.209E-02    0.964E-02
RMM:   4    -0.232187399832E+04    0.13062E-03   -0.56536E-04  3424   0.104E-02    0.129E-01
RMM:   5    -0.232187387654E+04    0.12178E-03   -0.21998E-04  2998   0.659E-03    0.475E-02
RMM:   6    -0.232187386895E+04    0.75951E-05   -0.45493E-05  2717   0.366E-03
  31 F= -.23427659E+04 E0= -.23427659E+04  d E =-.283330E-05  mag=     6.0000
       N       E                     dE             d eps       ncg     rms          rms(c)
DAV:   1    -0.232190933176E+04   -0.35455E-01   -0.58058E-01  4960   0.245E-01    0.334E-01
RMM:   2    -0.232190840850E+04    0.92326E-03   -0.81023E-03  4152   0.327E-02    0.212E-01
RMM:   3    -0.232190877428E+04   -0.36579E-03   -0.27213E-03  4760   0.217E-02    0.289E-01
RMM:   4    -0.232190793801E+04    0.83627E-03   -0.11309E-03  3916   0.138E-02    0.932E-02
RMM:   5    -0.232190793280E+04    0.52108E-05   -0.28827E-04  3118   0.768E-03    0.980E-02
RMM:   6    -0.232190785183E+04    0.80971E-04   -0.11657E-04  3079   0.502E-03    0.247E-02
RMM:   7    -0.232190784657E+04    0.52594E-05   -0.17259E-05  2870   0.298E-03
  32 F= -.23427989E+04 E0= -.23427989E+04  d E =-.948078E-05  mag=     6.0000
       N       E                     dE             d eps       ncg     rms          rms(c)
DAV:   1    -0.232187521151E+04    0.32640E-01   -0.10134E+00  4640   0.303E-01    0.374E-01
RMM:   2    -0.232187499090E+04    0.22061E-03   -0.15485E-02  4964   0.411E-02    0.325E-01
RMM:   3    -0.232187437848E+04    0.61242E-03   -0.33112E-03  4952   0.238E-02    0.268E-01
RMM:   4    -0.232187381109E+04    0.56739E-03   -0.12923E-03  4057   0.139E-02    0.138E-01
RMM:   5    -0.232187382771E+04   -0.16614E-04   -0.60503E-04  3253   0.104E-02    0.147E-01
RMM:   6    -0.232187366124E+04    0.16647E-03   -0.19045E-04  3070   0.668E-03    0.306E-02
RMM:   7    -0.232187365350E+04    0.77386E-05   -0.39176E-05  2989   0.393E-03
  33 F= -.23427657E+04 E0= -.23427657E+04  d E =-.692635E-06  mag=     6.0000
       N       E                     dE             d eps       ncg     rms          rms(c)
DAV:   1    -0.232190626958E+04   -0.32608E-01   -0.50467E-01  4800   0.183E-01    0.304E-01
RMM:   2    -0.232190685482E+04   -0.58525E-03   -0.11577E-02  4910   0.344E-02    0.333E-01
RMM:   3    -0.232190579772E+04    0.10571E-02   -0.20523E-03  4526   0.184E-02    0.185E-01
RMM:   4    -0.232190570577E+04    0.91958E-04   -0.82167E-04  3692   0.111E-02    0.166E-01
RMM:   5    -0.232190553103E+04    0.17473E-03   -0.40763E-04  3144   0.910E-03    0.905E-02
RMM:   6    -0.232190547956E+04    0.51475E-04   -0.10266E-04  3044   0.513E-03    0.303E-02
RMM:   7    -0.232190547070E+04    0.88569E-05   -0.19581E-05  2885   0.321E-03
  34 F= -.23427971E+04 E0= -.23427971E+04  d E =-.423756E-05  mag=     6.0000
       N       E                     dE             d eps       ncg     rms          rms(c)
DAV:   1    -0.232187181846E+04    0.33661E-01   -0.10060E+00  4720   0.263E-01    0.363E-01
RMM:   2    -0.232187358203E+04   -0.17636E-02   -0.14205E-02  4900   0.389E-02    0.400E-01
RMM:   3    -0.232187218589E+04    0.13961E-02   -0.27645E-03  4756   0.219E-02    0.224E-01
RMM:   4    -0.232187212481E+04    0.61076E-04   -0.94011E-04  3587   0.118E-02    0.193E-01
RMM:   5    -0.232187195355E+04    0.17126E-03   -0.60392E-04  3204   0.998E-03    0.121E-01
RMM:   6    -0.232187189759E+04    0.55965E-04   -0.12622E-04  2978   0.579E-03    0.423E-02
RMM:   7    -0.232187188455E+04    0.13036E-04   -0.23856E-05  2792   0.319E-03    0.210E-02
RMM:   8    -0.232187188104E+04    0.35108E-05   -0.14517E-05  2722   0.220E-03
  35 F= -.23427633E+04 E0= -.23427633E+04  d E =-.170245E-05  mag=     6.0000
       N       E                     dE             d eps       ncg     rms          rms(c)
DAV:   1    -0.232188612874E+04   -0.14244E-01   -0.51907E-01  4640   0.180E-01    0.217E-01
RMM:   2    -0.232188630643E+04   -0.17769E-03   -0.47483E-03  4229   0.213E-02    0.209E-01
RMM:   3    -0.232188607210E+04    0.23432E-03   -0.11247E-03  3531   0.135E-02    0.146E-01
RMM:   4    -0.232188597786E+04    0.94245E-04   -0.29920E-04  3095   0.748E-03    0.985E-02
RMM:   5    -0.232188597006E+04    0.77919E-05   -0.19433E-04  2890   0.582E-03    0.776E-02
RMM:   6    -0.232188593504E+04    0.35024E-04   -0.51339E-05  2893   0.403E-03    0.123E-02
RMM:   7    -0.232188593519E+04   -0.15470E-06   -0.10102E-05  2656   0.221E-03
  36 F= -.23427777E+04 E0= -.23427777E+04  d E =-.877315E-06  mag=     6.0000
       N       E                     dE             d eps       ncg     rms          rms(c)
DAV:   1    -0.232189859524E+04   -0.12660E-01   -0.10480E+00  4480   0.253E-01    0.342E-01
RMM:   2    -0.232189751832E+04    0.10769E-02   -0.10227E-02  4633   0.323E-02    0.196E-01
RMM:   3    -0.232189708641E+04    0.43192E-03   -0.12016E-03  3778   0.173E-02    0.103E-01
RMM:   4    -0.232189709495E+04   -0.85440E-05   -0.65433E-04  3748   0.112E-02    0.924E-02
RMM:   5    -0.232189706464E+04    0.30307E-04   -0.14152E-04  3034   0.808E-03    0.673E-02
RMM:   6    -0.232189703475E+04    0.29896E-04   -0.52746E-05  3003   0.379E-03    0.332E-02
RMM:   7    -0.232189702511E+04    0.96384E-05   -0.37722E-05  2946   0.338E-03
  37 F= -.23427883E+04 E0= -.23427883E+04  d E =-.722315E-05  mag=     6.0000
