       N       E                     dE             d eps       ncg     rms          rms(c)
DAV:   1     0.131698867949E+05    0.13170E+05   -0.84815E+05  4560   0.144E+03
DAV:   2    -0.103959667164E+04   -0.14209E+05   -0.13601E+05  4980   0.330E+02
DAV:   3    -0.249086723266E+04   -0.14513E+04   -0.14348E+04  5480   0.114E+02
DAV:   4    -0.253412998751E+04   -0.43263E+02   -0.43002E+02  6680   0.279E+01
DAV:   5    -0.253508626904E+04   -0.95628E+00   -0.95403E+00  5800   0.327E+00    0.170E+02
RMM:   6    -0.150017897541E+04    0.10349E+04   -0.19458E+03  4513   0.380E+01    0.722E+01
RMM:   7    -0.167089556975E+04   -0.17072E+03   -0.28694E+02  5234   0.145E+01    0.483E+01
RMM:   8    -0.172524600468E+04   -0.54350E+02   -0.42722E+01  5485   0.694E+00    0.416E+01
RMM:   9    -0.181236427830E+04   -0.87118E+02   -0.58619E+01  5191   0.689E+00    0.388E+01
RMM:  10    -0.191999389926E+04   -0.10763E+03   -0.57906E+01  5474   0.731E+00    0.247E+01
RMM:  11    -0.199436966874E+04   -0.74376E+02   -0.27238E+01  5502   0.454E+00    0.246E+01
RMM:  12    -0.205918889267E+04   -0.64819E+02   -0.23216E+01  5158   0.382E+00    0.149E+01
RMM:  13    -0.214055543239E+04   -0.81367E+02   -0.37733E+01  4884   0.470E+00    0.142E+01
RMM:  14    -0.222718883240E+04   -0.86633E+02   -0.59217E+01  5018   0.569E+00    0.110E+01
RMM:  15    -0.229642185952E+04   -0.69233E+02   -0.60201E+01  4690   0.545E+00    0.600E+00
RMM:  16    -0.231947191290E+04   -0.23050E+02   -0.23356E+01  4735   0.371E+00    0.390E+00
RMM:  17    -0.232601118226E+04   -0.65393E+01   -0.73757E+00  5060   0.184E+00    0.282E+00
RMM:  18    -0.232712324022E+04   -0.11121E+01   -0.83294E-01  5522   0.762E-01    0.337E+00
RMM:  19    -0.232708914152E+04    0.34099E-01   -0.93786E-02  5751   0.242E-01    0.342E+00
RMM:  20    -0.232769933656E+04   -0.61020E+00   -0.91372E-02  4618   0.229E-01    0.293E+00
RMM:  21    -0.232827717279E+04   -0.57784E+00   -0.30611E-01  4618   0.349E-01    0.192E+00
RMM:  22    -0.232859744478E+04   -0.32027E+00   -0.30540E-01  4744   0.418E-01    0.923E-01
RMM:  23    -0.232866913328E+04   -0.71689E-01   -0.63313E-02  4818   0.272E-01    0.592E-01
RMM:  24    -0.232875525307E+04   -0.86120E-01   -0.47482E-02  4521   0.135E-01    0.374E-01
RMM:  25    -0.232880648882E+04   -0.51236E-01   -0.24108E-02  4535   0.115E-01    0.179E-01
RMM:  26    -0.232883141894E+04   -0.24930E-01   -0.81903E-03  4794   0.652E-02    0.128E-01
RMM:  27    -0.232884717411E+04   -0.15755E-01   -0.35841E-03  4587   0.463E-02    0.815E-02
RMM:  28    -0.232885770382E+04   -0.10530E-01   -0.21550E-03  4577   0.365E-02    0.497E-02
RMM:  29    -0.232886638164E+04   -0.86778E-02   -0.24288E-03  4540   0.333E-02    0.414E-02
RMM:  30    -0.232886846246E+04   -0.20808E-02   -0.69655E-04  4224   0.249E-02    0.230E-02
RMM:  31    -0.232886919498E+04   -0.73252E-03   -0.30226E-04  4041   0.115E-02    0.152E-02
RMM:  32    -0.232886944725E+04   -0.25227E-03   -0.82537E-05  3745   0.106E-02    0.589E-03
RMM:  33    -0.232886954179E+04   -0.94539E-04   -0.34838E-05  3342   0.437E-03    0.429E-03
RMM:  34    -0.232886957813E+04   -0.36338E-04   -0.75557E-06  2893   0.382E-03    0.214E-03
RMM:  35    -0.232886960450E+04   -0.26379E-04   -0.67476E-06  2816   0.217E-03    0.151E-03
RMM:  36    -0.232886961261E+04   -0.81040E-05   -0.23837E-06  2527   0.207E-03
   1 F= -.23503566E+04 E0= -.23503564E+04  d E =-.453761E-03  mag=     3.9958
       N       E                     dE             d eps       ncg     rms          rms(c)
DAV:   1    -0.232886919672E+04    0.40778E-03   -0.20100E+00  4680   0.688E-01    0.284E-01
RMM:   2    -0.232887063944E+04   -0.14427E-02   -0.18439E-02  4697   0.715E-02    0.222E-01
RMM:   3    -0.232887129469E+04   -0.65526E-03   -0.28596E-03  4343   0.368E-02    0.329E-01
RMM:   4    -0.232887043329E+04    0.86140E-03   -0.13090E-03  4864   0.174E-02    0.163E-01
RMM:   5    -0.232887034293E+04    0.90360E-04   -0.61673E-04  3556   0.120E-02    0.112E-01
RMM:   6    -0.232887018840E+04    0.15453E-03   -0.12760E-04  3065   0.685E-03    0.242E-02
RMM:   7    -0.232887019055E+04   -0.21490E-05   -0.35311E-05  2858   0.391E-03
   2 F= -.23503571E+04 E0= -.23503569E+04  d E =-.226277E-03  mag=     3.9973
       N       E                     dE             d eps       ncg     rms          rms(c)
DAV:   1    -0.232882766688E+04    0.42522E-01   -0.79721E+00  4540   0.137E+00    0.555E-01
RMM:   2    -0.232883346311E+04   -0.57962E-02   -0.73423E-02  4935   0.146E-01    0.437E-01
RMM:   3    -0.232883572891E+04   -0.22658E-02   -0.10713E-02  4924   0.714E-02    0.628E-01
RMM:   4    -0.232883250863E+04    0.32203E-02   -0.48301E-03  5687   0.331E-02    0.310E-01
RMM:   5    -0.232883228975E+04    0.21889E-03   -0.24048E-03  4774   0.229E-02    0.229E-01
RMM:   6    -0.232883163424E+04    0.65550E-03   -0.51749E-04  3689   0.117E-02    0.436E-02
RMM:   7    -0.232883164988E+04   -0.15636E-04   -0.12962E-04  3111   0.663E-03    0.556E-02
RMM:   8    -0.232883161873E+04    0.31149E-04   -0.61014E-05  2997   0.485E-03    0.175E-02
RMM:   9    -0.232883161821E+04    0.52281E-06   -0.13044E-05  2872   0.281E-03
   3 F= -.23503188E+04 E0= -.23503184E+04  d E =-.895181E-03  mag=     3.9928
       N       E                     dE             d eps       ncg     rms          rms(c)
DAV:   1    -0.232886318105E+04   -0.31562E-01   -0.38769E+00  4580   0.982E-01    0.440E-01
RMM:   2    -0.232886644227E+04   -0.32612E-02   -0.46993E-02  4983   0.117E-01    0.407E-01
RMM:   3    -0.232886761103E+04   -0.11688E-02   -0.72397E-03  4893   0.613E-02    0.535E-01
RMM:   4    -0.232886508799E+04    0.25230E-02   -0.26767E-03  5117   0.249E-02    0.171E-01
RMM:   5    -0.232886539146E+04   -0.30347E-03   -0.14985E-03  4906   0.206E-02    0.219E-01
RMM:   6    -0.232886483788E+04    0.55358E-03   -0.57042E-04  3962   0.127E-02    0.408E-02
RMM:   7    -0.232886483195E+04    0.59226E-05   -0.10038E-04  3223   0.565E-03    0.363E-02
RMM:   8    -0.232886483059E+04    0.13633E-05   -0.52327E-05  2925   0.448E-03
   4 F= -.23503517E+04 E0= -.23503515E+04  d E =-.351881E-03  mag=     3.9955
       N       E                     dE             d eps       ncg     rms          rms(c)
DAV:   1    -0.232885546854E+04    0.93634E-02   -0.76597E+00  4560   0.143E+00    0.607E-01
RMM:   2    -0.232885882123E+04   -0.33527E-02   -0.74095E-02  5328   0.149E-01    0.514E-01
RMM:   3    -0.232886016982E+04   -0.13486E-02   -0.11563E-02  5310   0.710E-02    0.659E-01
RMM:   4    -0.232885629717E+04    0.38727E-02   -0.44547E-03  5316   0.306E-02    0.263E-01
RMM:   5    -0.232885720536E+04   -0.90819E-03   -0.35332E-03  5570   0.278E-02    0.357E-01
RMM:   6    -0.232885559053E+04    0.16148E-02   -0.11653E-03  5106   0.175E-02    0.538E-02
RMM:   7    -0.232885557157E+04    0.18953E-04   -0.17751E-04  3408   0.741E-03    0.343E-02
RMM:   8    -0.232885559788E+04   -0.26309E-04   -0.68746E-05  3056   0.545E-03    0.377E-02
RMM:   9    -0.232885559175E+04    0.61341E-05   -0.29560E-05  2963   0.441E-03
   5 F= -.23503428E+04 E0= -.23503425E+04  d E =-.572142E-03  mag=     3.9949
       N       E                     dE             d eps       ncg     rms          rms(c)
DAV:   1    -0.232887913702E+04   -0.23539E-01   -0.38222E+00  4560   0.952E-01    0.387E-01
RMM:   2    -0.232888140432E+04   -0.22673E-02   -0.53962E-02  5385   0.118E-01    0.275E-01
RMM:   3    -0.232888092665E+04    0.47768E-03   -0.49830E-03  4975   0.522E-02    0.281E-01
RMM:   4    -0.232888037078E+04    0.55587E-03   -0.20896E-03  4981   0.208E-02    0.179E-01
RMM:   5    -0.232888052657E+04   -0.15579E-03   -0.13237E-03  4738   0.188E-02    0.235E-01
RMM:   6    -0.232887996272E+04    0.56386E-03   -0.53441E-04  4284   0.124E-02    0.607E-02
RMM:   7    -0.232887993207E+04    0.30648E-04   -0.11317E-04  3261   0.591E-03    0.416E-02
RMM:   8    -0.232887992437E+04    0.76976E-05   -0.57892E-05  2979   0.486E-03
   6 F= -.23503674E+04 E0= -.23503671E+04  d E =-.620830E-03  mag=     3.9945
       N       E                     dE             d eps       ncg     rms          rms(c)
DAV:   1    -0.232882257480E+04    0.57357E-01   -0.75089E+00  4540   0.138E+00    0.541E-01
RMM:   2    -0.232883098158E+04   -0.84068E-02   -0.10848E-01  5523   0.176E-01    0.442E-01
RMM:   3    -0.232883275916E+04   -0.17776E-02   -0.12499E-02  5525   0.768E-02    0.661E-01
RMM:   4    -0.232882887826E+04    0.38809E-02   -0.43740E-03  5429   0.325E-02    0.232E-01
RMM:   5    -0.232882942561E+04   -0.54736E-03   -0.30108E-03  5237   0.271E-02    0.300E-01
RMM:   6    -0.232882840044E+04    0.10252E-02   -0.97667E-04  4696   0.157E-02    0.579E-02
RMM:   7    -0.232882838884E+04    0.11596E-04   -0.21505E-04  3411   0.701E-03    0.530E-02
RMM:   8    -0.232882835666E+04    0.32182E-04   -0.70745E-05  2992   0.522E-03    0.234E-02
RMM:   9    -0.232882835481E+04    0.18514E-05   -0.18759E-05  2918   0.323E-03
   7 F= -.23503149E+04 E0= -.23503148E+04  d E =-.333023E-03  mag=     3.9965
       N       E                     dE             d eps       ncg     rms          rms(c)
DAV:   1    -0.232887152212E+04   -0.43165E-01   -0.68387E+00  4540   0.130E+00    0.438E-01
RMM:   2    -0.232887878958E+04   -0.72675E-02   -0.86694E-02  5122   0.156E-01    0.310E-01
RMM:   3    -0.232888025893E+04   -0.14694E-02   -0.88343E-03  5609   0.610E-02    0.520E-01
RMM:   4    -0.232887771475E+04    0.25442E-02   -0.22725E-03  5112   0.230E-02    0.167E-01
RMM:   5    -0.232887810014E+04   -0.38539E-03   -0.15228E-03  4708   0.186E-02    0.223E-01
RMM:   6    -0.232887756895E+04    0.53119E-03   -0.62547E-04  4079   0.130E-02    0.364E-02
RMM:   7    -0.232887755558E+04    0.13364E-04   -0.96925E-05  3155   0.586E-03    0.192E-02
RMM:   8    -0.232887756085E+04   -0.52670E-05   -0.22876E-05  2901   0.357E-03
   8 F= -.23503646E+04 E0= -.23503644E+04  d E =-.487088E-03  mag=     3.9960
       N       E                     dE             d eps       ncg     rms          rms(c)
DAV:   1    -0.232884081080E+04    0.36745E-01   -0.20703E+01  4580   0.221E+00    0.609E-01
RMM:   2    -0.232885541179E+04   -0.14601E-01   -0.17186E-01  4669   0.231E-01    0.349E-01
RMM:   3    -0.232885686249E+04   -0.14507E-02   -0.20232E-02  5289   0.785E-02    0.416E-01
RMM:   4    -0.232885550773E+04    0.13548E-02   -0.42417E-03  5864   0.305E-02    0.256E-01
RMM:   5    -0.232885559248E+04   -0.84753E-04   -0.16647E-03  4615   0.187E-02    0.246E-01
RMM:   6    -0.232885497478E+04    0.61770E-03   -0.58467E-04  3812   0.122E-02    0.489E-02
RMM:   7    -0.232885498702E+04   -0.12236E-04   -0.98788E-05  3100   0.622E-03    0.351E-02
RMM:   8    -0.232885498772E+04   -0.70287E-06   -0.42045E-05  2950   0.447E-03
   9 F= -.23503419E+04 E0= -.23503417E+04  d E =-.429367E-03  mag=     3.9961
       N       E                     dE             d eps       ncg     rms          rms(c)
DAV:   1    -0.232886364773E+04   -0.86607E-02   -0.10364E+01  4520   0.153E+00    0.429E-01
RMM:   2    -0.232887191797E+04   -0.82702E-02   -0.94889E-02  4523   0.180E-01    0.256E-01
RMM:   3    -0.232887462141E+04   -0.27034E-02   -0.12596E-02  5567   0.620E-02    0.511E-01
RMM:   4    -0.232887197805E+04    0.26434E-02   -0.28321E-03  5455   0.251E-02    0.137E-01
RMM:   5    -0.232887213824E+04   -0.16019E-03   -0.96932E-04  4139   0.138E-02    0.156E-01
RMM:   6    -0.232887184995E+04    0.28829E-03   -0.37866E-04  3541   0.978E-03    0.351E-02
RMM:   7    -0.232887185267E+04   -0.27238E-05   -0.57148E-05  2998   0.496E-03
  10 F= -.23503587E+04 E0= -.23503585E+04  d E =-.393753E-03  mag=     3.9964
       N       E                     dE             d eps       ncg     rms          rms(c)
DAV:   1    -0.232883364454E+04    0.38205E-01   -0.19781E+01  4480   0.226E+00    0.790E-01
RMM:   2    -0.232885056670E+04   -0.16922E-01   -0.22247E-01  4766   0.291E-01    0.505E-01
RMM:   3    -0.232885975932E+04   -0.91926E-02   -0.36520E-02  5664   0.118E-01    0.996E-01
RMM:   4    -0.232884937993E+04    0.10379E-01   -0.93806E-03  5974   0.458E-02    0.316E-01
RMM:   5    -0.232884898078E+04    0.39916E-03   -0.31109E-03  5177   0.234E-02    0.243E-01
RMM:   6    -0.232884842032E+04    0.56045E-03   -0.99427E-04  4698   0.157E-02    0.593E-02
RMM:   7    -0.232884843368E+04   -0.13353E-04   -0.21094E-04  3285   0.891E-03    0.577E-02
RMM:   8    -0.232884840477E+04    0.28903E-04   -0.92747E-05  3167   0.567E-03    0.311E-02
RMM:   9    -0.232884839590E+04    0.88776E-05   -0.16220E-05  2935   0.359E-03
  11 F= -.23503356E+04 E0= -.23503353E+04  d E =-.523746E-03  mag=     3.9956
       N       E                     dE             d eps       ncg     rms          rms(c)
DAV:   1    -0.232881654077E+04    0.31864E-01   -0.99263E+00  4520   0.164E+00    0.474E-01
RMM:   2    -0.232882754013E+04   -0.10999E-01   -0.12184E-01  4966   0.198E-01    0.449E-01
RMM:   3    -0.232882765999E+04   -0.11986E-03   -0.13104E-02  5709   0.657E-02    0.536E-01
RMM:   4    -0.232882539089E+04    0.22691E-02   -0.32953E-03  5438   0.276E-02    0.248E-01
RMM:   5    -0.232882527312E+04    0.11777E-03   -0.21126E-03  4903   0.208E-02    0.209E-01
RMM:   6    -0.232882483040E+04    0.44272E-03   -0.64092E-04  4512   0.132E-02    0.319E-02
RMM:   7    -0.232882483860E+04   -0.82006E-05   -0.86785E-05  3089   0.544E-03
  12 F= -.23503125E+04 E0= -.23503123E+04  d E =-.395301E-03  mag=     3.9961
       N       E                     dE             d eps       ncg     rms          rms(c)
DAV:   1    -0.232888088959E+04   -0.56059E-01   -0.19855E+01  4500   0.226E+00    0.799E-01
RMM:   2    -0.232889837743E+04   -0.17488E-01   -0.23714E-01  4758   0.290E-01    0.611E-01
RMM:   3    -0.232890309733E+04   -0.47199E-02   -0.31748E-02  5667   0.114E-01    0.909E-01
RMM:   4    -0.232889561992E+04    0.74774E-02   -0.91862E-03  5835   0.454E-02    0.382E-01
RMM:   5    -0.232889548275E+04    0.13717E-03   -0.46098E-03  5479   0.297E-02    0.332E-01
RMM:   6    -0.232889444686E+04    0.10359E-02   -0.17233E-03  5174   0.201E-02    0.635E-02
RMM:   7    -0.232889447704E+04   -0.30181E-04   -0.30357E-04  3284   0.894E-03    0.838E-02
RMM:   8    -0.232889438129E+04    0.95745E-04   -0.10433E-04  2950   0.559E-03    0.221E-02
RMM:   9    -0.232889437904E+04    0.22500E-05   -0.56468E-05  3212   0.375E-03
  13 F= -.23503808E+04 E0= -.23503805E+04  d E =-.541167E-03  mag=     3.9955
       N       E                     dE             d eps       ncg     rms          rms(c)
DAV:   1    -0.232882738740E+04    0.66994E-01   -0.99757E+00  4520   0.163E+00    0.604E-01
RMM:   2    -0.232883879111E+04   -0.11404E-01   -0.15795E-01  4851   0.222E-01    0.394E-01
RMM:   3    -0.232884048406E+04   -0.16929E-02   -0.16326E-02  5220   0.959E-02    0.616E-01
RMM:   4    -0.232883729639E+04    0.31877E-02   -0.53812E-03  5586   0.357E-02    0.270E-01
RMM:   5    -0.232883764080E+04   -0.34441E-03   -0.28282E-03  5075   0.238E-02    0.306E-01
RMM:   6    -0.232883671119E+04    0.92961E-03   -0.12082E-03  4914   0.172E-02    0.529E-02
RMM:   7    -0.232883671435E+04   -0.31534E-05   -0.16480E-04  3136   0.704E-03    0.564E-02
RMM:   8    -0.232883667346E+04    0.40881E-04   -0.58073E-05  2906   0.438E-03    0.197E-02
RMM:   9    -0.232883667018E+04    0.32806E-05   -0.28174E-05  2960   0.289E-03
  14 F= -.23503230E+04 E0= -.23503228E+04  d E =-.525198E-03  mag=     3.9953
       N       E                     dE             d eps       ncg     rms          rms(c)
DAV:   1    -0.232885488823E+04   -0.18215E-01   -0.20320E+01  4520   0.226E+00    0.876E-01
RMM:   2    -0.232885854301E+04   -0.36548E-02   -0.16997E-01  4467   0.236E-01    0.505E-01
RMM:   3    -0.232885635207E+04    0.21909E-02   -0.26903E-02  4949   0.110E-01    0.343E-01
RMM:   4    -0.232885747735E+04   -0.11253E-02   -0.73163E-03  5870   0.408E-02    0.442E-01
RMM:   5    -0.232885542116E+04    0.20562E-02   -0.13400E-03  4980   0.201E-02    0.742E-02
RMM:   6    -0.232885547488E+04   -0.53723E-04   -0.32112E-04  3691   0.938E-03    0.843E-02
RMM:   7    -0.232885540434E+04    0.70542E-04   -0.11304E-04  3142   0.684E-03    0.283E-02
RMM:   8    -0.232885540407E+04    0.26521E-06   -0.29834E-05  2935   0.387E-03
  15 F= -.23503431E+04 E0= -.23503429E+04  d E =-.383401E-03  mag=     3.9962
       N       E                     dE             d eps       ncg     rms          rms(c)
DAV:   1    -0.232885835035E+04   -0.29460E-02   -0.10221E+01  4500   0.153E+00    0.603E-01
RMM:   2    -0.232886112792E+04   -0.27776E-02   -0.89532E-02  4500   0.167E-01    0.363E-01
RMM:   3    -0.232886151199E+04   -0.38408E-03   -0.13208E-02  4934   0.834E-02    0.416E-01
RMM:   4    -0.232885962346E+04    0.18885E-02   -0.55959E-03  5592   0.350E-02    0.181E-01
RMM:   5    -0.232885949744E+04    0.12602E-03   -0.97021E-04  4677   0.191E-02    0.167E-01
RMM:   6    -0.232885926045E+04    0.23700E-03   -0.33480E-04  3319   0.899E-03    0.700E-02
RMM:   7    -0.232885922958E+04    0.30871E-04   -0.10525E-04  3149   0.604E-03    0.471E-02
RMM:   8    -0.232885920679E+04    0.22785E-04   -0.51513E-05  3024   0.478E-03    0.239E-02
RMM:   9    -0.232885920002E+04    0.67744E-05   -0.15312E-05  2931   0.333E-03
  16 F= -.23503456E+04 E0= -.23503454E+04  d E =-.429388E-03  mag=     3.9962
       N       E                     dE             d eps       ncg     rms          rms(c)
DAV:   1    -0.232885757902E+04    0.16278E-02   -0.20689E+01  4480   0.218E+00    0.681E-01
RMM:   2    -0.232887225905E+04   -0.14680E-01   -0.19580E-01  4534   0.227E-01    0.394E-01
RMM:   3    -0.232887389023E+04   -0.16312E-02   -0.20164E-02  4760   0.115E-01    0.549E-01
RMM:   4    -0.232887102146E+04    0.28688E-02   -0.68440E-03  5865   0.399E-02    0.277E-01
RMM:   5    -0.232887138440E+04   -0.36295E-03   -0.26201E-03  5192   0.245E-02    0.313E-01
RMM:   6    -0.232887030497E+04    0.10794E-02   -0.98996E-04  4266   0.152E-02    0.656E-02
RMM:   7    -0.232887028899E+04    0.15984E-04   -0.16255E-04  3274   0.723E-03    0.515E-02
RMM:   8    -0.232887026904E+04    0.19947E-04   -0.66671E-05  3061   0.540E-03    0.296E-02
RMM:   9    -0.232887026302E+04    0.60239E-05   -0.26217E-05  3035   0.397E-03
  17 F= -.23503579E+04 E0= -.23503577E+04  d E =-.479875E-03  mag=     3.9958
       N       E                     dE             d eps       ncg     rms          rms(c)
DAV:   1    -0.232883394363E+04    0.36325E-01   -0.10195E+01  4480   0.168E+00    0.627E-01
RMM:   2    -0.232884067321E+04   -0.67296E-02   -0.11806E-01  4533   0.195E-01    0.333E-01
RMM:   3    -0.232884159110E+04   -0.91789E-03   -0.14208E-02  4637   0.108E-01    0.478E-01
RMM:   4    -0.232883955315E+04    0.20380E-02   -0.41909E-03  5619   0.337E-02    0.218E-01
RMM:   5    -0.232883969075E+04   -0.13760E-03   -0.17639E-03  4766   0.190E-02    0.243E-01
RMM:   6    -0.232883896555E+04    0.72520E-03   -0.83639E-04  4500   0.141E-02    0.587E-02
RMM:   7    -0.232883893165E+04    0.33894E-04   -0.12875E-04  3364   0.714E-03    0.401E-02
RMM:   8    -0.232883891653E+04    0.15118E-04   -0.46788E-05  2966   0.493E-03    0.237E-02
RMM:   9    -0.232883891022E+04    0.63170E-05   -0.41590E-05  3096   0.408E-03
  18 F= -.23503260E+04 E0= -.23503258E+04  d E =-.451106E-03  mag=     3.9960
       N       E                     dE             d eps       ncg     rms          rms(c)
DAV:   1    -0.232885854067E+04   -0.19624E-01   -0.20256E+01  4480   0.227E+00    0.989E-01
RMM:   2    -0.232887684205E+04   -0.18301E-01   -0.32858E-01  4700   0.269E-01    0.433E-01
RMM:   3    -0.232887485365E+04    0.19884E-02   -0.25702E-02  4643   0.138E-01    0.378E-01
RMM:   4    -0.232887625871E+04   -0.14051E-02   -0.71727E-03  5920   0.410E-02    0.519E-01
RMM:   5    -0.232887370273E+04    0.25560E-02   -0.43148E-03  5225   0.288E-02    0.177E-01
RMM:   6    -0.232887348520E+04    0.21752E-03   -0.89430E-04  3874   0.184E-02    0.114E-01
RMM:   7    -0.232887330333E+04    0.18187E-03   -0.19022E-04  3615   0.828E-03    0.369E-02
RMM:   8    -0.232887331662E+04   -0.13287E-04   -0.23285E-04  3688   0.752E-03    0.479E-02
RMM:   9    -0.232887329465E+04    0.21970E-04   -0.52983E-05  3052   0.565E-03    0.228E-02
RMM:  10    -0.232887328546E+04    0.91906E-05   -0.24591E-05  2903   0.293E-03
  19 F= -.23503602E+04 E0= -.23503600E+04  d E =-.455524E-03  mag=     3.9960
       N       E                     dE             d eps       ncg     rms          rms(c)
DAV:   1    -0.232884120128E+04    0.32093E-01   -0.54260E+00  4480   0.119E+00    0.518E-01
RMM:   2    -0.232884402764E+04   -0.28264E-02   -0.68643E-02  4472   0.136E-01    0.258E-01
RMM:   3    -0.232884340347E+04    0.62417E-03   -0.73700E-03  4253   0.751E-02    0.200E-01
RMM:   4    -0.232884371909E+04   -0.31562E-03   -0.23074E-03  5201   0.238E-02    0.256E-01
RMM:   5    -0.232884321187E+04    0.50723E-03   -0.85944E-04  4513   0.145E-02    0.144E-01
RMM:   6    -0.232884298212E+04    0.22975E-03   -0.31099E-04  3348   0.915E-03    0.416E-02
RMM:   7    -0.232884296498E+04    0.17140E-04   -0.42210E-05  2947   0.448E-03    0.187E-02
RMM:   8    -0.232884296511E+04   -0.13209E-06   -0.19407E-05  2836   0.317E-03
  20 F= -.23503304E+04 E0= -.23503302E+04  d E =-.454183E-03  mag=     3.9960
       N       E                     dE             d eps       ncg     rms          rms(c)
DAV:   1    -0.232888182499E+04   -0.38860E-01   -0.12704E+00  5060   0.498E-01    0.548E-01
RMM:   2    -0.232887809189E+04    0.37331E-02   -0.18749E-02  4711   0.666E-02    0.310E-01
RMM:   3    -0.232887744871E+04    0.64317E-03   -0.41222E-03  4641   0.403E-02    0.216E-01
RMM:   4    -0.232887817297E+04   -0.72426E-03   -0.25043E-03  5046   0.222E-02    0.326E-01
RMM:   5    -0.232887716150E+04    0.10115E-02   -0.77242E-04  3864   0.144E-02    0.104E-01
RMM:   6    -0.232887710617E+04    0.55328E-04   -0.30108E-04  3302   0.821E-03    0.744E-02
RMM:   7    -0.232887702683E+04    0.79341E-04   -0.84106E-05  3012   0.543E-03    0.191E-02
RMM:   8    -0.232887703165E+04   -0.48232E-05   -0.28350E-05  2791   0.348E-03
  21 F= -.23503636E+04 E0= -.23503634E+04  d E =-.457997E-03  mag=     3.9960
       N       E                     dE             d eps       ncg     rms          rms(c)
DAV:   1    -0.232888274835E+04   -0.57215E-02   -0.64163E-01  5040   0.333E-01    0.391E-01
RMM:   2    -0.232888078608E+04    0.19623E-02   -0.10655E-02  4869   0.483E-02    0.229E-01
RMM:   3    -0.232888135756E+04   -0.57148E-03   -0.27917E-03  4616   0.325E-02    0.339E-01
RMM:   4    -0.232888059658E+04    0.76098E-03   -0.16940E-03  4720   0.186E-02    0.197E-01
RMM:   5    -0.232888031551E+04    0.28107E-03   -0.41865E-04  3910   0.108E-02    0.902E-02
RMM:   6    -0.232888023699E+04    0.78523E-04   -0.16971E-04  2985   0.739E-03    0.469E-02
RMM:   7    -0.232888020856E+04    0.28426E-04   -0.31206E-05  2837   0.400E-03    0.118E-02
RMM:   8    -0.232888020833E+04    0.23410E-06   -0.10634E-05  2590   0.229E-03
  22 F= -.23503673E+04 E0= -.23503670E+04  d E =-.549872E-03  mag=     3.9953
       N       E                     dE             d eps       ncg     rms          rms(c)
DAV:   1    -0.232885549639E+04    0.24712E-01   -0.12386E+00  4620   0.461E-01    0.383E-01
RMM:   2    -0.232885511146E+04    0.38493E-03   -0.95965E-03  5126   0.497E-02    0.245E-01
RMM:   3    -0.232885664459E+04   -0.15331E-02   -0.29898E-03  5025   0.295E-02    0.447E-01
RMM:   4    -0.232885495849E+04    0.16861E-02   -0.17597E-03  4884   0.196E-02    0.164E-01
RMM:   5    -0.232885489970E+04    0.58787E-04   -0.49976E-04  4000   0.115E-02    0.114E-01
RMM:   6    -0.232885473802E+04    0.16168E-03   -0.14714E-04  2976   0.717E-03    0.231E-02
RMM:   7    -0.232885473308E+04    0.49425E-05   -0.20474E-05  2817   0.316E-03
  23 F= -.23503417E+04 E0= -.23503416E+04  d E =-.371702E-03  mag=     3.9963
       N       E                     dE             d eps       ncg     rms          rms(c)
DAV:   1    -0.232887502244E+04   -0.20284E-01   -0.62490E-01  4820   0.331E-01    0.253E-01
RMM:   2    -0.232887508940E+04   -0.66963E-04   -0.38389E-03  4407   0.299E-02    0.164E-01
RMM:   3    -0.232887617953E+04   -0.10901E-02   -0.16911E-03  4660   0.218E-02    0.338E-01
RMM:   4    -0.232887505102E+04    0.11285E-02   -0.91103E-04  4373   0.147E-02    0.101E-01
RMM:   5    -0.232887497349E+04    0.77538E-04   -0.21000E-04  3013   0.746E-03    0.476E-02
RMM:   6    -0.232887494788E+04    0.25603E-04   -0.28577E-05  2806   0.376E-03    0.893E-03
RMM:   7    -0.232887494808E+04   -0.19415E-06   -0.82112E-06  2614   0.191E-03
  24 F= -.23503621E+04 E0= -.23503618E+04  d E =-.498936E-03  mag=     3.9958
       N       E                     dE             d eps       ncg     rms          rms(c)
DAV:   1    -0.232885644588E+04    0.18502E-01   -0.12436E+00  4940   0.458E-01    0.407E-01
RMM:   2    -0.232885564817E+04    0.79771E-03   -0.10461E-02  4458   0.493E-02    0.235E-01
RMM:   3    -0.232885578878E+04   -0.14061E-03   -0.28814E-03  4648   0.301E-02    0.220E-01
RMM:   4    -0.232885570648E+04    0.82298E-04   -0.12799E-03  4698   0.163E-02    0.206E-01
RMM:   5    -0.232885532545E+04    0.38103E-03   -0.33212E-04  3597   0.103E-02    0.555E-02
RMM:   6    -0.232885531134E+04    0.14113E-04   -0.12151E-04  2998   0.558E-03    0.469E-02
RMM:   7    -0.232885528458E+04    0.26752E-04   -0.36047E-05  2809   0.382E-03    0.120E-02
RMM:   8    -0.232885528568E+04   -0.10995E-05   -0.95990E-06  2526   0.257E-03
  25 F= -.23503422E+04 E0= -.23503420E+04  d E =-.413067E-03  mag=     3.9962
       N       E                     dE             d eps       ncg     rms          rms(c)
DAV:   1    -0.232883074134E+04    0.24543E-01   -0.60210E-01  5120   0.387E-01    0.357E-01
RMM:   2    -0.232883039918E+04    0.34216E-03   -0.14875E-02  4648   0.597E-02    0.204E-01
RMM:   3    -0.232883041434E+04   -0.15164E-04   -0.22528E-03  4546   0.330E-02    0.195E-01
RMM:   4    -0.232883050065E+04   -0.86304E-04   -0.11762E-03  4516   0.156E-02    0.213E-01
RMM:   5    -0.232883010808E+04    0.39257E-03   -0.33267E-04  3737   0.109E-02    0.572E-02
RMM:   6    -0.232883012814E+04   -0.20063E-04   -0.16253E-04  3077   0.680E-03    0.664E-02
RMM:   7    -0.232883007202E+04    0.56118E-04   -0.38863E-05  2874   0.473E-03    0.923E-03
RMM:   8    -0.232883007132E+04    0.70863E-06   -0.70111E-06  2688   0.204E-03
  26 F= -.23503170E+04 E0= -.23503168E+04  d E =-.467886E-03  mag=     3.9960
       N       E                     dE             d eps       ncg     rms          rms(c)
DAV:   1    -0.232887638205E+04   -0.46310E-01   -0.11517E+00  5140   0.520E-01    0.632E-01
RMM:   2    -0.232887356802E+04    0.28140E-02   -0.48348E-02  4602   0.977E-02    0.301E-01
RMM:   3    -0.232887340568E+04    0.16233E-03   -0.48399E-03  4458   0.596E-02    0.262E-01
RMM:   4    -0.232887402207E+04   -0.61639E-03   -0.25334E-03  5182   0.228E-02    0.348E-01
RMM:   5    -0.232887300095E+04    0.10211E-02   -0.94786E-04  4587   0.166E-02    0.110E-01
RMM:   6    -0.232887295854E+04    0.42406E-04   -0.40274E-04  3527   0.105E-02    0.925E-02
RMM:   7    -0.232887285093E+04    0.10761E-03   -0.62951E-05  2938   0.587E-03    0.146E-02
RMM:   8    -0.232887285009E+04    0.84251E-06   -0.21195E-05  2853   0.293E-03
  27 F= -.23503599E+04 E0= -.23503597E+04  d E =-.437897E-03  mag=     3.9961
       N       E                     dE             d eps       ncg     rms          rms(c)
DAV:   1    -0.232885742335E+04    0.15428E-01   -0.55850E-01  4760   0.357E-01    0.322E-01
RMM:   2    -0.232885715588E+04    0.26747E-03   -0.12410E-02  4962   0.543E-02    0.171E-01
RMM:   3    -0.232885711739E+04    0.38486E-04   -0.16156E-03  4415   0.296E-02    0.134E-01
RMM:   4    -0.232885720330E+04   -0.85905E-04   -0.81944E-04  4282   0.137E-02    0.141E-01
RMM:   5    -0.232885699892E+04    0.20438E-03   -0.20204E-04  3445   0.912E-03    0.471E-02
RMM:   6    -0.232885706244E+04   -0.63525E-04   -0.11648E-04  3098   0.661E-03    0.870E-02
RMM:   7    -0.232885698712E+04    0.75320E-04   -0.37199E-05  2895   0.467E-03    0.964E-03
RMM:   8    -0.232885698774E+04   -0.61331E-06   -0.83969E-06  2785   0.224E-03
  28 F= -.23503437E+04 E0= -.23503435E+04  d E =-.445651E-03  mag=     3.9961
       N       E                     dE             d eps       ncg     rms          rms(c)
DAV:   1    -0.232887949340E+04   -0.22506E-01   -0.10923E+00  4480   0.472E-01    0.306E-01
RMM:   2    -0.232888062386E+04   -0.11305E-02   -0.77273E-03  4429   0.483E-02    0.190E-01
RMM:   3    -0.232888143040E+04   -0.80655E-03   -0.15889E-03  4367   0.302E-02    0.217E-01
RMM:   4    -0.232888108499E+04    0.34542E-03   -0.87069E-04  4420   0.148E-02    0.114E-01
RMM:   5    -0.232888108098E+04    0.40036E-05   -0.21720E-04  3316   0.922E-03    0.102E-01
RMM:   6    -0.232888096935E+04    0.11163E-03   -0.77567E-05  2992   0.602E-03    0.148E-02
RMM:   7    -0.232888097246E+04   -0.31145E-05   -0.17878E-05  2905   0.319E-03
  29 F= -.23503683E+04 E0= -.23503681E+04  d E =-.461341E-03  mag=     3.9960
       N       E                     dE             d eps       ncg     rms          rms(c)
DAV:   1    -0.232886169212E+04    0.19277E-01   -0.54765E-01  4480   0.337E-01    0.245E-01
RMM:   2    -0.232886202008E+04   -0.32796E-03   -0.55998E-03  4207   0.386E-02    0.138E-01
RMM:   3    -0.232886226353E+04   -0.24345E-03   -0.91208E-04  4021   0.236E-02    0.127E-01
RMM:   4    -0.232886218896E+04    0.74567E-04   -0.44201E-04  3835   0.104E-02    0.779E-02
RMM:   5    -0.232886223323E+04   -0.44267E-04   -0.16995E-04  3291   0.778E-03    0.932E-02
RMM:   6    -0.232886214126E+04    0.91971E-04   -0.85254E-05  3159   0.585E-03    0.143E-02
RMM:   7    -0.232886213934E+04    0.19153E-05   -0.91168E-06  2807   0.289E-03
  30 F= -.23503492E+04 E0= -.23503490E+04  d E =-.454671E-03  mag=     3.9960
       N       E                     dE             d eps       ncg     rms          rms(c)
DAV:   1    -0.232886657205E+04   -0.44308E-02   -0.11178E+00  4500   0.488E-01    0.413E-01
RMM:   2    -0.232886658345E+04   -0.11395E-04   -0.15797E-02  4379   0.615E-02    0.221E-01
RMM:   3    -0.232886687820E+04   -0.29476E-03   -0.22141E-03  4197   0.354E-02    0.162E-01
RMM:   4    -0.232886727995E+04   -0.40175E-03   -0.11826E-03  4668   0.159E-02    0.239E-01
RMM:   5    -0.232886676269E+04    0.51726E-03   -0.35529E-04  3847   0.111E-02    0.438E-02
RMM:   6    -0.232886680493E+04   -0.42237E-04   -0.16253E-04  3387   0.706E-03    0.563E-02
RMM:   7    -0.232886676215E+04    0.42784E-04   -0.38980E-05  2889   0.489E-03    0.129E-02
RMM:   8    -0.232886676039E+04    0.17559E-05   -0.14815E-05  2780   0.238E-03
  31 F= -.23503537E+04 E0= -.23503535E+04  d E =-.449392E-03  mag=     3.9960
