       N       E                     dE             d eps       ncg     rms          rms(c)
DAV:   1     0.127144680865E+05    0.12714E+05   -0.83262E+05  4464   0.144E+03
DAV:   2    -0.107890043994E+04   -0.13793E+05   -0.13214E+05  5336   0.330E+02
DAV:   3    -0.247318823249E+04   -0.13943E+04   -0.13812E+04  5368   0.110E+02
DAV:   4    -0.251927259604E+04   -0.46084E+02   -0.45866E+02  6680   0.300E+01
DAV:   5    -0.252014453580E+04   -0.87194E+00   -0.87060E+00  5584   0.324E+00    0.170E+02
RMM:   6    -0.147518743902E+04    0.10450E+04   -0.19351E+03  4401   0.387E+01    0.726E+01
RMM:   7    -0.164984311922E+04   -0.17466E+03   -0.27514E+02  4957   0.138E+01    0.498E+01
RMM:   8    -0.170811376428E+04   -0.58271E+02   -0.50126E+01  5088   0.733E+00    0.432E+01
RMM:   9    -0.178055410779E+04   -0.72440E+02   -0.66308E+01  5025   0.760E+00    0.340E+01
RMM:  10    -0.193645514300E+04   -0.15590E+03   -0.71146E+01  5139   0.814E+00    0.207E+01
RMM:  11    -0.201463974294E+04   -0.78185E+02   -0.31264E+01  4872   0.482E+00    0.158E+01
RMM:  12    -0.210712009376E+04   -0.92480E+02   -0.40767E+01  4591   0.494E+00    0.123E+01
RMM:  13    -0.224221664067E+04   -0.13510E+03   -0.11525E+02  4455   0.763E+00    0.862E+00
RMM:  14    -0.229214304913E+04   -0.49926E+02   -0.48173E+01  4446   0.501E+00    0.563E+00
RMM:  15    -0.230312314609E+04   -0.10980E+02   -0.12435E+01  4943   0.290E+00    0.521E+00
RMM:  16    -0.230490686388E+04   -0.17837E+01   -0.24458E+00  5359   0.102E+00    0.479E+00
RMM:  17    -0.230736281261E+04   -0.24559E+01   -0.12532E+00  4486   0.851E-01    0.306E+00
RMM:  18    -0.231002589390E+04   -0.26631E+01   -0.12807E+00  4444   0.827E-01    0.173E+00
RMM:  19    -0.231109367839E+04   -0.10678E+01   -0.48464E-01  4854   0.504E-01    0.977E-01
RMM:  20    -0.231133360922E+04   -0.23993E+00   -0.18152E-01  4868   0.266E-01    0.766E-01
RMM:  21    -0.231146257531E+04   -0.12897E+00   -0.69665E-02  4705   0.173E-01    0.416E-01
RMM:  22    -0.231152141882E+04   -0.58844E-01   -0.24897E-02  4559   0.115E-01    0.254E-01
RMM:  23    -0.231154011483E+04   -0.18696E-01   -0.67473E-03  4777   0.643E-02    0.187E-01
RMM:  24    -0.231155633726E+04   -0.16222E-01   -0.38168E-03  4590   0.446E-02    0.103E-01
RMM:  25    -0.231157508983E+04   -0.18753E-01   -0.43578E-03  4409   0.471E-02    0.804E-02
RMM:  26    -0.231158301959E+04   -0.79298E-02   -0.20197E-03  4615   0.350E-02    0.522E-02
RMM:  27    -0.231158823582E+04   -0.52162E-02   -0.13007E-03  4306   0.252E-02    0.338E-02
RMM:  28    -0.231159026338E+04   -0.20276E-02   -0.49577E-04  4200   0.190E-02    0.227E-02
RMM:  29    -0.231159104530E+04   -0.78193E-03   -0.21116E-04  3992   0.978E-03    0.140E-02
RMM:  30    -0.231159141500E+04   -0.36969E-03   -0.74965E-05  3603   0.766E-03    0.742E-03
RMM:  31    -0.231159155668E+04   -0.14169E-03   -0.29374E-05  3165   0.471E-03    0.364E-03
RMM:  32    -0.231159163638E+04   -0.79700E-04   -0.14804E-05  2914   0.401E-03    0.249E-03
RMM:  33    -0.231159166704E+04   -0.30660E-04   -0.86743E-06  2828   0.311E-03    0.124E-03
RMM:  34    -0.231159167470E+04   -0.76508E-05   -0.37970E-06  2440   0.245E-03
   1 F= -.23320441E+04 E0= -.23320441E+04  d E =-.233204E+04  mag=     3.0001
       N       E                     dE             d eps       ncg     rms          rms(c)
DAV:   1    -0.231133328908E+04    0.25838E+00   -0.16633E+01  5008   0.306E+00    0.168E+00
RMM:   2    -0.231179502893E+04   -0.46174E+00   -0.49474E+00  6333   0.908E-01    0.756E-01
RMM:   3    -0.231183117676E+04   -0.36148E-01   -0.48105E-01  5836   0.272E-01    0.564E-01
RMM:   4    -0.231183576765E+04   -0.45909E-02   -0.49455E-02  5604   0.640E-02    0.627E-01
RMM:   5    -0.231183230306E+04    0.34646E-02   -0.47477E-03  5573   0.303E-02    0.316E-01
RMM:   6    -0.231183151548E+04    0.78757E-03   -0.25809E-03  5005   0.231E-02    0.130E-01
RMM:   7    -0.231183141936E+04    0.96127E-04   -0.68546E-04  4344   0.169E-02    0.376E-02
RMM:   8    -0.231183141966E+04   -0.29866E-06   -0.72883E-05  3106   0.682E-03
   2 F= -.23322859E+04 E0= -.23322859E+04  d E =-.241733E+00  mag=     3.0000
       N       E                     dE             d eps       ncg     rms          rms(c)
DAV:   1    -0.231134820944E+04    0.48321E+00   -0.18993E+01  4624   0.318E+00    0.171E+00
RMM:   2    -0.231187588055E+04   -0.52767E+00   -0.56369E+00  6342   0.906E-01    0.808E-01
RMM:   3    -0.231192488744E+04   -0.49007E-01   -0.59050E-01  5867   0.290E-01    0.852E-01
RMM:   4    -0.231192576861E+04   -0.88117E-03   -0.58135E-02  5798   0.652E-02    0.573E-01
RMM:   5    -0.231192299370E+04    0.27749E-02   -0.41191E-03  5182   0.275E-02    0.338E-01
RMM:   6    -0.231192187061E+04    0.11231E-02   -0.32778E-03  5195   0.267E-02    0.144E-01
RMM:   7    -0.231192176552E+04    0.10509E-03   -0.10062E-03  4587   0.205E-02    0.491E-02
RMM:   8    -0.231192176209E+04    0.34302E-05   -0.10323E-04  3252   0.790E-03    0.317E-02
RMM:   9    -0.231192175057E+04    0.11524E-04   -0.50969E-05  3084   0.553E-03    0.117E-02
RMM:  10    -0.231192175329E+04   -0.27240E-05   -0.16689E-05  2903   0.355E-03
   3 F= -.23323789E+04 E0= -.23323789E+04  d E =-.334792E+00  mag=     3.0000
       N       E                     dE             d eps       ncg     rms          rms(c)
DAV:   1    -0.231150069678E+04    0.42105E+00   -0.25532E+01  4496   0.393E+00    0.176E+00
RMM:   2    -0.231192719150E+04   -0.42649E+00   -0.46224E+00  6226   0.948E-01    0.128E+00
RMM:   3    -0.231198008822E+04   -0.52897E-01   -0.53334E-01  5896   0.374E-01    0.177E+00
RMM:   4    -0.231195484755E+04    0.25241E-01   -0.54580E-02  6277   0.915E-02    0.553E-01
RMM:   5    -0.231195090493E+04    0.39426E-02   -0.79903E-03  5280   0.454E-02    0.325E-01
RMM:   6    -0.231194895061E+04    0.19543E-02   -0.49683E-03  5191   0.384E-02    0.134E-01
RMM:   7    -0.231194881749E+04    0.13311E-03   -0.11766E-03  5019   0.244E-02    0.600E-02
RMM:   8    -0.231194881288E+04    0.46104E-05   -0.17354E-04  3543   0.823E-03    0.313E-02
RMM:   9    -0.231194888219E+04   -0.69309E-04   -0.98868E-05  3652   0.736E-03    0.157E-02
RMM:  10    -0.231194893217E+04   -0.49975E-04   -0.27811E-05  2957   0.515E-03    0.871E-03
RMM:  11    -0.231194898268E+04   -0.50510E-04   -0.15582E-05  2873   0.385E-03    0.517E-03
RMM:  12    -0.231194903797E+04   -0.55292E-04   -0.14590E-05  2867   0.359E-03    0.307E-03
RMM:  13    -0.231194906507E+04   -0.27099E-04   -0.94632E-06  2812   0.330E-03    0.217E-03
RMM:  14    -0.231194907294E+04   -0.78720E-05   -0.47975E-06  2656   0.269E-03
   4 F= -.23324059E+04 E0= -.23324059E+04  d E =-.270128E-01  mag=     3.0000
       N       E                     dE             d eps       ncg     rms          rms(c)
DAV:   1    -0.231190106372E+04    0.48001E-01   -0.50784E+00  4544   0.174E+00    0.798E-01
RMM:   2    -0.231198916099E+04   -0.88097E-01   -0.91444E-01  6260   0.436E-01    0.853E-01
RMM:   3    -0.231199095008E+04   -0.17891E-02   -0.94091E-02  5793   0.151E-01    0.644E-01
RMM:   4    -0.231198771619E+04    0.32339E-02   -0.99963E-03  5635   0.391E-02    0.235E-01
RMM:   5    -0.231198692750E+04    0.78869E-03   -0.19919E-03  4869   0.229E-02    0.127E-01
RMM:   6    -0.231198668801E+04    0.23949E-03   -0.80559E-04  4804   0.177E-02    0.675E-02
RMM:   7    -0.231198664624E+04    0.41771E-04   -0.16495E-04  3684   0.103E-02    0.242E-02
RMM:   8    -0.231198663765E+04    0.85919E-05   -0.28843E-05  2908   0.453E-03
   5 F= -.23324436E+04 E0= -.23324436E+04  d E =-.646953E-01  mag=     3.0000
       N       E                     dE             d eps       ncg     rms          rms(c)
DAV:   1    -0.231193828386E+04    0.48362E-01   -0.76052E+00  4480   0.235E+00    0.953E-01
RMM:   2    -0.231205615769E+04   -0.11787E+00   -0.12789E+00  6207   0.544E-01    0.752E-01
RMM:   3    -0.231206880053E+04   -0.12643E-01   -0.14986E-01  5922   0.213E-01    0.840E-01
RMM:   4    -0.231206289442E+04    0.59061E-02   -0.13385E-02  6033   0.497E-02    0.284E-01
RMM:   5    -0.231206173291E+04    0.11615E-02   -0.34756E-03  5337   0.316E-02    0.137E-01
RMM:   6    -0.231206161494E+04    0.11797E-03   -0.12562E-03  4930   0.236E-02    0.506E-02
RMM:   7    -0.231206157651E+04    0.38429E-04   -0.12628E-04  3767   0.100E-02    0.229E-02
RMM:   8    -0.231206156658E+04    0.99335E-05   -0.39557E-05  3061   0.531E-03
   6 F= -.23325189E+04 E0= -.23325189E+04  d E =-.753130E-01  mag=     3.0000
       N       E                     dE             d eps       ncg     rms          rms(c)
DAV:   1    -0.231200815030E+04    0.53426E-01   -0.44037E+00  4512   0.181E+00    0.722E-01
RMM:   2    -0.231207568903E+04   -0.67539E-01   -0.73480E-01  6222   0.414E-01    0.555E-01
RMM:   3    -0.231208229540E+04   -0.66064E-02   -0.79971E-02  5838   0.158E-01    0.621E-01
RMM:   4    -0.231207919128E+04    0.31041E-02   -0.76148E-03  5884   0.374E-02    0.217E-01
RMM:   5    -0.231207850623E+04    0.68505E-03   -0.20587E-03  5249   0.248E-02    0.107E-01
RMM:   6    -0.231207843148E+04    0.74747E-04   -0.70201E-04  4846   0.181E-02    0.444E-02
RMM:   7    -0.231207840521E+04    0.26271E-04   -0.81241E-05  3414   0.803E-03    0.189E-02
RMM:   8    -0.231207839734E+04    0.78749E-05   -0.24627E-05  2952   0.457E-03
   7 F= -.23325361E+04 E0= -.23325361E+04  d E =-.924367E-01  mag=     3.0000
       N       E                     dE             d eps       ncg     rms          rms(c)
DAV:   1    -0.231210452317E+04   -0.26118E-01   -0.40671E+00  4480   0.191E+00    0.678E-01
RMM:   2    -0.231213756432E+04   -0.33041E-01   -0.37597E-01  6040   0.369E-01    0.357E-01
RMM:   3    -0.231214038778E+04   -0.28235E-02   -0.35934E-02  5677   0.137E-01    0.455E-01
RMM:   4    -0.231213871803E+04    0.16697E-02   -0.44222E-03  5842   0.338E-02    0.192E-01
RMM:   5    -0.231213816180E+04    0.55623E-03   -0.15221E-03  4950   0.255E-02    0.740E-02
RMM:   6    -0.231213810720E+04    0.54597E-04   -0.30589E-04  4719   0.155E-02    0.354E-02
RMM:   7    -0.231213808141E+04    0.25796E-04   -0.50016E-05  3439   0.588E-03    0.135E-02
RMM:   8    -0.231213807035E+04    0.11060E-04   -0.18062E-05  2897   0.505E-03    0.736E-03
RMM:   9    -0.231213806705E+04    0.32962E-05   -0.10300E-05  2826   0.354E-03
   8 F= -.23325950E+04 E0= -.23325950E+04  d E =-.589101E-01  mag=     3.0000
       N       E                     dE             d eps       ncg     rms          rms(c)
DAV:   1    -0.231209167595E+04    0.46394E-01   -0.99816E+00  4416   0.299E+00    0.106E+00
RMM:   2    -0.231217243831E+04   -0.80762E-01   -0.92895E-01  6055   0.570E-01    0.512E-01
RMM:   3    -0.231217818553E+04   -0.57472E-02   -0.87282E-02  5624   0.207E-01    0.587E-01
RMM:   4    -0.231217574867E+04    0.24369E-02   -0.10609E-02  6016   0.510E-02    0.321E-01
RMM:   5    -0.231217423131E+04    0.15174E-02   -0.35175E-03  5041   0.384E-02    0.117E-01
RMM:   6    -0.231217405043E+04    0.18089E-03   -0.84005E-04  4927   0.233E-02    0.490E-02
RMM:   7    -0.231217398539E+04    0.65037E-04   -0.13509E-04  4136   0.868E-03    0.265E-02
RMM:   8    -0.231217395273E+04    0.32654E-04   -0.57065E-05  3522   0.736E-03    0.145E-02
RMM:   9    -0.231217394398E+04    0.87565E-05   -0.24722E-05  3082   0.494E-03
   9 F= -.23326294E+04 E0= -.23326294E+04  d E =-.933701E-01  mag=     3.0000
       N       E                     dE             d eps       ncg     rms          rms(c)
DAV:   1    -0.231218381227E+04   -0.98595E-02   -0.52965E+00  4528   0.194E+00    0.607E-01
RMM:   2    -0.231223310329E+04   -0.49291E-01   -0.52067E-01  6107   0.379E-01    0.466E-01
RMM:   3    -0.231223685927E+04   -0.37560E-02   -0.56932E-02  5768   0.134E-01    0.419E-01
RMM:   4    -0.231223568888E+04    0.11704E-02   -0.59914E-03  5697   0.337E-02    0.223E-01
RMM:   5    -0.231223511541E+04    0.57347E-03   -0.16238E-03  4995   0.234E-02    0.104E-01
RMM:   6    -0.231223504033E+04    0.75089E-04   -0.50307E-04  4868   0.158E-02    0.474E-02
RMM:   7    -0.231223502198E+04    0.18345E-04   -0.86832E-05  3494   0.818E-03    0.187E-02
RMM:   8    -0.231223501530E+04    0.66776E-05   -0.19489E-05  2879   0.435E-03
  10 F= -.23326899E+04 E0= -.23326899E+04  d E =-.605246E-01  mag=     3.0000
       N       E                     dE             d eps       ncg     rms          rms(c)
DAV:   1    -0.231214666773E+04    0.88354E-01   -0.13417E+01  4448   0.309E+00    0.967E-01
RMM:   2    -0.231227357696E+04   -0.12691E+00   -0.13385E+00  6139   0.614E-01    0.786E-01
RMM:   3    -0.231228145788E+04   -0.78809E-02   -0.14423E-01  5840   0.213E-01    0.622E-01
RMM:   4    -0.231227888583E+04    0.25720E-02   -0.14918E-02  5764   0.534E-02    0.343E-01
RMM:   5    -0.231227749934E+04    0.13865E-02   -0.40841E-03  5198   0.376E-02    0.168E-01
RMM:   6    -0.231227729903E+04    0.20032E-03   -0.12391E-03  5181   0.243E-02    0.831E-02
RMM:   7    -0.231227723025E+04    0.68774E-04   -0.25126E-04  4418   0.127E-02    0.329E-02
RMM:   8    -0.231227720594E+04    0.24311E-04   -0.54856E-05  3175   0.589E-03    0.167E-02
RMM:   9    -0.231227719684E+04    0.91020E-05   -0.27082E-05  2946   0.476E-03
  11 F= -.23327306E+04 E0= -.23327306E+04  d E =-.101224E+00  mag=     3.0000
       N       E                     dE             d eps       ncg     rms          rms(c)
DAV:   1    -0.231220447208E+04    0.72734E-01   -0.67461E+00  4448   0.225E+00    0.899E-01
RMM:   2    -0.231231813139E+04   -0.11366E+00   -0.11647E+00  6199   0.531E-01    0.924E-01
RMM:   3    -0.231231875812E+04   -0.62673E-03   -0.11562E-01  5960   0.177E-01    0.507E-01
RMM:   4    -0.231231677092E+04    0.19872E-02   -0.12225E-02  5369   0.436E-02    0.239E-01
RMM:   5    -0.231231591035E+04    0.86057E-03   -0.19055E-03  5136   0.284E-02    0.126E-01
RMM:   6    -0.231231572764E+04    0.18270E-03   -0.95613E-04  4889   0.214E-02    0.398E-02
RMM:   7    -0.231231570983E+04    0.17818E-04   -0.10845E-04  3831   0.112E-02    0.199E-02
RMM:   8    -0.231231569720E+04    0.12629E-04   -0.23885E-05  2931   0.455E-03    0.102E-02
RMM:   9    -0.231231569260E+04    0.45979E-05   -0.11999E-05  2862   0.341E-03
  12 F= -.23327696E+04 E0= -.23327696E+04  d E =-.389840E-01  mag=     3.0000
       N       E                     dE             d eps       ncg     rms          rms(c)
DAV:   1    -0.231230706193E+04    0.86353E-02   -0.68040E-01  4656   0.711E-01    0.282E-01
RMM:   2    -0.231231822935E+04   -0.11167E-01   -0.11561E-01  6207   0.164E-01    0.272E-01
RMM:   3    -0.231231848439E+04   -0.25504E-03   -0.10869E-02  5506   0.552E-02    0.173E-01
RMM:   4    -0.231231824261E+04    0.24178E-03   -0.11959E-03  4559   0.142E-02    0.764E-02
RMM:   5    -0.231231814901E+04    0.93600E-04   -0.20285E-04  3983   0.996E-03    0.380E-02
RMM:   6    -0.231231813406E+04    0.14947E-04   -0.94029E-05  3695   0.776E-03    0.178E-02
RMM:   7    -0.231231813099E+04    0.30693E-05   -0.16962E-05  2876   0.567E-03
  13 F= -.23327722E+04 E0= -.23327722E+04  d E =-.415199E-01  mag=     3.0000
       N       E                     dE             d eps       ncg     rms          rms(c)
DAV:   1    -0.231219525089E+04    0.12288E+00   -0.86103E+00  4432   0.231E+00    0.919E-01
RMM:   2    -0.231234661138E+04   -0.15136E+00   -0.15338E+00  6341   0.555E-01    0.109E+00
RMM:   3    -0.231234479305E+04    0.18183E-02   -0.13411E-01  5857   0.178E-01    0.517E-01
RMM:   4    -0.231234305866E+04    0.17344E-02   -0.14865E-02  5270   0.412E-02    0.269E-01
RMM:   5    -0.231234183716E+04    0.12215E-02   -0.22263E-03  4927   0.265E-02    0.152E-01
RMM:   6    -0.231234160736E+04    0.22981E-03   -0.13267E-03  4674   0.225E-02    0.406E-02
RMM:   7    -0.231234160147E+04    0.58820E-05   -0.13574E-04  3498   0.908E-03    0.216E-02
RMM:   8    -0.231234160039E+04    0.10827E-05   -0.23206E-05  2902   0.443E-03
  14 F= -.23327952E+04 E0= -.23327952E+04  d E =-.230460E-01  mag=     3.0000
       N       E                     dE             d eps       ncg     rms          rms(c)
DAV:   1    -0.231234156699E+04    0.34479E-04   -0.21554E-03  5064   0.368E-02    0.142E-02
RMM:   2    -0.231234160439E+04   -0.37396E-04   -0.35362E-04  3977   0.910E-03    0.147E-02
RMM:   3    -0.231234160748E+04   -0.30895E-05   -0.41903E-05  2818   0.481E-03
  15 F= -.23327952E+04 E0= -.23327952E+04  d E =-.230614E-01  mag=     3.0000
       N       E                     dE             d eps       ncg     rms          rms(c)
DAV:   1    -0.231227287858E+04    0.68726E-01   -0.49862E+00  4448   0.202E+00    0.784E-01
RMM:   2    -0.231236042849E+04   -0.87550E-01   -0.90850E-01  6151   0.455E-01    0.778E-01
RMM:   3    -0.231236237785E+04   -0.19494E-02   -0.78306E-02  5813   0.153E-01    0.497E-01
RMM:   4    -0.231236049139E+04    0.18865E-02   -0.92964E-03  5472   0.371E-02    0.205E-01
RMM:   5    -0.231235985798E+04    0.63340E-03   -0.12740E-03  4968   0.236E-02    0.110E-01
RMM:   6    -0.231235973199E+04    0.12599E-03   -0.79742E-04  5063   0.181E-02    0.501E-02
RMM:   7    -0.231235969945E+04    0.32544E-04   -0.93458E-05  3807   0.102E-02    0.214E-02
RMM:   8    -0.231235968703E+04    0.12423E-04   -0.23321E-05  2868   0.428E-03    0.923E-03
RMM:   9    -0.231235968335E+04    0.36789E-05   -0.11865E-05  2870   0.331E-03
  16 F= -.23328130E+04 E0= -.23328130E+04  d E =-.178025E-01  mag=     3.0000
       N       E                     dE             d eps       ncg     rms          rms(c)
DAV:   1    -0.231235651795E+04    0.31691E-02   -0.21778E-01  4816   0.423E-01    0.162E-01
RMM:   2    -0.231236029403E+04   -0.37761E-02   -0.39369E-02  6183   0.954E-02    0.154E-01
RMM:   3    -0.231236041931E+04   -0.12528E-03   -0.33658E-03  4469   0.320E-02    0.106E-01
RMM:   4    -0.231236032693E+04    0.92383E-04   -0.41467E-04  3215   0.872E-03    0.429E-02
RMM:   5    -0.231236029597E+04    0.30959E-04   -0.56029E-05  3022   0.602E-03    0.232E-02
RMM:   6    -0.231236028843E+04    0.75424E-05   -0.41681E-05  3097   0.572E-03
  17 F= -.23328136E+04 E0= -.23328136E+04  d E =-.183380E-01  mag=     3.0000
       N       E                     dE             d eps       ncg     rms          rms(c)
DAV:   1    -0.231231371014E+04    0.46586E-01   -0.30911E+00  4416   0.157E+00    0.581E-01
RMM:   2    -0.231237178104E+04   -0.58071E-01   -0.62873E-01  6111   0.344E-01    0.439E-01
RMM:   3    -0.231237649317E+04   -0.47121E-02   -0.62215E-02  5587   0.136E-01    0.353E-01
RMM:   4    -0.231237582431E+04    0.66886E-03   -0.67101E-03  5511   0.285E-02    0.188E-01
RMM:   5    -0.231237542428E+04    0.40003E-03   -0.94898E-04  5046   0.175E-02    0.116E-01
RMM:   6    -0.231237524680E+04    0.17748E-03   -0.69323E-04  4895   0.150E-02    0.488E-02
RMM:   7    -0.231237522259E+04    0.24207E-04   -0.83589E-05  3397   0.982E-03    0.177E-02
RMM:   8    -0.231237521398E+04    0.86086E-05   -0.21776E-05  2889   0.399E-03
  18 F= -.23328277E+04 E0= -.23328277E+04  d E =-.141102E-01  mag=     3.0000
       N       E                     dE             d eps       ncg     rms          rms(c)
DAV:   1    -0.231234284598E+04    0.32377E-01   -0.18207E+00  4464   0.121E+00    0.445E-01
RMM:   2    -0.231237701076E+04   -0.34165E-01   -0.36958E-01  6114   0.264E-01    0.338E-01
RMM:   3    -0.231237980845E+04   -0.27977E-02   -0.36443E-02  5556   0.105E-01    0.276E-01
RMM:   4    -0.231237940347E+04    0.40498E-03   -0.39654E-03  5204   0.220E-02    0.145E-01
RMM:   5    -0.231237916035E+04    0.24312E-03   -0.54331E-04  4653   0.137E-02    0.903E-02
RMM:   6    -0.231237905112E+04    0.10924E-03   -0.42743E-04  4710   0.122E-02    0.411E-02
RMM:   7    -0.231237903345E+04    0.17671E-04   -0.57604E-05  3054   0.837E-03    0.143E-02
RMM:   8    -0.231237902841E+04    0.50341E-05   -0.15843E-05  2867   0.369E-03
  19 F= -.23328308E+04 E0= -.23328308E+04  d E =-.172656E-01  mag=     3.0000
       N       E                     dE             d eps       ncg     rms          rms(c)
DAV:   1    -0.231233668363E+04    0.42350E-01   -0.28071E+00  4416   0.146E+00    0.514E-01
RMM:   2    -0.231238930337E+04   -0.52620E-01   -0.57268E-01  6241   0.310E-01    0.297E-01
RMM:   3    -0.231239406753E+04   -0.47642E-02   -0.53811E-02  5620   0.110E-01    0.209E-01
RMM:   4    -0.231239425176E+04   -0.18423E-03   -0.57507E-03  4901   0.232E-02    0.191E-01
RMM:   5    -0.231239397611E+04    0.27565E-03   -0.82867E-04  4795   0.149E-02    0.128E-01
RMM:   6    -0.231239380035E+04    0.17576E-03   -0.44176E-04  4567   0.118E-02    0.377E-02
RMM:   7    -0.231239379946E+04    0.88944E-06   -0.65501E-05  3061   0.796E-03
  20 F= -.23328445E+04 E0= -.23328445E+04  d E =-.136863E-01  mag=     3.0000
       N       E                     dE             d eps       ncg     rms          rms(c)
DAV:   1    -0.231188702034E+04    0.50678E+00   -0.25212E+01  4416   0.438E+00    0.159E+00
RMM:   2    -0.231237679580E+04   -0.48978E+00   -0.52953E+00  6341   0.990E-01    0.119E+00
RMM:   3    -0.231241916267E+04   -0.42367E-01   -0.55632E-01  6018   0.331E-01    0.930E-01
RMM:   4    -0.231241690608E+04    0.22566E-02   -0.54555E-02  6095   0.740E-02    0.599E-01
RMM:   5    -0.231241393331E+04    0.29728E-02   -0.78271E-03  5504   0.428E-02    0.353E-01
RMM:   6    -0.231241258533E+04    0.13480E-02   -0.40509E-03  5044   0.331E-02    0.136E-01
RMM:   7    -0.231241257662E+04    0.87060E-05   -0.11073E-03  4842   0.249E-02    0.862E-02
RMM:   8    -0.231241250506E+04    0.71558E-04   -0.16540E-04  3714   0.954E-03    0.396E-02
RMM:   9    -0.231241248351E+04    0.21557E-04   -0.76170E-05  3024   0.633E-03    0.150E-02
RMM:  10    -0.231241248184E+04    0.16637E-05   -0.23591E-05  2894   0.426E-03
  21 F= -.23328598E+04 E0= -.23328598E+04  d E =-.289706E-01  mag=     3.0000
       N       E                     dE             d eps       ncg     rms          rms(c)
DAV:   1    -0.231240858990E+04    0.38936E-02   -0.45009E-01  4848   0.563E-01    0.200E-01
RMM:   2    -0.231241756318E+04   -0.89733E-02   -0.97468E-02  6341   0.123E-01    0.112E-01
RMM:   3    -0.231241838980E+04   -0.82662E-03   -0.88557E-03  4788   0.443E-02    0.729E-02
RMM:   4    -0.231241843817E+04   -0.48366E-04   -0.10093E-03  3282   0.992E-03    0.770E-02
RMM:   5    -0.231241839788E+04    0.40289E-04   -0.97287E-05  2916   0.587E-03    0.530E-02
RMM:   6    -0.231241837434E+04    0.23539E-04   -0.72831E-05  3213   0.537E-03    0.130E-02
RMM:   7    -0.231241837529E+04   -0.94829E-06   -0.10600E-05  2793   0.404E-03
  22 F= -.23328653E+04 E0= -.23328653E+04  d E =-.549521E-02  mag=     3.0000
       N       E                     dE             d eps       ncg     rms          rms(c)
DAV:   1    -0.231234587693E+04    0.72497E-01   -0.40418E+00  4416   0.169E+00    0.607E-01
RMM:   2    -0.231242667090E+04   -0.80794E-01   -0.87961E-01  6394   0.375E-01    0.359E-01
RMM:   3    -0.231243455138E+04   -0.78805E-02   -0.86453E-02  5650   0.127E-01    0.246E-01
RMM:   4    -0.231243489337E+04   -0.34199E-03   -0.90099E-03  4859   0.268E-02    0.224E-01
RMM:   5    -0.231243463742E+04    0.25595E-03   -0.10762E-03  4697   0.157E-02    0.174E-01
RMM:   6    -0.231243435640E+04    0.28102E-03   -0.58065E-04  4581   0.124E-02    0.677E-02
RMM:   7    -0.231243434203E+04    0.14368E-04   -0.16171E-04  3569   0.916E-03    0.242E-02
RMM:   8    -0.231243433741E+04    0.46223E-05   -0.21347E-05  2852   0.489E-03
  23 F= -.23328801E+04 E0= -.23328801E+04  d E =-.202540E-01  mag=     3.0000
       N       E                     dE             d eps       ncg     rms          rms(c)
DAV:   1    -0.231209783373E+04    0.33651E+00   -0.16160E+01  4416   0.338E+00    0.124E+00
RMM:   2    -0.231242849440E+04   -0.33066E+00   -0.35823E+00  6458   0.781E-01    0.903E-01
RMM:   3    -0.231246123922E+04   -0.32745E-01   -0.38497E-01  6004   0.258E-01    0.760E-01
RMM:   4    -0.231246069594E+04    0.54328E-03   -0.38558E-02  5871   0.575E-02    0.522E-01
RMM:   5    -0.231245876405E+04    0.19319E-02   -0.44794E-03  5349   0.306E-02    0.303E-01
RMM:   6    -0.231245795334E+04    0.81072E-03   -0.25808E-03  4763   0.243E-02    0.143E-01
RMM:   7    -0.231245789972E+04    0.53617E-04   -0.95440E-04  4633   0.208E-02    0.780E-02
RMM:   8    -0.231245786429E+04    0.35432E-04   -0.12953E-04  3284   0.837E-03    0.428E-02
RMM:   9    -0.231245784586E+04    0.18429E-04   -0.48940E-05  2929   0.514E-03    0.141E-02
RMM:  10    -0.231245784335E+04    0.25114E-05   -0.15512E-05  2856   0.300E-03
  24 F= -.23329012E+04 E0= -.23329012E+04  d E =-.413469E-01  mag=     3.0000
       N       E                     dE             d eps       ncg     rms          rms(c)
DAV:   1    -0.231096901271E+04    0.14888E+01   -0.64821E+01  4416   0.679E+00    0.270E+00
RMM:   2    -0.231246071910E+04   -0.14917E+01   -0.15591E+01  6539   0.170E+00    0.335E+00
RMM:   3    -0.231247704878E+04   -0.16330E-01   -0.16451E+00  6049   0.551E-01    0.156E+00
RMM:   4    -0.231247275693E+04    0.42919E-02   -0.14535E-01  5902   0.116E-01    0.106E+00
RMM:   5    -0.231246588215E+04    0.68748E-02   -0.16450E-02  5213   0.618E-02    0.582E-01
RMM:   6    -0.231246367406E+04    0.22081E-02   -0.95868E-03  5102   0.534E-02    0.283E-01
RMM:   7    -0.231246415333E+04   -0.47928E-03   -0.38481E-03  5393   0.385E-02    0.349E-01
RMM:   8    -0.231246349932E+04    0.65401E-03   -0.10378E-03  4667   0.177E-02    0.833E-02
RMM:   9    -0.231246346517E+04    0.34148E-04   -0.19796E-04  3461   0.812E-03    0.424E-02
RMM:  10    -0.231246345345E+04    0.11722E-04   -0.72495E-05  3050   0.571E-03    0.175E-02
RMM:  11    -0.231246345805E+04   -0.46000E-05   -0.14756E-05  2872   0.415E-03
  25 F= -.23329021E+04 E0= -.23329021E+04  d E =-.423418E-01  mag=     3.0000
       N       E                     dE             d eps       ncg     rms          rms(c)
DAV:   1    -0.231208174185E+04    0.38171E+00   -0.17268E+01  4416   0.352E+00    0.133E+00
RMM:   2    -0.231245328286E+04   -0.37154E+00   -0.39097E+00  6418   0.807E-01    0.163E+00
RMM:   3    -0.231247386700E+04   -0.20584E-01   -0.44930E-01  6054   0.301E-01    0.973E-01
RMM:   4    -0.231247079820E+04    0.30688E-02   -0.43031E-02  5755   0.639E-02    0.480E-01
RMM:   5    -0.231246884731E+04    0.19509E-02   -0.42123E-03  4830   0.324E-02    0.296E-01
RMM:   6    -0.231246831904E+04    0.52827E-03   -0.36942E-03  5180   0.325E-02    0.153E-01
RMM:   7    -0.231246826805E+04    0.50988E-04   -0.87237E-04  4675   0.217E-02    0.999E-02
RMM:   8    -0.231246815925E+04    0.10880E-03   -0.15833E-04  3076   0.750E-03    0.295E-02
RMM:   9    -0.231246814943E+04    0.98183E-05   -0.60470E-05  2997   0.467E-03
  26 F= -.23329092E+04 E0= -.23329092E+04  d E =-.493672E-01  mag=     3.0000
       N       E                     dE             d eps       ncg     rms          rms(c)
DAV:   1    -0.231241916032E+04    0.48999E-01   -0.35263E+00  4480   0.156E+00    0.636E-01
RMM:   2    -0.231249226955E+04   -0.73109E-01   -0.80016E-01  6295   0.375E-01    0.351E-01
RMM:   3    -0.231250059885E+04   -0.83293E-02   -0.92890E-02  5742   0.141E-01    0.267E-01
RMM:   4    -0.231250086840E+04   -0.26955E-03   -0.90730E-03  5383   0.301E-02    0.254E-01
RMM:   5    -0.231250060534E+04    0.26306E-03   -0.91077E-04  4250   0.141E-02    0.208E-01
RMM:   6    -0.231250027925E+04    0.32610E-03   -0.62689E-04  4820   0.133E-02    0.898E-02
RMM:   7    -0.231250022952E+04    0.49725E-04   -0.35343E-04  4270   0.123E-02    0.451E-02
RMM:   8    -0.231250021669E+04    0.12831E-04   -0.47520E-05  2968   0.611E-03    0.202E-02
RMM:   9    -0.231250021230E+04    0.43862E-05   -0.15266E-05  2878   0.390E-03
  27 F= -.23329402E+04 E0= -.23329402E+04  d E =-.310180E-01  mag=     3.0000
       N       E                     dE             d eps       ncg     rms          rms(c)
DAV:   1    -0.231181376720E+04    0.68645E+00   -0.31737E+01  4416   0.471E+00    0.196E+00
RMM:   2    -0.231251225685E+04   -0.69849E+00   -0.75746E+00  6408   0.120E+00    0.152E+00
RMM:   3    -0.231258185942E+04   -0.69603E-01   -0.88623E-01  6010   0.423E-01    0.145E+00
RMM:   4    -0.231257473825E+04    0.71212E-02   -0.81839E-02  6279   0.917E-02    0.879E-01
RMM:   5    -0.231257062027E+04    0.41180E-02   -0.11132E-02  5677   0.465E-02    0.515E-01
RMM:   6    -0.231256904228E+04    0.15780E-02   -0.60149E-03  4969   0.372E-02    0.327E-01
RMM:   7    -0.231256858952E+04    0.45276E-03   -0.51265E-03  5469   0.408E-02    0.255E-01
RMM:   8    -0.231256826297E+04    0.32655E-03   -0.66154E-04  5250   0.174E-02    0.952E-02
RMM:   9    -0.231256819471E+04    0.68252E-04   -0.19754E-04  3503   0.767E-03    0.338E-02
RMM:  10    -0.231256817957E+04    0.15142E-04   -0.47543E-05  2994   0.544E-03    0.148E-02
RMM:  11    -0.231256818006E+04   -0.48423E-06   -0.13526E-05  2854   0.422E-03
  28 F= -.23330050E+04 E0= -.23330050E+04  d E =-.958205E-01  mag=     3.0000
       N       E                     dE             d eps       ncg     rms          rms(c)
DAV:   1    -0.230936721903E+04    0.32010E+01   -0.12736E+02  4408   0.951E+00    0.428E+00
RMM:   2    -0.231271873085E+04   -0.33515E+01   -0.34668E+01  6491   0.260E+00    0.556E+00
RMM:   3    -0.231256711148E+04    0.15162E+00   -0.33006E+00  5602   0.876E-01    0.198E+00
RMM:   4    -0.231256671523E+04    0.39625E-03   -0.33421E-01  6041   0.191E-01    0.150E+00
RMM:   5    -0.231255734223E+04    0.93730E-02   -0.26623E-02  4926   0.808E-02    0.100E+00
RMM:   6    -0.231254796887E+04    0.93734E-02   -0.29200E-02  5083   0.926E-02    0.435E-01
RMM:   7    -0.231254727779E+04    0.69108E-03   -0.60397E-03  5234   0.636E-02    0.184E-01
RMM:   8    -0.231254724808E+04    0.29712E-04   -0.22433E-03  5495   0.262E-02    0.142E-01
RMM:   9    -0.231254705601E+04    0.19206E-03   -0.35685E-04  4598   0.155E-02    0.516E-02
RMM:  10    -0.231254703207E+04    0.23941E-04   -0.15420E-04  4132   0.848E-03    0.264E-02
RMM:  11    -0.231254703134E+04    0.73432E-06   -0.34636E-05  3021   0.603E-03
  29 F= -.23329776E+04 E0= -.23329776E+04  d E =-.684530E-01  mag=     3.0000
       N       E                     dE             d eps       ncg     rms          rms(c)
DAV:   1    -0.231129004563E+04    0.12570E+01   -0.53855E+01  4416   0.619E+00    0.281E+00
RMM:   2    -0.231266266077E+04   -0.13726E+01   -0.13849E+01  6431   0.162E+00    0.412E+00
RMM:   3    -0.231260079609E+04    0.61865E-01   -0.14782E+00  6042   0.567E-01    0.138E+00
RMM:   4    -0.231259665189E+04    0.41442E-02   -0.14458E-01  5776   0.118E-01    0.782E-01
RMM:   5    -0.231259090386E+04    0.57480E-02   -0.11907E-02  5071   0.596E-02    0.529E-01
RMM:   6    -0.231258878723E+04    0.21166E-02   -0.12715E-02  5222   0.659E-02    0.314E-01
RMM:   7    -0.231258820453E+04    0.58270E-03   -0.14990E-03  5457   0.305E-02    0.113E-01
RMM:   8    -0.231258813512E+04    0.69403E-04   -0.27340E-04  4206   0.983E-03    0.703E-02
RMM:   9    -0.231258805439E+04    0.80733E-04   -0.15713E-04  3649   0.911E-03    0.235E-02
RMM:  10    -0.231258803724E+04    0.17145E-04   -0.63558E-05  3279   0.604E-03    0.112E-02
RMM:  11    -0.231258803341E+04    0.38361E-05   -0.15407E-05  2871   0.516E-03
  30 F= -.23330227E+04 E0= -.23330227E+04  d E =-.113484E+00  mag=     3.0000
       N       E                     dE             d eps       ncg     rms          rms(c)
DAV:   1    -0.231253835425E+04    0.49683E-01   -0.34754E+00  4464   0.145E+00    0.619E-01
RMM:   2    -0.231261500819E+04   -0.76654E-01   -0.83915E-01  6489   0.362E-01    0.355E-01
RMM:   3    -0.231262427436E+04   -0.92662E-02   -0.97454E-02  5911   0.136E-01    0.363E-01
RMM:   4    -0.231262400868E+04    0.26567E-03   -0.90945E-03  5042   0.281E-02    0.247E-01
RMM:   5    -0.231262359275E+04    0.41593E-03   -0.81326E-04  3624   0.130E-02    0.157E-01
RMM:   6    -0.231262338980E+04    0.20295E-03   -0.64319E-04  4615   0.124E-02    0.789E-02
RMM:   7    -0.231262337806E+04    0.11741E-04   -0.29513E-04  3580   0.110E-02    0.415E-02
RMM:   8    -0.231262336529E+04    0.12770E-04   -0.42181E-05  2915   0.535E-03    0.177E-02
RMM:   9    -0.231262336248E+04    0.28093E-05   -0.10748E-05  2850   0.300E-03
  31 F= -.23330569E+04 E0= -.23330569E+04  d E =-.342652E-01  mag=     3.0000
       N       E                     dE             d eps       ncg     rms          rms(c)
DAV:   1    -0.231191691821E+04    0.70645E+00   -0.31161E+01  4416   0.437E+00    0.186E+00
RMM:   2    -0.231263784934E+04   -0.72093E+00   -0.79019E+00  6562   0.115E+00    0.105E+00
RMM:   3    -0.231271321423E+04   -0.75365E-01   -0.90611E-01  6112   0.388E-01    0.810E-01
RMM:   4    -0.231271353371E+04   -0.31948E-03   -0.78872E-02  5989   0.778E-02    0.618E-01
RMM:   5    -0.231271139493E+04    0.21388E-02   -0.72041E-03  5695   0.349E-02    0.495E-01
RMM:   6    -0.231270975484E+04    0.16401E-02   -0.39067E-03  5649   0.292E-02    0.316E-01
RMM:   7    -0.231270902784E+04    0.72700E-03   -0.41986E-03  5463   0.307E-02    0.146E-01
RMM:   8    -0.231270891001E+04    0.11783E-03   -0.31127E-04  3663   0.152E-02    0.715E-02
RMM:   9    -0.231270885846E+04    0.51549E-04   -0.11275E-04  3046   0.616E-03    0.273E-02
RMM:  10    -0.231270885111E+04    0.73522E-05   -0.38633E-05  2901   0.437E-03
  32 F= -.23331392E+04 E0= -.23331392E+04  d E =-.116564E+00  mag=     3.0000
       N       E                     dE             d eps       ncg     rms          rms(c)
DAV:   1    -0.230935241285E+04    0.33564E+01   -0.12404E+02  4408   0.880E+00    0.384E+00
RMM:   2    -0.231260566278E+04   -0.32532E+01   -0.35108E+01  6585   0.252E+00    0.307E+00
RMM:   3    -0.231277800336E+04   -0.17234E+00   -0.35095E+00  5600   0.848E-01    0.193E+00
RMM:   4    -0.231276579195E+04    0.12211E-01   -0.31958E-01  6171   0.170E-01    0.126E+00
RMM:   5    -0.231275199595E+04    0.13796E-01   -0.29625E-02  5540   0.723E-02    0.793E-01
RMM:   6    -0.231274780365E+04    0.41923E-02   -0.13374E-02  5507   0.610E-02    0.509E-01
RMM:   7    -0.231274617697E+04    0.16267E-02   -0.13807E-02  5958   0.562E-02    0.295E-01
RMM:   8    -0.231274532249E+04    0.85448E-03   -0.12473E-03  4643   0.252E-02    0.964E-02
RMM:   9    -0.231274522973E+04    0.92765E-04   -0.31837E-04  3759   0.938E-03    0.462E-02
RMM:  10    -0.231274520310E+04    0.26624E-04   -0.91671E-05  3096   0.712E-03    0.156E-02
RMM:  11    -0.231274520411E+04   -0.10034E-05   -0.31620E-05  2944   0.476E-03
  33 F= -.23331694E+04 E0= -.23331694E+04  d E =-.146707E+00  mag=     3.0000
       N       E                     dE             d eps       ncg     rms          rms(c)
DAV:   1    -0.231229462012E+04    0.45058E+00   -0.18084E+01  4432   0.336E+00    0.144E+00
RMM:   2    -0.231272371845E+04   -0.42910E+00   -0.46237E+00  6505   0.875E-01    0.109E+00
RMM:   3    -0.231276028977E+04   -0.36571E-01   -0.51581E-01  6090   0.324E-01    0.746E-01
RMM:   4    -0.231275886975E+04    0.14200E-02   -0.45318E-02  5929   0.616E-02    0.433E-01
RMM:   5    -0.231275688052E+04    0.19892E-02   -0.38966E-03  5157   0.299E-02    0.277E-01
RMM:   6    -0.231275628082E+04    0.59970E-03   -0.32359E-03  5497   0.266E-02    0.171E-01
RMM:   7    -0.231275605828E+04    0.22254E-03   -0.11705E-03  4579   0.214E-02    0.653E-02
RMM:   8    -0.231275600275E+04    0.55525E-04   -0.11592E-04  3095   0.692E-03    0.411E-02
RMM:   9    -0.231275597188E+04    0.30873E-04   -0.84190E-05  3015   0.587E-03    0.124E-02
RMM:  10    -0.231275596902E+04    0.28581E-05   -0.27206E-05  2900   0.356E-03
  34 F= -.23331825E+04 E0= -.23331825E+04  d E =-.159802E+00  mag=     3.0000
       N       E                     dE             d eps       ncg     rms          rms(c)
DAV:   1    -0.231272941733E+04    0.26555E-01   -0.56677E+00  4448   0.206E+00    0.819E-01
RMM:   2    -0.231282369949E+04   -0.94282E-01   -0.10374E+00  6248   0.491E-01    0.402E-01
RMM:   3    -0.231283320660E+04   -0.95071E-02   -0.11343E-01  5846   0.170E-01    0.333E-01
RMM:   4    -0.231283289702E+04    0.30958E-03   -0.10963E-02  5868   0.403E-02    0.255E-01
RMM:   5    -0.231283225203E+04    0.64498E-03   -0.15757E-03  5121   0.216E-02    0.154E-01
RMM:   6    -0.231283194705E+04    0.30499E-03   -0.87237E-04  5146   0.181E-02    0.525E-02
RMM:   7    -0.231283190390E+04    0.43150E-04   -0.14191E-04  4215   0.114E-02    0.228E-02
RMM:   8    -0.231283188872E+04    0.15179E-04   -0.35715E-05  3028   0.528E-03    0.115E-02
RMM:   9    -0.231283188192E+04    0.67970E-05   -0.12568E-05  2877   0.396E-03
  35 F= -.23332577E+04 E0= -.23332577E+04  d E =-.752098E-01  mag=     3.0000
       N       E                     dE             d eps       ncg     rms          rms(c)
DAV:   1    -0.231234074646E+04    0.49114E+00   -0.30283E+01  4416   0.478E+00    0.190E+00
RMM:   2    -0.231285556245E+04   -0.51482E+00   -0.56724E+00  6313   0.116E+00    0.928E-01
RMM:   3    -0.231290901887E+04   -0.53456E-01   -0.66550E-01  5772   0.396E-01    0.723E-01
RMM:   4    -0.231290727614E+04    0.17427E-02   -0.59620E-02  6118   0.926E-02    0.527E-01
RMM:   5    -0.231290556532E+04    0.17108E-02   -0.86116E-03  5622   0.470E-02    0.459E-01
RMM:   6    -0.231290300658E+04    0.25587E-02   -0.54925E-03  5468   0.424E-02    0.161E-01
RMM:   7    -0.231290265475E+04    0.35183E-03   -0.10912E-03  5062   0.258E-02    0.714E-02
RMM:   8    -0.231290252441E+04    0.13034E-03   -0.28651E-04  4385   0.136E-02    0.316E-02
RMM:   9    -0.231290247840E+04    0.46010E-04   -0.88852E-05  3737   0.862E-03    0.183E-02
RMM:  10    -0.231290245564E+04    0.22756E-04   -0.45717E-05  3468   0.619E-03    0.963E-03
RMM:  11    -0.231290244956E+04    0.60844E-05   -0.20184E-05  2995   0.522E-03
  36 F= -.23333266E+04 E0= -.23333266E+04  d E =-.144095E+00  mag=     3.0000
       N       E                     dE             d eps       ncg     rms          rms(c)
DAV:   1    -0.231286910859E+04    0.33347E-01   -0.68887E+00  4480   0.201E+00    0.783E-01
RMM:   2    -0.231297629930E+04   -0.10719E+00   -0.11582E+00  6437   0.485E-01    0.442E-01
RMM:   3    -0.231298717592E+04   -0.10877E-01   -0.12846E-01  6016   0.158E-01    0.367E-01
RMM:   4    -0.231298647670E+04    0.69922E-03   -0.11414E-02  5722   0.380E-02    0.258E-01
RMM:   5    -0.231298591538E+04    0.56132E-03   -0.16827E-03  4673   0.189E-02    0.164E-01
RMM:   6    -0.231298564346E+04    0.27192E-03   -0.12246E-03  5115   0.180E-02    0.611E-02
RMM:   7    -0.231298562397E+04    0.19488E-04   -0.14977E-04  3268   0.108E-02    0.277E-02
RMM:   8    -0.231298561873E+04    0.52391E-05   -0.42471E-05  2912   0.510E-03
  37 F= -.23334090E+04 E0= -.23334090E+04  d E =-.824169E-01  mag=     3.0000
       N       E                     dE             d eps       ncg     rms          rms(c)
DAV:   1    -0.231202271116E+04    0.96291E+00   -0.61494E+01  4408   0.607E+00    0.238E+00
RMM:   2    -0.231303430028E+04   -0.10116E+01   -0.10972E+01  6489   0.153E+00    0.129E+00
RMM:   3    -0.231313676222E+04   -0.10246E+00   -0.12492E+00  6019   0.478E-01    0.102E+00
RMM:   4    -0.231313342315E+04    0.33391E-02   -0.10779E-01  6178   0.111E-01    0.739E-01
RMM:   5    -0.231313075118E+04    0.26720E-02   -0.14184E-02  5617   0.510E-02    0.623E-01
RMM:   6    -0.231312666327E+04    0.40879E-02   -0.13237E-02  5758   0.561E-02    0.252E-01
RMM:   7    -0.231312652236E+04    0.14091E-03   -0.20403E-03  4701   0.291E-02    0.128E-01
RMM:   8    -0.231312640139E+04    0.12097E-03   -0.50852E-04  4029   0.169E-02    0.588E-02
RMM:   9    -0.231312639710E+04    0.42874E-05   -0.15636E-04  3504   0.812E-03    0.380E-02
RMM:  10    -0.231312641028E+04   -0.13181E-04   -0.73712E-05  3204   0.656E-03    0.228E-02
RMM:  11    -0.231312642282E+04   -0.12541E-04   -0.33990E-05  2950   0.489E-03    0.151E-02
RMM:  12    -0.231312642756E+04   -0.47392E-05   -0.16504E-05  2852   0.402E-03
  38 F= -.23335473E+04 E0= -.23335473E+04  d E =-.220746E+00  mag=     3.0000
       N       E                     dE             d eps       ncg     rms          rms(c)
DAV:   1    -0.231299370485E+04    0.13272E+00   -0.84871E+00  4448   0.227E+00    0.884E-01
RMM:   2    -0.231312586386E+04   -0.13216E+00   -0.14348E+00  6461   0.541E-01    0.509E-01
RMM:   3    -0.231314084897E+04   -0.14985E-01   -0.17434E-01  6044   0.180E-01    0.426E-01
RMM:   4    -0.231313990896E+04    0.94001E-03   -0.14767E-02  5758   0.433E-02    0.293E-01
RMM:   5    -0.231313928342E+04    0.62554E-03   -0.20054E-03  4774   0.199E-02    0.201E-01
RMM:   6    -0.231313893131E+04    0.35211E-03   -0.17189E-03  5304   0.211E-02    0.897E-02
RMM:   7    -0.231313891270E+04    0.18612E-04   -0.23512E-04  3713   0.119E-02    0.507E-02
RMM:   8    -0.231313890691E+04    0.57834E-05   -0.70426E-05  2999   0.640E-03
  39 F= -.23335588E+04 E0= -.23335588E+04  d E =-.232245E+00  mag=     3.0000
       N       E                     dE             d eps       ncg     rms          rms(c)
DAV:   1    -0.231302014191E+04    0.11877E+00   -0.19565E+01  4448   0.392E+00    0.141E+00
RMM:   2    -0.231323038890E+04   -0.21025E+00   -0.23131E+00  6208   0.851E-01    0.754E-01
RMM:   3    -0.231324897470E+04   -0.18586E-01   -0.25564E-01  5811   0.279E-01    0.651E-01
RMM:   4    -0.231324552095E+04    0.34538E-02   -0.24376E-02  6178   0.738E-02    0.421E-01
RMM:   5    -0.231324397642E+04    0.15445E-02   -0.60050E-03  5069   0.418E-02    0.253E-01
RMM:   6    -0.231324335492E+04    0.62149E-03   -0.28259E-03  5354   0.339E-02    0.984E-02
RMM:   7    -0.231324326660E+04    0.88328E-04   -0.38213E-04  4992   0.185E-02    0.557E-02
RMM:   8    -0.231324325444E+04    0.12154E-04   -0.13549E-04  3413   0.779E-03    0.398E-02
RMM:   9    -0.231324325672E+04   -0.22822E-05   -0.54014E-05  3012   0.573E-03
  40 F= -.23336626E+04 E0= -.23336626E+04  d E =-.103819E+00  mag=     3.0000
       N       E                     dE             d eps       ncg     rms          rms(c)
DAV:   1    -0.231321882991E+04    0.24425E-01   -0.30461E+00  4592   0.155E+00    0.552E-01
RMM:   2    -0.231325106445E+04   -0.32235E-01   -0.35383E-01  6163   0.329E-01    0.305E-01
RMM:   3    -0.231325342604E+04   -0.23616E-02   -0.34040E-02  5793   0.110E-01    0.252E-01
RMM:   4    -0.231325290427E+04    0.52177E-03   -0.37307E-03  5644   0.292E-02    0.166E-01
RMM:   5    -0.231325263739E+04    0.26688E-03   -0.94899E-04  4606   0.187E-02    0.880E-02
RMM:   6    -0.231325257709E+04    0.60296E-04   -0.34369E-04  4707   0.141E-02    0.410E-02
RMM:   7    -0.231325257518E+04    0.19161E-05   -0.55303E-05  3149   0.737E-03
  41 F= -.23336717E+04 E0= -.23336717E+04  d E =-.112931E+00  mag=     3.0000
       N       E                     dE             d eps       ncg     rms          rms(c)
DAV:   1    -0.231326004963E+04   -0.74725E-02   -0.63116E+00  4416   0.210E+00    0.653E-01
RMM:   2    -0.231329936691E+04   -0.39317E-01   -0.42384E-01  6123   0.393E-01    0.372E-01
RMM:   3    -0.231330101286E+04   -0.16459E-02   -0.35611E-02  5725   0.123E-01    0.300E-01
RMM:   4    -0.231330038490E+04    0.62796E-03   -0.40399E-03  5884   0.343E-02    0.229E-01
RMM:   5    -0.231329991189E+04    0.47301E-03   -0.20773E-03  4725   0.286E-02    0.123E-01
RMM:   6    -0.231329984599E+04    0.65898E-04   -0.51482E-04  4563   0.181E-02    0.754E-02
RMM:   7    -0.231329984627E+04   -0.28429E-06   -0.14291E-04  3618   0.801E-03    0.549E-02
RMM:   8    -0.231329985007E+04   -0.37970E-05   -0.95902E-05  3022   0.741E-03
  42 F= -.23337179E+04 E0= -.23337179E+04  d E =-.462000E-01  mag=     3.0000
       N       E                     dE             d eps       ncg     rms          rms(c)
DAV:   1    -0.231327287678E+04    0.26969E-01   -0.76473E+00  4416   0.229E+00    0.717E-01
RMM:   2    -0.231332054484E+04   -0.47668E-01   -0.51462E-01  6112   0.431E-01    0.402E-01
RMM:   3    -0.231332250576E+04   -0.19609E-02   -0.43527E-02  5728   0.138E-01    0.318E-01
RMM:   4    -0.231332184050E+04    0.66525E-03   -0.49146E-03  5882   0.376E-02    0.250E-01
RMM:   5    -0.231332126589E+04    0.57461E-03   -0.24646E-03  4770   0.311E-02    0.136E-01
RMM:   6    -0.231332117465E+04    0.91245E-04   -0.63939E-04  4636   0.194E-02    0.837E-02
RMM:   7    -0.231332117748E+04   -0.28311E-05   -0.17397E-04  3713   0.920E-03    0.615E-02
RMM:   8    -0.231332118626E+04   -0.87792E-05   -0.12304E-04  3176   0.816E-03    0.401E-02
RMM:   9    -0.231332119936E+04   -0.13099E-04   -0.17945E-04  3600   0.790E-03    0.192E-02
RMM:  10    -0.231332120268E+04   -0.33234E-05   -0.46486E-05  2880   0.583E-03
  43 F= -.23337381E+04 E0= -.23337381E+04  d E =-.663486E-01  mag=     3.0000
       N       E                     dE             d eps       ncg     rms          rms(c)
DAV:   1    -0.231333612725E+04   -0.14928E-01   -0.66756E+00  4416   0.206E+00    0.583E-01
RMM:   2    -0.231336720475E+04   -0.31078E-01   -0.33398E-01  6098   0.357E-01    0.325E-01
RMM:   3    -0.231336821515E+04   -0.10104E-02   -0.29161E-02  5682   0.116E-01    0.240E-01
RMM:   4    -0.231336786919E+04    0.34595E-03   -0.29786E-03  5580   0.296E-02    0.186E-01
RMM:   5    -0.231336757344E+04    0.29576E-03   -0.14902E-03  4851   0.238E-02    0.998E-02
RMM:   6    -0.231336749289E+04    0.80540E-04   -0.32294E-04  4462   0.140E-02    0.415E-02
RMM:   7    -0.231336749018E+04    0.27179E-05   -0.53361E-05  3043   0.593E-03
  44 F= -.23337841E+04 E0= -.23337841E+04  d E =-.460440E-01  mag=     3.0000
       N       E                     dE             d eps       ncg     rms          rms(c)
DAV:   1    -0.231322019962E+04    0.14729E+00   -0.39914E+01  4416   0.505E+00    0.145E+00
RMM:   2    -0.231341929148E+04   -0.19909E+00   -0.21290E+00  6090   0.879E-01    0.842E-01
RMM:   3    -0.231342144331E+04   -0.21518E-02   -0.15498E-01  5717   0.269E-01    0.609E-01
RMM:   4    -0.231341917450E+04    0.22688E-02   -0.17272E-02  6000   0.734E-02    0.482E-01
RMM:   5    -0.231341713947E+04    0.20350E-02   -0.91572E-03  4921   0.567E-02    0.230E-01
RMM:   6    -0.231341678168E+04    0.35779E-03   -0.18832E-03  4930   0.339E-02    0.964E-02
RMM:   7    -0.231341678361E+04   -0.19318E-05   -0.33901E-04  4036   0.121E-02    0.583E-02
RMM:   8    -0.231341679224E+04   -0.86274E-05   -0.82118E-05  3205   0.873E-03
  45 F= -.23338329E+04 E0= -.23338329E+04  d E =-.948001E-01  mag=     3.0000
       N       E                     dE             d eps       ncg     rms          rms(c)
DAV:   1    -0.231341355054E+04    0.32331E-02   -0.14781E+01  4416   0.300E+00    0.814E-01
RMM:   2    -0.231346129678E+04   -0.47746E-01   -0.51740E-01  5801   0.489E-01    0.447E-01
RMM:   3    -0.231346042231E+04    0.87447E-03   -0.33381E-02  5149   0.169E-01    0.336E-01
RMM:   4    -0.231345991789E+04    0.50442E-03   -0.52123E-03  5802   0.475E-02    0.307E-01
RMM:   5    -0.231345898431E+04    0.93359E-03   -0.34247E-03  4891   0.397E-02    0.134E-01
RMM:   6    -0.231345889394E+04    0.90367E-04   -0.64697E-04  4670   0.205E-02    0.777E-02
RMM:   7    -0.231345888666E+04    0.72765E-05   -0.16156E-04  3799   0.924E-03    0.528E-02
RMM:   8    -0.231345888715E+04   -0.48312E-06   -0.10163E-04  3373   0.784E-03    0.293E-02
RMM:   9    -0.231345889384E+04   -0.66969E-05   -0.78602E-05  3245   0.664E-03
  46 F= -.23338753E+04 E0= -.23338753E+04  d E =-.423960E-01  mag=     3.0000
       N       E                     dE             d eps       ncg     rms          rms(c)
DAV:   1    -0.231345329711E+04    0.55900E-02   -0.39059E+00  4528   0.154E+00    0.414E-01
RMM:   2    -0.231346555880E+04   -0.12262E-01   -0.13339E-01  5803   0.248E-01    0.223E-01
RMM:   3    -0.231346526057E+04    0.29824E-03   -0.82838E-03  5087   0.824E-02    0.161E-01
RMM:   4    -0.231346514197E+04    0.11859E-03   -0.13752E-03  5496   0.246E-02    0.151E-01
RMM:   5    -0.231346489736E+04    0.24461E-03   -0.87320E-04  4889   0.207E-02    0.610E-02
RMM:   6    -0.231346487534E+04    0.22021E-04   -0.13244E-04  3537   0.966E-03    0.349E-02
RMM:   7    -0.231346487354E+04    0.18019E-05   -0.34189E-05  2957   0.513E-03
  47 F= -.23338814E+04 E0= -.23338814E+04  d E =-.485429E-01  mag=     3.0000
       N       E                     dE             d eps       ncg     rms          rms(c)
DAV:   1    -0.231343989347E+04    0.24982E-01   -0.11130E+01  4416   0.277E+00    0.785E-01
RMM:   2    -0.231349253005E+04   -0.52637E-01   -0.58804E-01  5976   0.480E-01    0.414E-01
RMM:   3    -0.231349420459E+04   -0.16745E-02   -0.52068E-02  5394   0.169E-01    0.266E-01
RMM:   4    -0.231349363562E+04    0.56897E-03   -0.53628E-03  5169   0.445E-02    0.182E-01
RMM:   5    -0.231349351947E+04    0.11615E-03   -0.20288E-03  5385   0.319E-02    0.161E-01
RMM:   6    -0.231349319539E+04    0.32409E-03   -0.51738E-04  4956   0.151E-02    0.372E-02
RMM:   7    -0.231349318529E+04    0.10091E-04   -0.82158E-05  3167   0.807E-03    0.209E-02
RMM:   8    -0.231349317755E+04    0.77416E-05   -0.23302E-05  2891   0.437E-03
  48 F= -.23339109E+04 E0= -.23339109E+04  d E =-.295186E-01  mag=     3.0000
       N       E                     dE             d eps       ncg     rms          rms(c)
DAV:   1    -0.231348941686E+04    0.37684E-02   -0.11345E+00  4608   0.886E-01    0.249E-01
RMM:   2    -0.231349466621E+04   -0.52493E-02   -0.58766E-02  5970   0.152E-01    0.129E-01
RMM:   3    -0.231349480911E+04   -0.14291E-03   -0.49803E-03  5202   0.522E-02    0.823E-02
RMM:   4    -0.231349473598E+04    0.73130E-04   -0.53561E-04  4392   0.146E-02    0.455E-02
RMM:   5    -0.231349471482E+04    0.21160E-04   -0.14153E-04  3942   0.106E-02    0.244E-02
RMM:   6    -0.231349471056E+04    0.42662E-05   -0.30541E-05  2898   0.554E-03
  49 F= -.23339129E+04 E0= -.23339129E+04  d E =-.314355E-01  mag=     3.0000
       N       E                     dE             d eps       ncg     rms          rms(c)
DAV:   1    -0.231345737643E+04    0.37338E-01   -0.10510E+01  4416   0.262E+00    0.722E-01
RMM:   2    -0.231351746964E+04   -0.60093E-01   -0.66313E-01  6047   0.479E-01    0.371E-01
RMM:   3    -0.231352049740E+04   -0.30278E-02   -0.58841E-02  5599   0.153E-01    0.269E-01
RMM:   4    -0.231352013719E+04    0.36021E-03   -0.58795E-03  5122   0.381E-02    0.190E-01
RMM:   5    -0.231351996531E+04    0.17188E-03   -0.20242E-03  5376   0.293E-02    0.153E-01
RMM:   6    -0.231351970225E+04    0.26306E-03   -0.63050E-04  5254   0.160E-02    0.515E-02
RMM:   7    -0.231351967239E+04    0.29863E-04   -0.87703E-05  3076   0.810E-03    0.209E-02
RMM:   8    -0.231351966600E+04    0.63872E-05   -0.27165E-05  2878   0.437E-03
  50 F= -.23339382E+04 E0= -.23339382E+04  d E =-.253471E-01  mag=     3.0000
       N       E                     dE             d eps       ncg     rms          rms(c)
DAV:   1    -0.231350964497E+04    0.10027E-01   -0.21724E+00  4480   0.119E+00    0.326E-01
RMM:   2    -0.231352184871E+04   -0.12204E-01   -0.13473E-01  6046   0.216E-01    0.167E-01
RMM:   3    -0.231352247678E+04   -0.62807E-03   -0.11702E-02  5471   0.699E-02    0.119E-01
RMM:   4    -0.231352240962E+04    0.67163E-04   -0.12233E-03  4476   0.181E-02    0.890E-02
RMM:   5    -0.231352236167E+04    0.47951E-04   -0.40533E-04  4433   0.138E-02    0.681E-02
RMM:   6    -0.231352230897E+04    0.52695E-04   -0.12646E-04  3701   0.816E-03    0.195E-02
RMM:   7    -0.231352230476E+04    0.42142E-05   -0.18881E-05  2885   0.520E-03
  51 F= -.23339410E+04 E0= -.23339410E+04  d E =-.281726E-01  mag=     3.0000
       N       E                     dE             d eps       ncg     rms          rms(c)
DAV:   1    -0.231349053586E+04    0.31773E-01   -0.80447E+00  4416   0.244E+00    0.722E-01
RMM:   2    -0.231353547199E+04   -0.44936E-01   -0.49983E-01  6082   0.450E-01    0.362E-01
RMM:   3    -0.231353791176E+04   -0.24398E-02   -0.46472E-02  5553   0.142E-01    0.280E-01
RMM:   4    -0.231353758564E+04    0.32612E-03   -0.51497E-03  5637   0.365E-02    0.223E-01
RMM:   5    -0.231353709311E+04    0.49254E-03   -0.18158E-03  5401   0.280E-02    0.115E-01
RMM:   6    -0.231353697805E+04    0.11506E-03   -0.53208E-04  5060   0.164E-02    0.662E-02
RMM:   7    -0.231353695787E+04    0.20175E-04   -0.11705E-04  3520   0.104E-02    0.480E-02
RMM:   8    -0.231353695510E+04    0.27739E-05   -0.87455E-05  3164   0.610E-03
  52 F= -.23339562E+04 E0= -.23339562E+04  d E =-.152072E-01  mag=     3.0000
       N       E                     dE             d eps       ncg     rms          rms(c)
DAV:   1    -0.231353695867E+04   -0.79625E-06   -0.24347E-04  4456   0.145E-02    0.165E-02
RMM:   2    -0.231353696107E+04   -0.23988E-05   -0.24364E-05  2963   0.426E-03
  53 F= -.23339562E+04 E0= -.23339562E+04  d E =-.152122E-01  mag=     3.0000
       N       E                     dE             d eps       ncg     rms          rms(c)
DAV:   1    -0.231352392569E+04    0.13033E-01   -0.28197E+00  4448   0.147E+00    0.423E-01
RMM:   2    -0.231354595279E+04   -0.22027E-01   -0.23914E-01  6135   0.278E-01    0.246E-01
RMM:   3    -0.231354779794E+04   -0.18452E-02   -0.25610E-02  5751   0.904E-02    0.211E-01
RMM:   4    -0.231354753656E+04    0.26138E-03   -0.24044E-03  5226   0.211E-02    0.137E-01
RMM:   5    -0.231354730549E+04    0.23107E-03   -0.61219E-04  4901   0.161E-02    0.745E-02
RMM:   6    -0.231354727302E+04    0.32471E-04   -0.26322E-04  4446   0.117E-02    0.426E-02
RMM:   7    -0.231354727068E+04    0.23355E-05   -0.49589E-05  2999   0.724E-03
  54 F= -.23339663E+04 E0= -.23339663E+04  d E =-.100453E-01  mag=     3.0000
       N       E                     dE             d eps       ncg     rms          rms(c)
DAV:   1    -0.231353688261E+04    0.10390E-01   -0.14666E+00  4432   0.106E+00    0.307E-01
RMM:   2    -0.231354838642E+04   -0.11504E-01   -0.12485E-01  6144   0.202E-01    0.177E-01
RMM:   3    -0.231354934845E+04   -0.96204E-03   -0.13424E-02  5644   0.651E-02    0.147E-01
RMM:   4    -0.231354924194E+04    0.10651E-03   -0.12693E-03  4326   0.156E-02    0.103E-01
RMM:   5    -0.231354912508E+04    0.11686E-03   -0.33173E-04  4371   0.124E-02    0.580E-02
RMM:   6    -0.231354911058E+04    0.14502E-04   -0.14808E-04  4027   0.930E-03    0.359E-02
RMM:   7    -0.231354911068E+04   -0.95781E-07   -0.32219E-05  2936   0.632E-03
  55 F= -.23339679E+04 E0= -.23339679E+04  d E =-.116983E-01  mag=     3.0000
       N       E                     dE             d eps       ncg     rms          rms(c)
DAV:   1    -0.231353031613E+04    0.18794E-01   -0.32029E+00  4416   0.163E+00    0.466E-01
RMM:   2    -0.231355498805E+04   -0.24672E-01   -0.27026E-01  6040   0.295E-01    0.244E-01
RMM:   3    -0.231355723110E+04   -0.22431E-02   -0.30270E-02  5439   0.998E-02    0.190E-01
RMM:   4    -0.231355715189E+04    0.79207E-04   -0.29483E-03  5069   0.229E-02    0.153E-01
RMM:   5    -0.231355692948E+04    0.22241E-03   -0.57385E-04  4938   0.151E-02    0.976E-02
RMM:   6    -0.231355685554E+04    0.73941E-04   -0.36936E-04  4763   0.129E-02    0.562E-02
RMM:   7    -0.231355685427E+04    0.12752E-05   -0.72160E-05  3077   0.834E-03
  56 F= -.23339755E+04 E0= -.23339755E+04  d E =-.759623E-02  mag=     3.0000
       N       E                     dE             d eps       ncg     rms          rms(c)
DAV:   1    -0.231355030191E+04    0.65536E-02   -0.88829E-01  4464   0.858E-01    0.247E-01
RMM:   2    -0.231355716035E+04   -0.68584E-02   -0.74954E-02  6024   0.155E-01    0.132E-01
RMM:   3    -0.231355776657E+04   -0.60621E-03   -0.83064E-03  5266   0.514E-02    0.100E-01
RMM:   4    -0.231355774858E+04    0.17987E-04   -0.81648E-04  3694   0.124E-02    0.843E-02
RMM:   5    -0.231355768946E+04    0.59116E-04   -0.17410E-04  3603   0.916E-03    0.563E-02
RMM:   6    -0.231355767147E+04    0.17995E-04   -0.12491E-04  3946   0.841E-03    0.352E-02
RMM:   7    -0.231355767259E+04   -0.11183E-05   -0.27733E-05  2893   0.592E-03
  57 F= -.23339763E+04 E0= -.23339763E+04  d E =-.834169E-02  mag=     3.0000
       N       E                     dE             d eps       ncg     rms          rms(c)
DAV:   1    -0.231353550196E+04    0.22170E-01   -0.30745E+00  4416   0.157E+00    0.463E-01
RMM:   2    -0.231356342286E+04   -0.27921E-01   -0.30521E-01  6071   0.292E-01    0.246E-01
RMM:   3    -0.231356582830E+04   -0.24054E-02   -0.31133E-02  5623   0.955E-02    0.166E-01
RMM:   4    -0.231356574806E+04    0.80246E-04   -0.30591E-03  4904   0.221E-02    0.114E-01
RMM:   5    -0.231356559827E+04    0.14979E-03   -0.51663E-04  4739   0.162E-02    0.626E-02
RMM:   6    -0.231356560836E+04   -0.10092E-04   -0.21712E-04  3882   0.111E-02    0.564E-02
RMM:   7    -0.231356558911E+04    0.19249E-04   -0.45415E-05  2922   0.599E-03    0.350E-02
RMM:   8    -0.231356559124E+04   -0.21246E-05   -0.28980E-05  2862   0.380E-03
  58 F= -.23339842E+04 E0= -.23339842E+04  d E =-.790831E-02  mag=     3.0000
       N       E                     dE             d eps       ncg     rms          rms(c)
DAV:   1    -0.231355578214E+04    0.98070E-02   -0.11415E+00  4448   0.961E-01    0.282E-01
RMM:   2    -0.231356620247E+04   -0.10420E-01   -0.11363E-01  6088   0.178E-01    0.149E-01
RMM:   3    -0.231356702737E+04   -0.82489E-03   -0.10844E-02  5436   0.554E-02    0.998E-02
RMM:   4    -0.231356699755E+04    0.29817E-04   -0.11248E-03  4003   0.138E-02    0.699E-02
RMM:   5    -0.231356698174E+04    0.15807E-04   -0.21214E-04  3968   0.101E-02    0.701E-02
RMM:   6    -0.231356693593E+04    0.45813E-04   -0.14175E-04  3252   0.831E-03    0.281E-02
RMM:   7    -0.231356693609E+04   -0.15911E-06   -0.25276E-05  2882   0.515E-03
  59 F= -.23339855E+04 E0= -.23339855E+04  d E =-.925423E-02  mag=     3.0000
       N       E                     dE             d eps       ncg     rms          rms(c)
DAV:   1    -0.231354128048E+04    0.25655E-01   -0.26939E+00  4416   0.149E+00    0.458E-01
RMM:   2    -0.231357052009E+04   -0.29240E-01   -0.31793E-01  6075   0.287E-01    0.253E-01
RMM:   3    -0.231357286835E+04   -0.23483E-02   -0.30860E-02  5683   0.990E-02    0.168E-01
RMM:   4    -0.231357279568E+04    0.72667E-04   -0.31776E-03  5150   0.221E-02    0.130E-01
RMM:   5    -0.231357269747E+04    0.98205E-04   -0.70121E-04  4812   0.161E-02    0.103E-01
RMM:   6    -0.231357261447E+04    0.83005E-04   -0.27290E-04  4503   0.107E-02    0.514E-02
RMM:   7    -0.231357261630E+04   -0.18316E-05   -0.47425E-05  2937   0.666E-03
  60 F= -.23339917E+04 E0= -.23339917E+04  d E =-.619098E-02  mag=     3.0000
       N       E                     dE             d eps       ncg     rms          rms(c)
DAV:   1    -0.231357063756E+04    0.19769E-02   -0.17611E-01  4704   0.380E-01    0.120E-01
RMM:   2    -0.231357259012E+04   -0.19526E-02   -0.21009E-02  6094   0.742E-02    0.747E-02
RMM:   3    -0.231357273481E+04   -0.14469E-03   -0.20082E-03  4169   0.244E-02    0.544E-02
RMM:   4    -0.231357272245E+04    0.12355E-04   -0.21134E-04  2952   0.677E-03    0.401E-02
RMM:   5    -0.231357271180E+04    0.10655E-04   -0.55308E-05  2914   0.538E-03    0.277E-02
RMM:   6    -0.231357271112E+04    0.67521E-06   -0.30584E-05  2950   0.487E-03
  61 F= -.23339920E+04 E0= -.23339920E+04  d E =-.641885E-02  mag=     3.0000
       N       E                     dE             d eps       ncg     rms          rms(c)
DAV:   1    -0.231355199538E+04    0.20716E-01   -0.20982E+00  4448   0.135E+00    0.414E-01
RMM:   2    -0.231357527879E+04   -0.23283E-01   -0.25353E-01  6003   0.257E-01    0.227E-01
RMM:   3    -0.231357700211E+04   -0.17233E-02   -0.23011E-02  5550   0.898E-02    0.149E-01
RMM:   4    -0.231357694018E+04    0.61926E-04   -0.25128E-03  4980   0.203E-02    0.112E-01
RMM:   5    -0.231357687616E+04    0.64015E-04   -0.56682E-04  4750   0.154E-02    0.932E-02
RMM:   6    -0.231357679505E+04    0.81117E-04   -0.20340E-04  4343   0.957E-03    0.428E-02
RMM:   7    -0.231357679493E+04    0.11674E-06   -0.47352E-05  2928   0.636E-03
  62 F= -.23339960E+04 E0= -.23339960E+04  d E =-.404952E-02  mag=     3.0000
       N       E                     dE             d eps       ncg     rms          rms(c)
DAV:   1    -0.231357669596E+04    0.99091E-04   -0.85376E-03  5264   0.868E-02    0.355E-02
RMM:   2    -0.231357680037E+04   -0.10441E-03   -0.10927E-03  5758   0.182E-02    0.277E-02
RMM:   3    -0.231357680819E+04   -0.78290E-05   -0.11917E-04  2864   0.678E-03    0.223E-02
RMM:   4    -0.231357680696E+04    0.12371E-05   -0.14142E-05  2863   0.254E-03
  63 F= -.23339960E+04 E0= -.23339960E+04  d E =-.405979E-02  mag=     3.0000
       N       E                     dE             d eps       ncg     rms          rms(c)
DAV:   1    -0.231356927274E+04    0.75355E-02   -0.10390E+00  4416   0.989E-01    0.294E-01
RMM:   2    -0.231357921925E+04   -0.99465E-02   -0.10819E-01  5989   0.180E-01    0.154E-01
RMM:   3    -0.231357993187E+04   -0.71261E-03   -0.98644E-03  5314   0.630E-02    0.107E-01
RMM:   4    -0.231357993464E+04   -0.27706E-05   -0.11747E-03  4591   0.148E-02    0.100E-01
RMM:   5    -0.231357984900E+04    0.85640E-04   -0.24577E-04  4125   0.110E-02    0.627E-02
RMM:   6    -0.231357983433E+04    0.14661E-04   -0.13264E-04  4007   0.826E-03    0.375E-02
RMM:   7    -0.231357983528E+04   -0.94358E-06   -0.31316E-05  2890   0.615E-03
  64 F= -.23339989E+04 E0= -.23339989E+04  d E =-.290364E-02  mag=     3.0000
       N       E                     dE             d eps       ncg     rms          rms(c)
DAV:   1    -0.231357876247E+04    0.10719E-02   -0.12642E-01  4576   0.345E-01    0.103E-01
RMM:   2    -0.231357998870E+04   -0.12262E-02   -0.13293E-02  5981   0.639E-02    0.553E-02
RMM:   3    -0.231358008154E+04   -0.92841E-04   -0.12751E-03  3841   0.230E-02    0.398E-02
RMM:   4    -0.231358008215E+04   -0.61729E-06   -0.14625E-04  2918   0.618E-03    0.371E-02
RMM:   5    -0.231358007144E+04    0.10718E-04   -0.33328E-05  2892   0.478E-03    0.237E-02
RMM:   6    -0.231358007091E+04    0.52372E-06   -0.20739E-05  2883   0.440E-03
  65 F= -.23339991E+04 E0= -.23339991E+04  d E =-.309739E-02  mag=     3.0000
       N       E                     dE             d eps       ncg     rms          rms(c)
DAV:   1    -0.231357229951E+04    0.77719E-02   -0.10592E+00  4416   0.101E+00    0.275E-01
RMM:   2    -0.231358244539E+04   -0.10146E-01   -0.10959E-01  5826   0.178E-01    0.165E-01
RMM:   3    -0.231358341356E+04   -0.96817E-03   -0.12279E-02  5202   0.697E-02    0.121E-01
RMM:   4    -0.231358338760E+04    0.25958E-04   -0.12227E-03  4556   0.144E-02    0.996E-02
RMM:   5    -0.231358328918E+04    0.98424E-04   -0.24115E-04  4220   0.107E-02    0.567E-02
RMM:   6    -0.231358328311E+04    0.60686E-05   -0.12562E-04  4030   0.850E-03    0.334E-02
RMM:   7    -0.231358328484E+04   -0.17330E-05   -0.27197E-05  2892   0.614E-03
  66 F= -.23340021E+04 E0= -.23340021E+04  d E =-.294201E-02  mag=     3.0000
       N       E                     dE             d eps       ncg     rms          rms(c)
DAV:   1    -0.231357925820E+04    0.40249E-02   -0.45585E-01  4416   0.662E-01    0.181E-01
RMM:   2    -0.231358365928E+04   -0.44011E-02   -0.47425E-02  5872   0.118E-01    0.109E-01
RMM:   3    -0.231358407355E+04   -0.41427E-03   -0.52987E-03  5101   0.454E-02    0.781E-02
RMM:   4    -0.231358406523E+04    0.83234E-05   -0.52266E-04  3428   0.964E-03    0.659E-02
RMM:   5    -0.231358402306E+04    0.42166E-04   -0.10727E-04  3279   0.779E-03    0.381E-02
RMM:   6    -0.231358402072E+04    0.23396E-05   -0.59484E-05  3297   0.674E-03
  67 F= -.23340026E+04 E0= -.23340026E+04  d E =-.350267E-02  mag=     3.0000
       N       E                     dE             d eps       ncg     rms          rms(c)
DAV:   1    -0.231357360776E+04    0.10415E-01   -0.12743E+00  4416   0.114E+00    0.317E-01
RMM:   2    -0.231358595740E+04   -0.12350E-01   -0.13416E-01  5849   0.200E-01    0.171E-01
RMM:   3    -0.231358689204E+04   -0.93463E-03   -0.12722E-02  5229   0.742E-02    0.117E-01
RMM:   4    -0.231358687529E+04    0.16749E-04   -0.14062E-03  4802   0.162E-02    0.104E-01
RMM:   5    -0.231358676312E+04    0.11217E-03   -0.29144E-04  4464   0.120E-02    0.590E-02
RMM:   6    -0.231358674041E+04    0.22702E-04   -0.15226E-04  4276   0.913E-03    0.277E-02
RMM:   7    -0.231358674011E+04    0.30757E-06   -0.20798E-05  2876   0.620E-03
  68 F= -.23340052E+04 E0= -.23340052E+04  d E =-.262274E-02  mag=     3.0000
       N       E                     dE             d eps       ncg     rms          rms(c)
DAV:   1    -0.231358468265E+04    0.20578E-02   -0.21802E-01  4544   0.471E-01    0.131E-01
RMM:   2    -0.231358681105E+04   -0.21284E-02   -0.23051E-02  5818   0.827E-02    0.702E-02
RMM:   3    -0.231358696043E+04   -0.14938E-03   -0.20980E-03  4427   0.320E-02    0.463E-02
RMM:   4    -0.231358695580E+04    0.46235E-05   -0.23250E-04  3103   0.733E-03    0.411E-02
RMM:   5    -0.231358694040E+04    0.15403E-04   -0.53289E-05  2934   0.601E-03    0.259E-02
RMM:   6    -0.231358693539E+04    0.50075E-05   -0.27279E-05  2926   0.521E-03
  69 F= -.23340054E+04 E0= -.23340054E+04  d E =-.277960E-02  mag=     3.0000
       N       E                     dE             d eps       ncg     rms          rms(c)
DAV:   1    -0.231357254733E+04    0.14393E-01   -0.13557E+00  4416   0.117E+00    0.327E-01
RMM:   2    -0.231358804697E+04   -0.15500E-01   -0.16873E-01  5880   0.211E-01    0.179E-01
RMM:   3    -0.231358925790E+04   -0.12109E-02   -0.15691E-02  5257   0.778E-02    0.116E-01
RMM:   4    -0.231358926120E+04   -0.32921E-05   -0.17225E-03  4771   0.166E-02    0.102E-01
RMM:   5    -0.231358915212E+04    0.10907E-03   -0.30621E-04  4378   0.116E-02    0.636E-02
RMM:   6    -0.231358911430E+04    0.37820E-04   -0.16281E-04  4310   0.925E-03    0.195E-02
RMM:   7    -0.231358911354E+04    0.76013E-06   -0.15235E-05  2868   0.584E-03
  70 F= -.23340075E+04 E0= -.23340075E+04  d E =-.211253E-02  mag=     3.0000
       N       E                     dE             d eps       ncg     rms          rms(c)
DAV:   1    -0.231358619111E+04    0.29232E-02   -0.24873E-01  4512   0.501E-01    0.141E-01
RMM:   2    -0.231358905176E+04   -0.28606E-02   -0.31096E-02  5881   0.909E-02    0.773E-02
RMM:   3    -0.231358926494E+04   -0.21318E-03   -0.27923E-03  4546   0.355E-02    0.500E-02
RMM:   4    -0.231358926297E+04    0.19626E-05   -0.30867E-04  3107   0.768E-03    0.431E-02
RMM:   5    -0.231358924460E+04    0.18375E-04   -0.60836E-05  2973   0.617E-03    0.285E-02
RMM:   6    -0.231358923733E+04    0.72713E-05   -0.31779E-05  2935   0.534E-03
  71 F= -.23340076E+04 E0= -.23340076E+04  d E =-.220937E-02  mag=     3.0000
       N       E                     dE             d eps       ncg     rms          rms(c)
DAV:   1    -0.231357110533E+04    0.18139E-01   -0.15151E+00  4448   0.122E+00    0.361E-01
RMM:   2    -0.231358938834E+04   -0.18283E-01   -0.19814E-01  5777   0.225E-01    0.198E-01
RMM:   3    -0.231359082364E+04   -0.14353E-02   -0.18246E-02  5218   0.882E-02    0.130E-01
RMM:   4    -0.231359080242E+04    0.21222E-04   -0.20793E-03  5095   0.179E-02    0.112E-01
RMM:   5    -0.231359065817E+04    0.14425E-03   -0.38652E-04  4605   0.129E-02    0.637E-02
RMM:   6    -0.231359063499E+04    0.23181E-04   -0.16677E-04  4201   0.936E-03    0.285E-02
RMM:   7    -0.231359063278E+04    0.22072E-05   -0.20191E-05  2867   0.611E-03
  72 F= -.23340093E+04 E0= -.23340093E+04  d E =-.167847E-02  mag=     3.0000
       N       E                     dE             d eps       ncg     rms          rms(c)
DAV:   1    -0.231359061158E+04    0.23413E-04   -0.31888E-03  5288   0.560E-02    0.209E-02
RMM:   2    -0.231359064720E+04   -0.35619E-04   -0.40132E-04  4572   0.111E-02    0.125E-02
RMM:   3    -0.231359065136E+04   -0.41655E-05   -0.46771E-05  2828   0.507E-03
  73 F= -.23340093E+04 E0= -.23340093E+04  d E =-.168398E-02  mag=     3.0000
       N       E                     dE             d eps       ncg     rms          rms(c)
DAV:   1    -0.231357937588E+04    0.11271E-01   -0.89014E-01  4448   0.928E-01    0.281E-01
RMM:   2    -0.231359122877E+04   -0.11853E-01   -0.12757E-01  5884   0.177E-01    0.170E-01
RMM:   3    -0.231359217590E+04   -0.94714E-03   -0.12761E-02  5355   0.717E-02    0.107E-01
RMM:   4    -0.231359214639E+04    0.29513E-04   -0.13137E-03  4425   0.140E-02    0.844E-02
RMM:   5    -0.231359205856E+04    0.87830E-04   -0.22326E-04  3996   0.104E-02    0.463E-02
RMM:   6    -0.231359205060E+04    0.79556E-05   -0.10854E-04  3848   0.791E-03    0.246E-02
RMM:   7    -0.231359204756E+04    0.30415E-05   -0.17116E-05  2859   0.557E-03
  74 F= -.23340109E+04 E0= -.23340109E+04  d E =-.156560E-02  mag=     3.0000
       N       E                     dE             d eps       ncg     rms          rms(c)
DAV:   1    -0.231359162840E+04    0.42221E-03   -0.28019E-02  4736   0.165E-01    0.515E-02
RMM:   2    -0.231359201273E+04   -0.38433E-03   -0.40950E-03  5965   0.323E-02    0.358E-02
RMM:   3    -0.231359204193E+04   -0.29201E-04   -0.42119E-04  2980   0.128E-02    0.227E-02
RMM:   4    -0.231359204041E+04    0.15188E-05   -0.44700E-05  2888   0.361E-03
  75 F= -.23340109E+04 E0= -.23340109E+04  d E =-.158880E-02  mag=     3.0000
       N       E                     dE             d eps       ncg     rms          rms(c)
DAV:   1    -0.231357956344E+04    0.12478E-01   -0.99304E-01  4416   0.974E-01    0.285E-01
RMM:   2    -0.231359231080E+04   -0.12747E-01   -0.13641E-01  5881   0.183E-01    0.180E-01
RMM:   3    -0.231359329925E+04   -0.98845E-03   -0.13707E-02  5328   0.769E-02    0.115E-01
RMM:   4    -0.231359324930E+04    0.49952E-04   -0.13880E-03  4555   0.148E-02    0.920E-02
RMM:   5    -0.231359313614E+04    0.11316E-03   -0.28049E-04  4114   0.112E-02    0.480E-02
RMM:   6    -0.231359312846E+04    0.76843E-05   -0.12090E-04  3819   0.838E-03    0.245E-02
RMM:   7    -0.231359312660E+04    0.18607E-05   -0.20246E-05  2866   0.577E-03
  76 F= -.23340122E+04 E0= -.23340122E+04  d E =-.128244E-02  mag=     3.0000
       N       E                     dE             d eps       ncg     rms          rms(c)
DAV:   1    -0.231359299643E+04    0.13202E-03   -0.81146E-03  5216   0.881E-02    0.279E-02
RMM:   2    -0.231359310678E+04   -0.11034E-03   -0.11603E-03  5662   0.179E-02    0.215E-02
RMM:   3    -0.231359311453E+04   -0.77526E-05   -0.12141E-04  2854   0.686E-03    0.140E-02
RMM:   4    -0.231359311382E+04    0.71269E-06   -0.12879E-05  2848   0.222E-03
  77 F= -.23340122E+04 E0= -.23340122E+04  d E =-.128744E-02  mag=     3.0000
       N       E                     dE             d eps       ncg     rms          rms(c)
DAV:   1    -0.231358297125E+04    0.10143E-01   -0.84359E-01  4416   0.889E-01    0.253E-01
RMM:   2    -0.231359383143E+04   -0.10860E-01   -0.11643E-01  6017   0.169E-01    0.152E-01
RMM:   3    -0.231359471203E+04   -0.88060E-03   -0.11759E-02  5426   0.663E-02    0.947E-02
RMM:   4    -0.231359469436E+04    0.17671E-04   -0.11148E-03  4084   0.133E-02    0.794E-02
RMM:   5    -0.231359461728E+04    0.77083E-04   -0.21667E-04  3839   0.100E-02    0.454E-02
RMM:   6    -0.231359460112E+04    0.16159E-04   -0.94576E-05  3488   0.750E-03    0.182E-02
RMM:   7    -0.231359459842E+04    0.26956E-05   -0.13163E-05  2863   0.517E-03
  78 F= -.23340136E+04 E0= -.23340136E+04  d E =-.143855E-02  mag=     3.0000
       N       E                     dE             d eps       ncg     rms          rms(c)
DAV:   1    -0.231358982333E+04    0.47778E-02   -0.36152E-01  4416   0.582E-01    0.167E-01
RMM:   2    -0.231359451122E+04   -0.46879E-02   -0.50316E-02  5973   0.112E-01    0.101E-01
RMM:   3    -0.231359487469E+04   -0.36347E-03   -0.49030E-03  5072   0.440E-02    0.632E-02
RMM:   4    -0.231359486438E+04    0.10313E-04   -0.47661E-04  3189   0.902E-03    0.524E-02
RMM:   5    -0.231359482980E+04    0.34574E-04   -0.90386E-05  3035   0.713E-03    0.294E-02
RMM:   6    -0.231359482348E+04    0.63276E-05   -0.45658E-05  3007   0.596E-03
  79 F= -.23340138E+04 E0= -.23340138E+04  d E =-.163488E-02  mag=     3.0000
       N       E                     dE             d eps       ncg     rms          rms(c)
DAV:   1    -0.231358607156E+04    0.87582E-02   -0.77032E-01  4416   0.842E-01    0.240E-01
RMM:   2    -0.231359538558E+04   -0.93140E-02   -0.10002E-01  6015   0.160E-01    0.134E-01
RMM:   3    -0.231359610234E+04   -0.71676E-03   -0.95093E-03  5460   0.595E-02    0.838E-02
RMM:   4    -0.231359608802E+04    0.14314E-04   -0.93234E-04  3935   0.123E-02    0.710E-02
RMM:   5    -0.231359603130E+04    0.56721E-04   -0.18856E-04  3570   0.927E-03    0.451E-02
RMM:   6    -0.231359601227E+04    0.19033E-04   -0.78259E-05  3309   0.700E-03    0.145E-02
RMM:   7    -0.231359601072E+04    0.15471E-05   -0.11694E-05  2864   0.491E-03
  80 F= -.23340150E+04 E0= -.23340150E+04  d E =-.120252E-02  mag=     3.0000
       N       E                     dE             d eps       ncg     rms          rms(c)
DAV:   1    -0.231359110555E+04    0.49067E-02   -0.39629E-01  4416   0.603E-01    0.172E-01
RMM:   2    -0.231359589895E+04   -0.47934E-02   -0.51378E-02  6014   0.115E-01    0.973E-02
RMM:   3    -0.231359627019E+04   -0.37124E-03   -0.49464E-03  5057   0.454E-02    0.617E-02
RMM:   4    -0.231359626085E+04    0.93422E-05   -0.48506E-04  3263   0.921E-03    0.521E-02
RMM:   5    -0.231359622738E+04    0.33469E-04   -0.98198E-05  3076   0.720E-03    0.318E-02
RMM:   6    -0.231359621782E+04    0.95619E-05   -0.43295E-05  2986   0.586E-03
  81 F= -.23340152E+04 E0= -.23340152E+04  d E =-.142088E-02  mag=     3.0000
       N       E                     dE             d eps       ncg     rms          rms(c)
DAV:   1    -0.231359252889E+04    0.36985E-02   -0.44687E-01  4416   0.636E-01    0.184E-01
RMM:   2    -0.231359691219E+04   -0.43833E-02   -0.47152E-02  5978   0.117E-01    0.101E-01
RMM:   3    -0.231359725203E+04   -0.33983E-03   -0.47214E-03  5295   0.433E-02    0.664E-02
RMM:   4    -0.231359724132E+04    0.10710E-04   -0.47323E-04  3446   0.990E-03    0.572E-02
RMM:   5    -0.231359719950E+04    0.41821E-04   -0.11308E-04  3339   0.809E-03    0.294E-02
RMM:   6    -0.231359719303E+04    0.64665E-05   -0.42935E-05  2968   0.625E-03
  82 F= -.23340162E+04 E0= -.23340162E+04  d E =-.100536E-02  mag=     3.0000
       N       E                     dE             d eps       ncg     rms          rms(c)
DAV:   1    -0.231359522595E+04    0.19736E-02   -0.19899E-01  4448   0.425E-01    0.123E-01
RMM:   2    -0.231359718599E+04   -0.19600E-02   -0.21093E-02  6100   0.789E-02    0.678E-02
RMM:   3    -0.231359733834E+04   -0.15235E-03   -0.21156E-03  4528   0.307E-02    0.443E-02
RMM:   4    -0.231359733280E+04    0.55399E-05   -0.21083E-04  2978   0.713E-03    0.375E-02
RMM:   5    -0.231359731560E+04    0.17203E-04   -0.54054E-05  2944   0.584E-03    0.209E-02
RMM:   6    -0.231359731193E+04    0.36689E-05   -0.20127E-05  2880   0.482E-03
  83 F= -.23340164E+04 E0= -.23340164E+04  d E =-.114407E-02  mag=     3.0000
       N       E                     dE             d eps       ncg     rms          rms(c)
DAV:   1    -0.231359318832E+04    0.41273E-02   -0.56468E-01  4416   0.692E-01    0.187E-01
RMM:   2    -0.231359801934E+04   -0.48310E-02   -0.51503E-02  5865   0.121E-01    0.108E-01
RMM:   3    -0.231359839093E+04   -0.37158E-03   -0.51428E-03  5033   0.517E-02    0.726E-02
RMM:   4    -0.231359837320E+04    0.17728E-04   -0.51341E-04  3504   0.102E-02    0.602E-02
RMM:   5    -0.231359832572E+04    0.47482E-04   -0.12364E-04  3362   0.834E-03    0.294E-02
RMM:   6    -0.231359832116E+04    0.45591E-05   -0.49861E-05  3040   0.644E-03
  84 F= -.23340174E+04 E0= -.23340174E+04  d E =-.104501E-02  mag=     3.0000
       N       E                     dE             d eps       ncg     rms          rms(c)
DAV:   1    -0.231359153785E+04    0.67879E-02   -0.76964E-01  4416   0.808E-01    0.219E-01
RMM:   2    -0.231359813562E+04   -0.65978E-02   -0.70342E-02  5926   0.142E-01    0.126E-01
RMM:   3    -0.231359864364E+04   -0.50802E-03   -0.70132E-03  5258   0.570E-02    0.845E-02
RMM:   4    -0.231359861963E+04    0.24004E-04   -0.69912E-04  3768   0.115E-02    0.700E-02
RMM:   5    -0.231359855562E+04    0.64010E-04   -0.17075E-04  3680   0.935E-03    0.345E-02
RMM:   6    -0.231359854810E+04    0.75211E-05   -0.67852E-05  3321   0.692E-03
  85 F= -.23340177E+04 E0= -.23340177E+04  d E =-.131312E-02  mag=     3.0000
       N       E                     dE             d eps       ncg     rms          rms(c)
DAV:   1    -0.231359650227E+04    0.20534E-02   -0.31849E-01  4432   0.512E-01    0.134E-01
RMM:   2    -0.231359914559E+04   -0.26433E-02   -0.28191E-02  6091   0.902E-02    0.784E-02
RMM:   3    -0.231359934622E+04   -0.20062E-03   -0.27416E-03  4673   0.347E-02    0.504E-02
RMM:   4    -0.231359934012E+04    0.60945E-05   -0.26586E-04  3048   0.769E-03    0.430E-02
RMM:   5    -0.231359931999E+04    0.20131E-04   -0.71442E-05  2976   0.622E-03    0.244E-02
RMM:   6    -0.231359931570E+04    0.42880E-05   -0.25552E-05  2902   0.505E-03
  86 F= -.23340185E+04 E0= -.23340185E+04  d E =-.775960E-03  mag=     3.0000
       N       E                     dE             d eps       ncg     rms          rms(c)
DAV:   1    -0.231357804657E+04    0.21273E-01   -0.25071E+00  4416   0.144E+00    0.370E-01
RMM:   2    -0.231359872362E+04   -0.20677E-01   -0.22005E-01  5848   0.248E-01    0.219E-01
RMM:   3    -0.231360033099E+04   -0.16074E-02   -0.22099E-02  5288   0.101E-01    0.142E-01
RMM:   4    -0.231360027997E+04    0.51023E-04   -0.21449E-03  4913   0.195E-02    0.121E-01
RMM:   5    -0.231360010835E+04    0.17162E-03   -0.53683E-04  4776   0.145E-02    0.691E-02
RMM:   6    -0.231360006448E+04    0.43875E-04   -0.19880E-04  4275   0.980E-03    0.200E-02
RMM:   7    -0.231360006022E+04    0.42539E-05   -0.18505E-05  2872   0.622E-03
  87 F= -.23340192E+04 E0= -.23340192E+04  d E =-.154292E-02  mag=     3.0000
       N       E                     dE             d eps       ncg     rms          rms(c)
DAV:   1    -0.231359492051E+04    0.51440E-02   -0.67892E-01  4416   0.750E-01    0.203E-01
RMM:   2    -0.231360081501E+04   -0.58945E-02   -0.63046E-02  5871   0.133E-01    0.116E-01
RMM:   3    -0.231360125127E+04   -0.43626E-03   -0.62086E-03  5174   0.541E-02    0.713E-02
RMM:   4    -0.231360122542E+04    0.25849E-04   -0.58751E-04  3857   0.109E-02    0.531E-02
RMM:   5    -0.231360120530E+04    0.20119E-04   -0.15252E-04  3323   0.893E-03    0.399E-02
RMM:   6    -0.231360118856E+04    0.16744E-04   -0.46276E-05  2954   0.625E-03    0.131E-02
RMM:   7    -0.231360118726E+04    0.12973E-05   -0.75681E-06  2846   0.401E-03
  88 F= -.23340204E+04 E0= -.23340204E+04  d E =-.115940E-02  mag=     3.0000
       N       E                     dE             d eps       ncg     rms          rms(c)
DAV:   1    -0.231359393535E+04    0.72532E-02   -0.82168E-01  4416   0.825E-01    0.223E-01
RMM:   2    -0.231360105497E+04   -0.71196E-02   -0.76124E-02  5812   0.145E-01    0.127E-01
RMM:   3    -0.231360158069E+04   -0.52572E-03   -0.75119E-03  5212   0.597E-02    0.787E-02
RMM:   4    -0.231360155108E+04    0.29607E-04   -0.71557E-04  4090   0.120E-02    0.603E-02
RMM:   5    -0.231360152340E+04    0.27688E-04   -0.18721E-04  3522   0.960E-03    0.451E-02
RMM:   6    -0.231360150129E+04    0.22103E-04   -0.58043E-05  3013   0.652E-03    0.135E-02
RMM:   7    -0.231360149986E+04    0.14331E-05   -0.86608E-06  2853   0.435E-03
  89 F= -.23340207E+04 E0= -.23340207E+04  d E =-.150773E-02  mag=     3.0000
       N       E                     dE             d eps       ncg     rms          rms(c)
DAV:   1    -0.231359336946E+04    0.81318E-02   -0.91058E-01  4416   0.853E-01    0.234E-01
RMM:   2    -0.231360200646E+04   -0.86370E-02   -0.92083E-02  5855   0.153E-01    0.138E-01
[...]
RMM:   4    -0.231365959121E+04    0.28059E-05   -0.29925E-05  2898   0.330E-03
 359 F= -.23340807E+04 E0= -.23340807E+04  d E =-.679367E-04  mag=     3.0000
       N       E                     dE             d eps       ncg     rms          rms(c)
DAV:   1    -0.231365958369E+04    0.10322E-04   -0.62164E-04  4928   0.195E-02    0.947E-03
RMM:   2    -0.231365959085E+04   -0.71622E-05   -0.73764E-05  3013   0.473E-03
 360 F= -.23340807E+04 E0= -.23340807E+04  d E =-.662211E-04  mag=     3.0000
       N       E                     dE             d eps       ncg     rms          rms(c)
DAV:   1    -0.231365946250E+04    0.12119E-03   -0.21208E-02  4448   0.120E-01    0.466E-02
RMM:   2    -0.231365966885E+04   -0.20635E-03   -0.22094E-03  6083   0.269E-02    0.276E-02
RMM:   3    -0.231365968305E+04   -0.14203E-04   -0.23339E-04  2938   0.108E-02    0.227E-02
RMM:   4    -0.231365967771E+04    0.53367E-05   -0.26830E-05  2900   0.356E-03
 361 F= -.23340808E+04 E0= -.23340808E+04  d E =-.778335E-04  mag=     3.0000
       N       E                     dE             d eps       ncg     rms          rms(c)
DAV:   1    -0.231365966763E+04    0.15423E-04   -0.89427E-04  4992   0.246E-02    0.113E-02
RMM:   2    -0.231365967646E+04   -0.88352E-05   -0.98391E-05  3119   0.587E-03
 362 F= -.23340808E+04 E0= -.23340808E+04  d E =-.746564E-04  mag=     3.0000
       N       E                     dE             d eps       ncg     rms          rms(c)
DAV:   1    -0.231365967438E+04   -0.67538E-05   -0.26699E-04  4488   0.138E-02    0.719E-03
RMM:   2    -0.231365967690E+04   -0.25235E-05   -0.26722E-05  2567   0.328E-03
 363 F= -.23340808E+04 E0= -.23340808E+04  d E =-.760853E-04  mag=     3.0000
       N       E                     dE             d eps       ncg     rms          rms(c)
DAV:   1    -0.231365962468E+04    0.49705E-04   -0.13519E-02  4448   0.958E-02    0.362E-02
RMM:   2    -0.231365974663E+04   -0.12196E-03   -0.13144E-03  5926   0.214E-02    0.201E-02
RMM:   3    -0.231365975442E+04   -0.77938E-05   -0.13034E-04  2891   0.850E-03    0.156E-02
RMM:   4    -0.231365975202E+04    0.24064E-05   -0.15184E-05  2875   0.277E-03
 364 F= -.23340808E+04 E0= -.23340808E+04  d E =-.536158E-04  mag=     3.0000
       N       E                     dE             d eps       ncg     rms          rms(c)
DAV:   1    -0.231365974755E+04    0.68734E-05   -0.10948E-03  4848   0.272E-02    0.112E-02
RMM:   2    -0.231365975782E+04   -0.10264E-04   -0.11214E-04  3147   0.631E-03    0.862E-03
RMM:   3    -0.231365975838E+04   -0.56537E-06   -0.14021E-05  2574   0.387E-03
 365 F= -.23340808E+04 E0= -.23340808E+04  d E =-.537003E-04  mag=     3.0000
       N       E                     dE             d eps       ncg     rms          rms(c)
DAV:   1    -0.231365971140E+04    0.46415E-04   -0.11842E-02  4448   0.862E-02    0.324E-02
RMM:   2    -0.231365981724E+04   -0.10584E-03   -0.11318E-03  5810   0.186E-02    0.178E-02
RMM:   3    -0.231365982340E+04   -0.61606E-05   -0.10790E-04  2878   0.744E-03    0.125E-02
RMM:   4    -0.231365982247E+04    0.93406E-06   -0.13051E-05  2864   0.235E-03
 366 F= -.23340809E+04 E0= -.23340809E+04  d E =-.453534E-04  mag=     3.0000
       N       E                     dE             d eps       ncg     rms          rms(c)
DAV:   1    -0.231365981898E+04    0.44218E-05   -0.10002E-03  4720   0.251E-02    0.106E-02
RMM:   2    -0.231365982872E+04   -0.97443E-05   -0.99915E-05  3107   0.571E-03
 367 F= -.23340809E+04 E0= -.23340809E+04  d E =-.460467E-04  mag=     3.0000
       N       E                     dE             d eps       ncg     rms          rms(c)
DAV:   1    -0.231365980706E+04    0.11922E-04   -0.11822E-02  4448   0.877E-02    0.331E-02
RMM:   2    -0.231365990494E+04   -0.97886E-04   -0.10386E-03  5721   0.196E-02    0.220E-02
RMM:   3    -0.231365991071E+04   -0.57673E-05   -0.11094E-04  2890   0.801E-03    0.174E-02
RMM:   4    -0.231365990729E+04    0.34247E-05   -0.12181E-05  2865   0.277E-03
 368 F= -.23340809E+04 E0= -.23340809E+04  d E =-.567617E-04  mag=     3.0000
       N       E                     dE             d eps       ncg     rms          rms(c)
DAV:   1    -0.231365988521E+04    0.25503E-04   -0.47585E-03  4584   0.554E-02    0.209E-02
RMM:   2    -0.231365992265E+04   -0.37439E-04   -0.40774E-04  4494   0.119E-02    0.122E-02
RMM:   3    -0.231365992507E+04   -0.24174E-05   -0.42007E-05  2856   0.574E-03
 369 F= -.23340809E+04 E0= -.23340809E+04  d E =-.604764E-04  mag=     3.0000
       N       E                     dE             d eps       ncg     rms          rms(c)
DAV:   1    -0.231365989560E+04    0.27051E-04   -0.11905E-02  4448   0.815E-02    0.297E-02
RMM:   2    -0.231365999166E+04   -0.96065E-04   -0.10229E-03  5639   0.176E-02    0.167E-02
RMM:   3    -0.231365999818E+04   -0.65191E-05   -0.10805E-04  2864   0.680E-03    0.109E-02
RMM:   4    -0.231365999741E+04    0.76587E-06   -0.12203E-05  2854   0.204E-03
 370 F= -.23340810E+04 E0= -.23340810E+04  d E =-.492888E-04  mag=     3.0000
       N       E                     dE             d eps       ncg     rms          rms(c)
DAV:   1    -0.231365997117E+04    0.27010E-04   -0.64437E-03  4432   0.598E-02    0.216E-02
RMM:   2    -0.231366002249E+04   -0.51322E-04   -0.55278E-04  4759   0.128E-02    0.112E-02
RMM:   3    -0.231366002573E+04   -0.32361E-05   -0.52552E-05  2845   0.562E-03
 371 F= -.23340810E+04 E0= -.23340810E+04  d E =-.605223E-04  mag=     3.0000
       N       E                     dE             d eps       ncg     rms          rms(c)
DAV:   1    -0.231366000076E+04    0.21737E-04   -0.15336E-02  4448   0.972E-02    0.354E-02
RMM:   2    -0.231366011524E+04   -0.11449E-03   -0.12376E-03  5879   0.204E-02    0.178E-02
RMM:   3    -0.231366012078E+04   -0.55319E-05   -0.11837E-04  2870   0.783E-03    0.115E-02
RMM:   4    -0.231366012030E+04    0.47983E-06   -0.16513E-05  2887   0.257E-03
 372 F= -.23340811E+04 E0= -.23340811E+04  d E =-.713823E-04  mag=     3.0000
       N       E                     dE             d eps       ncg     rms          rms(c)
DAV:   1    -0.231366009815E+04    0.22626E-04   -0.55850E-03  4544   0.586E-02    0.220E-02
RMM:   2    -0.231366013962E+04   -0.41469E-04   -0.45331E-04  4691   0.125E-02    0.118E-02
RMM:   3    -0.231366014220E+04   -0.25816E-05   -0.46370E-05  2856   0.585E-03
 373 F= -.23340811E+04 E0= -.23340811E+04  d E =-.792245E-04  mag=     3.0000
       N       E                     dE             d eps       ncg     rms          rms(c)
DAV:   1    -0.231366005560E+04    0.84021E-04   -0.19439E-02  4432   0.105E-01    0.384E-02
RMM:   2    -0.231366020641E+04   -0.15082E-03   -0.16004E-03  5926   0.221E-02    0.244E-02
RMM:   3    -0.231366021549E+04   -0.90777E-05   -0.16271E-04  2905   0.811E-03    0.207E-02
RMM:   4    -0.231366021151E+04    0.39820E-05   -0.18844E-05  2880   0.295E-03
 374 F= -.23340811E+04 E0= -.23340811E+04  d E =-.576921E-04  mag=     3.0000
       N       E                     dE             d eps       ncg     rms          rms(c)
DAV:   1    -0.231366019919E+04    0.16300E-04   -0.19584E-03  4736   0.331E-02    0.129E-02
RMM:   2    -0.231366021401E+04   -0.14815E-04   -0.16292E-04  3388   0.733E-03    0.760E-03
RMM:   3    -0.231366021511E+04   -0.10993E-05   -0.19296E-05  2719   0.420E-03
 375 F= -.23340811E+04 E0= -.23340811E+04  d E =-.575099E-04  mag=     3.0000
       N       E                     dE             d eps       ncg     rms          rms(c)
DAV:   1    -0.231366015092E+04    0.63088E-04   -0.17757E-02  4432   0.101E-01    0.368E-02
RMM:   2    -0.231366028816E+04   -0.13724E-03   -0.14788E-03  5924   0.215E-02    0.187E-02
RMM:   3    -0.231366029579E+04   -0.76277E-05   -0.14473E-04  2888   0.850E-03    0.121E-02
RMM:   4    -0.231366029468E+04    0.11020E-05   -0.17549E-05  2887   0.256E-03
 376 F= -.23340812E+04 E0= -.23340812E+04  d E =-.681126E-04  mag=     3.0000
       N       E                     dE             d eps       ncg     rms          rms(c)
DAV:   1    -0.231366027193E+04    0.23852E-04   -0.40054E-03  4600   0.482E-02    0.186E-02
RMM:   2    -0.231366030390E+04   -0.31964E-04   -0.34047E-04  4100   0.105E-02    0.134E-02
RMM:   3    -0.231366030542E+04   -0.15172E-05   -0.34801E-05  2838   0.531E-03
 377 F= -.23340812E+04 E0= -.23340812E+04  d E =-.733625E-04  mag=     3.0000
       N       E                     dE             d eps       ncg     rms          rms(c)
DAV:   1    -0.231366024831E+04    0.55593E-04   -0.18008E-02  4432   0.104E-01    0.376E-02
RMM:   2    -0.231366038717E+04   -0.13886E-03   -0.14849E-03  5914   0.217E-02    0.213E-02
RMM:   3    -0.231366039615E+04   -0.89810E-05   -0.15552E-04  2892   0.882E-03    0.176E-02
RMM:   4    -0.231366039402E+04    0.21257E-05   -0.18064E-05  2879   0.283E-03
 378 F= -.23340813E+04 E0= -.23340813E+04  d E =-.723042E-04  mag=     3.0000
       N       E                     dE             d eps       ncg     rms          rms(c)
DAV:   1    -0.231366036587E+04    0.30276E-04   -0.53573E-03  4592   0.563E-02    0.211E-02
RMM:   2    -0.231366040651E+04   -0.40644E-04   -0.44192E-04  4577   0.120E-02    0.120E-02
RMM:   3    -0.231366040972E+04   -0.32058E-05   -0.50818E-05  2855   0.577E-03
 379 F= -.23340813E+04 E0= -.23340813E+04  d E =-.789983E-04  mag=     3.0000
       N       E                     dE             d eps       ncg     rms          rms(c)
DAV:   1    -0.231366033147E+04    0.75039E-04   -0.21742E-02  4432   0.114E-01    0.415E-02
RMM:   2    -0.231366049443E+04   -0.16295E-03   -0.17554E-03  5983   0.239E-02    0.210E-02
RMM:   3    -0.231366050421E+04   -0.97866E-05   -0.18176E-04  2897   0.898E-03    0.135E-02
RMM:   4    -0.231366050311E+04    0.10973E-05   -0.21249E-05  2897   0.276E-03
 380 F= -.23340813E+04 E0= -.23340813E+04  d E =-.675428E-04  mag=     3.0000
       N       E                     dE             d eps       ncg     rms          rms(c)
DAV:   1    -0.231366047924E+04    0.24975E-04   -0.48968E-03  4712   0.542E-02    0.212E-02
RMM:   2    -0.231366051730E+04   -0.38064E-04   -0.40404E-04  4353   0.115E-02    0.150E-02
RMM:   3    -0.231366051890E+04   -0.15987E-05   -0.39802E-05  2854   0.567E-03
 381 F= -.23340813E+04 E0= -.23340813E+04  d E =-.709487E-04  mag=     3.0000
       N       E                     dE             d eps       ncg     rms          rms(c)
DAV:   1    -0.231366046439E+04    0.52908E-04   -0.17751E-02  4448   0.993E-02    0.358E-02
RMM:   2    -0.231366059790E+04   -0.13350E-03   -0.14190E-03  5865   0.209E-02    0.213E-02
RMM:   3    -0.231366060676E+04   -0.88674E-05   -0.14697E-04  2896   0.788E-03    0.182E-02
RMM:   4    -0.231366060421E+04    0.25516E-05   -0.16912E-05  2874   0.272E-03
 382 F= -.23340814E+04 E0= -.23340814E+04  d E =-.680162E-04  mag=     3.0000
       N       E                     dE             d eps       ncg     rms          rms(c)
DAV:   1    -0.231366054656E+04    0.60203E-04   -0.10519E-02  4448   0.762E-02    0.277E-02
RMM:   2    -0.231366062423E+04   -0.77669E-04   -0.83522E-04  5435   0.159E-02    0.156E-02
RMM:   3    -0.231366062944E+04   -0.52070E-05   -0.85123E-05  2869   0.663E-03
 383 F= -.23340814E+04 E0= -.23340814E+04  d E =-.798327E-04  mag=     3.0000
       N       E                     dE             d eps       ncg     rms          rms(c)
DAV:   1    -0.231366056514E+04    0.59087E-04   -0.20963E-02  4416   0.112E-01    0.413E-02
RMM:   2    -0.231366071684E+04   -0.15170E-03   -0.16361E-03  5948   0.234E-02    0.212E-02
RMM:   3    -0.231366072584E+04   -0.90071E-05   -0.17589E-04  2890   0.856E-03    0.145E-02
RMM:   4    -0.231366072675E+04   -0.90947E-06   -0.23201E-05  2885   0.285E-03
 384 F= -.23340815E+04 E0= -.23340815E+04  d E =-.818008E-04  mag=     3.0000
       N       E                     dE             d eps       ncg     rms          rms(c)
DAV:   1    -0.231366067314E+04    0.52705E-04   -0.92250E-03  4512   0.739E-02    0.281E-02
RMM:   2    -0.231366073955E+04   -0.66413E-04   -0.72431E-04  5368   0.158E-02    0.142E-02
RMM:   3    -0.231366074296E+04   -0.34052E-05   -0.72700E-05  2860   0.672E-03
 385 F= -.23340815E+04 E0= -.23340815E+04  d E =-.876410E-04  mag=     3.0000
       N       E                     dE             d eps       ncg     rms          rms(c)
DAV:   1    -0.231366065997E+04    0.79582E-04   -0.22110E-02  4416   0.110E-01    0.401E-02
RMM:   2    -0.231366082882E+04   -0.16885E-03   -0.17908E-03  5938   0.232E-02    0.249E-02
RMM:   3    -0.231366083909E+04   -0.10267E-04   -0.17692E-04  2910   0.825E-03    0.210E-02
RMM:   4    -0.231366083486E+04    0.42286E-05   -0.21148E-05  2881   0.303E-03
 386 F= -.23340816E+04 E0= -.23340816E+04  d E =-.691232E-04  mag=     3.0000
       N       E                     dE             d eps       ncg     rms          rms(c)
DAV:   1    -0.231366080123E+04    0.37862E-04   -0.64322E-03  4584   0.592E-02    0.218E-02
RMM:   2    -0.231366084860E+04   -0.47371E-04   -0.51164E-04  4582   0.125E-02    0.119E-02
RMM:   3    -0.231366085225E+04   -0.36567E-05   -0.56044E-05  2851   0.577E-03
 387 F= -.23340816E+04 E0= -.23340816E+04  d E =-.740827E-04  mag=     3.0000
       N       E                     dE             d eps       ncg     rms          rms(c)
DAV:   1    -0.231366079658E+04    0.52018E-04   -0.24679E-02  4416   0.122E-01    0.448E-02
RMM:   2    -0.231366097315E+04   -0.17657E-03   -0.19148E-03  6001   0.256E-02    0.223E-02
RMM:   3    -0.231366098291E+04   -0.97650E-05   -0.19646E-04  2908   0.970E-03    0.144E-02
RMM:   4    -0.231366098202E+04    0.89066E-06   -0.24731E-05  2903   0.306E-03
 388 F= -.23340817E+04 E0= -.23340817E+04  d E =-.900544E-04  mag=     3.0000
       N       E                     dE             d eps       ncg     rms          rms(c)
DAV:   1    -0.231366095926E+04    0.23657E-04   -0.63896E-03  4616   0.623E-02    0.241E-02
RMM:   2    -0.231366100582E+04   -0.46564E-04   -0.50682E-04  4903   0.133E-02    0.145E-02
RMM:   3    -0.231366100843E+04   -0.26133E-05   -0.49313E-05  2863   0.599E-03
 389 F= -.23340817E+04 E0= -.23340817E+04  d E =-.961411E-04  mag=     3.0000
       N       E                     dE             d eps       ncg     rms          rms(c)
DAV:   1    -0.231366096036E+04    0.45462E-04   -0.18729E-02  4416   0.108E-01    0.396E-02
RMM:   2    -0.231366109677E+04   -0.13641E-03   -0.14623E-03  5925   0.223E-02    0.227E-02
RMM:   3    -0.231366110570E+04   -0.89347E-05   -0.15469E-04  2902   0.821E-03    0.206E-02
RMM:   4    -0.231366110187E+04    0.38353E-05   -0.18074E-05  2878   0.298E-03
 390 F= -.23340818E+04 E0= -.23340818E+04  d E =-.659817E-04  mag=     3.0000
       N       E                     dE             d eps       ncg     rms          rms(c)
DAV:   1    -0.231366108753E+04    0.18168E-04   -0.36845E-03  4664   0.477E-02    0.180E-02
RMM:   2    -0.231366111361E+04   -0.26081E-04   -0.28605E-04  3954   0.101E-02    0.945E-03
RMM:   3    -0.231366111543E+04   -0.18191E-05   -0.31970E-05  2838   0.526E-03
 391 F= -.23340818E+04 E0= -.23340818E+04  d E =-.671711E-04  mag=     3.0000
       N       E                     dE             d eps       ncg     rms          rms(c)
DAV:   1    -0.231366103683E+04    0.76788E-04   -0.18761E-02  4416   0.107E-01    0.388E-02
RMM:   2    -0.231366117384E+04   -0.13702E-03   -0.14865E-03  5947   0.226E-02    0.192E-02
RMM:   3    -0.231366118184E+04   -0.79986E-05   -0.15461E-04  2888   0.893E-03    0.128E-02
RMM:   4    -0.231366118220E+04   -0.35961E-06   -0.19962E-05  2885   0.281E-03
 392 F= -.23340818E+04 E0= -.23340818E+04  d E =-.638944E-04  mag=     3.0000
       N       E                     dE             d eps       ncg     rms          rms(c)
DAV:   1    -0.231366116455E+04    0.17294E-04   -0.23680E-03  4768   0.382E-02    0.149E-02
RMM:   2    -0.231366118229E+04   -0.17744E-04   -0.19467E-04  3532   0.844E-03    0.842E-03
RMM:   3    -0.231366118312E+04   -0.82984E-06   -0.18765E-05  2805   0.456E-03
 393 F= -.23340818E+04 E0= -.23340818E+04  d E =-.637840E-04  mag=     3.0000
       N       E                     dE             d eps       ncg     rms          rms(c)
DAV:   1    -0.231366110881E+04    0.73485E-04   -0.18339E-02  4432   0.109E-01    0.400E-02
RMM:   2    -0.231366124746E+04   -0.13865E-03   -0.14867E-03  5944   0.226E-02    0.238E-02
RMM:   3    -0.231366125622E+04   -0.87612E-05   -0.15486E-04  2901   0.932E-03    0.211E-02
RMM:   4    -0.231366125134E+04    0.48741E-05   -0.17832E-05  2881   0.312E-03
 394 F= -.23340819E+04 E0= -.23340819E+04  d E =-.648325E-04  mag=     3.0000
       N       E                     dE             d eps       ncg     rms          rms(c)
DAV:   1    -0.231366123230E+04    0.23921E-04   -0.26246E-03  4696   0.411E-02    0.155E-02
RMM:   2    -0.231366125188E+04   -0.19578E-04   -0.21596E-04  3666   0.889E-03    0.844E-03
RMM:   3    -0.231366125323E+04   -0.13568E-05   -0.23883E-05  2821   0.473E-03
 395 F= -.23340819E+04 E0= -.23340819E+04  d E =-.654074E-04  mag=     3.0000
       N       E                     dE             d eps       ncg     rms          rms(c)
DAV:   1    -0.231366117874E+04    0.73137E-04   -0.18902E-02  4416   0.109E-01    0.394E-02
RMM:   2    -0.231366132579E+04   -0.14706E-03   -0.15890E-03  5972   0.230E-02    0.196E-02
RMM:   3    -0.231366133376E+04   -0.79616E-05   -0.15303E-04  2897   0.887E-03    0.128E-02
RMM:   4    -0.231366133263E+04    0.11247E-05   -0.18035E-05  2900   0.271E-03
 396 F= -.23340819E+04 E0= -.23340819E+04  d E =-.636584E-04  mag=     3.0000
       N       E                     dE             d eps       ncg     rms          rms(c)
DAV:   1    -0.231366131397E+04    0.19791E-04   -0.33404E-03  4744   0.456E-02    0.181E-02
RMM:   2    -0.231366134185E+04   -0.27882E-04   -0.28829E-04  3946   0.987E-03    0.170E-02
RMM:   3    -0.231366134163E+04    0.21944E-06   -0.33337E-05  2852   0.506E-03
 397 F= -.23340819E+04 E0= -.23340819E+04  d E =-.659509E-04  mag=     3.0000
       N       E                     dE             d eps       ncg     rms          rms(c)
DAV:   1    -0.231366128572E+04    0.56129E-04   -0.17629E-02  4432   0.103E-01    0.375E-02
RMM:   2    -0.231366142650E+04   -0.14078E-03   -0.14998E-03  5945   0.219E-02    0.216E-02
RMM:   3    -0.231366143476E+04   -0.82649E-05   -0.14764E-04  2894   0.866E-03    0.157E-02
RMM:   4    -0.231366143311E+04    0.16511E-05   -0.17328E-05  2882   0.277E-03
 398 F= -.23340820E+04 E0= -.23340820E+04  d E =-.702955E-04  mag=     3.0000
       N       E                     dE             d eps       ncg     rms          rms(c)
DAV:   1    -0.231366139269E+04    0.42072E-04   -0.74476E-03  4504   0.670E-02    0.251E-02
RMM:   2    -0.231366145225E+04   -0.59561E-04   -0.63226E-04  5187   0.142E-02    0.181E-02
RMM:   3    -0.231366145580E+04   -0.35455E-05   -0.71650E-05  2871   0.617E-03
 399 F= -.23340820E+04 E0= -.23340820E+04  d E =-.790942E-04  mag=     3.0000
       N       E                     dE             d eps       ncg     rms          rms(c)
DAV:   1    -0.231366134980E+04    0.10245E-03   -0.22713E-02  4448   0.121E-01    0.446E-02
RMM:   2    -0.231366152797E+04   -0.17817E-03   -0.19073E-03  5977   0.254E-02    0.244E-02
RMM:   3    -0.231366153774E+04   -0.97677E-05   -0.18962E-04  2904   0.908E-03    0.175E-02
RMM:   4    -0.231366153571E+04    0.20319E-05   -0.22581E-05  2896   0.311E-03
 400 F= -.23340821E+04 E0= -.23340821E+04  d E =-.741269E-04  mag=     3.0000
       N       E                     dE             d eps       ncg     rms          rms(c)
DAV:   1    -0.231366148189E+04    0.55853E-04   -0.75833E-03  4528   0.695E-02    0.265E-02
RMM:   2    -0.231366154176E+04   -0.59876E-04   -0.63368E-04  5200   0.146E-02    0.202E-02
RMM:   3    -0.231366154465E+04   -0.28893E-05   -0.74231E-05  2871   0.664E-03
 401 F= -.23340821E+04 E0= -.23340821E+04  d E =-.797247E-04  mag=     3.0000
