       N       E                     dE             d eps       ncg     rms          rms(c)
DAV:   1     0.127662148352E+05    0.12766E+05   -0.82852E+05  4416   0.144E+03
DAV:   2    -0.105024117077E+04   -0.13816E+05   -0.13237E+05  5272   0.331E+02
DAV:   3    -0.246459108869E+04   -0.14143E+04   -0.14012E+04  5320   0.111E+02
DAV:   4    -0.251022550586E+04   -0.45634E+02   -0.45402E+02  6584   0.297E+01
DAV:   5    -0.251111878968E+04   -0.89328E+00   -0.89171E+00  5520   0.333E+00    0.170E+02
RMM:   6    -0.147399104741E+04    0.10371E+04   -0.19189E+03  4375   0.386E+01    0.723E+01
RMM:   7    -0.164767525482E+04   -0.17368E+03   -0.27612E+02  4944   0.138E+01    0.473E+01
RMM:   8    -0.170289171705E+04   -0.55216E+02   -0.33698E+01  5194   0.669E+00    0.372E+01
RMM:   9    -0.182719052784E+04   -0.12430E+03   -0.67614E+01  4977   0.799E+00    0.373E+01
RMM:  10    -0.191898808250E+04   -0.91798E+02   -0.48945E+01  5270   0.651E+00    0.209E+01
RMM:  11    -0.203586809150E+04   -0.11688E+03   -0.52095E+01  4799   0.564E+00    0.164E+01
RMM:  12    -0.211658503696E+04   -0.80717E+02   -0.39917E+01  4774   0.498E+00    0.123E+01
RMM:  13    -0.221698213929E+04   -0.10040E+03   -0.70324E+01  4494   0.626E+00    0.835E+00
RMM:  14    -0.228237167722E+04   -0.65390E+02   -0.61278E+01  4517   0.560E+00    0.611E+00
RMM:  15    -0.229767642426E+04   -0.15305E+02   -0.19509E+01  4839   0.367E+00    0.305E+00
RMM:  16    -0.230064810791E+04   -0.29717E+01   -0.47963E+00  5457   0.130E+00    0.596E+00
RMM:  17    -0.230068767077E+04   -0.39563E-01   -0.25855E-01  5816   0.420E-01    0.561E+00
RMM:  18    -0.230076343703E+04   -0.75766E-01   -0.71139E-02  5508   0.125E-01    0.554E+00
RMM:  19    -0.230132603496E+04   -0.56260E+00   -0.53502E-01  4370   0.423E-01    0.396E+00
RMM:  20    -0.230168858148E+04   -0.36255E+00   -0.23655E-01  4517   0.312E-01    0.259E+00
RMM:  21    -0.230190706642E+04   -0.21848E+00   -0.99763E-02  4577   0.213E-01    0.149E+00
RMM:  22    -0.230195715447E+04   -0.50088E-01   -0.61785E-02  4724   0.188E-01    0.789E-01
RMM:  23    -0.230197966756E+04   -0.22513E-01   -0.22639E-02  4821   0.116E-01    0.333E-01
RMM:  24    -0.230199428590E+04   -0.14618E-01   -0.92546E-03  4584   0.692E-02    0.158E-01
RMM:  25    -0.230199954559E+04   -0.52597E-02   -0.27415E-03  4723   0.402E-02    0.113E-01
RMM:  26    -0.230200360890E+04   -0.40633E-02   -0.92864E-04  4429   0.221E-02    0.101E-01
RMM:  27    -0.230200922395E+04   -0.56151E-02   -0.12360E-03  4390   0.254E-02    0.423E-02
RMM:  28    -0.230201162762E+04   -0.24037E-02   -0.53953E-04  4181   0.195E-02    0.296E-02
RMM:  29    -0.230201298011E+04   -0.13525E-02   -0.28446E-04  4004   0.119E-02    0.173E-02
RMM:  30    -0.230201423338E+04   -0.12533E-02   -0.32386E-04  3914   0.129E-02    0.129E-02
RMM:  31    -0.230201450217E+04   -0.26879E-03   -0.10173E-04  3681   0.928E-03    0.558E-03
RMM:  32    -0.230201459149E+04   -0.89313E-04   -0.32849E-05  3140   0.521E-03    0.405E-03
RMM:  33    -0.230201462533E+04   -0.33845E-04   -0.10855E-05  2836   0.404E-03    0.209E-03
RMM:  34    -0.230201464321E+04   -0.17876E-04   -0.56741E-06  2647   0.250E-03    0.118E-03
RMM:  35    -0.230201465046E+04   -0.72551E-05   -0.33175E-06  2446   0.214E-03
   1 F= -.23223523E+04 E0= -.23223523E+04  d E =-.232235E+04  mag=     4.0000
       N       E                     dE             d eps       ncg     rms          rms(c)
DAV:   1    -0.230214619353E+04   -0.13155E+00   -0.25669E+01  4784   0.418E+00    0.117E+00
RMM:   2    -0.230226602004E+04   -0.11983E+00   -0.13271E+00  5956   0.683E-01    0.767E-01
RMM:   3    -0.230227001049E+04   -0.39904E-02   -0.10117E-01  5415   0.214E-01    0.894E-01
RMM:   4    -0.230226562470E+04    0.43858E-02   -0.13294E-02  6026   0.556E-02    0.430E-01
RMM:   5    -0.230226371661E+04    0.19081E-02   -0.50780E-03  4774   0.427E-02    0.206E-01
RMM:   6    -0.230226346208E+04    0.25453E-03   -0.21011E-03  5123   0.330E-02    0.881E-02
RMM:   7    -0.230226340842E+04    0.53665E-04   -0.25282E-04  4850   0.136E-02    0.336E-02
RMM:   8    -0.230226340180E+04    0.66138E-05   -0.10252E-04  3455   0.686E-03    0.182E-02
RMM:   9    -0.230226340202E+04   -0.21473E-06   -0.34772E-05  2986   0.566E-03
   2 F= -.23226012E+04 E0= -.23226012E+04  d E =-.248898E+00  mag=     4.0000
       N       E                     dE             d eps       ncg     rms          rms(c)
DAV:   1    -0.230206717889E+04    0.19622E+00   -0.73762E+01  4512   0.724E+00    0.197E+00
RMM:   2    -0.230242086641E+04   -0.35369E+00   -0.39009E+00  6047   0.126E+00    0.138E+00
RMM:   3    -0.230243573393E+04   -0.14868E-01   -0.30795E-01  5506   0.374E-01    0.168E+00
RMM:   4    -0.230241952321E+04    0.16211E-01   -0.38394E-02  6276   0.101E-01    0.702E-01
RMM:   5    -0.230241440091E+04    0.51223E-02   -0.14727E-02  4909   0.722E-02    0.414E-01
RMM:   6    -0.230241319037E+04    0.12105E-02   -0.78234E-03  5180   0.599E-02    0.194E-01
RMM:   7    -0.230241289918E+04    0.29119E-03   -0.96486E-04  5380   0.281E-02    0.666E-02
RMM:   8    -0.230241289737E+04    0.18112E-05   -0.46079E-04  4556   0.130E-02    0.334E-02
RMM:   9    -0.230241291599E+04   -0.18621E-04   -0.13341E-04  3851   0.891E-03    0.190E-02
RMM:  10    -0.230241292917E+04   -0.13178E-04   -0.44274E-05  3257   0.580E-03    0.899E-03
RMM:  11    -0.230241294553E+04   -0.16364E-04   -0.23460E-05  2977   0.516E-03    0.631E-03
RMM:  12    -0.230241296019E+04   -0.14662E-04   -0.16689E-05  2848   0.456E-03    0.428E-03
RMM:  13    -0.230241297078E+04   -0.10583E-04   -0.99869E-06  2801   0.412E-03    0.251E-03
RMM:  14    -0.230241297582E+04   -0.50469E-05   -0.54284E-06  2783   0.310E-03
   3 F= -.23227506E+04 E0= -.23227506E+04  d E =-.398356E+00  mag=     4.0000
       N       E                     dE             d eps       ncg     rms          rms(c)
DAV:   1    -0.230246421565E+04   -0.51245E-01   -0.20464E+01  4528   0.415E+00    0.130E+00
RMM:   2    -0.230254455774E+04   -0.80342E-01   -0.93564E-01  5870   0.719E-01    0.680E-01
RMM:   3    -0.230254797965E+04   -0.34219E-02   -0.71579E-02  5378   0.222E-01    0.104E+00
RMM:   4    -0.230254115566E+04    0.68240E-02   -0.10813E-02  6021   0.656E-02    0.384E-01
RMM:   5    -0.230253889758E+04    0.22581E-02   -0.52420E-03  4899   0.504E-02    0.146E-01
RMM:   6    -0.230253853174E+04    0.36584E-03   -0.18081E-03  4951   0.358E-02    0.634E-02
RMM:   7    -0.230253843825E+04    0.93493E-04   -0.33366E-04  4646   0.134E-02    0.335E-02
RMM:   8    -0.230253835934E+04    0.78904E-04   -0.13973E-04  4242   0.996E-03    0.201E-02
RMM:   9    -0.230253832915E+04    0.30199E-04   -0.48388E-05  3450   0.688E-03    0.853E-03
RMM:  10    -0.230253832148E+04    0.76694E-05   -0.22905E-05  3024   0.515E-03
   4 F= -.23228757E+04 E0= -.23228757E+04  d E =-.125061E+00  mag=     4.0000
       N       E                     dE             d eps       ncg     rms          rms(c)
DAV:   1    -0.230253663136E+04    0.16978E-02   -0.39002E+00  4608   0.179E+00    0.569E-01
RMM:   2    -0.230255208100E+04   -0.15450E-01   -0.17990E-01  5807   0.305E-01    0.297E-01
RMM:   3    -0.230255259151E+04   -0.51051E-03   -0.13148E-02  5274   0.986E-02    0.436E-01
RMM:   4    -0.230255145122E+04    0.11403E-02   -0.20648E-03  5552   0.285E-02    0.176E-01
RMM:   5    -0.230255100790E+04    0.44332E-03   -0.10095E-03  4801   0.227E-02    0.693E-02
RMM:   6    -0.230255092319E+04    0.84701E-04   -0.35108E-04  4639   0.157E-02    0.312E-02
RMM:   7    -0.230255090174E+04    0.21453E-04   -0.58408E-05  3676   0.638E-03    0.147E-02
RMM:   8    -0.230255088471E+04    0.17036E-04   -0.28379E-05  3001   0.529E-03    0.103E-02
RMM:   9    -0.230255087914E+04    0.55657E-05   -0.13358E-05  2827   0.403E-03
   5 F= -.23228881E+04 E0= -.23228881E+04  d E =-.137423E+00  mag=     4.0000
       N       E                     dE             d eps       ncg     rms          rms(c)
DAV:   1    -0.230255683379E+04   -0.59491E-02   -0.35543E+00  4496   0.151E+00    0.454E-01
RMM:   2    -0.230257929123E+04   -0.22457E-01   -0.24963E-01  5657   0.287E-01    0.350E-01
RMM:   3    -0.230258015848E+04   -0.86725E-03   -0.28383E-02  4773   0.171E-01    0.295E-01
RMM:   4    -0.230257995646E+04    0.20203E-03   -0.27783E-03  5352   0.275E-02    0.257E-01
RMM:   5    -0.230257918308E+04    0.77338E-03   -0.14016E-03  5291   0.244E-02    0.109E-01
RMM:   6    -0.230257907490E+04    0.10818E-03   -0.44239E-04  4441   0.153E-02    0.574E-02
RMM:   7    -0.230257905534E+04    0.19560E-04   -0.97195E-05  3292   0.841E-03    0.180E-02
RMM:   8    -0.230257905093E+04    0.44064E-05   -0.18415E-05  2947   0.477E-03
   6 F= -.23229163E+04 E0= -.23229163E+04  d E =-.282295E-01  mag=     4.0000
       N       E                     dE             d eps       ncg     rms          rms(c)
DAV:   1    -0.230257906141E+04   -0.60727E-05   -0.62003E-02  4912   0.198E-01    0.609E-02
RMM:   2    -0.230257946289E+04   -0.40148E-03   -0.44187E-03  5862   0.391E-02    0.508E-02
RMM:   3    -0.230257947753E+04   -0.14632E-04   -0.45882E-04  3234   0.193E-02    0.523E-02
RMM:   4    -0.230257946379E+04    0.13740E-04   -0.48167E-05  2990   0.447E-03    0.285E-02
RMM:   5    -0.230257945000E+04    0.13786E-04   -0.26978E-05  2998   0.422E-03    0.153E-02
RMM:   6    -0.230257944774E+04    0.22617E-05   -0.13168E-05  2836   0.370E-03
   7 F= -.23229167E+04 E0= -.23229167E+04  d E =-.286297E-01  mag=     4.0000
       N       E                     dE             d eps       ncg     rms          rms(c)
DAV:   1    -0.230257833500E+04    0.11150E-02   -0.36872E+00  4448   0.162E+00    0.514E-01
RMM:   2    -0.230260379871E+04   -0.25464E-01   -0.27369E-01  6049   0.316E-01    0.248E-01
RMM:   3    -0.230260494589E+04   -0.11472E-02   -0.21809E-02  5479   0.934E-02    0.196E-01
RMM:   4    -0.230260511183E+04   -0.16593E-03   -0.28084E-03  5263   0.248E-02    0.256E-01
RMM:   5    -0.230260460681E+04    0.50502E-03   -0.83044E-04  4962   0.188E-02    0.940E-02
RMM:   6    -0.230260452955E+04    0.77255E-04   -0.24355E-04  4312   0.120E-02    0.292E-02
RMM:   7    -0.230260452688E+04    0.26751E-05   -0.37329E-05  3164   0.706E-03
   8 F= -.23229424E+04 E0= -.23229424E+04  d E =-.256618E-01  mag=     4.0000
       N       E                     dE             d eps       ncg     rms          rms(c)
DAV:   1    -0.230259031276E+04    0.14217E-01   -0.27959E+00  4456   0.142E+00    0.450E-01
RMM:   2    -0.230260954513E+04   -0.19232E-01   -0.20688E-01  6031   0.279E-01    0.217E-01
RMM:   3    -0.230261045027E+04   -0.90514E-03   -0.16177E-02  5461   0.805E-02    0.204E-01
RMM:   4    -0.230261045761E+04   -0.73366E-05   -0.20591E-03  5030   0.211E-02    0.199E-01
RMM:   5    -0.230261009518E+04    0.36243E-03   -0.62186E-04  4741   0.170E-02    0.745E-02
RMM:   6    -0.230261005057E+04    0.44608E-04   -0.19380E-04  4177   0.117E-02    0.287E-02
RMM:   7    -0.230261005330E+04   -0.27252E-05   -0.34812E-05  3159   0.612E-03
   9 F= -.23229484E+04 E0= -.23229484E+04  d E =-.316619E-01  mag=     4.0000
       N       E                     dE             d eps       ncg     rms          rms(c)
DAV:   1    -0.230259686884E+04    0.13182E-01   -0.49457E+00  4432   0.189E+00    0.512E-01
RMM:   2    -0.230262994192E+04   -0.33073E-01   -0.35240E-01  5827   0.316E-01    0.264E-01
RMM:   3    -0.230263182566E+04   -0.18837E-02   -0.29450E-02  5227   0.125E-01    0.221E-01
RMM:   4    -0.230263195750E+04   -0.13184E-03   -0.31630E-03  5320   0.246E-02    0.249E-01
RMM:   5    -0.230263143142E+04    0.52608E-03   -0.60026E-04  4524   0.150E-02    0.840E-02
RMM:   6    -0.230263136676E+04    0.64659E-04   -0.43604E-04  4538   0.144E-02    0.223E-02
RMM:   7    -0.230263137517E+04   -0.84104E-05   -0.42776E-05  3080   0.866E-03
  10 F= -.23229701E+04 E0= -.23229701E+04  d E =-.217646E-01  mag=     4.0000
       N       E                     dE             d eps       ncg     rms          rms(c)
DAV:   1    -0.230251061018E+04    0.12076E+00   -0.19234E+01  4396   0.371E+00    0.102E+00
RMM:   2    -0.230264048396E+04   -0.12987E+00   -0.13859E+00  5634   0.609E-01    0.544E-01
RMM:   3    -0.230264881087E+04   -0.83269E-02   -0.13504E-01  4958   0.277E-01    0.346E-01
RMM:   4    -0.230264909295E+04   -0.28208E-03   -0.12379E-02  5202   0.513E-02    0.395E-01
RMM:   5    -0.230264824340E+04    0.84955E-03   -0.17913E-03  5045   0.269E-02    0.273E-01
RMM:   6    -0.230264753731E+04    0.70609E-03   -0.21326E-03  4518   0.279E-02    0.872E-02
RMM:   7    -0.230264752786E+04    0.94501E-05   -0.28287E-04  3911   0.185E-02    0.274E-02
RMM:   8    -0.230264753694E+04   -0.90819E-05   -0.63215E-05  3445   0.583E-03
  11 F= -.23229870E+04 E0= -.23229870E+04  d E =-.386709E-01  mag=     4.0000
       N       E                     dE             d eps       ncg     rms          rms(c)
DAV:   1    -0.230260599010E+04    0.41538E-01   -0.75769E+00  4416   0.243E+00    0.744E-01
RMM:   2    -0.230266594786E+04   -0.59958E-01   -0.64322E-01  5890   0.430E-01    0.452E-01
RMM:   3    -0.230267282718E+04   -0.68793E-02   -0.65935E-02  5474   0.152E-01    0.777E-01
RMM:   4    -0.230266923114E+04    0.35960E-02   -0.64954E-03  5885   0.371E-02    0.207E-01
RMM:   5    -0.230266853413E+04    0.69701E-03   -0.17014E-03  4864   0.235E-02    0.108E-01
RMM:   6    -0.230266839573E+04    0.13840E-03   -0.87155E-04  4964   0.210E-02    0.330E-02
RMM:   7    -0.230266838649E+04    0.92450E-05   -0.75535E-05  4163   0.902E-03
  12 F= -.23230085E+04 E0= -.23230085E+04  d E =-.214519E-01  mag=     4.0000
       N       E                     dE             d eps       ncg     rms          rms(c)
DAV:   1    -0.230266249761E+04    0.58981E-02   -0.83243E-01  4616   0.807E-01    0.248E-01
RMM:   2    -0.230266915697E+04   -0.66594E-02   -0.71572E-02  5936   0.144E-01    0.159E-01
RMM:   3    -0.230266982851E+04   -0.67154E-03   -0.65631E-03  5173   0.500E-02    0.252E-01
RMM:   4    -0.230266944623E+04    0.38228E-03   -0.67388E-04  4282   0.128E-02    0.704E-02
RMM:   5    -0.230266936001E+04    0.86225E-04   -0.21588E-04  4045   0.942E-03    0.339E-02
RMM:   6    -0.230266934464E+04    0.15365E-04   -0.95761E-05  3794   0.849E-03    0.934E-03
RMM:   7    -0.230266934266E+04    0.19779E-05   -0.12698E-05  2841   0.521E-03
  13 F= -.23230096E+04 E0= -.23230096E+04  d E =-.225892E-01  mag=     4.0000
       N       E                     dE             d eps       ncg     rms          rms(c)
DAV:   1    -0.230263009682E+04    0.39248E-01   -0.60132E+00  4400   0.212E+00    0.617E-01
RMM:   2    -0.230268232122E+04   -0.52224E-01   -0.54310E-01  6035   0.411E-01    0.551E-01
RMM:   3    -0.230268741375E+04   -0.50925E-02   -0.53531E-02  5575   0.125E-01    0.684E-01
RMM:   4    -0.230268479120E+04    0.26225E-02   -0.57457E-03  5658   0.342E-02    0.182E-01
RMM:   5    -0.230268437308E+04    0.41812E-03   -0.11557E-03  4717   0.188E-02    0.106E-01
RMM:   6    -0.230268425783E+04    0.11525E-03   -0.60720E-04  4701   0.173E-02    0.511E-02
RMM:   7    -0.230268425713E+04    0.69666E-06   -0.88347E-05  3733   0.978E-03
  14 F= -.23230250E+04 E0= -.23230250E+04  d E =-.154074E-01  mag=     4.0000
       N       E                     dE             d eps       ncg     rms          rms(c)
DAV:   1    -0.230266139545E+04    0.22862E-01   -0.26827E+00  4432   0.142E+00    0.417E-01
RMM:   2    -0.230268509599E+04   -0.23701E-01   -0.24613E-01  6061   0.278E-01    0.390E-01
RMM:   3    -0.230268707027E+04   -0.19743E-02   -0.22948E-02  5542   0.811E-02    0.439E-01
RMM:   4    -0.230268598565E+04    0.10846E-02   -0.25388E-03  5280   0.229E-02    0.122E-01
RMM:   5    -0.230268580417E+04    0.18147E-03   -0.49758E-04  4281   0.130E-02    0.717E-02
RMM:   6    -0.230268576661E+04    0.37561E-04   -0.26578E-04  4361   0.123E-02    0.398E-02
RMM:   7    -0.230268577466E+04   -0.80520E-05   -0.40246E-05  3143   0.770E-03
  15 F= -.23230268E+04 E0= -.23230268E+04  d E =-.172280E-01  mag=     4.0000
       N       E                     dE             d eps       ncg     rms          rms(c)
DAV:   1    -0.230267706023E+04    0.87064E-02   -0.19164E+00  4432   0.117E+00    0.349E-01
RMM:   2    -0.230269497529E+04   -0.17915E-01   -0.18452E-01  6094   0.235E-01    0.311E-01
RMM:   3    -0.230269640972E+04   -0.14344E-02   -0.15421E-02  5512   0.638E-02    0.350E-01
RMM:   4    -0.230269573109E+04    0.67863E-03   -0.18645E-03  4775   0.185E-02    0.991E-02
RMM:   5    -0.230269561807E+04    0.11302E-03   -0.28523E-04  3913   0.105E-02    0.656E-02
RMM:   6    -0.230269558835E+04    0.29723E-04   -0.20698E-04  4132   0.103E-02    0.351E-02
RMM:   7    -0.230269558968E+04   -0.13289E-05   -0.27069E-05  2947   0.647E-03
  16 F= -.23230366E+04 E0= -.23230366E+04  d E =-.973328E-02  mag=     4.0000
       N       E                     dE             d eps       ncg     rms          rms(c)
DAV:   1    -0.230255465102E+04    0.14094E+00   -0.15726E+01  4396   0.337E+00    0.986E-01
RMM:   2    -0.230269971664E+04   -0.14507E+00   -0.15026E+00  6081   0.652E-01    0.791E-01
RMM:   3    -0.230271446071E+04   -0.14744E-01   -0.14219E-01  5709   0.190E-01    0.102E+00
RMM:   4    -0.230270877379E+04    0.56869E-02   -0.15170E-02  5860   0.506E-02    0.296E-01
RMM:   5    -0.230270777631E+04    0.99748E-03   -0.22173E-03  4999   0.268E-02    0.191E-01
RMM:   6    -0.230270735576E+04    0.42055E-03   -0.22045E-03  4926   0.276E-02    0.753E-02
RMM:   7    -0.230270733500E+04    0.20763E-04   -0.19685E-04  4358   0.162E-02    0.268E-02
RMM:   8    -0.230270735107E+04   -0.16067E-04   -0.60309E-05  3283   0.548E-03    0.143E-02
RMM:   9    -0.230270735773E+04   -0.66674E-05   -0.15306E-05  2847   0.404E-03
  17 F= -.23230480E+04 E0= -.23230480E+04  d E =-.211664E-01  mag=     4.0000
       N       E                     dE             d eps       ncg     rms          rms(c)
DAV:   1    -0.230268924422E+04    0.18107E-01   -0.26469E+00  4448   0.135E+00    0.432E-01
RMM:   2    -0.230271918811E+04   -0.29944E-01   -0.31145E-01  6154   0.280E-01    0.346E-01
RMM:   3    -0.230272221703E+04   -0.30289E-02   -0.29167E-02  5561   0.820E-02    0.426E-01
RMM:   4    -0.230272134417E+04    0.87285E-03   -0.32212E-03  4870   0.215E-02    0.124E-01
RMM:   5    -0.230272120974E+04    0.13444E-03   -0.38418E-04  3841   0.103E-02    0.853E-02
RMM:   6    -0.230272115061E+04    0.59125E-04   -0.29663E-04  4310   0.111E-02    0.534E-02
RMM:   7    -0.230272114536E+04    0.52532E-05   -0.42677E-05  2968   0.787E-03
  18 F= -.23230616E+04 E0= -.23230616E+04  d E =-.135546E-01  mag=     4.0000
       N       E                     dE             d eps       ncg     rms          rms(c)
DAV:   1    -0.230245345069E+04    0.26770E+00   -0.23763E+01  4392   0.404E+00    0.130E+00
RMM:   2    -0.230272386319E+04   -0.27041E+00   -0.28347E+00  6107   0.838E-01    0.967E-01
RMM:   3    -0.230275841858E+04   -0.34555E-01   -0.31653E-01  5549   0.284E-01    0.141E+00
RMM:   4    -0.230274845967E+04    0.99589E-02   -0.30393E-02  5989   0.657E-02    0.404E-01
RMM:   5    -0.230274705318E+04    0.14065E-02   -0.35416E-03  5149   0.281E-02    0.259E-01
RMM:   6    -0.230274619087E+04    0.86230E-03   -0.31441E-03  4867   0.309E-02    0.104E-01
RMM:   7    -0.230274619399E+04   -0.31214E-05   -0.62238E-04  4322   0.232E-02    0.408E-02
RMM:   8    -0.230274623181E+04   -0.37812E-04   -0.15412E-04  3489   0.888E-03    0.223E-02
RMM:   9    -0.230274624365E+04   -0.11845E-04   -0.36843E-05  2960   0.608E-03    0.108E-02
RMM:  10    -0.230274625724E+04   -0.13585E-04   -0.19166E-05  2956   0.348E-03    0.446E-03
RMM:  11    -0.230274626340E+04   -0.61676E-05   -0.43486E-06  2801   0.287E-03
  19 F= -.23230859E+04 E0= -.23230859E+04  d E =-.378484E-01  mag=     4.0000
       N       E                     dE             d eps       ncg     rms          rms(c)
DAV:   1    -0.230268129391E+04    0.64963E-01   -0.56245E+00  4396   0.196E+00    0.634E-01
RMM:   2    -0.230274557168E+04   -0.64278E-01   -0.66840E-01  6131   0.408E-01    0.534E-01
RMM:   3    -0.230275254621E+04   -0.69745E-02   -0.64424E-02  5638   0.125E-01    0.700E-01
RMM:   4    -0.230275011980E+04    0.24264E-02   -0.70845E-03  5495   0.322E-02    0.182E-01
RMM:   5    -0.230274981584E+04    0.30396E-03   -0.76119E-04  4343   0.141E-02    0.123E-01
RMM:   6    -0.230274964598E+04    0.16987E-03   -0.71160E-04  4716   0.159E-02    0.640E-02
RMM:   7    -0.230274963972E+04    0.62590E-05   -0.93768E-05  3311   0.112E-02
  20 F= -.23230888E+04 E0= -.23230888E+04  d E =-.407621E-01  mag=     4.0000
       N       E                     dE             d eps       ncg     rms          rms(c)
DAV:   1    -0.230272284396E+04    0.26802E-01   -0.34869E+00  4412   0.155E+00    0.517E-01
RMM:   2    -0.230276012843E+04   -0.37284E-01   -0.38833E-01  6079   0.316E-01    0.432E-01
RMM:   3    -0.230276418783E+04   -0.40594E-02   -0.35261E-02  5632   0.934E-02    0.590E-01
RMM:   4    -0.230276239966E+04    0.17882E-02   -0.42328E-03  5346   0.264E-02    0.134E-01
RMM:   5    -0.230276224657E+04    0.15310E-03   -0.53805E-04  4220   0.132E-02    0.101E-01
RMM:   6    -0.230276216548E+04    0.81085E-04   -0.40932E-04  4599   0.132E-02    0.479E-02
RMM:   7    -0.230276216641E+04   -0.92693E-06   -0.45193E-05  3113   0.871E-03
  21 F= -.23231010E+04 E0= -.23231010E+04  d E =-.121826E-01  mag=     4.0000
       N       E                     dE             d eps       ncg     rms          rms(c)
DAV:   1    -0.230260610369E+04    0.15606E+00   -0.14717E+01  4392   0.317E+00    0.105E+00
RMM:   2    -0.230276231053E+04   -0.15621E+00   -0.16358E+00  6097   0.642E-01    0.794E-01
RMM:   3    -0.230278215203E+04   -0.19842E-01   -0.16555E-01  5713   0.200E-01    0.123E+00
RMM:   4    -0.230277444992E+04    0.77021E-02   -0.17856E-02  5941   0.527E-02    0.290E-01
RMM:   5    -0.230277369925E+04    0.75067E-03   -0.21203E-03  4996   0.244E-02    0.207E-01
RMM:   6    -0.230277324586E+04    0.45339E-03   -0.19624E-03  4883   0.261E-02    0.740E-02
RMM:   7    -0.230277326191E+04   -0.16054E-04   -0.26818E-04  4412   0.182E-02    0.297E-02
RMM:   8    -0.230277328838E+04   -0.26463E-04   -0.76120E-05  3273   0.627E-03    0.132E-02
RMM:   9    -0.230277329374E+04   -0.53616E-05   -0.16791E-05  2867   0.476E-03
  22 F= -.23231113E+04 E0= -.23231113E+04  d E =-.225667E-01  mag=     4.0000
       N       E                     dE             d eps       ncg     rms          rms(c)
DAV:   1    -0.230271753673E+04    0.55752E-01   -0.63849E+00  4412   0.206E+00    0.672E-01
RMM:   2    -0.230278358385E+04   -0.66047E-01   -0.69569E-01  6097   0.406E-01    0.491E-01
RMM:   3    -0.230279202315E+04   -0.84393E-02   -0.70434E-02  5734   0.125E-01    0.792E-01
RMM:   4    -0.230278883900E+04    0.31842E-02   -0.75410E-03  5651   0.327E-02    0.181E-01
RMM:   5    -0.230278853082E+04    0.30818E-03   -0.81524E-04  4377   0.153E-02    0.131E-01
RMM:   6    -0.230278838772E+04    0.14310E-03   -0.72258E-04  4615   0.163E-02    0.494E-02
RMM:   7    -0.230278840667E+04   -0.18949E-04   -0.11759E-04  3781   0.112E-02    0.203E-02
RMM:   8    -0.230278842214E+04   -0.15472E-04   -0.30481E-05  2932   0.462E-03    0.879E-03
RMM:   9    -0.230278842766E+04   -0.55218E-05   -0.83813E-06  2838   0.339E-03
  23 F= -.23231263E+04 E0= -.23231263E+04  d E =-.149725E-01  mag=     4.0000
       N       E                     dE             d eps       ncg     rms          rms(c)
DAV:   1    -0.230270204997E+04    0.86372E-01   -0.84698E+00  4392   0.236E+00    0.772E-01
RMM:   2    -0.230278938532E+04   -0.87335E-01   -0.92059E-01  6076   0.471E-01    0.554E-01
RMM:   3    -0.230280077371E+04   -0.11388E-01   -0.95624E-02  5703   0.145E-01    0.897E-01
RMM:   4    -0.230279665716E+04    0.41166E-02   -0.10088E-02  5746   0.377E-02    0.208E-01
RMM:   5    -0.230279624048E+04    0.41668E-03   -0.10597E-03  4543   0.173E-02    0.150E-01
RMM:   6    -0.230279603488E+04    0.20560E-03   -0.95574E-04  4678   0.184E-02    0.558E-02
RMM:   7    -0.230279605378E+04   -0.18898E-04   -0.16765E-04  4097   0.130E-02    0.238E-02
RMM:   8    -0.230279607208E+04   -0.18297E-04   -0.43469E-05  3039   0.527E-03    0.107E-02
RMM:   9    -0.230279607852E+04   -0.64459E-05   -0.11610E-05  2847   0.391E-03
  24 F= -.23231338E+04 E0= -.23231338E+04  d E =-.224339E-01  mag=     4.0000
       N       E                     dE             d eps       ncg     rms          rms(c)
DAV:   1    -0.230275129362E+04    0.44778E-01   -0.55551E+00  4412   0.191E+00    0.606E-01
RMM:   2    -0.230280287582E+04   -0.51582E-01   -0.54874E-01  6018   0.364E-01    0.350E-01
RMM:   3    -0.230280814194E+04   -0.52661E-02   -0.54707E-02  5518   0.111E-01    0.495E-01
RMM:   4    -0.230280715178E+04    0.99017E-03   -0.55746E-03  5340   0.268E-02    0.185E-01
RMM:   5    -0.230280676374E+04    0.38804E-03   -0.73155E-04  4430   0.161E-02    0.121E-01
RMM:   6    -0.230280664357E+04    0.12017E-03   -0.81660E-04  4775   0.177E-02    0.319E-02
RMM:   7    -0.230280665014E+04   -0.65665E-05   -0.57062E-05  3199   0.932E-03
  25 F= -.23231439E+04 E0= -.23231439E+04  d E =-.101586E-01  mag=     4.0000
       N       E                     dE             d eps       ncg     rms          rms(c)
DAV:   1    -0.230280600570E+04    0.63787E-03   -0.76901E-02  4984   0.224E-01    0.737E-02
RMM:   2    -0.230280674051E+04   -0.73481E-03   -0.78294E-03  5944   0.440E-02    0.527E-02
RMM:   3    -0.230280682198E+04   -0.81470E-04   -0.72975E-04  3120   0.136E-02    0.781E-02
RMM:   4    -0.230280679103E+04    0.30950E-04   -0.78296E-05  2877   0.478E-03    0.211E-02
RMM:   5    -0.230280678744E+04    0.35981E-05   -0.15171E-05  2851   0.287E-03
  26 F= -.23231440E+04 E0= -.23231440E+04  d E =-.102473E-01  mag=     4.0000
       N       E                     dE             d eps       ncg     rms          rms(c)
DAV:   1    -0.230278055253E+04    0.26239E-01   -0.34877E+00  4412   0.153E+00    0.472E-01
RMM:   2    -0.230281184711E+04   -0.31295E-01   -0.33404E-01  5953   0.287E-01    0.234E-01
RMM:   3    -0.230281457702E+04   -0.27299E-02   -0.32431E-02  5243   0.887E-02    0.207E-01
RMM:   4    -0.230281473051E+04   -0.15349E-03   -0.34718E-03  4604   0.209E-02    0.188E-01
RMM:   5    -0.230281445371E+04    0.27680E-03   -0.43202E-04  4217   0.125E-02    0.101E-01
RMM:   6    -0.230281436756E+04    0.86159E-04   -0.33624E-04  4273   0.123E-02    0.302E-02
RMM:   7    -0.230281438454E+04   -0.16981E-04   -0.60233E-05  3133   0.906E-03    0.157E-02
RMM:   8    -0.230281439358E+04   -0.90411E-05   -0.16761E-05  2881   0.409E-03
  27 F= -.23231514E+04 E0= -.23231514E+04  d E =-.743357E-02  mag=     4.0000
       N       E                     dE             d eps       ncg     rms          rms(c)
DAV:   1    -0.230279462365E+04    0.19761E-01   -0.22121E+00  4412   0.123E+00    0.376E-01
RMM:   2    -0.230281451014E+04   -0.19886E-01   -0.21215E-01  5938   0.230E-01    0.189E-01
RMM:   3    -0.230281631523E+04   -0.18051E-02   -0.20255E-02  5227   0.703E-02    0.209E-01
RMM:   4    -0.230281627438E+04    0.40854E-04   -0.21591E-03  4048   0.164E-02    0.127E-01
RMM:   5    -0.230281612756E+04    0.14682E-03   -0.24062E-04  3836   0.103E-02    0.755E-02
RMM:   6    -0.230281608593E+04    0.41626E-04   -0.21819E-04  4112   0.106E-02    0.199E-02
RMM:   7    -0.230281610263E+04   -0.16700E-04   -0.32005E-05  2965   0.736E-03    0.103E-02
RMM:   8    -0.230281611057E+04   -0.79366E-05   -0.10213E-05  2830   0.342E-03
  28 F= -.23231530E+04 E0= -.23231530E+04  d E =-.901472E-02  mag=     4.0000
       N       E                     dE             d eps       ncg     rms          rms(c)
DAV:   1    -0.230280030426E+04    0.15798E-01   -0.27099E+00  4396   0.140E+00    0.427E-01
RMM:   2    -0.230282262255E+04   -0.22318E-01   -0.23746E-01  5960   0.258E-01    0.195E-01
RMM:   3    -0.230282412538E+04   -0.15028E-02   -0.19924E-02  5315   0.765E-02    0.117E-01
RMM:   4    -0.230282415876E+04   -0.33371E-04   -0.21132E-03  4563   0.190E-02    0.131E-01
RMM:   5    -0.230282408231E+04    0.76446E-04   -0.31712E-04  3785   0.117E-02    0.980E-02
RMM:   6    -0.230282401787E+04    0.64439E-04   -0.20956E-04  4215   0.992E-03    0.205E-02
RMM:   7    -0.230282403095E+04   -0.13083E-04   -0.22579E-05  2895   0.718E-03    0.971E-03
RMM:   8    -0.230282403656E+04   -0.56041E-05   -0.77287E-06  2828   0.251E-03
  29 F= -.23231607E+04 E0= -.23231607E+04  d E =-.762172E-02  mag=     4.0000
       N       E                     dE             d eps       ncg     rms          rms(c)
DAV:   1    -0.230276715371E+04    0.56877E-01   -0.69285E+00  4392   0.224E+00    0.684E-01
RMM:   2    -0.230282439235E+04   -0.57239E-01   -0.60852E-01  5950   0.410E-01    0.332E-01
RMM:   3    -0.230282844217E+04   -0.40498E-02   -0.53317E-02  5484   0.125E-01    0.240E-01
RMM:   4    -0.230282863011E+04   -0.18793E-03   -0.55835E-03  5458   0.299E-02    0.277E-01
RMM:   5    -0.230282813217E+04    0.49793E-03   -0.93624E-04  4743   0.171E-02    0.123E-01
RMM:   6    -0.230282798761E+04    0.14457E-03   -0.68756E-04  4635   0.163E-02    0.573E-02
RMM:   7    -0.230282800275E+04   -0.15143E-04   -0.94863E-05  3547   0.113E-02    0.216E-02
RMM:   8    -0.230282801593E+04   -0.13177E-04   -0.30550E-05  3002   0.428E-03    0.146E-02
RMM:   9    -0.230282801912E+04   -0.31914E-05   -0.76916E-06  2815   0.341E-03
  30 F= -.23231641E+04 E0= -.23231641E+04  d E =-.111193E-01  mag=     4.0000
       N       E                     dE             d eps       ncg     rms          rms(c)
DAV:   1    -0.230281191003E+04    0.16106E-01   -0.26859E+00  4460   0.135E+00    0.380E-01
RMM:   2    -0.230283301459E+04   -0.21105E-01   -0.22304E-01  5988   0.243E-01    0.199E-01
RMM:   3    -0.230283433244E+04   -0.13178E-02   -0.17926E-02  5379   0.684E-02    0.129E-01
RMM:   4    -0.230283441958E+04   -0.87147E-04   -0.19626E-03  4549   0.174E-02    0.176E-01
RMM:   5    -0.230283420233E+04    0.21725E-03   -0.32407E-04  3648   0.104E-02    0.684E-02
RMM:   6    -0.230283416196E+04    0.40373E-04   -0.27925E-04  4186   0.107E-02    0.200E-02
RMM:   7    -0.230283416385E+04   -0.18892E-05   -0.26560E-05  2923   0.739E-03
  31 F= -.23231698E+04 E0= -.23231698E+04  d E =-.569757E-02  mag=     4.0000
       N       E                     dE             d eps       ncg     rms          rms(c)
DAV:   1    -0.230280171249E+04    0.32449E-01   -0.41493E+00  4408   0.167E+00    0.472E-01
RMM:   2    -0.230283424625E+04   -0.32534E-01   -0.34384E-01  5975   0.299E-01    0.252E-01
RMM:   3    -0.230283635307E+04   -0.21068E-02   -0.28181E-02  5446   0.882E-02    0.180E-01
RMM:   4    -0.230283643724E+04   -0.84168E-04   -0.30167E-03  4960   0.213E-02    0.223E-01
RMM:   5    -0.230283608088E+04    0.35635E-03   -0.52429E-04  4128   0.129E-02    0.831E-02
RMM:   6    -0.230283601177E+04    0.69112E-04   -0.47573E-04  4437   0.137E-02    0.277E-02
RMM:   7    -0.230283601194E+04   -0.16767E-06   -0.37795E-05  3028   0.879E-03
  32 F= -.23231711E+04 E0= -.23231711E+04  d E =-.699703E-02  mag=     4.0000
       N       E                     dE             d eps       ncg     rms          rms(c)
DAV:   1    -0.230282157518E+04    0.14437E-01   -0.28047E+00  4428   0.142E+00    0.397E-01
RMM:   2    -0.230284102682E+04   -0.19452E-01   -0.20611E-01  5878   0.248E-01    0.192E-01
RMM:   3    -0.230284234251E+04   -0.13157E-02   -0.16097E-02  5282   0.730E-02    0.177E-01
RMM:   4    -0.230284231352E+04    0.28982E-04   -0.19785E-03  4668   0.184E-02    0.171E-01
RMM:   5    -0.230284208455E+04    0.22897E-03   -0.31746E-04  3956   0.116E-02    0.601E-02
RMM:   6    -0.230284205160E+04    0.32946E-04   -0.26034E-04  4281   0.115E-02    0.158E-02
RMM:   7    -0.230284205429E+04   -0.26889E-05   -0.22180E-05  2935   0.698E-03
  33 F= -.23231769E+04 E0= -.23231769E+04  d E =-.576104E-02  mag=     4.0000
       N       E                     dE             d eps       ncg     rms          rms(c)
DAV:   1    -0.230281877667E+04    0.23275E-01   -0.34962E+00  4408   0.158E+00    0.442E-01
RMM:   2    -0.230284321172E+04   -0.24435E-01   -0.25889E-01  5871   0.274E-01    0.212E-01
RMM:   3    -0.230284481909E+04   -0.16074E-02   -0.20286E-02  5315   0.816E-02    0.182E-01
RMM:   4    -0.230284483168E+04   -0.12586E-04   -0.24385E-03  4965   0.201E-02    0.198E-01
RMM:   5    -0.230284452990E+04    0.30178E-03   -0.40992E-04  4112   0.126E-02    0.686E-02
RMM:   6    -0.230284448336E+04    0.46531E-04   -0.33686E-04  4407   0.124E-02    0.201E-02
RMM:   7    -0.230284448742E+04   -0.40604E-05   -0.31763E-05  3038   0.771E-03
  34 F= -.23231790E+04 E0= -.23231790E+04  d E =-.788584E-02  mag=     4.0000
       N       E                     dE             d eps       ncg     rms          rms(c)
DAV:   1    -0.230284417090E+04    0.31247E-03   -0.85577E-01  4512   0.784E-01    0.215E-01
RMM:   2    -0.230284968348E+04   -0.55126E-02   -0.58830E-02  5847   0.135E-01    0.110E-01
RMM:   3    -0.230285001711E+04   -0.33363E-03   -0.48369E-03  4864   0.418E-02    0.777E-02
RMM:   4    -0.230285004659E+04   -0.29483E-04   -0.57568E-04  3682   0.115E-02    0.110E-01
RMM:   5    -0.230284996265E+04    0.83937E-04   -0.12715E-04  3228   0.782E-03    0.364E-02
RMM:   6    -0.230284995402E+04    0.86293E-05   -0.72652E-05  3519   0.700E-03
  35 F= -.23231844E+04 E0= -.23231844E+04  d E =-.531966E-02  mag=     4.0000
       N       E                     dE             d eps       ncg     rms          rms(c)
DAV:   1    -0.230282044530E+04    0.29517E-01   -0.52067E+00  4392   0.193E+00    0.530E-01
RMM:   2    -0.230285366437E+04   -0.33219E-01   -0.35472E-01  5815   0.334E-01    0.268E-01
RMM:   3    -0.230285582461E+04   -0.21602E-02   -0.31195E-02  5093   0.103E-01    0.180E-01
RMM:   4    -0.230285590318E+04   -0.78571E-04   -0.35134E-03  4964   0.281E-02    0.229E-01
RMM:   5    -0.230285558263E+04    0.32055E-03   -0.75240E-04  4611   0.168E-02    0.122E-01
RMM:   6    -0.230285545448E+04    0.12815E-03   -0.39574E-04  4396   0.131E-02    0.370E-02
RMM:   7    -0.230285545138E+04    0.30960E-05   -0.70038E-05  3358   0.914E-03
  36 F= -.23231895E+04 E0= -.23231895E+04  d E =-.104629E-01  mag=     4.0000
       N       E                     dE             d eps       ncg     rms          rms(c)
DAV:   1    -0.230284607689E+04    0.93776E-02   -0.21325E+00  4428   0.120E+00    0.335E-01
RMM:   2    -0.230285938723E+04   -0.13310E-01   -0.14116E-01  5845   0.204E-01    0.164E-01
RMM:   3    -0.230286005501E+04   -0.66777E-03   -0.10729E-02  5054   0.629E-02    0.105E-01
RMM:   4    -0.230286008055E+04   -0.25548E-04   -0.13505E-03  4405   0.175E-02    0.147E-01
RMM:   5    -0.230285994669E+04    0.13386E-03   -0.29604E-04  3506   0.108E-02    0.731E-02
RMM:   6    -0.230285991135E+04    0.35341E-04   -0.16646E-04  3820   0.850E-03    0.139E-02
RMM:   7    -0.230285990872E+04    0.26325E-05   -0.12970E-05  2855   0.542E-03
  37 F= -.23231935E+04 E0= -.23231935E+04  d E =-.401165E-02  mag=     4.0000
       N       E                     dE             d eps       ncg     rms          rms(c)
DAV:   1    -0.230285976875E+04    0.14260E-03   -0.35190E-02  4968   0.156E-01    0.435E-02
RMM:   2    -0.230285999333E+04   -0.22458E-03   -0.23794E-03  5658   0.269E-02    0.214E-02
RMM:   3    -0.230286000336E+04   -0.10025E-04   -0.16859E-04  2904   0.885E-03    0.149E-02
RMM:   4    -0.230286000507E+04   -0.17121E-05   -0.23846E-05  2855   0.275E-03
  38 F= -.23231935E+04 E0= -.23231935E+04  d E =-.405106E-02  mag=     4.0000
       N       E                     dE             d eps       ncg     rms          rms(c)
DAV:   1    -0.230285014339E+04    0.98600E-02   -0.18760E+00  4400   0.120E+00    0.345E-01
RMM:   2    -0.230286405800E+04   -0.13915E-01   -0.14717E-01  5814   0.211E-01    0.170E-01
RMM:   3    -0.230286495615E+04   -0.89815E-03   -0.12976E-02  5021   0.688E-02    0.105E-01
RMM:   4    -0.230286490754E+04    0.48610E-04   -0.14116E-03  4414   0.185E-02    0.810E-02
RMM:   5    -0.230286497073E+04   -0.63193E-04   -0.33026E-04  3808   0.128E-02    0.142E-01
RMM:   6    -0.230286482894E+04    0.14179E-03   -0.14107E-04  4078   0.822E-03    0.148E-02
RMM:   7    -0.230286482778E+04    0.11583E-05   -0.22512E-05  2870   0.533E-03
  39 F= -.23231981E+04 E0= -.23231981E+04  d E =-.456096E-02  mag=     4.0000
       N       E                     dE             d eps       ncg     rms          rms(c)
DAV:   1    -0.230285670163E+04    0.81273E-02   -0.11612E+00  4408   0.938E-01    0.272E-01
RMM:   2    -0.230286527861E+04   -0.85770E-02   -0.90892E-02  5813   0.166E-01    0.133E-01
RMM:   3    -0.230286583477E+04   -0.55616E-03   -0.78293E-03  5037   0.518E-02    0.899E-02
RMM:   4    -0.230286588867E+04   -0.53907E-04   -0.90604E-04  4337   0.141E-02    0.139E-01
RMM:   5    -0.230286575053E+04    0.13814E-03   -0.19948E-04  3450   0.956E-03    0.432E-02
RMM:   6    -0.230286573047E+04    0.20067E-04   -0.10972E-04  3891   0.791E-03    0.113E-02
RMM:   7    -0.230286572923E+04    0.12351E-05   -0.11768E-05  2833   0.568E-03
  40 F= -.23231988E+04 E0= -.23231988E+04  d E =-.526328E-02  mag=     4.0000
       N       E                     dE             d eps       ncg     rms          rms(c)
DAV:   1    -0.230284700802E+04    0.18722E-01   -0.24550E+00  4392   0.136E+00    0.391E-01
RMM:   2    -0.230286822485E+04   -0.21217E-01   -0.22250E-01  5859   0.243E-01    0.190E-01
RMM:   3    -0.230286974868E+04   -0.15238E-02   -0.19576E-02  5227   0.806E-02    0.122E-01
RMM:   4    -0.230286981846E+04   -0.69787E-04   -0.21093E-03  4760   0.187E-02    0.161E-01
RMM:   5    -0.230286966232E+04    0.15615E-03   -0.34515E-04  3583   0.118E-02    0.857E-02
RMM:   6    -0.230286958995E+04    0.72364E-04   -0.25435E-04  4201   0.102E-02    0.175E-02
RMM:   7    -0.230286958835E+04    0.16047E-05   -0.22362E-05  2902   0.733E-03
  41 F= -.23232025E+04 E0= -.23232025E+04  d E =-.368969E-02  mag=     4.0000
       N       E                     dE             d eps       ncg     rms          rms(c)
DAV:   1    -0.230286151925E+04    0.80707E-02   -0.95589E-01  4432   0.842E-01    0.245E-01
RMM:   2    -0.230286977293E+04   -0.82537E-02   -0.86653E-02  5834   0.152E-01    0.121E-01
RMM:   3    -0.230287037709E+04   -0.60416E-03   -0.75472E-03  5083   0.503E-02    0.926E-02
RMM:   4    -0.230287039320E+04   -0.16109E-04   -0.80324E-04  3570   0.115E-02    0.107E-01
RMM:   5    -0.230287030162E+04    0.91581E-04   -0.13796E-04  3221   0.820E-03    0.405E-02
RMM:   6    -0.230287028360E+04    0.18016E-04   -0.11224E-04  3727   0.789E-03    0.103E-02
RMM:   7    -0.230287028356E+04    0.41939E-07   -0.10226E-05  2828   0.555E-03
  42 F= -.23232031E+04 E0= -.23232031E+04  d E =-.428575E-02  mag=     4.0000
       N       E                     dE             d eps       ncg     rms          rms(c)
DAV:   1    -0.230285997922E+04    0.10304E-01   -0.14141E+00  4392   0.105E+00    0.313E-01
RMM:   2    -0.230287277701E+04   -0.12798E-01   -0.13478E-01  5789   0.188E-01    0.177E-01
RMM:   3    -0.230287355054E+04   -0.77353E-03   -0.10655E-02  5247   0.621E-02    0.170E-01
RMM:   4    -0.230287342717E+04    0.12337E-03   -0.12618E-03  4255   0.150E-02    0.124E-01
RMM:   5    -0.230287325535E+04    0.17182E-03   -0.25146E-04  3928   0.109E-02    0.498E-02
RMM:   6    -0.230287321248E+04    0.42865E-04   -0.22325E-04  4225   0.109E-02    0.124E-02
RMM:   7    -0.230287321096E+04    0.15267E-05   -0.16561E-05  2901   0.639E-03
  43 F= -.23232061E+04 E0= -.23232061E+04  d E =-.296870E-02  mag=     4.0000
       N       E                     dE             d eps       ncg     rms          rms(c)
DAV:   1    -0.230287311682E+04    0.95665E-04   -0.10024E-02  5184   0.892E-02    0.274E-02
RMM:   2    -0.230287321024E+04   -0.93419E-04   -0.98394E-04  5094   0.170E-02    0.170E-02
RMM:   3    -0.230287321694E+04   -0.66980E-05   -0.76851E-05  2844   0.617E-03
  44 F= -.23232061E+04 E0= -.23232061E+04  d E =-.297839E-02  mag=     4.0000
       N       E                     dE             d eps       ncg     rms          rms(c)
DAV:   1    -0.230286639105E+04    0.68192E-02   -0.85852E-01  4400   0.836E-01    0.249E-01
RMM:   2    -0.230287518068E+04   -0.87896E-02   -0.92149E-02  5738   0.149E-01    0.145E-01
RMM:   3    -0.230287585190E+04   -0.67122E-03   -0.80394E-03  5159   0.508E-02    0.147E-01
RMM:   4    -0.230287576143E+04    0.90478E-04   -0.92873E-04  3672   0.119E-02    0.909E-02
RMM:   5    -0.230287567724E+04    0.84189E-04   -0.13771E-04  3285   0.853E-03    0.460E-02
RMM:   6    -0.230287564660E+04    0.30632E-04   -0.13295E-04  3980   0.874E-03    0.233E-02
RMM:   7    -0.230287564646E+04    0.13999E-06   -0.18523E-05  2866   0.646E-03
  45 F= -.23232087E+04 E0= -.23232087E+04  d E =-.266091E-02  mag=     4.0000
       N       E                     dE             d eps       ncg     rms          rms(c)
DAV:   1    -0.230285122019E+04    0.24426E-01   -0.21992E+00  4392   0.134E+00    0.405E-01
RMM:   2    -0.230287373537E+04   -0.22515E-01   -0.23613E-01  5765   0.238E-01    0.254E-01
RMM:   3    -0.230287568937E+04   -0.19540E-02   -0.21839E-02  5451   0.829E-02    0.288E-01
RMM:   4    -0.230287524800E+04    0.44137E-03   -0.24188E-03  5017   0.194E-02    0.135E-01
RMM:   5    -0.230287505639E+04    0.19161E-03   -0.33273E-04  3935   0.120E-02    0.735E-02
RMM:   6    -0.230287496884E+04    0.87548E-04   -0.31150E-04  4409   0.123E-02    0.351E-02
RMM:   7    -0.230287497108E+04   -0.22329E-05   -0.53911E-05  3136   0.899E-03
  46 F= -.23232084E+04 E0= -.23232084E+04  d E =-.235952E-02  mag=     4.0000
       N       E                     dE             d eps       ncg     rms          rms(c)
DAV:   1    -0.230287006718E+04    0.49017E-02   -0.55199E-01  4416   0.669E-01    0.198E-01
RMM:   2    -0.230287566509E+04   -0.55979E-02   -0.58630E-02  5864   0.121E-01    0.998E-02
RMM:   3    -0.230287607837E+04   -0.41328E-03   -0.52755E-03  4779   0.391E-02    0.711E-02
RMM:   4    -0.230287609602E+04   -0.17654E-04   -0.58126E-04  3261   0.994E-03    0.945E-02
RMM:   5    -0.230287603410E+04    0.61926E-04   -0.91672E-05  2965   0.658E-03    0.361E-02
RMM:   6    -0.230287601476E+04    0.19338E-04   -0.81612E-05  3419   0.668E-03    0.101E-02
RMM:   7    -0.230287601435E+04    0.40600E-06   -0.10780E-05  2828   0.537E-03
  47 F= -.23232093E+04 E0= -.23232093E+04  d E =-.321517E-02  mag=     4.0000
       N       E                     dE             d eps       ncg     rms          rms(c)
DAV:   1    -0.230286889504E+04    0.71197E-02   -0.72320E-01  4392   0.757E-01    0.248E-01
RMM:   2    -0.230287773096E+04   -0.88359E-02   -0.92445E-02  5790   0.140E-01    0.149E-01
RMM:   3    -0.230287853791E+04   -0.80695E-03   -0.88158E-03  5133   0.486E-02    0.168E-01
RMM:   4    -0.230287838688E+04    0.15104E-03   -0.92411E-04  3482   0.116E-02    0.769E-02
RMM:   5    -0.230287832684E+04    0.60034E-04   -0.10456E-04  3012   0.718E-03    0.418E-02
RMM:   6    -0.230287829970E+04    0.27140E-04   -0.12391E-04  3870   0.802E-03    0.221E-02
RMM:   7    -0.230287829808E+04    0.16186E-05   -0.16648E-05  2844   0.618E-03
  48 F= -.23232117E+04 E0= -.23232117E+04  d E =-.237461E-02  mag=     4.0000
       N       E                     dE             d eps       ncg     rms          rms(c)
DAV:   1    -0.230284620245E+04    0.32097E-01   -0.25224E+00  4392   0.141E+00    0.470E-01
RMM:   2    -0.230287716784E+04   -0.30965E-01   -0.32343E-01  5823   0.261E-01    0.310E-01
RMM:   3    -0.230288021844E+04   -0.30506E-02   -0.33535E-02  5484   0.960E-02    0.341E-01
RMM:   4    -0.230287960178E+04    0.61667E-03   -0.33759E-03  5174   0.219E-02    0.145E-01
RMM:   5    -0.230287940458E+04    0.19719E-03   -0.38755E-04  3798   0.119E-02    0.838E-02
RMM:   6    -0.230287930065E+04    0.10393E-03   -0.39248E-04  4530   0.128E-02    0.536E-02
RMM:   7    -0.230287928642E+04    0.14227E-04   -0.78049E-05  3147   0.982E-03    0.134E-02
RMM:   8    -0.230287928636E+04    0.61642E-07   -0.19080E-05  2854   0.403E-03
  49 F= -.23232128E+04 E0= -.23232128E+04  d E =-.353392E-02  mag=     4.0000
       N       E                     dE             d eps       ncg     rms          rms(c)
DAV:   1    -0.230287228578E+04    0.70006E-02   -0.62362E-01  4432   0.678E-01    0.227E-01
RMM:   2    -0.230288055083E+04   -0.82650E-02   -0.86028E-02  5966   0.129E-01    0.153E-01
RMM:   3    -0.230288129965E+04   -0.74882E-03   -0.78442E-03  5171   0.433E-02    0.174E-01
RMM:   4    -0.230288112198E+04    0.17767E-03   -0.87956E-04  3311   0.110E-02    0.673E-02
RMM:   5    -0.230288107421E+04    0.47770E-04   -0.78868E-05  2979   0.624E-03    0.399E-02
RMM:   6    -0.230288105297E+04    0.21239E-04   -0.11109E-04  3594   0.742E-03    0.203E-02
RMM:   7    -0.230288105164E+04    0.13343E-05   -0.13089E-05  2841   0.543E-03
  50 F= -.23232146E+04 E0= -.23232146E+04  d E =-.178896E-02  mag=     4.0000
       N       E                     dE             d eps       ncg     rms          rms(c)
DAV:   1    -0.230285907616E+04    0.21977E-01   -0.16186E+00  4392   0.110E+00    0.366E-01
RMM:   2    -0.230288055713E+04   -0.21481E-01   -0.22320E-01  5890   0.208E-01    0.260E-01
RMM:   3    -0.230288254089E+04   -0.19838E-02   -0.21278E-02  5452   0.719E-02    0.285E-01
RMM:   4    -0.230288207222E+04    0.46867E-03   -0.23169E-03  4337   0.174E-02    0.111E-01
RMM:   5    -0.230288194683E+04    0.12539E-03   -0.21549E-04  3308   0.915E-03    0.662E-02
RMM:   6    -0.230288188269E+04    0.64140E-04   -0.28101E-04  4294   0.111E-02    0.357E-02
RMM:   7    -0.230288187679E+04    0.58998E-05   -0.37671E-05  2904   0.785E-03
  51 F= -.23232155E+04 E0= -.23232155E+04  d E =-.265486E-02  mag=     4.0000
       N       E                     dE             d eps       ncg     rms          rms(c)
DAV:   1    -0.230286958500E+04    0.12298E-01   -0.10497E+00  4424   0.908E-01    0.309E-01
RMM:   2    -0.230288323127E+04   -0.13646E-01   -0.14220E-01  5909   0.172E-01    0.227E-01
RMM:   3    -0.230288454994E+04   -0.13187E-02   -0.12782E-02  5451   0.582E-02    0.279E-01
RMM:   4    -0.230288402818E+04    0.52176E-03   -0.15488E-03  4134   0.150E-02    0.852E-02
RMM:   5    -0.230288395009E+04    0.78096E-04   -0.15479E-04  3188   0.819E-03    0.493E-02
RMM:   6    -0.230288391382E+04    0.36270E-04   -0.14374E-04  3979   0.916E-03    0.190E-02
RMM:   7    -0.230288391515E+04   -0.13314E-05   -0.22120E-05  2884   0.655E-03
  52 F= -.23232177E+04 E0= -.23232177E+04  d E =-.221602E-02  mag=     4.0000
       N       E                     dE             d eps       ncg     rms          rms(c)
DAV:   1    -0.230288008730E+04    0.38265E-02   -0.28954E-01  4528   0.474E-01    0.162E-01
RMM:   2    -0.230288385992E+04   -0.37726E-02   -0.39362E-02  5957   0.907E-02    0.116E-01
RMM:   3    -0.230288422093E+04   -0.36101E-03   -0.34063E-03  4596   0.306E-02    0.147E-01
RMM:   4    -0.230288407290E+04    0.14803E-03   -0.42131E-04  3110   0.851E-03    0.438E-02
RMM:   5    -0.230288405181E+04    0.21092E-04   -0.40831E-05  2863   0.494E-03    0.258E-02
RMM:   6    -0.230288404277E+04    0.90395E-05   -0.43023E-05  3063   0.539E-03
  53 F= -.23232179E+04 E0= -.23232179E+04  d E =-.243791E-02  mag=     4.0000
       N       E                     dE             d eps       ncg     rms          rms(c)
DAV:   1    -0.230287435977E+04    0.96920E-02   -0.82647E-01  4456   0.798E-01    0.271E-01
RMM:   2    -0.230288585281E+04   -0.11493E-01   -0.11886E-01  5914   0.154E-01    0.222E-01
RMM:   3    -0.230288696288E+04   -0.11101E-02   -0.10777E-02  5426   0.531E-02    0.266E-01
RMM:   4    -0.230288646842E+04    0.49446E-03   -0.12899E-03  3830   0.137E-02    0.703E-02
RMM:   5    -0.230288641389E+04    0.54529E-04   -0.11776E-04  3137   0.702E-03    0.469E-02
RMM:   6    -0.230288638686E+04    0.27027E-04   -0.13099E-04  3832   0.870E-03    0.925E-03
RMM:   7    -0.230288638887E+04   -0.20041E-05   -0.13643E-05  2849   0.555E-03
  54 F= -.23232204E+04 E0= -.23232204E+04  d E =-.246858E-02  mag=     4.0000
       N       E                     dE             d eps       ncg     rms          rms(c)
DAV:   1    -0.230283495059E+04    0.51436E-01   -0.36297E+00  4456   0.167E+00    0.567E-01
RMM:   2    -0.230288544457E+04   -0.50494E-01   -0.52180E-01  5949   0.323E-01    0.473E-01
RMM:   3    -0.230289046735E+04   -0.50228E-02   -0.50262E-02  5670   0.111E-01    0.550E-01
RMM:   4    -0.230288841787E+04    0.20495E-02   -0.56545E-03  5466   0.282E-02    0.154E-01
RMM:   5    -0.230288817822E+04    0.23965E-03   -0.52663E-04  4055   0.130E-02    0.986E-02
RMM:   6    -0.230288803904E+04    0.13918E-03   -0.59327E-04  4704   0.162E-02    0.356E-02
RMM:   7    -0.230288803877E+04    0.26560E-06   -0.67227E-05  3084   0.923E-03
  55 F= -.23232223E+04 E0= -.23232223E+04  d E =-.438919E-02  mag=     4.0000
       N       E                     dE             d eps       ncg     rms          rms(c)
DAV:   1    -0.230286801513E+04    0.20024E-01   -0.15835E+00  4456   0.109E+00    0.379E-01
RMM:   2    -0.230288980804E+04   -0.21793E-01   -0.22450E-01  5963   0.213E-01    0.350E-01
RMM:   3    -0.230289187915E+04   -0.20711E-02   -0.21191E-02  5638   0.721E-02    0.386E-01
RMM:   4    -0.230289085930E+04    0.10198E-02   -0.25295E-03  4855   0.191E-02    0.978E-02
RMM:   5    -0.230289076249E+04    0.96816E-04   -0.22536E-04  3459   0.926E-03    0.643E-02
RMM:   6    -0.230289071884E+04    0.43643E-04   -0.23194E-04  4228   0.113E-02    0.196E-02
RMM:   7    -0.230289071928E+04   -0.43274E-06   -0.29958E-05  2888   0.700E-03
  56 F= -.23232250E+04 E0= -.23232250E+04  d E =-.270059E-02  mag=     4.0000
       N       E                     dE             d eps       ncg     rms          rms(c)
DAV:   1    -0.230287446461E+04    0.16254E-01   -0.11822E+00  4488   0.944E-01    0.327E-01
RMM:   2    -0.230289073993E+04   -0.16275E-01   -0.16767E-01  5926   0.184E-01    0.299E-01
RMM:   3    -0.230289226516E+04   -0.15252E-02   -0.15637E-02  5541   0.646E-02    0.334E-01
RMM:   4    -0.230289149393E+04    0.77123E-03   -0.18758E-03  4463   0.167E-02    0.847E-02
RMM:   5    -0.230289141984E+04    0.74089E-04   -0.17248E-04  3282   0.831E-03    0.563E-02
RMM:   6    -0.230289138267E+04    0.37168E-04   -0.18107E-04  4075   0.101E-02    0.151E-02
RMM:   7    -0.230289138264E+04    0.31694E-07   -0.22875E-05  2867   0.644E-03
  57 F= -.23232257E+04 E0= -.23232257E+04  d E =-.338830E-02  mag=     4.0000
       N       E                     dE             d eps       ncg     rms          rms(c)
DAV:   1    -0.230287103235E+04    0.20350E-01   -0.15421E+00  4392   0.105E+00    0.372E-01
RMM:   2    -0.230289310887E+04   -0.22077E-01   -0.22567E-01  5987   0.208E-01    0.401E-01
RMM:   3    -0.230289483340E+04   -0.17245E-02   -0.21660E-02  5636   0.713E-02    0.366E-01
RMM:   4    -0.230289395157E+04    0.88183E-03   -0.25579E-03  4702   0.190E-02    0.100E-01
RMM:   5    -0.230289386094E+04    0.90629E-04   -0.22036E-04  3338   0.890E-03    0.666E-02
RMM:   6    -0.230289381938E+04    0.41556E-04   -0.21228E-04  4005   0.106E-02    0.236E-02
RMM:   7    -0.230289382117E+04   -0.17808E-05   -0.37085E-05  2905   0.692E-03
  58 F= -.23232282E+04 E0= -.23232282E+04  d E =-.254434E-02  mag=     4.0000
       N       E                     dE             d eps       ncg     rms          rms(c)
DAV:   1    -0.230288227236E+04    0.11547E-01   -0.80627E-01  4396   0.760E-01    0.270E-01
RMM:   2    -0.230289382581E+04   -0.11553E-01   -0.11815E-01  5975   0.151E-01    0.290E-01
RMM:   3    -0.230289470777E+04   -0.88195E-03   -0.11042E-02  5422   0.520E-02    0.265E-01
RMM:   4    -0.230289424628E+04    0.46149E-03   -0.13336E-03  3894   0.139E-02    0.720E-02
RMM:   5    -0.230289419999E+04    0.46296E-04   -0.11214E-04  3021   0.686E-03    0.478E-02
RMM:   6    -0.230289418060E+04    0.19384E-04   -0.11471E-04  3578   0.809E-03    0.163E-02
RMM:   7    -0.230289418186E+04   -0.12539E-05   -0.19117E-05  2860   0.550E-03
  59 F= -.23232287E+04 E0= -.23232287E+04  d E =-.298674E-02  mag=     4.0000
       N       E                     dE             d eps       ncg     rms          rms(c)
DAV:   1    -0.230287340311E+04    0.20777E-01   -0.16115E+00  4424   0.107E+00    0.373E-01
RMM:   2    -0.230289585439E+04   -0.22451E-01   -0.22588E-01  5963   0.210E-01    0.443E-01
RMM:   3    -0.230289709060E+04   -0.12362E-02   -0.21018E-02  5611   0.729E-02    0.350E-01
RMM:   4    -0.230289629272E+04    0.79788E-03   -0.24925E-03  4705   0.186E-02    0.971E-02
RMM:   5    -0.230289618810E+04    0.10462E-03   -0.20538E-04  3429   0.924E-03    0.674E-02
RMM:   6    -0.230289614282E+04    0.45274E-04   -0.24551E-04  4162   0.114E-02    0.200E-02
RMM:   7    -0.230289614260E+04    0.22710E-06   -0.33642E-05  2882   0.665E-03
  60 F= -.23232307E+04 E0= -.23232307E+04  d E =-.201147E-02  mag=     4.0000
       N       E                     dE             d eps       ncg     rms          rms(c)
DAV:   1    -0.230288751844E+04    0.86244E-02   -0.60763E-01  4464   0.661E-01    0.229E-01
RMM:   2    -0.230289594575E+04   -0.84273E-02   -0.85554E-02  5956   0.129E-01    0.252E-01
RMM:   3    -0.230289651798E+04   -0.57223E-03   -0.78334E-03  5249   0.441E-02    0.221E-01
RMM:   4    -0.230289618503E+04    0.33295E-03   -0.94003E-04  3547   0.117E-02    0.610E-02
RMM:   5    -0.230289614619E+04    0.38841E-04   -0.85739E-05  2994   0.622E-03    0.418E-02
RMM:   6    -0.230289612754E+04    0.18650E-04   -0.97509E-05  3446   0.745E-03    0.114E-02
RMM:   7    -0.230289612767E+04   -0.12587E-06   -0.14023E-05  2842   0.502E-03
  61 F= -.23232307E+04 E0= -.23232307E+04  d E =-.203137E-02  mag=     4.0000
       N       E                     dE             d eps       ncg     rms          rms(c)
DAV:   1    -0.230287948480E+04    0.16643E-01   -0.12228E+00  4424   0.939E-01    0.326E-01
RMM:   2    -0.230289753806E+04   -0.18053E-01   -0.17995E-01  6034   0.182E-01    0.423E-01
RMM:   3    -0.230289833377E+04   -0.79571E-03   -0.16909E-02  5513   0.637E-02    0.288E-01
RMM:   4    -0.230289781826E+04    0.51551E-03   -0.20065E-03  4204   0.160E-02    0.847E-02
RMM:   5    -0.230289774704E+04    0.71221E-04   -0.13164E-04  3095   0.749E-03    0.618E-02
RMM:   6    -0.230289770966E+04    0.37380E-04   -0.19158E-04  3907   0.967E-03    0.174E-02
RMM:   7    -0.230289771157E+04   -0.19113E-05   -0.28410E-05  2868   0.612E-03
  62 F= -.23232324E+04 E0= -.23232324E+04  d E =-.171233E-02  mag=     4.0000
       N       E                     dE             d eps       ncg     rms          rms(c)
DAV:   1    -0.230278570942E+04    0.11200E+00   -0.75285E+00  4424   0.233E+00    0.815E-01
RMM:   2    -0.230289716588E+04   -0.11146E+00   -0.11095E+00  6049   0.452E-01    0.108E+00
RMM:   3    -0.230290229091E+04   -0.51250E-02   -0.11515E-01  5799   0.160E-01    0.693E-01
RMM:   4    -0.230289951147E+04    0.27794E-02   -0.12427E-02  5560   0.387E-02    0.216E-01
RMM:   5    -0.230289905271E+04    0.45875E-03   -0.89239E-04  4320   0.164E-02    0.152E-01
RMM:   6    -0.230289881226E+04    0.24045E-03   -0.11312E-03  4729   0.212E-02    0.605E-02
RMM:   7    -0.230289882328E+04   -0.11018E-04   -0.21556E-04  3578   0.117E-02    0.246E-02
RMM:   8    -0.230289882655E+04   -0.32650E-05   -0.32837E-05  2849   0.434E-03
  63 F= -.23232339E+04 E0= -.23232339E+04  d E =-.317014E-02  mag=     4.0000
       N       E                     dE             d eps       ncg     rms          rms(c)
DAV:   1    -0.230287871743E+04    0.20106E-01   -0.15460E+00  4456   0.108E+00    0.398E-01
RMM:   2    -0.230290186525E+04   -0.23148E-01   -0.22951E-01  5976   0.214E-01    0.524E-01
RMM:   3    -0.230290246121E+04   -0.59596E-03   -0.20609E-02  5649   0.741E-02    0.342E-01
RMM:   4    -0.230290176451E+04    0.69670E-03   -0.26036E-03  4934   0.190E-02    0.977E-02
RMM:   5    -0.230290164783E+04    0.11668E-03   -0.19824E-04  3647   0.986E-03    0.684E-02
RMM:   6    -0.230290159745E+04    0.50379E-04   -0.23962E-04  4205   0.117E-02    0.205E-02
RMM:   7    -0.230290160264E+04   -0.51858E-05   -0.37693E-05  2889   0.748E-03
  64 F= -.23232368E+04 E0= -.23232368E+04  d E =-.286926E-02  mag=     4.0000
       N       E                     dE             d eps       ncg     rms          rms(c)
DAV:   1    -0.230289370155E+04    0.78959E-02   -0.54335E-01  4560   0.637E-01    0.232E-01
RMM:   2    -0.230290166572E+04   -0.79642E-02   -0.80125E-02  5954   0.127E-01    0.277E-01
RMM:   3    -0.230290202966E+04   -0.36394E-03   -0.69527E-03  5319   0.432E-02    0.214E-01
RMM:   4    -0.230290174458E+04    0.28508E-03   -0.90536E-04  3685   0.115E-02    0.587E-02
RMM:   5    -0.230290170276E+04    0.41815E-04   -0.71015E-05  2965   0.640E-03    0.394E-02
RMM:   6    -0.230290168506E+04    0.17707E-04   -0.90707E-05  3605   0.758E-03    0.138E-02
RMM:   7    -0.230290168623E+04   -0.11699E-05   -0.15468E-05  2846   0.543E-03
  65 F= -.23232369E+04 E0= -.23232369E+04  d E =-.300999E-02  mag=     4.0000
       N       E                     dE             d eps       ncg     rms          rms(c)
DAV:   1    -0.230287653450E+04    0.25151E-01   -0.17087E+00  4392   0.108E+00    0.402E-01
RMM:   2    -0.230290320045E+04   -0.26666E-01   -0.26526E-01  6033   0.217E-01    0.525E-01
RMM:   3    -0.230290418061E+04   -0.98016E-03   -0.25031E-02  5638   0.775E-02    0.351E-01
RMM:   4    -0.230290346608E+04    0.71453E-03   -0.27937E-03  4740   0.194E-02    0.107E-01
RMM:   5    -0.230290332945E+04    0.13663E-03   -0.23371E-04  3424   0.933E-03    0.733E-02
RMM:   6    -0.230290325834E+04    0.71110E-04   -0.33640E-04  4366   0.123E-02    0.273E-02
RMM:   7    -0.230290325621E+04    0.21305E-05   -0.42533E-05  2897   0.727E-03
  66 F= -.23232384E+04 E0= -.23232384E+04  d E =-.155759E-02  mag=     4.0000
       N       E                     dE             d eps       ncg     rms          rms(c)
DAV:   1    -0.230290319583E+04    0.62509E-04   -0.33506E-03  5088   0.481E-02    0.181E-02
RMM:   2    -0.230290324550E+04   -0.49668E-04   -0.53724E-04  3997   0.107E-02    0.101E-02
RMM:   3    -0.230290325053E+04   -0.50317E-05   -0.61300E-05  2808   0.526E-03
  67 F= -.23232384E+04 E0= -.23232384E+04  d E =-.155148E-02  mag=     4.0000
       N       E                     dE             d eps       ncg     rms          rms(c)
DAV:   1    -0.230289339873E+04    0.98468E-02   -0.82090E-01  4396   0.806E-01    0.303E-01
RMM:   2    -0.230290534486E+04   -0.11946E-01   -0.11981E-01  5860   0.157E-01    0.340E-01
RMM:   3    -0.230290600807E+04   -0.66321E-03   -0.11414E-02  5432   0.576E-02    0.282E-01
RMM:   4    -0.230290549934E+04    0.50873E-03   -0.14037E-03  4668   0.149E-02    0.740E-02
RMM:   5    -0.230290542572E+04    0.73617E-04   -0.13755E-04  3277   0.847E-03    0.463E-02
RMM:   6    -0.230290539534E+04    0.30380E-04   -0.15385E-04  4082   0.966E-03    0.184E-02
RMM:   7    -0.230290539482E+04    0.51694E-06   -0.21454E-05  2852   0.667E-03
  68 F= -.23232407E+04 E0= -.23232407E+04  d E =-.223480E-02  mag=     4.0000
       N       E                     dE             d eps       ncg     rms          rms(c)
DAV:   1    -0.230290050563E+04    0.48897E-02   -0.35296E-01  4432   0.529E-01    0.199E-01
RMM:   2    -0.230290559763E+04   -0.50920E-02   -0.51534E-02  5854   0.103E-01    0.209E-01
RMM:   3    -0.230290594313E+04   -0.34550E-03   -0.48838E-03  5062   0.413E-02    0.191E-01
RMM:   4    -0.230290570862E+04    0.23451E-03   -0.60565E-04  3441   0.102E-02    0.481E-02
RMM:   5    -0.230290567684E+04    0.31781E-04   -0.59749E-05  2884   0.604E-03    0.296E-02
RMM:   6    -0.230290566255E+04    0.14287E-04   -0.69339E-05  3458   0.676E-03    0.132E-02
RMM:   7    -0.230290566202E+04    0.53112E-06   -0.11356E-05  2831   0.526E-03
  69 F= -.23232410E+04 E0= -.23232410E+04  d E =-.256156E-02  mag=     4.0000
       N       E                     dE             d eps       ncg     rms          rms(c)
DAV:   1    -0.230289922077E+04    0.64418E-02   -0.50282E-01  4396   0.617E-01    0.227E-01
RMM:   2    -0.230290654630E+04   -0.73255E-02   -0.74667E-02  5874   0.120E-01    0.240E-01
RMM:   3    -0.230290707987E+04   -0.53357E-03   -0.74680E-03  5205   0.460E-02    0.211E-01
RMM:   4    -0.230290679597E+04    0.28390E-03   -0.87140E-04  3636   0.114E-02    0.600E-02
RMM:   5    -0.230290674680E+04    0.49174E-04   -0.82736E-05  2946   0.645E-03    0.367E-02
RMM:   6    -0.230290672615E+04    0.20646E-04   -0.95039E-05  3596   0.733E-03    0.214E-02
RMM:   7    -0.230290672472E+04    0.14282E-05   -0.19810E-05  2845   0.577E-03
  70 F= -.23232421E+04 E0= -.23232421E+04  d E =-.112728E-02  mag=     4.0000
       N       E                     dE             d eps       ncg     rms          rms(c)
DAV:   1    -0.230290574759E+04    0.97856E-03   -0.63516E-02  4664   0.219E-01    0.810E-02
RMM:   2    -0.230290667492E+04   -0.92732E-03   -0.95173E-03  5885   0.434E-02    0.828E-02
RMM:   3    -0.230290674733E+04   -0.72409E-04   -0.93729E-04  3232   0.172E-02    0.769E-02
RMM:   4    -0.230290670997E+04    0.37359E-04   -0.11272E-04  2917   0.524E-03    0.211E-02
RMM:   5    -0.230290670415E+04    0.58151E-05   -0.11955E-05  2817   0.284E-03
  71 F= -.23232421E+04 E0= -.23232421E+04  d E =-.112989E-02  mag=     4.0000
       N       E                     dE             d eps       ncg     rms          rms(c)
DAV:   1    -0.230290327084E+04    0.34391E-02   -0.28838E-01  4396   0.474E-01    0.168E-01
RMM:   2    -0.230290734927E+04   -0.40784E-02   -0.41908E-02  5879   0.907E-02    0.141E-01
RMM:   3    -0.230290772699E+04   -0.37773E-03   -0.39542E-03  4615   0.334E-02    0.158E-01
RMM:   4    -0.230290755622E+04    0.17077E-03   -0.46465E-04  3136   0.886E-03    0.448E-02
RMM:   5    -0.230290752847E+04    0.27752E-04   -0.45040E-05  2894   0.521E-03    0.268E-02
RMM:   6    -0.230290751702E+04    0.11446E-04   -0.58408E-05  3177   0.598E-03    0.104E-02
RMM:   7    -0.230290751657E+04    0.45932E-06   -0.71864E-06  2830   0.455E-03
  72 F= -.23232429E+04 E0= -.23232429E+04  d E =-.808893E-03  mag=     4.0000
       N       E                     dE             d eps       ncg     rms          rms(c)
DAV:   1    -0.230290570433E+04    0.18127E-02   -0.13246E-01  4432   0.321E-01    0.116E-01
RMM:   2    -0.230290760833E+04   -0.19040E-02   -0.19387E-02  5895   0.617E-02    0.111E-01
RMM:   3    -0.230290776187E+04   -0.15354E-03   -0.18155E-03  3991   0.239E-02    0.112E-01
RMM:   4    -0.230290768044E+04    0.81431E-04   -0.21984E-04  2972   0.667E-03    0.293E-02
RMM:   5    -0.230290766768E+04    0.12753E-04   -0.21056E-05  2842   0.379E-03    0.181E-02
RMM:   6    -0.230290766201E+04    0.56684E-05   -0.26630E-05  2923   0.416E-03
  73 F= -.23232431E+04 E0= -.23232431E+04  d E =-.952388E-03  mag=     4.0000
       N       E                     dE             d eps       ncg     rms          rms(c)
DAV:   1    -0.230290711715E+04    0.55053E-03   -0.93662E-02  4464   0.292E-01    0.107E-01
RMM:   2    -0.230290832760E+04   -0.12104E-02   -0.12569E-02  5916   0.567E-02    0.829E-02
RMM:   3    -0.230290844903E+04   -0.12143E-03   -0.11451E-03  3998   0.223E-02    0.106E-01
RMM:   4    -0.230290836375E+04    0.85284E-04   -0.14169E-04  2942   0.628E-03    0.255E-02
RMM:   5    -0.230290835285E+04    0.10900E-04   -0.29095E-05  2870   0.425E-03    0.146E-02
RMM:   6    -0.230290834932E+04    0.35310E-05   -0.16519E-05  2861   0.431E-03
  74 F= -.23232438E+04 E0= -.23232438E+04  d E =-.738060E-03  mag=     4.0000
       N       E                     dE             d eps       ncg     rms          rms(c)
DAV:   1    -0.230290637068E+04    0.19822E-02   -0.16633E-01  4416   0.389E-01    0.143E-01
RMM:   2    -0.230290853711E+04   -0.21664E-02   -0.22417E-02  5938   0.757E-02    0.115E-01
RMM:   3    -0.230290874564E+04   -0.20853E-03   -0.20259E-03  4653   0.302E-02    0.142E-01
RMM:   4    -0.230290859698E+04    0.14866E-03   -0.25957E-04  3070   0.798E-03    0.342E-02
RMM:   5    -0.230290857554E+04    0.21440E-04   -0.48304E-05  2920   0.559E-03    0.198E-02
RMM:   6    -0.230290856757E+04    0.79652E-05   -0.32936E-05  2997   0.581E-03
  75 F= -.23232441E+04 E0= -.23232441E+04  d E =-.102458E-02  mag=     4.0000
       N       E                     dE             d eps       ncg     rms          rms(c)
DAV:   1    -0.230290755401E+04    0.10215E-02   -0.97237E-02  4480   0.285E-01    0.102E-01
RMM:   2    -0.230290899069E+04   -0.14367E-02   -0.14755E-02  6178   0.578E-02    0.964E-02
RMM:   3    -0.230290911063E+04   -0.11994E-03   -0.13633E-03  3744   0.193E-02    0.971E-02
RMM:   4    -0.230290904689E+04    0.63740E-04   -0.16806E-04  2949   0.617E-03    0.266E-02
RMM:   5    -0.230290903651E+04    0.10383E-04   -0.19639E-05  2850   0.365E-03    0.158E-02
RMM:   6    -0.230290903311E+04    0.33978E-05   -0.16917E-05  2862   0.367E-03
  76 F= -.23232447E+04 E0= -.23232447E+04  d E =-.554799E-03  mag=     4.0000
       N       E                     dE             d eps       ncg     rms          rms(c)
DAV:   1    -0.230290776091E+04    0.12756E-02   -0.88397E-02  4432   0.271E-01    0.972E-02
RMM:   2    -0.230290907086E+04   -0.13100E-02   -0.13423E-02  6064   0.542E-02    0.954E-02
RMM:   3    -0.230290917664E+04   -0.10578E-03   -0.12435E-03  3676   0.192E-02    0.936E-02
RMM:   4    -0.230290911723E+04    0.59408E-04   -0.15278E-04  2945   0.593E-03    0.252E-02
RMM:   5    -0.230290910799E+04    0.92432E-05   -0.17800E-05  2851   0.348E-03
  77 F= -.23232448E+04 E0= -.23232448E+04  d E =-.715375E-03  mag=     4.0000
       N       E                     dE             d eps       ncg     rms          rms(c)
DAV:   1    -0.230290797853E+04    0.11387E-02   -0.12735E-01  4400   0.340E-01    0.122E-01
RMM:   2    -0.230290974960E+04   -0.17711E-02   -0.18343E-02  5925   0.659E-02    0.924E-02
RMM:   3    -0.230290993384E+04   -0.18424E-03   -0.17109E-03  4056   0.262E-02    0.118E-01
RMM:   4    -0.230290983174E+04    0.10210E-03   -0.20447E-04  2990   0.718E-03    0.298E-02
RMM:   5    -0.230290981874E+04    0.13000E-04   -0.35427E-05  2865   0.454E-03    0.175E-02
RMM:   6    -0.230290981473E+04    0.40073E-05   -0.20980E-05  2874   0.462E-03
  78 F= -.23232456E+04 E0= -.23232456E+04  d E =-.727999E-03  mag=     4.0000
       N       E                     dE             d eps       ncg     rms          rms(c)
DAV:   1    -0.230290452449E+04    0.52943E-02   -0.38666E-01  4396   0.593E-01    0.215E-01
RMM:   2    -0.230290999161E+04   -0.54671E-02   -0.56003E-02  5794   0.114E-01    0.191E-01
RMM:   3    -0.230291049736E+04   -0.50575E-03   -0.52639E-03  5241   0.451E-02    0.213E-01
RMM:   4    -0.230291017378E+04    0.32358E-03   -0.63532E-04  3660   0.109E-02    0.508E-02
RMM:   5    -0.230291013179E+04    0.41994E-04   -0.96967E-05  3158   0.704E-03    0.302E-02
RMM:   6    -0.230291011620E+04    0.15589E-04   -0.71968E-05  3608   0.747E-03    0.902E-03
RMM:   7    -0.230291011566E+04    0.53970E-06   -0.93077E-06  2833   0.507E-03
  79 F= -.23232459E+04 E0= -.23232459E+04  d E =-.106752E-02  mag=     4.0000
       N       E                     dE             d eps       ncg     rms          rms(c)
DAV:   1    -0.230290747130E+04    0.26449E-02   -0.20386E-01  4428   0.410E-01    0.142E-01
RMM:   2    -0.230291050315E+04   -0.30318E-02   -0.30646E-02  5916   0.786E-02    0.148E-01
RMM:   3    -0.230291073939E+04   -0.23624E-03   -0.28579E-03  4329   0.302E-02    0.138E-01
RMM:   4    -0.230291061148E+04    0.12791E-03   -0.33652E-04  3056   0.767E-03    0.359E-02
RMM:   5    -0.230291059241E+04    0.19067E-04   -0.31354E-05  2861   0.443E-03    0.233E-02
RMM:   6    -0.230291058460E+04    0.78135E-05   -0.38972E-05  2999   0.491E-03
  80 F= -.23232464E+04 E0= -.23232464E+04  d E =-.495353E-03  mag=     4.0000
       N       E                     dE             d eps       ncg     rms          rms(c)
DAV:   1    -0.230290794810E+04    0.26443E-02   -0.17719E-01  4412   0.382E-01    0.133E-01
RMM:   2    -0.230291059890E+04   -0.26508E-02   -0.26760E-02  5938   0.737E-02    0.141E-01
RMM:   3    -0.230291078935E+04   -0.19045E-03   -0.24043E-03  4404   0.269E-02    0.130E-01
RMM:   4    -0.230291067413E+04    0.11522E-03   -0.29081E-04  3028   0.717E-03    0.332E-02
RMM:   5    -0.230291065782E+04    0.16310E-04   -0.27843E-05  2871   0.413E-03    0.218E-02
RMM:   6    -0.230291065109E+04    0.67329E-05   -0.32630E-05  2935   0.464E-03
  81 F= -.23232465E+04 E0= -.23232465E+04  d E =-.587547E-03  mag=     4.0000
       N       E                     dE             d eps       ncg     rms          rms(c)
DAV:   1    -0.230290924437E+04    0.14134E-02   -0.12064E-01  4432   0.321E-01    0.116E-01
RMM:   2    -0.230291113002E+04   -0.18856E-02   -0.18959E-02  6083   0.633E-02    0.134E-01
RMM:   3    -0.230291124335E+04   -0.11333E-03   -0.17983E-03  4075   0.226E-02    0.108E-01
RMM:   4    -0.230291116332E+04    0.80036E-04   -0.21604E-04  2982   0.674E-03    0.284E-02
RMM:   5    -0.230291115255E+04    0.10768E-04   -0.20611E-05  2839   0.382E-03    0.181E-02
RMM:   6    -0.230291114857E+04    0.39750E-05   -0.21878E-05  2870   0.401E-03
  82 F= -.23232470E+04 E0= -.23232470E+04  d E =-.558799E-03  mag=     4.0000
       N       E                     dE             d eps       ncg     rms          rms(c)
DAV:   1    -0.230290657525E+04    0.45773E-02   -0.30408E-01  4396   0.508E-01    0.184E-01
RMM:   2    -0.230291129906E+04   -0.47238E-02   -0.47558E-02  5943   0.990E-02    0.209E-01
RMM:   3    -0.230291159789E+04   -0.29884E-03   -0.45886E-03  5069   0.366E-02    0.170E-01
RMM:   4    -0.230291140014E+04    0.19775E-03   -0.54331E-04  3280   0.935E-03    0.451E-02
RMM:   5    -0.230291137202E+04    0.28125E-04   -0.48014E-05  2871   0.540E-03    0.287E-02
RMM:   6    -0.230291136100E+04    0.11019E-04   -0.56127E-05  3150   0.601E-03    0.119E-02
RMM:   7    -0.230291136099E+04    0.14115E-07   -0.98908E-06  2838   0.468E-03
  83 F= -.23232474E+04 E0= -.23232474E+04  d E =-.869630E-03  mag=     4.0000
       N       E                     dE             d eps       ncg     rms          rms(c)
DAV:   1    -0.230291029891E+04    0.10621E-02   -0.93747E-02  4464   0.284E-01    0.103E-01
RMM:   2    -0.230291183436E+04   -0.15355E-02   -0.15224E-02  5897   0.554E-02    0.128E-01
RMM:   3    -0.230291190284E+04   -0.68481E-04   -0.14607E-03  3764   0.221E-02    0.910E-02
RMM:   4    -0.230291185261E+04    0.50237E-04   -0.17467E-04  2920   0.607E-03    0.243E-02
RMM:   5    -0.230291184451E+04    0.80942E-05   -0.14496E-05  2834   0.331E-03
  84 F= -.23232478E+04 E0= -.23232478E+04  d E =-.491448E-03  mag=     4.0000
       N       E                     dE             d eps       ncg     rms          rms(c)
DAV:   1    -0.230289954373E+04    0.12309E-01   -0.78219E-01  4396   0.820E-01    0.297E-01
RMM:   2    -0.230291227669E+04   -0.12733E-01   -0.12648E-01  5877   0.159E-01    0.362E-01
RMM:   3    -0.230291291756E+04   -0.64087E-03   -0.12634E-02  5439   0.620E-02    0.259E-01
RMM:   4    -0.230291246945E+04    0.44811E-03   -0.14279E-03  4438   0.144E-02    0.715E-02
RMM:   5    -0.230291239906E+04    0.70393E-04   -0.11036E-04  3087   0.783E-03    0.475E-02
RMM:   6    -0.230291236862E+04    0.30441E-04   -0.15013E-04  4010   0.943E-03    0.176E-02
RMM:   7    -0.230291236822E+04    0.39916E-06   -0.21738E-05  2855   0.654E-03
  85 F= -.23232484E+04 E0= -.23232484E+04  d E =-.103980E-02  mag=     4.0000
       N       E                     dE             d eps       ncg     rms          rms(c)
DAV:   1    -0.230291018997E+04    0.21786E-02   -0.15624E-01  4428   0.360E-01    0.133E-01
RMM:   2    -0.230291293802E+04   -0.27480E-02   -0.27034E-02  5891   0.719E-02    0.177E-01
RMM:   3    -0.230291301501E+04   -0.76994E-04   -0.25654E-03  4176   0.285E-02    0.111E-01
RMM:   4    -0.230291294075E+04    0.74258E-04   -0.28265E-04  2999   0.716E-03    0.316E-02
RMM:   5    -0.230291292748E+04    0.13269E-04   -0.23532E-05  2849   0.392E-03    0.225E-02
RMM:   6    -0.230291292077E+04    0.67155E-05   -0.33986E-05  2944   0.452E-03
  86 F= -.23232489E+04 E0= -.23232489E+04  d E =-.537527E-03  mag=     4.0000
       N       E                     dE             d eps       ncg     rms          rms(c)
DAV:   1    -0.230290169845E+04    0.11229E-01   -0.66595E-01  4396   0.744E-01    0.277E-01
RMM:   2    -0.230291350522E+04   -0.11807E-01   -0.11505E-01  5797   0.147E-01    0.390E-01
RMM:   3    -0.230291367076E+04   -0.16554E-03   -0.11062E-02  5260   0.570E-02    0.221E-01
RMM:   4    -0.230291338399E+04    0.28677E-03   -0.11995E-03  3939   0.129E-02    0.653E-02
RMM:   5    -0.230291332649E+04    0.57501E-04   -0.85674E-05  2988   0.678E-03    0.465E-02
RMM:   6    -0.230291329715E+04    0.29343E-04   -0.14073E-04  3929   0.871E-03    0.159E-02
RMM:   7    -0.230291329675E+04    0.39893E-06   -0.18766E-05  2845   0.588E-03
  87 F= -.23232493E+04 E0= -.23232493E+04  d E =-.884058E-03  mag=     4.0000
       N       E                     dE             d eps       ncg     rms          rms(c)
DAV:   1    -0.230291078987E+04    0.25073E-02   -0.16289E-01  4448   0.362E-01    0.137E-01
RMM:   2    -0.230291379135E+04   -0.30015E-02   -0.29387E-02  5998   0.737E-02    0.193E-01
RMM:   3    -0.230291383449E+04   -0.43141E-04   -0.26931E-03  4244   0.262E-02    0.108E-01
RMM:   4    -0.230291376862E+04    0.65877E-04   -0.30709E-04  2983   0.710E-03    0.326E-02
RMM:   5    -0.230291375525E+04    0.13371E-04   -0.21099E-05  2840   0.377E-03    0.235E-02
RMM:   6    -0.230291374841E+04    0.68420E-05   -0.30885E-05  2881   0.430E-03
  88 F= -.23232498E+04 E0= -.23232498E+04  d E =-.478249E-03  mag=     4.0000
       N       E                     dE             d eps       ncg     rms          rms(c)
DAV:   1    -0.230290664519E+04    0.71101E-02   -0.40070E-01  4396   0.567E-01    0.218E-01
RMM:   2    -0.230291410274E+04   -0.74576E-02   -0.72221E-02  5872   0.114E-01    0.326E-01
RMM:   3    -0.230291407813E+04    0.24614E-04   -0.66088E-03  5143   0.412E-02    0.164E-01
RMM:   4    -0.230291392909E+04    0.14904E-03   -0.74890E-04  3333   0.976E-03    0.503E-02
RMM:   5    -0.230291389694E+04    0.32149E-04   -0.47821E-05  2879   0.525E-03    0.374E-02
RMM:   6    -0.230291388024E+04    0.16702E-04   -0.75259E-05  3240   0.642E-03    0.121E-02
RMM:   7    -0.230291388071E+04   -0.47166E-06   -0.12724E-05  2842   0.469E-03
  89 F= -.23232499E+04 E0= -.23232499E+04  d E =-.653099E-03  mag=     4.0000
       N       E                     dE             d eps       ncg     rms          rms(c)
DAV:   1    -0.230291068947E+04    0.31908E-02   -0.19126E-01  4428   0.386E-01    0.152E-01
RMM:   2    -0.230291442710E+04   -0.37376E-02   -0.36297E-02  6014   0.800E-02    0.223E-01
RMM:   3    -0.230291444895E+04   -0.21849E-04   -0.33804E-03  4372   0.299E-02    0.116E-01
RMM:   4    -0.230291437524E+04    0.73707E-04   -0.37376E-04  3015   0.759E-03    0.354E-02
RMM:   5    -0.230291435966E+04    0.15584E-04   -0.24638E-05  2850   0.407E-03    0.269E-02
RMM:   6    -0.230291435094E+04    0.87141E-05   -0.41487E-05  2947   0.484E-03
  90 F= -.23232504E+04 E0= -.23232504E+04  d E =-.482335E-03  mag=     4.0000
       N       E                     dE             d eps       ncg     rms          rms(c)
DAV:   1    -0.230290049100E+04    0.13869E-01   -0.73806E-01  4396   0.759E-01    0.302E-01
RMM:   2    -0.230291503860E+04   -0.14548E-01   -0.13997E-01  5889   0.157E-01    0.465E-01
RMM:   3    -0.230291492187E+04    0.11673E-03   -0.13253E-02  5352   0.591E-02    0.218E-01
RMM:   4    -0.230291467264E+04    0.24923E-03   -0.14463E-03  4022   0.134E-02    0.692E-02
RMM:   5    -0.230291461199E+04    0.60654E-04   -0.88823E-05  2991   0.690E-03    0.533E-02
RMM:   6    -0.230291457686E+04    0.35125E-04   -0.15999E-04  3918   0.904E-03    0.154E-02
RMM:   7    -0.230291457660E+04    0.26400E-06   -0.21928E-05  2851   0.597E-03
  91 F= -.23232507E+04 E0= -.23232507E+04  d E =-.734047E-03  mag=     4.0000
       N       E                     dE             d eps       ncg     rms          rms(c)
DAV:   1    -0.230290962972E+04    0.49471E-02   -0.30474E-01  4412   0.494E-01    0.193E-01
RMM:   2    -0.230291530133E+04   -0.56716E-02   -0.55257E-02  5955   0.101E-01    0.272E-01
RMM:   3    -0.230291536051E+04   -0.59180E-04   -0.52236E-03  4955   0.384E-02    0.150E-01
RMM:   4    -0.230291523326E+04    0.12725E-03   -0.62217E-04  3219   0.924E-03    0.440E-02
RMM:   5    -0.230291520694E+04    0.26325E-04   -0.40587E-05  2889   0.514E-03    0.347E-02
RMM:   6    -0.230291519341E+04    0.13526E-04   -0.74308E-05  3174   0.638E-03    0.744E-03
RMM:   7    -0.230291519351E+04   -0.95984E-07   -0.95222E-06  2824   0.455E-03
  92 F= -.23232513E+04 E0= -.23232513E+04  d E =-.608942E-03  mag=     4.0000
       N       E                     dE             d eps       ncg     rms          rms(c)
DAV:   1    -0.230291277969E+04    0.24137E-02   -0.13772E-01  4512   0.332E-01    0.130E-01
RMM:   2    -0.230291534460E+04   -0.25649E-02   -0.24966E-02  5971   0.681E-02    0.183E-01
RMM:   3    -0.230291537093E+04   -0.26329E-04   -0.23460E-03  4137   0.265E-02    0.101E-01
RMM:   4    -0.230291531282E+04    0.58104E-04   -0.28070E-04  2972   0.689E-03    0.298E-02
RMM:   5    -0.230291530073E+04    0.12093E-04   -0.19796E-05  2854   0.378E-03    0.233E-02
RMM:   6    -0.230291529421E+04    0.65150E-05   -0.33243E-05  2909   0.441E-03
  93 F= -.23232514E+04 E0= -.23232514E+04  d E =-.704989E-03  mag=     4.0000
       N       E                     dE             d eps       ncg     rms          rms(c)
DAV:   1    -0.230290996075E+04    0.53400E-02   -0.32145E-01  4396   0.508E-01    0.203E-01
RMM:   2    -0.230291598974E+04   -0.60290E-02   -0.58578E-02  5926   0.104E-01    0.300E-01
RMM:   3    -0.230291599106E+04   -0.13230E-05   -0.57075E-03  5145   0.382E-02    0.151E-01
RMM:   4    -0.230291584887E+04    0.14219E-03   -0.68092E-04  3402   0.969E-03    0.472E-02
RMM:   5    -0.230291581941E+04    0.29464E-04   -0.44339E-05  2873   0.533E-03    0.355E-02
RMM:   6    -0.230291580521E+04    0.14197E-04   -0.73972E-05  3251   0.655E-03    0.967E-03
RMM:   7    -0.230291580521E+04    0.37835E-09   -0.11394E-05  2837   0.477E-03
  94 F= -.23232519E+04 E0= -.23232519E+04  d E =-.568149E-03  mag=     4.0000
       N       E                     dE             d eps       ncg     rms          rms(c)
DAV:   1    -0.230291519405E+04    0.61116E-03   -0.31754E-02  4736   0.159E-01    0.631E-02
RMM:   2    -0.230291578636E+04   -0.59230E-03   -0.58557E-03  5901   0.334E-02    0.844E-02
RMM:   3    -0.230291580249E+04   -0.16138E-04   -0.57319E-04  3008   0.128E-02    0.507E-02
RMM:   4    -0.230291578675E+04    0.15739E-04   -0.69186E-05  2880   0.411E-03    0.153E-02
RMM:   5    -0.230291578393E+04    0.28290E-05   -0.53959E-06  2752   0.206E-03
  95 F= -.23232519E+04 E0= -.23232519E+04  d E =-.565155E-03  mag=     4.0000
       N       E                     dE             d eps       ncg     rms          rms(c)
DAV:   1    -0.230291112747E+04    0.46593E-02   -0.28030E-01  4396   0.467E-01    0.186E-01
RMM:   2    -0.230291632368E+04   -0.51962E-02   -0.50893E-02  5972   0.962E-02    0.258E-01
RMM:   3    -0.230291642098E+04   -0.97291E-04   -0.48487E-03  4827   0.337E-02    0.148E-01
RMM:   4    -0.230291627414E+04    0.14684E-03   -0.56860E-04  3224   0.908E-03    0.434E-02
RMM:   5    -0.230291625133E+04    0.22808E-04   -0.40059E-05  2869   0.504E-03    0.328E-02
RMM:   6    -0.230291623992E+04    0.11408E-04   -0.58783E-05  3091   0.600E-03    0.750E-03
RMM:   7    -0.230291624009E+04   -0.17043E-06   -0.89568E-06  2825   0.442E-03
[...]
RMM:   4    -0.230291855637E+04    0.82139E-05   -0.29975E-05  2836   0.302E-03
 142 F= -.23232563E+04 E0= -.23232563E+04  d E =-.441752E-04  mag=     4.0000
       N       E                     dE             d eps       ncg     rms          rms(c)
DAV:   1    -0.230291853466E+04    0.29923E-04   -0.81163E-04  4848   0.262E-02    0.103E-02
RMM:   2    -0.230291854877E+04   -0.14113E-04   -0.14943E-04  3060   0.594E-03    0.906E-03
RMM:   3    -0.230291855002E+04   -0.12506E-05   -0.17296E-05  2496   0.358E-03
 143 F= -.23232563E+04 E0= -.23232563E+04  d E =-.437767E-04  mag=     4.0000
       N       E                     dE             d eps       ncg     rms          rms(c)
DAV:   1    -0.230291830012E+04    0.24865E-03   -0.13309E-02  4400   0.104E-01    0.428E-02
RMM:   2    -0.230291856583E+04   -0.26571E-03   -0.26107E-03  5750   0.228E-02    0.535E-02
RMM:   3    -0.230291857543E+04   -0.96022E-05   -0.25709E-04  2872   0.931E-03    0.345E-02
RMM:   4    -0.230291856780E+04    0.76280E-05   -0.30929E-05  2827   0.299E-03
 144 F= -.23232564E+04 E0= -.23232564E+04  d E =-.476812E-04  mag=     4.0000
       N       E                     dE             d eps       ncg     rms          rms(c)
DAV:   1    -0.230291855244E+04    0.22987E-04   -0.47934E-04  4768   0.198E-02    0.858E-03
RMM:   2    -0.230291856085E+04   -0.84088E-05   -0.90494E-05  2871   0.466E-03
 145 F= -.23232564E+04 E0= -.23232564E+04  d E =-.465836E-04  mag=     4.0000
       N       E                     dE             d eps       ncg     rms          rms(c)
DAV:   1    -0.230291840941E+04    0.14303E-03   -0.97348E-03  4400   0.923E-02    0.387E-02
RMM:   2    -0.230291859791E+04   -0.18850E-03   -0.18038E-03  5561   0.211E-02    0.556E-02
RMM:   3    -0.230291859626E+04    0.16494E-05   -0.18145E-04  2849   0.903E-03    0.296E-02
RMM:   4    -0.230291859020E+04    0.60586E-05   -0.20751E-05  2830   0.290E-03
 146 F= -.23232564E+04 E0= -.23232564E+04  d E =-.414068E-04  mag=     4.0000
       N       E                     dE             d eps       ncg     rms          rms(c)
DAV:   1    -0.230291857656E+04    0.19705E-04   -0.56529E-04  4808   0.222E-02    0.898E-03
RMM:   2    -0.230291858609E+04   -0.95354E-05   -0.10034E-04  2939   0.522E-03    0.908E-03
RMM:   3    -0.230291858679E+04   -0.69782E-06   -0.11232E-05  2411   0.334E-03
 147 F= -.23232564E+04 E0= -.23232564E+04  d E =-.409959E-04  mag=     4.0000
       N       E                     dE             d eps       ncg     rms          rms(c)
DAV:   1    -0.230291843189E+04    0.15421E-03   -0.85021E-03  4400   0.842E-02    0.350E-02
RMM:   2    -0.230291859766E+04   -0.16577E-03   -0.16180E-03  5461   0.180E-02    0.456E-02
RMM:   3    -0.230291860149E+04   -0.38338E-05   -0.15095E-04  2846   0.751E-03    0.290E-02
RMM:   4    -0.230291859545E+04    0.60360E-05   -0.18764E-05  2801   0.249E-03
 148 F= -.23232564E+04 E0= -.23232564E+04  d E =-.333773E-04  mag=     4.0000
       N       E                     dE             d eps       ncg     rms          rms(c)
DAV:   1    -0.230291857644E+04    0.25047E-04   -0.63196E-04  4672   0.230E-02    0.887E-03
RMM:   2    -0.230291858765E+04   -0.11211E-04   -0.11810E-04  2956   0.521E-03    0.632E-03
RMM:   3    -0.230291858852E+04   -0.86208E-06   -0.12785E-05  2420   0.324E-03
 149 F= -.23232564E+04 E0= -.23232564E+04  d E =-.333600E-04  mag=     4.0000
       N       E                     dE             d eps       ncg     rms          rms(c)
DAV:   1    -0.230291846903E+04    0.11863E-03   -0.66683E-03  4400   0.739E-02    0.293E-02
RMM:   2    -0.230291859606E+04   -0.12704E-03   -0.12901E-03  5170   0.159E-02    0.262E-02
RMM:   3    -0.230291860683E+04   -0.10763E-04   -0.12329E-04  2817   0.706E-03    0.255E-02
RMM:   4    -0.230291860286E+04    0.39707E-05   -0.15798E-05  2707   0.222E-03
 150 F= -.23232565E+04 E0= -.23232565E+04  d E =-.334440E-04  mag=     4.0000
       N       E                     dE             d eps       ncg     rms          rms(c)
DAV:   1    -0.230291855774E+04    0.49088E-04   -0.19777E-03  4416   0.402E-02    0.160E-02
RMM:   2    -0.230291859603E+04   -0.38295E-04   -0.37753E-04  3541   0.877E-03    0.211E-02
RMM:   3    -0.230291859709E+04   -0.10518E-05   -0.37058E-05  2735   0.448E-03
 151 F= -.23232565E+04 E0= -.23232565E+04  d E =-.381832E-04  mag=     4.0000
       N       E                     dE             d eps       ncg     rms          rms(c)
DAV:   1    -0.230291846612E+04    0.12991E-03   -0.79466E-03  4400   0.806E-02    0.330E-02
RMM:   2    -0.230291862195E+04   -0.15582E-03   -0.15280E-03  5409   0.178E-02    0.407E-02
RMM:   3    -0.230291862766E+04   -0.57170E-05   -0.15031E-04  2840   0.765E-03    0.266E-02
RMM:   4    -0.230291862318E+04    0.44875E-05   -0.17684E-05  2802   0.246E-03
 152 F= -.23232565E+04 E0= -.23232565E+04  d E =-.374897E-04  mag=     4.0000
       N       E                     dE             d eps       ncg     rms          rms(c)
DAV:   1    -0.230291858672E+04    0.40940E-04   -0.16999E-03  4664   0.373E-02    0.146E-02
RMM:   2    -0.230291861817E+04   -0.31451E-04   -0.31979E-04  3432   0.826E-03    0.153E-02
RMM:   3    -0.230291862034E+04   -0.21702E-05   -0.32856E-05  2723   0.443E-03
 153 F= -.23232565E+04 E0= -.23232565E+04  d E =-.400207E-04  mag=     4.0000
       N       E                     dE             d eps       ncg     rms          rms(c)
DAV:   1    -0.230291845592E+04    0.16225E-03   -0.84608E-03  4400   0.817E-02    0.332E-02
RMM:   2    -0.230291862824E+04   -0.17232E-03   -0.16872E-03  5389   0.181E-02    0.420E-02
RMM:   3    -0.230291863479E+04   -0.65510E-05   -0.16650E-04  2840   0.768E-03    0.263E-02
RMM:   4    -0.230291863080E+04    0.39946E-05   -0.18905E-05  2763   0.245E-03
 154 F= -.23232566E+04 E0= -.23232566E+04  d E =-.348919E-04  mag=     4.0000
       N       E                     dE             d eps       ncg     rms          rms(c)
DAV:   1    -0.230291855799E+04    0.76806E-04   -0.31217E-03  4400   0.496E-02    0.193E-02
RMM:   2    -0.230291861982E+04   -0.61830E-04   -0.61339E-04  3973   0.108E-02    0.238E-02
RMM:   3    -0.230291862264E+04   -0.28199E-05   -0.59408E-05  2782   0.524E-03
 155 F= -.23232566E+04 E0= -.23232566E+04  d E =-.417329E-04  mag=     4.0000
       N       E                     dE             d eps       ncg     rms          rms(c)
DAV:   1    -0.230291847476E+04    0.14506E-03   -0.79615E-03  4398   0.825E-02    0.333E-02
RMM:   2    -0.230291862538E+04   -0.15063E-03   -0.14763E-03  5417   0.182E-02    0.413E-02
RMM:   3    -0.230291863016E+04   -0.47808E-05   -0.14694E-04  2837   0.764E-03    0.258E-02
RMM:   4    -0.230291862620E+04    0.39669E-05   -0.19055E-05  2809   0.251E-03
 156 F= -.23232566E+04 E0= -.23232566E+04  d E =-.331073E-04  mag=     4.0000
       N       E                     dE             d eps       ncg     rms          rms(c)
DAV:   1    -0.230291861333E+04    0.16828E-04   -0.31564E-04  4816   0.165E-02    0.715E-03
RMM:   2    -0.230291861842E+04   -0.50883E-05   -0.57066E-05  2726   0.394E-03
 157 F= -.23232566E+04 E0= -.23232566E+04  d E =-.314528E-04  mag=     4.0000
       N       E                     dE             d eps       ncg     rms          rms(c)
DAV:   1    -0.230291847516E+04    0.13818E-03   -0.81418E-03  4400   0.829E-02    0.344E-02
RMM:   2    -0.230291863590E+04   -0.16074E-03   -0.15630E-03  5399   0.189E-02    0.465E-02
RMM:   3    -0.230291863871E+04   -0.28058E-05   -0.15784E-04  2833   0.820E-03    0.281E-02
RMM:   4    -0.230291863342E+04    0.52876E-05   -0.17639E-05  2810   0.268E-03
 158 F= -.23232566E+04 E0= -.23232566E+04  d E =-.286512E-04  mag=     4.0000
       N       E                     dE             d eps       ncg     rms          rms(c)
DAV:   1    -0.230291863019E+04    0.85137E-05   -0.45475E-05  4344   0.635E-03    0.591E-03
RMM:   2    -0.230291863201E+04   -0.18119E-05   -0.11828E-05  2378   0.234E-03
 159 F= -.23232566E+04 E0= -.23232566E+04  d E =-.283436E-04  mag=     4.0000
       N       E                     dE             d eps       ncg     rms          rms(c)
DAV:   1    -0.230291852762E+04    0.10257E-03   -0.63322E-03  4384   0.715E-02    0.296E-02
RMM:   2    -0.230291864997E+04   -0.12235E-03   -0.11918E-03  5117   0.159E-02    0.387E-02
RMM:   3    -0.230291865222E+04   -0.22522E-05   -0.11543E-04  2810   0.713E-03    0.229E-02
RMM:   4    -0.230291864927E+04    0.29483E-05   -0.14435E-05  2680   0.218E-03
 160 F= -.23232566E+04 E0= -.23232566E+04  d E =-.247364E-04  mag=     4.0000
       N       E                     dE             d eps       ncg     rms          rms(c)
DAV:   1    -0.230291864521E+04    0.70073E-05   -0.12392E-04  4888   0.101E-02    0.539E-03
RMM:   2    -0.230291864727E+04   -0.20581E-05   -0.23235E-05  2412   0.255E-03
 161 F= -.23232566E+04 E0= -.23232566E+04  d E =-.238312E-04  mag=     4.0000
       N       E                     dE             d eps       ncg     rms          rms(c)
DAV:   1    -0.230291854318E+04    0.10203E-03   -0.54779E-03  4398   0.664E-02    0.265E-02
RMM:   2    -0.230291864820E+04   -0.10503E-03   -0.10580E-03  4866   0.152E-02    0.271E-02
RMM:   3    -0.230291865627E+04   -0.80718E-05   -0.10761E-04  2809   0.693E-03    0.238E-02
RMM:   4    -0.230291865229E+04    0.39821E-05   -0.12527E-05  2689   0.224E-03
 162 F= -.23232567E+04 E0= -.23232567E+04  d E =-.220966E-04  mag=     4.0000
       N       E                     dE             d eps       ncg     rms          rms(c)
DAV:   1    -0.230291864884E+04    0.74305E-05   -0.59070E-05  4576   0.701E-03    0.480E-03
RMM:   2    -0.230291865019E+04   -0.13449E-05   -0.12605E-05  2346   0.221E-03
 163 F= -.23232567E+04 E0= -.23232567E+04  d E =-.218591E-04  mag=     4.0000
       N       E                     dE             d eps       ncg     rms          rms(c)
DAV:   1    -0.230291855405E+04    0.94793E-04   -0.52985E-03  4384   0.653E-02    0.268E-02
RMM:   2    -0.230291865735E+04   -0.10330E-03   -0.10163E-03  4869   0.147E-02    0.337E-02
RMM:   3    -0.230291866066E+04   -0.33152E-05   -0.10046E-04  2795   0.666E-03    0.218E-02
RMM:   4    -0.230291865751E+04    0.31537E-05   -0.12057E-05  2599   0.211E-03
 164 F= -.23232567E+04 E0= -.23232567E+04  d E =-.175205E-04  mag=     4.0000
       N       E                     dE             d eps       ncg     rms          rms(c)
DAV:   1    -0.230291865687E+04    0.37965E-05   -0.44849E-06  3452   0.238E-03    0.561E-03
RMM:   2    -0.230291865772E+04   -0.85452E-06   -0.33966E-06  1967   0.140E-03
 165 F= -.23232567E+04 E0= -.23232567E+04  d E =-.175459E-04  mag=     4.0000
       N       E                     dE             d eps       ncg     rms          rms(c)
DAV:   1    -0.230291858140E+04    0.75466E-04   -0.46735E-03  4368   0.621E-02    0.253E-02
RMM:   2    -0.230291866924E+04   -0.87842E-04   -0.85701E-04  4722   0.135E-02    0.330E-02
RMM:   3    -0.230291867097E+04   -0.17274E-05   -0.85626E-05  2785   0.606E-03
 166 F= -.23232567E+04 E0= -.23232567E+04  d E =-.172373E-04  mag=     4.0000
       N       E                     dE             d eps       ncg     rms          rms(c)
DAV:   1    -0.230291866823E+04    0.10104E-05   -0.16183E-05  3832   0.338E-03    0.632E-03
RMM:   2    -0.230291866774E+04    0.49410E-06   -0.24610E-06  2178   0.160E-03
 167 F= -.23232567E+04 E0= -.23232567E+04  d E =-.141093E-04  mag=     4.0000
       N       E                     dE             d eps       ncg     rms          rms(c)
DAV:   1    -0.230291860647E+04    0.61765E-04   -0.37803E-03  4384   0.567E-02    0.248E-02
RMM:   2    -0.230291868111E+04   -0.74638E-04   -0.69799E-04  4581   0.127E-02    0.389E-02
RMM:   3    -0.230291867729E+04    0.38114E-05   -0.65044E-05  2779   0.593E-03
 168 F= -.23232567E+04 E0= -.23232567E+04  d E =-.210323E-04  mag=     4.0000
       N       E                     dE             d eps       ncg     rms          rms(c)
DAV:   1    -0.230291867526E+04    0.58436E-05   -0.11126E-05  3752   0.298E-03    0.564E-03
RMM:   2    -0.230291867488E+04    0.37818E-06   -0.17073E-06  2207   0.142E-03
 169 F= -.23232567E+04 E0= -.23232567E+04  d E =-.187864E-04  mag=     4.0000
       N       E                     dE             d eps       ncg     rms          rms(c)
DAV:   1    -0.230291862219E+04    0.53070E-04   -0.27560E-03  4336   0.477E-02    0.212E-02
RMM:   2    -0.230291867760E+04   -0.55408E-04   -0.51986E-04  3946   0.110E-02    0.331E-02
RMM:   3    -0.230291867517E+04    0.24345E-05   -0.49769E-05  2654   0.555E-03
 170 F= -.23232567E+04 E0= -.23232567E+04  d E =-.135305E-04  mag=     4.0000
       N       E                     dE             d eps       ncg     rms          rms(c)
DAV:   1    -0.230291867403E+04    0.35667E-05   -0.84361E-06  3488   0.286E-03    0.489E-03
RMM:   2    -0.230291867374E+04    0.29820E-06   -0.14620E-06  2123   0.148E-03
 171 F= -.23232567E+04 E0= -.23232567E+04  d E =-.119279E-04  mag=     4.0000
       N       E                     dE             d eps       ncg     rms          rms(c)
DAV:   1    -0.230291863962E+04    0.34415E-04   -0.21225E-03  4288   0.419E-02    0.185E-02
RMM:   2    -0.230291868222E+04   -0.42604E-04   -0.39298E-04  3633   0.957E-03    0.306E-02
RMM:   3    -0.230291867949E+04    0.27368E-05   -0.37400E-05  2550   0.503E-03
 172 F= -.23232567E+04 E0= -.23232567E+04  d E =-.131376E-04  mag=     4.0000
       N       E                     dE             d eps       ncg     rms          rms(c)
DAV:   1    -0.230291867752E+04    0.47067E-05   -0.29484E-05  3904   0.497E-03    0.431E-03
RMM:   2    -0.230291867801E+04   -0.49762E-06   -0.63138E-06  2229   0.240E-03
 173 F= -.23232567E+04 E0= -.23232567E+04  d E =-.124622E-04  mag=     4.0000
       N       E                     dE             d eps       ncg     rms          rms(c)
DAV:   1    -0.230291864488E+04    0.32633E-04   -0.18803E-03  4304   0.392E-02    0.169E-02
RMM:   2    -0.230291868310E+04   -0.38218E-04   -0.35105E-04  3526   0.884E-03    0.291E-02
RMM:   3    -0.230291868048E+04    0.26230E-05   -0.33333E-05  2443   0.475E-03
 174 F= -.23232568E+04 E0= -.23232568E+04  d E =-.111937E-04  mag=     4.0000
       N       E                     dE             d eps       ncg     rms          rms(c)
DAV:   1    -0.230291867920E+04    0.38988E-05   -0.11325E-05  3464   0.300E-03    0.440E-03
RMM:   2    -0.230291867913E+04    0.76281E-07   -0.22072E-06  2198   0.175E-03
 175 F= -.23232568E+04 E0= -.23232568E+04  d E =-.103750E-04  mag=     4.0000
       N       E                     dE             d eps       ncg     rms          rms(c)
DAV:   1    -0.230291865770E+04    0.21504E-04   -0.12328E-03  4280   0.325E-02    0.169E-02
RMM:   2    -0.230291868814E+04   -0.30446E-04   -0.22884E-04  3252   0.735E-03    0.388E-02
RMM:   3    -0.230291867952E+04    0.86212E-05   -0.26076E-05  2388   0.427E-03
 176 F= -.23232568E+04 E0= -.23232568E+04  d E =-.106263E-04  mag=     4.0000
       N       E                     dE             d eps       ncg     rms          rms(c)
DAV:   1    -0.230291867663E+04    0.11510E-04   -0.36612E-05  3784   0.562E-03    0.408E-03
RMM:   2    -0.230291867758E+04   -0.94625E-06   -0.86701E-06  2252   0.226E-03
 177 F= -.23232568E+04 E0= -.23232568E+04  d E =-.104390E-04  mag=     4.0000
       N       E                     dE             d eps       ncg     rms          rms(c)
DAV:   1    -0.230291866582E+04    0.10819E-04   -0.84471E-04  4168   0.271E-02    0.111E-02
RMM:   2    -0.230291868178E+04   -0.15962E-04   -0.15451E-04  2944   0.644E-03    0.153E-02
RMM:   3    -0.230291868203E+04   -0.25405E-06   -0.16986E-05  2266   0.389E-03
 178 F= -.23232568E+04 E0= -.23232568E+04  d E =-.779564E-05  mag=     4.0000
       N       E                     dE             d eps       ncg     rms          rms(c)
DAV:   1    -0.230291868039E+04    0.13875E-05   -0.44202E-05  3712   0.627E-03    0.390E-03
RMM:   2    -0.230291868123E+04   -0.83877E-06   -0.95407E-06  2240   0.232E-03
 179 F= -.23232568E+04 E0= -.23232568E+04  d E =-.775938E-05  mag=     4.0000
       N       E                     dE             d eps       ncg     rms          rms(c)
DAV:   1    -0.230291867428E+04    0.61074E-05   -0.76957E-04  4168   0.259E-02    0.118E-02
RMM:   2    -0.230291869051E+04   -0.16225E-04   -0.14256E-04  2928   0.628E-03    0.217E-02
RMM:   3    -0.230291868867E+04    0.18402E-05   -0.16375E-05  2271   0.385E-03
 180 F= -.23232568E+04 E0= -.23232568E+04  d E =-.706623E-05  mag=     4.0000
       N       E                     dE             d eps       ncg     rms          rms(c)
DAV:   1    -0.230291868830E+04    0.22041E-05   -0.47239E-06  2520   0.228E-03    0.320E-03
RMM:   2    -0.230291868825E+04    0.56549E-07   -0.96035E-07  1969   0.132E-03
 181 F= -.23232568E+04 E0= -.23232568E+04  d E =-.666535E-05  mag=     4.0000
       N       E                     dE             d eps       ncg     rms          rms(c)
DAV:   1    -0.230291868427E+04    0.40340E-05   -0.45993E-04  4088   0.198E-02    0.924E-03
RMM:   2    -0.230291869369E+04   -0.94226E-05   -0.78211E-05  2685   0.460E-03
 182 F= -.23232568E+04 E0= -.23232568E+04  d E =-.784811E-05  mag=     4.0000
       N       E                     dE             d eps       ncg     rms          rms(c)
DAV:   1    -0.230291869158E+04   -0.73138E-05   -0.25445E-05  2808   0.513E-03    0.538E-03
RMM:   2    -0.230291869353E+04   -0.19494E-05   -0.71051E-06  2241   0.271E-03
 183 F= -.23232568E+04 E0= -.23232568E+04  d E =-.805625E-05  mag=     4.0000
       N       E                     dE             d eps       ncg     rms          rms(c)
DAV:   1    -0.230291868499E+04    0.65897E-05   -0.35745E-04  4184   0.167E-02    0.689E-03
RMM:   2    -0.230291869170E+04   -0.67050E-05   -0.68380E-05  2624   0.411E-03
 184 F= -.23232568E+04 E0= -.23232568E+04  d E =-.266871E-05  mag=     4.0000
       N       E                     dE             d eps       ncg     rms          rms(c)
DAV:   1    -0.230291869201E+04   -0.70204E-05   -0.12270E-05  2432   0.351E-03    0.701E-03
RMM:   2    -0.230291869621E+04   -0.42001E-05   -0.78711E-06  2222   0.180E-03
 185 F= -.23232568E+04 E0= -.23232568E+04  d E =-.758095E-05  mag=     4.0000
       N       E                     dE             d eps       ncg     rms          rms(c)
DAV:   1    -0.230291868778E+04    0.42360E-05   -0.26689E-04  4248   0.153E-02    0.587E-03
RMM:   2    -0.230291869249E+04   -0.47134E-05   -0.48367E-05  2443   0.373E-03
 186 F= -.23232568E+04 E0= -.23232568E+04  d E =0.861518E-06  mag=     4.0000
       N       E                     dE             d eps       ncg     rms          rms(c)
DAV:   1    -0.230291869285E+04   -0.50761E-05   -0.55322E-06  2288   0.279E-03    0.546E-03
RMM:   2    -0.230291869434E+04   -0.14814E-05   -0.34393E-06  1703   0.118E-03
 187 F= -.23232568E+04 E0= -.23232568E+04  d E =-.985489E-06  mag=     4.0000
       N       E                     dE             d eps       ncg     rms          rms(c)
DAV:   1    -0.230291868806E+04    0.47928E-05   -0.21849E-04  4296   0.137E-02    0.539E-03
RMM:   2    -0.230291869190E+04   -0.38363E-05   -0.40240E-05  2385   0.335E-03
 188 F= -.23232568E+04 E0= -.23232568E+04  d E =-.124471E-05  mag=     4.0000
       N       E                     dE             d eps       ncg     rms          rms(c)
DAV:   1    -0.230291869108E+04   -0.30157E-05   -0.23185E-05  2512   0.485E-03    0.421E-03
RMM:   2    -0.230291869252E+04   -0.14433E-05   -0.74613E-06  2232   0.274E-03
 189 F= -.23232568E+04 E0= -.23232568E+04  d E =-.297284E-05  mag=     4.0000
       N       E                     dE             d eps       ncg     rms          rms(c)
DAV:   1    -0.230291869207E+04   -0.99512E-06   -0.80970E-05  3752   0.791E-03    0.350E-03
RMM:   2    -0.230291869397E+04   -0.19002E-05   -0.18131E-05  2285   0.229E-03
 190 F= -.23232568E+04 E0= -.23232568E+04  d E =-.274113E-05  mag=     4.0000
