       N       E                     dE             d eps       ncg     rms          rms(c)
DAV:   1     0.121014170296E+05    0.12101E+05   -0.83194E+05  4640   0.140E+03
DAV:   2    -0.129279386398E+04   -0.13394E+05   -0.12888E+05  5040   0.318E+02
DAV:   3    -0.248907500294E+04   -0.11963E+04   -0.11866E+04  5520   0.101E+02
DAV:   4    -0.251423952106E+04   -0.25165E+02   -0.25033E+02  5680   0.176E+01
DAV:   5    -0.251486527499E+04   -0.62575E+00   -0.62457E+00  5920   0.245E+00    0.170E+02
RMM:   6    -0.147887044778E+04    0.10360E+04   -0.18829E+03  4503   0.374E+01    0.722E+01
RMM:   7    -0.164448630152E+04   -0.16562E+03   -0.26327E+02  5020   0.131E+01    0.505E+01
RMM:   8    -0.170334388054E+04   -0.58858E+02   -0.59682E+01  5066   0.766E+00    0.423E+01
RMM:   9    -0.178094232762E+04   -0.77598E+02   -0.70772E+01  5059   0.762E+00    0.351E+01
RMM:  10    -0.192664555034E+04   -0.14570E+03   -0.63094E+01  5163   0.751E+00    0.198E+01
RMM:  11    -0.204766026391E+04   -0.12101E+03   -0.59399E+01  4935   0.618E+00    0.175E+01
RMM:  12    -0.213602936333E+04   -0.88369E+02   -0.47711E+01  4736   0.522E+00    0.118E+01
RMM:  13    -0.224527794907E+04   -0.10925E+03   -0.86646E+01  4514   0.649E+00    0.126E+01
RMM:  14    -0.228817191699E+04   -0.42894E+02   -0.38371E+01  4550   0.462E+00    0.592E+00
RMM:  15    -0.230242645509E+04   -0.14255E+02   -0.15593E+01  4843   0.291E+00    0.382E+00
RMM:  16    -0.230445428210E+04   -0.20278E+01   -0.22001E+00  5264   0.127E+00    0.522E+00
RMM:  17    -0.230460437494E+04   -0.15009E+00   -0.30039E-01  5576   0.369E-01    0.608E+00
RMM:  18    -0.230577652621E+04   -0.11722E+01   -0.44651E-01  4575   0.388E-01    0.466E+00
RMM:  19    -0.230705757335E+04   -0.12810E+01   -0.60525E-01  4552   0.469E-01    0.182E+00
RMM:  20    -0.230791529860E+04   -0.85773E+00   -0.70061E-01  4540   0.508E-01    0.893E-01
RMM:  21    -0.230818609866E+04   -0.27080E+00   -0.24189E-01  5096   0.327E-01    0.819E-01
RMM:  22    -0.230833100844E+04   -0.14491E+00   -0.11579E-01  4854   0.170E-01    0.721E-01
RMM:  23    -0.230846189654E+04   -0.13089E+00   -0.12122E-01  4509   0.166E-01    0.376E-01
RMM:  24    -0.230851183912E+04   -0.49943E-01   -0.36538E-02  4822   0.113E-01    0.177E-01
RMM:  25    -0.230852852001E+04   -0.16681E-01   -0.76226E-03  4778   0.543E-02    0.109E-01
RMM:  26    -0.230854181465E+04   -0.13295E-01   -0.27662E-03  4551   0.377E-02    0.829E-02
RMM:  27    -0.230855188330E+04   -0.10069E-01   -0.21146E-03  4540   0.314E-02    0.777E-02
RMM:  28    -0.230855659722E+04   -0.47139E-02   -0.10440E-03  4379   0.256E-02    0.441E-02
RMM:  29    -0.230855991171E+04   -0.33145E-02   -0.90397E-04  4173   0.191E-02    0.270E-02
RMM:  30    -0.230856072740E+04   -0.81569E-03   -0.26031E-04  3999   0.156E-02    0.162E-02
RMM:  31    -0.230856098862E+04   -0.26121E-03   -0.98056E-05  3676   0.622E-03    0.797E-03
RMM:  32    -0.230856109220E+04   -0.10359E-03   -0.26746E-05  3188   0.627E-03    0.499E-03
RMM:  33    -0.230856113995E+04   -0.47743E-04   -0.14465E-05  3035   0.318E-03    0.392E-03
RMM:  34    -0.230856115991E+04   -0.19965E-04   -0.49009E-06  2882   0.263E-03    0.163E-03
RMM:  35    -0.230856116851E+04   -0.85991E-05   -0.34444E-06  2670   0.192E-03
   1 F= -.23289323E+04 E0= -.23289323E+04  d E =-.611934E-04  mag=     3.9999
       N       E                     dE             d eps       ncg     rms          rms(c)
DAV:   1    -0.230850632788E+04    0.54832E-01   -0.21081E+00  4480   0.568E-01    0.319E-01
RMM:   2    -0.230850678714E+04   -0.45926E-03   -0.11158E-02  4191   0.391E-02    0.279E-01
RMM:   3    -0.230850667093E+04    0.11621E-03   -0.22911E-03  4870   0.184E-02    0.284E-01
RMM:   4    -0.230850605256E+04    0.61838E-03   -0.12266E-03  4349   0.133E-02    0.106E-01
RMM:   5    -0.230850597035E+04    0.82210E-04   -0.23801E-04  3427   0.838E-03    0.348E-02
RMM:   6    -0.230850597485E+04   -0.45012E-05   -0.85895E-05  3031   0.435E-03
   2 F= -.23288773E+04 E0= -.23288773E+04  d E =-.118868E-03  mag=     4.0000
       N       E                     dE             d eps       ncg     rms          rms(c)
DAV:   1    -0.230857778710E+04   -0.71817E-01   -0.83770E+00  4480   0.112E+00    0.621E-01
RMM:   2    -0.230857932891E+04   -0.15418E-02   -0.40478E-02  4463   0.776E-02    0.559E-01
RMM:   3    -0.230857824376E+04    0.10852E-02   -0.76931E-03  5701   0.348E-02    0.522E-01
RMM:   4    -0.230857612638E+04    0.21174E-02   -0.44534E-03  4971   0.244E-02    0.182E-01
RMM:   5    -0.230857587992E+04    0.24646E-03   -0.79554E-04  4184   0.152E-02    0.584E-02
RMM:   6    -0.230857593144E+04   -0.51515E-04   -0.19999E-04  3338   0.654E-03    0.333E-02
RMM:   7    -0.230857594657E+04   -0.15134E-04   -0.37585E-05  2941   0.453E-03    0.128E-02
RMM:   8    -0.230857595251E+04   -0.59378E-05   -0.16758E-05  2908   0.294E-03
   3 F= -.23289469E+04 E0= -.23289469E+04  d E =-.302986E-04  mag=     4.0000
       N       E                     dE             d eps       ncg     rms          rms(c)
DAV:   1    -0.230853916925E+04    0.36777E-01   -0.40409E+00  4480   0.881E-01    0.453E-01
RMM:   2    -0.230854061834E+04   -0.14491E-02   -0.21088E-02  4446   0.646E-02    0.467E-01
RMM:   3    -0.230853946207E+04    0.11563E-02   -0.46142E-03  5325   0.291E-02    0.357E-01
RMM:   4    -0.230853838615E+04    0.10759E-02   -0.18703E-03  4198   0.167E-02    0.877E-02
RMM:   5    -0.230853841380E+04   -0.27656E-04   -0.34388E-04  3477   0.116E-02    0.375E-02
RMM:   6    -0.230853846579E+04   -0.51986E-04   -0.76780E-05  3123   0.499E-03    0.291E-02
RMM:   7    -0.230853846869E+04   -0.29048E-05   -0.23021E-05  2927   0.370E-03
   4 F= -.23289096E+04 E0= -.23289095E+04  d E =-.109099E-03  mag=     4.0000
       N       E                     dE             d eps       ncg     rms          rms(c)
DAV:   1    -0.230857223920E+04   -0.33773E-01   -0.80245E+00  4480   0.135E+00    0.608E-01
RMM:   2    -0.230857210085E+04    0.13836E-03   -0.31813E-02  4454   0.817E-02    0.494E-01
RMM:   3    -0.230857305294E+04   -0.95209E-03   -0.10303E-02  5660   0.422E-02    0.647E-01
RMM:   4    -0.230856950075E+04    0.35522E-02   -0.35108E-03  4714   0.243E-02    0.147E-01
RMM:   5    -0.230856938735E+04    0.11340E-03   -0.86937E-04  4038   0.133E-02    0.565E-02
RMM:   6    -0.230856939621E+04   -0.88590E-05   -0.95795E-05  3085   0.593E-03
   5 F= -.23289405E+04 E0= -.23289405E+04  d E =-.335276E-04  mag=     4.0000
       N       E                     dE             d eps       ncg     rms          rms(c)
DAV:   1    -0.230849521395E+04    0.74173E-01   -0.40218E+00  4480   0.891E-01    0.569E-01
RMM:   2    -0.230849591269E+04   -0.69874E-03   -0.24548E-02  4446   0.676E-02    0.506E-01
RMM:   3    -0.230849550444E+04    0.40825E-03   -0.78281E-03  5566   0.357E-02    0.521E-01
RMM:   4    -0.230849296032E+04    0.25441E-02   -0.33878E-03  4982   0.234E-02    0.182E-01
RMM:   5    -0.230849308257E+04   -0.12225E-03   -0.98288E-04  4157   0.161E-02    0.827E-02
RMM:   6    -0.230849320122E+04   -0.11865E-03   -0.50660E-04  3625   0.993E-03    0.601E-02
RMM:   7    -0.230849319897E+04    0.22563E-05   -0.82871E-05  3164   0.620E-03
   6 F= -.23288646E+04 E0= -.23288644E+04  d E =-.360103E-03  mag=     4.0000
       N       E                     dE             d eps       ncg     rms          rms(c)
DAV:   1    -0.230859498941E+04   -0.10179E+00   -0.81622E+00  4480   0.123E+00    0.862E-01
RMM:   2    -0.230859318305E+04    0.18064E-02   -0.73705E-02  4445   0.122E-01    0.597E-01
RMM:   3    -0.230859296969E+04    0.21336E-03   -0.16167E-02  5868   0.576E-02    0.780E-01
RMM:   4    -0.230858821750E+04    0.47522E-02   -0.83270E-03  5617   0.360E-02    0.293E-01
RMM:   5    -0.230858768082E+04    0.53668E-03   -0.18038E-03  4768   0.219E-02    0.120E-01
RMM:   6    -0.230858777729E+04   -0.96470E-04   -0.79490E-04  3838   0.121E-02    0.594E-02
RMM:   7    -0.230858779383E+04   -0.16533E-04   -0.11233E-04  3238   0.818E-03    0.221E-02
RMM:   8    -0.230858780824E+04   -0.14410E-04   -0.33390E-05  3071   0.412E-03    0.129E-02
RMM:   9    -0.230858781116E+04   -0.29258E-05   -0.12045E-05  2941   0.350E-03
   7 F= -.23289587E+04 E0= -.23289587E+04  d E =-.858671E-05  mag=     4.0000
       N       E                     dE             d eps       ncg     rms          rms(c)
DAV:   1    -0.230853674052E+04    0.51068E-01   -0.70569E+00  4640   0.116E+00    0.578E-01
RMM:   2    -0.230853958906E+04   -0.28485E-02   -0.50671E-02  4503   0.917E-02    0.475E-01
RMM:   3    -0.230853928057E+04    0.30848E-03   -0.78907E-03  5686   0.366E-02    0.523E-01
RMM:   4    -0.230853716938E+04    0.21112E-02   -0.35960E-03  5116   0.240E-02    0.219E-01
RMM:   5    -0.230853702452E+04    0.14486E-03   -0.10526E-03  4252   0.164E-02    0.904E-02
RMM:   6    -0.230853710319E+04   -0.78674E-04   -0.52390E-04  3671   0.935E-03    0.586E-02
RMM:   7    -0.230853711081E+04   -0.76180E-05   -0.81087E-05  3128   0.655E-03
   8 F= -.23289090E+04 E0= -.23289089E+04  d E =-.252968E-03  mag=     4.0000
       N       E                     dE             d eps       ncg     rms          rms(c)
DAV:   1    -0.230857523774E+04   -0.38135E-01   -0.20336E+01  4560   0.190E+00    0.605E-01
RMM:   2    -0.230857891771E+04   -0.36800E-02   -0.71236E-02  4481   0.108E-01    0.469E-01
RMM:   3    -0.230857915280E+04   -0.23509E-03   -0.92063E-03  5812   0.411E-02    0.582E-01
RMM:   4    -0.230857625201E+04    0.29008E-02   -0.32910E-03  4980   0.230E-02    0.141E-01
RMM:   5    -0.230857618672E+04    0.65290E-04   -0.91051E-04  3974   0.161E-02    0.707E-02
RMM:   6    -0.230857623158E+04   -0.44857E-04   -0.17847E-04  3525   0.734E-03    0.349E-02
RMM:   7    -0.230857623670E+04   -0.51159E-05   -0.45513E-05  3037   0.484E-03
   9 F= -.23289466E+04 E0= -.23289466E+04  d E =-.120616E-04  mag=     4.0000
       N       E                     dE             d eps       ncg     rms          rms(c)
DAV:   1    -0.230854838227E+04    0.27849E-01   -0.10265E+01  4480   0.134E+00    0.389E-01
RMM:   2    -0.230855019854E+04   -0.18163E-02   -0.34580E-02  4276   0.791E-02    0.237E-01
RMM:   3    -0.230855039955E+04   -0.20100E-03   -0.36345E-03  5145   0.268E-02    0.352E-01
RMM:   4    -0.230854945583E+04    0.94371E-03   -0.16519E-03  4604   0.158E-02    0.119E-01
RMM:   5    -0.230854939983E+04    0.56000E-04   -0.29399E-04  3535   0.945E-03    0.484E-02
RMM:   6    -0.230854941812E+04   -0.18287E-04   -0.90705E-05  3051   0.487E-03    0.307E-02
RMM:   7    -0.230854942012E+04   -0.19950E-05   -0.19672E-05  2883   0.334E-03
  10 F= -.23289200E+04 E0= -.23289200E+04  d E =-.539355E-04  mag=     4.0000
       N       E                     dE             d eps       ncg     rms          rms(c)
DAV:   1    -0.230856238687E+04   -0.12969E-01   -0.20257E+01  4480   0.201E+00    0.613E-01
RMM:   2    -0.230856712087E+04   -0.47340E-02   -0.92448E-02  4449   0.149E-01    0.340E-01
RMM:   3    -0.230856683653E+04    0.28434E-03   -0.82933E-03  5591   0.535E-02    0.563E-01
RMM:   4    -0.230856411712E+04    0.27194E-02   -0.36486E-03  5239   0.256E-02    0.150E-01
RMM:   5    -0.230856410731E+04    0.98092E-05   -0.66789E-04  3793   0.139E-02    0.734E-02
RMM:   6    -0.230856410145E+04    0.58649E-05   -0.17264E-04  3220   0.906E-03    0.404E-02
RMM:   7    -0.230856410857E+04   -0.71244E-05   -0.84189E-05  3144   0.510E-03
  11 F= -.23289358E+04 E0= -.23289358E+04  d E =-.664905E-04  mag=     4.0000
       N       E                     dE             d eps       ncg     rms          rms(c)
DAV:   1    -0.230859205672E+04   -0.27955E-01   -0.10141E+01  4480   0.155E+00    0.444E-01
RMM:   2    -0.230859541889E+04   -0.33622E-02   -0.51731E-02  4292   0.103E-01    0.288E-01
RMM:   3    -0.230859510305E+04    0.31584E-03   -0.38947E-03  5386   0.314E-02    0.362E-01
RMM:   4    -0.230859418698E+04    0.91607E-03   -0.20365E-03  4786   0.178E-02    0.166E-01
RMM:   5    -0.230859400716E+04    0.17982E-03   -0.56063E-04  3782   0.113E-02    0.458E-02
RMM:   6    -0.230859401501E+04   -0.78516E-05   -0.10053E-04  3110   0.774E-03    0.268E-02
RMM:   7    -0.230859402749E+04   -0.12483E-04   -0.32690E-05  2976   0.324E-03    0.125E-02
RMM:   8    -0.230859403011E+04   -0.26158E-05   -0.63730E-06  2831   0.241E-03
  12 F= -.23289663E+04 E0= -.23289663E+04  d E =-.795497E-05  mag=     4.0000
       N       E                     dE             d eps       ncg     rms          rms(c)
DAV:   1    -0.230849485353E+04    0.99174E-01   -0.20365E+01  4480   0.217E+00    0.976E-01
RMM:   2    -0.230849782902E+04   -0.29755E-02   -0.13921E-01  4485   0.170E-01    0.568E-01
RMM:   3    -0.230849428746E+04    0.35416E-02   -0.13106E-02  5572   0.631E-02    0.604E-01
RMM:   4    -0.230849320348E+04    0.10840E-02   -0.98326E-03  5811   0.373E-02    0.557E-01
RMM:   5    -0.230849102440E+04    0.21791E-02   -0.32998E-03  5074   0.266E-02    0.236E-01
RMM:   6    -0.230849121397E+04   -0.18957E-03   -0.73696E-04  3809   0.146E-02    0.139E-01
RMM:   7    -0.230849140155E+04   -0.18758E-03   -0.91052E-04  3889   0.119E-02    0.395E-02
RMM:   8    -0.230849145911E+04   -0.57555E-04   -0.10207E-04  3212   0.693E-03    0.189E-02
RMM:   9    -0.230849147523E+04   -0.16119E-04   -0.25638E-05  3004   0.381E-03    0.945E-03
RMM:  10    -0.230849148077E+04   -0.55407E-05   -0.73615E-06  2914   0.302E-03
  13 F= -.23288615E+04 E0= -.23288614E+04  d E =-.357575E-03  mag=     4.0000
       N       E                     dE             d eps       ncg     rms          rms(c)
DAV:   1    -0.230856651900E+04   -0.75044E-01   -0.53815E+00  4480   0.105E+00    0.573E-01
RMM:   2    -0.230856670190E+04   -0.18290E-03   -0.45422E-02  4373   0.959E-02    0.334E-01
RMM:   3    -0.230856540473E+04    0.12972E-02   -0.42902E-03  5107   0.388E-02    0.317E-01
RMM:   4    -0.230856527825E+04    0.12648E-03   -0.32813E-03  5326   0.221E-02    0.325E-01
RMM:   5    -0.230856441940E+04    0.85884E-03   -0.12389E-03  4690   0.159E-02    0.893E-02
RMM:   6    -0.230856447256E+04   -0.53156E-04   -0.21931E-04  3425   0.860E-03    0.483E-02
RMM:   7    -0.230856452269E+04   -0.50137E-04   -0.14508E-04  3260   0.560E-03    0.179E-02
RMM:   8    -0.230856453659E+04   -0.13892E-04   -0.21864E-05  2941   0.369E-03    0.100E-02
RMM:   9    -0.230856453969E+04   -0.31012E-05   -0.67199E-06  2871   0.238E-03
  14 F= -.23289363E+04 E0= -.23289362E+04  d E =-.538350E-04  mag=     4.0000
       N       E                     dE             d eps       ncg     rms          rms(c)
DAV:   1    -0.230854103940E+04    0.23497E-01   -0.13089E+00  4960   0.379E-01    0.600E-01
RMM:   2    -0.230853591307E+04    0.51263E-02   -0.18964E-02  4328   0.439E-02    0.329E-01
RMM:   3    -0.230853604651E+04   -0.13344E-03   -0.49095E-03  4852   0.323E-02    0.393E-01
RMM:   4    -0.230853518513E+04    0.86138E-03   -0.23644E-03  4713   0.178E-02    0.220E-01
RMM:   5    -0.230853473969E+04    0.44544E-03   -0.79170E-04  4334   0.120E-02    0.821E-02
RMM:   6    -0.230853474037E+04   -0.67835E-06   -0.14000E-04  3212   0.586E-03    0.434E-02
RMM:   7    -0.230853473066E+04    0.97060E-05   -0.50161E-05  2885   0.431E-03
  15 F= -.23289053E+04 E0= -.23289053E+04  d E =-.684184E-04  mag=     4.0000
       N       E                     dE             d eps       ncg     rms          rms(c)
DAV:   1    -0.230857351894E+04   -0.38779E-01   -0.64706E-01  4960   0.246E-01    0.390E-01
RMM:   2    -0.230857168488E+04    0.18341E-02   -0.77240E-03  4368   0.280E-02    0.214E-01
RMM:   3    -0.230857164283E+04    0.42053E-04   -0.18160E-03  4602   0.188E-02    0.222E-01
RMM:   4    -0.230857142281E+04    0.22002E-03   -0.98093E-04  4276   0.116E-02    0.176E-01
RMM:   5    -0.230857117142E+04    0.25138E-03   -0.35941E-04  3762   0.836E-03    0.354E-02
RMM:   6    -0.230857117899E+04   -0.75658E-05   -0.43275E-05  2921   0.378E-03
  16 F= -.23289423E+04 E0= -.23289423E+04  d E =-.559637E-04  mag=     4.0000
       N       E                     dE             d eps       ncg     rms          rms(c)
DAV:   1    -0.230854999381E+04    0.21178E-01   -0.12485E+00  4480   0.343E-01    0.411E-01
RMM:   2    -0.230854997633E+04    0.17476E-04   -0.58388E-03  4298   0.299E-02    0.309E-01
RMM:   3    -0.230855091430E+04   -0.93797E-03   -0.36237E-03  5216   0.210E-02    0.433E-01
RMM:   4    -0.230854933610E+04    0.15782E-02   -0.14585E-03  4497   0.150E-02    0.831E-02
RMM:   5    -0.230854933535E+04    0.74628E-06   -0.25566E-04  3569   0.802E-03    0.378E-02
RMM:   6    -0.230854936343E+04   -0.28084E-04   -0.72518E-05  3016   0.532E-03    0.277E-02
RMM:   7    -0.230854937065E+04   -0.72205E-05   -0.16707E-05  2788   0.296E-03
  17 F= -.23289205E+04 E0= -.23289205E+04  d E =-.672802E-04  mag=     4.0000
       N       E                     dE             d eps       ncg     rms          rms(c)
DAV:   1    -0.230855610829E+04   -0.67449E-02   -0.62958E-01  4560   0.247E-01    0.307E-01
RMM:   2    -0.230855579084E+04    0.31745E-03   -0.34993E-03  3842   0.217E-02    0.212E-01
RMM:   3    -0.230855647806E+04   -0.68721E-03   -0.20606E-03  4584   0.166E-02    0.338E-01
RMM:   4    -0.230855553586E+04    0.94219E-03   -0.86487E-04  3999   0.118E-02    0.611E-02
RMM:   5    -0.230855551760E+04    0.18259E-04   -0.18042E-04  3153   0.660E-03    0.310E-02
RMM:   6    -0.230855552958E+04   -0.11982E-04   -0.34010E-05  2852   0.321E-03    0.160E-02
RMM:   7    -0.230855552943E+04    0.15665E-06   -0.91717E-06  2606   0.219E-03
  18 F= -.23289269E+04 E0= -.23289268E+04  d E =-.476548E-04  mag=     4.0000
       N       E                     dE             d eps       ncg     rms          rms(c)
DAV:   1    -0.230855973862E+04   -0.42090E-02   -0.12722E+00  4960   0.340E-01    0.458E-01
RMM:   2    -0.230855772175E+04    0.20169E-02   -0.99722E-03  4091   0.295E-02    0.255E-01
RMM:   3    -0.230855761092E+04    0.11083E-03   -0.24750E-03  4546   0.225E-02    0.242E-01
RMM:   4    -0.230855743032E+04    0.18060E-03   -0.12714E-03  4343   0.132E-02    0.176E-01
RMM:   5    -0.230855717017E+04    0.26015E-03   -0.46127E-04  3906   0.900E-03    0.620E-02
RMM:   6    -0.230855716248E+04    0.76853E-05   -0.57325E-05  3018   0.434E-03
  19 F= -.23289281E+04 E0= -.23289281E+04  d E =-.786521E-04  mag=     4.0000
       N       E                     dE             d eps       ncg     rms          rms(c)
DAV:   1    -0.230857661919E+04   -0.19449E-01   -0.61728E-01  4480   0.258E-01    0.373E-01
RMM:   2    -0.230857477447E+04    0.18447E-02   -0.89939E-03  4385   0.306E-02    0.216E-01
RMM:   3    -0.230857468636E+04    0.88114E-04   -0.24582E-03  4161   0.251E-02    0.233E-01
RMM:   4    -0.230857450939E+04    0.17697E-03   -0.10165E-03  4196   0.125E-02    0.161E-01
RMM:   5    -0.230857428821E+04    0.22118E-03   -0.30774E-04  3755   0.822E-03    0.636E-02
RMM:   6    -0.230857429153E+04   -0.33215E-05   -0.12996E-04  3156   0.520E-03    0.292E-02
RMM:   7    -0.230857429175E+04   -0.22051E-06   -0.23045E-05  2814   0.352E-03
  20 F= -.23289453E+04 E0= -.23289453E+04  d E =-.154372E-04  mag=     4.0000
       N       E                     dE             d eps       ncg     rms          rms(c)
DAV:   1    -0.230854913596E+04    0.25156E-01   -0.11695E+00  4560   0.350E-01    0.549E-01
RMM:   2    -0.230854624142E+04    0.28945E-02   -0.16633E-02  4539   0.433E-02    0.332E-01
RMM:   3    -0.230854614861E+04    0.92805E-04   -0.59722E-03  4518   0.376E-02    0.370E-01
RMM:   4    -0.230854562614E+04    0.52247E-03   -0.23290E-03  4908   0.189E-02    0.247E-01
RMM:   5    -0.230854516588E+04    0.46026E-03   -0.74213E-04  4316   0.124E-02    0.908E-02
RMM:   6    -0.230854522609E+04   -0.60208E-04   -0.46004E-04  3556   0.868E-03    0.535E-02
RMM:   7    -0.230854523616E+04   -0.10069E-04   -0.67297E-05  3037   0.569E-03    0.128E-02
RMM:   8    -0.230854524040E+04   -0.42451E-05   -0.14698E-05  2856   0.283E-03
  21 F= -.23289166E+04 E0= -.23289164E+04  d E =-.214866E-03  mag=     4.0000
       N       E                     dE             d eps       ncg     rms          rms(c)
DAV:   1    -0.230857076549E+04   -0.25529E-01   -0.55903E-01  5120   0.243E-01    0.291E-01
RMM:   2    -0.230857015724E+04    0.60825E-03   -0.54348E-03  4125   0.251E-02    0.237E-01
RMM:   3    -0.230857039127E+04   -0.23403E-03   -0.20816E-03  4652   0.175E-02    0.295E-01
RMM:   4    -0.230856967315E+04    0.71812E-03   -0.70185E-04  3964   0.110E-02    0.749E-02
RMM:   5    -0.230856963091E+04    0.42246E-04   -0.18637E-04  3398   0.642E-03    0.411E-02
RMM:   6    -0.230856963604E+04   -0.51331E-05   -0.54027E-05  2891   0.364E-03
  22 F= -.23289404E+04 E0= -.23289403E+04  d E =-.664896E-04  mag=     4.0000
       N       E                     dE             d eps       ncg     rms          rms(c)
DAV:   1    -0.230854629464E+04    0.23336E-01   -0.11366E+00  4960   0.339E-01    0.353E-01
RMM:   2    -0.230854682672E+04   -0.53208E-03   -0.79643E-03  4138   0.320E-02    0.270E-01
RMM:   3    -0.230854709644E+04   -0.26972E-03   -0.27509E-03  4820   0.222E-02    0.360E-01
RMM:   4    -0.230854595643E+04    0.11400E-02   -0.13058E-03  4702   0.140E-02    0.901E-02
RMM:   5    -0.230854596945E+04   -0.13019E-04   -0.29538E-04  3543   0.886E-03    0.465E-02
RMM:   6    -0.230854600055E+04   -0.31105E-04   -0.11669E-04  3180   0.544E-03    0.223E-02
RMM:   7    -0.230854601226E+04   -0.11709E-04   -0.17365E-05  2882   0.353E-03    0.786E-03
RMM:   8    -0.230854601698E+04   -0.47155E-05   -0.55308E-06  2720   0.212E-03
  23 F= -.23289176E+04 E0= -.23289176E+04  d E =-.558290E-04  mag=     4.0000
       N       E                     dE             d eps       ncg     rms          rms(c)
DAV:   1    -0.230856359332E+04   -0.17581E-01   -0.56571E-01  4880   0.256E-01    0.267E-01
RMM:   2    -0.230856360141E+04   -0.80946E-05   -0.54906E-03  3943   0.244E-02    0.243E-01
RMM:   3    -0.230856352949E+04    0.71922E-04   -0.16267E-03  4651   0.150E-02    0.252E-01
RMM:   4    -0.230856296197E+04    0.56752E-03   -0.53986E-04  3905   0.983E-03    0.580E-02
RMM:   5    -0.230856295893E+04    0.30314E-05   -0.17307E-04  3325   0.633E-03    0.348E-02
RMM:   6    -0.230856295763E+04    0.13073E-05   -0.31835E-05  2857   0.397E-03
  24 F= -.23289335E+04 E0= -.23289335E+04  d E =-.572428E-04  mag=     4.0000
       N       E                     dE             d eps       ncg     rms          rms(c)
DAV:   1    -0.230855579501E+04    0.71639E-02   -0.11423E+00  4560   0.341E-01    0.392E-01
RMM:   2    -0.230855472231E+04    0.10727E-02   -0.10737E-02  4174   0.337E-02    0.297E-01
RMM:   3    -0.230855519623E+04   -0.47391E-03   -0.37216E-03  5026   0.246E-02    0.397E-01
RMM:   4    -0.230855391347E+04    0.12828E-02   -0.14454E-03  4426   0.151E-02    0.105E-01
RMM:   5    -0.230855381623E+04    0.97246E-04   -0.33400E-04  3670   0.843E-03    0.508E-02
RMM:   6    -0.230855382960E+04   -0.13372E-04   -0.10193E-04  3088   0.440E-03    0.306E-02
RMM:   7    -0.230855382680E+04    0.28000E-05   -0.28465E-05  2791   0.348E-03
  25 F= -.23289255E+04 E0= -.23289255E+04  d E =-.656567E-04  mag=     4.0000
