       N       E                     dE             d eps       ncg     rms          rms(c)
DAV:   1     0.131488776478E+05    0.13149E+05   -0.84218E+05  4528   0.144E+03
DAV:   2    -0.993853549249E+03   -0.14143E+05   -0.13508E+05  4944   0.332E+02
DAV:   3    -0.246823184131E+04   -0.14744E+04   -0.14552E+04  5504   0.115E+02
DAV:   4    -0.251649460772E+04   -0.48263E+02   -0.48012E+02  6784   0.307E+01
DAV:   5    -0.251730024511E+04   -0.80564E+00   -0.80401E+00  6304   0.347E+00    0.170E+02
RMM:   6    -0.148835108557E+04    0.10289E+04   -0.19406E+03  4452   0.382E+01    0.720E+01
RMM:   7    -0.165864738221E+04   -0.17030E+03   -0.29180E+02  5103   0.142E+01    0.467E+01
RMM:   8    -0.171705306270E+04   -0.58406E+02   -0.32216E+01  5432   0.655E+00    0.353E+01
RMM:   9    -0.186088938451E+04   -0.14384E+03   -0.73428E+01  5021   0.842E+00    0.354E+01
RMM:  10    -0.193183795890E+04   -0.70949E+02   -0.40804E+01  5149   0.592E+00    0.238E+01
RMM:  11    -0.199308544578E+04   -0.61247E+02   -0.25017E+01  5346   0.425E+00    0.193E+01
RMM:  12    -0.207841729400E+04   -0.85332E+02   -0.34573E+01  4767   0.469E+00    0.132E+01
RMM:  13    -0.218863040201E+04   -0.11021E+03   -0.74271E+01  4470   0.639E+00    0.109E+01
RMM:  14    -0.225600531596E+04   -0.67375E+02   -0.51787E+01  4846   0.556E+00    0.116E+01
RMM:  15    -0.229066631000E+04   -0.34661E+02   -0.31271E+01  4714   0.400E+00    0.662E+00
RMM:  16    -0.230313980643E+04   -0.12473E+02   -0.13298E+01  4741   0.254E+00    0.401E+00
RMM:  17    -0.230745903402E+04   -0.43192E+01   -0.36482E+00  5031   0.137E+00    0.530E+00
RMM:  18    -0.230806146293E+04   -0.60243E+00   -0.45835E-01  5647   0.555E-01    0.483E+00
RMM:  19    -0.230899551412E+04   -0.93405E+00   -0.43042E-01  4473   0.398E-01    0.270E+00
RMM:  20    -0.231007613881E+04   -0.10806E+01   -0.93287E-01  4502   0.533E-01    0.125E+00
RMM:  21    -0.231054980142E+04   -0.47366E+00   -0.42227E-01  4807   0.387E-01    0.769E-01
RMM:  22    -0.231076985194E+04   -0.22005E+00   -0.12106E-01  4797   0.221E-01    0.496E-01
RMM:  23    -0.231097867813E+04   -0.20883E+00   -0.73647E-02  4515   0.145E-01    0.308E-01
RMM:  24    -0.231110038706E+04   -0.12171E+00   -0.31822E-02  4624   0.118E-01    0.279E-01
RMM:  25    -0.231114436735E+04   -0.43980E-01   -0.10363E-02  4845   0.663E-02    0.170E-01
RMM:  26    -0.231118252441E+04   -0.38157E-01   -0.70412E-03  4501   0.543E-02    0.911E-02
RMM:  27    -0.231120086835E+04   -0.18344E-01   -0.39268E-03  4568   0.441E-02    0.576E-02
RMM:  28    -0.231120893104E+04   -0.80627E-02   -0.23105E-03  4811   0.309E-02    0.310E-02
RMM:  29    -0.231121105212E+04   -0.21211E-02   -0.65206E-04  4384   0.208E-02    0.169E-02
RMM:  30    -0.231121176709E+04   -0.71498E-03   -0.25366E-04  3962   0.980E-03    0.978E-03
RMM:  31    -0.231121201292E+04   -0.24583E-03   -0.66265E-05  3495   0.798E-03    0.653E-03
RMM:  32    -0.231121211022E+04   -0.97296E-04   -0.29504E-05  3170   0.399E-03    0.288E-03
RMM:  33    -0.231121214535E+04   -0.35126E-04   -0.82811E-06  2858   0.340E-03    0.232E-03
RMM:  34    -0.231121216266E+04   -0.17315E-04   -0.44387E-06  2638   0.218E-03    0.126E-03
RMM:  35    -0.231121217299E+04   -0.10331E-04   -0.27585E-06  2540   0.193E-03    0.750E-04
RMM:  36    -0.231121217657E+04   -0.35774E-05   -0.16931E-06  2300   0.150E-03
   1 F= -.23325185E+04 E0= -.23325185E+04  d E =-.233252E+04  mag=     4.0001
       N       E                     dE             d eps       ncg     rms          rms(c)
DAV:   1    -0.231160173521E+04   -0.38956E+00   -0.80073E+01  4832   0.712E+00    0.175E+00
RMM:   2    -0.231176333511E+04   -0.16160E+00   -0.18061E+00  4557   0.101E+00    0.937E-01
RMM:   3    -0.231175010789E+04    0.13227E-01   -0.94441E-02  4484   0.450E-01    0.737E-01
RMM:   4    -0.231175690768E+04   -0.67998E-02   -0.31225E-02  5284   0.123E-01    0.106E+00
RMM:   5    -0.231174494345E+04    0.11964E-01   -0.24664E-02  5507   0.114E-01    0.233E-01
RMM:   6    -0.231174430705E+04    0.63640E-03   -0.19536E-03  5505   0.391E-02    0.160E-01
RMM:   7    -0.231174393295E+04    0.37410E-03   -0.51858E-04  4515   0.143E-02    0.844E-02
RMM:   8    -0.231174388213E+04    0.50823E-04   -0.44211E-04  4665   0.138E-02    0.825E-02
RMM:   9    -0.231174381260E+04    0.69530E-04   -0.20323E-04  4462   0.107E-02    0.201E-02
RMM:  10    -0.231174380828E+04    0.43188E-05   -0.33316E-05  3082   0.629E-03
   2 F= -.23330516E+04 E0= -.23330516E+04  d E =-.533072E+00  mag=     4.0000
       N       E                     dE             d eps       ncg     rms          rms(c)
DAV:   1    -0.231176688459E+04   -0.23072E-01   -0.68488E+01  4608   0.677E+00    0.165E+00
RMM:   2    -0.231189915124E+04   -0.13227E+00   -0.15037E+00  4555   0.934E-01    0.852E-01
RMM:   3    -0.231188587354E+04    0.13278E-01   -0.75332E-02  4486   0.412E-01    0.647E-01
RMM:   4    -0.231189272861E+04   -0.68551E-02   -0.28411E-02  5119   0.118E-01    0.102E+00
RMM:   5    -0.231188134773E+04    0.11381E-01   -0.19680E-02  5764   0.106E-01    0.204E-01
RMM:   6    -0.231188094993E+04    0.39781E-03   -0.16469E-03  5589   0.312E-02    0.164E-01
RMM:   7    -0.231188059242E+04    0.35751E-03   -0.45517E-04  4590   0.133E-02    0.745E-02
RMM:   8    -0.231188058315E+04    0.92648E-05   -0.38858E-04  4585   0.128E-02    0.837E-02
RMM:   9    -0.231188050993E+04    0.73224E-04   -0.16533E-04  4349   0.990E-03    0.205E-02
RMM:  10    -0.231188050963E+04    0.29569E-06   -0.31971E-05  3037   0.613E-03
   3 F= -.23331898E+04 E0= -.23331898E+04  d E =-.671290E+00  mag=     4.0000
       N       E                     dE             d eps       ncg     rms          rms(c)
DAV:   1    -0.231212749726E+04   -0.24699E+00   -0.22659E+01  4640   0.401E+00    0.924E-01
RMM:   2    -0.231216966885E+04   -0.42172E-01   -0.49769E-01  4635   0.536E-01    0.473E-01
RMM:   3    -0.231216461602E+04    0.50528E-02   -0.29749E-02  4529   0.248E-01    0.334E-01
RMM:   4    -0.231216737793E+04   -0.27619E-02   -0.10272E-02  4898   0.700E-02    0.602E-01
RMM:   5    -0.231216318526E+04    0.41927E-02   -0.49704E-03  5705   0.585E-02    0.909E-02
RMM:   6    -0.231216314845E+04    0.36817E-04   -0.52956E-04  4741   0.162E-02    0.838E-02
RMM:   7    -0.231216306646E+04    0.81983E-04   -0.12705E-04  3273   0.753E-03    0.420E-02
RMM:   8    -0.231216308592E+04   -0.19455E-04   -0.86466E-05  3244   0.681E-03    0.596E-02
RMM:   9    -0.231216304804E+04    0.37878E-04   -0.46173E-05  3009   0.632E-03    0.127E-02
RMM:  10    -0.231216304789E+04    0.15192E-06   -0.94464E-06  2894   0.429E-03
   4 F= -.23334731E+04 E0= -.23334731E+04  d E =-.283350E+00  mag=     4.0000
       N       E                     dE             d eps       ncg     rms          rms(c)
DAV:   1    -0.231221153389E+04   -0.48486E-01   -0.93735E+01  4520   0.816E+00    0.192E+00
RMM:   2    -0.231240518464E+04   -0.19365E+00   -0.22667E+00  4620   0.109E+00    0.945E-01
RMM:   3    -0.231238672568E+04    0.18459E-01   -0.13436E-01  4514   0.500E-01    0.657E-01
RMM:   4    -0.231239859102E+04   -0.11865E-01   -0.47815E-02  4824   0.148E-01    0.123E+00
RMM:   5    -0.231238099534E+04    0.17596E-01   -0.19984E-02  5841   0.118E-01    0.194E-01
RMM:   6    -0.231238078801E+04    0.20733E-03   -0.20409E-03  5937   0.293E-02    0.178E-01
RMM:   7    -0.231238043347E+04    0.35454E-03   -0.51908E-04  4483   0.126E-02    0.928E-02
RMM:   8    -0.231238046730E+04   -0.33825E-04   -0.47573E-04  4577   0.138E-02    0.118E-01
RMM:   9    -0.231238032131E+04    0.14599E-03   -0.29803E-04  4677   0.129E-02    0.336E-02
RMM:  10    -0.231238030569E+04    0.15623E-04   -0.46149E-05  3148   0.686E-03    0.118E-02
RMM:  11    -0.231238030650E+04   -0.81077E-06   -0.19420E-05  2974   0.428E-03
   5 F= -.23336919E+04 E0= -.23336919E+04  d E =-.502143E+00  mag=     4.0000
       N       E                     dE             d eps       ncg     rms          rms(c)
DAV:   1    -0.231244461707E+04   -0.64311E-01   -0.64284E+00  4736   0.204E+00    0.646E-01
RMM:   2    -0.231245810162E+04   -0.13485E-01   -0.16478E-01  4850   0.287E-01    0.275E-01
RMM:   3    -0.231245621533E+04    0.18863E-02   -0.10600E-02  4593   0.142E-01    0.172E-01
RMM:   4    -0.231245718292E+04   -0.96759E-03   -0.39590E-03  4722   0.422E-02    0.338E-01
RMM:   5    -0.231245588219E+04    0.13007E-02   -0.11301E-03  5075   0.310E-02    0.697E-02
RMM:   6    -0.231245587626E+04    0.59307E-05   -0.21721E-04  3601   0.842E-03    0.621E-02
RMM:   7    -0.231245583889E+04    0.37365E-04   -0.72470E-05  3080   0.745E-03    0.322E-02
RMM:   8    -0.231245584285E+04   -0.39533E-05   -0.44191E-05  2999   0.526E-03
   6 F= -.23337675E+04 E0= -.23337675E+04  d E =-.756149E-01  mag=     4.0000
       N       E                     dE             d eps       ncg     rms          rms(c)
DAV:   1    -0.231247105192E+04   -0.15213E-01   -0.26849E+01  4576   0.415E+00    0.128E+00
RMM:   2    -0.231252904162E+04   -0.57990E-01   -0.68813E-01  4780   0.612E-01    0.573E-01
RMM:   3    -0.231252123923E+04    0.78024E-02   -0.45709E-02  4577   0.290E-01    0.342E-01
RMM:   4    -0.231252308984E+04   -0.18506E-02   -0.18566E-02  4638   0.918E-02    0.516E-01
RMM:   5    -0.231251995142E+04    0.31384E-02   -0.35782E-03  4842   0.613E-02    0.143E-01
RMM:   6    -0.231251991096E+04    0.40460E-04   -0.86509E-04  5299   0.157E-02    0.136E-01
RMM:   7    -0.231251972278E+04    0.18818E-03   -0.42269E-04  4630   0.136E-02    0.606E-02
RMM:   8    -0.231251975731E+04   -0.34530E-04   -0.12220E-04  3281   0.792E-03    0.754E-02
RMM:   9    -0.231251969586E+04    0.61450E-04   -0.50373E-05  2902   0.576E-03    0.205E-02
RMM:  10    -0.231251969370E+04    0.21623E-05   -0.35684E-05  3079   0.454E-03
   7 F= -.23338315E+04 E0= -.23338315E+04  d E =-.139593E+00  mag=     4.0000
       N       E                     dE             d eps       ncg     rms          rms(c)
DAV:   1    -0.231256807315E+04   -0.48377E-01   -0.94023E+00  4560   0.228E+00    0.665E-01
RMM:   2    -0.231259119024E+04   -0.23117E-01   -0.26055E-01  5083   0.336E-01    0.338E-01
RMM:   3    -0.231258886825E+04    0.23220E-02   -0.18618E-02  4666   0.167E-01    0.222E-01
RMM:   4    -0.231259010682E+04   -0.12386E-02   -0.59680E-03  4756   0.490E-02    0.401E-01
RMM:   5    -0.231258824298E+04    0.18638E-02   -0.21263E-03  5376   0.379E-02    0.982E-02
RMM:   6    -0.231258820544E+04    0.37533E-04   -0.37566E-04  4012   0.105E-02    0.813E-02
RMM:   7    -0.231258812672E+04    0.78723E-04   -0.10115E-04  3084   0.787E-03    0.366E-02
RMM:   8    -0.231258812676E+04   -0.36496E-07   -0.77786E-05  3254   0.608E-03
   8 F= -.23339004E+04 E0= -.23339004E+04  d E =-.688921E-01  mag=     4.0000
       N       E                     dE             d eps       ncg     rms          rms(c)
DAV:   1    -0.231258817654E+04   -0.49815E-04   -0.13962E+01  4528   0.277E+00    0.809E-01
RMM:   2    -0.231262331739E+04   -0.35141E-01   -0.39639E-01  5150   0.410E-01    0.418E-01
RMM:   3    -0.231261980562E+04    0.35118E-02   -0.27215E-02  4759   0.189E-01    0.269E-01
RMM:   4    -0.231262113806E+04   -0.13324E-02   -0.10257E-02  4722   0.628E-02    0.447E-01
RMM:   5    -0.231261883229E+04    0.23058E-02   -0.26403E-03  5190   0.447E-02    0.139E-01
RMM:   6    -0.231261871533E+04    0.11697E-03   -0.59478E-04  4552   0.124E-02    0.975E-02
RMM:   7    -0.231261858942E+04    0.12590E-03   -0.16173E-04  3477   0.952E-03    0.350E-02
RMM:   8    -0.231261856792E+04    0.21507E-04   -0.14143E-04  4106   0.838E-03    0.337E-02
RMM:   9    -0.231261856121E+04    0.67068E-05   -0.39808E-05  2936   0.758E-03
   9 F= -.23339313E+04 E0= -.23339313E+04  d E =-.998184E-01  mag=     4.0000
       N       E                     dE             d eps       ncg     rms          rms(c)
DAV:   1    -0.231265684353E+04   -0.38276E-01   -0.57310E+00  4576   0.177E+00    0.483E-01
RMM:   2    -0.231267226559E+04   -0.15422E-01   -0.17071E-01  5225   0.241E-01    0.236E-01
RMM:   3    -0.231267137067E+04    0.89492E-03   -0.12427E-02  4696   0.121E-01    0.181E-01
RMM:   4    -0.231267190418E+04   -0.53351E-03   -0.21870E-03  5099   0.275E-02    0.285E-01
RMM:   5    -0.231267103725E+04    0.86693E-03   -0.12464E-03  5007   0.240E-02    0.920E-02
RMM:   6    -0.231267100852E+04    0.28736E-04   -0.32141E-04  3677   0.117E-02    0.662E-02
RMM:   7    -0.231267096312E+04    0.45394E-04   -0.60277E-05  2961   0.580E-03    0.256E-02
RMM:   8    -0.231267096421E+04   -0.10868E-05   -0.23482E-05  2912   0.385E-03
  10 F= -.23339843E+04 E0= -.23339843E+04  d E =-.529310E-01  mag=     4.0000
       N       E                     dE             d eps       ncg     rms          rms(c)
DAV:   1    -0.231260332669E+04    0.67636E-01   -0.51186E+01  4496   0.520E+00    0.154E+00
RMM:   2    -0.231275428896E+04   -0.15096E+00   -0.17029E+00  5293   0.729E-01    0.737E-01
RMM:   3    -0.231275200423E+04    0.22847E-02   -0.11316E-01  4700   0.357E-01    0.594E-01
RMM:   4    -0.231275559340E+04   -0.35892E-02   -0.19098E-02  5738   0.788E-02    0.819E-01
RMM:   5    -0.231274862813E+04    0.69653E-02   -0.13854E-02  5286   0.717E-02    0.260E-01
RMM:   6    -0.231274882797E+04   -0.19985E-03   -0.28290E-03  5257   0.357E-02    0.282E-01
RMM:   7    -0.231274792340E+04    0.90457E-03   -0.77882E-04  4783   0.147E-02    0.701E-02
RMM:   8    -0.231274796962E+04   -0.46213E-04   -0.37735E-04  3932   0.105E-02    0.831E-02
RMM:   9    -0.231274792202E+04    0.47593E-04   -0.17238E-04  3369   0.848E-03    0.281E-02
RMM:  10    -0.231274795378E+04   -0.31759E-04   -0.34934E-05  2988   0.557E-03    0.127E-02
RMM:  11    -0.231274800179E+04   -0.48005E-04   -0.28294E-05  2996   0.460E-03    0.639E-03
RMM:  12    -0.231274803094E+04   -0.29154E-04   -0.12772E-05  2859   0.423E-03    0.459E-03
RMM:  13    -0.231274805330E+04   -0.22360E-04   -0.13763E-05  2868   0.330E-03    0.290E-03
RMM:  14    -0.231274806155E+04   -0.82485E-05   -0.69653E-06  2830   0.345E-03
  11 F= -.23340627E+04 E0= -.23340627E+04  d E =-.131366E+00  mag=     4.0000
       N       E                     dE             d eps       ncg     rms          rms(c)
DAV:   1    -0.231278536211E+04   -0.37309E-01   -0.15677E+01  4504   0.313E+00    0.106E+00
RMM:   2    -0.231282809868E+04   -0.42737E-01   -0.48343E-01  5184   0.454E-01    0.409E-01
RMM:   3    -0.231282605926E+04    0.20394E-02   -0.31039E-02  4742   0.221E-01    0.347E-01
RMM:   4    -0.231282712168E+04   -0.10624E-02   -0.65570E-03  5283   0.521E-02    0.476E-01
RMM:   5    -0.231282458551E+04    0.25362E-02   -0.42539E-03  5455   0.486E-02    0.118E-01
RMM:   6    -0.231282455907E+04    0.26449E-04   -0.67285E-04  5206   0.189E-02    0.107E-01
RMM:   7    -0.231282443119E+04    0.12787E-03   -0.18931E-04  3341   0.774E-03    0.432E-02
RMM:   8    -0.231282444862E+04   -0.17427E-04   -0.10190E-04  3041   0.669E-03    0.560E-02
RMM:   9    -0.231282441228E+04    0.36340E-04   -0.48279E-05  2938   0.596E-03    0.139E-02
RMM:  10    -0.231282441224E+04    0.37777E-07   -0.12488E-05  2887   0.417E-03
  12 F= -.23341397E+04 E0= -.23341397E+04  d E =-.769778E-01  mag=     4.0000
       N       E                     dE             d eps       ncg     rms          rms(c)
DAV:   1    -0.231278168892E+04    0.42723E-01   -0.32354E+01  4496   0.450E+00    0.153E+00
RMM:   2    -0.231287388640E+04   -0.92197E-01   -0.10452E+00  5201   0.658E-01    0.600E-01
RMM:   3    -0.231286971079E+04    0.41756E-02   -0.67069E-02  4743   0.316E-01    0.511E-01
RMM:   4    -0.231287188813E+04   -0.21773E-02   -0.13979E-02  5398   0.750E-02    0.693E-01
RMM:   5    -0.231286647505E+04    0.54131E-02   -0.94175E-03  5434   0.692E-02    0.158E-01
RMM:   6    -0.231286639397E+04    0.81077E-04   -0.13200E-03  5544   0.271E-02    0.145E-01
RMM:   7    -0.231286616358E+04    0.23039E-03   -0.44634E-04  4046   0.109E-02    0.604E-02
RMM:   8    -0.231286618598E+04   -0.22393E-04   -0.21065E-04  3997   0.929E-03    0.648E-02
RMM:   9    -0.231286614694E+04    0.39034E-04   -0.71722E-05  2939   0.687E-03    0.282E-02
RMM:  10    -0.231286614681E+04    0.13638E-06   -0.21731E-05  2915   0.427E-03
  13 F= -.23341821E+04 E0= -.23341821E+04  d E =-.119439E+00  mag=     4.0000
       N       E                     dE             d eps       ncg     rms          rms(c)
DAV:   1    -0.231288198309E+04   -0.15836E-01   -0.22418E+01  4496   0.341E+00    0.988E-01
RMM:   2    -0.231294549432E+04   -0.63511E-01   -0.68609E-01  5238   0.493E-01    0.495E-01
RMM:   3    -0.231294388154E+04    0.16128E-02   -0.43858E-02  4766   0.240E-01    0.442E-01
RMM:   4    -0.231294442375E+04   -0.54221E-03   -0.81286E-03  5845   0.537E-02    0.498E-01
RMM:   5    -0.231294196747E+04    0.24563E-02   -0.57052E-03  5084   0.481E-02    0.194E-01
RMM:   6    -0.231294181668E+04    0.15079E-03   -0.12387E-03  4909   0.246E-02    0.155E-01
RMM:   7    -0.231294158761E+04    0.22906E-03   -0.34566E-04  3843   0.102E-02    0.641E-02
RMM:   8    -0.231294160369E+04   -0.16081E-04   -0.17175E-04  3036   0.794E-03    0.644E-02
RMM:   9    -0.231294156603E+04    0.37662E-04   -0.57044E-05  2975   0.552E-03    0.142E-02
RMM:  10    -0.231294157354E+04   -0.75095E-05   -0.14634E-05  2909   0.377E-03
  14 F= -.23342578E+04 E0= -.23342578E+04  d E =-.756542E-01  mag=     4.0000
       N       E                     dE             d eps       ncg     rms          rms(c)
DAV:   1    -0.231285856718E+04    0.82999E-01   -0.44928E+01  4496   0.492E+00    0.140E+00
RMM:   2    -0.231299404374E+04   -0.13548E+00   -0.14588E+00  5235   0.714E-01    0.728E-01
RMM:   3    -0.231299005167E+04    0.39921E-02   -0.93025E-02  4773   0.346E-01    0.622E-01
RMM:   4    -0.231299192731E+04   -0.18756E-02   -0.17834E-02  5850   0.785E-02    0.754E-01
RMM:   5    -0.231298607666E+04    0.58507E-02   -0.13588E-02  5189   0.714E-02    0.258E-01
RMM:   6    -0.231298584667E+04    0.22999E-03   -0.25570E-03  5287   0.346E-02    0.229E-01
RMM:   7    -0.231298531085E+04    0.53582E-03   -0.81682E-04  4793   0.148E-02    0.935E-02
RMM:   8    -0.231298540823E+04   -0.97385E-04   -0.47724E-04  3696   0.118E-02    0.114E-01
RMM:   9    -0.231298527203E+04    0.13620E-03   -0.16525E-04  3235   0.821E-03    0.229E-02
RMM:  10    -0.231298528883E+04   -0.16798E-04   -0.34673E-05  2966   0.508E-03    0.117E-02
RMM:  11    -0.231298530856E+04   -0.19727E-04   -0.18090E-05  2918   0.362E-03    0.604E-03
RMM:  12    -0.231298531649E+04   -0.79357E-05   -0.76465E-06  2859   0.343E-03
  15 F= -.23343016E+04 E0= -.23343016E+04  d E =-.119475E+00  mag=     4.0000
       N       E                     dE             d eps       ncg     rms          rms(c)
DAV:   1    -0.231298358389E+04    0.17247E-02   -0.30328E+01  4496   0.402E+00    0.126E+00
RMM:   2    -0.231306975837E+04   -0.86174E-01   -0.95762E-01  5095   0.584E-01    0.576E-01
RMM:   3    -0.231306661598E+04    0.31424E-02   -0.62345E-02  4638   0.295E-01    0.551E-01
RMM:   4    -0.231306652639E+04    0.89592E-04   -0.10825E-02  5650   0.632E-02    0.561E-01
RMM:   5    -0.231306317802E+04    0.33484E-02   -0.97728E-03  5199   0.607E-02    0.212E-01
RMM:   6    -0.231306286282E+04    0.31520E-03   -0.16378E-03  5282   0.301E-02    0.160E-01
RMM:   7    -0.231306257259E+04    0.29023E-03   -0.43695E-04  4204   0.114E-02    0.687E-02
RMM:   8    -0.231306260959E+04   -0.36998E-04   -0.26044E-04  3376   0.942E-03    0.829E-02
RMM:   9    -0.231306253468E+04    0.74904E-04   -0.10414E-04  3317   0.744E-03    0.186E-02
RMM:  10    -0.231306254533E+04   -0.10648E-04   -0.27041E-05  2935   0.525E-03    0.954E-03
RMM:  11    -0.231306255859E+04   -0.13265E-04   -0.18884E-05  2898   0.406E-03    0.546E-03
RMM:  12    -0.231306256642E+04   -0.78219E-05   -0.88504E-06  2854   0.395E-03
  16 F= -.23343786E+04 E0= -.23343786E+04  d E =-.770392E-01  mag=     4.0000
       N       E                     dE             d eps       ncg     rms          rms(c)
DAV:   1    -0.231300311522E+04    0.59443E-01   -0.32391E+01  4496   0.413E+00    0.133E+00
RMM:   2    -0.231309774802E+04   -0.94633E-01   -0.10615E+00  5069   0.605E-01    0.606E-01
RMM:   3    -0.231309382717E+04    0.39209E-02   -0.68390E-02  4682   0.300E-01    0.581E-01
RMM:   4    -0.231309364331E+04    0.18385E-03   -0.11795E-02  5727   0.647E-02    0.586E-01
RMM:   5    -0.231309005050E+04    0.35928E-02   -0.11126E-02  5153   0.619E-02    0.218E-01
RMM:   6    -0.231308970533E+04    0.34516E-03   -0.17809E-03  5251   0.318E-02    0.167E-01
RMM:   7    -0.231308937788E+04    0.32745E-03   -0.50565E-04  4284   0.116E-02    0.706E-02
RMM:   8    -0.231308942437E+04   -0.46481E-04   -0.30250E-04  3506   0.993E-03    0.899E-02
RMM:   9    -0.231308933517E+04    0.89196E-04   -0.12435E-04  3319   0.757E-03    0.202E-02
RMM:  10    -0.231308934398E+04   -0.88098E-05   -0.29447E-05  2937   0.533E-03
  17 F= -.23344050E+04 E0= -.23344050E+04  d E =-.103386E+00  mag=     4.0000
       N       E                     dE             d eps       ncg     rms          rms(c)
DAV:   1    -0.231303416299E+04    0.55172E-01   -0.39187E+01  4496   0.421E+00    0.137E+00
RMM:   2    -0.231315107450E+04   -0.11691E+00   -0.13190E+00  5010   0.621E-01    0.676E-01
RMM:   3    -0.231314640490E+04    0.46696E-02   -0.79724E-02  4647   0.299E-01    0.664E-01
RMM:   4    -0.231314514600E+04    0.12589E-02   -0.12443E-02  6019   0.634E-02    0.595E-01
RMM:   5    -0.231314178129E+04    0.33647E-02   -0.14771E-02  4843   0.624E-02    0.233E-01
RMM:   6    -0.231314135769E+04    0.42360E-03   -0.21403E-03  4868   0.368E-02    0.178E-01
RMM:   7    -0.231314099105E+04    0.36664E-03   -0.70917E-04  4250   0.131E-02    0.686E-02
RMM:   8    -0.231314108265E+04   -0.91599E-04   -0.40515E-04  3664   0.105E-02    0.986E-02
RMM:   9    -0.231314099529E+04    0.87360E-04   -0.13795E-04  3135   0.713E-03    0.237E-02
RMM:  10    -0.231314102380E+04   -0.28507E-04   -0.30532E-05  2938   0.434E-03    0.115E-02
RMM:  11    -0.231314106627E+04   -0.42470E-04   -0.18941E-05  2910   0.341E-03    0.631E-03
RMM:  12    -0.231314108206E+04   -0.15794E-04   -0.84363E-06  2852   0.321E-03    0.354E-03
RMM:  13    -0.231314109663E+04   -0.14568E-04   -0.72847E-06  2767   0.226E-03    0.363E-03
RMM:  14    -0.231314110331E+04   -0.66845E-05   -0.36362E-06  2720   0.234E-03
  18 F= -.23344556E+04 E0= -.23344556E+04  d E =-.506413E-01  mag=     4.0000
       N       E                     dE             d eps       ncg     rms          rms(c)
DAV:   1    -0.231310668290E+04    0.34414E-01   -0.18116E+01  4520   0.285E+00    0.952E-01
RMM:   2    -0.231315779339E+04   -0.51110E-01   -0.58489E-01  4994   0.419E-01    0.453E-01
RMM:   3    -0.231315559995E+04    0.21934E-02   -0.35124E-02  4633   0.203E-01    0.461E-01
RMM:   4    -0.231315484816E+04    0.75179E-03   -0.55574E-03  5899   0.427E-02    0.397E-01
RMM:   5    -0.231315335972E+04    0.14884E-02   -0.58502E-03  4793   0.416E-02    0.153E-01
RMM:   6    -0.231315321909E+04    0.14064E-03   -0.10234E-03  4471   0.252E-02    0.113E-01
RMM:   7    -0.231315306223E+04    0.15686E-03   -0.28106E-04  3400   0.852E-03    0.417E-02
RMM:   8    -0.231315308282E+04   -0.20593E-04   -0.15929E-04  3173   0.688E-03    0.553E-02
RMM:   9    -0.231315305219E+04    0.30636E-04   -0.49267E-05  2941   0.501E-03    0.165E-02
RMM:  10    -0.231315305533E+04   -0.31430E-05   -0.11655E-05  2875   0.299E-03
  19 F= -.23344667E+04 E0= -.23344667E+04  d E =-.617327E-01  mag=     4.0000
       N       E                     dE             d eps       ncg     rms          rms(c)
DAV:   1    -0.231316040601E+04   -0.73538E-02   -0.25362E+01  4496   0.339E+00    0.115E+00
RMM:   2    -0.231323133401E+04   -0.70928E-01   -0.77530E-01  4862   0.504E-01    0.572E-01
RMM:   3    -0.231322658865E+04    0.47454E-02   -0.51385E-02  4572   0.245E-01    0.578E-01
RMM:   4    -0.231322555024E+04    0.10384E-02   -0.96191E-03  5612   0.573E-02    0.519E-01
RMM:   5    -0.231322315627E+04    0.23940E-02   -0.84209E-03  5135   0.539E-02    0.226E-01
RMM:   6    -0.231322274600E+04    0.41027E-03   -0.14462E-03  5123   0.274E-02    0.150E-01
RMM:   7    -0.231322254183E+04    0.20417E-03   -0.55104E-04  4121   0.114E-02    0.802E-02
RMM:   8    -0.231322253617E+04    0.56657E-05   -0.25146E-04  3179   0.915E-03    0.719E-02
RMM:   9    -0.231322248823E+04    0.47933E-04   -0.62833E-05  2972   0.583E-03    0.169E-02
RMM:  10    -0.231322249626E+04   -0.80264E-05   -0.24366E-05  2938   0.416E-03
  20 F= -.23345347E+04 E0= -.23345347E+04  d E =-.679506E-01  mag=     4.0000
       N       E                     dE             d eps       ncg     rms          rms(c)
DAV:   1    -0.231320815811E+04    0.14330E-01   -0.12830E+01  4512   0.241E+00    0.814E-01
RMM:   2    -0.231324240749E+04   -0.34249E-01   -0.37657E-01  4871   0.358E-01    0.400E-01
RMM:   3    -0.231323992844E+04    0.24791E-02   -0.24652E-02  4591   0.173E-01    0.414E-01
RMM:   4    -0.231323924502E+04    0.68342E-03   -0.45518E-03  5520   0.401E-02    0.357E-01
RMM:   5    -0.231323811408E+04    0.11309E-02   -0.41197E-03  5089   0.385E-02    0.157E-01
RMM:   6    -0.231323791660E+04    0.19749E-03   -0.72038E-04  4608   0.198E-02    0.101E-01
RMM:   7    -0.231323782198E+04    0.94619E-04   -0.22326E-04  3332   0.782E-03    0.543E-02
RMM:   8    -0.231323781581E+04    0.61700E-05   -0.10917E-04  3009   0.667E-03    0.461E-02
RMM:   9    -0.231323779760E+04    0.18211E-04   -0.33297E-05  2935   0.437E-03    0.119E-02
RMM:  10    -0.231323780170E+04   -0.41065E-05   -0.11522E-05  2905   0.336E-03
  21 F= -.23345489E+04 E0= -.23345489E+04  d E =-.821446E-01  mag=     4.0000
       N       E                     dE             d eps       ncg     rms          rms(c)
DAV:   1    -0.231325289499E+04   -0.15097E-01   -0.25497E+01  4496   0.332E+00    0.105E+00
RMM:   2    -0.231331648688E+04   -0.63592E-01   -0.69442E-01  4716   0.484E-01    0.562E-01
RMM:   3    -0.231331234194E+04    0.41449E-02   -0.48275E-02  4551   0.233E-01    0.560E-01
RMM:   4    -0.231331127324E+04    0.10687E-02   -0.90921E-03  5631   0.554E-02    0.503E-01
RMM:   5    -0.231330894192E+04    0.23313E-02   -0.82827E-03  5054   0.530E-02    0.246E-01
RMM:   6    -0.231330843472E+04    0.50720E-03   -0.15871E-03  5103   0.293E-02    0.159E-01
RMM:   7    -0.231330817035E+04    0.26436E-03   -0.60409E-04  4374   0.120E-02    0.807E-02
RMM:   8    -0.231330814586E+04    0.24497E-04   -0.29162E-04  3362   0.101E-02    0.726E-02
RMM:   9    -0.231330808236E+04    0.63492E-04   -0.91344E-05  3089   0.647E-03    0.185E-02
RMM:  10    -0.231330807912E+04    0.32456E-05   -0.32475E-05  2961   0.504E-03
  22 F= -.23346174E+04 E0= -.23346174E+04  d E =-.685155E-01  mag=     4.0000
       N       E                     dE             d eps       ncg     rms          rms(c)
DAV:   1    -0.231322040566E+04    0.87677E-01   -0.49543E+01  4496   0.469E+00    0.153E+00
RMM:   2    -0.231335841241E+04   -0.13801E+00   -0.15257E+00  4705   0.703E-01    0.838E-01
RMM:   3    -0.231334859200E+04    0.98204E-02   -0.10268E-01  4553   0.337E-01    0.785E-01
RMM:   4    -0.231334701623E+04    0.15758E-02   -0.19289E-02  5761   0.791E-02    0.746E-01
RMM:   5    -0.231334196182E+04    0.50544E-02   -0.23967E-02  5023   0.812E-02    0.366E-01
RMM:   6    -0.231334071595E+04    0.12459E-02   -0.34713E-03  5153   0.457E-02    0.248E-01
RMM:   7    -0.231333998977E+04    0.72617E-03   -0.16885E-03  5039   0.186E-02    0.113E-01
RMM:   8    -0.231334000232E+04   -0.12550E-04   -0.92980E-04  4576   0.155E-02    0.124E-01
RMM:   9    -0.231333981584E+04    0.18648E-03   -0.22973E-04  3743   0.896E-03    0.302E-02
RMM:  10    -0.231333981698E+04   -0.11392E-05   -0.95013E-05  3201   0.663E-03
  23 F= -.23346465E+04 E0= -.23346465E+04  d E =-.976136E-01  mag=     4.0000
       N       E                     dE             d eps       ncg     rms          rms(c)
DAV:   1    -0.231335596466E+04   -0.16149E-01   -0.10054E+01  4544   0.208E+00    0.673E-01
RMM:   2    -0.231337870346E+04   -0.22739E-01   -0.26179E-01  4687   0.294E-01    0.336E-01
RMM:   3    -0.231337725451E+04    0.14490E-02   -0.15558E-02  4538   0.138E-01    0.354E-01
RMM:   4    -0.231337659148E+04    0.66303E-03   -0.27539E-03  5620   0.304E-02    0.282E-01
RMM:   5    -0.231337589889E+04    0.69259E-03   -0.35423E-03  4681   0.320E-02    0.140E-01
RMM:   6    -0.231337576077E+04    0.13811E-03   -0.59141E-04  4032   0.208E-02    0.894E-02
RMM:   7    -0.231337567480E+04    0.85977E-04   -0.14998E-04  3088   0.636E-03    0.343E-02
RMM:   8    -0.231337568774E+04   -0.12940E-04   -0.97040E-05  3036   0.562E-03    0.391E-02
RMM:   9    -0.231337567724E+04    0.10501E-04   -0.32762E-05  2946   0.409E-03    0.113E-02
RMM:  10    -0.231337568295E+04   -0.57126E-05   -0.91677E-06  2846   0.272E-03
  24 F= -.23346811E+04 E0= -.23346811E+04  d E =-.345838E-01  mag=     4.0000
       N       E                     dE             d eps       ncg     rms          rms(c)
DAV:   1    -0.231319180095E+04    0.18388E+00   -0.88082E+01  4496   0.618E+00    0.238E+00
RMM:   2    -0.231348259372E+04   -0.29079E+00   -0.35122E+00  4677   0.913E-01    0.119E+00
RMM:   3    -0.231344461409E+04    0.37980E-01   -0.17256E-01  4547   0.410E-01    0.110E+00
RMM:   4    -0.231344035172E+04    0.42624E-02   -0.32774E-02  6027   0.965E-02    0.973E-01
RMM:   5    -0.231343371652E+04    0.66352E-02   -0.66572E-02  4775   0.109E-01    0.500E-01
RMM:   6    -0.231343135936E+04    0.23572E-02   -0.75727E-03  4830   0.714E-02    0.359E-01
RMM:   7    -0.231342959728E+04    0.17621E-02   -0.43310E-03  5012   0.246E-02    0.141E-01
RMM:   8    -0.231342973835E+04   -0.14108E-03   -0.30950E-03  4921   0.221E-02    0.164E-01
RMM:   9    -0.231342944885E+04    0.28950E-03   -0.48282E-04  3766   0.111E-02    0.530E-02
RMM:  10    -0.231342945954E+04   -0.10687E-04   -0.34606E-04  3224   0.744E-03    0.212E-02
RMM:  11    -0.231342951358E+04   -0.54042E-04   -0.48733E-05  3006   0.562E-03    0.156E-02
RMM:  12    -0.231342953805E+04   -0.24470E-04   -0.45437E-05  2967   0.432E-03    0.533E-03
RMM:  13    -0.231342955936E+04   -0.21312E-04   -0.15639E-05  2881   0.320E-03    0.801E-03
RMM:  14    -0.231342956676E+04   -0.73942E-05   -0.91589E-06  2847   0.296E-03
  25 F= -.23347311E+04 E0= -.23347311E+04  d E =-.845735E-01  mag=     4.0000
       N       E                     dE             d eps       ncg     rms          rms(c)
DAV:   1    -0.231346461841E+04   -0.35059E-01   -0.66993E+00  4536   0.194E+00    0.690E-01
RMM:   2    -0.231347938197E+04   -0.14764E-01   -0.17628E-01  4577   0.290E-01    0.319E-01
RMM:   3    -0.231347842050E+04    0.96147E-03   -0.10739E-02  4515   0.131E-01    0.391E-01
RMM:   4    -0.231347727734E+04    0.11432E-02   -0.27437E-03  4993   0.345E-02    0.251E-01
RMM:   5    -0.231347657695E+04    0.70039E-03   -0.28292E-03  5332   0.362E-02    0.795E-02
RMM:   6    -0.231347655403E+04    0.22921E-04   -0.28722E-04  4771   0.146E-02    0.898E-02
RMM:   7    -0.231347645149E+04    0.10254E-03   -0.13931E-04  3237   0.656E-03    0.250E-02
RMM:   8    -0.231347644165E+04    0.98333E-05   -0.30423E-05  2968   0.496E-03
  26 F= -.23347769E+04 E0= -.23347769E+04  d E =-.458273E-01  mag=     4.0000
       N       E                     dE             d eps       ncg     rms          rms(c)
DAV:   1    -0.231348087242E+04   -0.44209E-02   -0.93723E+00  4496   0.230E+00    0.826E-01
RMM:   2    -0.231350169555E+04   -0.20823E-01   -0.25199E-01  4584   0.346E-01    0.383E-01
RMM:   3    -0.231350027862E+04    0.14169E-02   -0.15356E-02  4517   0.156E-01    0.461E-01
RMM:   4    -0.231349873413E+04    0.15445E-02   -0.39138E-03  5147   0.410E-02    0.305E-01
RMM:   5    -0.231349784507E+04    0.88906E-03   -0.43077E-03  5294   0.432E-02    0.145E-01
RMM:   6    -0.231349760218E+04    0.24289E-03   -0.52584E-04  5278   0.183E-02    0.809E-02
RMM:   7    -0.231349753104E+04    0.71148E-04   -0.24798E-04  3688   0.793E-03    0.518E-02
RMM:   8    -0.231349751580E+04    0.15236E-04   -0.96201E-05  2985   0.688E-03    0.446E-02
RMM:   9    -0.231349748906E+04    0.26743E-04   -0.28106E-05  2922   0.476E-03    0.131E-02
RMM:  10    -0.231349748524E+04    0.38155E-05   -0.22958E-05  2923   0.436E-03
  27 F= -.23347967E+04 E0= -.23347967E+04  d E =-.656243E-01  mag=     4.0000
       N       E                     dE             d eps       ncg     rms          rms(c)
DAV:   1    -0.231352972743E+04   -0.32238E-01   -0.21557E+00  4688   0.118E+00    0.374E-01
RMM:   2    -0.231353403391E+04   -0.43065E-02   -0.57087E-02  4924   0.175E-01    0.181E-01
RMM:   3    -0.231353379263E+04    0.24128E-03   -0.47028E-03  4647   0.887E-02    0.217E-01
RMM:   4    -0.231353351065E+04    0.28198E-03   -0.10478E-03  5104   0.204E-02    0.153E-01
RMM:   5    -0.231353325855E+04    0.25210E-03   -0.41655E-04  4763   0.164E-02    0.377E-02
RMM:   6    -0.231353327714E+04   -0.18592E-04   -0.11746E-04  3385   0.861E-03    0.464E-02
RMM:   7    -0.231353325390E+04    0.23248E-04   -0.46885E-05  2918   0.554E-03    0.161E-02
RMM:   8    -0.231353325269E+04    0.12024E-05   -0.95288E-06  2903   0.315E-03
  28 F= -.23348319E+04 E0= -.23348319E+04  d E =-.352526E-01  mag=     4.0000
       N       E                     dE             d eps       ncg     rms          rms(c)
DAV:   1    -0.231354777250E+04   -0.14519E-01   -0.54407E+00  4496   0.188E+00    0.585E-01
RMM:   2    -0.231355872568E+04   -0.10953E-01   -0.14235E-01  4749   0.275E-01    0.294E-01
RMM:   3    -0.231355812223E+04    0.60345E-03   -0.11495E-02  4617   0.134E-01    0.369E-01
RMM:   4    -0.231355716303E+04    0.95920E-03   -0.26560E-03  5307   0.327E-02    0.235E-01
RMM:   5    -0.231355657757E+04    0.58546E-03   -0.10578E-03  5155   0.253E-02    0.711E-02
RMM:   6    -0.231355663237E+04   -0.54802E-04   -0.36831E-04  4548   0.131E-02    0.913E-02
RMM:   7    -0.231355653586E+04    0.96508E-04   -0.14023E-04  3205   0.730E-03    0.283E-02
RMM:   8    -0.231355653532E+04    0.53796E-06   -0.33960E-05  2930   0.493E-03
  29 F= -.23348544E+04 E0= -.23348544E+04  d E =-.577117E-01  mag=     4.0000
       N       E                     dE             d eps       ncg     rms          rms(c)
DAV:   1    -0.231357712448E+04   -0.20589E-01   -0.36394E+00  4544   0.163E+00    0.464E-01
RMM:   2    -0.231358694704E+04   -0.98226E-02   -0.11278E-01  4906   0.247E-01    0.210E-01
RMM:   3    -0.231358630416E+04    0.64288E-03   -0.79700E-03  4637   0.122E-01    0.228E-01
RMM:   4    -0.231358602757E+04    0.27659E-03   -0.13618E-03  5427   0.255E-02    0.184E-01
RMM:   5    -0.231358569362E+04    0.33395E-03   -0.12610E-03  5038   0.248E-02    0.106E-01
RMM:   6    -0.231358558672E+04    0.10690E-03   -0.26416E-04  4223   0.134E-02    0.552E-02
RMM:   7    -0.231358555603E+04    0.30692E-04   -0.51816E-05  2967   0.480E-03    0.292E-02
RMM:   8    -0.231358554657E+04    0.94618E-05   -0.23349E-05  2906   0.392E-03
  30 F= -.23348828E+04 E0= -.23348828E+04  d E =-.283903E-01  mag=     4.0000
       N       E                     dE             d eps       ncg     rms          rms(c)
DAV:   1    -0.231358301749E+04    0.25385E-02   -0.10564E+01  4496   0.279E+00    0.808E-01
RMM:   2    -0.231361214115E+04   -0.29124E-01   -0.33903E-01  4869   0.424E-01    0.359E-01
RMM:   3    -0.231360961821E+04    0.25229E-02   -0.22800E-02  4611   0.207E-01    0.339E-01
RMM:   4    -0.231360957291E+04    0.45303E-04   -0.42566E-03  5440   0.443E-02    0.362E-01
RMM:   5    -0.231360812877E+04    0.14441E-02   -0.38993E-03  5261   0.428E-02    0.146E-01
RMM:   6    -0.231360798145E+04    0.14732E-03   -0.73547E-04  5216   0.212E-02    0.103E-01
RMM:   7    -0.231360785339E+04    0.12806E-03   -0.15419E-04  3396   0.746E-03    0.452E-02
RMM:   8    -0.231360783815E+04    0.15244E-04   -0.74873E-05  2971   0.622E-03    0.413E-02
RMM:   9    -0.231360780898E+04    0.29165E-04   -0.48880E-05  3147   0.565E-03    0.120E-02
RMM:  10    -0.231360780188E+04    0.70967E-05   -0.14641E-05  2911   0.486E-03
  31 F= -.23349040E+04 E0= -.23349040E+04  d E =-.495770E-01  mag=     4.0000
       N       E                     dE             d eps       ncg     rms          rms(c)
DAV:   1    -0.231362132529E+04   -0.13516E-01   -0.31078E+00  4552   0.155E+00    0.395E-01
RMM:   2    -0.231363058547E+04   -0.92602E-02   -0.10553E-01  5124   0.234E-01    0.192E-01
RMM:   3    -0.231363018968E+04    0.39579E-03   -0.75877E-03  4651   0.118E-01    0.213E-01
RMM:   4    -0.231362986740E+04    0.32228E-03   -0.11156E-03  5666   0.229E-02    0.152E-01
RMM:   5    -0.231362971900E+04    0.14840E-03   -0.97895E-04  4845   0.210E-02    0.121E-01
RMM:   6    -0.231362958622E+04    0.13278E-03   -0.26305E-04  4013   0.133E-02    0.528E-02
RMM:   7    -0.231362956644E+04    0.19777E-04   -0.48183E-05  2950   0.491E-03    0.262E-02
RMM:   8    -0.231362956053E+04    0.59163E-05   -0.17038E-05  2911   0.357E-03
  32 F= -.23349253E+04 E0= -.23349253E+04  d E =-.212979E-01  mag=     4.0000
       N       E                     dE             d eps       ncg     rms          rms(c)
DAV:   1    -0.231362009215E+04    0.94743E-02   -0.10808E+01  4496   0.289E+00    0.757E-01
RMM:   2    -0.231365307444E+04   -0.32982E-01   -0.38033E-01  5065   0.438E-01    0.372E-01
RMM:   3    -0.231365177322E+04    0.13012E-02   -0.27183E-02  4663   0.219E-01    0.446E-01
RMM:   4    -0.231365008965E+04    0.16836E-02   -0.40139E-03  6016   0.432E-02    0.273E-01
RMM:   5    -0.231364976444E+04    0.32521E-03   -0.35450E-03  4884   0.379E-02    0.250E-01
RMM:   6    -0.231364916361E+04    0.60083E-03   -0.10971E-03  4961   0.250E-02    0.101E-01
RMM:   7    -0.231364908706E+04    0.76547E-04   -0.20557E-04  3617   0.873E-03    0.535E-02
RMM:   8    -0.231364905868E+04    0.28382E-04   -0.69954E-05  2927   0.678E-03    0.309E-02
RMM:   9    -0.231364904808E+04    0.10599E-04   -0.49719E-05  2982   0.435E-03    0.127E-02
RMM:  10    -0.231364904691E+04    0.11717E-05   -0.78435E-06  2883   0.353E-03
  33 F= -.23349439E+04 E0= -.23349439E+04  d E =-.399235E-01  mag=     4.0000
       N       E                     dE             d eps       ncg     rms          rms(c)
DAV:   1    -0.231366338172E+04   -0.14334E-01   -0.26097E+00  4544   0.151E+00    0.379E-01
RMM:   2    -0.231367239222E+04   -0.90105E-02   -0.10190E-01  5374   0.235E-01    0.203E-01
RMM:   3    -0.231367283226E+04   -0.44004E-03   -0.87990E-03  4840   0.118E-01    0.272E-01
RMM:   4    -0.231367205979E+04    0.77247E-03   -0.13220E-03  5693   0.243E-02    0.127E-01
RMM:   5    -0.231367202778E+04    0.32005E-04   -0.77799E-04  4932   0.194E-02    0.139E-01
RMM:   6    -0.231367183976E+04    0.18803E-03   -0.28975E-04  4118   0.122E-02    0.541E-02
RMM:   7    -0.231367181447E+04    0.25288E-04   -0.54814E-05  3122   0.579E-03    0.231E-02
RMM:   8    -0.231367181036E+04    0.41138E-05   -0.20290E-05  2896   0.442E-03
  34 F= -.23349664E+04 E0= -.23349664E+04  d E =-.225047E-01  mag=     4.0000
       N       E                     dE             d eps       ncg     rms          rms(c)
DAV:   1    -0.231365302361E+04    0.18791E-01   -0.10926E+01  4496   0.309E+00    0.770E-01
RMM:   2    -0.231369150003E+04   -0.38476E-01   -0.42779E-01  5324   0.480E-01    0.437E-01
RMM:   3    -0.231369374106E+04   -0.22410E-02   -0.37643E-02  4816   0.244E-01    0.604E-01
RMM:   4    -0.231368979333E+04    0.39477E-02   -0.57962E-03  5974   0.505E-02    0.258E-01
RMM:   5    -0.231368991912E+04   -0.12579E-03   -0.33558E-03  5098   0.385E-02    0.319E-01
RMM:   6    -0.231368886099E+04    0.10581E-02   -0.14322E-03  5326   0.251E-02    0.106E-01
RMM:   7    -0.231368876584E+04    0.95146E-04   -0.26832E-04  4164   0.110E-02    0.543E-02
RMM:   8    -0.231368873817E+04    0.27673E-04   -0.97822E-05  2967   0.806E-03    0.381E-02
RMM:   9    -0.231368871090E+04    0.27267E-04   -0.30433E-05  2937   0.450E-03    0.158E-02
RMM:  10    -0.231368869905E+04    0.11852E-04   -0.19068E-05  2944   0.439E-03    0.599E-03
RMM:  11    -0.231368869654E+04    0.25054E-05   -0.91426E-06  2858   0.400E-03
  35 F= -.23349827E+04 E0= -.23349827E+04  d E =-.388531E-01  mag=     4.0000
       N       E                     dE             d eps       ncg     rms          rms(c)
DAV:   1    -0.231369706786E+04   -0.83688E-02   -0.29067E+00  4608   0.159E+00    0.375E-01
RMM:   2    -0.231370809068E+04   -0.11023E-01   -0.11991E-01  5421   0.247E-01    0.209E-01
RMM:   3    -0.231370850323E+04   -0.41255E-03   -0.10109E-02  4892   0.121E-01    0.258E-01
RMM:   4    -0.231370785018E+04    0.65304E-03   -0.13798E-03  5795   0.241E-02    0.135E-01
RMM:   5    -0.231370776641E+04    0.83774E-04   -0.86877E-04  4807   0.206E-02    0.131E-01
RMM:   6    -0.231370761961E+04    0.14680E-03   -0.28521E-04  3977   0.133E-02    0.626E-02
RMM:   7    -0.231370758490E+04    0.34708E-04   -0.51574E-05  3041   0.563E-03    0.186E-02
RMM:   8    -0.231370758546E+04   -0.56261E-06   -0.18761E-05  2918   0.420E-03
  36 F= -.23350013E+04 E0= -.23350013E+04  d E =-.185833E-01  mag=     4.0000
       N       E                     dE             d eps       ncg     rms          rms(c)
DAV:   1    -0.231363756763E+04    0.70017E-01   -0.26057E+01  4496   0.478E+00    0.114E+00
RMM:   2    -0.231373966060E+04   -0.10209E+00   -0.11056E+00  5366   0.750E-01    0.673E-01
RMM:   3    -0.231374393181E+04   -0.42712E-02   -0.94005E-02  4818   0.373E-01    0.843E-01
RMM:   4    -0.231373658834E+04    0.73435E-02   -0.12676E-02  6217   0.742E-02    0.409E-01
RMM:   5    -0.231373625183E+04    0.33651E-03   -0.80591E-03  4992   0.588E-02    0.436E-01
RMM:   6    -0.231373459876E+04    0.16531E-02   -0.33082E-03  5207   0.398E-02    0.208E-01
RMM:   7    -0.231373421195E+04    0.38680E-03   -0.69154E-04  4666   0.173E-02    0.779E-02
RMM:   8    -0.231373418349E+04    0.28465E-04   -0.25315E-04  3404   0.124E-02    0.661E-02
RMM:   9    -0.231373412670E+04    0.56787E-04   -0.10187E-04  3222   0.659E-03    0.230E-02
RMM:  10    -0.231373411775E+04    0.89539E-05   -0.23692E-05  2940   0.504E-03
  37 F= -.23350269E+04 E0= -.23350269E+04  d E =-.441651E-01  mag=     4.0000
       N       E                     dE             d eps       ncg     rms          rms(c)
DAV:   1    -0.231372925094E+04    0.48758E-02   -0.71896E+00  4528   0.236E+00    0.593E-01
RMM:   2    -0.231375557471E+04   -0.26324E-01   -0.30251E-01  5353   0.365E-01    0.298E-01
RMM:   3    -0.231375540181E+04    0.17290E-03   -0.22936E-02  4774   0.182E-01    0.281E-01
RMM:   4    -0.231375520354E+04    0.19827E-03   -0.30734E-03  6060   0.338E-02    0.259E-01
RMM:   5    -0.231375460360E+04    0.59994E-03   -0.21510E-03  4800   0.287E-02    0.148E-01
RMM:   6    -0.231375455890E+04    0.44703E-04   -0.64091E-04  4422   0.190E-02    0.123E-01
RMM:   7    -0.231375440584E+04    0.15306E-03   -0.14527E-04  3280   0.769E-03    0.336E-02
RMM:   8    -0.231375440044E+04    0.53940E-05   -0.46423E-05  2926   0.542E-03
  38 F= -.23350468E+04 E0= -.23350468E+04  d E =-.198705E-01  mag=     4.0000
       N       E                     dE             d eps       ncg     rms          rms(c)
DAV:   1    -0.231375015390E+04    0.42519E-02   -0.22997E+00  4608   0.134E+00    0.340E-01
RMM:   2    -0.231375853934E+04   -0.83854E-02   -0.96608E-02  5335   0.207E-01    0.172E-01
RMM:   3    -0.231375860830E+04   -0.68962E-04   -0.75189E-03  4773   0.103E-01    0.189E-01
RMM:   4    -0.231375839056E+04    0.21775E-03   -0.98475E-04  5439   0.192E-02    0.135E-01
RMM:   5    -0.231375829333E+04    0.97231E-04   -0.67760E-04  4587   0.166E-02    0.106E-01
RMM:   6    -0.231375820817E+04    0.85161E-04   -0.23491E-04  3505   0.118E-02    0.572E-02
RMM:   7    -0.231375818073E+04    0.27437E-04   -0.49048E-05  2945   0.582E-03    0.242E-02
RMM:   8    -0.231375817562E+04    0.51128E-05   -0.16366E-05  2911   0.403E-03
  39 F= -.23350503E+04 E0= -.23350503E+04  d E =-.234114E-01  mag=     4.0000
       N       E                     dE             d eps       ncg     rms          rms(c)
DAV:   1    -0.231376197807E+04   -0.37973E-02   -0.19789E+00  4512   0.138E+00    0.378E-01
RMM:   2    -0.231377025777E+04   -0.82797E-02   -0.93860E-02  5245   0.222E-01    0.176E-01
RMM:   3    -0.231377011293E+04    0.14484E-03   -0.74285E-03  4718   0.109E-01    0.154E-01
RMM:   4    -0.231377017191E+04   -0.58979E-04   -0.12527E-03  5060   0.236E-02    0.176E-01
RMM:   5    -0.231376981274E+04    0.35917E-03   -0.83402E-04  5447   0.222E-02    0.791E-02
RMM:   6    -0.231376977489E+04    0.37849E-04   -0.18322E-04  3889   0.103E-02    0.604E-02
RMM:   7    -0.231376973256E+04    0.42333E-04   -0.46739E-05  2948   0.508E-03    0.270E-02
RMM:   8    -0.231376972328E+04    0.92776E-05   -0.23303E-05  2896   0.393E-03
  40 F= -.23350620E+04 E0= -.23350620E+04  d E =-.116295E-01  mag=     4.0000
       N       E                     dE             d eps       ncg     rms          rms(c)
DAV:   1    -0.231376885778E+04    0.87477E-03   -0.70609E-01  4704   0.825E-01    0.226E-01
RMM:   2    -0.231377181042E+04   -0.29526E-02   -0.33637E-02  5415   0.133E-01    0.106E-01
RMM:   3    -0.231377174360E+04    0.66818E-04   -0.26076E-03  4871   0.588E-02    0.920E-02
RMM:   4    -0.231377175992E+04   -0.16311E-04   -0.44077E-04  4623   0.140E-02    0.107E-01
RMM:   5    -0.231377162063E+04    0.13928E-03   -0.31075E-04  4823   0.137E-02    0.502E-02
RMM:   6    -0.231377160097E+04    0.19661E-04   -0.68267E-05  3015   0.739E-03    0.343E-02
RMM:   7    -0.231377158610E+04    0.14875E-04   -0.19041E-05  2909   0.399E-03    0.171E-02
RMM:   8    -0.231377158168E+04    0.44132E-05   -0.10038E-05  2879   0.308E-03
  41 F= -.23350639E+04 E0= -.23350639E+04  d E =-.135349E-01  mag=     4.0000
       N       E                     dE             d eps       ncg     rms          rms(c)
DAV:   1    -0.231377552475E+04   -0.39387E-02   -0.17367E+00  4512   0.131E+00    0.371E-01
RMM:   2    -0.231378205832E+04   -0.65336E-02   -0.76131E-02  5273   0.200E-01    0.162E-01
RMM:   3    -0.231378218871E+04   -0.13039E-03   -0.64460E-03  4730   0.990E-02    0.196E-01
RMM:   4    -0.231378185930E+04    0.32941E-03   -0.93851E-04  5340   0.206E-02    0.112E-01
RMM:   5    -0.231378172290E+04    0.13640E-03   -0.50903E-04  4939   0.172E-02    0.643E-02
RMM:   6    -0.231378171297E+04    0.99316E-05   -0.14534E-04  3387   0.979E-03    0.551E-02
RMM:   7    -0.231378168888E+04    0.24086E-04   -0.39306E-05  2920   0.490E-03    0.297E-02
RMM:   8    -0.231378168003E+04    0.88490E-05   -0.16641E-05  2897   0.364E-03
  42 F= -.23350742E+04 E0= -.23350742E+04  d E =-.102963E-01  mag=     4.0000
       N       E                     dE             d eps       ncg     rms          rms(c)
DAV:   1    -0.231378057923E+04    0.11097E-02   -0.90787E-01  4560   0.946E-01    0.268E-01
RMM:   2    -0.231378403489E+04   -0.34557E-02   -0.39946E-02  5290   0.145E-01    0.120E-01
RMM:   3    -0.231378414880E+04   -0.11391E-03   -0.33910E-03  4711   0.693E-02    0.158E-01
RMM:   4    -0.231378390618E+04    0.24262E-03   -0.48679E-04  4920   0.150E-02    0.775E-02
RMM:   5    -0.231378386110E+04    0.45083E-04   -0.27892E-04  4458   0.129E-02    0.646E-02
RMM:   6    -0.231378383169E+04    0.29404E-04   -0.88165E-05  3025   0.791E-03    0.372E-02
RMM:   7    -0.231378382199E+04    0.97044E-05   -0.23653E-05  2910   0.447E-03
  43 F= -.23350764E+04 E0= -.23350764E+04  d E =-.125786E-01  mag=     4.0000
       N       E                     dE             d eps       ncg     rms          rms(c)
DAV:   1    -0.231378530213E+04   -0.14704E-02   -0.15007E+00  4528   0.125E+00    0.331E-01
RMM:   2    -0.231379053393E+04   -0.52318E-02   -0.59699E-02  5194   0.193E-01    0.137E-01
RMM:   3    -0.231379025860E+04    0.27533E-03   -0.46095E-03  4648   0.991E-02    0.101E-01
RMM:   4    -0.231379038586E+04   -0.12726E-03   -0.84627E-04  4896   0.212E-02    0.152E-01
RMM:   5    -0.231379009876E+04    0.28711E-03   -0.45803E-04  5099   0.184E-02    0.339E-02
RMM:   6    -0.231379009746E+04    0.12974E-05   -0.61987E-05  3276   0.726E-03
  44 F= -.23350828E+04 E0= -.23350828E+04  d E =-.634400E-02  mag=     4.0000
       N       E                     dE             d eps       ncg     rms          rms(c)
DAV:   1    -0.231378891247E+04    0.11863E-02   -0.59965E-01  4680   0.794E-01    0.211E-01
RMM:   2    -0.231379106909E+04   -0.21566E-02   -0.24199E-02  5373   0.123E-01    0.106E-01
RMM:   3    -0.231379126006E+04   -0.19096E-03   -0.20904E-03  4816   0.543E-02    0.186E-01
RMM:   4    -0.231379089812E+04    0.36193E-03   -0.32113E-04  4172   0.126E-02    0.566E-02
RMM:   5    -0.231379085089E+04    0.47231E-04   -0.18373E-04  4263   0.112E-02    0.320E-02
RMM:   6    -0.231379085285E+04   -0.19567E-05   -0.54892E-05  2952   0.843E-03
  45 F= -.23350836E+04 E0= -.23350836E+04  d E =-.714167E-02  mag=     4.0000
       N       E                     dE             d eps       ncg     rms          rms(c)
DAV:   1    -0.231379155662E+04   -0.70573E-03   -0.11480E+00  4512   0.111E+00    0.229E-01
RMM:   2    -0.231379581660E+04   -0.42600E-02   -0.46702E-02  5091   0.168E-01    0.114E-01
RMM:   3    -0.231379569913E+04    0.11747E-03   -0.37649E-03  4655   0.835E-02    0.855E-02
RMM:   4    -0.231379571667E+04   -0.17542E-04   -0.54297E-04  4923   0.166E-02    0.961E-02
RMM:   5    -0.231379561992E+04    0.96752E-04   -0.26660E-04  4420   0.136E-02    0.565E-02
RMM:   6    -0.231379560632E+04    0.13603E-04   -0.10076E-04  3188   0.785E-03    0.373E-02
RMM:   7    -0.231379559057E+04    0.15754E-04   -0.19729E-05  2904   0.537E-03    0.110E-02
RMM:   8    -0.231379559138E+04   -0.81604E-06   -0.66112E-06  2892   0.251E-03
  46 F= -.23350885E+04 E0= -.23350885E+04  d E =-.489006E-02  mag=     4.0000
       N       E                     dE             d eps       ncg     rms          rms(c)
DAV:   1    -0.231379068114E+04    0.49094E-02   -0.20264E+00  4496   0.148E+00    0.304E-01
RMM:   2    -0.231379821427E+04   -0.75331E-02   -0.82469E-02  5010   0.222E-01    0.153E-01
RMM:   3    -0.231379803965E+04    0.17462E-03   -0.66020E-03  4576   0.111E-01    0.138E-01
RMM:   4    -0.231379800417E+04    0.35474E-04   -0.88206E-04  5358   0.209E-02    0.137E-01
RMM:   5    -0.231379783762E+04    0.16655E-03   -0.55869E-04  4871   0.178E-02    0.917E-02
RMM:   6    -0.231379777840E+04    0.59222E-04   -0.18753E-04  3546   0.109E-02    0.507E-02
RMM:   7    -0.231379775960E+04    0.18801E-04   -0.41130E-05  2923   0.545E-03    0.291E-02
RMM:   8    -0.231379775052E+04    0.90714E-05   -0.15697E-05  2895   0.374E-03
  47 F= -.23350908E+04 E0= -.23350908E+04  d E =-.725003E-02  mag=     4.0000
       N       E                     dE             d eps       ncg     rms          rms(c)
DAV:   1    -0.231379866390E+04   -0.90430E-03   -0.11461E+00  4512   0.111E+00    0.270E-01
RMM:   2    -0.231380277181E+04   -0.41079E-02   -0.47658E-02  4927   0.173E-01    0.122E-01
RMM:   3    -0.231380258250E+04    0.18931E-03   -0.36857E-03  4575   0.831E-02    0.111E-01
RMM:   4    -0.231380258254E+04   -0.37136E-07   -0.55953E-04  4887   0.173E-02    0.122E-01
RMM:   5    -0.231380241658E+04    0.16595E-03   -0.38713E-04  4993   0.160E-02    0.564E-02
RMM:   6    -0.231380240420E+04    0.12383E-04   -0.89741E-05  3056   0.804E-03    0.439E-02
RMM:   7    -0.231380238116E+04    0.23045E-04   -0.20412E-05  2913   0.440E-03    0.114E-02
RMM:   8    -0.231380237832E+04    0.28331E-05   -0.92832E-06  2917   0.305E-03
  48 F= -.23350957E+04 E0= -.23350957E+04  d E =-.486851E-02  mag=     4.0000
       N       E                     dE             d eps       ncg     rms          rms(c)
DAV:   1    -0.231380218677E+04    0.19439E-03   -0.14936E-01  4768   0.401E-01    0.973E-02
RMM:   2    -0.231380271958E+04   -0.53281E-03   -0.61497E-03  5243   0.628E-02    0.473E-02
RMM:   3    -0.231380271308E+04    0.65021E-05   -0.48247E-04  4077   0.271E-02    0.523E-02
RMM:   4    -0.231380268882E+04    0.24257E-04   -0.68884E-05  3025   0.667E-03    0.349E-02
RMM:   5    -0.231380268908E+04   -0.25710E-06   -0.53523E-05  2979   0.601E-03
  49 F= -.23350961E+04 E0= -.23350961E+04  d E =-.526582E-02  mag=     4.0000
       N       E                     dE             d eps       ncg     rms          rms(c)
DAV:   1    -0.231380312823E+04   -0.43941E-03   -0.56685E-01  4528   0.783E-01    0.175E-01
RMM:   2    -0.231380537221E+04   -0.22440E-02   -0.24480E-02  5262   0.124E-01    0.113E-01
RMM:   3    -0.231380550610E+04   -0.13389E-03   -0.21568E-03  4683   0.593E-02    0.156E-01
RMM:   4    -0.231380522726E+04    0.27883E-03   -0.29097E-04  4427   0.127E-02    0.589E-02
RMM:   5    -0.231380523659E+04   -0.93311E-05   -0.17948E-04  3984   0.107E-02    0.737E-02
RMM:   6    -0.231380517828E+04    0.58312E-04   -0.92751E-05  3246   0.775E-03    0.283E-02
RMM:   7    -0.231380517496E+04    0.33185E-05   -0.26213E-05  2922   0.571E-03
  50 F= -.23350987E+04 E0= -.23350987E+04  d E =-.257741E-02  mag=     4.0000
       N       E                     dE             d eps       ncg     rms          rms(c)
DAV:   1    -0.231380395143E+04    0.12269E-02   -0.32295E-01  4560   0.592E-01    0.133E-01
RMM:   2    -0.231380522831E+04   -0.12769E-02   -0.14045E-02  5211   0.933E-02    0.802E-02
RMM:   3    -0.231380529467E+04   -0.66355E-04   -0.12244E-03  4484   0.451E-02    0.114E-01
RMM:   4    -0.231380515110E+04    0.14357E-03   -0.15572E-04  3458   0.957E-03    0.450E-02
RMM:   5    -0.231380514455E+04    0.65506E-05   -0.10401E-04  3753   0.862E-03    0.505E-02
RMM:   6    -0.231380511797E+04    0.26581E-04   -0.47970E-05  2946   0.661E-03    0.214E-02
RMM:   7    -0.231380511286E+04    0.51069E-05   -0.12551E-05  2893   0.427E-03
  51 F= -.23350987E+04 E0= -.23350987E+04  d E =-.258434E-02  mag=     4.0000
       N       E                     dE             d eps       ncg     rms          rms(c)
DAV:   1    -0.231380511889E+04   -0.91887E-06   -0.63997E-02  4640   0.263E-01    0.586E-02
RMM:   2    -0.231380537498E+04   -0.25610E-03   -0.27267E-03  5651   0.422E-02    0.451E-02
RMM:   3    -0.231380538644E+04   -0.11459E-04   -0.23801E-04  3540   0.169E-02    0.564E-02
RMM:   4    -0.231380535046E+04    0.35979E-04   -0.33345E-05  2907   0.511E-03    0.215E-02
RMM:   5    -0.231380535148E+04   -0.10107E-05   -0.19817E-05  2888   0.368E-03
  52 F= -.23350989E+04 E0= -.23350989E+04  d E =-.279237E-02  mag=     4.0000
       N       E                     dE             d eps       ncg     rms          rms(c)
DAV:   1    -0.231380534188E+04    0.85877E-05   -0.63833E-01  4512   0.867E-01    0.181E-01
RMM:   2    -0.231380813844E+04   -0.27966E-02   -0.29470E-02  5058   0.135E-01    0.127E-01
RMM:   3    -0.231380829279E+04   -0.15435E-03   -0.26132E-03  4620   0.650E-02    0.172E-01
RMM:   4    -0.231380794775E+04    0.34503E-03   -0.33493E-04  4738   0.136E-02    0.602E-02
RMM:   5    -0.231380796017E+04   -0.12418E-04   -0.15129E-04  3442   0.964E-03    0.777E-02
RMM:   6    -0.231380789102E+04    0.69148E-04   -0.13316E-04  3926   0.903E-03    0.287E-02
RMM:   7    -0.231380789038E+04    0.64517E-06   -0.36020E-05  2920   0.645E-03
  53 F= -.23351014E+04 E0= -.23351014E+04  d E =-.248944E-02  mag=     4.0000
       N       E                     dE             d eps       ncg     rms          rms(c)
DAV:   1    -0.231380307580E+04    0.48152E-02   -0.14447E+00  4496   0.130E+00    0.275E-01
RMM:   2    -0.231380944513E+04   -0.63693E-02   -0.67063E-02  5096   0.204E-01    0.198E-01
RMM:   3    -0.231380978017E+04   -0.33503E-03   -0.59365E-03  4653   0.957E-02    0.256E-01
RMM:   4    -0.231380898023E+04    0.79994E-03   -0.76804E-04  5334   0.205E-02    0.880E-02
RMM:   5    -0.231380903379E+04   -0.53557E-04   -0.38333E-04  4376   0.142E-02    0.123E-01
RMM:   6    -0.231380886162E+04    0.17217E-03   -0.27210E-04  4505   0.118E-02    0.435E-02
RMM:   7    -0.231380885816E+04    0.34566E-05   -0.75080E-05  3041   0.852E-03
  54 F= -.23351023E+04 E0= -.23351023E+04  d E =-.338252E-02  mag=     4.0000
       N       E                     dE             d eps       ncg     rms          rms(c)
DAV:   1    -0.231380928236E+04   -0.42074E-03   -0.24234E-01  4672   0.536E-01    0.106E-01
RMM:   2    -0.231381043849E+04   -0.11561E-02   -0.12095E-02  5498   0.847E-02    0.788E-02
RMM:   3    -0.231381050040E+04   -0.61914E-04   -0.10337E-03  4352   0.334E-02    0.940E-02
RMM:   4    -0.231381039418E+04    0.10622E-03   -0.11574E-04  3096   0.825E-03    0.352E-02
RMM:   5    -0.231381039836E+04   -0.41746E-05   -0.56868E-05  2960   0.628E-03
  55 F= -.23351038E+04 E0= -.23351038E+04  d E =-.150550E-02  mag=     4.0000
       N       E                     dE             d eps       ncg     rms          rms(c)
DAV:   1    -0.231380288131E+04    0.75129E-02   -0.21835E+00  4496   0.161E+00    0.314E-01
RMM:   2    -0.231381343312E+04   -0.10552E-01   -0.10850E-01  5172   0.251E-01    0.264E-01
RMM:   3    -0.231381364721E+04   -0.21409E-03   -0.97795E-03  4763   0.120E-01    0.276E-01
RMM:   4    -0.231381267103E+04    0.97618E-03   -0.10838E-03  5516   0.245E-02    0.101E-01
RMM:   5    -0.231381268706E+04   -0.16023E-04   -0.62532E-04  4850   0.182E-02    0.126E-01
RMM:   6    -0.231381253549E+04    0.15156E-03   -0.29661E-04  4454   0.124E-02    0.608E-02
RMM:   7    -0.231381252304E+04    0.12455E-04   -0.95811E-05  3249   0.717E-03    0.429E-02
RMM:   8    -0.231381250188E+04    0.21155E-04   -0.28797E-05  2901   0.531E-03    0.127E-02
RMM:   9    -0.231381249976E+04    0.21277E-05   -0.75923E-06  2916   0.243E-03
  56 F= -.23351058E+04 E0= -.23351058E+04  d E =-.350193E-02  mag=     4.0000
       N       E                     dE             d eps       ncg     rms          rms(c)
DAV:   1    -0.231381366215E+04   -0.11603E-02   -0.10441E-01  4800   0.344E-01    0.103E-01
RMM:   2    -0.231381420920E+04   -0.54705E-03   -0.58942E-03  5524   0.589E-02    0.654E-02
RMM:   3    -0.231381428393E+04   -0.74736E-04   -0.56974E-04  4043   0.268E-02    0.988E-02
RMM:   4    -0.231381416468E+04    0.11926E-03   -0.95915E-05  3014   0.757E-03    0.289E-02
RMM:   5    -0.231381417547E+04   -0.10795E-04   -0.45439E-05  2920   0.559E-03    0.440E-02
RMM:   6    -0.231381415423E+04    0.21238E-04   -0.26610E-05  2912   0.500E-03    0.109E-02
RMM:   7    -0.231381415479E+04   -0.55722E-06   -0.83014E-06  2872   0.369E-03
  57 F= -.23351074E+04 E0= -.23351074E+04  d E =-.164878E-02  mag=     4.0000
       N       E                     dE             d eps       ncg     rms          rms(c)
DAV:   1    -0.231381389532E+04    0.25891E-03   -0.22654E-01  4544   0.507E-01    0.152E-01
RMM:   2    -0.231381506888E+04   -0.11736E-02   -0.12756E-02  5599   0.869E-02    0.931E-02
RMM:   3    -0.231381523734E+04   -0.16846E-03   -0.12701E-03  4580   0.400E-02    0.144E-01
RMM:   4    -0.231381498639E+04    0.25095E-03   -0.20911E-04  3633   0.103E-02    0.415E-02
RMM:   5    -0.231381500793E+04   -0.21536E-04   -0.94603E-05  3025   0.799E-03    0.639E-02
RMM:   6    -0.231381496357E+04    0.44360E-04   -0.54120E-05  2991   0.679E-03    0.165E-02
RMM:   7    -0.231381496390E+04   -0.33318E-06   -0.16142E-05  2906   0.504E-03
  58 F= -.23351082E+04 E0= -.23351082E+04  d E =-.244835E-02  mag=     4.0000
       N       E                     dE             d eps       ncg     rms          rms(c)
DAV:   1    -0.231381554348E+04   -0.57992E-03   -0.93527E-02  4544   0.341E-01    0.923E-02
RMM:   2    -0.231381615100E+04   -0.60751E-03   -0.63060E-03  5891   0.589E-02    0.649E-02
RMM:   3    -0.231381621933E+04   -0.68329E-04   -0.62908E-04  3865   0.252E-02    0.855E-02
RMM:   4    -0.231381613118E+04    0.88142E-04   -0.81997E-05  2924   0.737E-03    0.288E-02
RMM:   5    -0.231381613344E+04   -0.22580E-05   -0.34341E-05  2914   0.494E-03
  59 F= -.23351093E+04 E0= -.23351093E+04  d E =-.109312E-02  mag=     4.0000
       N       E                     dE             d eps       ncg     rms          rms(c)
DAV:   1    -0.231381262034E+04    0.35108E-02   -0.79223E-01  4496   0.991E-01    0.268E-01
RMM:   2    -0.231381780793E+04   -0.51876E-02   -0.53124E-02  5687   0.169E-01    0.204E-01
RMM:   3    -0.231381825503E+04   -0.44710E-03   -0.54096E-03  5180   0.761E-02    0.241E-01
RMM:   4    -0.231381752616E+04    0.72887E-03   -0.70578E-04  5086   0.185E-02    0.800E-02
RMM:   5    -0.231381756009E+04   -0.33935E-04   -0.29493E-04  3863   0.127E-02    0.102E-01
RMM:   6    -0.231381746151E+04    0.98586E-04   -0.19728E-04  4172   0.101E-02    0.478E-02
RMM:   7    -0.231381745263E+04    0.88766E-05   -0.72497E-05  2918   0.770E-03
  60 F= -.23351104E+04 E0= -.23351104E+04  d E =-.218834E-02  mag=     4.0000
       N       E                     dE             d eps       ncg     rms          rms(c)
DAV:   1    -0.231381798404E+04   -0.52253E-03   -0.72058E-02  4864   0.291E-01    0.733E-02
RMM:   2    -0.231381850767E+04   -0.52363E-03   -0.53745E-03  5914   0.508E-02    0.616E-02
RMM:   3    -0.231381854927E+04   -0.41598E-04   -0.51633E-04  3508   0.195E-02    0.687E-02
RMM:   4    -0.231381849645E+04    0.52825E-04   -0.62262E-05  2917   0.611E-03    0.257E-02
RMM:   5    -0.231381849690E+04   -0.45646E-06   -0.24133E-05  2921   0.374E-03
  61 F= -.23351113E+04 E0= -.23351113E+04  d E =-.929662E-03  mag=     4.0000
       N       E                     dE             d eps       ncg     rms          rms(c)
DAV:   1    -0.231381576143E+04    0.27350E-02   -0.65086E-01  4504   0.872E-01    0.216E-01
RMM:   2    -0.231382052981E+04   -0.47684E-02   -0.47646E-02  5757   0.149E-01    0.212E-01
RMM:   3    -0.231382065569E+04   -0.12588E-03   -0.46612E-03  5156   0.628E-02    0.188E-01
RMM:   4    -0.231382022929E+04    0.42640E-03   -0.52510E-04  4538   0.149E-02    0.746E-02
RMM:   5    -0.231382024909E+04   -0.19800E-04   -0.21244E-04  3065   0.103E-02    0.894E-02
RMM:   6    -0.231382017362E+04    0.75468E-04   -0.17680E-04  4079   0.985E-03    0.439E-02
RMM:   7    -0.231382016319E+04    0.10435E-04   -0.65304E-05  2929   0.781E-03    0.294E-02
RMM:   8    -0.231382015189E+04    0.11296E-04   -0.14566E-05  2896   0.373E-03    0.720E-03
RMM:   9    -0.231382015033E+04    0.15594E-05   -0.41409E-06  2895   0.265E-03
  62 F= -.23351126E+04 E0= -.23351126E+04  d E =-.223909E-02  mag=     4.0000
       N       E                     dE             d eps       ncg     rms          rms(c)
DAV:   1    -0.231382082902E+04   -0.67713E-03   -0.38118E-02  4784   0.215E-01    0.722E-02
RMM:   2    -0.231382116367E+04   -0.33465E-03   -0.32959E-03  5847   0.401E-02    0.669E-02
RMM:   3    -0.231382118478E+04   -0.21118E-04   -0.34425E-04  3485   0.174E-02    0.701E-02
RMM:   4    -0.231382112486E+04    0.59921E-04   -0.47642E-05  2910   0.580E-03    0.202E-02
RMM:   5    -0.231382113035E+04   -0.54865E-05   -0.23700E-05  2905   0.418E-03
  63 F= -.23351135E+04 E0= -.23351135E+04  d E =-.890414E-03  mag=     4.0000
       N       E                     dE             d eps       ncg     rms          rms(c)
DAV:   1    -0.231382075189E+04    0.37298E-03   -0.15632E-01  4512   0.436E-01    0.147E-01
RMM:   2    -0.231382210210E+04   -0.13502E-02   -0.13486E-02  5954   0.817E-02    0.132E-01
RMM:   3    -0.231382221476E+04   -0.11267E-03   -0.14581E-03  4533   0.346E-02    0.144E-01
RMM:   4    -0.231382196005E+04    0.25471E-03   -0.20084E-04  3778   0.105E-02    0.396E-02
RMM:   5    -0.231382198817E+04   -0.28115E-04   -0.98988E-05  3000   0.826E-03    0.647E-02
RMM:   6    -0.231382193888E+04    0.49290E-04   -0.58791E-05  3072   0.697E-03    0.139E-02
RMM:   7    -0.231382193768E+04    0.11939E-05   -0.12320E-05  2908   0.505E-03
  64 F= -.23351142E+04 E0= -.23351142E+04  d E =-.151489E-02  mag=     4.0000
       N       E                     dE             d eps       ncg     rms          rms(c)
DAV:   1    -0.231382236941E+04   -0.43053E-03   -0.46863E-02  4728   0.234E-01    0.749E-02
RMM:   2    -0.231382283694E+04   -0.46753E-03   -0.44978E-03  6006   0.441E-02    0.774E-02
RMM:   3    -0.231382284955E+04   -0.12612E-04   -0.47658E-04  3436   0.181E-02    0.685E-02
RMM:   4    -0.231382279385E+04    0.55701E-04   -0.53452E-05  2911   0.597E-03    0.214E-02
RMM:   5    -0.231382279879E+04   -0.49374E-05   -0.23463E-05  2918   0.390E-03
  65 F= -.23351149E+04 E0= -.23351149E+04  d E =-.783427E-03  mag=     4.0000
       N       E                     dE             d eps       ncg     rms          rms(c)
DAV:   1    -0.231382029754E+04    0.24963E-02   -0.42057E-01  4504   0.701E-01    0.223E-01
RMM:   2    -0.231382444728E+04   -0.41497E-02   -0.40116E-02  5918   0.128E-01    0.229E-01
RMM:   3    -0.231382455194E+04   -0.10466E-03   -0.41816E-03  5295   0.525E-02    0.202E-01
RMM:   4    -0.231382406694E+04    0.48500E-03   -0.49325E-04  4456   0.145E-02    0.652E-02
RMM:   5    -0.231382409763E+04   -0.30692E-04   -0.19741E-04  3081   0.104E-02    0.830E-02
RMM:   6    -0.231382402485E+04    0.72782E-04   -0.13690E-04  3925   0.887E-03    0.362E-02
RMM:   7    -0.231382402261E+04    0.22372E-05   -0.49995E-05  2910   0.694E-03
  66 F= -.23351159E+04 E0= -.23351159E+04  d E =-.177258E-02  mag=     4.0000
       N       E                     dE             d eps       ncg     rms          rms(c)
DAV:   1    -0.231382421304E+04   -0.18819E-03   -0.81684E-02  4672   0.307E-01    0.101E-01
RMM:   2    -0.231382507473E+04   -0.86169E-03   -0.84680E-03  5956   0.592E-02    0.959E-02
RMM:   3    -0.231382512925E+04   -0.54525E-04   -0.90134E-04  3828   0.261E-02    0.946E-02
RMM:   4    -0.231382502355E+04    0.10570E-03   -0.10553E-04  2943   0.770E-03    0.308E-02
RMM:   5    -0.231382502702E+04   -0.34685E-05   -0.42184E-05  2913   0.520E-03
  67 F= -.23351168E+04 E0= -.23351168E+04  d E =-.913222E-03  mag=     4.0000
       N       E                     dE             d eps       ncg     rms          rms(c)
DAV:   1    -0.231382367933E+04    0.13442E-02   -0.20002E-01  4512   0.479E-01    0.158E-01
RMM:   2    -0.231382582162E+04   -0.21423E-02   -0.20656E-02  6034   0.924E-02    0.162E-01
RMM:   3    -0.231382587244E+04   -0.50827E-04   -0.22061E-03  4802   0.396E-02    0.137E-01
RMM:   4    -0.231382563484E+04    0.23761E-03   -0.24459E-04  3864   0.108E-02    0.441E-02
RMM:   5    -0.231382566302E+04   -0.28183E-04   -0.11305E-04  2978   0.824E-03    0.668E-02
RMM:   6    -0.231382561311E+04    0.49913E-04   -0.68999E-05  3098   0.704E-03    0.214E-02
RMM:   7    -0.231382561378E+04   -0.67390E-06   -0.22793E-05  2911   0.566E-03
  68 F= -.23351173E+04 E0= -.23351173E+04  d E =-.135649E-02  mag=     4.0000
       N       E                     dE             d eps       ncg     rms          rms(c)
DAV:   1    -0.231382578128E+04   -0.16817E-03   -0.48133E-02  4704   0.227E-01    0.697E-02
RMM:   2    -0.231382641728E+04   -0.63599E-03   -0.60644E-03  6128   0.453E-02    0.842E-02
RMM:   3    -0.231382641647E+04    0.80754E-06   -0.62710E-04  3235   0.180E-02    0.567E-02
RMM:   4    -0.231382638118E+04    0.35293E-04   -0.64166E-05  2952   0.558E-03    0.228E-02
RMM:   5    -0.231382638380E+04   -0.26208E-05   -0.19751E-05  2907   0.333E-03
  69 F= -.23351180E+04 E0= -.23351180E+04  d E =-.695431E-03  mag=     4.0000
       N       E                     dE             d eps       ncg     rms          rms(c)
DAV:   1    -0.231382250947E+04    0.38717E-02   -0.43306E-01  4504   0.681E-01    0.207E-01
RMM:   2    -0.231382827762E+04   -0.57681E-02   -0.54192E-02  6057   0.132E-01    0.266E-01
RMM:   3    -0.231382812167E+04    0.15595E-03   -0.55514E-03  5367   0.516E-02    0.158E-01
RMM:   4    -0.231382783846E+04    0.28321E-03   -0.56071E-04  4249   0.132E-02    0.658E-02
RMM:   5    -0.231382787585E+04   -0.37386E-04   -0.16562E-04  2978   0.885E-03    0.871E-02
RMM:   6    -0.231382779493E+04    0.80920E-04   -0.13458E-04  3748   0.841E-03    0.289E-02
RMM:   7    -0.231382779942E+04   -0.44874E-05   -0.41440E-05  2915   0.656E-03
  70 F= -.23351192E+04 E0= -.23351192E+04  d E =-.188698E-02  mag=     4.0000
       N       E                     dE             d eps       ncg     rms          rms(c)
DAV:   1    -0.231380567777E+04    0.22117E-01   -0.17354E+00  4496   0.136E+00    0.419E-01
RMM:   2    -0.231382915185E+04   -0.23474E-01   -0.21863E-01  5983   0.265E-01    0.554E-01
RMM:   3    -0.231382821313E+04    0.93872E-03   -0.22563E-02  5564   0.110E-01    0.314E-01
RMM:   4    -0.231382712156E+04    0.10916E-02   -0.23023E-03  4840   0.263E-02    0.136E-01
RMM:   5    -0.231382719289E+04   -0.71328E-04   -0.62180E-04  4277   0.161E-02    0.159E-01
RMM:   6    -0.231382693466E+04    0.25824E-03   -0.50616E-04  4575   0.143E-02    0.663E-02
RMM:   7    -0.231382694858E+04   -0.13922E-04   -0.19884E-04  3247   0.113E-02    0.613E-02
RMM:   8    -0.231382690408E+04    0.44500E-04   -0.52095E-05  2922   0.549E-03    0.144E-02
RMM:   9    -0.231382690141E+04    0.26670E-05   -0.10518E-05  2921   0.368E-03
  71 F= -.23351178E+04 E0= -.23351178E+04  d E =-.539700E-03  mag=     4.0000
       N       E                     dE             d eps       ncg     rms          rms(c)
DAV:   1    -0.231381632791E+04    0.10576E-01   -0.96322E-01  4504   0.102E+00    0.307E-01
RMM:   2    -0.231382901699E+04   -0.12689E-01   -0.11966E-01  6032   0.196E-01    0.389E-01
RMM:   3    -0.231382882520E+04    0.19179E-03   -0.12306E-02  5576   0.769E-02    0.244E-01
RMM:   4    -0.231382815153E+04    0.67367E-03   -0.12547E-03  4706   0.194E-02    0.101E-01
RMM:   5    -0.231382818922E+04   -0.37695E-04   -0.34149E-04  3344   0.121E-02    0.118E-01
RMM:   6    -0.231382804565E+04    0.14357E-03   -0.28814E-04  4217   0.116E-02    0.488E-02
RMM:   7    -0.231382805244E+04   -0.67940E-05   -0.10844E-04  2946   0.920E-03    0.446E-02
RMM:   8    -0.231382802896E+04    0.23479E-04   -0.28625E-05  2903   0.455E-03    0.103E-02
RMM:   9    -0.231382802725E+04    0.17101E-05   -0.58609E-06  2900   0.296E-03
  72 F= -.23351193E+04 E0= -.23351193E+04  d E =-.200025E-02  mag=     4.0000
       N       E                     dE             d eps       ncg     rms          rms(c)
DAV:   1    -0.231382801251E+04    0.16449E-04   -0.10451E-01  4512   0.332E-01    0.107E-01
RMM:   2    -0.231382941059E+04   -0.13981E-02   -0.13053E-02  5995   0.656E-02    0.136E-01
RMM:   3    -0.231382936678E+04    0.43810E-04   -0.13476E-03  3780   0.261E-02    0.843E-02
RMM:   4    -0.231382928331E+04    0.83468E-04   -0.13258E-04  2980   0.755E-03    0.333E-02
RMM:   5    -0.231382929024E+04   -0.69300E-05   -0.43851E-05  2915   0.489E-03
  73 F= -.23351204E+04 E0= -.23351204E+04  d E =-.114294E-02  mag=     4.0000
       N       E                     dE             d eps       ncg     rms          rms(c)
DAV:   1    -0.231381936722E+04    0.99161E-02   -0.93481E-01  4504   0.994E-01    0.321E-01
RMM:   2    -0.231383187078E+04   -0.12504E-01   -0.11757E-01  6061   0.198E-01    0.398E-01
RMM:   3    -0.231383157790E+04    0.29288E-03   -0.12147E-02  5751   0.789E-02    0.253E-01
RMM:   4    -0.231383082594E+04    0.75197E-03   -0.12228E-03  4685   0.198E-02    0.982E-02
RMM:   5    -0.231383091502E+04   -0.89079E-04   -0.39718E-04  3735   0.133E-02    0.133E-01
RMM:   6    -0.231383071277E+04    0.20225E-03   -0.30196E-04  4343   0.116E-02    0.342E-02
RMM:   7    -0.231383070874E+04    0.40326E-05   -0.46004E-05  2985   0.822E-03
  74 F= -.23351215E+04 E0= -.23351215E+04  d E =-.220086E-02  mag=     4.0000
       N       E                     dE             d eps       ncg     rms          rms(c)
DAV:   1    -0.231382970053E+04    0.10122E-02   -0.15683E-01  4592   0.390E-01    0.126E-01
RMM:   2    -0.231383218671E+04   -0.24862E-02   -0.22929E-02  6158   0.805E-02    0.183E-01
RMM:   3    -0.231383204763E+04    0.13908E-03   -0.23675E-03  4214   0.320E-02    0.896E-02
RMM:   4    -0.231383196962E+04    0.78006E-04   -0.23237E-04  2993   0.848E-03    0.417E-02
RMM:   5    -0.231383197772E+04   -0.80983E-05   -0.53420E-05  2917   0.502E-03
  75 F= -.23351226E+04 E0= -.23351226E+04  d E =-.111091E-02  mag=     4.0000
       N       E                     dE             d eps       ncg     rms          rms(c)
DAV:   1    -0.231381376730E+04    0.18202E-01   -0.14065E+00  4504   0.117E+00    0.369E-01
RMM:   2    -0.231383566609E+04   -0.21899E-01   -0.20404E-01  6187   0.238E-01    0.520E-01
RMM:   3    -0.231383475141E+04    0.91468E-03   -0.20993E-02  5901   0.933E-02    0.262E-01
RMM:   4    -0.231383406299E+04    0.68842E-03   -0.20550E-03  4770   0.220E-02    0.129E-01
RMM:   5    -0.231383410713E+04   -0.44142E-04   -0.48486E-04  3440   0.129E-02    0.144E-01
RMM:   6    -0.231383391994E+04    0.18720E-03   -0.43596E-04  4503   0.134E-02    0.646E-02
RMM:   7    -0.231383392764E+04   -0.77003E-05   -0.18123E-04  3061   0.105E-02    0.568E-02
RMM:   8    -0.231383388734E+04    0.40292E-04   -0.43076E-05  2912   0.524E-03    0.133E-02
RMM:   9    -0.231383388355E+04    0.37904E-05   -0.94313E-06  2904   0.343E-03
  76 F= -.23351240E+04 E0= -.23351240E+04  d E =-.254265E-02  mag=     4.0000
       N       E                     dE             d eps       ncg     rms          rms(c)
DAV:   1    -0.231383215676E+04    0.17306E-02   -0.27486E-01  4528   0.522E-01    0.190E-01
RMM:   2    -0.231383657756E+04   -0.44208E-02   -0.40927E-02  6017   0.112E-01    0.246E-01
RMM:   3    -0.231383640567E+04    0.17189E-03   -0.42659E-03  5177   0.466E-02    0.145E-01
RMM:   4    -0.231383616870E+04    0.23697E-03   -0.43948E-04  3997   0.120E-02    0.619E-02
RMM:   5    -0.231383618538E+04   -0.16682E-04   -0.13725E-04  2943   0.817E-03    0.734E-02
RMM:   6    -0.231383613376E+04    0.51623E-04   -0.10536E-04  3503   0.758E-03    0.296E-02
RMM:   7    -0.231383613610E+04   -0.23452E-05   -0.41223E-05  2900   0.628E-03
  77 F= -.23351261E+04 E0= -.23351261E+04  d E =-.202348E-02  mag=     4.0000
       N       E                     dE             d eps       ncg     rms          rms(c)
DAV:   1    -0.231383419577E+04    0.19380E-02   -0.17786E-01  4592   0.421E-01    0.155E-01
RMM:   2    -0.231383704073E+04   -0.28450E-02   -0.26606E-02  6011   0.903E-02    0.193E-01
RMM:   3    -0.231383696938E+04    0.71353E-04   -0.27962E-03  4618   0.388E-02    0.122E-01
RMM:   4    -0.231383680297E+04    0.16641E-03   -0.28653E-04  3309   0.102E-02    0.499E-02
RMM:   5    -0.231383681525E+04   -0.12283E-04   -0.96800E-05  2931   0.695E-03    0.593E-02
RMM:   6    -0.231383678267E+04    0.32578E-04   -0.68313E-05  3008   0.652E-03    0.260E-02
RMM:   7    -0.231383678323E+04   -0.55414E-06   -0.30442E-05  2899   0.560E-03
  78 F= -.23351265E+04 E0= -.23351265E+04  d E =-.248568E-02  mag=     4.0000
       N       E                     dE             d eps       ncg     rms          rms(c)
DAV:   1    -0.231383545595E+04    0.13267E-02   -0.20845E-01  4512   0.460E-01    0.165E-01
RMM:   2    -0.231383860635E+04   -0.31504E-02   -0.29227E-02  6070   0.959E-02    0.207E-01
RMM:   3    -0.231383851471E+04    0.91642E-04   -0.30444E-03  4784   0.394E-02    0.131E-01
RMM:   4    -0.231383831846E+04    0.19625E-03   -0.31379E-04  3591   0.109E-02    0.512E-02
RMM:   5    -0.231383833524E+04   -0.16781E-04   -0.10573E-04  2933   0.740E-03    0.638E-02
RMM:   6    -0.231383829692E+04    0.38322E-04   -0.76946E-05  3087   0.692E-03    0.262E-02
RMM:   7    -0.231383829876E+04   -0.18375E-05   -0.32099E-05  2902   0.579E-03
  79 F= -.23351279E+04 E0= -.23351279E+04  d E =-.138788E-02  mag=     4.0000
       N       E                     dE             d eps       ncg     rms          rms(c)
DAV:   1    -0.231383617542E+04    0.21215E-02   -0.19313E-01  4512   0.443E-01    0.159E-01
RMM:   2    -0.231383910816E+04   -0.29327E-02   -0.27174E-02  6068   0.924E-02    0.199E-01
RMM:   3    -0.231383902463E+04    0.83525E-04   -0.28312E-03  4667   0.379E-02    0.127E-01
RMM:   4    -0.231383884130E+04    0.18333E-03   -0.28958E-04  3454   0.106E-02    0.494E-02
RMM:   5    -0.231383885771E+04   -0.16404E-04   -0.10062E-04  2936   0.723E-03    0.619E-02
RMM:   6    -0.231383882164E+04    0.36070E-04   -0.72363E-05  3024   0.677E-03    0.253E-02
RMM:   7    -0.231383882333E+04   -0.16956E-05   -0.30351E-05  2901   0.566E-03
  80 F= -.23351283E+04 E0= -.23351283E+04  d E =-.178886E-02  mag=     4.0000
       N       E                     dE             d eps       ncg     rms          rms(c)
DAV:   1    -0.231383739431E+04    0.14273E-02   -0.22100E-01  4512   0.494E-01    0.174E-01
RMM:   2    -0.231384046654E+04   -0.30722E-02   -0.28547E-02  6033   0.995E-02    0.210E-01
RMM:   3    -0.231384038208E+04    0.84457E-04   -0.29768E-03  4910   0.413E-02    0.143E-01
RMM:   4    -0.231384013455E+04    0.24754E-03   -0.30825E-04  3782   0.112E-02    0.494E-02
RMM:   5    -0.231384015780E+04   -0.23254E-04   -0.10919E-04  2932   0.792E-03    0.674E-02
RMM:   6    -0.231384010813E+04    0.49666E-04   -0.78285E-05  3252   0.707E-03    0.207E-02
RMM:   7    -0.231384011054E+04   -0.24063E-05   -0.24675E-05  2905   0.580E-03
  81 F= -.23351295E+04 E0= -.23351295E+04  d E =-.117115E-02  mag=     4.0000
       N       E                     dE             d eps       ncg     rms          rms(c)
DAV:   1    -0.231383955301E+04    0.55513E-03   -0.59716E-02  4760   0.257E-01    0.913E-02
RMM:   2    -0.231384037964E+04   -0.82663E-03   -0.77601E-03  6062   0.527E-02    0.105E-01
RMM:   3    -0.231384037213E+04    0.75060E-05   -0.82022E-04  3614   0.223E-02    0.769E-02
RMM:   4    -0.231384030151E+04    0.70618E-04   -0.83960E-05  2941   0.677E-03    0.261E-02
RMM:   5    -0.231384030865E+04   -0.71378E-05   -0.32342E-05  2913   0.452E-03
  82 F= -.23351296E+04 E0= -.23351296E+04  d E =-.130843E-02  mag=     4.0000
       N       E                     dE             d eps       ncg     rms          rms(c)
DAV:   1    -0.231383875823E+04    0.15433E-02   -0.22585E-01  4504   0.499E-01    0.168E-01
RMM:   2    -0.231384197229E+04   -0.32141E-02   -0.29693E-02  6063   0.102E-01    0.215E-01
RMM:   3    -0.231384183021E+04    0.14209E-03   -0.30485E-03  4811   0.406E-02    0.131E-01
RMM:   4    -0.231384162835E+04    0.20185E-03   -0.30852E-04  3863   0.111E-02    0.494E-02
RMM:   5    -0.231384165843E+04   -0.30072E-04   -0.11587E-04  2943   0.810E-03    0.695E-02
RMM:   6    -0.231384160675E+04    0.51675E-04   -0.81366E-05  3216   0.738E-03    0.249E-02
RMM:   7    -0.231384160867E+04   -0.19165E-05   -0.28340E-05  2913   0.587E-03
  83 F= -.23351307E+04 E0= -.23351307E+04  d E =-.109994E-02  mag=     4.0000
       N       E                     dE             d eps       ncg     rms          rms(c)
DAV:   1    -0.231384114950E+04    0.45725E-03   -0.50652E-02  4712   0.236E-01    0.817E-02
RMM:   2    -0.231384187919E+04   -0.72969E-03   -0.67402E-03  6032   0.488E-02    0.103E-01
RMM:   3    -0.231384185091E+04    0.28275E-04   -0.70116E-04  3505   0.201E-02    0.655E-02
RMM:   4    -0.231384180257E+04    0.48341E-04   -0.70903E-05  2942   0.614E-03    0.240E-02
RMM:   5    -0.231384180922E+04   -0.66441E-05   -0.27162E-05  2911   0.410E-03
  84 F= -.23351308E+04 E0= -.23351308E+04  d E =-.120541E-02  mag=     4.0000
       N       E                     dE             d eps       ncg     rms          rms(c)
DAV:   1    -0.231383980525E+04    0.19973E-02   -0.28606E-01  4504   0.559E-01    0.179E-01
RMM:   2    -0.231384347439E+04   -0.36691E-02   -0.34087E-02  6037   0.111E-01    0.223E-01
RMM:   3    -0.231384335101E+04    0.12338E-03   -0.34843E-03  4908   0.440E-02    0.142E-01
RMM:   4    -0.231384311116E+04    0.23984E-03   -0.34990E-04  3919   0.116E-02    0.522E-02
RMM:   5    -0.231384314155E+04   -0.30384E-04   -0.13202E-04  2980   0.844E-03    0.722E-02
[...]
DAV:   1    -0.231386181107E+04   -0.16422E-05   -0.81802E-04  4984   0.299E-02    0.141E-02
RMM:   2    -0.231386182014E+04   -0.90673E-05   -0.81893E-05  3062   0.669E-03
 164 F= -.23351439E+04 E0= -.23351439E+04  d E =-.373102E-04  mag=     4.0000
       N       E                     dE             d eps       ncg     rms          rms(c)
DAV:   1    -0.231386183691E+04   -0.25833E-04   -0.18389E-03  4512   0.436E-02    0.201E-02
RMM:   2    -0.231386186421E+04   -0.27300E-04   -0.18619E-04  3698   0.106E-02    0.333E-02
RMM:   3    -0.231386185330E+04    0.10903E-04   -0.25001E-05  2899   0.577E-03    0.118E-02
RMM:   4    -0.231386185179E+04    0.15082E-05   -0.31456E-06  2732   0.209E-03
 165 F= -.23351439E+04 E0= -.23351439E+04  d E =-.140416E-04  mag=     4.0000
       N       E                     dE             d eps       ncg     rms          rms(c)
DAV:   1    -0.231386185719E+04   -0.38883E-05   -0.15594E-04  5328   0.130E-02    0.113E-02
RMM:   2    -0.231386187356E+04   -0.16365E-04   -0.30705E-05  2763   0.356E-03    0.382E-02
RMM:   3    -0.231386185745E+04    0.16102E-04   -0.99600E-06  2383   0.251E-03    0.353E-03
RMM:   4    -0.231386185758E+04   -0.12768E-06   -0.12640E-06  1226   0.837E-04
 166 F= -.23351439E+04 E0= -.23351439E+04  d E =-.146119E-04  mag=     4.0000
       N       E                     dE             d eps       ncg     rms          rms(c)
DAV:   1    -0.231386188165E+04   -0.24197E-04   -0.18801E-03  4480   0.440E-02    0.172E-02
RMM:   2    -0.231386190123E+04   -0.19577E-04   -0.16819E-04  3739   0.901E-03    0.222E-02
RMM:   3    -0.231386189858E+04    0.26492E-05   -0.19407E-05  2781   0.515E-03
 167 F= -.23351439E+04 E0= -.23351439E+04  d E =-.232952E-04  mag=     4.0000
       N       E                     dE             d eps       ncg     rms          rms(c)
DAV:   1    -0.231386190199E+04   -0.75818E-06   -0.23784E-04  5120   0.158E-02    0.818E-03
RMM:   2    -0.231386190459E+04   -0.25996E-05   -0.23573E-05  2563   0.379E-03
 168 F= -.23351439E+04 E0= -.23351439E+04  d E =-.228880E-04  mag=     4.0000
       N       E                     dE             d eps       ncg     rms          rms(c)
DAV:   1    -0.231386191225E+04   -0.10268E-04   -0.19498E-03  4496   0.441E-02    0.188E-02
RMM:   2    -0.231386193760E+04   -0.25342E-04   -0.17600E-04  3633   0.102E-02    0.318E-02
RMM:   3    -0.231386192823E+04    0.93635E-05   -0.21963E-05  2855   0.562E-03
 169 F= -.23351439E+04 E0= -.23351439E+04  d E =-.149828E-04  mag=     4.0000
       N       E                     dE             d eps       ncg     rms          rms(c)
DAV:   1    -0.231386192764E+04    0.99563E-05   -0.21536E-05  4208   0.538E-03    0.742E-03
RMM:   2    -0.231386193193E+04   -0.42893E-05   -0.85807E-06  2423   0.297E-03
 170 F= -.23351439E+04 E0= -.23351439E+04  d E =-.177480E-04  mag=     4.0000
       N       E                     dE             d eps       ncg     rms          rms(c)
DAV:   1    -0.231386193719E+04   -0.95511E-05   -0.14376E-03  4416   0.368E-02    0.137E-02
RMM:   2    -0.231386195101E+04   -0.13819E-04   -0.13462E-04  3275   0.806E-03    0.129E-02
RMM:   3    -0.231386195212E+04   -0.11116E-05   -0.15105E-05  2455   0.488E-03
 171 F= -.23351439E+04 E0= -.23351439E+04  d E =-.130482E-04  mag=     4.0000
       N       E                     dE             d eps       ncg     rms          rms(c)
DAV:   1    -0.231386195119E+04   -0.17663E-06   -0.59261E-04  4552   0.235E-02    0.998E-03
RMM:   2    -0.231386195680E+04   -0.56158E-05   -0.56526E-05  2918   0.542E-03
 172 F= -.23351439E+04 E0= -.23351439E+04  d E =-.130934E-04  mag=     4.0000
       N       E                     dE             d eps       ncg     rms          rms(c)
DAV:   1    -0.231386197890E+04   -0.27717E-04   -0.14976E-03  4432   0.370E-02    0.182E-02
RMM:   2    -0.231386201227E+04   -0.33369E-04   -0.16530E-04  3398   0.932E-03    0.448E-02
RMM:   3    -0.231386199162E+04    0.20653E-04   -0.22358E-05  2802   0.502E-03    0.771E-03
RMM:   4    -0.231386199110E+04    0.51514E-06   -0.26173E-06  2449   0.180E-03
 173 F= -.23351439E+04 E0= -.23351439E+04  d E =-.175417E-04  mag=     4.0000
       N       E                     dE             d eps       ncg     rms          rms(c)
DAV:   1    -0.231386200095E+04   -0.93318E-05   -0.79735E-04  4576   0.269E-02    0.124E-02
RMM:   2    -0.231386201342E+04   -0.12468E-04   -0.74799E-05  3004   0.635E-03    0.239E-02
RMM:   3    -0.231386200723E+04    0.61871E-05   -0.10642E-05  2596   0.373E-03
 174 F= -.23351440E+04 E0= -.23351440E+04  d E =-.213399E-04  mag=     4.0000
       N       E                     dE             d eps       ncg     rms          rms(c)
DAV:   1    -0.231386203619E+04   -0.22769E-04   -0.15917E-03  4432   0.369E-02    0.149E-02
RMM:   2    -0.231386205081E+04   -0.14622E-04   -0.14384E-04  3259   0.822E-03    0.124E-02
RMM:   3    -0.231386205228E+04   -0.14743E-05   -0.18034E-05  2635   0.508E-03
 175 F= -.23351440E+04 E0= -.23351440E+04  d E =-.227869E-04  mag=     4.0000
       N       E                     dE             d eps       ncg     rms          rms(c)
DAV:   1    -0.231386206467E+04   -0.13863E-04   -0.11232E-03  4480   0.312E-02    0.140E-02
RMM:   2    -0.231386207800E+04   -0.13325E-04   -0.10777E-04  3131   0.718E-03    0.199E-02
RMM:   3    -0.231386207543E+04    0.25695E-05   -0.13834E-05  2755   0.433E-03
 176 F= -.23351440E+04 E0= -.23351440E+04  d E =-.271451E-04  mag=     4.0000
       N       E                     dE             d eps       ncg     rms          rms(c)
DAV:   1    -0.231386208948E+04   -0.11486E-04   -0.20176E-03  4448   0.410E-02    0.168E-02
RMM:   2    -0.231386211160E+04   -0.22119E-04   -0.19803E-04  3451   0.928E-03    0.196E-02
RMM:   3    -0.231386211058E+04    0.10232E-05   -0.23661E-05  2707   0.552E-03
 177 F= -.23351440E+04 E0= -.23351440E+04  d E =-.198290E-04  mag=     4.0000
       N       E                     dE             d eps       ncg     rms          rms(c)
DAV:   1    -0.231386211291E+04   -0.13036E-05   -0.70988E-04  4528   0.244E-02    0.114E-02
RMM:   2    -0.231386212022E+04   -0.73140E-05   -0.72180E-05  2992   0.585E-03
 178 F= -.23351440E+04 E0= -.23351440E+04  d E =-.203209E-04  mag=     4.0000
       N       E                     dE             d eps       ncg     rms          rms(c)
DAV:   1    -0.231386212932E+04   -0.16409E-04   -0.10506E-03  4336   0.289E-02    0.142E-02
RMM:   2    -0.231386214675E+04   -0.17430E-04   -0.12300E-04  3143   0.747E-03    0.252E-02
RMM:   3    -0.231386214035E+04    0.63920E-05   -0.14840E-05  2614   0.420E-03
 179 F= -.23351440E+04 E0= -.23351440E+04  d E =-.127965E-04  mag=     4.0000
       N       E                     dE             d eps       ncg     rms          rms(c)
DAV:   1    -0.231386213540E+04    0.11341E-04   -0.24205E-03  4472   0.432E-02    0.179E-02
RMM:   2    -0.231386215807E+04   -0.22665E-04   -0.22863E-04  3428   0.912E-03    0.137E-02
RMM:   3    -0.231386215961E+04   -0.15376E-05   -0.27653E-05  2858   0.560E-03
 180 F= -.23351440E+04 E0= -.23351440E+04  d E =-.208480E-04  mag=     4.0000
       N       E                     dE             d eps       ncg     rms          rms(c)
DAV:   1    -0.231386217775E+04   -0.19684E-04   -0.14233E-03  4432   0.342E-02    0.156E-02
RMM:   2    -0.231386219905E+04   -0.21300E-04   -0.13568E-04  3199   0.775E-03    0.304E-02
RMM:   3    -0.231386219040E+04    0.86549E-05   -0.17903E-05  2675   0.466E-03
 181 F= -.23351440E+04 E0= -.23351440E+04  d E =-.200802E-04  mag=     4.0000
       N       E                     dE             d eps       ncg     rms          rms(c)
DAV:   1    -0.231386219688E+04    0.21751E-05   -0.11354E-03  4464   0.303E-02    0.132E-02
RMM:   2    -0.231386220710E+04   -0.10216E-04   -0.10139E-04  3088   0.683E-03    0.118E-02
RMM:   3    -0.231386220776E+04   -0.66881E-06   -0.12417E-05  2651   0.424E-03
 182 F= -.23351440E+04 E0= -.23351440E+04  d E =-.278277E-04  mag=     4.0000
       N       E                     dE             d eps       ncg     rms          rms(c)
DAV:   1    -0.231386217435E+04    0.32745E-04   -0.45738E-03  4480   0.608E-02    0.243E-02
RMM:   2    -0.231386221164E+04   -0.37294E-04   -0.39830E-04  4542   0.129E-02    0.144E-02
RMM:   3    -0.231386221527E+04   -0.36271E-05   -0.43946E-05  2891   0.707E-03
 183 F= -.23351440E+04 E0= -.23351440E+04  d E =-.161000E-04  mag=     4.0000
       N       E                     dE             d eps       ncg     rms          rms(c)
DAV:   1    -0.231386219067E+04    0.20975E-04   -0.25308E-03  4400   0.456E-02    0.170E-02
RMM:   2    -0.231386221462E+04   -0.23950E-04   -0.21422E-04  3750   0.962E-03    0.199E-02
RMM:   3    -0.231386221325E+04    0.13654E-05   -0.25414E-05  2527   0.543E-03
 184 F= -.23351440E+04 E0= -.23351440E+04  d E =-.281867E-04  mag=     4.0000
       N       E                     dE             d eps       ncg     rms          rms(c)
DAV:   1    -0.231386222836E+04   -0.13737E-04   -0.18935E-03  4328   0.372E-02    0.143E-02
RMM:   2    -0.231386224588E+04   -0.17523E-04   -0.16323E-04  3271   0.782E-03    0.160E-02
RMM:   3    -0.231386224596E+04   -0.80996E-07   -0.18538E-05  2510   0.463E-03
 185 F= -.23351441E+04 E0= -.23351441E+04  d E =-.159937E-04  mag=     4.0000
       N       E                     dE             d eps       ncg     rms          rms(c)
DAV:   1    -0.231386225005E+04   -0.41745E-05   -0.24492E-03  4432   0.420E-02    0.169E-02
RMM:   2    -0.231386227164E+04   -0.21584E-04   -0.22027E-04  3379   0.902E-03    0.129E-02
RMM:   3    -0.231386227451E+04   -0.28730E-05   -0.26389E-05  2806   0.551E-03
 186 F= -.23351441E+04 E0= -.23351441E+04  d E =-.254589E-04  mag=     4.0000
       N       E                     dE             d eps       ncg     rms          rms(c)
DAV:   1    -0.231386230953E+04   -0.37893E-04   -0.14746E-03  4480   0.365E-02    0.150E-02
RMM:   2    -0.231386232058E+04   -0.11048E-04   -0.11205E-04  3302   0.797E-03    0.115E-02
RMM:   3    -0.231386232260E+04   -0.20207E-05   -0.13620E-05  2687   0.489E-03
 187 F= -.23351441E+04 E0= -.23351441E+04  d E =-.227653E-04  mag=     4.0000
       N       E                     dE             d eps       ncg     rms          rms(c)
DAV:   1    -0.231386233838E+04   -0.17804E-04   -0.10214E-03  4560   0.303E-02    0.134E-02
RMM:   2    -0.231386234513E+04   -0.67469E-05   -0.76563E-05  3071   0.675E-03
 188 F= -.23351441E+04 E0= -.23351441E+04  d E =-.240675E-04  mag=     4.0000
       N       E                     dE             d eps       ncg     rms          rms(c)
DAV:   1    -0.231386236868E+04   -0.30292E-04   -0.16417E-03  4440   0.363E-02    0.188E-02
RMM:   2    -0.231386239660E+04   -0.27920E-04   -0.15000E-04  3367   0.909E-03    0.409E-02
RMM:   3    -0.231386237956E+04    0.17031E-04   -0.20635E-05  2891   0.491E-03    0.102E-02
RMM:   4    -0.231386237963E+04   -0.61322E-07   -0.45395E-06  2650   0.190E-03
 189 F= -.23351441E+04 E0= -.23351441E+04  d E =-.987723E-05  mag=     4.0000
       N       E                     dE             d eps       ncg     rms          rms(c)
DAV:   1    -0.231386238014E+04   -0.57614E-06   -0.12468E-05  3880   0.425E-03    0.416E-03
RMM:   2    -0.231386238082E+04   -0.67623E-06   -0.25606E-06  2277   0.208E-03
 190 F= -.23351441E+04 E0= -.23351441E+04  d E =-.889101E-05  mag=     4.0000
       N       E                     dE             d eps       ncg     rms          rms(c)
DAV:   1    -0.231386240327E+04   -0.23126E-04   -0.12475E-03  4384   0.314E-02    0.123E-02
RMM:   2    -0.231386241218E+04   -0.89131E-05   -0.77087E-05  2992   0.639E-03
 191 F= -.23351441E+04 E0= -.23351441E+04  d E =-.169657E-04  mag=     4.0000
       N       E                     dE             d eps       ncg     rms          rms(c)
DAV:   1    -0.231386241768E+04   -0.14410E-04   -0.16475E-04  5096   0.126E-02    0.127E-02
RMM:   2    -0.231386243612E+04   -0.18448E-04   -0.34879E-05  2747   0.409E-03    0.411E-02
RMM:   3    -0.231386241758E+04    0.18542E-04   -0.92012E-06  2354   0.269E-03    0.428E-03
RMM:   4    -0.231386241774E+04   -0.15920E-06   -0.15223E-06  1876   0.103E-03
 192 F= -.23351441E+04 E0= -.23351441E+04  d E =-.174489E-04  mag=     4.0000
       N       E                     dE             d eps       ncg     rms          rms(c)
DAV:   1    -0.231386242461E+04   -0.70282E-05   -0.60753E-04  4200   0.219E-02    0.888E-03
RMM:   2    -0.231386242917E+04   -0.45576E-05   -0.38606E-05  2714   0.466E-03
 193 F= -.23351441E+04 E0= -.23351441E+04  d E =-.187190E-04  mag=     4.0000
       N       E                     dE             d eps       ncg     rms          rms(c)
DAV:   1    -0.231386244955E+04   -0.24938E-04   -0.16430E-03  4416   0.355E-02    0.159E-02
RMM:   2    -0.231386246779E+04   -0.18237E-04   -0.10661E-04  3203   0.846E-03    0.312E-02
RMM:   3    -0.231386245868E+04    0.91019E-05   -0.15101E-05  2704   0.466E-03
 194 F= -.23351441E+04 E0= -.23351441E+04  d E =-.160175E-04  mag=     4.0000
       N       E                     dE             d eps       ncg     rms          rms(c)
DAV:   1    -0.231386246530E+04    0.24824E-05   -0.55116E-04  4584   0.204E-02    0.910E-03
RMM:   2    -0.231386246797E+04   -0.26622E-05   -0.29400E-05  2839   0.469E-03
 195 F= -.23351441E+04 E0= -.23351441E+04  d E =-.173650E-04  mag=     4.0000
       N       E                     dE             d eps       ncg     rms          rms(c)
DAV:   1    -0.231386249677E+04   -0.31468E-04   -0.12343E-03  4416   0.327E-02    0.162E-02
RMM:   2    -0.231386251587E+04   -0.19098E-04   -0.74805E-05  3159   0.808E-03    0.364E-02
RMM:   3    -0.231386250126E+04    0.14606E-04   -0.14763E-05  2666   0.466E-03    0.720E-03
RMM:   4    -0.231386250133E+04   -0.60798E-07   -0.23164E-06  2405   0.186E-03
 196 F= -.23351442E+04 E0= -.23351442E+04  d E =-.198804E-04  mag=     4.0000
       N       E                     dE             d eps       ncg     rms          rms(c)
DAV:   1    -0.231386251238E+04   -0.11118E-04   -0.85228E-04  4520   0.271E-02    0.116E-02
RMM:   2    -0.231386251674E+04   -0.43544E-05   -0.36617E-05  2957   0.583E-03
 197 F= -.23351442E+04 E0= -.23351442E+04  d E =-.240419E-04  mag=     4.0000
       N       E                     dE             d eps       ncg     rms          rms(c)
DAV:   1    -0.231386254264E+04   -0.30254E-04   -0.15562E-03  4408   0.354E-02    0.171E-02
RMM:   2    -0.231386256108E+04   -0.18448E-04   -0.75843E-05  3154   0.833E-03    0.368E-02
RMM:   3    -0.231386254763E+04    0.13455E-04   -0.15321E-05  2772   0.468E-03    0.882E-03
RMM:   4    -0.231386254667E+04    0.96299E-06   -0.20690E-06  2526   0.193E-03
 198 F= -.23351442E+04 E0= -.23351442E+04  d E =-.101162E-04  mag=     4.0000
       N       E                     dE             d eps       ncg     rms          rms(c)
DAV:   1    -0.231386255614E+04   -0.85123E-05   -0.35719E-04  4824   0.169E-02    0.989E-03
RMM:   2    -0.231386256471E+04   -0.85731E-05   -0.22970E-05  2815   0.414E-03
 199 F= -.23351442E+04 E0= -.23351442E+04  d E =-.184726E-04  mag=     4.0000
       N       E                     dE             d eps       ncg     rms          rms(c)
DAV:   1    -0.231386257885E+04   -0.22706E-04   -0.10872E-03  4328   0.301E-02    0.118E-02
RMM:   2    -0.231386258315E+04   -0.43053E-05   -0.47580E-05  2814   0.674E-03
 200 F= -.23351442E+04 E0= -.23351442E+04  d E =-.512392E-05  mag=     4.0000
       N       E                     dE             d eps       ncg     rms          rms(c)
DAV:   1    -0.231386259240E+04   -0.13550E-04   -0.20257E-04  5168   0.138E-02    0.146E-02
RMM:   2    -0.231386261790E+04   -0.25507E-04   -0.43504E-05  2813   0.444E-03    0.486E-02
RMM:   3    -0.231386259155E+04    0.26357E-04   -0.12489E-05  2399   0.297E-03    0.454E-03
RMM:   4    -0.231386259178E+04   -0.23039E-06   -0.17603E-06  1594   0.106E-03
 201 F= -.23351442E+04 E0= -.23351442E+04  d E =-.801883E-05  mag=     4.0000
       N       E                     dE             d eps       ncg     rms          rms(c)
DAV:   1    -0.231386260003E+04   -0.84859E-05   -0.78539E-04  4296   0.247E-02    0.983E-03
RMM:   2    -0.231386260299E+04   -0.29596E-05   -0.31005E-05  2685   0.472E-03
 202 F= -.23351442E+04 E0= -.23351442E+04  d E =-.777064E-05  mag=     4.0000
       N       E                     dE             d eps       ncg     rms          rms(c)
DAV:   1    -0.231386262610E+04   -0.26070E-04   -0.11855E-03  4368   0.289E-02    0.161E-02
RMM:   2    -0.231386264773E+04   -0.21631E-04   -0.65894E-05  3036   0.712E-03    0.419E-02
RMM:   3    -0.231386262929E+04    0.18440E-04   -0.15221E-05  2699   0.419E-03    0.675E-03
RMM:   4    -0.231386262939E+04   -0.92870E-07   -0.25791E-06  2389   0.173E-03
 203 F= -.23351442E+04 E0= -.23351442E+04  d E =-.140753E-04  mag=     4.0000
       N       E                     dE             d eps       ncg     rms          rms(c)
DAV:   1    -0.231386264386E+04   -0.14565E-04   -0.15436E-03  4432   0.325E-02    0.134E-02
RMM:   2    -0.231386264914E+04   -0.52776E-05   -0.52517E-05  3067   0.647E-03
 204 F= -.23351442E+04 E0= -.23351442E+04  d E =-.197089E-04  mag=     4.0000
       N       E                     dE             d eps       ncg     rms          rms(c)
DAV:   1    -0.231386268005E+04   -0.36191E-04   -0.11934E-03  4416   0.304E-02    0.201E-02
RMM:   2    -0.231386271751E+04   -0.37460E-04   -0.80141E-05  3094   0.809E-03    0.572E-02
RMM:   3    -0.231386268160E+04    0.35907E-04   -0.22260E-05  2829   0.493E-03    0.724E-03
RMM:   4    -0.231386268190E+04   -0.29552E-06   -0.33175E-06  2500   0.191E-03
 205 F= -.23351442E+04 E0= -.23351442E+04  d E =-.187081E-04  mag=     4.0000
       N       E                     dE             d eps       ncg     rms          rms(c)
DAV:   1    -0.231386269162E+04   -0.10016E-04   -0.49018E-04  4624   0.193E-02    0.956E-03
RMM:   2    -0.231386269441E+04   -0.27928E-05   -0.17368E-05  2810   0.439E-03
 206 F= -.23351442E+04 E0= -.23351442E+04  d E =-.221128E-04  mag=     4.0000
       N       E                     dE             d eps       ncg     rms          rms(c)
DAV:   1    -0.231386271695E+04   -0.25330E-04   -0.82677E-04  4392   0.274E-02    0.134E-02
RMM:   2    -0.231386272351E+04   -0.65602E-05   -0.41557E-05  3008   0.662E-03
 207 F= -.23351443E+04 E0= -.23351443E+04  d E =-.140543E-04  mag=     4.0000
       N       E                     dE             d eps       ncg     rms          rms(c)
DAV:   1    -0.231386272704E+04   -0.10094E-04   -0.13742E-04  5232   0.130E-02    0.116E-02
RMM:   2    -0.231386273870E+04   -0.11654E-04   -0.21326E-05  2680   0.373E-03    0.336E-02
RMM:   3    -0.231386272641E+04    0.12287E-04   -0.69158E-06  2326   0.245E-03    0.449E-03
RMM:   4    -0.231386272602E+04    0.38560E-06   -0.12884E-06  2138   0.111E-03
 208 F= -.23351442E+04 E0= -.23351442E+04  d E =-.106298E-04  mag=     4.0000
       N       E                     dE             d eps       ncg     rms          rms(c)
DAV:   1    -0.231386274443E+04   -0.18016E-04   -0.64263E-04  4288   0.229E-02    0.967E-03
RMM:   2    -0.231386274868E+04   -0.42568E-05   -0.32582E-05  2747   0.491E-03
 209 F= -.23351443E+04 E0= -.23351443E+04  d E =-.110916E-04  mag=     4.0000
       N       E                     dE             d eps       ncg     rms          rms(c)
DAV:   1    -0.231386274879E+04   -0.43687E-05   -0.13541E-05  3408   0.582E-03    0.738E-03
RMM:   2    -0.231386275443E+04   -0.56372E-05   -0.88246E-06  2376   0.306E-03
 210 F= -.23351443E+04 E0= -.23351443E+04  d E =-.154655E-04  mag=     4.0000
       N       E                     dE             d eps       ncg     rms          rms(c)
DAV:   1    -0.231386275974E+04   -0.10941E-04   -0.49661E-04  4352   0.202E-02    0.879E-03
RMM:   2    -0.231386276146E+04   -0.17249E-05   -0.18761E-05  2382   0.424E-03
 211 F= -.23351443E+04 E0= -.23351443E+04  d E =-.200083E-05  mag=     4.0000
