       N       E                     dE             d eps       ncg     rms          rms(c)
DAV:   1     0.131723283315E+05    0.13172E+05   -0.84679E+05  4544   0.145E+03
DAV:   2    -0.100351931801E+04   -0.14176E+05   -0.13535E+05  4944   0.332E+02
DAV:   3    -0.248073381718E+04   -0.14772E+04   -0.14586E+04  5536   0.115E+02
DAV:   4    -0.252651409230E+04   -0.45780E+02   -0.45524E+02  6696   0.293E+01
DAV:   5    -0.252741470910E+04   -0.90062E+00   -0.89818E+00  6352   0.354E+00    0.171E+02
RMM:   6    -0.148942757600E+04    0.10380E+04   -0.19662E+03  4479   0.384E+01    0.732E+01
RMM:   7    -0.166743989217E+04   -0.17801E+03   -0.31395E+02  5195   0.147E+01    0.508E+01
RMM:   8    -0.171378123697E+04   -0.46341E+02   -0.58393E+01  5412   0.742E+00    0.420E+01
RMM:   9    -0.178925947274E+04   -0.75478E+02   -0.61240E+01  5138   0.697E+00    0.393E+01
RMM:  10    -0.191012444026E+04   -0.12086E+03   -0.68447E+01  5303   0.790E+00    0.278E+01
RMM:  11    -0.197575090456E+04   -0.65626E+02   -0.27103E+01  5427   0.454E+00    0.222E+01
RMM:  12    -0.204832541803E+04   -0.72575E+02   -0.26241E+01  5049   0.417E+00    0.171E+01
RMM:  13    -0.211026696706E+04   -0.61942E+02   -0.23421E+01  5121   0.384E+00    0.145E+01
RMM:  14    -0.220648716484E+04   -0.96220E+02   -0.64150E+01  4914   0.596E+00    0.121E+01
RMM:  15    -0.228157113308E+04   -0.75084E+02   -0.66623E+01  4677   0.573E+00    0.720E+00
RMM:  16    -0.230733722572E+04   -0.25766E+02   -0.26948E+01  4701   0.399E+00    0.521E+00
RMM:  17    -0.231486539714E+04   -0.75282E+01   -0.91747E+00  4990   0.207E+00    0.279E+00
RMM:  18    -0.231732443567E+04   -0.24590E+01   -0.20280E+00  5119   0.112E+00    0.195E+00
RMM:  19    -0.231838676578E+04   -0.10623E+01   -0.58470E-01  5164   0.517E-01    0.110E+00
RMM:  20    -0.231893510093E+04   -0.54834E+00   -0.22195E-01  4948   0.347E-01    0.588E-01
RMM:  21    -0.231910781757E+04   -0.17272E+00   -0.76163E-02  4866   0.206E-01    0.359E-01
RMM:  22    -0.231914304574E+04   -0.35228E-01   -0.16797E-02  4962   0.111E-01    0.201E-01
RMM:  23    -0.231917188394E+04   -0.28838E-01   -0.96432E-03  4522   0.736E-02    0.113E-01
RMM:  24    -0.231918916998E+04   -0.17286E-01   -0.50412E-03  4522   0.586E-02    0.778E-02
RMM:  25    -0.231919960558E+04   -0.10436E-01   -0.32455E-03  4603   0.444E-02    0.498E-02
RMM:  26    -0.231920601605E+04   -0.64105E-02   -0.20533E-03  4549   0.365E-02    0.305E-02
RMM:  27    -0.231920923160E+04   -0.32155E-02   -0.11593E-03  4417   0.255E-02    0.195E-02
RMM:  28    -0.231921027971E+04   -0.10481E-02   -0.37598E-04  4187   0.165E-02    0.123E-02
RMM:  29    -0.231921062152E+04   -0.34180E-03   -0.10460E-04  3820   0.916E-03    0.619E-03
RMM:  30    -0.231921082468E+04   -0.20317E-03   -0.48282E-05  3548   0.661E-03    0.492E-03
RMM:  31    -0.231921091025E+04   -0.85568E-04   -0.22291E-05  3160   0.486E-03    0.230E-03
RMM:  32    -0.231921094995E+04   -0.39696E-04   -0.11968E-05  2928   0.378E-03    0.163E-03
RMM:  33    -0.231921096625E+04   -0.16300E-04   -0.68572E-06  2796   0.292E-03    0.985E-04
RMM:  34    -0.231921096858E+04   -0.23336E-05   -0.28054E-06  2406   0.212E-03
   1 F= -.23405689E+04 E0= -.23405681E+04  d E =-.234057E+04  mag=     5.9833
       N       E                     dE             d eps       ncg     rms          rms(c)
DAV:   1    -0.231713436369E+04    0.20766E+01   -0.11877E+02  4840   0.977E+00    0.342E+00
RMM:   2    -0.231982491930E+04   -0.26906E+01   -0.28669E+01  6564   0.270E+00    0.332E+00
RMM:   3    -0.231985938992E+04   -0.34471E-01   -0.23482E+00  6176   0.841E-01    0.311E+00
RMM:   4    -0.231977338068E+04    0.86009E-01   -0.23214E-01  6517   0.208E-01    0.129E+00
RMM:   5    -0.231976016920E+04    0.13211E-01   -0.45291E-02  5932   0.939E-02    0.120E+00
RMM:   6    -0.231975059081E+04    0.95784E-02   -0.40177E-02  6008   0.955E-02    0.995E-01
RMM:   7    -0.231973943571E+04    0.11155E-01   -0.29724E-02  5424   0.811E-02    0.306E-01
RMM:   8    -0.231973948903E+04   -0.53328E-04   -0.32418E-03  5105   0.382E-02    0.233E-01
RMM:   9    -0.231973908515E+04    0.40388E-03   -0.12310E-03  4746   0.175E-02    0.126E-01
RMM:  10    -0.231973909758E+04   -0.12427E-04   -0.64593E-04  4560   0.147E-02    0.464E-02
RMM:  11    -0.231973920611E+04   -0.10854E-03   -0.16795E-04  4095   0.893E-03    0.203E-02
RMM:  12    -0.231973927035E+04   -0.64240E-04   -0.39192E-05  3215   0.567E-03    0.119E-02
RMM:  13    -0.231973932197E+04   -0.51612E-04   -0.23152E-05  2978   0.496E-03    0.666E-03
RMM:  14    -0.231973934637E+04   -0.24403E-04   -0.13808E-05  2895   0.426E-03    0.435E-03
RMM:  15    -0.231973936092E+04   -0.14556E-04   -0.97738E-06  2867   0.358E-03    0.274E-03
RMM:  16    -0.231973936712E+04   -0.61930E-05   -0.51936E-06  2838   0.308E-03
   2 F= -.23411038E+04 E0= -.23411038E+04  d E =-.534927E+00  mag=     5.9995
       N       E                     dE             d eps       ncg     rms          rms(c)
DAV:   1    -0.231969483683E+04    0.44524E-01   -0.35530E+00  4816   0.146E+00    0.592E-01
RMM:   2    -0.231976266881E+04   -0.67832E-01   -0.67050E-01  6520   0.433E-01    0.805E-01
RMM:   3    -0.231975936503E+04    0.33038E-02   -0.71021E-02  6172   0.150E-01    0.357E-01
RMM:   4    -0.231975822240E+04    0.11426E-02   -0.59420E-03  5342   0.323E-02    0.177E-01
RMM:   5    -0.231975810223E+04    0.12017E-03   -0.11458E-03  4786   0.163E-02    0.202E-01
RMM:   6    -0.231975767326E+04    0.42897E-03   -0.76190E-04  5005   0.143E-02    0.873E-02
RMM:   7    -0.231975762792E+04    0.45340E-04   -0.35860E-04  3940   0.111E-02    0.393E-02
RMM:   8    -0.231975761753E+04    0.10390E-04   -0.57752E-05  2950   0.619E-03    0.273E-02
RMM:   9    -0.231975760788E+04    0.96466E-05   -0.18790E-05  2927   0.395E-03
   3 F= -.23411208E+04 E0= -.23411208E+04  d E =-.551934E+00  mag=     5.9999
       N       E                     dE             d eps       ncg     rms          rms(c)
DAV:   1    -0.231974274741E+04    0.14870E-01   -0.22362E+01  4608   0.411E+00    0.107E+00
RMM:   2    -0.231991647290E+04   -0.17373E+00   -0.18712E+00  6359   0.812E-01    0.743E-01
RMM:   3    -0.231992685563E+04   -0.10383E-01   -0.19729E-01  5987   0.310E-01    0.734E-01
RMM:   4    -0.231992124681E+04    0.56088E-02   -0.15965E-02  6182   0.664E-02    0.393E-01
RMM:   5    -0.231991937904E+04    0.18678E-02   -0.47227E-03  5696   0.399E-02    0.263E-01
RMM:   6    -0.231991883826E+04    0.54078E-03   -0.46941E-03  5329   0.363E-02    0.211E-01
RMM:   7    -0.231991836963E+04    0.46862E-03   -0.12692E-03  5224   0.237E-02    0.955E-02
RMM:   8    -0.231991824519E+04    0.12444E-03   -0.18306E-04  3612   0.858E-03    0.410E-02
RMM:   9    -0.231991822709E+04    0.18094E-04   -0.14729E-04  3072   0.828E-03    0.420E-02
RMM:  10    -0.231991821277E+04    0.14326E-04   -0.49379E-05  2984   0.465E-03    0.141E-02
RMM:  11    -0.231991821319E+04   -0.42429E-06   -0.10839E-05  2940   0.315E-03
   4 F= -.23412835E+04 E0= -.23412835E+04  d E =-.162701E+00  mag=     6.0000
       N       E                     dE             d eps       ncg     rms          rms(c)
DAV:   1    -0.231982607770E+04    0.92135E-01   -0.17455E+01  4576   0.365E+00    0.937E-01
RMM:   2    -0.231995943259E+04   -0.13335E+00   -0.14376E+00  6379   0.714E-01    0.645E-01
RMM:   3    -0.231996736204E+04   -0.79294E-02   -0.14946E-01  5993   0.271E-01    0.646E-01
RMM:   4    -0.231996304928E+04    0.43128E-02   -0.12348E-02  6173   0.582E-02    0.346E-01
RMM:   5    -0.231996164262E+04    0.14067E-02   -0.35920E-03  5592   0.344E-02    0.240E-01
RMM:   6    -0.231996122397E+04    0.41866E-03   -0.36260E-03  5366   0.324E-02    0.203E-01
RMM:   7    -0.231996077356E+04    0.45041E-03   -0.10526E-03  5265   0.215E-02    0.828E-02
RMM:   8    -0.231996068678E+04    0.86774E-04   -0.14459E-04  3500   0.800E-03    0.351E-02
RMM:   9    -0.231996066695E+04    0.19837E-04   -0.11878E-04  3028   0.761E-03    0.227E-02
RMM:  10    -0.231996066778E+04   -0.82923E-06   -0.33366E-05  2983   0.411E-03
   5 F= -.23413279E+04 E0= -.23413279E+04  d E =-.207102E+00  mag=     6.0000
       N       E                     dE             d eps       ncg     rms          rms(c)
DAV:   1    -0.232001435081E+04   -0.53684E-01   -0.12696E+01  4592   0.283E+00    0.639E-01
RMM:   2    -0.232006181080E+04   -0.47460E-01   -0.49703E-01  6270   0.475E-01    0.511E-01
RMM:   3    -0.232006242694E+04   -0.61614E-03   -0.40544E-02  5885   0.158E-01    0.483E-01
RMM:   4    -0.232005980997E+04    0.26170E-02   -0.43208E-03  5796   0.412E-02    0.241E-01
RMM:   5    -0.232005931755E+04    0.49242E-03   -0.22042E-03  5366   0.277E-02    0.202E-01
RMM:   6    -0.232005902548E+04    0.29207E-03   -0.17413E-03  5237   0.247E-02    0.142E-01
RMM:   7    -0.232005881599E+04    0.20949E-03   -0.44763E-04  4527   0.142E-02    0.411E-02
RMM:   8    -0.232005879738E+04    0.18617E-04   -0.41876E-05  3023   0.533E-03    0.184E-02
RMM:   9    -0.232005880103E+04   -0.36538E-05   -0.24510E-05  2960   0.383E-03
   6 F= -.23414272E+04 E0= -.23414272E+04  d E =-.992499E-01  mag=     6.0000
       N       E                     dE             d eps       ncg     rms          rms(c)
DAV:   1    -0.231999615710E+04    0.62640E-01   -0.35523E+01  4544   0.474E+00    0.107E+00
RMM:   2    -0.232013317913E+04   -0.13702E+00   -0.14354E+00  6234   0.811E-01    0.871E-01
RMM:   3    -0.232013464190E+04   -0.14628E-02   -0.12193E-01  5918   0.273E-01    0.808E-01
RMM:   4    -0.232012733156E+04    0.73103E-02   -0.12596E-02  6053   0.696E-02    0.415E-01
RMM:   5    -0.232012564759E+04    0.16840E-02   -0.58252E-03  5526   0.455E-02    0.331E-01
RMM:   6    -0.232012504550E+04    0.60209E-03   -0.51337E-03  5439   0.420E-02    0.272E-01
RMM:   7    -0.232012430847E+04    0.73704E-03   -0.14618E-03  5315   0.253E-02    0.735E-02
RMM:   8    -0.232012424469E+04    0.63778E-04   -0.14444E-04  3283   0.819E-03    0.334E-02
RMM:   9    -0.232012425379E+04   -0.91006E-05   -0.97480E-05  3079   0.662E-03
   7 F= -.23414942E+04 E0= -.23414942E+04  d E =-.166206E+00  mag=     6.0000
       N       E                     dE             d eps       ncg     rms          rms(c)
DAV:   1    -0.232014969725E+04   -0.25453E-01   -0.85126E+00  4576   0.227E+00    0.592E-01
RMM:   2    -0.232019077918E+04   -0.41082E-01   -0.42449E-01  6106   0.412E-01    0.385E-01
RMM:   3    -0.232019190411E+04   -0.11249E-02   -0.35687E-02  5704   0.144E-01    0.406E-01
RMM:   4    -0.232019060084E+04    0.13033E-02   -0.33471E-03  5965   0.347E-02    0.187E-01
RMM:   5    -0.232019033044E+04    0.27040E-03   -0.13675E-03  5070   0.222E-02    0.176E-01
RMM:   6    -0.232019009197E+04    0.23847E-03   -0.99398E-04  5071   0.189E-02    0.105E-01
RMM:   7    -0.232018998460E+04    0.10738E-03   -0.22398E-04  4295   0.107E-02    0.390E-02
RMM:   8    -0.232018998210E+04    0.24992E-05   -0.49481E-05  3012   0.619E-03
   8 F= -.23415594E+04 E0= -.23415594E+04  d E =-.652137E-01  mag=     6.0000
       N       E                     dE             d eps       ncg     rms          rms(c)
DAV:   1    -0.231996474526E+04    0.22524E+00   -0.60657E+01  4512   0.608E+00    0.160E+00
RMM:   2    -0.232027914631E+04   -0.31440E+00   -0.32335E+00  6086   0.112E+00    0.112E+00
RMM:   3    -0.232028092655E+04   -0.17802E-02   -0.27398E-01  5783   0.390E-01    0.107E+00
RMM:   4    -0.232027188592E+04    0.90406E-02   -0.24084E-02  6345   0.930E-02    0.506E-01
RMM:   5    -0.232026951419E+04    0.23717E-02   -0.10358E-02  5477   0.576E-02    0.447E-01
RMM:   6    -0.232026815157E+04    0.13626E-02   -0.71006E-03  5756   0.495E-02    0.295E-01
RMM:   7    -0.232026723126E+04    0.92031E-03   -0.20549E-03  5611   0.283E-02    0.116E-01
RMM:   8    -0.232026716789E+04    0.63369E-04   -0.41337E-04  4123   0.126E-02    0.828E-02
RMM:   9    -0.232026712051E+04    0.47384E-04   -0.15894E-04  3305   0.809E-03    0.527E-02
RMM:  10    -0.232026711659E+04    0.39156E-05   -0.63827E-05  3220   0.582E-03
   9 F= -.23416338E+04 E0= -.23416338E+04  d E =-.139636E+00  mag=     5.9999
       N       E                     dE             d eps       ncg     rms          rms(c)
DAV:   1    -0.232019461703E+04    0.72503E-01   -0.19782E+01  4528   0.334E+00    0.104E+00
RMM:   2    -0.232033172305E+04   -0.13711E+00   -0.13954E+00  6218   0.685E-01    0.864E-01
RMM:   3    -0.232033434666E+04   -0.26236E-02   -0.12765E-01  5998   0.249E-01    0.827E-01
RMM:   4    -0.232032771475E+04    0.66319E-02   -0.11585E-02  6237   0.615E-02    0.295E-01
RMM:   5    -0.232032721659E+04    0.49816E-03   -0.46999E-03  5383   0.356E-02    0.326E-01
RMM:   6    -0.232032613838E+04    0.10782E-02   -0.28661E-03  5475   0.304E-02    0.144E-01
RMM:   7    -0.232032598306E+04    0.15532E-03   -0.52737E-04  5111   0.155E-02    0.683E-02
RMM:   8    -0.232032597865E+04    0.44060E-05   -0.15667E-04  3157   0.851E-03    0.559E-02
RMM:   9    -0.232032594382E+04    0.34828E-04   -0.53493E-05  3089   0.558E-03    0.200E-02
RMM:  10    -0.232032595231E+04   -0.84835E-05   -0.21505E-05  3014   0.419E-03
  10 F= -.23416904E+04 E0= -.23416902E+04  d E =-.565741E-01  mag=     5.9983
       N       E                     dE             d eps       ncg     rms          rms(c)
DAV:   1    -0.232029793536E+04    0.28008E-01   -0.57069E+00  4624   0.179E+00    0.562E-01
RMM:   2    -0.232033736027E+04   -0.39425E-01   -0.39919E-01  6233   0.368E-01    0.498E-01
RMM:   3    -0.232033766779E+04   -0.30752E-03   -0.36257E-02  5968   0.132E-01    0.443E-01
RMM:   4    -0.232033578500E+04    0.18828E-02   -0.32729E-03  5759   0.330E-02    0.157E-01
RMM:   5    -0.232033567486E+04    0.11013E-03   -0.14210E-03  5308   0.209E-02    0.181E-01
RMM:   6    -0.232033532730E+04    0.34757E-03   -0.84352E-04  4814   0.166E-02    0.726E-02
RMM:   7    -0.232033529383E+04    0.33468E-04   -0.13746E-04  3801   0.896E-03    0.356E-02
RMM:   8    -0.232033529196E+04    0.18695E-05   -0.43709E-05  2962   0.590E-03
  11 F= -.23416987E+04 E0= -.23416982E+04  d E =-.649244E-01  mag=     5.9933
       N       E                     dE             d eps       ncg     rms          rms(c)
DAV:   1    -0.232026351214E+04    0.71782E-01   -0.18313E+01  4528   0.304E+00    0.106E+00
RMM:   2    -0.232039900384E+04   -0.13549E+00   -0.13486E+00  6408   0.624E-01    0.928E-01
RMM:   3    -0.232040230900E+04   -0.33052E-02   -0.12938E-01  6048   0.225E-01    0.873E-01
RMM:   4    -0.232039564528E+04    0.66637E-02   -0.11820E-02  6117   0.568E-02    0.310E-01
RMM:   5    -0.232039550443E+04    0.14085E-03   -0.38160E-03  5311   0.314E-02    0.347E-01
RMM:   6    -0.232039432592E+04    0.11785E-02   -0.28363E-03  5529   0.282E-02    0.178E-01
RMM:   7    -0.232039411157E+04    0.21436E-03   -0.77864E-04  5065   0.162E-02    0.758E-02
RMM:   8    -0.232039411804E+04   -0.64691E-05   -0.15586E-04  3270   0.805E-03    0.573E-02
RMM:   9    -0.232039412273E+04   -0.46955E-05   -0.76203E-05  3064   0.561E-03
  12 F= -.23417562E+04 E0= -.23417526E+04  d E =-.574610E-01  mag=     5.9382
       N       E                     dE             d eps       ncg     rms          rms(c)
DAV:   1    -0.231960807112E+04    0.78605E+00   -0.10847E+02  4512   0.735E+00    0.399E+00
RMM:   2    -0.232067867862E+04   -0.10706E+01   -0.96403E+00  6370   0.162E+00    0.475E+00
RMM:   3    -0.232059073869E+04    0.87940E-01   -0.97344E-01  5765   0.607E-01    0.380E+00
RMM:   4    -0.232042754548E+04    0.16319E+00   -0.12710E-01  5311   0.198E-01    0.213E+00
RMM:   5    -0.232040225265E+04    0.25293E-01   -0.74381E-02  5347   0.131E-01    0.228E+00
RMM:   6    -0.232034282790E+04    0.59425E-01   -0.98291E-02  5268   0.155E-01    0.180E+00
RMM:   7    -0.232035264012E+04   -0.98122E-02   -0.48475E-02  5557   0.119E-01    0.105E+00
RMM:   8    -0.232037927575E+04   -0.26636E-01   -0.23650E-02  5365   0.781E-02    0.722E-01
RMM:   9    -0.232042028645E+04   -0.41011E-01   -0.10395E-02  4708   0.584E-02    0.325E-01
RMM:  10    -0.232047108175E+04   -0.50795E-01   -0.10212E-02  4562   0.570E-02    0.210E-01
RMM:  11    -0.232050483311E+04   -0.33751E-01   -0.71302E-03  4605   0.514E-02    0.135E-01
RMM:  12    -0.232051746029E+04   -0.12627E-01   -0.26402E-03  4751   0.335E-02    0.116E-01
RMM:  13    -0.232052667054E+04   -0.92102E-02   -0.17287E-03  4343   0.243E-02    0.698E-02
RMM:  14    -0.232053238434E+04   -0.57138E-02   -0.14663E-03  4325   0.253E-02    0.555E-02
RMM:  15    -0.232053357940E+04   -0.11951E-02   -0.37476E-04  4485   0.147E-02    0.297E-02
RMM:  16    -0.232053428905E+04   -0.70965E-03   -0.14225E-04  3968   0.800E-03    0.123E-02
RMM:  17    -0.232053465039E+04   -0.36134E-03   -0.46901E-05  3478   0.628E-03    0.932E-03
RMM:  18    -0.232053475993E+04   -0.10954E-03   -0.15963E-05  2986   0.405E-03    0.467E-03
RMM:  19    -0.232053480960E+04   -0.49663E-04   -0.93837E-06  2864   0.351E-03    0.211E-03
RMM:  20    -0.232053482318E+04   -0.13583E-04   -0.52583E-06  2744   0.283E-03    0.182E-03
RMM:  21    -0.232053482512E+04   -0.19464E-05   -0.24023E-06  2466   0.203E-03
  13 F= -.23418950E+04 E0= -.23418949E+04  d E =-.196300E+00  mag=     4.0006
       N       E                     dE             d eps       ncg     rms          rms(c)
DAV:   1    -0.232054330636E+04   -0.84832E-02   -0.31538E+00  4832   0.120E+00    0.377E-01
RMM:   2    -0.232056384516E+04   -0.20539E-01   -0.18723E-01  6474   0.247E-01    0.520E-01
RMM:   3    -0.232056203597E+04    0.18092E-02   -0.15214E-02  5841   0.752E-02    0.313E-01
RMM:   4    -0.232056116466E+04    0.87131E-03   -0.16729E-03  4520   0.196E-02    0.156E-01
RMM:   5    -0.232056116968E+04   -0.50157E-05   -0.50281E-04  3347   0.109E-02    0.175E-01
RMM:   6    -0.232056103143E+04    0.13825E-03   -0.60710E-04  4817   0.132E-02    0.129E-01
RMM:   7    -0.232056090217E+04    0.12926E-03   -0.29706E-04  3449   0.101E-02    0.674E-02
RMM:   8    -0.232056086027E+04    0.41896E-04   -0.85042E-05  3293   0.595E-03    0.262E-02
RMM:   9    -0.232056085493E+04    0.53375E-05   -0.11983E-05  2927   0.327E-03
  14 F= -.23419210E+04 E0= -.23419210E+04  d E =-.260351E-01  mag=     4.0002
       N       E                     dE             d eps       ncg     rms          rms(c)
DAV:   1    -0.232044384141E+04    0.11702E+00   -0.28408E+01  4512   0.362E+00    0.114E+00
RMM:   2    -0.232063736776E+04   -0.19353E+00   -0.17602E+00  6475   0.768E-01    0.163E+00
RMM:   3    -0.232061720400E+04    0.20164E-01   -0.14179E-01  6197   0.231E-01    0.944E-01
RMM:   4    -0.232060991785E+04    0.72862E-02   -0.15903E-02  5925   0.596E-02    0.521E-01
RMM:   5    -0.232060972710E+04    0.19075E-03   -0.44065E-03  5258   0.292E-02    0.576E-01
RMM:   6    -0.232060793429E+04    0.17928E-02   -0.52015E-03  5597   0.360E-02    0.354E-01
RMM:   7    -0.232060709924E+04    0.83505E-03   -0.32267E-03  5630   0.292E-02    0.236E-01
RMM:   8    -0.232060657952E+04    0.51972E-03   -0.10565E-03  5045   0.163E-02    0.965E-02
RMM:   9    -0.232060650746E+04    0.72060E-04   -0.13220E-04  3266   0.772E-03    0.382E-02
RMM:  10    -0.232060651324E+04   -0.57811E-05   -0.41868E-05  3016   0.453E-03
  15 F= -.23419668E+04 E0= -.23419667E+04  d E =-.717454E-01  mag=     4.0000
       N       E                     dE             d eps       ncg     rms          rms(c)
DAV:   1    -0.232059336359E+04    0.13144E-01   -0.27511E+00  4592   0.115E+00    0.360E-01
RMM:   2    -0.232061160288E+04   -0.18239E-01   -0.16367E-01  6467   0.243E-01    0.503E-01
RMM:   3    -0.232060963383E+04    0.19691E-02   -0.13145E-02  5787   0.696E-02    0.285E-01
RMM:   4    -0.232060896278E+04    0.67105E-03   -0.15006E-03  4367   0.181E-02    0.157E-01
RMM:   5    -0.232060898481E+04   -0.22032E-04   -0.48611E-04  3337   0.107E-02    0.182E-01
RMM:   6    -0.232060884217E+04    0.14265E-03   -0.64578E-04  4864   0.136E-02    0.132E-01
RMM:   7    -0.232060869387E+04    0.14830E-03   -0.28796E-04  3427   0.998E-03    0.611E-02
RMM:   8    -0.232060866328E+04    0.30591E-04   -0.70802E-05  3344   0.553E-03    0.275E-02
RMM:   9    -0.232060865850E+04    0.47765E-05   -0.14432E-05  2918   0.319E-03
  16 F= -.23419689E+04 E0= -.23419688E+04  d E =-.739140E-01  mag=     4.0000
       N       E                     dE             d eps       ncg     rms          rms(c)
DAV:   1    -0.232064315614E+04   -0.34493E-01   -0.85485E-01  4608   0.822E-01    0.292E-01
RMM:   2    -0.232065567968E+04   -0.12524E-01   -0.11666E-01  6235   0.198E-01    0.455E-01
RMM:   3    -0.232065455779E+04    0.11219E-02   -0.11515E-02  5836   0.689E-02    0.278E-01
RMM:   4    -0.232065390332E+04    0.65447E-03   -0.11344E-03  4685   0.172E-02    0.116E-01
RMM:   5    -0.232065391030E+04   -0.69790E-05   -0.32594E-04  3711   0.112E-02    0.131E-01
RMM:   6    -0.232065372215E+04    0.18815E-03   -0.36635E-04  4741   0.119E-02    0.569E-02
RMM:   7    -0.232065369234E+04    0.29807E-04   -0.11971E-04  3732   0.882E-03    0.303E-02
RMM:   8    -0.232065368949E+04    0.28483E-05   -0.34806E-05  2946   0.468E-03
  17 F= -.23420144E+04 E0= -.23420144E+04  d E =-.454886E-01  mag=     4.0000
       N       E                     dE             d eps       ncg     rms          rms(c)
DAV:   1    -0.232065990412E+04   -0.62118E-02   -0.76911E+00  4512   0.247E+00    0.854E-01
RMM:   2    -0.232076990417E+04   -0.11000E+00   -0.10366E+00  6212   0.591E-01    0.134E+00
RMM:   3    -0.232076152606E+04    0.83781E-02   -0.10169E-01  6075   0.201E-01    0.758E-01
RMM:   4    -0.232075624146E+04    0.52846E-02   -0.10142E-02  5485   0.509E-02    0.310E-01
RMM:   5    -0.232075635877E+04   -0.11731E-03   -0.28761E-03  5540   0.311E-02    0.369E-01
RMM:   6    -0.232075476230E+04    0.15965E-02   -0.27365E-03  5461   0.299E-02    0.160E-01
RMM:   7    -0.232075456725E+04    0.19505E-03   -0.99816E-04  5185   0.220E-02    0.992E-02
RMM:   8    -0.232075448240E+04    0.84849E-04   -0.27487E-04  3624   0.995E-03    0.649E-02
RMM:   9    -0.232075442365E+04    0.58750E-04   -0.57220E-05  3156   0.644E-03    0.192E-02
RMM:  10    -0.232075441230E+04    0.11348E-04   -0.27366E-05  2987   0.414E-03    0.926E-03
RMM:  11    -0.232075441031E+04    0.19832E-05   -0.90019E-06  2916   0.373E-03
  18 F= -.23421165E+04 E0= -.23421165E+04  d E =-.147616E+00  mag=     4.0000
       N       E                     dE             d eps       ncg     rms          rms(c)
DAV:   1    -0.232041392814E+04    0.34048E+00   -0.30743E+01  4512   0.495E+00    0.165E+00
RMM:   2    -0.232083967551E+04   -0.42575E+00   -0.41284E+00  6216   0.118E+00    0.243E+00
RMM:   3    -0.232082060875E+04    0.19067E-01   -0.39784E-01  6063   0.406E-01    0.139E+00
RMM:   4    -0.232080150362E+04    0.19105E-01   -0.39840E-02  5708   0.102E-01    0.582E-01
RMM:   5    -0.232080142632E+04    0.77304E-04   -0.11390E-02  5899   0.600E-02    0.680E-01
RMM:   6    -0.232079587799E+04    0.55483E-02   -0.10215E-02  5581   0.562E-02    0.316E-01
RMM:   7    -0.232079534816E+04    0.52984E-03   -0.38493E-03  5595   0.419E-02    0.223E-01
RMM:   8    -0.232079481004E+04    0.53812E-03   -0.10294E-03  5044   0.188E-02    0.123E-01
RMM:   9    -0.232079460214E+04    0.20790E-03   -0.20352E-04  4077   0.101E-02    0.365E-02
RMM:  10    -0.232079455728E+04    0.44855E-04   -0.98818E-05  3658   0.709E-03    0.184E-02
RMM:  11    -0.232079454686E+04    0.10428E-04   -0.32091E-05  3157   0.553E-03    0.884E-03
RMM:  12    -0.232079454430E+04    0.25580E-05   -0.16853E-05  2936   0.462E-03
  19 F= -.23421596E+04 E0= -.23421596E+04  d E =-.190718E+00  mag=     4.0000
       N       E                     dE             d eps       ncg     rms          rms(c)
DAV:   1    -0.232077016076E+04    0.24386E-01   -0.28714E+00  4592   0.151E+00    0.502E-01
RMM:   2    -0.232080895407E+04   -0.38793E-01   -0.38450E-01  6250   0.363E-01    0.646E-01
RMM:   3    -0.232080828944E+04    0.66463E-03   -0.38064E-02  6033   0.125E-01    0.485E-01
RMM:   4    -0.232080593805E+04    0.23514E-02   -0.35146E-03  5347   0.311E-02    0.159E-01
RMM:   5    -0.232080570773E+04    0.23032E-03   -0.12060E-03  5536   0.213E-02    0.146E-01
RMM:   6    -0.232080560767E+04    0.10006E-03   -0.72961E-04  5259   0.154E-02    0.119E-01
RMM:   7    -0.232080544437E+04    0.16330E-03   -0.22309E-04  4133   0.101E-02    0.317E-02
RMM:   8    -0.232080543381E+04    0.10562E-04   -0.40118E-05  3010   0.550E-03    0.286E-02
RMM:   9    -0.232080542424E+04    0.95720E-05   -0.18327E-05  2928   0.378E-03
  20 F= -.23421696E+04 E0= -.23421696E+04  d E =-.200668E+00  mag=     4.0000
       N       E                     dE             d eps       ncg     rms          rms(c)
DAV:   1    -0.232079387277E+04    0.11561E-01   -0.45480E+00  4512   0.195E+00    0.699E-01
RMM:   2    -0.232087860682E+04   -0.84734E-01   -0.83362E-01  6380   0.494E-01    0.999E-01
RMM:   3    -0.232087728689E+04    0.13199E-02   -0.84437E-02  6107   0.168E-01    0.559E-01
RMM:   4    -0.232087441318E+04    0.28737E-02   -0.78675E-03  5573   0.393E-02    0.243E-01
RMM:   5    -0.232087425890E+04    0.15429E-03   -0.18766E-03  5337   0.219E-02    0.255E-01
RMM:   6    -0.232087330298E+04    0.95592E-03   -0.15336E-03  5349   0.212E-02    0.818E-02
RMM:   7    -0.232087326603E+04    0.36945E-04   -0.35802E-04  4556   0.138E-02    0.511E-02
RMM:   8    -0.232087325751E+04    0.85263E-05   -0.93433E-05  3219   0.658E-03
  21 F= -.23422381E+04 E0= -.23422381E+04  d E =-.684915E-01  mag=     4.0000
       N       E                     dE             d eps       ncg     rms          rms(c)
DAV:   1    -0.232069561466E+04    0.17765E+00   -0.12552E+01  4512   0.325E+00    0.116E+00
RMM:   2    -0.232092934820E+04   -0.23373E+00   -0.23229E+00  6387   0.820E-01    0.157E+00
RMM:   3    -0.232092652495E+04    0.28232E-02   -0.22818E-01  6162   0.272E-01    0.887E-01
RMM:   4    -0.232091937311E+04    0.71518E-02   -0.21598E-02  5802   0.651E-02    0.411E-01
RMM:   5    -0.232091895284E+04    0.42027E-03   -0.51981E-03  5776   0.355E-02    0.429E-01
RMM:   6    -0.232091627734E+04    0.26755E-02   -0.44199E-03  5565   0.352E-02    0.135E-01
RMM:   7    -0.232091624513E+04    0.32215E-04   -0.10289E-03  5092   0.214E-02    0.115E-01
RMM:   8    -0.232091612751E+04    0.11762E-03   -0.30199E-04  3852   0.105E-02    0.718E-02
RMM:   9    -0.232091605504E+04    0.72469E-04   -0.90708E-05  3386   0.740E-03    0.289E-02
RMM:  10    -0.232091603329E+04    0.21752E-04   -0.49321E-05  3241   0.546E-03    0.131E-02
RMM:  11    -0.232091602873E+04    0.45575E-05   -0.13852E-05  2927   0.444E-03
  22 F= -.23422820E+04 E0= -.23422820E+04  d E =-.112432E+00  mag=     4.0000
       N       E                     dE             d eps       ncg     rms          rms(c)
DAV:   1    -0.232089158562E+04    0.24448E-01   -0.39266E+00  4560   0.181E+00    0.629E-01
RMM:   2    -0.232096207994E+04   -0.70494E-01   -0.70133E-01  6382   0.459E-01    0.773E-01
RMM:   3    -0.232096221683E+04   -0.13689E-03   -0.71011E-02  5939   0.156E-01    0.452E-01
RMM:   4    -0.232096024111E+04    0.19757E-02   -0.63556E-03  5397   0.362E-02    0.204E-01
RMM:   5    -0.232096030569E+04   -0.64578E-04   -0.15247E-03  5196   0.209E-02    0.237E-01
RMM:   6    -0.232095956228E+04    0.74341E-03   -0.10845E-03  5259   0.182E-02    0.794E-02
RMM:   7    -0.232095962267E+04   -0.60391E-04   -0.28913E-04  3670   0.115E-02    0.955E-02
RMM:   8    -0.232095951945E+04    0.10322E-03   -0.10315E-04  3055   0.653E-03    0.253E-02
RMM:   9    -0.232095951446E+04    0.49917E-05   -0.17069E-05  2958   0.398E-03
  23 F= -.23423253E+04 E0= -.23423253E+04  d E =-.433109E-01  mag=     4.0000
       N       E                     dE             d eps       ncg     rms          rms(c)
DAV:   1    -0.232081792080E+04    0.14160E+00   -0.95716E+00  4512   0.283E+00    0.977E-01
RMM:   2    -0.232098882716E+04   -0.17091E+00   -0.17137E+00  6361   0.717E-01    0.115E+00
RMM:   3    -0.232099054583E+04   -0.17187E-02   -0.17441E-01  6045   0.245E-01    0.687E-01
RMM:   4    -0.232098588965E+04    0.46562E-02   -0.15503E-02  5673   0.569E-02    0.311E-01
RMM:   5    -0.232098593447E+04   -0.44822E-04   -0.36832E-03  5741   0.317E-02    0.359E-01
RMM:   6    -0.232098426684E+04    0.16676E-02   -0.24596E-03  5542   0.255E-02    0.115E-01
RMM:   7    -0.232098420998E+04    0.56864E-04   -0.53138E-04  4554   0.155E-02    0.703E-02
RMM:   8    -0.232098420824E+04    0.17332E-05   -0.14882E-04  3149   0.794E-03    0.656E-02
RMM:   9    -0.232098416132E+04    0.46925E-04   -0.45108E-05  3010   0.596E-03    0.199E-02
RMM:  10    -0.232098415959E+04    0.17335E-05   -0.22521E-05  2998   0.402E-03
  24 F= -.23423497E+04 E0= -.23423497E+04  d E =-.677152E-01  mag=     4.0000
       N       E                     dE             d eps       ncg     rms          rms(c)
DAV:   1    -0.232096949730E+04    0.14664E-01   -0.26118E+00  4528   0.166E+00    0.515E-01
RMM:   2    -0.232100807504E+04   -0.38578E-01   -0.38053E-01  6127   0.378E-01    0.574E-01
RMM:   3    -0.232100760403E+04    0.47100E-03   -0.39023E-02  5920   0.141E-01    0.394E-01
RMM:   4    -0.232100574881E+04    0.18552E-02   -0.39464E-03  5594   0.329E-02    0.172E-01
RMM:   5    -0.232100566647E+04    0.82336E-04   -0.83884E-04  4556   0.170E-02    0.183E-01
RMM:   6    -0.232100523453E+04    0.43195E-03   -0.72198E-04  5009   0.178E-02    0.570E-02
RMM:   7    -0.232100525618E+04   -0.21650E-04   -0.24086E-04  4075   0.126E-02    0.694E-02
RMM:   8    -0.232100519015E+04    0.66025E-04   -0.78172E-05  3112   0.601E-03    0.169E-02
RMM:   9    -0.232100518224E+04    0.79093E-05   -0.12887E-05  2919   0.423E-03
  25 F= -.23423703E+04 E0= -.23423703E+04  d E =-.206053E-01  mag=     4.0000
       N       E                     dE             d eps       ncg     rms          rms(c)
DAV:   1    -0.232098927899E+04    0.15911E-01   -0.15218E+00  4576   0.127E+00    0.393E-01
RMM:   2    -0.232101176019E+04   -0.22481E-01   -0.22213E-01  6136   0.289E-01    0.436E-01
RMM:   3    -0.232101147394E+04    0.28625E-03   -0.22776E-02  5870   0.108E-01    0.298E-01
RMM:   4    -0.232101041130E+04    0.10626E-02   -0.23039E-03  5433   0.253E-02    0.133E-01
RMM:   5    -0.232101035762E+04    0.53682E-04   -0.48988E-04  3927   0.135E-02    0.140E-01
RMM:   6    -0.232101009977E+04    0.25785E-03   -0.42778E-04  4907   0.142E-02    0.427E-02
RMM:   7    -0.232101011021E+04   -0.10440E-04   -0.14036E-04  3579   0.105E-02    0.519E-02
RMM:   8    -0.232101007291E+04    0.37298E-04   -0.47051E-05  2964   0.522E-03    0.133E-02
RMM:   9    -0.232101006785E+04    0.50562E-05   -0.88950E-06  2905   0.369E-03
  26 F= -.23423749E+04 E0= -.23423749E+04  d E =-.251695E-01  mag=     4.0000
       N       E                     dE             d eps       ncg     rms          rms(c)
DAV:   1    -0.232097938233E+04    0.30691E-01   -0.33812E+00  4512   0.188E+00    0.517E-01
RMM:   2    -0.232103005433E+04   -0.50672E-01   -0.51538E-01  6196   0.407E-01    0.577E-01
RMM:   3    -0.232103156855E+04   -0.15142E-02   -0.54420E-02  5960   0.156E-01    0.439E-01
RMM:   4    -0.232102950761E+04    0.20609E-02   -0.51603E-03  5518   0.342E-02    0.180E-01
RMM:   5    -0.232102940971E+04    0.97902E-04   -0.83449E-04  4644   0.163E-02    0.188E-01
RMM:   6    -0.232102890343E+04    0.50628E-03   -0.80225E-04  4853   0.179E-02    0.578E-02
RMM:   7    -0.232102888720E+04    0.16225E-04   -0.27194E-04  4425   0.131E-02    0.311E-02
RMM:   8    -0.232102888262E+04    0.45794E-05   -0.42995E-05  2992   0.550E-03
  27 F= -.23423935E+04 E0= -.23423935E+04  d E =-.185996E-01  mag=     4.0000
       N       E                     dE             d eps       ncg     rms          rms(c)
DAV:   1    -0.232091006925E+04    0.11882E+00   -0.87268E+00  4512   0.303E+00    0.831E-01
RMM:   2    -0.232104079434E+04   -0.13073E+00   -0.13343E+00  6197   0.656E-01    0.919E-01
RMM:   3    -0.232104515484E+04   -0.43605E-02   -0.14408E-01  6010   0.247E-01    0.710E-01
RMM:   4    -0.232103975816E+04    0.53967E-02   -0.13180E-02  5787   0.546E-02    0.295E-01
RMM:   5    -0.232103946827E+04    0.28989E-03   -0.22107E-03  5208   0.253E-02    0.299E-01
RMM:   6    -0.232103819159E+04    0.12767E-02   -0.21470E-03  5090   0.282E-02    0.965E-02
RMM:   7    -0.232103814556E+04    0.46024E-04   -0.70466E-04  4811   0.196E-02    0.600E-02
RMM:   8    -0.232103811652E+04    0.29040E-04   -0.13171E-04  3557   0.847E-03    0.396E-02
RMM:   9    -0.232103809466E+04    0.21859E-04   -0.37192E-05  3081   0.582E-03    0.174E-02
RMM:  10    -0.232103808916E+04    0.55060E-05   -0.19418E-05  3017   0.374E-03
  28 F= -.23424024E+04 E0= -.23424024E+04  d E =-.274515E-01  mag=     4.0000
       N       E                     dE             d eps       ncg     rms          rms(c)
DAV:   1    -0.232098916724E+04    0.48927E-01   -0.56497E+00  4512   0.239E+00    0.616E-01
RMM:   2    -0.232104933743E+04   -0.60170E-01   -0.66204E-01  6014   0.479E-01    0.349E-01
RMM:   3    -0.232105387038E+04   -0.45330E-02   -0.67873E-02  5713   0.188E-01    0.333E-01
RMM:   4    -0.232105327098E+04    0.59940E-03   -0.65919E-03  5943   0.382E-02    0.250E-01
RMM:   5    -0.232105273662E+04    0.53436E-03   -0.14299E-03  5238   0.222E-02    0.211E-01
RMM:   6    -0.232105235448E+04    0.38215E-03   -0.12641E-03  5324   0.212E-02    0.117E-01
RMM:   7    -0.232105221209E+04    0.14239E-03   -0.35674E-04  4815   0.132E-02    0.387E-02
RMM:   8    -0.232105220482E+04    0.72666E-05   -0.63166E-05  3071   0.681E-03
  29 F= -.23424162E+04 E0= -.23424162E+04  d E =-.138702E-01  mag=     4.0000
       N       E                     dE             d eps       ncg     rms          rms(c)
DAV:   1    -0.232103937264E+04    0.12839E-01   -0.13002E+00  4640   0.115E+00    0.299E-01
RMM:   2    -0.232105316342E+04   -0.13791E-01   -0.15261E-01  6055   0.230E-01    0.167E-01
RMM:   3    -0.232105422115E+04   -0.10577E-02   -0.15516E-02  5666   0.872E-02    0.162E-01
RMM:   4    -0.232105407302E+04    0.14813E-03   -0.15347E-03  4485   0.184E-02    0.119E-01
RMM:   5    -0.232105396727E+04    0.10575E-03   -0.34280E-04  4378   0.117E-02    0.110E-01
RMM:   6    -0.232105385146E+04    0.11581E-03   -0.29369E-04  4220   0.111E-02    0.497E-02
RMM:   7    -0.232105382447E+04    0.26989E-04   -0.81247E-05  3608   0.732E-03    0.145E-02
RMM:   8    -0.232105382176E+04    0.27100E-05   -0.12360E-05  2999   0.466E-03
  30 F= -.23424177E+04 E0= -.23424177E+04  d E =-.153674E-01  mag=     4.0000
       N       E                     dE             d eps       ncg     rms          rms(c)
DAV:   1    -0.232101787013E+04    0.35954E-01   -0.43494E+00  4512   0.196E+00    0.551E-01
RMM:   2    -0.232106851029E+04   -0.50640E-01   -0.53755E-01  6293   0.408E-01    0.501E-01
RMM:   3    -0.232107284954E+04   -0.43392E-02   -0.61476E-02  6053   0.157E-01    0.552E-01
RMM:   4    -0.232106965653E+04    0.31930E-02   -0.52376E-03  5702   0.363E-02    0.173E-01
RMM:   5    -0.232106937950E+04    0.27703E-03   -0.15832E-03  5219   0.225E-02    0.168E-01
RMM:   6    -0.232106920862E+04    0.17089E-03   -0.78722E-04  5154   0.164E-02    0.126E-01
RMM:   7    -0.232106905459E+04    0.15403E-03   -0.25484E-04  4208   0.107E-02    0.288E-02
RMM:   8    -0.232106904671E+04    0.78793E-05   -0.36894E-05  3084   0.564E-03
  31 F= -.23424322E+04 E0= -.23424322E+04  d E =-.145087E-01  mag=     4.0000
       N       E                     dE             d eps       ncg     rms          rms(c)
DAV:   1    -0.232104354441E+04    0.25510E-01   -0.24667E+00  4512   0.148E+00    0.415E-01
RMM:   2    -0.232107198519E+04   -0.28441E-01   -0.30323E-01  6315   0.306E-01    0.370E-01
RMM:   3    -0.232107456710E+04   -0.25819E-02   -0.34820E-02  6001   0.118E-01    0.416E-01
RMM:   4    -0.232107280871E+04    0.17584E-02   -0.30005E-03  5224   0.271E-02    0.129E-01
RMM:   5    -0.232107258135E+04    0.22737E-03   -0.87307E-04  4971   0.174E-02    0.989E-02
RMM:   6    -0.232107258482E+04   -0.34710E-05   -0.39720E-04  4526   0.130E-02    0.103E-01
RMM:   7    -0.232107247250E+04    0.11231E-03   -0.14530E-04  3601   0.846E-03    0.218E-02
RMM:   8    -0.232107246719E+04    0.53098E-05   -0.22572E-05  3031   0.491E-03
  32 F= -.23424351E+04 E0= -.23424351E+04  d E =-.173996E-01  mag=     4.0000
       N       E                     dE             d eps       ncg     rms          rms(c)
DAV:   1    -0.232102580481E+04    0.46668E-01   -0.50846E+00  4512   0.203E+00    0.584E-01
RMM:   2    -0.232108042908E+04   -0.54624E-01   -0.57957E-01  6379   0.430E-01    0.485E-01
RMM:   3    -0.232108565645E+04   -0.52274E-02   -0.66912E-02  6107   0.160E-01    0.595E-01
RMM:   4    -0.232108202328E+04    0.36332E-02   -0.58767E-03  5725   0.376E-02    0.190E-01
RMM:   5    -0.232108198719E+04    0.36087E-04   -0.16783E-03  5469   0.211E-02    0.219E-01
RMM:   6    -0.232108140561E+04    0.58158E-03   -0.12684E-03  5332   0.200E-02    0.699E-02
RMM:   7    -0.232108138048E+04    0.25128E-04   -0.27122E-04  4597   0.118E-02    0.329E-02
RMM:   8    -0.232108137847E+04    0.20174E-05   -0.41558E-05  3086   0.536E-03
  33 F= -.23424430E+04 E0= -.23424430E+04  d E =-.782646E-02  mag=     4.0000
       N       E                     dE             d eps       ncg     rms          rms(c)
DAV:   1    -0.232108131375E+04    0.66731E-04   -0.29172E-03  5464   0.493E-02    0.168E-02
RMM:   2    -0.232108134938E+04   -0.35630E-04   -0.31433E-04  3970   0.108E-02    0.277E-02
RMM:   3    -0.232108134364E+04    0.57430E-05   -0.39000E-05  2913   0.556E-03
  34 F= -.23424429E+04 E0= -.23424429E+04  d E =-.781748E-02  mag=     4.0000
       N       E                     dE             d eps       ncg     rms          rms(c)
DAV:   1    -0.232107209121E+04    0.92582E-02   -0.15914E+00  4544   0.107E+00    0.329E-01
RMM:   2    -0.232108738289E+04   -0.15292E-01   -0.15271E-01  6259   0.241E-01    0.327E-01
RMM:   3    -0.232108719026E+04    0.19263E-03   -0.14126E-02  6019   0.799E-02    0.228E-01
RMM:   4    -0.232108656645E+04    0.62381E-03   -0.15686E-03  5335   0.203E-02    0.105E-01
RMM:   5    -0.232108657298E+04   -0.65295E-05   -0.43181E-04  4083   0.130E-02    0.117E-01
RMM:   6    -0.232108640776E+04    0.16522E-03   -0.36830E-04  4748   0.124E-02    0.344E-02
RMM:   7    -0.232108640200E+04    0.57611E-05   -0.61684E-05  3263   0.747E-03
  35 F= -.23424477E+04 E0= -.23424477E+04  d E =-.471567E-02  mag=     4.0000
       N       E                     dE             d eps       ncg     rms          rms(c)
DAV:   1    -0.232108505895E+04    0.13488E-02   -0.18957E-01  4592   0.371E-01    0.117E-01
RMM:   2    -0.232108693032E+04   -0.18714E-02   -0.18425E-02  6270   0.849E-02    0.128E-01
RMM:   3    -0.232108688124E+04    0.49081E-04   -0.17251E-03  4313   0.276E-02    0.871E-02
RMM:   4    -0.232108680243E+04    0.78812E-04   -0.19591E-04  3144   0.829E-03    0.420E-02
RMM:   5    -0.232108680061E+04    0.18186E-05   -0.52498E-05  3004   0.514E-03
  36 F= -.23424479E+04 E0= -.23424479E+04  d E =-.499551E-02  mag=     4.0000
       N       E                     dE             d eps       ncg     rms          rms(c)
DAV:   1    -0.232108210384E+04    0.46986E-02   -0.61697E-01  4544   0.711E-01    0.225E-01
RMM:   2    -0.232109150569E+04   -0.94018E-02   -0.88918E-02  6458   0.173E-01    0.293E-01
RMM:   3    -0.232109092800E+04    0.57770E-03   -0.85335E-03  5666   0.556E-02    0.139E-01
RMM:   4    -0.232109071202E+04    0.21598E-03   -0.86956E-04  3772   0.130E-02    0.650E-02
RMM:   5    -0.232109071317E+04   -0.11485E-05   -0.13934E-04  3200   0.762E-03    0.731E-02
RMM:   6    -0.232109065030E+04    0.62868E-04   -0.12079E-04  3402   0.780E-03    0.275E-02
RMM:   7    -0.232109065376E+04   -0.34579E-05   -0.50140E-05  3110   0.588E-03
  37 F= -.23424517E+04 E0= -.23424517E+04  d E =-.372912E-02  mag=     4.0000
       N       E                     dE             d eps       ncg     rms          rms(c)
DAV:   1    -0.232102197585E+04    0.68674E-01   -0.52709E+00  4512   0.208E+00    0.660E-01
RMM:   2    -0.232110267776E+04   -0.80702E-01   -0.76612E-01  6493   0.506E-01    0.856E-01
RMM:   3    -0.232109762147E+04    0.50563E-02   -0.71541E-02  6259   0.160E-01    0.408E-01
RMM:   4    -0.232109591273E+04    0.17087E-02   -0.76917E-03  5650   0.377E-02    0.209E-01
RMM:   5    -0.232109575294E+04    0.15979E-03   -0.11119E-03  4781   0.182E-02    0.200E-01
RMM:   6    -0.232109531869E+04    0.43425E-03   -0.87149E-04  4858   0.180E-02    0.122E-01
RMM:   7    -0.232109530478E+04    0.13912E-04   -0.55607E-04  4070   0.150E-02    0.105E-01
RMM:   8    -0.232109519846E+04    0.10632E-03   -0.15171E-04  3553   0.792E-03    0.250E-02
RMM:   9    -0.232109519138E+04    0.70875E-05   -0.19438E-05  3027   0.429E-03
  38 F= -.23424558E+04 E0= -.23424558E+04  d E =-.789747E-02  mag=     4.0000
       N       E                     dE             d eps       ncg     rms          rms(c)
DAV:   1    -0.232108526609E+04    0.99324E-02   -0.94538E-01  4544   0.889E-01    0.285E-01
RMM:   2    -0.232109957208E+04   -0.14306E-01   -0.13967E-01  6368   0.221E-01    0.320E-01
RMM:   3    -0.232109950330E+04    0.68781E-04   -0.12597E-02  5800   0.707E-02    0.198E-01
RMM:   4    -0.232109899269E+04    0.51061E-03   -0.13101E-03  4382   0.167E-02    0.847E-02
RMM:   5    -0.232109899103E+04    0.16548E-05   -0.23417E-04  3465   0.930E-03    0.985E-02
RMM:   6    -0.232109889601E+04    0.95028E-04   -0.18752E-04  3588   0.929E-03    0.470E-02
RMM:   7    -0.232109888044E+04    0.15570E-04   -0.78330E-05  3402   0.709E-03    0.171E-02
RMM:   8    -0.232109887911E+04    0.13291E-05   -0.13343E-05  2910   0.444E-03
  39 F= -.23424595E+04 E0= -.23424595E+04  d E =-.361659E-02  mag=     4.0000
       N       E                     dE             d eps       ncg     rms          rms(c)
DAV:   1    -0.232105265107E+04    0.46229E-01   -0.33986E+00  4512   0.168E+00    0.542E-01
RMM:   2    -0.232110393804E+04   -0.51287E-01   -0.50046E-01  6338   0.416E-01    0.612E-01
RMM:   3    -0.232110383198E+04    0.10606E-03   -0.46087E-02  6087   0.134E-01    0.384E-01
RMM:   4    -0.232110191726E+04    0.19147E-02   -0.46695E-03  5495   0.315E-02    0.156E-01
RMM:   5    -0.232110187336E+04    0.43906E-04   -0.85671E-04  4911   0.171E-02    0.174E-01
RMM:   6    -0.232110160864E+04    0.26472E-03   -0.63476E-04  4816   0.148E-02    0.976E-02
RMM:   7    -0.232110153156E+04    0.77081E-04   -0.24924E-04  4095   0.107E-02    0.296E-02
RMM:   8    -0.232110152573E+04    0.58321E-05   -0.35021E-05  3001   0.568E-03
  40 F= -.23424620E+04 E0= -.23424620E+04  d E =-.612505E-02  mag=     4.0000
       N       E                     dE             d eps       ncg     rms          rms(c)
DAV:   1    -0.232109106112E+04    0.10470E-01   -0.84123E-01  4544   0.851E-01    0.293E-01
RMM:   2    -0.232110550659E+04   -0.14445E-01   -0.14828E-01  6435   0.222E-01    0.257E-01
RMM:   3    -0.232110622325E+04   -0.71666E-03   -0.14245E-02  5723   0.716E-02    0.203E-01
RMM:   4    -0.232110567209E+04    0.55116E-03   -0.14068E-03  4483   0.173E-02    0.101E-01
RMM:   5    -0.232110563967E+04    0.32425E-04   -0.26486E-04  3234   0.879E-03    0.925E-02
RMM:   6    -0.232110554367E+04    0.95998E-04   -0.24436E-04  3969   0.101E-02    0.414E-02
RMM:   7    -0.232110554577E+04   -0.20953E-05   -0.84300E-05  3269   0.696E-03
  41 F= -.23424657E+04 E0= -.23424657E+04  d E =-.376375E-02  mag=     4.0000
       N       E                     dE             d eps       ncg     rms          rms(c)
DAV:   1    -0.232106364963E+04    0.41894E-01   -0.26020E+00  4512   0.150E+00    0.515E-01
RMM:   2    -0.232110843868E+04   -0.44789E-01   -0.45852E-01  6440   0.387E-01    0.462E-01
RMM:   3    -0.232111041425E+04   -0.19756E-02   -0.44327E-02  6028   0.129E-01    0.351E-01
RMM:   4    -0.232110877286E+04    0.16414E-02   -0.43246E-03  5714   0.303E-02    0.178E-01
RMM:   5    -0.232110866054E+04    0.11232E-03   -0.80972E-04  4321   0.143E-02    0.159E-01
RMM:   6    -0.232110835577E+04    0.30477E-03   -0.75322E-04  4985   0.164E-02    0.695E-02
RMM:   7    -0.232110832873E+04    0.27043E-04   -0.23788E-04  4006   0.107E-02    0.426E-02
RMM:   8    -0.232110831739E+04    0.11333E-04   -0.43254E-05  2961   0.555E-03    0.304E-02
RMM:   9    -0.232110830675E+04    0.10640E-04   -0.13766E-05  2968   0.356E-03    0.144E-02
RMM:  10    -0.232110830298E+04    0.37756E-05   -0.14062E-05  2908   0.300E-03
  42 F= -.23424680E+04 E0= -.23424680E+04  d E =-.607162E-02  mag=     4.0000
       N       E                     dE             d eps       ncg     rms          rms(c)
DAV:   1    -0.232109515046E+04    0.13156E-01   -0.11195E+00  4544   0.945E-01    0.317E-01
RMM:   2    -0.232111254683E+04   -0.17396E-01   -0.17907E-01  6419   0.241E-01    0.273E-01
RMM:   3    -0.232111338978E+04   -0.84296E-03   -0.17408E-02  5865   0.785E-02    0.209E-01
RMM:   4    -0.232111281630E+04    0.57349E-03   -0.16946E-03  4820   0.186E-02    0.120E-01
RMM:   5    -0.232111276839E+04    0.47904E-04   -0.36326E-04  3323   0.976E-03    0.110E-01
RMM:   6    -0.232111262516E+04    0.14323E-03   -0.37426E-04  4366   0.118E-02    0.384E-02
RMM:   7    -0.232111262332E+04    0.18383E-05   -0.77247E-05  3222   0.678E-03
  43 F= -.23424719E+04 E0= -.23424719E+04  d E =-.381530E-02  mag=     4.0000
       N       E                     dE             d eps       ncg     rms          rms(c)
DAV:   1    -0.232104580265E+04    0.66823E-01   -0.44987E+00  4512   0.190E+00    0.646E-01
RMM:   2    -0.232111666075E+04   -0.70858E-01   -0.72630E-01  6454   0.487E-01    0.580E-01
RMM:   3    -0.232111936163E+04   -0.27009E-02   -0.70746E-02  6149   0.161E-01    0.422E-01
RMM:   4    -0.232111706067E+04    0.23010E-02   -0.68736E-03  5883   0.372E-02    0.243E-01
RMM:   5    -0.232111684497E+04    0.21570E-03   -0.14332E-03  4970   0.179E-02    0.216E-01
RMM:   6    -0.232111627522E+04    0.56975E-03   -0.15059E-03  5313   0.222E-02    0.766E-02
RMM:   7    -0.232111624400E+04    0.31216E-04   -0.30580E-04  4274   0.118E-02    0.315E-02
RMM:   8    -0.232111623556E+04    0.84427E-05   -0.37566E-05  3073   0.525E-03
  44 F= -.23424745E+04 E0= -.23424745E+04  d E =-.642395E-02  mag=     4.0000
       N       E                     dE             d eps       ncg     rms          rms(c)
DAV:   1    -0.232109633599E+04    0.19908E-01   -0.19631E+00  4512   0.119E+00    0.385E-01
RMM:   2    -0.232112195144E+04   -0.25615E-01   -0.25740E-01  6543   0.292E-01    0.406E-01
RMM:   3    -0.232112229689E+04   -0.34545E-03   -0.22341E-02  6094   0.862E-02    0.294E-01
RMM:   4    -0.232112125677E+04    0.10401E-02   -0.22784E-03  5139   0.214E-02    0.131E-01
RMM:   5    -0.232112124690E+04    0.98700E-05   -0.60231E-04  4498   0.125E-02    0.140E-01
RMM:   6    -0.232112103037E+04    0.21653E-03   -0.59942E-04  4616   0.147E-02    0.487E-02
RMM:   7    -0.232112103637E+04   -0.60025E-05   -0.96627E-05  3176   0.713E-03
  45 F= -.23424788E+04 E0= -.23424788E+04  d E =-.429478E-02  mag=     4.0000
       N       E                     dE             d eps       ncg     rms          rms(c)
DAV:   1    -0.232107245330E+04    0.48577E-01   -0.40691E+00  4512   0.171E+00    0.553E-01
RMM:   2    -0.232112501793E+04   -0.52565E-01   -0.53195E-01  6530   0.419E-01    0.548E-01
RMM:   3    -0.232112649639E+04   -0.14785E-02   -0.48973E-02  6212   0.130E-01    0.421E-01
RMM:   4    -0.232112431117E+04    0.21852E-02   -0.47481E-03  5797   0.310E-02    0.188E-01
RMM:   5    -0.232112426996E+04    0.41210E-04   -0.12063E-03  5178   0.169E-02    0.199E-01
RMM:   6    -0.232112383290E+04    0.43706E-03   -0.12563E-03  5234   0.199E-02    0.766E-02
RMM:   7    -0.232112384404E+04   -0.11144E-04   -0.25794E-04  3711   0.104E-02    0.784E-02
RMM:   8    -0.232112377947E+04    0.64567E-04   -0.70707E-05  3029   0.596E-03    0.221E-02
RMM:   9    -0.232112377168E+04    0.77954E-05   -0.19889E-05  3036   0.351E-03
  46 F= -.23424808E+04 E0= -.23424808E+04  d E =-.630608E-02  mag=     4.0000
       N       E                     dE             d eps       ncg     rms          rms(c)
DAV:   1    -0.232109686996E+04    0.26910E-01   -0.31305E+00  4512   0.148E+00    0.476E-01
RMM:   2    -0.232113157557E+04   -0.34706E-01   -0.33111E-01  6415   0.349E-01    0.579E-01
RMM:   3    -0.232113035323E+04    0.12223E-02   -0.28343E-02  6120   0.101E-01    0.338E-01
RMM:   4    -0.232112898888E+04    0.13643E-02   -0.28849E-03  5477   0.255E-02    0.133E-01
RMM:   5    -0.232112879632E+04    0.19257E-03   -0.77780E-04  4923   0.173E-02    0.854E-02
RMM:   6    -0.232112885137E+04   -0.55052E-04   -0.40804E-04  3971   0.142E-02    0.973E-02
RMM:   7    -0.232112874243E+04    0.10894E-03   -0.10933E-04  3304   0.729E-03    0.251E-02
RMM:   8    -0.232112873762E+04    0.48107E-05   -0.20460E-05  2996   0.432E-03
  47 F= -.23424857E+04 E0= -.23424857E+04  d E =-.491984E-02  mag=     4.0000
       N       E                     dE             d eps       ncg     rms          rms(c)
DAV:   1    -0.232111384955E+04    0.14893E-01   -0.15912E+00  4544   0.106E+00    0.343E-01
RMM:   2    -0.232113158361E+04   -0.17734E-01   -0.16850E-01  6405   0.249E-01    0.421E-01
RMM:   3    -0.232113084883E+04    0.73479E-03   -0.14407E-02  5956   0.710E-02    0.242E-01
RMM:   4    -0.232113015021E+04    0.69862E-03   -0.14756E-03  5059   0.183E-02    0.941E-02
RMM:   5    -0.232113004866E+04    0.10155E-03   -0.38228E-04  4531   0.125E-02    0.556E-02
RMM:   6    -0.232113007561E+04   -0.26951E-04   -0.19067E-04  3277   0.108E-02    0.636E-02
RMM:   7    -0.232113002748E+04    0.48138E-04   -0.49832E-05  3087   0.574E-03    0.177E-02
RMM:   8    -0.232113002538E+04    0.20986E-05   -0.10782E-05  2918   0.355E-03
  48 F= -.23424869E+04 E0= -.23424869E+04  d E =-.617078E-02  mag=     4.0000
       N       E                     dE             d eps       ncg     rms          rms(c)
DAV:   1    -0.232109578124E+04    0.34246E-01   -0.32586E+00  4512   0.152E+00    0.504E-01
RMM:   2    -0.232113821470E+04   -0.42433E-01   -0.40531E-01  6308   0.369E-01    0.624E-01
RMM:   3    -0.232113724510E+04    0.96960E-03   -0.35495E-02  6063   0.110E-01    0.361E-01
RMM:   4    -0.232113574136E+04    0.15037E-02   -0.36136E-03  5398   0.272E-02    0.142E-01
RMM:   5    -0.232113550865E+04    0.23271E-03   -0.75229E-04  4875   0.168E-02    0.793E-02
RMM:   6    -0.232113554016E+04   -0.31513E-04   -0.38991E-04  4521   0.134E-02    0.781E-02
RMM:   7    -0.232113548053E+04    0.59628E-04   -0.10211E-04  3132   0.716E-03    0.321E-02
RMM:   8    -0.232113546896E+04    0.11576E-04   -0.17270E-05  3043   0.396E-03    0.142E-02
RMM:   9    -0.232113547050E+04   -0.15409E-05   -0.11265E-05  2905   0.263E-03
  49 F= -.23424930E+04 E0= -.23424930E+04  d E =-.605770E-02  mag=     4.0000
       N       E                     dE             d eps       ncg     rms          rms(c)
DAV:   1    -0.232111522751E+04    0.20241E-01   -0.17663E+00  4512   0.112E+00    0.371E-01
RMM:   2    -0.232113837159E+04   -0.23144E-01   -0.22037E-01  6277   0.274E-01    0.468E-01
RMM:   3    -0.232113769864E+04    0.67296E-03   -0.19035E-02  5953   0.813E-02    0.262E-01
RMM:   4    -0.232113690561E+04    0.79303E-03   -0.19792E-03  4984   0.200E-02    0.105E-01
RMM:   5    -0.232113677758E+04    0.12802E-03   -0.40809E-04  4451   0.127E-02    0.606E-02
RMM:   6    -0.232113678206E+04   -0.44730E-05   -0.24393E-04  3891   0.113E-02    0.527E-02
RMM:   7    -0.232113675225E+04    0.29811E-04   -0.56883E-05  3042   0.620E-03    0.186E-02
RMM:   8    -0.232113674814E+04    0.41093E-05   -0.94641E-06  2969   0.322E-03
  50 F= -.23424947E+04 E0= -.23424947E+04  d E =-.778509E-02  mag=     4.0000
       N       E                     dE             d eps       ncg     rms          rms(c)
DAV:   1    -0.232109113673E+04    0.45616E-01   -0.35125E+00  4512   0.167E+00    0.573E-01
RMM:   2    -0.232114386502E+04   -0.52728E-01   -0.51739E-01  6311   0.419E-01    0.604E-01
RMM:   3    -0.232114477629E+04   -0.91128E-03   -0.43512E-02  6071   0.124E-01    0.448E-01
RMM:   4    -0.232114239007E+04    0.23862E-02   -0.45871E-03  5555   0.312E-02    0.168E-01
RMM:   5    -0.232114239873E+04   -0.86664E-05   -0.10676E-03  4971   0.169E-02    0.172E-01
RMM:   6    -0.232114209299E+04    0.30575E-03   -0.86538E-04  5093   0.166E-02    0.813E-02
RMM:   7    -0.232114207298E+04    0.20008E-04   -0.22073E-04  3812   0.104E-02    0.589E-02
RMM:   8    -0.232114203735E+04    0.35628E-04   -0.54257E-05  3008   0.554E-03    0.226E-02
RMM:   9    -0.232114203184E+04    0.55129E-05   -0.14456E-05  3020   0.317E-03
  51 F= -.23425004E+04 E0= -.23425004E+04  d E =-.566257E-02  mag=     4.0000
       N       E                     dE             d eps       ncg     rms          rms(c)
DAV:   1    -0.232112418344E+04    0.17854E-01   -0.12981E+00  4544   0.102E+00    0.348E-01
RMM:   2    -0.232114377011E+04   -0.19587E-01   -0.19159E-01  6321   0.257E-01    0.376E-01
RMM:   3    -0.232114398189E+04   -0.21178E-03   -0.15830E-02  5903   0.758E-02    0.271E-01
RMM:   4    -0.232114310458E+04    0.87731E-03   -0.17009E-03  4838   0.191E-02    0.103E-01
RMM:   5    -0.232114310606E+04   -0.14814E-05   -0.39826E-04  3807   0.109E-02    0.105E-01
RMM:   6    -0.232114298357E+04    0.12249E-03   -0.34280E-04  4263   0.115E-02    0.455E-02
RMM:   7    -0.232114297447E+04    0.91029E-05   -0.71928E-05  3298   0.685E-03
  52 F= -.23425016E+04 E0= -.23425016E+04  d E =-.683424E-02  mag=     4.0000
       N       E                     dE             d eps       ncg     rms          rms(c)
DAV:   1    -0.232110053144E+04    0.42452E-01   -0.31546E+00  4512   0.156E+00    0.528E-01
RMM:   2    -0.232114823782E+04   -0.47706E-01   -0.47508E-01  6484   0.400E-01    0.507E-01
RMM:   3    -0.232114972355E+04   -0.14857E-02   -0.38463E-02  6029   0.115E-01    0.405E-01
RMM:   4    -0.232114777618E+04    0.19474E-02   -0.42623E-03  5424   0.294E-02    0.178E-01
RMM:   5    -0.232114776188E+04    0.14301E-04   -0.95003E-04  4265   0.147E-02    0.168E-01
RMM:   6    -0.232114745885E+04    0.30302E-03   -0.80420E-04  4876   0.163E-02    0.699E-02
RMM:   7    -0.232114748101E+04   -0.22154E-04   -0.22430E-04  3625   0.102E-02    0.693E-02
RMM:   8    -0.232114742866E+04    0.52347E-04   -0.57550E-05  3020   0.569E-03    0.185E-02
RMM:   9    -0.232114742519E+04    0.34660E-05   -0.13854E-05  3008   0.298E-03
  53 F= -.23425061E+04 E0= -.23425061E+04  d E =-.457768E-02  mag=     4.0000
       N       E                     dE             d eps       ncg     rms          rms(c)
DAV:   1    -0.232110376769E+04    0.43661E-01   -0.30435E+00  4512   0.153E+00    0.516E-01
RMM:   2    -0.232114989393E+04   -0.46126E-01   -0.45809E-01  6466   0.394E-01    0.505E-01
RMM:   3    -0.232115121352E+04   -0.13196E-02   -0.37243E-02  6036   0.112E-01    0.395E-01
RMM:   4    -0.232114934304E+04    0.18705E-02   -0.40992E-03  5394   0.287E-02    0.177E-01
RMM:   5    -0.232114931417E+04    0.28872E-04   -0.90468E-04  4188   0.143E-02    0.165E-01
RMM:   6    -0.232114900980E+04    0.30437E-03   -0.79720E-04  4817   0.164E-02    0.675E-02
RMM:   7    -0.232114903816E+04   -0.28355E-04   -0.22354E-04  3612   0.103E-02    0.720E-02
RMM:   8    -0.232114898190E+04    0.56261E-04   -0.58494E-05  3034   0.555E-03    0.175E-02
RMM:   9    -0.232114897856E+04    0.33379E-05   -0.13653E-05  3025   0.299E-03
  54 F= -.23425078E+04 E0= -.23425078E+04  d E =-.625374E-02  mag=     4.0000
       N       E                     dE             d eps       ncg     rms          rms(c)
DAV:   1    -0.232109187256E+04    0.57109E-01   -0.35586E+00  4512   0.170E+00    0.584E-01
RMM:   2    -0.232115400182E+04   -0.62129E-01   -0.62322E-01  6525   0.448E-01    0.543E-01
RMM:   3    -0.232115666932E+04   -0.26675E-02   -0.51930E-02  6152   0.131E-01    0.457E-01
RMM:   4    -0.232115413481E+04    0.25345E-02   -0.56732E-03  5679   0.330E-02    0.198E-01
RMM:   5    -0.232115406516E+04    0.69649E-04   -0.10952E-03  4502   0.152E-02    0.184E-01
RMM:   6    -0.232115369595E+04    0.36921E-03   -0.97099E-04  4977   0.180E-02    0.760E-02
RMM:   7    -0.232115373804E+04   -0.42096E-04   -0.28720E-04  3790   0.111E-02    0.837E-02
RMM:   8    -0.232115366174E+04    0.76305E-04   -0.76279E-05  3038   0.606E-03    0.195E-02
RMM:   9    -0.232115365694E+04    0.47973E-05   -0.18004E-05  3033   0.346E-03
  55 F= -.23425125E+04 E0= -.23425125E+04  d E =-.469809E-02  mag=     4.0000
       N       E                     dE             d eps       ncg     rms          rms(c)
DAV:   1    -0.232111963459E+04    0.34027E-01   -0.20258E+00  4528   0.128E+00    0.442E-01
RMM:   2    -0.232115506131E+04   -0.35427E-01   -0.35476E-01  6488   0.338E-01    0.415E-01
RMM:   3    -0.232115647593E+04   -0.14146E-02   -0.29375E-02  6040   0.988E-02    0.344E-01
RMM:   4    -0.232115503222E+04    0.14437E-02   -0.32277E-03  5324   0.250E-02    0.149E-01
RMM:   5    -0.232115499159E+04    0.40635E-04   -0.63232E-04  3778   0.118E-02    0.138E-01
RMM:   6    -0.232115477952E+04    0.21207E-03   -0.55477E-04  4492   0.143E-02    0.556E-02
RMM:   7    -0.232115480611E+04   -0.26589E-04   -0.16179E-04  3491   0.868E-03    0.627E-02
RMM:   8    -0.232115476347E+04    0.42640E-04   -0.43624E-05  2972   0.519E-03    0.146E-02
RMM:   9    -0.232115476060E+04    0.28713E-05   -0.10146E-05  2933   0.274E-03
  56 F= -.23425136E+04 E0= -.23425136E+04  d E =-.580859E-02  mag=     4.0000
       N       E                     dE             d eps       ncg     rms          rms(c)
DAV:   1    -0.232111444268E+04    0.40321E-01   -0.29255E+00  4512   0.147E+00    0.497E-01
RMM:   2    -0.232115963077E+04   -0.45188E-01   -0.45242E-01  6505   0.377E-01    0.484E-01
RMM:   3    -0.232116150364E+04   -0.18729E-02   -0.39387E-02  6095   0.114E-01    0.404E-01
RMM:   4    -0.232115957622E+04    0.19274E-02   -0.42618E-03  5508   0.283E-02    0.164E-01
RMM:   5    -0.232115954824E+04    0.27987E-04   -0.84854E-04  4438   0.135E-02    0.166E-01
RMM:   6    -0.232115924486E+04    0.30338E-03   -0.81967E-04  4720   0.165E-02    0.669E-02
RMM:   7    -0.232115927092E+04   -0.26064E-04   -0.23180E-04  3614   0.999E-03    0.728E-02
RMM:   8    -0.232115921203E+04    0.58894E-04   -0.60280E-05  3020   0.571E-03    0.172E-02
RMM:   9    -0.232115920732E+04    0.47126E-05   -0.14573E-05  2992   0.318E-03
  57 F= -.23425181E+04 E0= -.23425181E+04  d E =-.450860E-02  mag=     4.0000
       N       E                     dE             d eps       ncg     rms          rms(c)
DAV:   1    -0.232109137238E+04    0.67840E-01   -0.46037E+00  4512   0.184E+00    0.624E-01
RMM:   2    -0.232116230296E+04   -0.70931E-01   -0.71101E-01  6500   0.472E-01    0.600E-01
RMM:   3    -0.232116552493E+04   -0.32220E-02   -0.63168E-02  6152   0.145E-01    0.509E-01
RMM:   4    -0.232116247135E+04    0.30536E-02   -0.67667E-03  5768   0.356E-02    0.206E-01
RMM:   5    -0.232116242083E+04    0.50516E-04   -0.12980E-03  4909   0.166E-02    0.209E-01
RMM:   6    -0.232116194687E+04    0.47396E-03   -0.12571E-03  5073   0.200E-02    0.884E-02
RMM:   7    -0.232116198956E+04   -0.42696E-04   -0.40141E-04  4001   0.123E-02    0.962E-02
RMM:   8    -0.232116188568E+04    0.10389E-03   -0.10094E-04  3097   0.660E-03    0.220E-02
RMM:   9    -0.232116187763E+04    0.80501E-05   -0.23487E-05  3055   0.392E-03
  58 F= -.23425209E+04 E0= -.23425209E+04  d E =-.723863E-02  mag=     4.0000
       N       E                     dE             d eps       ncg     rms          rms(c)
DAV:   1    -0.232115200552E+04    0.98802E-02   -0.66014E-01  4560   0.699E-01    0.238E-01
RMM:   2    -0.232116226847E+04   -0.10263E-01   -0.10220E-01  6478   0.180E-01    0.240E-01
RMM:   3    -0.232116259073E+04   -0.32226E-03   -0.87745E-03  5468   0.542E-02    0.188E-01
RMM:   4    -0.232116216845E+04    0.42228E-03   -0.96520E-04  3749   0.137E-02    0.775E-02
RMM:   5    -0.232116216177E+04    0.66798E-05   -0.18790E-04  3246   0.739E-03    0.790E-02
RMM:   6    -0.232116209140E+04    0.70372E-04   -0.18831E-04  3409   0.874E-03    0.308E-02
RMM:   7    -0.232116209849E+04   -0.70928E-05   -0.54669E-05  3136   0.594E-03
  59 F= -.23425211E+04 E0= -.23425211E+04  d E =-.747701E-02  mag=     4.0000
       N       E                     dE             d eps       ncg     rms          rms(c)
DAV:   1    -0.232110744296E+04    0.54648E-01   -0.41550E+00  4512   0.167E+00    0.572E-01
RMM:   2    -0.232116797354E+04   -0.60531E-01   -0.60141E-01  6531   0.421E-01    0.608E-01
RMM:   3    -0.232116996326E+04   -0.19897E-02   -0.56082E-02  6150   0.131E-01    0.465E-01
RMM:   4    -0.232116758597E+04    0.23773E-02   -0.58531E-03  5494   0.317E-02    0.188E-01
RMM:   5    -0.232116755900E+04    0.26971E-04   -0.10753E-03  4791   0.149E-02    0.194E-01
RMM:   6    -0.232116717152E+04    0.38749E-03   -0.10605E-03  4802   0.180E-02    0.862E-02
RMM:   7    -0.232116721372E+04   -0.42201E-04   -0.37077E-04  3776   0.118E-02    0.914E-02
RMM:   8    -0.232116711830E+04    0.95416E-04   -0.89131E-05  3078   0.648E-03    0.202E-02
RMM:   9    -0.232116711246E+04    0.58404E-05   -0.19639E-05  3040   0.342E-03
  60 F= -.23425263E+04 E0= -.23425263E+04  d E =-.525385E-02  mag=     4.0000
       N       E                     dE             d eps       ncg     rms          rms(c)
DAV:   1    -0.232096525427E+04    0.20186E+00   -0.14202E+01  4512   0.308E+00    0.106E+00
RMM:   2    -0.232117138662E+04   -0.20613E+00   -0.20578E+00  6492   0.775E-01    0.109E+00
RMM:   3    -0.232118103487E+04   -0.96483E-02   -0.20425E-01  6231   0.250E-01    0.892E-01
RMM:   4    -0.232117232494E+04    0.87099E-02   -0.20364E-02  5916   0.589E-02    0.357E-01
RMM:   5    -0.232117207600E+04    0.24894E-03   -0.35800E-03  5630   0.265E-02    0.351E-01
RMM:   6    -0.232117088399E+04    0.11920E-02   -0.36492E-03  5396   0.321E-02    0.174E-01
RMM:   7    -0.232117100169E+04   -0.11770E-03   -0.14177E-03  5018   0.212E-02    0.177E-01
RMM:   8    -0.232117064498E+04    0.35671E-03   -0.35210E-04  3523   0.103E-02    0.424E-02
RMM:   9    -0.232117062136E+04    0.23621E-04   -0.82584E-05  3281   0.577E-03    0.255E-02
RMM:  10    -0.232117061370E+04    0.76658E-05   -0.34547E-05  2973   0.418E-03
  61 F= -.23425303E+04 E0= -.23425303E+04  d E =-.915721E-02  mag=     4.0000
       N       E                     dE             d eps       ncg     rms          rms(c)
DAV:   1    -0.232108115706E+04    0.89464E-01   -0.63496E+00  4512   0.201E+00    0.710E-01
RMM:   2    -0.232117837763E+04   -0.97221E-01   -0.95410E-01  6518   0.514E-01    0.824E-01
RMM:   3    -0.232118012082E+04   -0.17432E-02   -0.91911E-02  6189   0.161E-01    0.564E-01
RMM:   4    -0.232117690313E+04    0.32177E-02   -0.94405E-03  5597   0.384E-02    0.241E-01
RMM:   5    -0.232117678535E+04    0.11778E-03   -0.15819E-03  5101   0.177E-02    0.235E-01
RMM:   6    -0.232117621969E+04    0.56566E-03   -0.15536E-03  5025   0.211E-02    0.112E-01
RMM:   7    -0.232117630494E+04   -0.85250E-04   -0.63176E-04  4224   0.149E-02    0.122E-01
RMM:   8    -0.232117613289E+04    0.17205E-03   -0.15502E-04  3213   0.757E-03    0.255E-02
RMM:   9    -0.232117612540E+04    0.74894E-05   -0.31675E-05  3105   0.420E-03
  62 F= -.23425360E+04 E0= -.23425360E+04  d E =-.575632E-02  mag=     4.0000
       N       E                     dE             d eps       ncg     rms          rms(c)
DAV:   1    -0.232114373067E+04    0.32402E-01   -0.22626E+00  4528   0.120E+00    0.426E-01
RMM:   2    -0.232117859797E+04   -0.34867E-01   -0.33953E-01  6512   0.308E-01    0.515E-01
RMM:   3    -0.232117874987E+04   -0.15190E-03   -0.31744E-02  6014   0.962E-02    0.325E-01
RMM:   4    -0.232117769273E+04    0.10571E-02   -0.33439E-03  4738   0.229E-02    0.141E-01
RMM:   5    -0.232117766027E+04    0.32461E-04   -0.56491E-04  3993   0.112E-02    0.141E-01
RMM:   6    -0.232117744682E+04    0.21345E-03   -0.55491E-04  4154   0.135E-02    0.622E-02
RMM:   7    -0.232117747981E+04   -0.32992E-04   -0.20782E-04  3439   0.927E-03    0.694E-02
RMM:   8    -0.232117742525E+04    0.54562E-04   -0.50886E-05  3009   0.561E-03    0.153E-02
RMM:   9    -0.232117742293E+04    0.23182E-05   -0.10707E-05  2935   0.278E-03
  63 F= -.23425374E+04 E0= -.23425374E+04  d E =-.719305E-02  mag=     4.0000
       N       E                     dE             d eps       ncg     rms          rms(c)
DAV:   1    -0.232117036726E+04    0.70580E-02   -0.48158E-01  4576   0.554E-01    0.197E-01
RMM:   2    -0.232117783066E+04   -0.74634E-02   -0.72301E-02  6496   0.143E-01    0.245E-01
RMM:   3    -0.232117779284E+04    0.37816E-04   -0.66187E-03  4959   0.447E-02    0.145E-01
RMM:   4    -0.232117758177E+04    0.21108E-03   -0.70748E-04  3352   0.110E-02    0.640E-02
RMM:   5    -0.232117757710E+04    0.46628E-05   -0.12055E-04  3124   0.599E-03    0.653E-02
RMM:   6    -0.232117752987E+04    0.47236E-04   -0.11839E-04  3168   0.686E-03    0.270E-02
RMM:   7    -0.232117753591E+04   -0.60395E-05   -0.40713E-05  3060   0.497E-03
  64 F= -.23425376E+04 E0= -.23425376E+04  d E =-.736864E-02  mag=     4.0000
       N       E                     dE             d eps       ncg     rms          rms(c)
DAV:   1    -0.232112113509E+04    0.56395E-01   -0.43539E+00  4512   0.167E+00    0.589E-01
RMM:   2    -0.232118299516E+04   -0.61860E-01   -0.61731E-01  6489   0.427E-01    0.595E-01
RMM:   3    -0.232118531194E+04   -0.23168E-02   -0.55169E-02  6097   0.131E-01    0.490E-01
RMM:   4    -0.232118274276E+04    0.25692E-02   -0.59097E-03  5572   0.331E-02    0.203E-01
RMM:   5    -0.232118270398E+04    0.38779E-04   -0.12740E-03  4967   0.168E-02    0.199E-01
RMM:   6    -0.232118227416E+04    0.42982E-03   -0.11620E-03  4944   0.186E-02    0.806E-02
RMM:   7    -0.232118231996E+04   -0.45796E-04   -0.32924E-04  3865   0.120E-02    0.874E-02
RMM:   8    -0.232118223399E+04    0.85966E-04   -0.84930E-05  3081   0.635E-03    0.203E-02
RMM:   9    -0.232118222913E+04    0.48595E-05   -0.19763E-05  3039   0.356E-03
  65 F= -.23425423E+04 E0= -.23425423E+04  d E =-.467369E-02  mag=     4.0000
       N       E                     dE             d eps       ncg     rms          rms(c)
DAV:   1    -0.232115381913E+04    0.28415E-01   -0.20929E+00  4512   0.116E+00    0.407E-01
RMM:   2    -0.232118360902E+04   -0.29790E-01   -0.29566E-01  6467   0.297E-01    0.426E-01
RMM:   3    -0.232118446718E+04   -0.85816E-03   -0.26076E-02  5953   0.908E-02    0.332E-01
RMM:   4    -0.232118329018E+04    0.11770E-02   -0.28393E-03  4952   0.229E-02    0.140E-01
RMM:   5    -0.232118327267E+04    0.17513E-04   -0.60838E-04  4126   0.121E-02    0.139E-01
RMM:   6    -0.232118305603E+04    0.21664E-03   -0.56756E-04  4414   0.138E-02    0.529E-02
RMM:   7    -0.232118308026E+04   -0.24229E-04   -0.15366E-04  3420   0.871E-03    0.596E-02
RMM:   8    -0.232118304077E+04    0.39490E-04   -0.39968E-05  2978   0.527E-03    0.140E-02
RMM:   9    -0.232118303845E+04    0.23182E-05   -0.94165E-06  2951   0.265E-03
  66 F= -.23425431E+04 E0= -.23425431E+04  d E =-.546282E-02  mag=     4.0000
       N       E                     dE             d eps       ncg     rms          rms(c)
DAV:   1    -0.232114426121E+04    0.38780E-01   -0.27248E+00  4512   0.135E+00    0.482E-01
RMM:   2    -0.232118636421E+04   -0.42103E-01   -0.42775E-01  6544   0.352E-01    0.417E-01
RMM:   3    -0.232118914109E+04   -0.27769E-02   -0.38082E-02  6018   0.107E-01    0.399E-01
RMM:   4    -0.232118731039E+04    0.18307E-02   -0.40018E-03  5193   0.273E-02    0.163E-01
RMM:   5    -0.232118727645E+04    0.33945E-04   -0.80877E-04  4242   0.128E-02    0.156E-01
RMM:   6    -0.232118701450E+04    0.26195E-03   -0.68376E-04  4446   0.145E-02    0.624E-02
RMM:   7    -0.232118702994E+04   -0.15440E-04   -0.17416E-04  3656   0.860E-03    0.580E-02
RMM:   8    -0.232118699623E+04    0.33710E-04   -0.45538E-05  2974   0.542E-03    0.182E-02
RMM:   9    -0.232118699289E+04    0.33361E-05   -0.10829E-05  2958   0.267E-03
  67 F= -.23425469E+04 E0= -.23425469E+04  d E =-.380204E-02  mag=     4.0000
       N       E                     dE             d eps       ncg     rms          rms(c)
DAV:   1    -0.232105062325E+04    0.13637E+00   -0.88546E+00  4512   0.244E+00    0.869E-01
RMM:   2    -0.232118725947E+04   -0.13664E+00   -0.13937E+00  6525   0.631E-01    0.730E-01
RMM:   3    -0.232119716139E+04   -0.99019E-02   -0.12694E-01  6171   0.195E-01    0.731E-01
RMM:   4    -0.232119109301E+04    0.60684E-02   -0.13025E-02  5900   0.492E-02    0.295E-01
RMM:   5    -0.232119097021E+04    0.12280E-03   -0.25585E-03  5368   0.220E-02    0.279E-01
RMM:   6    -0.232119018242E+04    0.78779E-03   -0.21676E-03  5272   0.242E-02    0.125E-01
RMM:   7    -0.232119021722E+04   -0.34804E-04   -0.63513E-04  4718   0.147E-02    0.116E-01
RMM:   8    -0.232119007970E+04    0.13752E-03   -0.17645E-04  3169   0.794E-03    0.343E-02
RMM:   9    -0.232119006701E+04    0.12686E-04   -0.41264E-05  3196   0.448E-03    0.190E-02
RMM:  10    -0.232119006187E+04    0.51434E-05   -0.17344E-05  2946   0.319E-03
  68 F= -.23425497E+04 E0= -.23425497E+04  d E =-.656651E-02  mag=     4.0000
       N       E                     dE             d eps       ncg     rms          rms(c)
DAV:   1    -0.232115081316E+04    0.39254E-01   -0.28290E+00  4512   0.142E+00    0.498E-01
RMM:   2    -0.232119369500E+04   -0.42882E-01   -0.43985E-01  6403   0.366E-01    0.384E-01
RMM:   3    -0.232119707944E+04   -0.33844E-02   -0.39166E-02  5996   0.114E-01    0.402E-01
RMM:   4    -0.232119514003E+04    0.19394E-02   -0.42308E-03  5621   0.297E-02    0.166E-01
RMM:   5    -0.232119511423E+04    0.25800E-04   -0.89333E-04  4624   0.142E-02    0.164E-01
RMM:   6    -0.232119482527E+04    0.28896E-03   -0.74843E-04  4889   0.154E-02    0.626E-02
RMM:   7    -0.232119480343E+04    0.21841E-04   -0.14922E-04  3762   0.858E-03    0.206E-02
RMM:   8    -0.232119480106E+04    0.23656E-05   -0.20559E-05  3082   0.439E-03
  69 F= -.23425541E+04 E0= -.23425541E+04  d E =-.444812E-02  mag=     4.0000
       N       E                     dE             d eps       ncg     rms          rms(c)
DAV:   1    -0.232116599418E+04    0.28809E-01   -0.19641E+00  4528   0.118E+00    0.417E-01
RMM:   2    -0.232119582313E+04   -0.29829E-01   -0.30567E-01  6354   0.305E-01    0.331E-01
RMM:   3    -0.232119808727E+04   -0.22641E-02   -0.27357E-02  5875   0.940E-02    0.339E-01
RMM:   4    -0.232119672414E+04    0.13631E-02   -0.29417E-03  5349   0.250E-02    0.136E-01
RMM:   5    -0.232119671826E+04    0.58794E-05   -0.62506E-04  4183   0.121E-02    0.138E-01
RMM:   6    -0.232119650673E+04    0.21153E-03   -0.52375E-04  4572   0.134E-02    0.490E-02
RMM:   7    -0.232119649815E+04    0.85801E-05   -0.10083E-04  3563   0.734E-03    0.232E-02
RMM:   8    -0.232119649878E+04   -0.62489E-06   -0.23204E-05  2964   0.436E-03
  70 F= -.23425555E+04 E0= -.23425555E+04  d E =-.589547E-02  mag=     4.0000
       N       E                     dE             d eps       ncg     rms          rms(c)
DAV:   1    -0.232118330358E+04    0.13195E-01   -0.13079E+00  4512   0.102E+00    0.346E-01
RMM:   2    -0.232119954810E+04   -0.16245E-01   -0.16762E-01  6140   0.242E-01    0.252E-01
RMM:   3    -0.232120099139E+04   -0.14433E-02   -0.15989E-02  5770   0.827E-02    0.288E-01
RMM:   4    -0.232119998138E+04    0.10100E-02   -0.17166E-03  5377   0.213E-02    0.106E-01
RMM:   5    -0.232119998849E+04   -0.71118E-05   -0.48292E-04  4269   0.119E-02    0.114E-01
RMM:   6    -0.232119985185E+04    0.13665E-03   -0.35107E-04  4514   0.115E-02    0.442E-02
RMM:   7    -0.232119984136E+04    0.10484E-04   -0.68633E-05  3343   0.696E-03    0.223E-02
RMM:   8    -0.232119984044E+04    0.92678E-06   -0.16600E-05  2914   0.404E-03
  71 F= -.23425586E+04 E0= -.23425586E+04  d E =-.301337E-02  mag=     4.0000
       N       E                     dE             d eps       ncg     rms          rms(c)
DAV:   1    -0.232119219531E+04    0.76461E-02   -0.66842E-01  4544   0.728E-01    0.248E-01
RMM:   2    -0.232120052924E+04   -0.83339E-02   -0.85747E-02  6162   0.174E-01    0.183E-01
RMM:   3    -0.232120125278E+04   -0.72354E-03   -0.80875E-03  5434   0.574E-02    0.208E-01
RMM:   4    -0.232120072238E+04    0.53040E-03   -0.87686E-04  4336   0.152E-02    0.768E-02
RMM:   5    -0.232120072521E+04   -0.28379E-05   -0.24993E-04  3463   0.901E-03    0.822E-02
RMM:   6    -0.232120065425E+04    0.70960E-04   -0.18345E-04  3731   0.910E-03    0.324E-02
RMM:   7    -0.232120065110E+04    0.31496E-05   -0.40231E-05  3127   0.598E-03
  72 F= -.23425591E+04 E0= -.23425591E+04  d E =-.358803E-02  mag=     4.0000
       N       E                     dE             d eps       ncg     rms          rms(c)
DAV:   1    -0.232118965490E+04    0.10999E-01   -0.11116E+00  4512   0.909E-01    0.294E-01
RMM:   2    -0.232120277589E+04   -0.13121E-01   -0.13739E-01  6309   0.209E-01    0.202E-01
RMM:   3    -0.232120408164E+04   -0.13057E-02   -0.14056E-02  5587   0.728E-02    0.241E-01
RMM:   4    -0.232120343543E+04    0.64620E-03   -0.13815E-03  4296   0.178E-02    0.934E-02
RMM:   5    -0.232120341098E+04    0.24453E-04   -0.32470E-04  3871   0.101E-02    0.885E-02
RMM:   6    -0.232120334748E+04    0.63497E-04   -0.25543E-04  3491   0.100E-02    0.489E-02
RMM:   7    -0.232120332647E+04    0.21009E-04   -0.58699E-05  3331   0.656E-03    0.132E-02
RMM:   8    -0.232120332484E+04    0.16364E-05   -0.91037E-06  2951   0.365E-03
  73 F= -.23425614E+04 E0= -.23425614E+04  d E =-.231084E-02  mag=     4.0000
       N       E                     dE             d eps       ncg     rms          rms(c)
DAV:   1    -0.232118468738E+04    0.18639E-01   -0.16321E+00  4512   0.110E+00    0.356E-01
RMM:   2    -0.232120404509E+04   -0.19358E-01   -0.20154E-01  6238   0.253E-01    0.259E-01
RMM:   3    -0.232120594960E+04   -0.19045E-02   -0.20526E-02  5715   0.851E-02    0.305E-01
RMM:   4    -0.232120490867E+04    0.10409E-02   -0.20187E-03  4824   0.213E-02    0.114E-01
RMM:   5    -0.232120488027E+04    0.28393E-04   -0.50604E-04  4296   0.118E-02    0.110E-01
RMM:   6    -0.232120477554E+04    0.10474E-03   -0.38522E-04  4035   0.116E-02    0.567E-02
RMM:   7    -0.232120474720E+04    0.28339E-04   -0.78229E-05  3409   0.704E-03    0.160E-02
RMM:   8    -0.232120474531E+04    0.18860E-05   -0.13997E-05  3008   0.393E-03
  74 F= -.23425624E+04 E0= -.23425624E+04  d E =-.329271E-02  mag=     4.0000
       N       E                     dE             d eps       ncg     rms          rms(c)
DAV:   1    -0.232119870740E+04    0.60398E-02   -0.89662E-01  4528   0.836E-01    0.269E-01
RMM:   2    -0.232120705788E+04   -0.83505E-02   -0.89099E-02  6015   0.179E-01    0.154E-01
RMM:   3    -0.232120771639E+04   -0.65851E-03   -0.87830E-03  5451   0.647E-02    0.208E-01
RMM:   4    -0.232120729291E+04    0.42348E-03   -0.91308E-04  4079   0.158E-02    0.820E-02
RMM:   5    -0.232120721353E+04    0.79381E-04   -0.27657E-04  4336   0.112E-02    0.427E-02
RMM:   6    -0.232120723497E+04   -0.21449E-04   -0.12228E-04  3258   0.900E-03    0.538E-02
RMM:   7    -0.232120720221E+04    0.32769E-04   -0.36727E-05  3018   0.569E-03    0.150E-02
RMM:   8    -0.232120720065E+04    0.15561E-05   -0.84184E-06  2913   0.341E-03
  75 F= -.23425646E+04 E0= -.23425646E+04  d E =-.215026E-02  mag=     4.0000
       N       E                     dE             d eps       ncg     rms          rms(c)
DAV:   1    -0.232120492745E+04    0.22748E-02   -0.28991E-01  4592   0.476E-01    0.153E-01
RMM:   2    -0.232120764197E+04   -0.27145E-02   -0.28858E-02  5969   0.102E-01    0.918E-02
RMM:   3    -0.232120785639E+04   -0.21443E-03   -0.28331E-03  4485   0.365E-02    0.123E-01
RMM:   4    -0.232120770070E+04    0.15569E-03   -0.29799E-04  3210   0.969E-03    0.469E-02
RMM:   5    -0.232120768125E+04    0.19445E-04   -0.95770E-05  3388   0.685E-03    0.332E-02
RMM:   6    -0.232120768076E+04    0.49097E-06   -0.52801E-05  2987   0.617E-03
  76 F= -.23425649E+04 E0= -.23425649E+04  d E =-.245701E-02  mag=     4.0000
       N       E                     dE             d eps       ncg     rms          rms(c)
DAV:   1    -0.232120152237E+04    0.61589E-02   -0.86724E-01  4544   0.825E-01    0.252E-01
RMM:   2    -0.232121019498E+04   -0.86726E-02   -0.92252E-02  6128   0.177E-01    0.144E-01
RMM:   3    -0.232121075626E+04   -0.56127E-03   -0.85889E-03  5427   0.631E-02    0.168E-01
RMM:   4    -0.232121055898E+04    0.19728E-03   -0.90226E-04  3539   0.146E-02    0.875E-02
RMM:   5    -0.232121051486E+04    0.44119E-04   -0.22616E-04  3900   0.993E-03    0.655E-02
RMM:   6    -0.232121050769E+04    0.71670E-05   -0.14876E-04  3326   0.887E-03    0.562E-02
RMM:   7    -0.232121047565E+04    0.32046E-04   -0.45133E-05  3156   0.609E-03    0.183E-02
RMM:   8    -0.232121047376E+04    0.18829E-05   -0.11976E-05  2907   0.398E-03
  77 F= -.23425673E+04 E0= -.23425673E+04  d E =-.243716E-02  mag=     4.0000
       N       E                     dE             d eps       ncg     rms          rms(c)
DAV:   1    -0.232119052376E+04    0.19952E-01   -0.21287E+00  4512   0.129E+00    0.395E-01
RMM:   2    -0.232121195049E+04   -0.21427E-01   -0.22668E-01  6114   0.277E-01    0.247E-01
RMM:   3    -0.232121341810E+04   -0.14676E-02   -0.21342E-02  5643   0.965E-02    0.297E-01
RMM:   4    -0.232121268830E+04    0.72981E-03   -0.22652E-03  4911   0.233E-02    0.131E-01
RMM:   5    -0.232121265065E+04    0.37645E-04   -0.60628E-04  4702   0.147E-02    0.118E-01
RMM:   6    -0.232121254702E+04    0.10363E-03   -0.38022E-04  4215   0.126E-02    0.759E-02
RMM:   7    -0.232121250703E+04    0.39991E-04   -0.11302E-04  3410   0.788E-03    0.424E-02
RMM:   8    -0.232121248844E+04    0.18583E-04   -0.35536E-05  2935   0.532E-03    0.204E-02
RMM:   9    -0.232121248419E+04    0.42591E-05   -0.77460E-06  2914   0.271E-03
  78 F= -.23425688E+04 E0= -.23425688E+04  d E =-.389131E-02  mag=     4.0000
       N       E                     dE             d eps       ncg     rms          rms(c)
DAV:   1    -0.232120182213E+04    0.10666E-01   -0.12965E+00  4512   0.101E+00    0.315E-01
RMM:   2    -0.232121486064E+04   -0.13039E-01   -0.13884E-01  6159   0.219E-01    0.164E-01
RMM:   3    -0.232121554260E+04   -0.68196E-03   -0.12515E-02  5605   0.767E-02    0.162E-01
RMM:   4    -0.232121543298E+04    0.10961E-03   -0.13473E-03  4207   0.177E-02    0.116E-01
RMM:   5    -0.232121531559E+04    0.11739E-03   -0.33281E-04  4294   0.121E-02    0.625E-02
RMM:   6    -0.232121533629E+04   -0.20703E-04   -0.19488E-04  3544   0.100E-02    0.668E-02
RMM:   7    -0.232121528505E+04    0.51243E-04   -0.59937E-05  3138   0.672E-03    0.233E-02
RMM:   8    -0.232121528272E+04    0.23347E-05   -0.18132E-05  2912   0.397E-03
  79 F= -.23425712E+04 E0= -.23425712E+04  d E =-.242816E-02  mag=     4.0000
       N       E                     dE             d eps       ncg     rms          rms(c)
DAV:   1    -0.232120580815E+04    0.94769E-02   -0.97356E-01  4512   0.877E-01    0.274E-01
RMM:   2    -0.232121559273E+04   -0.97846E-02   -0.10444E-01  6126   0.189E-01    0.139E-01
RMM:   3    -0.232121607117E+04   -0.47844E-03   -0.93243E-03  5496   0.637E-02    0.125E-01
RMM:   4    -0.232121604587E+04    0.25305E-04   -0.10105E-03  3863   0.153E-02    0.105E-01
RMM:   5    -0.232121594340E+04    0.10247E-03   -0.25743E-04  3975   0.107E-02    0.505E-02
RMM:   6    -0.232121595911E+04   -0.15706E-04   -0.13519E-04  3334   0.872E-03    0.539E-02
RMM:   7    -0.232121592432E+04    0.34789E-04   -0.43368E-05  3038   0.608E-03    0.174E-02
RMM:   8    -0.232121592405E+04    0.26790E-06   -0.12731E-05  2906   0.351E-03
[...]
 167 F= -.23426373E+04 E0= -.23426373E+04  d E =-.227104E-03  mag=     4.0000
       N       E                     dE             d eps       ncg     rms          rms(c)
DAV:   1    -0.232129268434E+04    0.17832E-03   -0.81752E-02  4528   0.263E-01    0.832E-02
RMM:   2    -0.232129314689E+04   -0.46255E-03   -0.48362E-03  6104   0.501E-02    0.581E-02
RMM:   3    -0.232129319186E+04   -0.44967E-04   -0.41005E-04  3410   0.167E-02    0.768E-02
RMM:   4    -0.232129312498E+04    0.66875E-04   -0.62926E-05  3031   0.632E-03    0.257E-02
RMM:   5    -0.232129313193E+04   -0.69508E-05   -0.35877E-05  3038   0.479E-03
 168 F= -.23426375E+04 E0= -.23426375E+04  d E =-.193904E-03  mag=     4.0000
       N       E                     dE             d eps       ncg     rms          rms(c)
DAV:   1    -0.232129303067E+04    0.94311E-04   -0.26210E-02  4544   0.149E-01    0.486E-02
RMM:   2    -0.232129318325E+04   -0.15257E-03   -0.16025E-03  6040   0.298E-02    0.347E-02
RMM:   3    -0.232129319578E+04   -0.12532E-04   -0.13740E-04  3035   0.103E-02    0.424E-02
RMM:   4    -0.232129317383E+04    0.21947E-04   -0.19212E-05  2935   0.425E-03    0.131E-02
RMM:   5    -0.232129317249E+04    0.13465E-05   -0.11800E-05  2962   0.306E-03
 169 F= -.23426375E+04 E0= -.23426375E+04  d E =-.188023E-03  mag=     4.0000
       N       E                     dE             d eps       ncg     rms          rms(c)
DAV:   1    -0.232129319679E+04   -0.22954E-04   -0.57722E-02  4528   0.217E-01    0.686E-02
RMM:   2    -0.232129346468E+04   -0.26789E-03   -0.29126E-03  6082   0.406E-02    0.382E-02
RMM:   3    -0.232129348896E+04   -0.24280E-04   -0.23224E-04  3328   0.147E-02    0.559E-02
RMM:   4    -0.232129345573E+04    0.33230E-04   -0.36393E-05  2962   0.516E-03    0.201E-02
RMM:   5    -0.232129345714E+04   -0.14175E-05   -0.22703E-05  2988   0.400E-03
 170 F= -.23426377E+04 E0= -.23426377E+04  d E =-.228363E-03  mag=     4.0000
       N       E                     dE             d eps       ncg     rms          rms(c)
DAV:   1    -0.232129315736E+04    0.29837E-03   -0.10119E-01  4528   0.287E-01    0.916E-02
RMM:   2    -0.232129363137E+04   -0.47401E-03   -0.51443E-03  6155   0.538E-02    0.514E-02
RMM:   3    -0.232129366926E+04   -0.37895E-04   -0.41936E-04  3689   0.191E-02    0.704E-02
RMM:   4    -0.232129361044E+04    0.58820E-04   -0.61205E-05  3068   0.670E-03    0.259E-02
RMM:   5    -0.232129360943E+04    0.10175E-05   -0.43051E-05  3085   0.538E-03
 171 F= -.23426378E+04 E0= -.23426378E+04  d E =-.306120E-03  mag=     4.0000
       N       E                     dE             d eps       ncg     rms          rms(c)
DAV:   1    -0.232129366000E+04   -0.49551E-04   -0.70010E-02  4528   0.234E-01    0.780E-02
RMM:   2    -0.232129393205E+04   -0.27205E-03   -0.29807E-03  6134   0.439E-02    0.460E-02
RMM:   3    -0.232129395798E+04   -0.25931E-04   -0.26289E-04  3466   0.154E-02    0.659E-02
RMM:   4    -0.232129390965E+04    0.48324E-04   -0.43628E-05  2998   0.594E-03    0.207E-02
RMM:   5    -0.232129391756E+04   -0.79056E-05   -0.28847E-05  3013   0.444E-03
 172 F= -.23426380E+04 E0= -.23426380E+04  d E =-.250431E-03  mag=     4.0000
       N       E                     dE             d eps       ncg     rms          rms(c)
DAV:   1    -0.232129384034E+04    0.69309E-04   -0.44489E-02  4528   0.187E-01    0.627E-02
RMM:   2    -0.232129402020E+04   -0.17986E-03   -0.19156E-03  6067   0.347E-02    0.420E-02
RMM:   3    -0.232129404138E+04   -0.21177E-04   -0.17854E-04  3268   0.127E-02    0.605E-02
RMM:   4    -0.232129399911E+04    0.42268E-04   -0.30413E-05  2966   0.516E-03    0.169E-02
RMM:   5    -0.232129400601E+04   -0.69009E-05   -0.20244E-05  2971   0.364E-03
 173 F= -.23426381E+04 E0= -.23426381E+04  d E =-.292796E-03  mag=     4.0000
       N       E                     dE             d eps       ncg     rms          rms(c)
DAV:   1    -0.232129404781E+04   -0.48694E-04   -0.60229E-02  4528   0.221E-01    0.754E-02
RMM:   2    -0.232129430080E+04   -0.25300E-03   -0.27275E-03  6119   0.416E-02    0.461E-02
RMM:   3    -0.232129433163E+04   -0.30830E-04   -0.25878E-04  3476   0.154E-02    0.663E-02
RMM:   4    -0.232129427648E+04    0.55153E-04   -0.41352E-05  3013   0.596E-03    0.188E-02
RMM:   5    -0.232129428005E+04   -0.35736E-05   -0.27861E-05  2995   0.436E-03
 174 F= -.23426383E+04 E0= -.23426383E+04  d E =-.192101E-03  mag=     4.0000
       N       E                     dE             d eps       ncg     rms          rms(c)
DAV:   1    -0.232129426123E+04    0.15249E-04   -0.18314E-02  4544   0.122E-01    0.423E-02
RMM:   2    -0.232129433891E+04   -0.77681E-04   -0.84948E-04  5800   0.242E-02    0.246E-02
RMM:   3    -0.232129434790E+04   -0.89878E-05   -0.77913E-05  3018   0.893E-03
 175 F= -.23426383E+04 E0= -.23426383E+04  d E =-.214539E-03  mag=     4.0000
       N       E                     dE             d eps       ncg     rms          rms(c)
DAV:   1    -0.232129427125E+04    0.67664E-04   -0.65962E-02  4528   0.234E-01    0.817E-02
RMM:   2    -0.232129466337E+04   -0.39212E-03   -0.39201E-03  6174   0.466E-02    0.674E-02
RMM:   3    -0.232129467519E+04   -0.11819E-04   -0.33929E-04  3420   0.152E-02    0.699E-02
RMM:   4    -0.232129461631E+04    0.58874E-04   -0.52976E-05  3015   0.620E-03    0.253E-02
RMM:   5    -0.232129462525E+04   -0.89322E-05   -0.35030E-05  2940   0.454E-03
 176 F= -.23426385E+04 E0= -.23426385E+04  d E =-.192982E-03  mag=     4.0000
       N       E                     dE             d eps       ncg     rms          rms(c)
DAV:   1    -0.232129457851E+04    0.37806E-04   -0.15068E-02  4544   0.112E-01    0.402E-02
RMM:   2    -0.232129467665E+04   -0.98145E-04   -0.90992E-04  5948   0.231E-02    0.425E-02
RMM:   3    -0.232129466900E+04    0.76497E-05   -0.96431E-05  3001   0.826E-03
 177 F= -.23426385E+04 E0= -.23426385E+04  d E =-.195867E-03  mag=     4.0000
       N       E                     dE             d eps       ncg     rms          rms(c)
DAV:   1    -0.232129456602E+04    0.11063E-03   -0.69843E-02  4528   0.234E-01    0.851E-02
RMM:   2    -0.232129498878E+04   -0.42275E-03   -0.39729E-03  6123   0.465E-02    0.863E-02
RMM:   3    -0.232129495455E+04    0.34226E-04   -0.33171E-04  3388   0.146E-02    0.680E-02
RMM:   4    -0.232129489967E+04    0.54883E-04   -0.53074E-05  3037   0.613E-03    0.249E-02
RMM:   5    -0.232129491411E+04   -0.14442E-04   -0.37388E-05  2950   0.475E-03    0.438E-02
RMM:   6    -0.232129489482E+04    0.19283E-04   -0.23308E-05  2953   0.441E-03    0.603E-03
RMM:   7    -0.232129489498E+04   -0.15603E-06   -0.47726E-06  2846   0.313E-03
 178 F= -.23426386E+04 E0= -.23426386E+04  d E =-.174324E-03  mag=     4.0000
       N       E                     dE             d eps       ncg     rms          rms(c)
DAV:   1    -0.232129487407E+04    0.20755E-04   -0.93412E-03  4560   0.857E-02    0.302E-02
RMM:   2    -0.232129492712E+04   -0.53049E-04   -0.53070E-04  5584   0.174E-02    0.250E-02
RMM:   3    -0.232129492849E+04   -0.13712E-05   -0.46024E-05  2954   0.633E-03
 179 F= -.23426387E+04 E0= -.23426387E+04  d E =-.188935E-03  mag=     4.0000
       N       E                     dE             d eps       ncg     rms          rms(c)
DAV:   1    -0.232129490431E+04    0.22806E-04   -0.59349E-02  4528   0.219E-01    0.784E-02
RMM:   2    -0.232129518685E+04   -0.28254E-03   -0.30048E-03  5936   0.426E-02    0.503E-02
RMM:   3    -0.232129521467E+04   -0.27819E-04   -0.23285E-04  3399   0.147E-02    0.673E-02
RMM:   4    -0.232129515694E+04    0.57729E-04   -0.50399E-05  3035   0.611E-03    0.243E-02
RMM:   5    -0.232129516307E+04   -0.61298E-05   -0.32946E-05  2960   0.451E-03
 180 F= -.23426389E+04 E0= -.23426389E+04  d E =-.196231E-03  mag=     4.0000
       N       E                     dE             d eps       ncg     rms          rms(c)
DAV:   1    -0.232129514103E+04    0.15912E-04   -0.42497E-03  4976   0.595E-02    0.232E-02
RMM:   2    -0.232129516649E+04   -0.25460E-04   -0.23383E-04  4634   0.130E-02    0.246E-02
RMM:   3    -0.232129516334E+04    0.31425E-05   -0.24643E-05  2948   0.565E-03
 181 F= -.23426388E+04 E0= -.23426388E+04  d E =-.186021E-03  mag=     4.0000
       N       E                     dE             d eps       ncg     rms          rms(c)
DAV:   1    -0.232129507864E+04    0.87847E-04   -0.57669E-02  4528   0.216E-01    0.752E-02
RMM:   2    -0.232129541677E+04   -0.33813E-03   -0.35705E-03  6050   0.430E-02    0.506E-02
RMM:   3    -0.232129546423E+04   -0.47467E-04   -0.33189E-04  3294   0.153E-02    0.743E-02
RMM:   4    -0.232129540284E+04    0.61395E-04   -0.50424E-05  2993   0.581E-03    0.211E-02
RMM:   5    -0.232129540525E+04   -0.24091E-05   -0.28249E-05  3031   0.436E-03
 182 F= -.23426390E+04 E0= -.23426390E+04  d E =-.164109E-03  mag=     4.0000
       N       E                     dE             d eps       ncg     rms          rms(c)
DAV:   1    -0.232129539857E+04    0.42731E-05   -0.38549E-03  4896   0.566E-02    0.221E-02
RMM:   2    -0.232129542695E+04   -0.28386E-04   -0.26176E-04  4413   0.128E-02    0.233E-02
RMM:   3    -0.232129542437E+04    0.25777E-05   -0.27743E-05  2946   0.591E-03
 183 F= -.23426390E+04 E0= -.23426390E+04  d E =-.162903E-03  mag=     4.0000
       N       E                     dE             d eps       ncg     rms          rms(c)
DAV:   1    -0.232129534575E+04    0.81205E-04   -0.61652E-02  4520   0.233E-01    0.824E-02
RMM:   2    -0.232129571585E+04   -0.37010E-03   -0.40052E-03  6036   0.467E-02    0.447E-02
RMM:   3    -0.232129576295E+04   -0.47102E-04   -0.35116E-04  3515   0.172E-02    0.685E-02
RMM:   4    -0.232129571065E+04    0.52301E-04   -0.55159E-05  2991   0.602E-03    0.237E-02
RMM:   5    -0.232129571241E+04   -0.17606E-05   -0.34339E-05  2993   0.466E-03
 184 F= -.23426392E+04 E0= -.23426392E+04  d E =-.202492E-03  mag=     4.0000
       N       E                     dE             d eps       ncg     rms          rms(c)
DAV:   1    -0.232129570679E+04    0.38613E-05   -0.24509E-03  5176   0.473E-02    0.187E-02
RMM:   2    -0.232129572410E+04   -0.17312E-04   -0.17846E-04  4041   0.108E-02    0.147E-02
RMM:   3    -0.232129572441E+04   -0.30895E-06   -0.18767E-05  2872   0.539E-03
 185 F= -.23426392E+04 E0= -.23426392E+04  d E =-.197073E-03  mag=     4.0000
       N       E                     dE             d eps       ncg     rms          rms(c)
DAV:   1    -0.232129566001E+04    0.64091E-04   -0.50176E-02  4528   0.201E-01    0.701E-02
RMM:   2    -0.232129592746E+04   -0.26745E-03   -0.28842E-03  6049   0.400E-02    0.430E-02
RMM:   3    -0.232129596310E+04   -0.35642E-04   -0.24103E-04  3308   0.142E-02    0.636E-02
RMM:   4    -0.232129591736E+04    0.45743E-04   -0.42847E-05  2978   0.554E-03    0.210E-02
RMM:   5    -0.232129591897E+04   -0.16197E-05   -0.27364E-05  3012   0.430E-03
 186 F= -.23426394E+04 E0= -.23426394E+04  d E =-.151919E-03  mag=     4.0000
       N       E                     dE             d eps       ncg     rms          rms(c)
DAV:   1    -0.232129591216E+04    0.51939E-05   -0.12547E-03  5224   0.329E-02    0.140E-02
RMM:   2    -0.232129592242E+04   -0.10256E-04   -0.87367E-05  3510   0.769E-03    0.179E-02
RMM:   3    -0.232129591999E+04    0.24253E-05   -0.11108E-05  2696   0.424E-03
 187 F= -.23426394E+04 E0= -.23426394E+04  d E =-.146064E-03  mag=     4.0000
       N       E                     dE             d eps       ncg     rms          rms(c)
DAV:   1    -0.232129591669E+04    0.57279E-05   -0.46642E-02  4528   0.193E-01    0.664E-02
RMM:   2    -0.232129614361E+04   -0.22692E-03   -0.24307E-03  5998   0.370E-02    0.401E-02
RMM:   3    -0.232129617372E+04   -0.30113E-04   -0.21068E-04  3254   0.139E-02    0.586E-02
RMM:   4    -0.232129613282E+04    0.40900E-04   -0.36925E-05  2975   0.525E-03    0.195E-02
RMM:   5    -0.232129613692E+04   -0.40945E-05   -0.22306E-05  2948   0.373E-03
 188 F= -.23426395E+04 E0= -.23426395E+04  d E =-.166379E-03  mag=     4.0000
       N       E                     dE             d eps       ncg     rms          rms(c)
DAV:   1    -0.232129610988E+04    0.22941E-04   -0.11103E-02  4544   0.947E-02    0.339E-02
RMM:   2    -0.232129616948E+04   -0.59601E-04   -0.61710E-04  5463   0.197E-02    0.254E-02
RMM:   3    -0.232129617411E+04   -0.46332E-05   -0.56624E-05  2957   0.740E-03
 189 F= -.23426395E+04 E0= -.23426395E+04  d E =-.178654E-03  mag=     4.0000
       N       E                     dE             d eps       ncg     rms          rms(c)
DAV:   1    -0.232129614203E+04    0.27447E-04   -0.54290E-02  4528   0.210E-01    0.735E-02
RMM:   2    -0.232129644432E+04   -0.30229E-03   -0.31422E-03  6014   0.409E-02    0.520E-02
RMM:   3    -0.232129647278E+04   -0.28463E-04   -0.28463E-04  3279   0.149E-02    0.662E-02
RMM:   4    -0.232129642057E+04    0.52217E-04   -0.44745E-05  3001   0.572E-03    0.205E-02
RMM:   5    -0.232129642889E+04   -0.83228E-05   -0.27093E-05  2957   0.410E-03
 190 F= -.23426397E+04 E0= -.23426397E+04  d E =-.175574E-03  mag=     4.0000
       N       E                     dE             d eps       ncg     rms          rms(c)
DAV:   1    -0.232129632722E+04    0.93348E-04   -0.31647E-02  4528   0.161E-01    0.561E-02
RMM:   2    -0.232129650577E+04   -0.17855E-03   -0.18626E-03  6076   0.325E-02    0.404E-02
RMM:   3    -0.232129652280E+04   -0.17033E-04   -0.18447E-04  3109   0.117E-02    0.517E-02
RMM:   4    -0.232129649078E+04    0.32022E-04   -0.25230E-05  2946   0.467E-03    0.135E-02
RMM:   5    -0.232129649280E+04   -0.20245E-05   -0.15554E-05  2973   0.323E-03
 191 F= -.23426397E+04 E0= -.23426397E+04  d E =-.178617E-03  mag=     4.0000
       N       E                     dE             d eps       ncg     rms          rms(c)
DAV:   1    -0.232129652234E+04   -0.31563E-04   -0.26947E-02  4528   0.141E-01    0.466E-02
RMM:   2    -0.232129666838E+04   -0.14604E-03   -0.15074E-03  5917   0.278E-02    0.348E-02
RMM:   3    -0.232129668416E+04   -0.15773E-04   -0.15371E-04  3032   0.106E-02    0.454E-02
RMM:   4    -0.232129666122E+04    0.22934E-04   -0.19766E-05  2946   0.397E-03    0.136E-02
RMM:   5    -0.232129666517E+04   -0.39513E-05   -0.11350E-05  2881   0.245E-03
 192 F= -.23426398E+04 E0= -.23426398E+04  d E =-.118869E-03  mag=     4.0000
       N       E                     dE             d eps       ncg     rms          rms(c)
DAV:   1    -0.232129627073E+04    0.39049E-03   -0.11641E-01  4528   0.293E-01    0.952E-02
RMM:   2    -0.232129689637E+04   -0.62564E-03   -0.65440E-03  6091   0.561E-02    0.640E-02
RMM:   3    -0.232129694973E+04   -0.53357E-04   -0.58611E-04  3681   0.199E-02    0.853E-02
RMM:   4    -0.232129686382E+04    0.85907E-04   -0.78653E-05  3113   0.690E-03    0.249E-02
RMM:   5    -0.232129686470E+04   -0.88051E-06   -0.45072E-05  3110   0.521E-03
 193 F= -.23426399E+04 E0= -.23426399E+04  d E =-.207151E-03  mag=     4.0000
       N       E                     dE             d eps       ncg     rms          rms(c)
DAV:   1    -0.232129692956E+04   -0.65741E-04   -0.39980E-02  4528   0.183E-01    0.655E-02
RMM:   2    -0.232129713464E+04   -0.20508E-03   -0.22091E-03  6033   0.371E-02    0.401E-02
RMM:   3    -0.232129716066E+04   -0.26020E-04   -0.21089E-04  3328   0.133E-02    0.615E-02
RMM:   4    -0.232129712291E+04    0.37744E-04   -0.34879E-05  2951   0.513E-03    0.174E-02
RMM:   5    -0.232129712871E+04   -0.57974E-05   -0.19497E-05  2972   0.351E-03
 194 F= -.23426401E+04 E0= -.23426401E+04  d E =-.220093E-03  mag=     4.0000
       N       E                     dE             d eps       ncg     rms          rms(c)
DAV:   1    -0.232129704247E+04    0.80441E-04   -0.38014E-02  4528   0.178E-01    0.630E-02
RMM:   2    -0.232129723741E+04   -0.19494E-03   -0.20736E-03  6016   0.345E-02    0.396E-02
RMM:   3    -0.232129726681E+04   -0.29395E-04   -0.20318E-04  3266   0.134E-02    0.615E-02
RMM:   4    -0.232129722246E+04    0.44349E-04   -0.32464E-05  2972   0.516E-03    0.157E-02
RMM:   5    -0.232129722749E+04   -0.50348E-05   -0.20017E-05  2955   0.358E-03
 195 F= -.23426402E+04 E0= -.23426402E+04  d E =-.275889E-03  mag=     4.0000
       N       E                     dE             d eps       ncg     rms          rms(c)
DAV:   1    -0.232129724628E+04   -0.23819E-04   -0.22396E-02  4528   0.135E-01    0.477E-02
RMM:   2    -0.232129740061E+04   -0.15433E-03   -0.16454E-03  6090   0.297E-02    0.288E-02
RMM:   3    -0.232129741731E+04   -0.16700E-04   -0.12854E-04  3024   0.985E-03    0.403E-02
RMM:   4    -0.232129739815E+04    0.19168E-04   -0.19973E-05  2939   0.398E-03    0.152E-02
RMM:   5    -0.232129739992E+04   -0.17733E-05   -0.12801E-05  2897   0.275E-03
 196 F= -.23426403E+04 E0= -.23426403E+04  d E =-.128920E-03  mag=     4.0000
       N       E                     dE             d eps       ncg     rms          rms(c)
DAV:   1    -0.232129734624E+04    0.51902E-04   -0.17866E-02  4544   0.121E-01    0.429E-02
RMM:   2    -0.232129746933E+04   -0.12309E-03   -0.12964E-03  6040   0.260E-02    0.295E-02
RMM:   3    -0.232129748330E+04   -0.13968E-04   -0.12407E-04  2985   0.937E-03    0.384E-02
RMM:   4    -0.232129746557E+04    0.17729E-04   -0.16896E-05  2924   0.362E-03    0.129E-02
RMM:   5    -0.232129746761E+04   -0.20408E-05   -0.11661E-05  2884   0.255E-03
 197 F= -.23426404E+04 E0= -.23426404E+04  d E =-.157666E-03  mag=     4.0000
       N       E                     dE             d eps       ncg     rms          rms(c)
DAV:   1    -0.232129747964E+04   -0.14067E-04   -0.31656E-02  4528   0.163E-01    0.581E-02
RMM:   2    -0.232129768687E+04   -0.20723E-03   -0.22247E-03  6160   0.344E-02    0.334E-02
RMM:   3    -0.232129771102E+04   -0.24156E-04   -0.18622E-04  3132   0.119E-02    0.480E-02
RMM:   4    -0.232129768313E+04    0.27893E-04   -0.28716E-05  2958   0.458E-03    0.172E-02
RMM:   5    -0.232129768583E+04   -0.26954E-05   -0.18637E-05  2910   0.328E-03
 198 F= -.23426405E+04 E0= -.23426405E+04  d E =-.141957E-03  mag=     4.0000
       N       E                     dE             d eps       ncg     rms          rms(c)
DAV:   1    -0.232129765437E+04    0.28766E-04   -0.14285E-02  4544   0.110E-01    0.397E-02
RMM:   2    -0.232129774883E+04   -0.94468E-04   -0.10141E-03  5931   0.239E-02    0.233E-02
RMM:   3    -0.232129776054E+04   -0.11703E-04   -0.90238E-05  2967   0.848E-03    0.328E-02
RMM:   4    -0.232129774721E+04    0.13327E-04   -0.13690E-05  2927   0.340E-03    0.118E-02
RMM:   5    -0.232129774869E+04   -0.14835E-05   -0.91157E-06  2872   0.229E-03
 199 F= -.23426405E+04 E0= -.23426405E+04  d E =-.153283E-03  mag=     4.0000
       N       E                     dE             d eps       ncg     rms          rms(c)
DAV:   1    -0.232129774712E+04    0.92317E-07   -0.33246E-02  4528   0.163E-01    0.567E-02
RMM:   2    -0.232129795513E+04   -0.20801E-03   -0.22159E-03  6151   0.339E-02    0.340E-02
RMM:   3    -0.232129797744E+04   -0.22315E-04   -0.17613E-04  3089   0.114E-02    0.467E-02
RMM:   4    -0.232129795060E+04    0.26849E-04   -0.27944E-05  2969   0.453E-03    0.170E-02
RMM:   5    -0.232129795337E+04   -0.27734E-05   -0.18425E-05  2899   0.323E-03
 200 F= -.23426406E+04 E0= -.23426406E+04  d E =-.134517E-03  mag=     4.0000
       N       E                     dE             d eps       ncg     rms          rms(c)
DAV:   1    -0.232129788793E+04    0.62665E-04   -0.23173E-02  4528   0.136E-01    0.481E-02
RMM:   2    -0.232129803739E+04   -0.14946E-03   -0.15720E-03  6077   0.291E-02    0.323E-02
RMM:   3    -0.232129805178E+04   -0.14392E-04   -0.12705E-04  3042   0.959E-03    0.412E-02
RMM:   4    -0.232129803061E+04    0.21172E-04   -0.19398E-05  2942   0.399E-03    0.129E-02
RMM:   5    -0.232129803157E+04   -0.95938E-06   -0.13158E-05  2904   0.293E-03
 201 F= -.23426407E+04 E0= -.23426407E+04  d E =-.153947E-03  mag=     4.0000
