       N       E                     dE             d eps       ncg     rms          rms(c)
DAV:   1     0.127033969490E+05    0.12703E+05   -0.83247E+05  4464   0.144E+03
DAV:   2    -0.107819295722E+04   -0.13782E+05   -0.13210E+05  5328   0.330E+02
DAV:   3    -0.247363569732E+04   -0.13954E+04   -0.13825E+04  5352   0.110E+02
DAV:   4    -0.251861388338E+04   -0.44978E+02   -0.44728E+02  6648   0.295E+01
DAV:   5    -0.251950277721E+04   -0.88889E+00   -0.88730E+00  5640   0.328E+00    0.170E+02
RMM:   6    -0.147898318376E+04    0.10405E+04   -0.19397E+03  4398   0.387E+01    0.735E+01
RMM:   7    -0.165658772390E+04   -0.17760E+03   -0.27861E+02  4940   0.138E+01    0.536E+01
RMM:   8    -0.170163332102E+04   -0.45046E+02   -0.71073E+01  5188   0.782E+00    0.411E+01
RMM:   9    -0.178537293037E+04   -0.83740E+02   -0.63223E+01  4994   0.656E+00    0.388E+01
RMM:  10    -0.190154077935E+04   -0.11617E+03   -0.54968E+01  5067   0.723E+00    0.235E+01
RMM:  11    -0.199697452694E+04   -0.95434E+02   -0.45118E+01  5102   0.560E+00    0.182E+01
RMM:  12    -0.207951704917E+04   -0.82543E+02   -0.31671E+01  4575   0.445E+00    0.136E+01
RMM:  13    -0.221444307812E+04   -0.13493E+03   -0.10706E+02  4472   0.750E+00    0.110E+01
RMM:  14    -0.227793358155E+04   -0.63491E+02   -0.54960E+01  4510   0.527E+00    0.644E+00
RMM:  15    -0.229965391000E+04   -0.21720E+02   -0.20496E+01  4824   0.357E+00    0.379E+00
RMM:  16    -0.230767691935E+04   -0.80230E+01   -0.77422E+00  4742   0.199E+00    0.304E+00
RMM:  17    -0.230935280991E+04   -0.16759E+01   -0.14117E+00  5050   0.948E-01    0.586E+00
RMM:  18    -0.230950327751E+04   -0.15047E+00   -0.20870E-01  5736   0.308E-01    0.596E+00
RMM:  19    -0.230955712622E+04   -0.53849E-01   -0.28096E-02  5188   0.106E-01    0.576E+00
RMM:  20    -0.230958014390E+04   -0.23018E-01   -0.41157E-03  4922   0.436E-02    0.563E+00
RMM:  21    -0.231054280117E+04   -0.96266E+00   -0.85694E-01  4470   0.461E-01    0.170E+00
RMM:  22    -0.231129968516E+04   -0.75688E+00   -0.51228E-01  4511   0.390E-01    0.119E+00
RMM:  23    -0.231165996342E+04   -0.36028E+00   -0.24810E-01  4538   0.245E-01    0.383E-01
RMM:  24    -0.231177620821E+04   -0.11624E+00   -0.81620E-02  4569   0.160E-01    0.387E-01
RMM:  25    -0.231182087071E+04   -0.44662E-01   -0.43186E-02  4611   0.112E-01    0.174E-01
RMM:  26    -0.231184451852E+04   -0.23648E-01   -0.11231E-02  4553   0.774E-02    0.170E-01
RMM:  27    -0.231185719247E+04   -0.12674E-01   -0.41517E-03  4600   0.395E-02    0.201E-01
RMM:  28    -0.231186683170E+04   -0.96392E-02   -0.29437E-03  4422   0.390E-02    0.803E-02
RMM:  29    -0.231187031580E+04   -0.34841E-02   -0.10174E-03  4481   0.247E-02    0.590E-02
RMM:  30    -0.231187195480E+04   -0.16390E-02   -0.30402E-04  4080   0.121E-02    0.429E-02
RMM:  31    -0.231187353747E+04   -0.15827E-02   -0.27284E-04  3836   0.113E-02    0.379E-02
RMM:  32    -0.231187424343E+04   -0.70596E-03   -0.17777E-04  3778   0.995E-03    0.254E-02
RMM:  33    -0.231187444162E+04   -0.19819E-03   -0.48276E-05  3444   0.642E-03    0.160E-02
RMM:  34    -0.231187452725E+04   -0.85631E-04   -0.20930E-05  3034   0.389E-03    0.519E-03
RMM:  35    -0.231187456055E+04   -0.33299E-04   -0.81825E-06  2826   0.328E-03    0.299E-03
RMM:  36    -0.231187457300E+04   -0.12453E-04   -0.40279E-06  2472   0.225E-03    0.133E-03
RMM:  37    -0.231187457912E+04   -0.61138E-05   -0.22946E-06  2466   0.183E-03
   1 F= -.23323533E+04 E0= -.23323533E+04  d E =-.233235E+04  mag=     5.0000
       N       E                     dE             d eps       ncg     rms          rms(c)
DAV:   1    -0.231183230033E+04    0.42273E-01   -0.15575E+01  4880   0.315E+00    0.114E+00
RMM:   2    -0.231200495299E+04   -0.17265E+00   -0.18225E+00  5686   0.617E-01    0.105E+00
RMM:   3    -0.231202084024E+04   -0.15887E-01   -0.19225E-01  5161   0.284E-01    0.130E+00
RMM:   4    -0.231201268161E+04    0.81586E-02   -0.21161E-02  5258   0.631E-02    0.460E-01
RMM:   5    -0.231201059486E+04    0.20868E-02   -0.57173E-03  5173   0.423E-02    0.319E-01
RMM:   6    -0.231200984110E+04    0.75376E-03   -0.33917E-03  4903   0.329E-02    0.128E-01
RMM:   7    -0.231200970353E+04    0.13757E-03   -0.59216E-04  4849   0.212E-02    0.118E-01
RMM:   8    -0.231200958946E+04    0.11407E-03   -0.22453E-04  4030   0.921E-03    0.336E-02
RMM:   9    -0.231200957342E+04    0.16034E-04   -0.48006E-05  3065   0.683E-03    0.165E-02
RMM:  10    -0.231200957228E+04    0.11416E-05   -0.30740E-05  3076   0.483E-03
   2 F= -.23324865E+04 E0= -.23324865E+04  d E =-.133282E+00  mag=     5.0000
       N       E                     dE             d eps       ncg     rms          rms(c)
DAV:   1    -0.231200281842E+04    0.67550E-02   -0.12609E+00  4816   0.912E-01    0.316E-01
RMM:   2    -0.231201634042E+04   -0.13522E-01   -0.14479E-01  5677   0.176E-01    0.221E-01
RMM:   3    -0.231201750872E+04   -0.11683E-02   -0.14184E-02  4991   0.880E-02    0.305E-01
RMM:   4    -0.231201711320E+04    0.39552E-03   -0.16219E-03  4245   0.173E-02    0.136E-01
RMM:   5    -0.231201691738E+04    0.19582E-03   -0.43809E-04  4341   0.133E-02    0.898E-02
RMM:   6    -0.231201685854E+04    0.58840E-04   -0.23005E-04  4247   0.107E-02    0.363E-02
RMM:   7    -0.231201684823E+04    0.10315E-04   -0.35740E-05  3066   0.641E-03    0.156E-02
RMM:   8    -0.231201684656E+04    0.16627E-05   -0.13253E-05  2874   0.402E-03
   3 F= -.23324932E+04 E0= -.23324932E+04  d E =-.139981E+00  mag=     5.0000
       N       E                     dE             d eps       ncg     rms          rms(c)
DAV:   1    -0.231201393256E+04    0.29157E-02   -0.69688E+00  4552   0.199E+00    0.718E-01
RMM:   2    -0.231210978341E+04   -0.95851E-01   -0.98851E-01  5965   0.393E-01    0.752E-01
RMM:   3    -0.231211741713E+04   -0.76337E-02   -0.99645E-02  5285   0.168E-01    0.812E-01
RMM:   4    -0.231211438021E+04    0.30369E-02   -0.95284E-03  5093   0.364E-02    0.266E-01
RMM:   5    -0.231211375856E+04    0.62165E-03   -0.14890E-03  4286   0.182E-02    0.165E-01
RMM:   6    -0.231211364342E+04    0.11514E-03   -0.11796E-03  4376   0.171E-02    0.815E-02
RMM:   7    -0.231211365257E+04   -0.91542E-05   -0.27611E-04  3768   0.133E-02    0.813E-02
RMM:   8    -0.231211361450E+04    0.38077E-04   -0.68698E-05  3061   0.595E-03    0.119E-02
RMM:   9    -0.231211361359E+04    0.90784E-06   -0.14508E-05  2871   0.415E-03
   4 F= -.23325882E+04 E0= -.23325882E+04  d E =-.950143E-01  mag=     5.0000
       N       E                     dE             d eps       ncg     rms          rms(c)
DAV:   1    -0.231141028114E+04    0.70333E+00   -0.62823E+01  4440   0.600E+00    0.225E+00
RMM:   2    -0.231238373705E+04   -0.97346E+00   -0.94448E+00  6111   0.126E+00    0.350E+00
RMM:   3    -0.231233998124E+04    0.43756E-01   -0.73783E-01  5318   0.452E-01    0.176E+00
RMM:   4    -0.231232765702E+04    0.12324E-01   -0.80141E-02  5109   0.110E-01    0.715E-01
RMM:   5    -0.231232462019E+04    0.30368E-02   -0.16040E-02  4896   0.618E-02    0.405E-01
RMM:   6    -0.231232485320E+04   -0.23301E-03   -0.91706E-03  4699   0.501E-02    0.133E-01
RMM:   7    -0.231232496807E+04   -0.11487E-03   -0.14584E-03  4667   0.325E-02    0.144E-01
RMM:   8    -0.231232482418E+04    0.14390E-03   -0.33044E-04  4150   0.112E-02    0.399E-02
RMM:   9    -0.231232482871E+04   -0.45354E-05   -0.87210E-05  3214   0.821E-03
   5 F= -.23327924E+04 E0= -.23327924E+04  d E =-.299140E+00  mag=     5.0000
       N       E                     dE             d eps       ncg     rms          rms(c)
DAV:   1    -0.230806650389E+04    0.42583E+01   -0.25086E+02  4440   0.120E+01    0.489E+00
RMM:   2    -0.231319714829E+04   -0.51306E+01   -0.46766E+01  6202   0.288E+00    0.870E+00
RMM:   3    -0.231215758800E+04    0.10396E+01   -0.36040E+00  4960   0.928E-01    0.263E+00
RMM:   4    -0.231230137479E+04   -0.14379E+00   -0.39656E-01  4798   0.258E-01    0.148E+00
RMM:   5    -0.231232153092E+04   -0.20156E-01   -0.71646E-02  4818   0.146E-01    0.149E+00
RMM:   6    -0.231231902201E+04    0.25089E-02   -0.53116E-02  5161   0.114E-01    0.751E-01
RMM:   7    -0.231232085301E+04   -0.18310E-02   -0.19882E-02  4942   0.718E-02    0.689E-01
RMM:   8    -0.231231932780E+04    0.15252E-02   -0.54035E-03  4907   0.472E-02    0.241E-01
RMM:   9    -0.231231919642E+04    0.13138E-03   -0.11236E-03  4657   0.214E-02    0.958E-02
RMM:  10    -0.231231902253E+04    0.17389E-03   -0.38736E-04  4232   0.126E-02    0.320E-02
RMM:  11    -0.231231918502E+04   -0.16250E-03   -0.10358E-04  3657   0.801E-03    0.224E-02
RMM:  12    -0.231231938458E+04   -0.19956E-03   -0.86112E-05  3593   0.694E-03    0.156E-02
RMM:  13    -0.231231947833E+04   -0.93752E-04   -0.39974E-05  3219   0.581E-03    0.767E-03
RMM:  14    -0.231231954628E+04   -0.67949E-04   -0.29318E-05  3078   0.488E-03    0.678E-03
RMM:  15    -0.231231956507E+04   -0.18792E-04   -0.10073E-05  2840   0.413E-03    0.359E-03
RMM:  16    -0.231231957324E+04   -0.81635E-05   -0.60572E-06  2803   0.279E-03
   6 F= -.23327723E+04 E0= -.23327723E+04  d E =-.279061E+00  mag=     4.9999
       N       E                     dE             d eps       ncg     rms          rms(c)
DAV:   1    -0.231112221993E+04    0.11973E+01   -0.81685E+01  4416   0.682E+00    0.242E+00
RMM:   2    -0.231238828115E+04   -0.12661E+01   -0.13161E+01  6149   0.146E+00    0.196E+00
RMM:   3    -0.231243588151E+04   -0.47600E-01   -0.10060E+00  5816   0.491E-01    0.202E+00
RMM:   4    -0.231241588440E+04    0.19997E-01   -0.10345E-01  5657   0.112E-01    0.960E-01
RMM:   5    -0.231240617973E+04    0.97047E-02   -0.14115E-02  5144   0.559E-02    0.551E-01
RMM:   6    -0.231240180812E+04    0.43716E-02   -0.19795E-02  4780   0.661E-02    0.257E-01
RMM:   7    -0.231240164117E+04    0.16695E-03   -0.25537E-03  4661   0.416E-02    0.106E-01
RMM:   8    -0.231240168323E+04   -0.42052E-04   -0.55278E-04  4163   0.134E-02    0.447E-02
RMM:   9    -0.231240182100E+04   -0.13777E-03   -0.16848E-04  3549   0.970E-03    0.195E-02
RMM:  10    -0.231240192888E+04   -0.10789E-03   -0.51099E-05  3270   0.530E-03    0.178E-02
RMM:  11    -0.231240201362E+04   -0.84739E-04   -0.29797E-05  2963   0.475E-03    0.720E-03
RMM:  12    -0.231240205760E+04   -0.43980E-04   -0.21437E-05  2909   0.401E-03    0.438E-03
RMM:  13    -0.231240207326E+04   -0.15659E-04   -0.10155E-05  2829   0.374E-03    0.626E-03
RMM:  14    -0.231240208050E+04   -0.72424E-05   -0.65710E-06  2794   0.275E-03
   7 F= -.23328631E+04 E0= -.23328631E+04  d E =-.369870E+00  mag=     5.0000
       N       E                     dE             d eps       ncg     rms          rms(c)
DAV:   1    -0.231233885362E+04    0.63220E-01   -0.11604E+01  4480   0.240E+00    0.975E-01
RMM:   2    -0.231252863764E+04   -0.18978E+00   -0.18844E+00  5930   0.523E-01    0.135E+00
RMM:   3    -0.231253299392E+04   -0.43563E-02   -0.17232E-01  5391   0.207E-01    0.837E-01
RMM:   4    -0.231252979802E+04    0.31959E-02   -0.16622E-02  5063   0.478E-02    0.379E-01
RMM:   5    -0.231252854141E+04    0.12566E-02   -0.41329E-03  5013   0.298E-02    0.186E-01
RMM:   6    -0.231252838062E+04    0.16079E-03   -0.17475E-03  4694   0.216E-02    0.635E-02
RMM:   7    -0.231252841117E+04   -0.30553E-04   -0.31714E-04  3984   0.141E-02    0.662E-02
RMM:   8    -0.231252839982E+04    0.11345E-04   -0.64570E-05  2999   0.578E-03    0.138E-02
RMM:   9    -0.231252840568E+04   -0.58542E-05   -0.16307E-05  2887   0.393E-03
   8 F= -.23329867E+04 E0= -.23329867E+04  d E =-.123590E+00  mag=     5.0000
       N       E                     dE             d eps       ncg     rms          rms(c)
DAV:   1    -0.231120128793E+04    0.13271E+01   -0.86676E+01  4424   0.655E+00    0.283E+00
RMM:   2    -0.231285534047E+04   -0.16541E+01   -0.15260E+01  6068   0.153E+00    0.529E+00
RMM:   3    -0.231269540270E+04    0.15994E+00   -0.11627E+00  5162   0.521E-01    0.150E+00
RMM:   4    -0.231268915313E+04    0.62496E-02   -0.13333E-01  5004   0.132E-01    0.896E-01
RMM:   5    -0.231268620195E+04    0.29512E-02   -0.29443E-02  4888   0.821E-02    0.543E-01
RMM:   6    -0.231268513444E+04    0.10675E-02   -0.11965E-02  5033   0.614E-02    0.314E-01
RMM:   7    -0.231268477714E+04    0.35729E-03   -0.20751E-03  5164   0.298E-02    0.914E-02
RMM:   8    -0.231268479807E+04   -0.20921E-04   -0.32849E-04  3904   0.108E-02    0.586E-02
RMM:   9    -0.231268482930E+04   -0.31239E-04   -0.11385E-04  3203   0.733E-03    0.280E-02
RMM:  10    -0.231268485139E+04   -0.22082E-04   -0.28189E-05  2914   0.473E-03    0.954E-03
RMM:  11    -0.231268486730E+04   -0.15913E-04   -0.93883E-06  2843   0.359E-03    0.630E-03
RMM:  12    -0.231268488173E+04   -0.14432E-04   -0.73940E-06  2828   0.303E-03    0.451E-03
RMM:  13    -0.231268489171E+04   -0.99760E-05   -0.50165E-06  2807   0.268E-03
   9 F= -.23331362E+04 E0= -.23331362E+04  d E =-.273118E+00  mag=     5.0000
       N       E                     dE             d eps       ncg     rms          rms(c)
DAV:   1    -0.231270478441E+04   -0.19903E-01   -0.37069E+00  4528   0.173E+00    0.794E-01
RMM:   2    -0.231275936384E+04   -0.54579E-01   -0.59583E-01  5755   0.351E-01    0.472E-01
RMM:   3    -0.231276687751E+04   -0.75137E-02   -0.77960E-02  5258   0.154E-01    0.754E-01
RMM:   4    -0.231276382610E+04    0.30514E-02   -0.71847E-03  5477   0.356E-02    0.268E-01
RMM:   5    -0.231276315354E+04    0.67256E-03   -0.21963E-03  5083   0.250E-02    0.985E-02
RMM:   6    -0.231276307845E+04    0.75088E-04   -0.48589E-04  4639   0.150E-02    0.530E-02
RMM:   7    -0.231276306750E+04    0.10952E-04   -0.11823E-04  3533   0.852E-03    0.174E-02
RMM:   8    -0.231276307020E+04   -0.26991E-05   -0.25547E-05  2923   0.531E-03
  10 F= -.23332133E+04 E0= -.23332133E+04  d E =-.771179E-01  mag=     5.0000
       N       E                     dE             d eps       ncg     rms          rms(c)
DAV:   1    -0.231268884547E+04    0.74222E-01   -0.74040E+00  4448   0.244E+00    0.113E+00
RMM:   2    -0.231279803896E+04   -0.10919E+00   -0.11902E+00  5767   0.494E-01    0.690E-01
RMM:   3    -0.231281316113E+04   -0.15122E-01   -0.15289E-01  5229   0.218E-01    0.114E+00
RMM:   4    -0.231280618641E+04    0.69747E-02   -0.14617E-02  5729   0.511E-02    0.374E-01
RMM:   5    -0.231280492232E+04    0.12641E-02   -0.47853E-03  5136   0.355E-02    0.152E-01
RMM:   6    -0.231280474217E+04    0.18015E-03   -0.12015E-03  4993   0.212E-02    0.742E-02
RMM:   7    -0.231280471859E+04    0.23583E-04   -0.27983E-04  4067   0.121E-02    0.291E-02
RMM:   8    -0.231280472628E+04   -0.76902E-05   -0.61921E-05  3188   0.703E-03
  11 F= -.23332535E+04 E0= -.23332535E+04  d E =-.117291E+00  mag=     5.0000
       N       E                     dE             d eps       ncg     rms          rms(c)
DAV:   1    -0.231282289342E+04   -0.18175E-01   -0.19727E+00  4744   0.121E+00    0.451E-01
RMM:   2    -0.231283980128E+04   -0.16908E-01   -0.18199E-01  5598   0.219E-01    0.404E-01
RMM:   3    -0.231284121681E+04   -0.14155E-02   -0.17986E-02  5056   0.917E-02    0.503E-01
RMM:   4    -0.231283964140E+04    0.15754E-02   -0.20520E-03  4971   0.237E-02    0.133E-01
RMM:   5    -0.231283934708E+04    0.29432E-03   -0.88508E-04  4834   0.184E-02    0.736E-02
RMM:   6    -0.231283929901E+04    0.48066E-04   -0.28405E-04  4363   0.121E-02    0.582E-02
RMM:   7    -0.231283927390E+04    0.25119E-04   -0.56042E-05  3053   0.682E-03    0.140E-02
RMM:   8    -0.231283927105E+04    0.28461E-05   -0.12072E-05  2891   0.388E-03
  12 F= -.23332876E+04 E0= -.23332876E+04  d E =-.341304E-01  mag=     5.0000
       N       E                     dE             d eps       ncg     rms          rms(c)
DAV:   1    -0.231283777886E+04    0.14950E-02   -0.12111E+00  4672   0.945E-01    0.352E-01
RMM:   2    -0.231284801925E+04   -0.10240E-01   -0.11054E-01  5557   0.170E-01    0.310E-01
RMM:   3    -0.231284890841E+04   -0.88916E-03   -0.11136E-02  4977   0.722E-02    0.388E-01
RMM:   4    -0.231284797644E+04    0.93197E-03   -0.12750E-03  4694   0.185E-02    0.105E-01
RMM:   5    -0.231284779046E+04    0.18598E-03   -0.54129E-04  4512   0.147E-02    0.626E-02
RMM:   6    -0.231284775534E+04    0.35125E-04   -0.19021E-04  4110   0.102E-02    0.528E-02
RMM:   7    -0.231284773424E+04    0.21098E-04   -0.40414E-05  2962   0.638E-03    0.126E-02
RMM:   8    -0.231284773179E+04    0.24539E-05   -0.95408E-06  2867   0.353E-03
  13 F= -.23332958E+04 E0= -.23332958E+04  d E =-.422954E-01  mag=     5.0000
       N       E                     dE             d eps       ncg     rms          rms(c)
DAV:   1    -0.231284751267E+04    0.22157E-03   -0.21901E+00  4448   0.135E+00    0.477E-01
RMM:   2    -0.231287517179E+04   -0.27659E-01   -0.26047E-01  5604   0.246E-01    0.810E-01
RMM:   3    -0.231287274857E+04    0.24232E-02   -0.21850E-02  4980   0.959E-02    0.348E-01
RMM:   4    -0.231287215761E+04    0.59097E-03   -0.27400E-03  4738   0.235E-02    0.129E-01
RMM:   5    -0.231287196813E+04    0.18948E-03   -0.41520E-04  4528   0.165E-02    0.102E-01
RMM:   6    -0.231287189976E+04    0.68372E-04   -0.34479E-04  4188   0.138E-02    0.218E-02
RMM:   7    -0.231287190050E+04   -0.74069E-06   -0.38809E-05  2940   0.782E-03
  14 F= -.23333196E+04 E0= -.23333196E+04  d E =-.237566E-01  mag=     5.0000
       N       E                     dE             d eps       ncg     rms          rms(c)
DAV:   1    -0.231286328926E+04    0.86105E-02   -0.12792E+00  4528   0.103E+00    0.365E-01
RMM:   2    -0.231287939044E+04   -0.16101E-01   -0.15175E-01  5571   0.189E-01    0.617E-01
RMM:   3    -0.231287802096E+04    0.13695E-02   -0.12463E-02  4940   0.713E-02    0.269E-01
RMM:   4    -0.231287765763E+04    0.36333E-03   -0.15977E-03  4546   0.181E-02    0.100E-01
RMM:   5    -0.231287754667E+04    0.11096E-03   -0.23755E-04  4187   0.127E-02    0.782E-02
RMM:   6    -0.231287750835E+04    0.38323E-04   -0.19634E-04  3979   0.110E-02    0.163E-02
RMM:   7    -0.231287751020E+04   -0.18493E-05   -0.22303E-05  2895   0.648E-03
  15 F= -.23333249E+04 E0= -.23333249E+04  d E =-.290582E-01  mag=     5.0000
       N       E                     dE             d eps       ncg     rms          rms(c)
DAV:   1    -0.231286131873E+04    0.16190E-01   -0.21473E+00  4448   0.131E+00    0.548E-01
RMM:   2    -0.231289869622E+04   -0.37377E-01   -0.33064E-01  5713   0.268E-01    0.111E+00
RMM:   3    -0.231289231620E+04    0.63800E-02   -0.26662E-02  5148   0.971E-02    0.318E-01
RMM:   4    -0.231289184001E+04    0.47619E-03   -0.32322E-03  4690   0.241E-02    0.128E-01
RMM:   5    -0.231289158689E+04    0.25313E-03   -0.63525E-04  4910   0.177E-02    0.117E-01
RMM:   6    -0.231289147812E+04    0.10876E-03   -0.46624E-04  4505   0.137E-02    0.309E-02
RMM:   7    -0.231289147799E+04    0.13137E-06   -0.41539E-05  2934   0.705E-03
  16 F= -.23333382E+04 E0= -.23333382E+04  d E =-.133326E-01  mag=     5.0000
       N       E                     dE             d eps       ncg     rms          rms(c)
DAV:   1    -0.231287468681E+04    0.16791E-01   -0.14269E+00  4480   0.107E+00    0.450E-01
RMM:   2    -0.231290011332E+04   -0.25427E-01   -0.22056E-01  5726   0.221E-01    0.945E-01
RMM:   3    -0.231289526381E+04    0.48495E-02   -0.17621E-02  5127   0.778E-02    0.241E-01
RMM:   4    -0.231289497452E+04    0.28929E-03   -0.21938E-03  4566   0.199E-02    0.107E-01
RMM:   5    -0.231289479479E+04    0.17972E-03   -0.43646E-04  4633   0.149E-02    0.101E-01
RMM:   6    -0.231289471218E+04    0.82611E-04   -0.32823E-04  4338   0.120E-02    0.315E-02
RMM:   7    -0.231289471567E+04   -0.34868E-05   -0.31205E-05  2901   0.647E-03
  17 F= -.23333409E+04 E0= -.23333409E+04  d E =-.160531E-01  mag=     5.0000
       N       E                     dE             d eps       ncg     rms          rms(c)
DAV:   1    -0.231285495336E+04    0.39759E-01   -0.31071E+00  4448   0.156E+00    0.649E-01
RMM:   2    -0.231291937214E+04   -0.64419E-01   -0.56152E-01  5992   0.340E-01    0.141E+00
RMM:   3    -0.231290879274E+04    0.10579E-01   -0.47407E-02  5328   0.112E-01    0.307E-01
RMM:   4    -0.231290863299E+04    0.15975E-03   -0.54724E-03  4796   0.270E-02    0.149E-01
RMM:   5    -0.231290842238E+04    0.21061E-03   -0.57736E-04  4679   0.166E-02    0.176E-01
RMM:   6    -0.231290820009E+04    0.22229E-03   -0.93252E-04  4714   0.174E-02    0.607E-02
RMM:   7    -0.231290819354E+04    0.65540E-05   -0.75147E-05  2961   0.872E-03
  18 F= -.23333536E+04 E0= -.23333536E+04  d E =-.126441E-01  mag=     5.0000
       N       E                     dE             d eps       ncg     rms          rms(c)
DAV:   1    -0.231277161851E+04    0.13658E+00   -0.82560E+00  4432   0.255E+00    0.107E+00
RMM:   2    -0.231294912810E+04   -0.17751E+00   -0.15258E+00  6045   0.567E-01    0.238E+00
RMM:   3    -0.231291553803E+04    0.33590E-01   -0.12893E-01  5364   0.180E-01    0.459E-01
RMM:   4    -0.231291534405E+04    0.19398E-03   -0.14823E-02  4828   0.438E-02    0.258E-01
RMM:   5    -0.231291487183E+04    0.47223E-03   -0.15687E-03  5081   0.270E-02    0.319E-01
RMM:   6    -0.231291409556E+04    0.77627E-03   -0.27483E-03  5003   0.281E-02    0.118E-01
RMM:   7    -0.231291408738E+04    0.81774E-05   -0.22403E-04  3622   0.127E-02    0.426E-02
RMM:   8    -0.231291417182E+04   -0.84436E-04   -0.57853E-05  2958   0.496E-03    0.233E-02
RMM:   9    -0.231291421911E+04   -0.47298E-04   -0.30852E-05  2898   0.378E-03    0.707E-03
RMM:  10    -0.231291422894E+04   -0.98303E-05   -0.86158E-06  2833   0.280E-03
  19 F= -.23333582E+04 E0= -.23333582E+04  d E =-.172488E-01  mag=     5.0000
       N       E                     dE             d eps       ncg     rms          rms(c)
DAV:   1    -0.231290404405E+04    0.10175E-01   -0.62100E-01  4544   0.697E-01    0.279E-01
RMM:   2    -0.231291639989E+04   -0.12356E-01   -0.10914E-01  5974   0.147E-01    0.581E-01
RMM:   3    -0.231291475154E+04    0.16484E-02   -0.83567E-03  4858   0.498E-02    0.145E-01
RMM:   4    -0.231291468410E+04    0.67437E-04   -0.10290E-03  4017   0.122E-02    0.766E-02
RMM:   5    -0.231291464196E+04    0.42140E-04   -0.12072E-04  3441   0.802E-03    0.780E-02
RMM:   6    -0.231291460285E+04    0.39115E-04   -0.17645E-04  3634   0.876E-03    0.239E-02
RMM:   7    -0.231291460198E+04    0.86406E-06   -0.15435E-05  2871   0.496E-03
  20 F= -.23333589E+04 E0= -.23333589E+04  d E =-.180241E-01  mag=     5.0000
       N       E                     dE             d eps       ncg     rms          rms(c)
DAV:   1    -0.231285463215E+04    0.59971E-01   -0.45355E+00  4432   0.177E+00    0.721E-01
RMM:   2    -0.231293768070E+04   -0.83049E-01   -0.74604E-01  6047   0.387E-01    0.145E+00
RMM:   3    -0.231292895927E+04    0.87214E-02   -0.68151E-02  5254   0.132E-01    0.424E-01
RMM:   4    -0.231292821265E+04    0.74662E-03   -0.73810E-03  4957   0.305E-02    0.165E-01
RMM:   5    -0.231292789307E+04    0.31958E-03   -0.65683E-04  4696   0.174E-02    0.173E-01
RMM:   6    -0.231292763395E+04    0.25912E-03   -0.11200E-03  4712   0.196E-02    0.582E-02
RMM:   7    -0.231292762703E+04    0.69237E-05   -0.10704E-04  3242   0.102E-02    0.325E-02
RMM:   8    -0.231292762655E+04    0.47599E-06   -0.21999E-05  2875   0.356E-03
  21 F= -.23333711E+04 E0= -.23333711E+04  d E =-.121103E-01  mag=     5.0000
       N       E                     dE             d eps       ncg     rms          rms(c)
DAV:   1    -0.231291671570E+04    0.10911E-01   -0.77400E-01  4560   0.732E-01    0.302E-01
RMM:   2    -0.231293135610E+04   -0.14640E-01   -0.12813E-01  6041   0.160E-01    0.646E-01
RMM:   3    -0.231292935423E+04    0.20019E-02   -0.10746E-02  4927   0.544E-02    0.160E-01
RMM:   4    -0.231292927442E+04    0.79808E-04   -0.13070E-03  4072   0.128E-02    0.705E-02
RMM:   5    -0.231292921928E+04    0.55135E-04   -0.10843E-04  3362   0.785E-03    0.802E-02
RMM:   6    -0.231292916661E+04    0.52680E-04   -0.22499E-04  3915   0.975E-03    0.321E-02
RMM:   7    -0.231292916361E+04    0.29951E-05   -0.21052E-05  2882   0.552E-03
  22 F= -.23333722E+04 E0= -.23333722E+04  d E =-.132520E-01  mag=     5.0000
       N       E                     dE             d eps       ncg     rms          rms(c)
DAV:   1    -0.231288967763E+04    0.39489E-01   -0.27304E+00  4448   0.139E+00    0.590E-01
RMM:   2    -0.231294349650E+04   -0.53819E-01   -0.47376E-01  6010   0.305E-01    0.124E+00
RMM:   3    -0.231293674992E+04    0.67466E-02   -0.41630E-02  5183   0.114E-01    0.370E-01
RMM:   4    -0.231293595676E+04    0.79316E-03   -0.51366E-03  4965   0.267E-02    0.174E-01
RMM:   5    -0.231293559579E+04    0.36097E-03   -0.60142E-04  4595   0.165E-02    0.138E-01
RMM:   6    -0.231293543028E+04    0.16551E-03   -0.74276E-04  4474   0.159E-02    0.688E-02
RMM:   7    -0.231293543832E+04   -0.80386E-05   -0.69112E-05  2961   0.854E-03
  23 F= -.23333779E+04 E0= -.23333779E+04  d E =-.572853E-02  mag=     5.0000
       N       E                     dE             d eps       ncg     rms          rms(c)
DAV:   1    -0.231293543257E+04   -0.22933E-05   -0.77545E-04  4952   0.234E-02    0.157E-02
RMM:   2    -0.231293545159E+04   -0.19022E-04   -0.12466E-04  3134   0.586E-03    0.285E-02
RMM:   3    -0.231293544880E+04    0.27900E-05   -0.14118E-05  2853   0.353E-03
  24 F= -.23333779E+04 E0= -.23333779E+04  d E =-.574836E-02  mag=     5.0000
       N       E                     dE             d eps       ncg     rms          rms(c)
DAV:   1    -0.231291380341E+04    0.21648E-01   -0.19154E+00  4448   0.117E+00    0.451E-01
RMM:   2    -0.231294522062E+04   -0.31417E-01   -0.28375E-01  5954   0.243E-01    0.871E-01
RMM:   3    -0.231294249403E+04    0.27266E-02   -0.22624E-02  5110   0.871E-02    0.303E-01
RMM:   4    -0.231294202106E+04    0.47297E-03   -0.29561E-03  4848   0.209E-02    0.170E-01
RMM:   5    -0.231294181606E+04    0.20499E-03   -0.39051E-04  4234   0.131E-02    0.119E-01
RMM:   6    -0.231294172931E+04    0.86755E-04   -0.45468E-04  4161   0.127E-02    0.445E-02
RMM:   7    -0.231294174389E+04   -0.14587E-04   -0.49082E-05  2900   0.694E-03    0.353E-02
RMM:   8    -0.231294174610E+04   -0.22107E-05   -0.22941E-05  2869   0.318E-03
  25 F= -.23333838E+04 E0= -.23333838E+04  d E =-.588467E-02  mag=     5.0000
       N       E                     dE             d eps       ncg     rms          rms(c)
DAV:   1    -0.231290313969E+04    0.38604E-01   -0.27986E+00  4432   0.142E+00    0.546E-01
RMM:   2    -0.231294932263E+04   -0.46183E-01   -0.41370E-01  5928   0.293E-01    0.108E+00
RMM:   3    -0.231294505187E+04    0.42708E-02   -0.33494E-02  5160   0.109E-01    0.361E-01
RMM:   4    -0.231294442207E+04    0.62980E-03   -0.43651E-03  4958   0.253E-02    0.216E-01
RMM:   5    -0.231294411590E+04    0.30617E-03   -0.59711E-04  4520   0.159E-02    0.155E-01
RMM:   6    -0.231294396652E+04    0.14938E-03   -0.71731E-04  4322   0.153E-02    0.563E-02
RMM:   7    -0.231294399456E+04   -0.28042E-04   -0.79116E-05  2930   0.803E-03    0.448E-02
RMM:   8    -0.231294399839E+04   -0.38334E-05   -0.34502E-05  2882   0.375E-03
  26 F= -.23333856E+04 E0= -.23333856E+04  d E =-.761547E-02  mag=     5.0000
       N       E                     dE             d eps       ncg     rms          rms(c)
DAV:   1    -0.231293842272E+04    0.55718E-02   -0.62890E-01  4448   0.691E-01    0.279E-01
RMM:   2    -0.231295023908E+04   -0.11816E-01   -0.94359E-02  5829   0.141E-01    0.682E-01
RMM:   3    -0.231294789383E+04    0.23453E-02   -0.75608E-03  4838   0.553E-02    0.147E-01
RMM:   4    -0.231294785804E+04    0.35788E-04   -0.11233E-03  3946   0.127E-02    0.132E-01
RMM:   5    -0.231294775273E+04    0.10531E-03   -0.21787E-04  3660   0.960E-03    0.907E-02
RMM:   6    -0.231294771716E+04    0.35563E-04   -0.22106E-04  3241   0.849E-03    0.484E-02
RMM:   7    -0.231294771655E+04    0.61456E-06   -0.24661E-05  2860   0.493E-03
  27 F= -.23333890E+04 E0= -.23333890E+04  d E =-.344022E-02  mag=     5.0000
       N       E                     dE             d eps       ncg     rms          rms(c)
DAV:   1    -0.231287080087E+04    0.76916E-01   -0.56588E+00  4416   0.208E+00    0.817E-01
RMM:   2    -0.231297172393E+04   -0.10092E+00   -0.83749E-01  5795   0.420E-01    0.185E+00
RMM:   3    -0.231295649858E+04    0.15225E-01   -0.70775E-02  5045   0.170E-01    0.456E-01
RMM:   4    -0.231295591839E+04    0.58018E-03   -0.97787E-03  5100   0.378E-02    0.393E-01
RMM:   5    -0.231295487156E+04    0.10468E-02   -0.19563E-03  5000   0.270E-02    0.264E-01
RMM:   6    -0.231295450285E+04    0.36871E-03   -0.20292E-03  4683   0.222E-02    0.126E-01
RMM:   7    -0.231295460502E+04   -0.10216E-03   -0.22153E-04  3269   0.100E-02    0.510E-02
RMM:   8    -0.231295467031E+04   -0.65290E-04   -0.77552E-05  3010   0.545E-03    0.312E-02
RMM:   9    -0.231295468358E+04   -0.13269E-04   -0.20946E-05  2870   0.387E-03    0.712E-03
RMM:  10    -0.231295469102E+04   -0.74446E-05   -0.60933E-06  2851   0.284E-03
  28 F= -.23333951E+04 E0= -.23333951E+04  d E =-.956322E-02  mag=     5.0000
       N       E                     dE             d eps       ncg     rms          rms(c)
DAV:   1    -0.231293846801E+04    0.16216E-01   -0.11704E+00  4448   0.945E-01    0.370E-01
RMM:   2    -0.231295929008E+04   -0.20822E-01   -0.17335E-01  5851   0.193E-01    0.839E-01
RMM:   3    -0.231295599150E+04    0.32986E-02   -0.13766E-02  4969   0.753E-02    0.203E-01
RMM:   4    -0.231295587404E+04    0.11746E-03   -0.20069E-03  4562   0.173E-02    0.169E-01
RMM:   5    -0.231295570553E+04    0.16851E-03   -0.34303E-04  4172   0.122E-02    0.116E-01
RMM:   6    -0.231295564353E+04    0.62001E-04   -0.39097E-04  3816   0.108E-02    0.577E-02
RMM:   7    -0.231295564317E+04    0.36752E-06   -0.38846E-05  2872   0.573E-03
  29 F= -.23333957E+04 E0= -.23333957E+04  d E =-.101194E-01  mag=     5.0000
       N       E                     dE             d eps       ncg     rms          rms(c)
DAV:   1    -0.231293327510E+04    0.22368E-01   -0.22007E+00  4448   0.120E+00    0.481E-01
RMM:   2    -0.231296932896E+04   -0.36054E-01   -0.30207E-01  5797   0.243E-01    0.106E+00
RMM:   3    -0.231296455327E+04    0.47757E-02   -0.24061E-02  5015   0.101E-01    0.267E-01
RMM:   4    -0.231296444221E+04    0.11105E-03   -0.35517E-03  4844   0.224E-02    0.238E-01
RMM:   5    -0.231296408313E+04    0.35908E-03   -0.71754E-04  4471   0.158E-02    0.148E-01
RMM:   6    -0.231296399320E+04    0.89928E-04   -0.59435E-04  4047   0.128E-02    0.734E-02
RMM:   7    -0.231296399625E+04   -0.30456E-05   -0.69829E-05  2897   0.636E-03
  30 F= -.23334035E+04 E0= -.23334035E+04  d E =-.787106E-02  mag=     5.0000
       N       E                     dE             d eps       ncg     rms          rms(c)
DAV:   1    -0.231269519449E+04    0.26880E+00   -0.19822E+01  4416   0.360E+00    0.137E+00
RMM:   2    -0.231298515265E+04   -0.28996E+00   -0.26826E+00  5854   0.721E-01    0.219E+00
RMM:   3    -0.231298173066E+04    0.34220E-02   -0.22624E-01  5277   0.289E-01    0.103E+00
RMM:   4    -0.231297545175E+04    0.62789E-02   -0.28263E-02  5297   0.676E-02    0.537E-01
RMM:   5    -0.231297287708E+04    0.25747E-02   -0.54338E-03  5093   0.410E-02    0.266E-01
RMM:   6    -0.231297254758E+04    0.32950E-03   -0.26175E-03  4896   0.289E-02    0.865E-02
RMM:   7    -0.231297265565E+04   -0.10807E-03   -0.46010E-04  4121   0.151E-02    0.767E-02
RMM:   8    -0.231297267234E+04   -0.16686E-04   -0.11127E-04  3336   0.795E-03    0.215E-02
RMM:   9    -0.231297269063E+04   -0.18295E-04   -0.28279E-05  2900   0.508E-03    0.920E-03
RMM:  10    -0.231297269838E+04   -0.77493E-05   -0.94074E-06  2852   0.346E-03
  31 F= -.23334108E+04 E0= -.23334108E+04  d E =-.151358E-01  mag=     5.0000
       N       E                     dE             d eps       ncg     rms          rms(c)
DAV:   1    -0.231295427152E+04    0.18419E-01   -0.13720E+00  4464   0.949E-01    0.374E-01
RMM:   2    -0.231297567540E+04   -0.21404E-01   -0.19125E-01  5933   0.196E-01    0.735E-01
RMM:   3    -0.231297334599E+04    0.23294E-02   -0.15935E-02  5114   0.700E-02    0.214E-01
RMM:   4    -0.231297326975E+04    0.76244E-04   -0.20446E-03  4435   0.171E-02    0.129E-01
RMM:   5    -0.231297320922E+04    0.60529E-04   -0.26299E-04  3909   0.109E-02    0.775E-02
RMM:   6    -0.231297319329E+04    0.15932E-04   -0.25689E-04  3894   0.995E-03    0.331E-02
RMM:   7    -0.231297319431E+04   -0.10216E-05   -0.26756E-05  2877   0.550E-03
  32 F= -.23334117E+04 E0= -.23334117E+04  d E =-.160086E-01  mag=     5.0000
       N       E                     dE             d eps       ncg     rms          rms(c)
DAV:   1    -0.231294389209E+04    0.29301E-01   -0.32008E+00  4448   0.132E+00    0.515E-01
RMM:   2    -0.231298476671E+04   -0.40875E-01   -0.38888E-01  5870   0.265E-01    0.758E-01
RMM:   3    -0.231298482101E+04   -0.54296E-04   -0.29365E-02  5233   0.106E-01    0.412E-01
RMM:   4    -0.231298386699E+04    0.95402E-03   -0.38850E-03  4898   0.246E-02    0.227E-01
RMM:   5    -0.231298345418E+04    0.41281E-03   -0.80329E-04  4427   0.148E-02    0.953E-02
RMM:   6    -0.231298341793E+04    0.36253E-04   -0.38031E-04  3896   0.115E-02    0.318E-02
RMM:   7    -0.231298342749E+04   -0.95654E-05   -0.57927E-05  2920   0.643E-03
  33 F= -.23334217E+04 E0= -.23334217E+04  d E =-.998864E-02  mag=     5.0000
       N       E                     dE             d eps       ncg     rms          rms(c)
DAV:   1    -0.231274314630E+04    0.24027E+00   -0.19868E+01  4416   0.328E+00    0.127E+00
RMM:   2    -0.231298376558E+04   -0.24062E+00   -0.23971E+00  6015   0.657E-01    0.133E+00
RMM:   3    -0.231300624310E+04   -0.22478E-01   -0.22054E-01  5516   0.253E-01    0.140E+00
RMM:   4    -0.231299392444E+04    0.12319E-01   -0.25972E-02  5564   0.635E-02    0.494E-01
RMM:   5    -0.231299201029E+04    0.19142E-02   -0.55792E-03  5070   0.331E-02    0.240E-01
RMM:   6    -0.231299164048E+04    0.36980E-03   -0.22687E-03  4831   0.251E-02    0.822E-02
RMM:   7    -0.231299161977E+04    0.20712E-04   -0.46260E-04  4084   0.156E-02    0.503E-02
RMM:   8    -0.231299163764E+04   -0.17873E-04   -0.10356E-04  3175   0.718E-03    0.182E-02
RMM:   9    -0.231299165399E+04   -0.16350E-04   -0.21355E-05  2898   0.472E-03    0.102E-02
RMM:  10    -0.231299166451E+04   -0.10516E-04   -0.10953E-05  2859   0.325E-03    0.540E-03
RMM:  11    -0.231299167219E+04   -0.76841E-05   -0.53739E-06  2831   0.272E-03
  34 F= -.23334293E+04 E0= -.23334293E+04  d E =-.176428E-01  mag=     5.0000
       N       E                     dE             d eps       ncg     rms          rms(c)
DAV:   1    -0.231292260372E+04    0.69061E-01   -0.63309E+00  4416   0.185E+00    0.770E-01
RMM:   2    -0.231299746236E+04   -0.74859E-01   -0.76300E-01  6051   0.377E-01    0.809E-01
RMM:   3    -0.231300452025E+04   -0.70579E-02   -0.80464E-02  5524   0.146E-01    0.847E-01
RMM:   4    -0.231300042292E+04    0.40973E-02   -0.82060E-03  5353   0.374E-02    0.268E-01
RMM:   5    -0.231299979291E+04    0.63001E-03   -0.21696E-03  4728   0.197E-02    0.112E-01
RMM:   6    -0.231299969943E+04    0.93482E-04   -0.57066E-04  4343   0.154E-02    0.361E-02
RMM:   7    -0.231299970765E+04   -0.82248E-05   -0.99293E-05  3220   0.796E-03
  35 F= -.23334375E+04 E0= -.23334375E+04  d E =-.814546E-02  mag=     5.0000
       N       E                     dE             d eps       ncg     rms          rms(c)
DAV:   1    -0.231299654811E+04    0.31513E-02   -0.26755E-01  4712   0.379E-01    0.161E-01
RMM:   2    -0.231299976048E+04   -0.32124E-02   -0.32788E-02  6145   0.794E-02    0.181E-01
RMM:   3    -0.231299996934E+04   -0.20887E-03   -0.31334E-03  4004   0.282E-02    0.161E-01
RMM:   4    -0.231299983769E+04    0.13166E-03   -0.34257E-04  3062   0.846E-03    0.525E-02
RMM:   5    -0.231299981608E+04    0.21610E-04   -0.80852E-05  2975   0.511E-03    0.270E-02
RMM:   6    -0.231299981348E+04    0.25912E-05   -0.32578E-05  2916   0.454E-03
  36 F= -.23334376E+04 E0= -.23334376E+04  d E =-.827834E-02  mag=     5.0000
       N       E                     dE             d eps       ncg     rms          rms(c)
DAV:   1    -0.231299902113E+04    0.79495E-03   -0.55366E-01  4448   0.694E-01    0.241E-01
RMM:   2    -0.231300565096E+04   -0.66298E-02   -0.67612E-02  5838   0.136E-01    0.265E-01
RMM:   3    -0.231300599808E+04   -0.34712E-03   -0.58088E-03  4971   0.492E-02    0.265E-01
RMM:   4    -0.231300555661E+04    0.44147E-03   -0.71807E-04  4139   0.129E-02    0.623E-02
RMM:   5    -0.231300549804E+04    0.58571E-04   -0.18135E-04  3775   0.903E-03    0.329E-02
RMM:   6    -0.231300548583E+04    0.12206E-04   -0.66783E-05  3478   0.758E-03    0.103E-02
RMM:   7    -0.231300548614E+04   -0.30440E-06   -0.11284E-05  2862   0.533E-03
  37 F= -.23334436E+04 E0= -.23334436E+04  d E =-.603450E-02  mag=     5.0000
       N       E                     dE             d eps       ncg     rms          rms(c)
DAV:   1    -0.231298299794E+04    0.22488E-01   -0.20387E+00  4432   0.133E+00    0.459E-01
RMM:   2    -0.231300709371E+04   -0.24096E-01   -0.24685E-01  5601   0.254E-01    0.495E-01
RMM:   3    -0.231300889147E+04   -0.17978E-02   -0.23288E-02  4989   0.102E-01    0.548E-01
RMM:   4    -0.231300705090E+04    0.18406E-02   -0.27351E-03  4947   0.245E-02    0.120E-01
RMM:   5    -0.231300684686E+04    0.20405E-03   -0.66470E-04  4844   0.161E-02    0.635E-02
RMM:   6    -0.231300679959E+04    0.47264E-04   -0.25725E-04  4347   0.120E-02    0.222E-02
RMM:   7    -0.231300679613E+04    0.34600E-05   -0.30382E-05  2933   0.728E-03
  38 F= -.23334456E+04 E0= -.23334456E+04  d E =-.801523E-02  mag=     5.0000
       N       E                     dE             d eps       ncg     rms          rms(c)
DAV:   1    -0.231300526989E+04    0.15297E-02   -0.21431E-01  4544   0.427E-01    0.150E-01
RMM:   2    -0.231300783986E+04   -0.25700E-02   -0.25602E-02  5849   0.838E-02    0.190E-01
RMM:   3    -0.231300789340E+04   -0.53539E-04   -0.23212E-03  4284   0.306E-02    0.155E-01
RMM:   4    -0.231300774973E+04    0.14368E-03   -0.26806E-04  3093   0.838E-03    0.383E-02
RMM:   5    -0.231300772958E+04    0.20146E-04   -0.73155E-05  3142   0.629E-03    0.201E-02
RMM:   6    -0.231300772753E+04    0.20524E-05   -0.21745E-05  2879   0.543E-03
  39 F= -.23334463E+04 E0= -.23334463E+04  d E =-.873273E-02  mag=     5.0000
       N       E                     dE             d eps       ncg     rms          rms(c)
DAV:   1    -0.231300540596E+04    0.23236E-02   -0.48987E-01  4448   0.690E-01    0.224E-01
RMM:   2    -0.231301194322E+04   -0.65373E-02   -0.62823E-02  5831   0.132E-01    0.339E-01
RMM:   3    -0.231301178903E+04    0.15418E-03   -0.53460E-03  4808   0.489E-02    0.197E-01
RMM:   4    -0.231301153520E+04    0.25383E-03   -0.64970E-04  4186   0.121E-02    0.628E-02
RMM:   5    -0.231301147317E+04    0.62032E-04   -0.14491E-04  4000   0.915E-03    0.358E-02
RMM:   6    -0.231301146110E+04    0.12070E-04   -0.67436E-05  3415   0.740E-03    0.160E-02
RMM:   7    -0.231301145945E+04    0.16556E-05   -0.13766E-05  2877   0.532E-03
  40 F= -.23334501E+04 E0= -.23334501E+04  d E =-.380695E-02  mag=     5.0000
       N       E                     dE             d eps       ncg     rms          rms(c)
DAV:   1    -0.231300785048E+04    0.36106E-02   -0.35895E-01  4464   0.591E-01    0.193E-01
RMM:   2    -0.231301271006E+04   -0.48596E-02   -0.46443E-02  5667   0.113E-01    0.301E-01
RMM:   3    -0.231301255830E+04    0.15177E-03   -0.39895E-03  4649   0.429E-02    0.164E-01
RMM:   4    -0.231301238274E+04    0.17555E-03   -0.48371E-04  3863   0.105E-02    0.544E-02
RMM:   5    -0.231301233630E+04    0.46443E-04   -0.10341E-04  3681   0.785E-03    0.313E-02
RMM:   6    -0.231301232680E+04    0.94990E-05   -0.49671E-05  3133   0.678E-03
  41 F= -.23334511E+04 E0= -.23334511E+04  d E =-.473537E-02  mag=     5.0000
       N       E                     dE             d eps       ncg     rms          rms(c)
DAV:   1    -0.231301109732E+04    0.12390E-02   -0.34467E-01  4544   0.560E-01    0.178E-01
RMM:   2    -0.231301528955E+04   -0.41922E-02   -0.37571E-02  5961   0.104E-01    0.338E-01
RMM:   3    -0.231301485143E+04    0.43812E-03   -0.36395E-03  4641   0.369E-02    0.104E-01
RMM:   4    -0.231301478201E+04    0.69420E-04   -0.38796E-04  3377   0.924E-03    0.490E-02
RMM:   5    -0.231301474965E+04    0.32361E-04   -0.96378E-05  3479   0.721E-03    0.396E-02
RMM:   6    -0.231301474248E+04    0.71703E-05   -0.47322E-05  2899   0.633E-03
  42 F= -.23334534E+04 E0= -.23334534E+04  d E =-.237371E-02  mag=     5.0000
       N       E                     dE             d eps       ncg     rms          rms(c)
DAV:   1    -0.231300732700E+04    0.74227E-02   -0.81637E-01  4448   0.861E-01    0.272E-01
RMM:   2    -0.231301705914E+04   -0.97321E-02   -0.88390E-02  5732   0.157E-01    0.492E-01
RMM:   3    -0.231301623433E+04    0.82482E-03   -0.87969E-03  4860   0.619E-02    0.167E-01
RMM:   4    -0.231301605567E+04    0.17866E-03   -0.92076E-04  4276   0.139E-02    0.772E-02
RMM:   5    -0.231301596978E+04    0.85889E-04   -0.22819E-04  4107   0.108E-02    0.553E-02
RMM:   6    -0.231301595478E+04    0.14999E-04   -0.10781E-04  3315   0.852E-03    0.297E-02
RMM:   7    -0.231301595057E+04    0.42051E-05   -0.19227E-05  2888   0.532E-03
  43 F= -.23334546E+04 E0= -.23334546E+04  d E =-.351225E-02  mag=     5.0000
       N       E                     dE             d eps       ncg     rms          rms(c)
DAV:   1    -0.231301498467E+04    0.97011E-03   -0.40904E-01  4480   0.633E-01    0.197E-01
RMM:   2    -0.231301792406E+04   -0.29394E-02   -0.29187E-02  5507   0.110E-01    0.228E-01
RMM:   3    -0.231301794744E+04   -0.23373E-04   -0.28637E-03  4600   0.451E-02    0.196E-01
RMM:   4    -0.231301768279E+04    0.26464E-03   -0.33738E-04  4231   0.113E-02    0.567E-02
RMM:   5    -0.231301764359E+04    0.39206E-04   -0.14065E-04  4023   0.923E-03    0.215E-02
RMM:   6    -0.231301764263E+04    0.96115E-06   -0.31634E-05  2943   0.628E-03
  44 F= -.23334561E+04 E0= -.23334561E+04  d E =-.148100E-02  mag=     5.0000
       N       E                     dE             d eps       ncg     rms          rms(c)
DAV:   1    -0.231301697820E+04    0.66539E-03   -0.11407E-01  4624   0.335E-01    0.105E-01
RMM:   2    -0.231301781682E+04   -0.83862E-03   -0.82796E-03  5862   0.603E-02    0.125E-01
RMM:   3    -0.231301781564E+04    0.11783E-05   -0.80858E-04  3770   0.217E-02    0.102E-01
RMM:   4    -0.231301774341E+04    0.72228E-04   -0.91123E-05  2968   0.663E-03    0.302E-02
RMM:   5    -0.231301773251E+04    0.10902E-04   -0.43348E-05  3004   0.543E-03    0.117E-02
RMM:   6    -0.231301773255E+04   -0.44703E-07   -0.10859E-05  2861   0.463E-03
  45 F= -.23334560E+04 E0= -.23334560E+04  d E =-.145855E-02  mag=     5.0000
       N       E                     dE             d eps       ncg     rms          rms(c)
DAV:   1    -0.231301805967E+04   -0.32716E-03   -0.40370E-01  4440   0.571E-01    0.145E-01
RMM:   2    -0.231301941600E+04   -0.13563E-02   -0.14435E-02  5163   0.888E-02    0.111E-01
RMM:   3    -0.231301949312E+04   -0.77120E-04   -0.10702E-03  4533   0.367E-02    0.175E-01
RMM:   4    -0.231301929822E+04    0.19490E-03   -0.17504E-04  3229   0.856E-03    0.458E-02
RMM:   5    -0.231301927832E+04    0.19901E-04   -0.10210E-04  3869   0.798E-03    0.184E-02
RMM:   6    -0.231301927849E+04   -0.16799E-06   -0.15922E-05  2865   0.616E-03
  46 F= -.23334574E+04 E0= -.23334574E+04  d E =-.138451E-02  mag=     5.0000
       N       E                     dE             d eps       ncg     rms          rms(c)
DAV:   1    -0.231301801333E+04    0.12650E-02   -0.64564E-01  4424   0.723E-01    0.183E-01
RMM:   2    -0.231302019412E+04   -0.21808E-02   -0.23253E-02  5162   0.112E-01    0.135E-01
RMM:   3    -0.231302029428E+04   -0.10016E-03   -0.15632E-03  4646   0.397E-02    0.216E-01
RMM:   4    -0.231302000041E+04    0.29387E-03   -0.27532E-04  3894   0.103E-02    0.586E-02
RMM:   5    -0.231301996630E+04    0.34111E-04   -0.15948E-04  4080   0.965E-03    0.214E-02
RMM:   6    -0.231301996558E+04    0.71703E-06   -0.22782E-05  2878   0.712E-03
  47 F= -.23334579E+04 E0= -.23334579E+04  d E =-.186842E-02  mag=     5.0000
       N       E                     dE             d eps       ncg     rms          rms(c)
DAV:   1    -0.231301970517E+04    0.26112E-03   -0.56563E-01  4432   0.721E-01    0.213E-01
RMM:   2    -0.231302247124E+04   -0.27661E-02   -0.30622E-02  5420   0.119E-01    0.122E-01
RMM:   3    -0.231302262005E+04   -0.14881E-03   -0.27650E-03  4807   0.477E-02    0.173E-01
RMM:   4    -0.231302245486E+04    0.16519E-03   -0.32003E-04  3797   0.110E-02    0.820E-02
RMM:   5    -0.231302239587E+04    0.58987E-04   -0.15781E-04  4104   0.994E-03    0.279E-02
RMM:   6    -0.231302239279E+04    0.30806E-05   -0.32223E-05  2923   0.692E-03
  48 F= -.23334601E+04 E0= -.23334601E+04  d E =-.216336E-02  mag=     5.0000
       N       E                     dE             d eps       ncg     rms          rms(c)
DAV:   1    -0.231302144545E+04    0.95042E-03   -0.31938E-01  4448   0.542E-01    0.161E-01
RMM:   2    -0.231302301629E+04   -0.15708E-02   -0.17322E-02  5517   0.898E-02    0.964E-02
RMM:   3    -0.231302312146E+04   -0.10517E-03   -0.15956E-03  4691   0.384E-02    0.142E-01
RMM:   4    -0.231302300551E+04    0.11594E-03   -0.18604E-04  3106   0.867E-03    0.597E-02
RMM:   5    -0.231302297356E+04    0.31951E-04   -0.89590E-05  3610   0.771E-03    0.222E-02
RMM:   6    -0.231302297102E+04    0.25458E-05   -0.20614E-05  2904   0.585E-03
  49 F= -.23334605E+04 E0= -.23334605E+04  d E =-.254222E-02  mag=     5.0000
       N       E                     dE             d eps       ncg     rms          rms(c)
DAV:   1    -0.231302312071E+04   -0.14715E-03   -0.41194E-01  4424   0.592E-01    0.164E-01
RMM:   2    -0.231302519840E+04   -0.20777E-02   -0.21833E-02  5409   0.973E-02    0.151E-01
RMM:   3    -0.231302530868E+04   -0.11029E-03   -0.18562E-03  4683   0.409E-02    0.180E-01
RMM:   4    -0.231302510049E+04    0.20820E-03   -0.25329E-04  3438   0.984E-03    0.550E-02
RMM:   5    -0.231302507229E+04    0.28193E-04   -0.10485E-04  3696   0.816E-03    0.203E-02
RMM:   6    -0.231302507105E+04    0.12397E-05   -0.23572E-05  2898   0.597E-03
  50 F= -.23334622E+04 E0= -.23334622E+04  d E =-.175315E-02  mag=     5.0000
       N       E                     dE             d eps       ncg     rms          rms(c)
DAV:   1    -0.231302336168E+04    0.17106E-02   -0.56714E-01  4408   0.696E-01    0.192E-01
RMM:   2    -0.231302622485E+04   -0.28632E-02   -0.30110E-02  5409   0.115E-01    0.175E-01
RMM:   3    -0.231302638672E+04   -0.16187E-03   -0.25829E-03  4811   0.473E-02    0.214E-01
RMM:   4    -0.231302609555E+04    0.29117E-03   -0.35554E-04  3859   0.114E-02    0.647E-02
RMM:   5    -0.231302605683E+04    0.38720E-04   -0.14809E-04  4036   0.938E-03    0.232E-02
RMM:   6    -0.231302605413E+04    0.26967E-05   -0.30513E-05  2933   0.657E-03
  51 F= -.23334628E+04 E0= -.23334628E+04  d E =-.232778E-02  mag=     5.0000
       N       E                     dE             d eps       ncg     rms          rms(c)
DAV:   1    -0.231302411613E+04    0.19407E-02   -0.68565E-01  4416   0.733E-01    0.214E-01
RMM:   2    -0.231302826261E+04   -0.41465E-02   -0.43527E-02  5494   0.124E-01    0.155E-01
RMM:   3    -0.231302856393E+04   -0.30132E-03   -0.34557E-03  4810   0.500E-02    0.234E-01
RMM:   4    -0.231302821152E+04    0.35240E-03   -0.45602E-04  3595   0.114E-02    0.664E-02
RMM:   5    -0.231302817661E+04    0.34916E-04   -0.14017E-04  3539   0.860E-03    0.325E-02
RMM:   6    -0.231302817447E+04    0.21354E-05   -0.54298E-05  3180   0.728E-03
  52 F= -.23334646E+04 E0= -.23334646E+04  d E =-.183024E-02  mag=     5.0000
       N       E                     dE             d eps       ncg     rms          rms(c)
DAV:   1    -0.231302395196E+04    0.42247E-02   -0.85987E-01  4416   0.821E-01    0.241E-01
RMM:   2    -0.231302916008E+04   -0.52081E-02   -0.54788E-02  5545   0.139E-01    0.173E-01
RMM:   3    -0.231302953482E+04   -0.37473E-03   -0.43870E-03  4908   0.564E-02    0.260E-01
RMM:   4    -0.231302909977E+04    0.43504E-03   -0.57800E-04  3942   0.128E-02    0.750E-02
RMM:   5    -0.231302905521E+04    0.44567E-04   -0.18134E-04  3807   0.946E-03    0.362E-02
RMM:   6    -0.231302905164E+04    0.35667E-05   -0.69419E-05  3358   0.780E-03
  53 F= -.23334652E+04 E0= -.23334652E+04  d E =-.238227E-02  mag=     5.0000
       N       E                     dE             d eps       ncg     rms          rms(c)
DAV:   1    -0.231302715115E+04    0.19041E-02   -0.45703E-01  4448   0.591E-01    0.184E-01
RMM:   2    -0.231303094739E+04   -0.37962E-02   -0.39483E-02  5935   0.106E-01    0.138E-01
RMM:   3    -0.231303124196E+04   -0.29456E-03   -0.33331E-03  4729   0.403E-02    0.190E-01
RMM:   4    -0.231303102664E+04    0.21532E-03   -0.39244E-04  3105   0.960E-03    0.549E-02
RMM:   5    -0.231303100203E+04    0.24610E-04   -0.82420E-05  3017   0.680E-03    0.284E-02
RMM:   6    -0.231303100389E+04   -0.18642E-05   -0.40633E-05  2970   0.613E-03
  54 F= -.23334669E+04 E0= -.23334669E+04  d E =-.169262E-02  mag=     5.0000
       N       E                     dE             d eps       ncg     rms          rms(c)
DAV:   1    -0.231300032930E+04    0.30673E-01   -0.39326E+00  4416   0.173E+00    0.537E-01
RMM:   2    -0.231303261135E+04   -0.32282E-01   -0.33724E-01  5579   0.305E-01    0.381E-01
RMM:   3    -0.231303530774E+04   -0.26964E-02   -0.31275E-02  5111   0.128E-01    0.522E-01
RMM:   4    -0.231303372031E+04    0.15874E-02   -0.34623E-03  5380   0.264E-02    0.166E-01
RMM:   5    -0.231303347804E+04    0.24228E-03   -0.68423E-04  4590   0.166E-02    0.886E-02
RMM:   6    -0.231303346843E+04    0.96018E-05   -0.37421E-04  4546   0.137E-02    0.614E-02
RMM:   7    -0.231303345779E+04    0.10649E-04   -0.56119E-05  2940   0.845E-03    0.143E-02
RMM:   8    -0.231303346064E+04   -0.28524E-05   -0.13110E-05  2878   0.350E-03
  55 F= -.23334686E+04 E0= -.23334686E+04  d E =-.338779E-02  mag=     5.0000
       N       E                     dE             d eps       ncg     rms          rms(c)
DAV:   1    -0.231302414967E+04    0.93081E-02   -0.11078E+00  4416   0.878E-01    0.292E-01
RMM:   2    -0.231303523857E+04   -0.11089E-01   -0.11527E-01  5739   0.163E-01    0.189E-01
RMM:   3    -0.231303608105E+04   -0.84248E-03   -0.99190E-03  5035   0.668E-02    0.247E-01
RMM:   4    -0.231303574232E+04    0.33873E-03   -0.11791E-03  3763   0.140E-02    0.984E-02
RMM:   5    -0.231303566213E+04    0.80195E-04   -0.18774E-04  3608   0.939E-03    0.468E-02
RMM:   6    -0.231303565434E+04    0.77841E-05   -0.11718E-04  3827   0.839E-03    0.292E-02
RMM:   7    -0.231303565323E+04    0.11142E-05   -0.18396E-05  2870   0.599E-03
  56 F= -.23334705E+04 E0= -.23334705E+04  d E =-.191675E-02  mag=     5.0000
       N       E                     dE             d eps       ncg     rms          rms(c)
DAV:   1    -0.231301958232E+04    0.16072E-01   -0.16308E+00  4416   0.107E+00    0.355E-01
RMM:   2    -0.231303588817E+04   -0.16306E-01   -0.16994E-01  5682   0.198E-01    0.223E-01
RMM:   3    -0.231303709436E+04   -0.12062E-02   -0.14679E-02  5073   0.810E-02    0.284E-01
RMM:   4    -0.231303666480E+04    0.42956E-03   -0.17197E-03  4311   0.167E-02    0.123E-01
RMM:   5    -0.231303654558E+04    0.11922E-03   -0.27374E-04  3957   0.109E-02    0.579E-02
RMM:   6    -0.231303653100E+04    0.14581E-04   -0.18061E-04  4068   0.958E-03    0.344E-02
RMM:   7    -0.231303652847E+04    0.25311E-05   -0.26782E-05  2879   0.695E-03
  57 F= -.23334710E+04 E0= -.23334710E+04  d E =-.245810E-02  mag=     5.0000
       N       E                     dE             d eps       ncg     rms          rms(c)
DAV:   1    -0.231302172824E+04    0.14803E-01   -0.13792E+00  4416   0.939E-01    0.329E-01
RMM:   2    -0.231303806609E+04   -0.16338E-01   -0.17092E-01  5788   0.184E-01    0.194E-01
RMM:   3    -0.231303927787E+04   -0.12118E-02   -0.15475E-02  5100   0.765E-02    0.196E-01
RMM:   4    -0.231303916954E+04    0.10833E-03   -0.17158E-03  3697   0.146E-02    0.135E-01
RMM:   5    -0.231303903994E+04    0.12960E-03   -0.22188E-04  3267   0.942E-03    0.577E-02
RMM:   6    -0.231303902168E+04    0.18264E-04   -0.16852E-04  4005   0.908E-03    0.337E-02
RMM:   7    -0.231303902030E+04    0.13782E-05   -0.26081E-05  2882   0.653E-03
  58 F= -.23334734E+04 E0= -.23334734E+04  d E =-.243281E-02  mag=     5.0000
       N       E                     dE             d eps       ncg     rms          rms(c)
DAV:   1    -0.231301129436E+04    0.27727E-01   -0.22913E+00  4416   0.121E+00    0.424E-01
RMM:   2    -0.231303843046E+04   -0.27136E-01   -0.28404E-01  5823   0.236E-01    0.250E-01
RMM:   3    -0.231304042225E+04   -0.19918E-02   -0.26195E-02  5150   0.993E-02    0.248E-01
RMM:   4    -0.231304027065E+04    0.15160E-03   -0.28642E-03  4393   0.187E-02    0.180E-01
RMM:   5    -0.231304004944E+04    0.22121E-03   -0.36875E-04  3734   0.114E-02    0.769E-02
RMM:   6    -0.231304000728E+04    0.42159E-04   -0.28993E-04  4291   0.110E-02    0.384E-02
RMM:   7    -0.231304000650E+04    0.77987E-06   -0.42952E-05  2899   0.796E-03
  59 F= -.23334744E+04 E0= -.23334744E+04  d E =-.334143E-02  mag=     5.0000
       N       E                     dE             d eps       ncg     rms          rms(c)
DAV:   1    -0.231301624064E+04    0.23767E-01   -0.19808E+00  4416   0.110E+00    0.401E-01
RMM:   2    -0.231304130949E+04   -0.25069E-01   -0.26250E-01  5867   0.218E-01    0.240E-01
RMM:   3    -0.231304309199E+04   -0.17825E-02   -0.22986E-02  5178   0.890E-02    0.217E-01
RMM:   4    -0.231304305005E+04    0.41934E-04   -0.25736E-03  3951   0.171E-02    0.178E-01
RMM:   5    -0.231304283772E+04    0.21233E-03   -0.35954E-04  3698   0.111E-02    0.749E-02
RMM:   6    -0.231304280208E+04    0.35644E-04   -0.22371E-04  4089   0.986E-03    0.313E-02
RMM:   7    -0.231304280583E+04   -0.37584E-05   -0.36175E-05  2897   0.714E-03
  60 F= -.23334771E+04 E0= -.23334771E+04  d E =-.271410E-02  mag=     5.0000
       N       E                     dE             d eps       ncg     rms          rms(c)
DAV:   1    -0.231302782721E+04    0.14975E-01   -0.11610E+00  4416   0.839E-01    0.308E-01
RMM:   2    -0.231304260055E+04   -0.14773E-01   -0.15467E-01  5892   0.168E-01    0.186E-01
RMM:   3    -0.231304357776E+04   -0.97720E-03   -0.12592E-02  5107   0.661E-02    0.179E-01
RMM:   4    -0.231304351167E+04    0.66087E-04   -0.14665E-03  3391   0.131E-02    0.131E-01
RMM:   5    -0.231304339268E+04    0.11899E-03   -0.20485E-04  3231   0.883E-03    0.555E-02
RMM:   6    -0.231304337596E+04    0.16727E-04   -0.12822E-04  3678   0.814E-03    0.278E-02
RMM:   7    -0.231304337742E+04   -0.14692E-05   -0.22968E-05  2879   0.585E-03
  61 F= -.23334776E+04 E0= -.23334776E+04  d E =-.322145E-02  mag=     5.0000
       N       E                     dE             d eps       ncg     rms          rms(c)
DAV:   1    -0.231302236032E+04    0.21016E-01   -0.20192E+00  4416   0.106E+00    0.393E-01
RMM:   2    -0.231304492135E+04   -0.22561E-01   -0.23661E-01  5898   0.206E-01    0.219E-01
RMM:   3    -0.231304621643E+04   -0.12951E-02   -0.19855E-02  5131   0.807E-02    0.158E-01
RMM:   4    -0.231304639953E+04   -0.18310E-03   -0.23877E-03  4011   0.161E-02    0.187E-01
RMM:   5    -0.231304619114E+04    0.20839E-03   -0.37798E-04  3264   0.105E-02    0.996E-02
RMM:   6    -0.231304612903E+04    0.62108E-04   -0.21018E-04  4057   0.948E-03    0.224E-02
RMM:   7    -0.231304613582E+04   -0.67863E-05   -0.34538E-05  2911   0.684E-03
  62 F= -.23334804E+04 E0= -.23334804E+04  d E =-.280451E-02  mag=     5.0000
       N       E                     dE             d eps       ncg     rms          rms(c)
DAV:   1    -0.231301834864E+04    0.27780E-01   -0.24260E+00  4416   0.116E+00    0.431E-01
RMM:   2    -0.231304541793E+04   -0.27069E-01   -0.28399E-01  5849   0.224E-01    0.243E-01
RMM:   3    -0.231304704278E+04   -0.16248E-02   -0.24422E-02  5122   0.910E-02    0.186E-01
RMM:   4    -0.231304725171E+04   -0.20893E-03   -0.29320E-03  4175   0.176E-02    0.208E-01
RMM:   5    -0.231304697889E+04    0.27282E-03   -0.44293E-04  3489   0.113E-02    0.104E-01
RMM:   6    -0.231304691289E+04    0.65993E-04   -0.26206E-04  4151   0.103E-02    0.252E-02
RMM:   7    -0.231304692002E+04   -0.71272E-05   -0.42757E-05  2917   0.739E-03
  63 F= -.23334812E+04 E0= -.23334812E+04  d E =-.364454E-02  mag=     5.0000
       N       E                     dE             d eps       ncg     rms          rms(c)
DAV:   1    -0.231302497524E+04    0.21938E-01   -0.23085E+00  4416   0.109E+00    0.416E-01
RMM:   2    -0.231304864145E+04   -0.23666E-01   -0.24825E-01  5886   0.210E-01    0.246E-01
RMM:   3    -0.231305009634E+04   -0.14549E-02   -0.21716E-02  5179   0.816E-02    0.238E-01
RMM:   4    -0.231305012362E+04   -0.27282E-04   -0.26228E-03  3931   0.169E-02    0.195E-01
RMM:   5    -0.231304987210E+04    0.25152E-03   -0.41703E-04  3767   0.113E-02    0.835E-02
RMM:   6    -0.231304984258E+04    0.29523E-04   -0.21635E-04  4052   0.975E-03    0.215E-02
RMM:   7    -0.231304985146E+04   -0.88852E-05   -0.29990E-05  2897   0.656E-03
  64 F= -.23334842E+04 E0= -.23334842E+04  d E =-.298437E-02  mag=     5.0000
       N       E                     dE             d eps       ncg     rms          rms(c)
DAV:   1    -0.231301065287E+04    0.39190E-01   -0.37427E+00  4416   0.139E+00    0.529E-01
RMM:   2    -0.231304892596E+04   -0.38273E-01   -0.40111E-01  5864   0.267E-01    0.323E-01
RMM:   3    -0.231305150764E+04   -0.25817E-02   -0.36069E-02  5242   0.105E-01    0.338E-01
RMM:   4    -0.231305138425E+04    0.12339E-03   -0.42745E-03  4750   0.216E-02    0.236E-01
RMM:   5    -0.231305101224E+04    0.37201E-03   -0.67087E-04  4202   0.135E-02    0.111E-01
RMM:   6    -0.231305095234E+04    0.59904E-04   -0.36622E-04  4304   0.120E-02    0.318E-02
RMM:   7    -0.231305096310E+04   -0.10756E-04   -0.51655E-05  2949   0.795E-03    0.141E-02
RMM:   8    -0.231305096769E+04   -0.45961E-05   -0.12942E-05  2886   0.333E-03
  65 F= -.23334854E+04 E0= -.23334854E+04  d E =-.417753E-02  mag=     5.0000
       N       E                     dE             d eps       ncg     rms          rms(c)
DAV:   1    -0.231302845378E+04    0.22509E-01   -0.27363E+00  4416   0.116E+00    0.457E-01
RMM:   2    -0.231305312913E+04   -0.24675E-01   -0.25986E-01  5918   0.220E-01    0.283E-01
RMM:   3    -0.231305464574E+04   -0.15166E-02   -0.21898E-02  5287   0.810E-02    0.318E-01
RMM:   4    -0.231305439318E+04    0.25256E-03   -0.28028E-03  4420   0.186E-02    0.198E-01
RMM:   5    -0.231305414875E+04    0.24443E-03   -0.54115E-04  4231   0.131E-02    0.891E-02
RMM:   6    -0.231305412391E+04    0.24842E-04   -0.23104E-04  4083   0.105E-02    0.349E-02
RMM:   7    -0.231305412769E+04   -0.37797E-05   -0.30630E-05  2898   0.634E-03
  66 F= -.23334885E+04 E0= -.23334885E+04  d E =-.314928E-02  mag=     5.0000
       N       E                     dE             d eps       ncg     rms          rms(c)
DAV:   1    -0.231303276994E+04    0.21354E-01   -0.22928E+00  4416   0.106E+00    0.420E-01
RMM:   2    -0.231305352641E+04   -0.20756E-01   -0.21874E-01  5819   0.202E-01    0.263E-01
RMM:   3    -0.231305484103E+04   -0.13146E-02   -0.18432E-02  5238   0.752E-02    0.310E-01
RMM:   4    -0.231305454234E+04    0.29870E-03   -0.23717E-03  4169   0.173E-02    0.175E-01
RMM:   5    -0.231305435059E+04    0.19174E-03   -0.44223E-04  4147   0.121E-02    0.786E-02
RMM:   6    -0.231305433159E+04    0.19001E-04   -0.18964E-04  3947   0.974E-03    0.308E-02
RMM:   7    -0.231305433427E+04   -0.26737E-05   -0.25408E-05  2887   0.602E-03
  67 F= -.23334887E+04 E0= -.23334887E+04  d E =-.335015E-02  mag=     5.0000
       N       E                     dE             d eps       ncg     rms          rms(c)
DAV:   1    -0.231305166218E+04    0.26694E-02   -0.31038E-01  4480   0.389E-01    0.153E-01
RMM:   2    -0.231305448522E+04   -0.28230E-02   -0.29729E-02  6014   0.752E-02    0.853E-02
RMM:   3    -0.231305458006E+04   -0.94835E-04   -0.20918E-03  3945   0.247E-02    0.503E-02
RMM:   4    -0.231305457599E+04    0.40678E-05   -0.26970E-04  3012   0.711E-03    0.321E-02
RMM:   5    -0.231305459893E+04   -0.22939E-04   -0.53639E-05  2888   0.517E-03    0.684E-02
RMM:   6    -0.231305457066E+04    0.28275E-04   -0.23727E-05  2872   0.381E-03    0.748E-03
RMM:   7    -0.231305457129E+04   -0.63883E-06   -0.45839E-06  2830   0.222E-03
  68 F= -.23334890E+04 E0= -.23334890E+04  d E =-.358880E-02  mag=     5.0000
       N       E                     dE             d eps       ncg     rms          rms(c)
DAV:   1    -0.231303714024E+04    0.17430E-01   -0.25274E+00  4416   0.103E+00    0.419E-01
RMM:   2    -0.231305738066E+04   -0.20240E-01   -0.21408E-01  5837   0.191E-01    0.277E-01
RMM:   3    -0.231305833761E+04   -0.95695E-03   -0.15316E-02  5153   0.694E-02    0.355E-01
RMM:   4    -0.231305780297E+04    0.53464E-03   -0.21769E-03  3953   0.168E-02    0.157E-01
RMM:   5    -0.231305765979E+04    0.14318E-03   -0.43084E-04  4069   0.114E-02    0.892E-02
RMM:   6    -0.231305763769E+04    0.22097E-04   -0.22462E-04  3726   0.950E-03    0.398E-02
RMM:   7    -0.231305763474E+04    0.29573E-05   -0.28531E-05  2887   0.587E-03
  69 F= -.23334922E+04 E0= -.23334922E+04  d E =-.317222E-02  mag=     5.0000
       N       E                     dE             d eps       ncg     rms          rms(c)
DAV:   1    -0.231301379005E+04    0.43848E-01   -0.55400E+00  4416   0.152E+00    0.626E-01
RMM:   2    -0.231305795260E+04   -0.44163E-01   -0.46664E-01  5852   0.283E-01    0.441E-01
RMM:   3    -0.231306089346E+04   -0.29409E-02   -0.39708E-02  5277   0.110E-01    0.599E-01
RMM:   4    -0.231305919599E+04    0.16975E-02   -0.52905E-03  5194   0.257E-02    0.223E-01
RMM:   5    -0.231305887855E+04    0.31744E-03   -0.94285E-04  4415   0.160E-02    0.128E-01
RMM:   6    -0.231305884089E+04    0.37663E-04   -0.48626E-04  4325   0.133E-02    0.547E-02
RMM:   7    -0.231305884102E+04   -0.13044E-06   -0.58858E-05  2930   0.731E-03
  70 F= -.23334935E+04 E0= -.23334935E+04  d E =-.454501E-02  mag=     5.0000
       N       E                     dE             d eps       ncg     rms          rms(c)
DAV:   1    -0.231304407023E+04    0.14771E-01   -0.23369E+00  4416   0.950E-01    0.400E-01
RMM:   2    -0.231306152455E+04   -0.17454E-01   -0.18595E-01  5862   0.179E-01    0.259E-01
RMM:   3    -0.231306214705E+04   -0.62250E-03   -0.12797E-02  5170   0.624E-02    0.297E-01
RMM:   4    -0.231306185366E+04    0.29339E-03   -0.18385E-03  3646   0.153E-02    0.167E-01
RMM:   5    -0.231306171208E+04    0.14158E-03   -0.43891E-04  3971   0.111E-02    0.802E-02
RMM:   6    -0.231306170419E+04    0.78931E-05   -0.16649E-04  3405   0.861E-03    0.363E-02
RMM:   7    -0.231306170635E+04   -0.21610E-05   -0.23222E-05  2889   0.547E-03
  71 F= -.23334965E+04 E0= -.23334965E+04  d E =-.293431E-02  mag=     5.0000
       N       E                     dE             d eps       ncg     rms          rms(c)
DAV:   1    -0.231302263711E+04    0.39067E-01   -0.53561E+00  4416   0.144E+00    0.606E-01
RMM:   2    -0.231306277255E+04   -0.40135E-01   -0.42722E-01  5897   0.273E-01    0.397E-01
RMM:   3    -0.231306438284E+04   -0.16103E-02   -0.31219E-02  5257   0.101E-01    0.454E-01
RMM:   4    -0.231306371458E+04    0.66827E-03   -0.43916E-03  4923   0.237E-02    0.257E-01
RMM:   5    -0.231306334694E+04    0.36764E-03   -0.10502E-03  4444   0.162E-02    0.129E-01
RMM:   6    -0.231306330841E+04    0.38533E-04   -0.43421E-04  4255   0.125E-02    0.573E-02
RMM:   7    -0.231306330862E+04   -0.21307E-06   -0.57219E-05  2927   0.690E-03
  72 F= -.23334982E+04 E0= -.23334982E+04  d E =-.464859E-02  mag=     5.0000
       N       E                     dE             d eps       ncg     rms          rms(c)
DAV:   1    -0.231305195708E+04    0.11351E-01   -0.21042E+00  4416   0.926E-01    0.381E-01
RMM:   2    -0.231306645820E+04   -0.14501E-01   -0.15538E-01  5822   0.171E-01    0.236E-01
RMM:   3    -0.231306684192E+04   -0.38372E-03   -0.10765E-02  5111   0.599E-02    0.256E-01
RMM:   4    -0.231306668054E+04    0.16138E-03   -0.15709E-03  3814   0.151E-02    0.171E-01
RMM:   5    -0.231306652970E+04    0.15084E-03   -0.40651E-04  4121   0.117E-02    0.733E-02
RMM:   6    -0.231306652069E+04    0.90179E-05   -0.13787E-04  3443   0.866E-03    0.254E-02
RMM:   7    -0.231306652563E+04   -0.49444E-05   -0.19251E-05  2891   0.539E-03
  73 F= -.23335014E+04 E0= -.23335014E+04  d E =-.320490E-02  mag=     5.0000
       N       E                     dE             d eps       ncg     rms          rms(c)
DAV:   1    -0.231305392671E+04    0.12594E-01   -0.19703E+00  4416   0.898E-01    0.369E-01
RMM:   2    -0.231306755701E+04   -0.13630E-01   -0.14591E-01  5887   0.167E-01    0.222E-01
RMM:   3    -0.231306783836E+04   -0.28135E-03   -0.10015E-02  5116   0.588E-02    0.216E-01
RMM:   4    -0.231306780679E+04    0.31565E-04   -0.14785E-03  3680   0.146E-02    0.180E-01
RMM:   5    -0.231306762827E+04    0.17852E-03   -0.39469E-04  4069   0.115E-02    0.728E-02
RMM:   6    -0.231306761296E+04    0.15311E-04   -0.12943E-04  3402   0.835E-03    0.219E-02
RMM:   7    -0.231306761719E+04   -0.42284E-05   -0.17795E-05  2881   0.538E-03
  74 F= -.23335025E+04 E0= -.23335025E+04  d E =-.428963E-02  mag=     5.0000
       N       E                     dE             d eps       ncg     rms          rms(c)
DAV:   1    -0.231305807661E+04    0.95364E-02   -0.16274E+00  4432   0.886E-01    0.333E-01
RMM:   2    -0.231306990522E+04   -0.11829E-01   -0.12516E-01  5825   0.161E-01    0.205E-01
RMM:   3    -0.231307048122E+04   -0.57600E-03   -0.96407E-03  5093   0.603E-02    0.262E-01
RMM:   4    -0.231307022706E+04    0.25416E-03   -0.13173E-03  3729   0.144E-02    0.133E-01
RMM:   5    -0.231307011207E+04    0.11499E-03   -0.28528E-04  3959   0.106E-02    0.672E-02
RMM:   6    -0.231307009390E+04    0.18163E-04   -0.14084E-04  3681   0.874E-03    0.174E-02
RMM:   7    -0.231307009650E+04   -0.25982E-05   -0.18403E-05  2885   0.574E-03
  75 F= -.23335049E+04 E0= -.23335049E+04  d E =-.244804E-02  mag=     5.0000
       N       E                     dE             d eps       ncg     rms          rms(c)
DAV:   1    -0.231306030486E+04    0.97890E-02   -0.13802E+00  4448   0.813E-01    0.307E-01
RMM:   2    -0.231307035296E+04   -0.10048E-01   -0.10634E-01  5791   0.148E-01    0.188E-01
RMM:   3    -0.231307078737E+04   -0.43441E-03   -0.81089E-03  5027   0.554E-02    0.235E-01
RMM:   4    -0.231307059000E+04    0.19737E-03   -0.11096E-03  3520   0.132E-02    0.124E-01
RMM:   5    -0.231307048879E+04    0.10121E-03   -0.24527E-04  3824   0.990E-03    0.625E-02
RMM:   6    -0.231307047117E+04    0.17617E-04   -0.11922E-04  3516   0.824E-03    0.163E-02
RMM:   7    -0.231307047295E+04   -0.17818E-05   -0.16484E-05  2880   0.555E-03
  76 F= -.23335053E+04 E0= -.23335053E+04  d E =-.279830E-02  mag=     5.0000
       N       E                     dE             d eps       ncg     rms          rms(c)
DAV:   1    -0.231306333196E+04    0.71392E-02   -0.99288E-01  4432   0.710E-01    0.253E-01
RMM:   2    -0.231307171355E+04   -0.83816E-02   -0.87740E-02  5871   0.130E-01    0.152E-01
RMM:   3    -0.231307219139E+04   -0.47783E-03   -0.74478E-03  4758   0.500E-02    0.157E-01
RMM:   4    -0.231307217032E+04    0.21066E-04   -0.92669E-04  3181   0.108E-02    0.119E-01
RMM:   5    -0.231307207427E+04    0.96048E-04   -0.16359E-04  3079   0.774E-03    0.480E-02
RMM:   6    -0.231307206698E+04    0.72930E-05   -0.73181E-05  3074   0.682E-03
  77 F= -.23335068E+04 E0= -.23335068E+04  d E =-.157249E-02  mag=     5.0000
       N       E                     dE             d eps       ncg     rms          rms(c)
DAV:   1    -0.231301157485E+04    0.60499E-01   -0.70014E+00  4416   0.188E+00    0.670E-01
RMM:   2    -0.231307074768E+04   -0.59173E-01   -0.61882E-01  5715   0.343E-01    0.436E-01
RMM:   3    -0.231307457351E+04   -0.38258E-02   -0.56590E-02  5207   0.135E-01    0.491E-01
RMM:   4    -0.231307397978E+04    0.59373E-03   -0.67165E-03  5374   0.284E-02    0.303E-01
RMM:   5    -0.231307335666E+04    0.62313E-03   -0.12092E-03  4523   0.174E-02    0.148E-01
RMM:   6    -0.231307324760E+04    0.10906E-03   -0.68848E-04  4633   0.154E-02    0.451E-02
RMM:   7    -0.231307326122E+04   -0.13621E-04   -0.93038E-05  3070   0.963E-03    0.185E-02
RMM:   8    -0.231307326858E+04   -0.73561E-05   -0.19005E-05  2897   0.379E-03
  78 F= -.23335080E+04 E0= -.23335080E+04  d E =-.272642E-02  mag=     5.0000
       N       E                     dE             d eps       ncg     rms          rms(c)
DAV:   1    -0.231305720139E+04    0.16060E-01   -0.17988E+00  4416   0.988E-01    0.367E-01
RMM:   2    -0.231307510338E+04   -0.17902E-01   -0.18758E-01  5829   0.187E-01    0.218E-01
RMM:   3    -0.231307615711E+04   -0.10537E-02   -0.16006E-02  5102   0.751E-02    0.220E-01
RMM:   4    -0.231307613146E+04    0.25644E-04   -0.19930E-03  3925   0.154E-02    0.168E-01
RMM:   5    -0.231307593990E+04    0.19156E-03   -0.33471E-04  3782   0.108E-02    0.784E-02
RMM:   6    -0.231307590887E+04    0.31034E-04   -0.18383E-04  4032   0.927E-03    0.208E-02
RMM:   7    -0.231307591476E+04   -0.58893E-05   -0.22651E-05  2885   0.629E-03
  79 F= -.23335108E+04 E0= -.23335108E+04  d E =-.281369E-02  mag=     5.0000
       N       E                     dE             d eps       ncg     rms          rms(c)
DAV:   1    -0.231305067183E+04    0.25237E-01   -0.24984E+00  4416   0.116E+00    0.433E-01
RMM:   2    -0.231307542287E+04   -0.24751E-01   -0.25968E-01  5725   0.220E-01    0.260E-01
RMM:   3    -0.231307702641E+04   -0.16035E-02   -0.23028E-02  5100   0.934E-02    0.272E-01
RMM:   4    -0.231307696761E+04    0.58804E-04   -0.28842E-03  4489   0.184E-02    0.195E-01
RMM:   5    -0.231307670866E+04    0.25894E-03   -0.46802E-04  4090   0.122E-02    0.939E-02
RMM:   6    -0.231307666103E+04    0.47634E-04   -0.25698E-04  4192   0.104E-02    0.266E-02
RMM:   7    -0.231307666679E+04   -0.57607E-05   -0.34686E-05  2898   0.733E-03
  80 F= -.23335118E+04 E0= -.23335118E+04  d E =-.376857E-02  mag=     5.0000
       N       E                     dE             d eps       ncg     rms          rms(c)
DAV:   1    -0.231306433870E+04    0.12322E-01   -0.12125E+00  4432   0.841E-01    0.326E-01
RMM:   2    -0.231307823501E+04   -0.13896E-01   -0.14584E-01  5713   0.162E-01    0.195E-01
RMM:   3    -0.231307930980E+04   -0.10748E-02   -0.13259E-02  5031   0.704E-02    0.241E-01
RMM:   4    -0.231307913582E+04    0.17398E-03   -0.16664E-03  3623   0.140E-02    0.121E-01
RMM:   5    -0.231307903258E+04    0.10324E-03   -0.23316E-04  3457   0.938E-03    0.685E-02
RMM:   6    -0.231307901124E+04    0.21338E-04   -0.15238E-04  3903   0.877E-03    0.194E-02
RMM:   7    -0.231307901523E+04   -0.39914E-05   -0.16676E-05  2884   0.559E-03
  81 F= -.23335144E+04 E0= -.23335144E+04  d E =-.267815E-02  mag=     5.0000
       N       E                     dE             d eps       ncg     rms          rms(c)
DAV:   1    -0.231305898910E+04    0.20022E-01   -0.17066E+00  4416   0.996E-01    0.386E-01
RMM:   2    -0.231307855328E+04   -0.19564E-01   -0.20515E-01  5740   0.192E-01    0.231E-01
RMM:   3    -0.231307998579E+04   -0.14325E-02   -0.18412E-02  5109   0.841E-02    0.279E-01
RMM:   4    -0.231307977159E+04    0.21420E-03   -0.23123E-03  4050   0.165E-02    0.147E-01
RMM:   5    -0.231307962207E+04    0.14952E-03   -0.33351E-04  3847   0.108E-02    0.849E-02
RMM:   6    -0.231307958419E+04    0.37883E-04   -0.22171E-04  4118   0.986E-03    0.252E-02
RMM:   7    -0.231307958824E+04   -0.40526E-05   -0.25332E-05  2897   0.666E-03
  82 F= -.23335154E+04 E0= -.23335154E+04  d E =-.364482E-02  mag=     5.0000
       N       E                     dE             d eps       ncg     rms          rms(c)
DAV:   1    -0.231306642846E+04    0.13156E-01   -0.11072E+00  4448   0.832E-01    0.314E-01
RMM:   2    -0.231308036214E+04   -0.13934E-01   -0.14532E-01  5697   0.162E-01    0.187E-01
RMM:   3    -0.231308129592E+04   -0.93378E-03   -0.12227E-02  4997   0.686E-02    0.187E-01
RMM:   4    -0.231308127518E+04    0.20743E-04   -0.15703E-03  3749   0.137E-02    0.143E-01
RMM:   5    -0.231308113102E+04    0.14416E-03   -0.24979E-04  3562   0.999E-03    0.658E-02
RMM:   6    -0.231308110635E+04    0.24666E-04   -0.14439E-04  3923   0.863E-03    0.212E-02
RMM:   7    -0.231308110875E+04   -0.23961E-05   -0.17854E-05  2891   0.594E-03
  83 F= -.23335172E+04 E0= -.23335172E+04  d E =-.178641E-02  mag=     5.0000
       N       E                     dE             d eps       ncg     rms          rms(c)
DAV:   1    -0.231307866897E+04    0.24374E-02   -0.17613E-01  4624   0.333E-01    0.126E-01
RMM:   2    -0.231308091684E+04   -0.22479E-02   -0.23469E-02  5850   0.654E-02    0.754E-02
RMM:   3    -0.231308106635E+04   -0.14950E-03   -0.18979E-03  3909   0.273E-02    0.837E-02
RMM:   4    -0.231308104973E+04    0.16621E-04   -0.25089E-04  2968   0.630E-03    0.537E-02
RMM:   5    -0.231308102728E+04    0.22445E-04   -0.40039E-05  2915   0.443E-03    0.235E-02
RMM:   6    -0.231308102465E+04    0.26305E-05   -0.18638E-05  2897   0.408E-03
  84 F= -.23335172E+04 E0= -.23335172E+04  d E =-.180921E-02  mag=     5.0000
       N       E                     dE             d eps       ncg     rms          rms(c)
DAV:   1    -0.231306916092E+04    0.11866E-01   -0.10756E+00  4432   0.851E-01    0.297E-01
RMM:   2    -0.231308178701E+04   -0.12626E-01   -0.13055E-01  5530   0.158E-01    0.220E-01
RMM:   3    -0.231308294451E+04   -0.11575E-02   -0.12701E-02  4828   0.722E-02    0.289E-01
RMM:   4    -0.231308256590E+04    0.37861E-03   -0.15768E-03  4007   0.145E-02    0.108E-01
RMM:   5    -0.231308247691E+04    0.88989E-04   -0.20407E-04  3359   0.903E-03    0.622E-02
RMM:   6    -0.231308245438E+04    0.22531E-04   -0.14691E-04  3975   0.884E-03    0.278E-02
RMM:   7    -0.231308245334E+04    0.10394E-05   -0.18424E-05  2875   0.608E-03
  85 F= -.23335189E+04 E0= -.23335189E+04  d E =-.172732E-02  mag=     5.0000
       N       E                     dE             d eps       ncg     rms          rms(c)
DAV:   1    -0.231307553118E+04    0.69232E-02   -0.56486E-01  4432   0.616E-01    0.215E-01
RMM:   2    -0.231308219567E+04   -0.66645E-02   -0.68886E-02  5685   0.115E-01    0.160E-01
RMM:   3    -0.231308279280E+04   -0.59713E-03   -0.64708E-03  4739   0.508E-02    0.212E-01
RMM:   4    -0.231308258317E+04    0.20963E-03   -0.82284E-04  3200   0.108E-02    0.775E-02
RMM:   5    -0.231308253714E+04    0.46028E-04   -0.10744E-04  2986   0.702E-03    0.446E-02
RMM:   6    -0.231308252602E+04    0.11124E-04   -0.76576E-05  3345   0.701E-03    0.199E-02
RMM:   7    -0.231308252592E+04    0.10140E-06   -0.11662E-05  2859   0.505E-03
  86 F= -.23335192E+04 E0= -.23335192E+04  d E =-.201662E-02  mag=     5.0000
       N       E                     dE             d eps       ncg     rms          rms(c)
DAV:   1    -0.231307016797E+04    0.12358E-01   -0.14567E+00  4416   0.101E+00    0.336E-01
RMM:   2    -0.231308379021E+04   -0.13622E-01   -0.13900E-01  5554   0.184E-01    0.306E-01
RMM:   3    -0.231308490277E+04   -0.11126E-02   -0.13270E-02  5000   0.789E-02    0.369E-01
RMM:   4    -0.231308414400E+04    0.75877E-03   -0.17002E-03  4767   0.180E-02    0.107E-01
RMM:   5    -0.231308404414E+04    0.99860E-04   -0.30207E-04  4103   0.117E-02    0.648E-02
RMM:   6    -0.231308401894E+04    0.25204E-04   -0.16193E-04  4122   0.965E-03    0.283E-02
RMM:   7    -0.231308401719E+04    0.17447E-05   -0.22181E-05  2867   0.696E-03
  87 F= -.23335210E+04 E0= -.23335210E+04  d E =-.181527E-02  mag=     5.0000
       N       E                     dE             d eps       ncg     rms          rms(c)
DAV:   1    -0.231308373882E+04    0.28012E-03   -0.24718E-02  5000   0.133E-01    0.448E-02
RMM:   2    -0.231308397547E+04   -0.23665E-03   -0.24007E-03  5553   0.249E-02    0.436E-02
RMM:   3    -0.231308399364E+04   -0.18171E-04   -0.22507E-04  2954   0.984E-03    0.491E-02
RMM:   4    -0.231308398045E+04    0.13182E-04   -0.31276E-05  2902   0.314E-03    0.139E-02
RMM:   5    -0.231308397914E+04    0.13121E-05   -0.59895E-06  2825   0.199E-03
  88 F= -.23335211E+04 E0= -.23335211E+04  d E =-.181930E-02  mag=     5.0000
       N       E                     dE             d eps       ncg     rms          rms(c)
DAV:   1    -0.231307842237E+04    0.55581E-02   -0.90176E-01  4432   0.783E-01    0.242E-01
RMM:   2    -0.231308498668E+04   -0.65643E-02   -0.67004E-02  5553   0.137E-01    0.215E-01
RMM:   3    -0.231308543557E+04   -0.44889E-03   -0.59346E-03  4909   0.539E-02    0.268E-01
RMM:   4    -0.231308501675E+04    0.41882E-03   -0.79774E-04  4188   0.133E-02    0.815E-02
RMM:   5    -0.231308495646E+04    0.60288E-04   -0.17212E-04  3833   0.954E-03    0.397E-02
RMM:   6    -0.231308494979E+04    0.66718E-05   -0.72637E-05  3506   0.752E-03
  89 F= -.23335223E+04 E0= -.23335223E+04  d E =-.121034E-02  mag=     5.0000
       N       E                     dE             d eps       ncg     rms          rms(c)
DAV:   1    -0.231308318897E+04    0.17675E-02   -0.21709E-01  4464   0.385E-01    0.121E-01
RMM:   2    -0.231308479665E+04   -0.16077E-02   -0.16359E-02  5993   0.695E-02    0.112E-01
RMM:   3    -0.231308490994E+04   -0.11329E-03   -0.14951E-03  3970   0.241E-02    0.138E-01
RMM:   4    -0.231308479342E+04    0.11652E-03   -0.19397E-04  2961   0.737E-03    0.387E-02
RMM:   5    -0.231308477951E+04    0.13915E-04   -0.43827E-05  2912   0.537E-03    0.166E-02
RMM:   6    -0.231308477851E+04    0.99273E-06   -0.15827E-05  2866   0.472E-03
  90 F= -.23335222E+04 E0= -.23335222E+04  d E =-.115613E-02  mag=     5.0000
       N       E                     dE             d eps       ncg     rms          rms(c)
DAV:   1    -0.231308455598E+04    0.22353E-03   -0.49664E-02  4608   0.184E-01    0.560E-02
RMM:   2    -0.231308491108E+04   -0.35510E-03   -0.36538E-03  5914   0.337E-02    0.417E-02
RMM:   3    -0.231308493577E+04   -0.24685E-04   -0.30152E-04  3037   0.117E-02    0.572E-02
RMM:   4    -0.231308491701E+04    0.18755E-04   -0.43399E-05  2898   0.402E-03    0.208E-02
RMM:   5    -0.231308491288E+04    0.41332E-05   -0.10471E-05  2863   0.272E-03
  91 F= -.23335223E+04 E0= -.23335223E+04  d E =-.123490E-02  mag=     5.0000
       N       E                     dE             d eps       ncg     rms          rms(c)
DAV:   1    -0.231307901074E+04    0.59063E-02   -0.10196E+00  4432   0.807E-01    0.261E-01
RMM:   2    -0.231308617350E+04   -0.71628E-02   -0.71829E-02  5598   0.142E-01    0.306E-01
RMM:   3    -0.231308621723E+04   -0.43723E-04   -0.56307E-03  5001   0.541E-02    0.278E-01
RMM:   4    -0.231308574980E+04    0.46743E-03   -0.82289E-04  4363   0.138E-02    0.739E-02
RMM:   5    -0.231308569194E+04    0.57862E-04   -0.17278E-04  3892   0.970E-03    0.380E-02
RMM:   6    -0.231308568485E+04    0.70849E-05   -0.77968E-05  3617   0.776E-03
  92 F= -.23335234E+04 E0= -.23335234E+04  d E =-.109319E-02  mag=     5.0000
       N       E                     dE             d eps       ncg     rms          rms(c)
DAV:   1    -0.231308461412E+04    0.10778E-02   -0.13766E-01  4496   0.296E-01    0.975E-02
RMM:   2    -0.231308559010E+04   -0.97598E-03   -0.98536E-03  6079   0.551E-02    0.109E-01
RMM:   3    -0.231308560476E+04   -0.14658E-04   -0.76145E-04  3618   0.174E-02    0.109E-01
[...]
RMM:   2    -0.231309786337E+04   -0.36877E-03   -0.38843E-03  5937   0.325E-02    0.345E-02
RMM:   3    -0.231309788835E+04   -0.24982E-04   -0.30813E-04  3033   0.120E-02    0.515E-02
RMM:   4    -0.231309787510E+04    0.13256E-04   -0.44586E-05  2898   0.368E-03    0.201E-02
RMM:   5    -0.231309787094E+04    0.41620E-05   -0.97640E-06  2864   0.251E-03
 167 F= -.23335489E+04 E0= -.23335489E+04  d E =-.147449E-03  mag=     5.0000
       N       E                     dE             d eps       ncg     rms          rms(c)
DAV:   1    -0.231309766559E+04    0.20950E-03   -0.22654E-02  4480   0.124E-01    0.455E-02
RMM:   2    -0.231309788011E+04   -0.21452E-03   -0.22623E-03  5811   0.249E-02    0.272E-02
RMM:   3    -0.231309789404E+04   -0.13928E-04   -0.16785E-04  2938   0.918E-03    0.397E-02
RMM:   4    -0.231309788626E+04    0.77756E-05   -0.26372E-05  2884   0.294E-03
 168 F= -.23335489E+04 E0= -.23335489E+04  d E =-.178632E-03  mag=     5.0000
       N       E                     dE             d eps       ncg     rms          rms(c)
DAV:   1    -0.231309768975E+04    0.20429E-03   -0.34763E-02  4432   0.153E-01    0.556E-02
RMM:   2    -0.231309802196E+04   -0.33220E-03   -0.34819E-03  5819   0.297E-02    0.355E-02
RMM:   3    -0.231309805100E+04   -0.29042E-04   -0.31232E-04  2978   0.117E-02    0.597E-02
RMM:   4    -0.231309803061E+04    0.20390E-04   -0.42944E-05  2899   0.353E-03    0.186E-02
RMM:   5    -0.231309802678E+04    0.38255E-05   -0.10036E-05  2862   0.250E-03
 169 F= -.23335491E+04 E0= -.23335491E+04  d E =-.125004E-03  mag=     5.0000
       N       E                     dE             d eps       ncg     rms          rms(c)
DAV:   1    -0.231309792231E+04    0.10829E-03   -0.13097E-02  4560   0.937E-02    0.353E-02
RMM:   2    -0.231309805157E+04   -0.12926E-03   -0.13212E-03  5435   0.194E-02    0.344E-02
RMM:   3    -0.231309806281E+04   -0.11241E-04   -0.11956E-04  2900   0.779E-03    0.428E-02
RMM:   4    -0.231309805140E+04    0.11415E-04   -0.17349E-05  2871   0.267E-03    0.102E-02
RMM:   5    -0.231309804997E+04    0.14301E-05   -0.46192E-06  2790   0.175E-03
 170 F= -.23335491E+04 E0= -.23335491E+04  d E =-.138599E-03  mag=     5.0000
       N       E                     dE             d eps       ncg     rms          rms(c)
DAV:   1    -0.231309787733E+04    0.17407E-03   -0.30427E-02  4416   0.140E-01    0.506E-02
RMM:   2    -0.231309817302E+04   -0.29569E-03   -0.31068E-03  5796   0.277E-02    0.272E-02
RMM:   3    -0.231309818615E+04   -0.13135E-04   -0.22817E-04  2954   0.103E-02    0.300E-02
RMM:   4    -0.231309818473E+04    0.14276E-05   -0.33106E-05  2890   0.302E-03
 171 F= -.23335492E+04 E0= -.23335492E+04  d E =-.121276E-03  mag=     5.0000
       N       E                     dE             d eps       ncg     rms          rms(c)
DAV:   1    -0.231309795002E+04    0.23613E-03   -0.27603E-02  4448   0.133E-01    0.486E-02
RMM:   2    -0.231309821466E+04   -0.26463E-03   -0.27968E-03  5777   0.259E-02    0.272E-02
RMM:   3    -0.231309822737E+04   -0.12719E-04   -0.24790E-04  2928   0.102E-02    0.282E-02
RMM:   4    -0.231309822738E+04   -0.89058E-08   -0.33258E-05  2895   0.296E-03
 172 F= -.23335492E+04 E0= -.23335492E+04  d E =-.151047E-03  mag=     5.0000
       N       E                     dE             d eps       ncg     rms          rms(c)
DAV:   1    -0.231309793203E+04    0.29534E-03   -0.43638E-02  4416   0.169E-01    0.623E-02
RMM:   2    -0.231309835436E+04   -0.42233E-03   -0.43825E-03  5758   0.329E-02    0.435E-02
RMM:   3    -0.231309838392E+04   -0.29560E-04   -0.35625E-04  3059   0.134E-02    0.641E-02
RMM:   4    -0.231309836175E+04    0.22175E-04   -0.49901E-05  2909   0.389E-03    0.200E-02
RMM:   5    -0.231309835790E+04    0.38436E-05   -0.12364E-05  2863   0.278E-03
 173 F= -.23335494E+04 E0= -.23335494E+04  d E =-.151955E-03  mag=     5.0000
       N       E                     dE             d eps       ncg     rms          rms(c)
DAV:   1    -0.231309804895E+04    0.31280E-03   -0.32855E-02  4464   0.147E-01    0.551E-02
RMM:   2    -0.231309837382E+04   -0.32487E-03   -0.33321E-03  5843   0.293E-02    0.524E-02
RMM:   3    -0.231309840041E+04   -0.26585E-04   -0.28614E-04  2986   0.110E-02    0.685E-02
RMM:   4    -0.231309837167E+04    0.28733E-04   -0.41871E-05  2898   0.376E-03    0.160E-02
RMM:   5    -0.231309836862E+04    0.30512E-05   -0.10998E-05  2866   0.243E-03
 174 F= -.23335494E+04 E0= -.23335494E+04  d E =-.181317E-03  mag=     5.0000
       N       E                     dE             d eps       ncg     rms          rms(c)
DAV:   1    -0.231309800861E+04    0.36306E-03   -0.43477E-02  4416   0.162E-01    0.604E-02
RMM:   2    -0.231309846777E+04   -0.45916E-03   -0.47959E-03  5929   0.333E-02    0.366E-02
RMM:   3    -0.231309849578E+04   -0.28011E-04   -0.36764E-04  3011   0.121E-02    0.500E-02
RMM:   4    -0.231309848520E+04    0.10581E-04   -0.51694E-05  2899   0.369E-03    0.232E-02
RMM:   5    -0.231309848040E+04    0.48030E-05   -0.10743E-05  2875   0.239E-03
 175 F= -.23335496E+04 E0= -.23335496E+04  d E =-.146461E-03  mag=     5.0000
       N       E                     dE             d eps       ncg     rms          rms(c)
DAV:   1    -0.231309809337E+04    0.39183E-03   -0.36052E-02  4432   0.147E-01    0.551E-02
RMM:   2    -0.231309847095E+04   -0.37758E-03   -0.39567E-03  5933   0.302E-02    0.319E-02
RMM:   3    -0.231309849070E+04   -0.19752E-04   -0.30098E-04  2973   0.110E-02    0.366E-02
RMM:   4    -0.231309848745E+04    0.32509E-05   -0.42433E-05  2897   0.323E-03
 176 F= -.23335496E+04 E0= -.23335496E+04  d E =-.185168E-03  mag=     5.0000
       N       E                     dE             d eps       ncg     rms          rms(c)
DAV:   1    -0.231309802098E+04    0.46972E-03   -0.58115E-02  4416   0.192E-01    0.729E-02
RMM:   2    -0.231309865274E+04   -0.63176E-03   -0.66299E-03  5896   0.388E-02    0.411E-02
RMM:   3    -0.231309869318E+04   -0.40444E-04   -0.59622E-04  3091   0.150E-02    0.527E-02
RMM:   4    -0.231309868351E+04    0.96776E-05   -0.73786E-05  2919   0.409E-03
 177 F= -.23335498E+04 E0= -.23335498E+04  d E =-.190262E-03  mag=     5.0000
       N       E                     dE             d eps       ncg     rms          rms(c)
DAV:   1    -0.231309840730E+04    0.28589E-03   -0.26700E-02  4496   0.130E-01    0.514E-02
RMM:   2    -0.231309870296E+04   -0.29566E-03   -0.30501E-03  5755   0.262E-02    0.439E-02
RMM:   3    -0.231309872476E+04   -0.21809E-04   -0.25955E-04  2951   0.111E-02    0.579E-02
RMM:   4    -0.231309870595E+04    0.18810E-04   -0.37423E-05  2896   0.343E-03    0.175E-02
RMM:   5    -0.231309870247E+04    0.34886E-05   -0.11392E-05  2872   0.260E-03
 178 F= -.23335498E+04 E0= -.23335498E+04  d E =-.205270E-03  mag=     5.0000
       N       E                     dE             d eps       ncg     rms          rms(c)
DAV:   1    -0.231309808510E+04    0.62086E-03   -0.64655E-02  4416   0.193E-01    0.759E-02
RMM:   2    -0.231309885836E+04   -0.77326E-03   -0.80555E-03  5986   0.409E-02    0.529E-02
RMM:   3    -0.231309892716E+04   -0.68808E-04   -0.69675E-04  3177   0.153E-02    0.826E-02
RMM:   4    -0.231309889005E+04    0.37116E-04   -0.90712E-05  2922   0.449E-03    0.249E-02
RMM:   5    -0.231309888332E+04    0.67326E-05   -0.16284E-05  2895   0.284E-03
 179 F= -.23335500E+04 E0= -.23335500E+04  d E =-.170418E-03  mag=     5.0000
       N       E                     dE             d eps       ncg     rms          rms(c)
DAV:   1    -0.231309859516E+04    0.29489E-03   -0.25894E-02  4480   0.122E-01    0.487E-02
RMM:   2    -0.231309890398E+04   -0.30883E-03   -0.32204E-03  5865   0.265E-02    0.354E-02
RMM:   3    -0.231309893197E+04   -0.27981E-04   -0.28007E-04  2938   0.101E-02    0.527E-02
RMM:   4    -0.231309891686E+04    0.15110E-04   -0.37396E-05  2895   0.317E-03    0.167E-02
RMM:   5    -0.231309891363E+04    0.32231E-05   -0.77858E-06  2849   0.203E-03
 180 F= -.23335500E+04 E0= -.23335500E+04  d E =-.194099E-03  mag=     5.0000
       N       E                     dE             d eps       ncg     rms          rms(c)
DAV:   1    -0.231309812069E+04    0.79617E-03   -0.83394E-02  4416   0.225E-01    0.880E-02
RMM:   2    -0.231309908560E+04   -0.96492E-03   -0.10097E-02  5964   0.468E-02    0.489E-02
RMM:   3    -0.231309914237E+04   -0.56761E-04   -0.82123E-04  3315   0.171E-02    0.598E-02
RMM:   4    -0.231309913127E+04    0.11091E-04   -0.10793E-04  2922   0.479E-03    0.362E-02
RMM:   5    -0.231309911925E+04    0.12026E-04   -0.21453E-05  2895   0.336E-03    0.147E-02
RMM:   6    -0.231309911798E+04    0.12696E-05   -0.85610E-06  2858   0.311E-03
 181 F= -.23335502E+04 E0= -.23335502E+04  d E =-.214565E-03  mag=     5.0000
       N       E                     dE             d eps       ncg     rms          rms(c)
DAV:   1    -0.231309886236E+04    0.25689E-03   -0.22232E-02  4528   0.116E-01    0.458E-02
RMM:   2    -0.231309912154E+04   -0.25918E-03   -0.27118E-03  5774   0.245E-02    0.272E-02
RMM:   3    -0.231309914080E+04   -0.19253E-04   -0.22813E-04  2939   0.989E-03    0.389E-02
RMM:   4    -0.231309913404E+04    0.67590E-05   -0.30217E-05  2887   0.277E-03
 182 F= -.23335502E+04 E0= -.23335502E+04  d E =-.235885E-03  mag=     5.0000
       N       E                     dE             d eps       ncg     rms          rms(c)
DAV:   1    -0.231309824350E+04    0.89730E-03   -0.92956E-02  4416   0.238E-01    0.908E-02
RMM:   2    -0.231309927209E+04   -0.10286E-02   -0.10705E-02  5941   0.480E-02    0.516E-02
RMM:   3    -0.231309933866E+04   -0.66565E-04   -0.91831E-04  3361   0.183E-02    0.710E-02
RMM:   4    -0.231309931779E+04    0.20868E-04   -0.11797E-04  2935   0.495E-03    0.364E-02
RMM:   5    -0.231309930524E+04    0.12554E-04   -0.21467E-05  2893   0.344E-03    0.132E-02
RMM:   6    -0.231309930491E+04    0.32177E-06   -0.92287E-06  2855   0.325E-03
 183 F= -.23335504E+04 E0= -.23335504E+04  d E =-.187973E-03  mag=     5.0000
       N       E                     dE             d eps       ncg     rms          rms(c)
DAV:   1    -0.231309916274E+04    0.14249E-03   -0.12155E-02  4592   0.859E-02    0.336E-02
RMM:   2    -0.231309929860E+04   -0.13586E-03   -0.14089E-03  5219   0.181E-02    0.237E-02
RMM:   3    -0.231309931150E+04   -0.12893E-04   -0.12503E-04  2902   0.786E-03    0.360E-02
RMM:   4    -0.231309930471E+04    0.67848E-05   -0.17584E-05  2866   0.241E-03
 184 F= -.23335504E+04 E0= -.23335504E+04  d E =-.193968E-03  mag=     5.0000
       N       E                     dE             d eps       ncg     rms          rms(c)
DAV:   1    -0.231309854792E+04    0.76357E-03   -0.86046E-02  4416   0.224E-01    0.851E-02
RMM:   2    -0.231309947994E+04   -0.93202E-03   -0.97150E-03  5902   0.455E-02    0.493E-02
RMM:   3    -0.231309954201E+04   -0.62064E-04   -0.83652E-04  3276   0.172E-02    0.659E-02
RMM:   4    -0.231309952517E+04    0.16838E-04   -0.10770E-04  2928   0.472E-03    0.355E-02
RMM:   5    -0.231309951362E+04    0.11549E-04   -0.19800E-05  2898   0.327E-03    0.127E-02
RMM:   6    -0.231309951324E+04    0.37823E-06   -0.81496E-06  2852   0.303E-03
 185 F= -.23335506E+04 E0= -.23335506E+04  d E =-.199125E-03  mag=     5.0000
       N       E                     dE             d eps       ncg     rms          rms(c)
DAV:   1    -0.231309930493E+04    0.20869E-03   -0.20287E-02  4496   0.109E-01    0.421E-02
RMM:   2    -0.231309952655E+04   -0.22162E-03   -0.23110E-03  5655   0.226E-02    0.267E-02
RMM:   3    -0.231309954413E+04   -0.17580E-04   -0.19916E-04  2919   0.928E-03    0.390E-02
RMM:   4    -0.231309953701E+04    0.71132E-05   -0.26919E-05  2889   0.272E-03
 186 F= -.23335506E+04 E0= -.23335506E+04  d E =-.218293E-03  mag=     5.0000
       N       E                     dE             d eps       ncg     rms          rms(c)
DAV:   1    -0.231309886656E+04    0.67756E-03   -0.86655E-02  4416   0.232E-01    0.891E-02
RMM:   2    -0.231309974230E+04   -0.87573E-03   -0.92142E-03  5921   0.462E-02    0.474E-02
RMM:   3    -0.231309977777E+04   -0.35472E-04   -0.72805E-04  3328   0.168E-02    0.556E-02
RMM:   4    -0.231309977030E+04    0.74681E-05   -0.98523E-05  2926   0.478E-03
 187 F= -.23335509E+04 E0= -.23335509E+04  d E =-.219317E-03  mag=     5.0000
       N       E                     dE             d eps       ncg     rms          rms(c)
DAV:   1    -0.231309962063E+04    0.15714E-03   -0.14794E-02  4728   0.955E-02    0.391E-02
RMM:   2    -0.231309976932E+04   -0.14869E-03   -0.15694E-03  5507   0.194E-02    0.288E-02
RMM:   3    -0.231309977879E+04   -0.94774E-05   -0.12633E-04  2908   0.780E-03    0.405E-02
RMM:   4    -0.231309977001E+04    0.87846E-05   -0.19531E-05  2871   0.272E-03
 188 F= -.23335508E+04 E0= -.23335508E+04  d E =-.213173E-03  mag=     5.0000
       N       E                     dE             d eps       ncg     rms          rms(c)
DAV:   1    -0.231309901097E+04    0.76783E-03   -0.92649E-02  4416   0.237E-01    0.897E-02
RMM:   2    -0.231309995241E+04   -0.94144E-03   -0.98668E-03  5934   0.475E-02    0.484E-02
RMM:   3    -0.231309999441E+04   -0.42003E-04   -0.74692E-04  3353   0.165E-02    0.532E-02
RMM:   4    -0.231309998554E+04    0.88729E-05   -0.96649E-05  2910   0.469E-03
 189 F= -.23335510E+04 E0= -.23335510E+04  d E =-.196558E-03  mag=     5.0000
       N       E                     dE             d eps       ncg     rms          rms(c)
DAV:   1    -0.231309985333E+04    0.14108E-03   -0.12994E-02  4656   0.882E-02    0.362E-02
RMM:   2    -0.231309998228E+04   -0.12895E-03   -0.13755E-03  5293   0.182E-02    0.217E-02
RMM:   3    -0.231309998636E+04   -0.40866E-05   -0.11547E-04  2898   0.755E-03    0.167E-02
RMM:   4    -0.231309998756E+04   -0.11960E-05   -0.17332E-05  2888   0.246E-03
 190 F= -.23335510E+04 E0= -.23335510E+04  d E =-.191382E-03  mag=     5.0000
       N       E                     dE             d eps       ncg     rms          rms(c)
DAV:   1    -0.231309937028E+04    0.61608E-03   -0.76108E-02  4416   0.213E-01    0.811E-02
RMM:   2    -0.231310016914E+04   -0.79886E-03   -0.82637E-03  5982   0.430E-02    0.682E-02
RMM:   3    -0.231310025741E+04   -0.88273E-04   -0.81592E-04  3250   0.164E-02    0.106E-01
RMM:   4    -0.231310018929E+04    0.68117E-04   -0.10103E-04  2920   0.511E-03    0.241E-02
RMM:   5    -0.231310018254E+04    0.67550E-05   -0.21835E-05  2890   0.334E-03
 191 F= -.23335512E+04 E0= -.23335512E+04  d E =-.186510E-03  mag=     5.0000
       N       E                     dE             d eps       ncg     rms          rms(c)
DAV:   1    -0.231309995977E+04    0.22953E-03   -0.22808E-02  4496   0.116E-01    0.463E-02
RMM:   2    -0.231310020676E+04   -0.24699E-03   -0.24929E-03  5757   0.248E-02    0.522E-02
RMM:   3    -0.231310022330E+04   -0.16544E-04   -0.23098E-04  2945   0.946E-03    0.555E-02
RMM:   4    -0.231310020416E+04    0.19148E-04   -0.29674E-05  2894   0.325E-03    0.131E-02
RMM:   5    -0.231310020186E+04    0.22990E-05   -0.80905E-06  2844   0.210E-03
 192 F= -.23335512E+04 E0= -.23335512E+04  d E =-.201115E-03  mag=     5.0000
       N       E                     dE             d eps       ncg     rms          rms(c)
DAV:   1    -0.231309955306E+04    0.65110E-03   -0.80300E-02  4416   0.220E-01    0.850E-02
RMM:   2    -0.231310038822E+04   -0.83516E-03   -0.88190E-03  5950   0.451E-02    0.451E-02
RMM:   3    -0.231310043444E+04   -0.46215E-04   -0.68805E-04  3341   0.162E-02    0.514E-02
RMM:   4    -0.231310042879E+04    0.56461E-05   -0.93382E-05  2914   0.460E-03
 193 F= -.23335515E+04 E0= -.23335515E+04  d E =-.224908E-03  mag=     5.0000
       N       E                     dE             d eps       ncg     rms          rms(c)
DAV:   1    -0.231310021252E+04    0.22192E-03   -0.21130E-02  4560   0.113E-01    0.454E-02
RMM:   2    -0.231310042986E+04   -0.21735E-03   -0.23170E-03  5775   0.231E-02    0.280E-02
RMM:   3    -0.231310044624E+04   -0.16372E-04   -0.22493E-04  2914   0.963E-03    0.392E-02
RMM:   4    -0.231310043917E+04    0.70655E-05   -0.28503E-05  2886   0.281E-03
 194 F= -.23335515E+04 E0= -.23335515E+04  d E =-.234196E-03  mag=     5.0000
       N       E                     dE             d eps       ncg     rms          rms(c)
DAV:   1    -0.231309987708E+04    0.56915E-03   -0.69873E-02  4416   0.206E-01    0.803E-02
RMM:   2    -0.231310060350E+04   -0.72642E-03   -0.76194E-03  5954   0.420E-02    0.509E-02
RMM:   3    -0.231310064751E+04   -0.44008E-04   -0.57706E-04  3224   0.150E-02    0.738E-02
RMM:   4    -0.231310061821E+04    0.29294E-04   -0.80058E-05  2917   0.468E-03    0.275E-02
RMM:   5    -0.231310061042E+04    0.77959E-05   -0.21476E-05  2892   0.360E-03
 195 F= -.23335516E+04 E0= -.23335516E+04  d E =-.171261E-03  mag=     5.0000
       N       E                     dE             d eps       ncg     rms          rms(c)
DAV:   1    -0.231310056236E+04    0.55859E-04   -0.46357E-03  4976   0.532E-02    0.244E-02
RMM:   2    -0.231310062252E+04   -0.60168E-04   -0.52078E-04  4068   0.122E-02    0.475E-02
RMM:   3    -0.231310061322E+04    0.93082E-05   -0.48009E-05  2883   0.590E-03
 196 F= -.23335517E+04 E0= -.23335517E+04  d E =-.174044E-03  mag=     5.0000
       N       E                     dE             d eps       ncg     rms          rms(c)
DAV:   1    -0.231310003076E+04    0.59176E-03   -0.71000E-02  4416   0.210E-01    0.809E-02
RMM:   2    -0.231310075933E+04   -0.72856E-03   -0.76410E-03  5912   0.425E-02    0.431E-02
RMM:   3    -0.231310078765E+04   -0.28326E-04   -0.57681E-04  3214   0.148E-02    0.371E-02
RMM:   4    -0.231310079273E+04   -0.50761E-05   -0.82294E-05  2915   0.446E-03
 197 F= -.23335518E+04 E0= -.23335518E+04  d E =-.168406E-03  mag=     5.0000
       N       E                     dE             d eps       ncg     rms          rms(c)
DAV:   1    -0.231310071860E+04    0.69052E-04   -0.66322E-03  4816   0.635E-02    0.306E-02
RMM:   2    -0.231310080225E+04   -0.83643E-04   -0.73175E-04  4305   0.135E-02    0.559E-02
RMM:   3    -0.231310078876E+04    0.13481E-04   -0.61566E-05  2894   0.631E-03    0.237E-02
RMM:   4    -0.231310078463E+04    0.41348E-05   -0.95566E-06  2875   0.226E-03
 198 F= -.23335518E+04 E0= -.23335518E+04  d E =-.156871E-03  mag=     5.0000
       N       E                     dE             d eps       ncg     rms          rms(c)
DAV:   1    -0.231310024290E+04    0.54587E-03   -0.66913E-02  4416   0.202E-01    0.775E-02
RMM:   2    -0.231310094568E+04   -0.70279E-03   -0.73883E-03  5940   0.410E-02    0.414E-02
RMM:   3    -0.231310098153E+04   -0.35852E-04   -0.55595E-04  3210   0.146E-02    0.468E-02
RMM:   4    -0.231310097728E+04    0.42548E-05   -0.78310E-05  2909   0.425E-03
 199 F= -.23335520E+04 E0= -.23335520E+04  d E =-.171734E-03  mag=     5.0000
       N       E                     dE             d eps       ncg     rms          rms(c)
DAV:   1    -0.231310087700E+04    0.10453E-03   -0.99835E-03  4720   0.776E-02    0.322E-02
RMM:   2    -0.231310098061E+04   -0.10360E-03   -0.11034E-03  4950   0.161E-02    0.228E-02
RMM:   3    -0.231310099067E+04   -0.10060E-04   -0.10941E-04  2890   0.737E-03    0.361E-02
RMM:   4    -0.231310098303E+04    0.76384E-05   -0.15126E-05  2866   0.235E-03
 200 F= -.23335520E+04 E0= -.23335520E+04  d E =-.169311E-03  mag=     5.0000
       N       E                     dE             d eps       ncg     rms          rms(c)
DAV:   1    -0.231310031450E+04    0.67617E-03   -0.76455E-02  4416   0.214E-01    0.827E-02
RMM:   2    -0.231310115781E+04   -0.84331E-03   -0.88674E-03  5957   0.440E-02    0.437E-02
RMM:   3    -0.231310119291E+04   -0.35103E-04   -0.65325E-04  3247   0.153E-02    0.352E-02
RMM:   4    -0.231310119603E+04   -0.31235E-05   -0.86427E-05  2920   0.446E-03
 201 F= -.23335522E+04 E0= -.23335522E+04  d E =-.200579E-03  mag=     5.0000
