       N       E                     dE             d eps       ncg     rms          rms(c)
DAV:   1     0.124564643879E+05    0.12456E+05   -0.84074E+05  4640   0.142E+03
DAV:   2    -0.125324395964E+04   -0.13710E+05   -0.13170E+05  5040   0.322E+02
DAV:   3    -0.249532935427E+04   -0.12421E+04   -0.12315E+04  5440   0.105E+02
DAV:   4    -0.252337024871E+04   -0.28041E+02   -0.27859E+02  5600   0.195E+01
DAV:   5    -0.252428969554E+04   -0.91945E+00   -0.91776E+00  5920   0.294E+00    0.170E+02
RMM:   6    -0.149121327674E+04    0.10331E+04   -0.19129E+03  4504   0.377E+01    0.722E+01
RMM:   7    -0.166192382780E+04   -0.17071E+03   -0.28689E+02  5072   0.140E+01    0.496E+01
RMM:   8    -0.171451960300E+04   -0.52596E+02   -0.43612E+01  5408   0.686E+00    0.453E+01
RMM:   9    -0.178655195220E+04   -0.72032E+02   -0.71652E+01  5109   0.722E+00    0.348E+01
RMM:  10    -0.192329537397E+04   -0.13674E+03   -0.63200E+01  5385   0.756E+00    0.276E+01
RMM:  11    -0.197420936820E+04   -0.50914E+02   -0.19701E+01  5455   0.375E+00    0.256E+01
RMM:  12    -0.204358395441E+04   -0.69375E+02   -0.23495E+01  4983   0.371E+00    0.165E+01
RMM:  13    -0.211650585561E+04   -0.72922E+02   -0.32475E+01  4985   0.425E+00    0.127E+01
RMM:  14    -0.222749910394E+04   -0.11099E+03   -0.79524E+01  4506   0.642E+00    0.891E+00
RMM:  15    -0.229339230663E+04   -0.65893E+02   -0.58528E+01  4562   0.548E+00    0.550E+00
RMM:  16    -0.231423718678E+04   -0.20845E+02   -0.23921E+01  4924   0.377E+00    0.455E+00
RMM:  17    -0.231786158074E+04   -0.36244E+01   -0.51986E+00  5230   0.151E+00    0.267E+00
RMM:  18    -0.232021766551E+04   -0.23561E+01   -0.18395E+00  4759   0.895E-01    0.245E+00
RMM:  19    -0.232105646125E+04   -0.83880E+00   -0.38675E-01  4934   0.542E-01    0.124E+00
RMM:  20    -0.232139187530E+04   -0.33541E+00   -0.13058E-01  4782   0.252E-01    0.509E-01
RMM:  21    -0.232149026071E+04   -0.98385E-01   -0.42880E-02  4589   0.179E-01    0.356E-01
RMM:  22    -0.232153257119E+04   -0.42310E-01   -0.16936E-02  4681   0.114E-01    0.253E-01
RMM:  23    -0.232155276680E+04   -0.20196E-01   -0.94936E-03  4596   0.886E-02    0.154E-01
RMM:  24    -0.232156709207E+04   -0.14325E-01   -0.46868E-03  4514   0.650E-02    0.864E-02
RMM:  25    -0.232157775537E+04   -0.10663E-01   -0.33244E-03  4561   0.464E-02    0.757E-02
RMM:  26    -0.232158365337E+04   -0.58980E-02   -0.16791E-03  4695   0.354E-02    0.394E-02
RMM:  27    -0.232158793046E+04   -0.42771E-02   -0.14096E-03  4504   0.265E-02    0.221E-02
RMM:  28    -0.232158950860E+04   -0.15781E-02   -0.59094E-04  4230   0.222E-02    0.143E-02
RMM:  29    -0.232158996342E+04   -0.45482E-03   -0.19515E-04  4046   0.115E-02    0.676E-03
RMM:  30    -0.232159017195E+04   -0.20853E-03   -0.62987E-05  3668   0.836E-03    0.384E-03
RMM:  31    -0.232159027219E+04   -0.10024E-03   -0.27548E-05  3286   0.499E-03    0.244E-03
RMM:  32    -0.232159032251E+04   -0.50324E-04   -0.14782E-05  3014   0.411E-03    0.173E-03
RMM:  33    -0.232159033716E+04   -0.14648E-04   -0.77935E-06  2909   0.305E-03    0.861E-04
RMM:  34    -0.232159033901E+04   -0.18510E-05   -0.29710E-06  2462   0.214E-03
   1 F= -.23425951E+04 E0= -.23425951E+04  d E =-.228085E-11  mag=     6.0000
       N       E                     dE             d eps       ncg     rms          rms(c)
DAV:   1    -0.232160274186E+04   -0.12405E-01   -0.19844E+00  4480   0.597E-01    0.306E-01
RMM:   2    -0.232160304697E+04   -0.30510E-03   -0.96915E-03  4019   0.421E-02    0.226E-01
RMM:   3    -0.232160318108E+04   -0.13411E-03   -0.22273E-03  4787   0.205E-02    0.307E-01
RMM:   4    -0.232160274640E+04    0.43468E-03   -0.12199E-03  3877   0.135E-02    0.171E-01
RMM:   5    -0.232160250928E+04    0.23712E-03   -0.37411E-04  3105   0.987E-03    0.482E-02
RMM:   6    -0.232160250613E+04    0.31417E-05   -0.49108E-05  2835   0.369E-03
   2 F= -.23426074E+04 E0= -.23426074E+04  d E =-.215434E-10  mag=     6.0000
       N       E                     dE             d eps       ncg     rms          rms(c)
DAV:   1    -0.232154875943E+04    0.53750E-01   -0.78586E+00  4480   0.122E+00    0.591E-01
RMM:   2    -0.232154947182E+04   -0.71239E-03   -0.30992E-02  4247   0.765E-02    0.438E-01
RMM:   3    -0.232154992509E+04   -0.45327E-03   -0.78482E-03  5552   0.384E-02    0.592E-01
RMM:   4    -0.232154830847E+04    0.16166E-02   -0.45886E-03  4565   0.252E-02    0.334E-01
RMM:   5    -0.232154735984E+04    0.94863E-03   -0.13989E-03  3799   0.174E-02    0.930E-02
RMM:   6    -0.232154733758E+04    0.22259E-04   -0.17434E-04  3084   0.595E-03    0.293E-02
RMM:   7    -0.232154732063E+04    0.16955E-04   -0.42354E-05  2953   0.398E-03    0.137E-02
RMM:   8    -0.232154731815E+04    0.24801E-05   -0.20150E-05  2921   0.298E-03
   3 F= -.23425520E+04 E0= -.23425520E+04  d E =-.674168E-11  mag=     6.0000
       N       E                     dE             d eps       ncg     rms          rms(c)
DAV:   1    -0.232162534528E+04   -0.78025E-01   -0.38667E+00  4480   0.825E-01    0.449E-01
RMM:   2    -0.232162563888E+04   -0.29360E-03   -0.22048E-02  4214   0.626E-02    0.309E-01
RMM:   3    -0.232162577893E+04   -0.14005E-03   -0.49708E-03  5513   0.284E-02    0.394E-01
RMM:   4    -0.232162437847E+04    0.14005E-02   -0.19614E-03  4364   0.174E-02    0.139E-01
RMM:   5    -0.232162448092E+04   -0.10245E-03   -0.71891E-04  3414   0.116E-02    0.180E-01
RMM:   6    -0.232162428513E+04    0.19579E-03   -0.22635E-04  3052   0.664E-03    0.295E-02
RMM:   7    -0.232162427658E+04    0.85489E-05   -0.33071E-05  2880   0.336E-03
   4 F= -.23426291E+04 E0= -.23426291E+04  d E =-.386703E-11  mag=     6.0000
       N       E                     dE             d eps       ncg     rms          rms(c)
DAV:   1    -0.232152549828E+04    0.98787E-01   -0.82102E+00  4480   0.134E+00    0.637E-01
RMM:   2    -0.232152392282E+04    0.15755E-02   -0.32370E-02  4252   0.791E-02    0.386E-01
RMM:   3    -0.232152507449E+04   -0.11517E-02   -0.97313E-03  5589   0.429E-02    0.577E-01
RMM:   4    -0.232152233523E+04    0.27393E-02   -0.40648E-03  5111   0.233E-02    0.233E-01
RMM:   5    -0.232152225637E+04    0.78860E-04   -0.14145E-03  3840   0.137E-02    0.177E-01
RMM:   6    -0.232152203108E+04    0.22528E-03   -0.26209E-04  3055   0.774E-03    0.295E-02
RMM:   7    -0.232152202243E+04    0.86533E-05   -0.58229E-05  3065   0.390E-03
   5 F= -.23425268E+04 E0= -.23425268E+04  d E =-.142754E-11  mag=     6.0000
       N       E                     dE             d eps       ncg     rms          rms(c)
DAV:   1    -0.232154275739E+04   -0.20726E-01   -0.39166E+00  4480   0.930E-01    0.418E-01
RMM:   2    -0.232154231632E+04    0.44108E-03   -0.18659E-02  4163   0.603E-02    0.239E-01
RMM:   3    -0.232154242143E+04   -0.10511E-03   -0.38356E-03  5195   0.301E-02    0.278E-01
RMM:   4    -0.232154156980E+04    0.85162E-03   -0.14364E-03  4127   0.148E-02    0.697E-02
RMM:   5    -0.232154159013E+04   -0.20326E-04   -0.24966E-04  3240   0.710E-03    0.620E-02
RMM:   6    -0.232154157872E+04    0.11411E-04   -0.67705E-05  2868   0.479E-03    0.439E-02
RMM:   7    -0.232154156792E+04    0.10800E-04   -0.23163E-05  2868   0.293E-03    0.150E-02
RMM:   8    -0.232154156845E+04   -0.53504E-06   -0.84496E-06  2783   0.223E-03
   6 F= -.23425468E+04 E0= -.23425468E+04  d E =-.229638E-11  mag=     6.0000
       N       E                     dE             d eps       ncg     rms          rms(c)
DAV:   1    -0.232161994777E+04   -0.78380E-01   -0.79554E+00  4480   0.129E+00    0.540E-01
RMM:   2    -0.232161907887E+04    0.86890E-03   -0.30938E-02  4178   0.743E-02    0.303E-01
RMM:   3    -0.232161788908E+04    0.11898E-02   -0.51597E-03  5027   0.384E-02    0.175E-01
RMM:   4    -0.232161808848E+04   -0.19940E-03   -0.14716E-03  4478   0.162E-02    0.228E-01
RMM:   5    -0.232161778144E+04    0.30704E-03   -0.40531E-04  3324   0.934E-03    0.808E-02
RMM:   6    -0.232161773011E+04    0.51326E-04   -0.11664E-04  2892   0.537E-03    0.345E-02
RMM:   7    -0.232161771918E+04    0.10928E-04   -0.61559E-05  3155   0.372E-03    0.137E-02
RMM:   8    -0.232161771976E+04   -0.58018E-06   -0.84985E-06  2779   0.278E-03
   7 F= -.23426221E+04 E0= -.23426221E+04  d E =-.123514E-11  mag=     6.0000
       N       E                     dE             d eps       ncg     rms          rms(c)
DAV:   1    -0.232161001945E+04    0.76997E-02   -0.65722E+00  4480   0.127E+00    0.470E-01
RMM:   2    -0.232161068939E+04   -0.66994E-03   -0.34094E-02  4198   0.806E-02    0.277E-01
RMM:   3    -0.232161117303E+04   -0.48364E-03   -0.37648E-03  4505   0.326E-02    0.502E-01
RMM:   4    -0.232160972171E+04    0.14513E-02   -0.21480E-03  4319   0.174E-02    0.124E-01
RMM:   5    -0.232160972442E+04   -0.27093E-05   -0.44499E-04  3412   0.105E-02    0.831E-02
RMM:   6    -0.232160965781E+04    0.66612E-04   -0.13472E-04  3019   0.639E-03    0.229E-02
RMM:   7    -0.232160965473E+04    0.30818E-05   -0.17707E-05  2800   0.281E-03
   8 F= -.23426137E+04 E0= -.23426137E+04  d E =-.368211E-11  mag=     6.0000
       N       E                     dE             d eps       ncg     rms          rms(c)
DAV:   1    -0.232155853134E+04    0.51126E-01   -0.19987E+01  4480   0.218E+00    0.757E-01
RMM:   2    -0.232156294719E+04   -0.44159E-02   -0.10868E-01  4410   0.148E-01    0.443E-01
RMM:   3    -0.232156525274E+04   -0.23056E-02   -0.13288E-02  4834   0.664E-02    0.871E-01
RMM:   4    -0.232156076693E+04    0.44858E-02   -0.55116E-03  4794   0.287E-02    0.177E-01
RMM:   5    -0.232156110715E+04   -0.34021E-03   -0.17167E-03  4269   0.176E-02    0.201E-01
RMM:   6    -0.232156069162E+04    0.41552E-03   -0.59288E-04  3580   0.106E-02    0.348E-02
RMM:   7    -0.232156068858E+04    0.30473E-05   -0.80700E-05  3009   0.482E-03
   9 F= -.23425662E+04 E0= -.23425662E+04  d E =-.255827E-11  mag=     6.0000
       N       E                     dE             d eps       ncg     rms          rms(c)
DAV:   1    -0.232154313597E+04    0.17556E-01   -0.98182E+00  4480   0.151E+00    0.556E-01
RMM:   2    -0.232154479448E+04   -0.16585E-02   -0.52351E-02  4285   0.102E-01    0.317E-01
RMM:   3    -0.232154479628E+04   -0.17986E-05   -0.65037E-03  5379   0.387E-02    0.340E-01
RMM:   4    -0.232154399624E+04    0.80004E-03   -0.18957E-03  4352   0.186E-02    0.134E-01
RMM:   5    -0.232154403925E+04   -0.43012E-04   -0.47530E-04  3282   0.877E-03    0.132E-01
RMM:   6    -0.232154389095E+04    0.14830E-03   -0.11833E-04  2973   0.582E-03    0.204E-02
RMM:   7    -0.232154389362E+04   -0.26742E-05   -0.33910E-05  2947   0.316E-03
  10 F= -.23425483E+04 E0= -.23425483E+04  d E =-.427981E-11  mag=     6.0000
       N       E                     dE             d eps       ncg     rms          rms(c)
DAV:   1    -0.232159823729E+04   -0.54346E-01   -0.19938E+01  4480   0.216E+00    0.100E+00
RMM:   2    -0.232159142520E+04    0.68121E-02   -0.11358E-01  4363   0.138E-01    0.487E-01
RMM:   3    -0.232159134852E+04    0.76683E-04   -0.12062E-02  4908   0.648E-02    0.737E-01
RMM:   4    -0.232158839231E+04    0.29562E-02   -0.50727E-03  5036   0.285E-02    0.265E-01
RMM:   5    -0.232158828279E+04    0.10952E-03   -0.12964E-03  4109   0.184E-02    0.710E-02
RMM:   6    -0.232158824990E+04    0.32894E-04   -0.18086E-04  3186   0.945E-03    0.471E-02
RMM:   7    -0.232158822994E+04    0.19957E-04   -0.38268E-05  2990   0.392E-03    0.221E-02
RMM:   8    -0.232158822981E+04    0.13229E-06   -0.27818E-05  2957   0.306E-03
  11 F= -.23425935E+04 E0= -.23425935E+04  d E =-.195916E-10  mag=     6.0000
       N       E                     dE             d eps       ncg     rms          rms(c)
DAV:   1    -0.232159170918E+04   -0.34792E-02   -0.99844E+00  4480   0.141E+00    0.563E-01
RMM:   2    -0.232159132521E+04    0.38397E-03   -0.41865E-02  4268   0.862E-02    0.338E-01
RMM:   3    -0.232159251434E+04   -0.11891E-02   -0.77321E-03  5601   0.382E-02    0.673E-01
RMM:   4    -0.232158968106E+04    0.28333E-02   -0.29275E-03  4789   0.218E-02    0.871E-02
RMM:   5    -0.232158966868E+04    0.12373E-04   -0.37806E-04  3424   0.988E-03    0.663E-02
RMM:   6    -0.232158962904E+04    0.39640E-04   -0.10644E-04  3098   0.567E-03    0.301E-02
RMM:   7    -0.232158962612E+04    0.29205E-05   -0.32813E-05  2985   0.366E-03
  12 F= -.23425937E+04 E0= -.23425937E+04  d E =-.138099E-11  mag=     6.0000
       N       E                     dE             d eps       ncg     rms          rms(c)
DAV:   1    -0.232157475706E+04    0.14872E-01   -0.20214E+01  4480   0.202E+00    0.807E-01
RMM:   2    -0.232157948886E+04   -0.47318E-02   -0.11669E-01  4335   0.139E-01    0.398E-01
RMM:   3    -0.232157844410E+04    0.10448E-02   -0.91507E-03  5012   0.549E-02    0.509E-01
RMM:   4    -0.232157731272E+04    0.11314E-02   -0.38851E-03  4702   0.233E-02    0.274E-01
RMM:   5    -0.232157706550E+04    0.24722E-03   -0.12504E-03  4269   0.167E-02    0.163E-01
RMM:   6    -0.232157677454E+04    0.29096E-03   -0.31096E-04  3349   0.916E-03    0.369E-02
RMM:   7    -0.232157677250E+04    0.20436E-05   -0.64665E-05  3097   0.470E-03
  13 F= -.23425822E+04 E0= -.23425822E+04  d E =-.109406E-10  mag=     6.0000
       N       E                     dE             d eps       ncg     rms          rms(c)
DAV:   1    -0.232159672702E+04   -0.19952E-01   -0.53756E+00  4640   0.107E+00    0.417E-01
RMM:   2    -0.232159852579E+04   -0.17988E-02   -0.32065E-02  4216   0.708E-02    0.232E-01
RMM:   3    -0.232159850233E+04    0.23457E-04   -0.27996E-03  5221   0.254E-02    0.371E-01
RMM:   4    -0.232159769182E+04    0.81051E-03   -0.13466E-03  3732   0.131E-02    0.116E-01
RMM:   5    -0.232159771178E+04   -0.19959E-04   -0.46139E-04  3379   0.892E-03    0.107E-01
RMM:   6    -0.232159758559E+04    0.12619E-03   -0.11908E-04  3062   0.578E-03    0.162E-02
RMM:   7    -0.232159758595E+04   -0.36022E-06   -0.17176E-05  2798   0.271E-03
  14 F= -.23426026E+04 E0= -.23426026E+04  d E =-.205858E-11  mag=     6.0000
       N       E                     dE             d eps       ncg     rms          rms(c)
DAV:   1    -0.232157876190E+04    0.18824E-01   -0.12312E+00  4640   0.445E-01    0.339E-01
RMM:   2    -0.232157874892E+04    0.12977E-04   -0.52663E-03  3794   0.279E-02    0.202E-01
RMM:   3    -0.232157886196E+04   -0.11303E-03   -0.14460E-03  4556   0.153E-02    0.172E-01
RMM:   4    -0.232157862598E+04    0.23598E-03   -0.37108E-04  3066   0.895E-03    0.444E-02
RMM:   5    -0.232157862324E+04    0.27328E-05   -0.84730E-05  2733   0.362E-03
  15 F= -.23425832E+04 E0= -.23425832E+04  d E =-.153246E-11  mag=     6.0000
       N       E                     dE             d eps       ncg     rms          rms(c)
DAV:   1    -0.232158629287E+04   -0.76669E-02   -0.62646E-01  4720   0.336E-01    0.354E-01
RMM:   2    -0.232158468822E+04    0.16047E-02   -0.73258E-03  3935   0.308E-02    0.191E-01
RMM:   3    -0.232158483616E+04   -0.14795E-03   -0.20242E-03  4450   0.192E-02    0.310E-01
RMM:   4    -0.232158427411E+04    0.56205E-03   -0.79941E-04  3682   0.108E-02    0.747E-02
RMM:   5    -0.232158423352E+04    0.40598E-04   -0.12423E-04  3001   0.533E-03    0.270E-02
RMM:   6    -0.232158423552E+04   -0.20060E-05   -0.35236E-05  2630   0.352E-03
  16 F= -.23425896E+04 E0= -.23425896E+04  d E =-.141647E-11  mag=     6.0000
       N       E                     dE             d eps       ncg     rms          rms(c)
DAV:   1    -0.232158090527E+04    0.33282E-02   -0.13091E+00  4880   0.484E-01    0.617E-01
RMM:   2    -0.232157469460E+04    0.62107E-02   -0.21420E-02  4399   0.509E-02    0.310E-01
RMM:   3    -0.232157408232E+04    0.61228E-03   -0.44852E-03  4573   0.349E-02    0.281E-01
RMM:   4    -0.232157390110E+04    0.18123E-03   -0.18411E-03  4559   0.159E-02    0.236E-01
RMM:   5    -0.232157362505E+04    0.27604E-03   -0.44968E-04  3457   0.950E-03    0.104E-01
RMM:   6    -0.232157351327E+04    0.11179E-03   -0.19105E-04  3027   0.661E-03    0.345E-02
RMM:   7    -0.232157350907E+04    0.41963E-05   -0.28487E-05  2748   0.320E-03
  17 F= -.23425778E+04 E0= -.23425778E+04  d E =-.168797E-11  mag=     6.0000
       N       E                     dE             d eps       ncg     rms          rms(c)
DAV:   1    -0.232160636345E+04   -0.32850E-01   -0.63004E-01  4720   0.327E-01    0.312E-01
RMM:   2    -0.232160548442E+04    0.87903E-03   -0.49603E-03  4332   0.251E-02    0.179E-01
RMM:   3    -0.232160574987E+04   -0.26545E-03   -0.16935E-03  4196   0.182E-02    0.230E-01
RMM:   4    -0.232160523389E+04    0.51598E-03   -0.70253E-04  3687   0.107E-02    0.901E-02
RMM:   5    -0.232160527951E+04   -0.45622E-04   -0.26834E-04  2970   0.647E-03    0.113E-01
RMM:   6    -0.232160519582E+04    0.83696E-04   -0.73430E-05  2797   0.427E-03    0.142E-02
RMM:   7    -0.232160519528E+04    0.53702E-06   -0.16090E-05  2618   0.221E-03
  18 F= -.23426101E+04 E0= -.23426101E+04  d E =-.284162E-11  mag=     6.0000
       N       E                     dE             d eps       ncg     rms          rms(c)
DAV:   1    -0.232157014712E+04    0.35049E-01   -0.12281E+00  4480   0.466E-01    0.395E-01
RMM:   2    -0.232156956812E+04    0.57900E-03   -0.70717E-03  3900   0.318E-02    0.239E-01
RMM:   3    -0.232157031387E+04   -0.74575E-03   -0.32076E-03  5221   0.218E-02    0.369E-01
RMM:   4    -0.232156924246E+04    0.10714E-02   -0.14014E-03  3913   0.141E-02    0.114E-01
RMM:   5    -0.232156920552E+04    0.36938E-04   -0.37475E-04  3051   0.731E-03    0.931E-02
RMM:   6    -0.232156914717E+04    0.58344E-04   -0.93412E-05  3001   0.459E-03    0.191E-02
RMM:   7    -0.232156914663E+04    0.54862E-06   -0.12402E-05  2730   0.261E-03
  19 F= -.23425738E+04 E0= -.23425738E+04  d E =-.196698E-11  mag=     6.0000
       N       E                     dE             d eps       ncg     rms          rms(c)
DAV:   1    -0.232154796257E+04    0.21185E-01   -0.60312E-01  5040   0.321E-01    0.320E-01
RMM:   2    -0.232154726728E+04    0.69529E-03   -0.50997E-03  3941   0.275E-02    0.186E-01
RMM:   3    -0.232154746876E+04   -0.20148E-03   -0.16988E-03  4571   0.170E-02    0.217E-01
RMM:   4    -0.232154691402E+04    0.55473E-03   -0.67329E-04  3485   0.106E-02    0.438E-02
RMM:   5    -0.232154694489E+04   -0.30866E-04   -0.12408E-04  2882   0.491E-03    0.785E-02
RMM:   6    -0.232154690615E+04    0.38739E-04   -0.48279E-05  2610   0.324E-03    0.178E-02
RMM:   7    -0.232154690386E+04    0.22903E-05   -0.10331E-05  2508   0.187E-03
  20 F= -.23425523E+04 E0= -.23425523E+04  d E =-.163939E-11  mag=     6.0000
       N       E                     dE             d eps       ncg     rms          rms(c)
DAV:   1    -0.232162111207E+04   -0.74206E-01   -0.12110E+00  5120   0.421E-01    0.556E-01
RMM:   2    -0.232161631787E+04    0.47942E-02   -0.15793E-02  4328   0.454E-02    0.284E-01
RMM:   3    -0.232161571400E+04    0.60387E-03   -0.34881E-03  4394   0.297E-02    0.177E-01
RMM:   4    -0.232161565099E+04    0.63012E-04   -0.14067E-03  4663   0.144E-02    0.171E-01
RMM:   5    -0.232161545995E+04    0.19103E-03   -0.33093E-04  3221   0.831E-03    0.117E-01
RMM:   6    -0.232161536743E+04    0.92519E-04   -0.14334E-04  2884   0.560E-03    0.420E-02
RMM:   7    -0.232161536049E+04    0.69473E-05   -0.33686E-05  2772   0.312E-03
  21 F= -.23426195E+04 E0= -.23426195E+04  d E =-.272838E-11  mag=     6.0000
       N       E                     dE             d eps       ncg     rms          rms(c)
DAV:   1    -0.232158252141E+04    0.32846E-01   -0.59282E-01  4960   0.292E-01    0.278E-01
RMM:   2    -0.232158197332E+04    0.54809E-03   -0.38385E-03  3732   0.213E-02    0.153E-01
RMM:   3    -0.232158183126E+04    0.14206E-03   -0.86068E-04  3917   0.134E-02    0.656E-02
RMM:   4    -0.232158184060E+04   -0.93334E-05   -0.24006E-04  3167   0.708E-03    0.703E-02
RMM:   5    -0.232158179798E+04    0.42618E-04   -0.55634E-05  2780   0.434E-03    0.348E-02
RMM:   6    -0.232158179199E+04    0.59917E-05   -0.19838E-05  2515   0.236E-03
  22 F= -.23425864E+04 E0= -.23425864E+04  d E =-.259096E-11  mag=     6.0000
       N       E                     dE             d eps       ncg     rms          rms(c)
DAV:   1    -0.232159276976E+04   -0.10972E-01   -0.11836E+00  4640   0.394E-01    0.366E-01
RMM:   2    -0.232159183974E+04    0.93002E-03   -0.62795E-03  4169   0.276E-02    0.203E-01
RMM:   3    -0.232159181403E+04    0.25710E-04   -0.11774E-03  4197   0.153E-02    0.147E-01
RMM:   4    -0.232159173185E+04    0.82183E-04   -0.64844E-04  3454   0.101E-02    0.122E-01
RMM:   5    -0.232159170121E+04    0.30639E-04   -0.19543E-04  2980   0.635E-03    0.990E-02
RMM:   6    -0.232159162661E+04    0.74601E-04   -0.65058E-05  2751   0.416E-03    0.145E-02
RMM:   7    -0.232159162636E+04    0.24830E-06   -0.12729E-05  2581   0.207E-03
  23 F= -.23425966E+04 E0= -.23425966E+04  d E =-.225043E-11  mag=     6.0000
       N       E                     dE             d eps       ncg     rms          rms(c)
DAV:   1    -0.232157535824E+04    0.16268E-01   -0.58193E-01  4720   0.284E-01    0.246E-01
RMM:   2    -0.232157509758E+04    0.26066E-03   -0.25005E-03  3678   0.180E-02    0.140E-01
RMM:   3    -0.232157498871E+04    0.10887E-03   -0.52714E-04  3898   0.101E-02    0.607E-02
RMM:   4    -0.232157501541E+04   -0.26696E-04   -0.16639E-04  2928   0.600E-03    0.807E-02
RMM:   5    -0.232157497912E+04    0.36283E-04   -0.51244E-05  2663   0.363E-03    0.312E-02
RMM:   6    -0.232157497190E+04    0.72247E-05   -0.12103E-05  2431   0.212E-03
  24 F= -.23425801E+04 E0= -.23425801E+04  d E =-.332337E-11  mag=     6.0000
       N       E                     dE             d eps       ncg     rms          rms(c)
DAV:   1    -0.232160206808E+04   -0.27089E-01   -0.11794E+00  4640   0.401E-01    0.316E-01
RMM:   2    -0.232160210289E+04   -0.34801E-04   -0.47970E-03  3887   0.254E-02    0.188E-01
RMM:   3    -0.232160231220E+04   -0.20932E-03   -0.12690E-03  4322   0.162E-02    0.186E-01
RMM:   4    -0.232160197633E+04    0.33588E-03   -0.61695E-04  3441   0.101E-02    0.487E-02
RMM:   5    -0.232160199595E+04   -0.19623E-04   -0.79242E-05  2820   0.454E-03    0.582E-02
RMM:   6    -0.232160197295E+04    0.22997E-04   -0.24947E-05  2617   0.274E-03    0.123E-02
RMM:   7    -0.232160197182E+04    0.11272E-05   -0.60287E-06  2506   0.160E-03
  25 F= -.23426064E+04 E0= -.23426064E+04  d E =-.230523E-11  mag=     6.0000
       N       E                     dE             d eps       ncg     rms          rms(c)
DAV:   1    -0.232159119009E+04    0.10783E-01   -0.57598E-01  4480   0.277E-01    0.202E-01
RMM:   2    -0.232159133398E+04   -0.14389E-03   -0.28476E-03  3771   0.199E-02    0.120E-01
RMM:   3    -0.232159131431E+04    0.19672E-04   -0.45256E-04  3614   0.107E-02    0.105E-01
RMM:   4    -0.232159132108E+04   -0.67706E-05   -0.26810E-04  3068   0.678E-03    0.106E-01
RMM:   5    -0.232159126619E+04    0.54885E-04   -0.71605E-05  2817   0.475E-03    0.315E-02
RMM:   6    -0.232159125504E+04    0.11153E-04   -0.17991E-05  2566   0.260E-03    0.114E-02
RMM:   7    -0.232159125422E+04    0.81878E-06   -0.36979E-06  2500   0.143E-03
  26 F= -.23425961E+04 E0= -.23425961E+04  d E =-.131151E-11  mag=     6.0000
       N       E                     dE             d eps       ncg     rms          rms(c)
DAV:   1    -0.232158966242E+04    0.15926E-02   -0.11069E+00  4480   0.355E-01    0.266E-01
RMM:   2    -0.232158982641E+04   -0.16399E-03   -0.40629E-03  3909   0.219E-02    0.156E-01
RMM:   3    -0.232158976302E+04    0.63387E-04   -0.70279E-04  3530   0.140E-02    0.147E-01
RMM:   4    -0.232158981465E+04   -0.51635E-04   -0.53925E-04  3335   0.841E-03    0.158E-01
RMM:   5    -0.232158967757E+04    0.13708E-03   -0.13726E-04  2939   0.621E-03    0.304E-02
RMM:   6    -0.232158967219E+04    0.53758E-05   -0.33231E-05  2714   0.316E-03
  27 F= -.23425944E+04 E0= -.23425944E+04  d E =-.513318E-11  mag=     6.0000
       N       E                     dE             d eps       ncg     rms          rms(c)
DAV:   1    -0.232155522480E+04    0.34453E-01   -0.55785E-01  4480   0.255E-01    0.237E-01
RMM:   2    -0.232155624615E+04   -0.10214E-02   -0.60411E-03  4861   0.286E-02    0.399E-01
RMM:   3    -0.232155493764E+04    0.13085E-02   -0.12833E-03  3704   0.148E-02    0.135E-01
RMM:   4    -0.232155508578E+04   -0.14815E-03   -0.65197E-04  3226   0.933E-03    0.184E-01
RMM:   5    -0.232155484057E+04    0.24522E-03   -0.31782E-04  3289   0.749E-03    0.553E-02
RMM:   6    -0.232155482869E+04    0.11881E-04   -0.42086E-05  2827   0.390E-03    0.161E-02
RMM:   7    -0.232155482577E+04    0.29124E-05   -0.84259E-06  2594   0.205E-03
  28 F= -.23425593E+04 E0= -.23425593E+04  d E =-.213888E-10  mag=     6.0000
       N       E                     dE             d eps       ncg     rms          rms(c)
DAV:   1    -0.232161727515E+04   -0.62446E-01   -0.11233E+00  4560   0.364E-01    0.415E-01
RMM:   2    -0.232162180820E+04   -0.45331E-02   -0.20887E-02  5394   0.509E-02    0.796E-01
RMM:   3    -0.232161604336E+04    0.57648E-02   -0.46275E-03  5175   0.274E-02    0.225E-01
RMM:   4    -0.232161627315E+04   -0.22979E-03   -0.17588E-03  4071   0.140E-02    0.283E-01
RMM:   5    -0.232161568375E+04    0.58940E-03   -0.67650E-04  3713   0.105E-02    0.756E-02
RMM:   6    -0.232161565263E+04    0.31123E-04   -0.11995E-04  3030   0.537E-03    0.304E-02
RMM:   7    -0.232161564455E+04    0.80806E-05   -0.19835E-05  2814   0.299E-03
  29 F= -.23426207E+04 E0= -.23426207E+04  d E =-.482848E-12  mag=     6.0000
       N       E                     dE             d eps       ncg     rms          rms(c)
DAV:   1    -0.232162502788E+04   -0.93752E-02   -0.58702E-01  4480   0.260E-01    0.296E-01
RMM:   2    -0.232162673058E+04   -0.17027E-02   -0.93586E-03  4887   0.347E-02    0.524E-01
RMM:   3    -0.232162452683E+04    0.22037E-02   -0.23573E-03  4450   0.190E-02    0.168E-01
RMM:   4    -0.232162466554E+04   -0.13871E-03   -0.94680E-04  3438   0.105E-02    0.207E-01
RMM:   5    -0.232162430784E+04    0.35771E-03   -0.42800E-04  3476   0.847E-03    0.336E-02
RMM:   6    -0.232162431796E+04   -0.10128E-04   -0.51771E-05  2866   0.368E-03    0.290E-02
RMM:   7    -0.232162431083E+04    0.71337E-05   -0.13073E-05  2668   0.219E-03
  30 F= -.23426297E+04 E0= -.23426297E+04  d E =-.565689E-12  mag=     6.0000
       N       E                     dE             d eps       ncg     rms          rms(c)
DAV:   1    -0.232155088633E+04    0.73432E-01   -0.11277E+00  4480   0.360E-01    0.341E-01
RMM:   2    -0.232155094602E+04   -0.59694E-04   -0.80438E-03  4231   0.317E-02    0.331E-01
RMM:   3    -0.232155065388E+04    0.29214E-03   -0.24374E-03  4429   0.180E-02    0.300E-01
RMM:   4    -0.232155046510E+04    0.18879E-03   -0.13900E-03  4285   0.130E-02    0.245E-01
RMM:   5    -0.232155001893E+04    0.44617E-03   -0.64731E-04  3529   0.980E-03    0.634E-02
RMM:   6    -0.232154998491E+04    0.34015E-04   -0.59171E-05  2901   0.469E-03    0.213E-02
RMM:   7    -0.232154998248E+04    0.24329E-05   -0.19580E-05  2816   0.250E-03
  31 F= -.23425542E+04 E0= -.23425542E+04  d E =-.202872E-10  mag=     6.0000
       N       E                     dE             d eps       ncg     rms          rms(c)
DAV:   1    -0.232157884597E+04   -0.28861E-01   -0.55477E-01  4480   0.304E-01    0.228E-01
RMM:   2    -0.232157917482E+04   -0.32885E-03   -0.44731E-03  3948   0.271E-02    0.165E-01
RMM:   3    -0.232157932862E+04   -0.15380E-03   -0.96467E-04  3635   0.133E-02    0.216E-01
RMM:   4    -0.232157920151E+04    0.12710E-03   -0.57607E-04  3508   0.954E-03    0.139E-01
RMM:   5    -0.232157910571E+04    0.95803E-04   -0.21932E-04  2967   0.672E-03    0.484E-02
RMM:   6    -0.232157908503E+04    0.20676E-04   -0.25279E-05  2811   0.357E-03    0.869E-03
RMM:   7    -0.232157908555E+04   -0.51958E-06   -0.63547E-06  2714   0.199E-03
  32 F= -.23425837E+04 E0= -.23425837E+04  d E =-.308386E-11  mag=     6.0000
       N       E                     dE             d eps       ncg     rms          rms(c)
DAV:   1    -0.232159752647E+04   -0.18441E-01   -0.10959E+00  4480   0.435E-01    0.306E-01
RMM:   2    -0.232159844102E+04   -0.91455E-03   -0.42982E-03  3998   0.302E-02    0.189E-01
RMM:   3    -0.232159939977E+04   -0.95875E-03   -0.10934E-03  4152   0.159E-02    0.308E-01
RMM:   4    -0.232159887282E+04    0.52694E-03   -0.61921E-04  3317   0.109E-02    0.529E-02
RMM:   5    -0.232159887408E+04   -0.12526E-05   -0.67586E-05  2942   0.498E-03
  33 F= -.23426038E+04 E0= -.23426038E+04  d E =-.236010E-11  mag=     6.0000
       N       E                     dE             d eps       ncg     rms          rms(c)
DAV:   1    -0.232156089665E+04    0.37976E-01   -0.56359E-01  4880   0.332E-01    0.395E-01
RMM:   2    -0.232155969897E+04    0.11977E-02   -0.12553E-02  4241   0.439E-02    0.192E-01
RMM:   3    -0.232155952670E+04    0.17227E-03   -0.70977E-04  3453   0.204E-02    0.117E-01
RMM:   4    -0.232155994307E+04   -0.41637E-03   -0.86401E-04  3672   0.121E-02    0.260E-01
RMM:   5    -0.232155953475E+04    0.40832E-03   -0.30191E-04  3190   0.960E-03    0.159E-02
RMM:   6    -0.232155953048E+04    0.42740E-05   -0.27219E-05  2834   0.316E-03
  34 F= -.23425639E+04 E0= -.23425639E+04  d E =-.179313E-11  mag=     6.0000
       N       E                     dE             d eps       ncg     rms          rms(c)
DAV:   1    -0.232158758765E+04   -0.28053E-01   -0.11072E+00  5040   0.493E-01    0.771E-01
RMM:   2    -0.232158108965E+04    0.64980E-02   -0.53130E-02  4447   0.857E-02    0.362E-01
RMM:   3    -0.232158139672E+04   -0.30707E-03   -0.53440E-03  4053   0.541E-02    0.544E-01
RMM:   4    -0.232157978028E+04    0.16164E-02   -0.23085E-03  4460   0.184E-02    0.221E-01
RMM:   5    -0.232157966355E+04    0.11673E-03   -0.99339E-04  3808   0.147E-02    0.984E-02
RMM:   6    -0.232157956010E+04    0.10344E-03   -0.20567E-04  3090   0.971E-03    0.438E-02
RMM:   7    -0.232157953893E+04    0.21177E-04   -0.48254E-05  3000   0.368E-03    0.135E-02
RMM:   8    -0.232157953919E+04   -0.26521E-06   -0.27421E-05  2851   0.312E-03
  35 F= -.23425848E+04 E0= -.23425848E+04  d E =-.418279E-11  mag=     6.0000
       N       E                     dE             d eps       ncg     rms          rms(c)
DAV:   1    -0.232157617461E+04    0.33643E-02   -0.53964E-01  4480   0.318E-01    0.335E-01
RMM:   2    -0.232157552870E+04    0.64591E-03   -0.86606E-03  4253   0.368E-02    0.177E-01
RMM:   3    -0.232157579323E+04   -0.26453E-03   -0.99767E-04  3560   0.190E-02    0.262E-01
RMM:   4    -0.232157545388E+04    0.33935E-03   -0.55515E-04  3419   0.969E-03    0.111E-01
RMM:   5    -0.232157547886E+04   -0.24981E-04   -0.20021E-04  3251   0.751E-03    0.553E-02
RMM:   6    -0.232157544496E+04    0.33900E-04   -0.47233E-05  2795   0.478E-03    0.163E-02
RMM:   7    -0.232157544439E+04    0.56575E-06   -0.78415E-06  2598   0.192E-03
  36 F= -.23425802E+04 E0= -.23425802E+04  d E =-.174423E-11  mag=     6.0000
       N       E                     dE             d eps       ncg     rms          rms(c)
DAV:   1    -0.232160084818E+04   -0.25403E-01   -0.10899E+00  4480   0.423E-01    0.323E-01
RMM:   2    -0.232160168029E+04   -0.83210E-03   -0.61723E-03  4063   0.306E-02    0.190E-01
RMM:   3    -0.232160216189E+04   -0.48161E-03   -0.79834E-04  4143   0.153E-02    0.156E-01
RMM:   4    -0.232160205337E+04    0.10852E-03   -0.51374E-04  3336   0.989E-03    0.967E-02
RMM:   5    -0.232160208449E+04   -0.31122E-04   -0.15315E-04  2966   0.626E-03    0.911E-02
RMM:   6    -0.232160202031E+04    0.64177E-04   -0.47797E-05  2822   0.422E-03    0.123E-02
RMM:   7    -0.232160202093E+04   -0.61333E-06   -0.83451E-06  2729   0.209E-03
  37 F= -.23426068E+04 E0= -.23426068E+04  d E =-.466333E-11  mag=     6.0000
