       N       E                     dE             d eps       ncg     rms          rms(c)
DAV:   1     0.127708718463E+05    0.12771E+05   -0.84949E+05  4640   0.144E+03
DAV:   2    -0.121366280735E+04   -0.13985E+05   -0.13401E+05  5040   0.325E+02
DAV:   3    -0.250188803368E+04   -0.12882E+04   -0.12771E+04  5440   0.108E+02
DAV:   4    -0.253301163533E+04   -0.31124E+02   -0.30919E+02  5600   0.213E+01
DAV:   5    -0.253408678544E+04   -0.10752E+01   -0.10725E+01  5760   0.325E+00    0.171E+02
RMM:   6    -0.149812851551E+04    0.10360E+04   -0.19637E+03  4514   0.381E+01    0.723E+01
RMM:   7    -0.166766573991E+04   -0.16954E+03   -0.28548E+02  5220   0.144E+01    0.496E+01
RMM:   8    -0.172524909538E+04   -0.57583E+02   -0.56939E+01  5333   0.761E+00    0.454E+01
RMM:   9    -0.179176826897E+04   -0.66519E+02   -0.58155E+01  5148   0.711E+00    0.369E+01
RMM:  10    -0.191557156547E+04   -0.12380E+03   -0.65501E+01  5442   0.792E+00    0.284E+01
RMM:  11    -0.198717704819E+04   -0.71605E+02   -0.30657E+01  5464   0.495E+00    0.213E+01
RMM:  12    -0.205312797350E+04   -0.65951E+02   -0.23630E+01  5061   0.378E+00    0.193E+01
RMM:  13    -0.210387750685E+04   -0.50750E+02   -0.18112E+01  5257   0.344E+00    0.145E+01
RMM:  14    -0.224025586126E+04   -0.13638E+03   -0.11458E+02  4530   0.744E+00    0.112E+01
RMM:  15    -0.229712970338E+04   -0.56874E+02   -0.51037E+01  4530   0.506E+00    0.699E+00
RMM:  16    -0.232011909101E+04   -0.22989E+02   -0.24860E+01  4820   0.368E+00    0.433E+00
RMM:  17    -0.232481456656E+04   -0.46955E+01   -0.54183E+00  5060   0.179E+00    0.292E+00
RMM:  18    -0.232728120748E+04   -0.24666E+01   -0.17554E+00  4783   0.892E-01    0.171E+00
RMM:  19    -0.232813894040E+04   -0.85773E+00   -0.50609E-01  4912   0.606E-01    0.254E+00
RMM:  20    -0.232809457977E+04    0.44361E-01   -0.66035E-02  5706   0.183E-01    0.231E+00
RMM:  21    -0.232814747388E+04   -0.52894E-01   -0.67111E-02  4794   0.154E-01    0.228E+00
RMM:  22    -0.232815500625E+04   -0.75324E-02   -0.13205E-01  4672   0.203E-01    0.155E+00
RMM:  23    -0.232825440128E+04   -0.99395E-01   -0.35947E-02  4703   0.142E-01    0.179E+00
RMM:  24    -0.232809584468E+04    0.15856E+00   -0.28276E-01  4851   0.256E-01    0.299E+00
RMM:  25    -0.232835714491E+04   -0.26130E+00   -0.29139E-01  4818   0.202E-01    0.177E+00
RMM:  26    -0.232853238844E+04   -0.17524E+00   -0.76152E-02  4683   0.161E-01    0.148E+00
RMM:  27    -0.232861695882E+04   -0.84570E-01   -0.47202E-02  4822   0.133E-01    0.251E+00
RMM:  28    -0.232867235160E+04   -0.55393E-01   -0.34781E-02  5372   0.962E-02    0.235E+00
RMM:  29    -0.232868177701E+04   -0.94254E-02   -0.56794E-03  5612   0.416E-02    0.220E+00
RMM:  30    -0.232868535302E+04   -0.35760E-02   -0.12076E-03  4709   0.178E-02    0.218E+00
RMM:  31    -0.232869545330E+04   -0.10100E-01   -0.21057E-03  4592   0.252E-02    0.206E+00
RMM:  32    -0.232872805803E+04   -0.32605E-01   -0.15074E-02  4735   0.623E-02    0.129E+00
RMM:  33    -0.232874283001E+04   -0.14772E-01   -0.76131E-03  4734   0.513E-02    0.847E-01
RMM:  34    -0.232876199721E+04   -0.19167E-01   -0.10129E-02  4577   0.586E-02    0.347E-01
RMM:  35    -0.232877253353E+04   -0.10536E-01   -0.75230E-03  4628   0.565E-02    0.169E-01
RMM:  36    -0.232877713928E+04   -0.46057E-02   -0.12889E-03  4886   0.278E-02    0.118E-01
RMM:  37    -0.232878196704E+04   -0.48278E-02   -0.90408E-04  4185   0.185E-02    0.927E-02
RMM:  38    -0.232878427124E+04   -0.23042E-02   -0.38827E-04  4174   0.144E-02    0.731E-02
RMM:  39    -0.232878571978E+04   -0.14485E-02   -0.28971E-04  4107   0.116E-02    0.357E-02
RMM:  40    -0.232878643812E+04   -0.71834E-03   -0.15719E-04  3963   0.103E-02    0.192E-02
RMM:  41    -0.232878669616E+04   -0.25804E-03   -0.70416E-05  3679   0.653E-03    0.145E-02
RMM:  42    -0.232878678717E+04   -0.91004E-04   -0.21372E-05  3129   0.495E-03    0.844E-03
RMM:  43    -0.232878682702E+04   -0.39851E-04   -0.99637E-06  2927   0.328E-03    0.581E-03
RMM:  44    -0.232878684543E+04   -0.18408E-04   -0.50198E-06  2789   0.270E-03    0.573E-03
RMM:  45    -0.232878685324E+04   -0.78094E-05   -0.31683E-06  2502   0.205E-03
   1 F= -.23502946E+04 E0= -.23502931E+04  d E =-.312924E-02  mag=     3.9729
       N       E                     dE             d eps       ncg     rms          rms(c)
DAV:   1    -0.232877188526E+04    0.14960E-01   -0.21653E+00  4480   0.801E-01    0.334E-01
RMM:   2    -0.232877082714E+04    0.10581E-02   -0.93131E-03  4106   0.497E-02    0.206E-01
RMM:   3    -0.232877143912E+04   -0.61198E-03   -0.37079E-03  5344   0.320E-02    0.329E-01
RMM:   4    -0.232877021537E+04    0.12237E-02   -0.15925E-03  4769   0.178E-02    0.110E-01
RMM:   5    -0.232877024414E+04   -0.28769E-04   -0.41313E-04  3470   0.989E-03    0.105E-01
RMM:   6    -0.232877011314E+04    0.13100E-03   -0.11056E-04  2928   0.630E-03    0.228E-02
RMM:   7    -0.232877011726E+04   -0.41219E-05   -0.33174E-05  2856   0.312E-03
   2 F= -.23502773E+04 E0= -.23502751E+04  d E =-.449190E-02  mag=     3.9686
       N       E                     dE             d eps       ncg     rms          rms(c)
DAV:   1    -0.232877342868E+04   -0.33155E-02   -0.86410E+00  4480   0.159E+00    0.688E-01
RMM:   2    -0.232876764174E+04    0.57869E-02   -0.32413E-02  4340   0.947E-02    0.401E-01
RMM:   3    -0.232876985231E+04   -0.22106E-02   -0.14570E-02  5884   0.646E-02    0.630E-01
RMM:   4    -0.232876537657E+04    0.44757E-02   -0.60846E-03  5443   0.342E-02    0.217E-01
RMM:   5    -0.232876543182E+04   -0.55252E-04   -0.15107E-03  4769   0.172E-02    0.201E-01
RMM:   6    -0.232876495489E+04    0.47694E-03   -0.38700E-04  3532   0.101E-02    0.416E-02
RMM:   7    -0.232876497230E+04   -0.17412E-04   -0.11174E-04  3172   0.548E-03    0.524E-02
RMM:   8    -0.232876494924E+04    0.23057E-04   -0.48388E-05  2888   0.445E-03    0.193E-02
RMM:   9    -0.232876495072E+04   -0.14769E-05   -0.10462E-05  2802   0.265E-03
   3 F= -.23502733E+04 E0= -.23502722E+04  d E =-.220719E-02  mag=     3.9761
       N       E                     dE             d eps       ncg     rms          rms(c)
DAV:   1    -0.232881639381E+04   -0.51445E-01   -0.42214E+00  4480   0.115E+00    0.478E-01
RMM:   2    -0.232881360071E+04    0.27931E-02   -0.15644E-02  4275   0.648E-02    0.343E-01
RMM:   3    -0.232881422693E+04   -0.62622E-03   -0.68325E-03  5720   0.415E-02    0.430E-01
RMM:   4    -0.232881190905E+04    0.23179E-02   -0.41109E-03  5117   0.284E-02    0.172E-01
RMM:   5    -0.232881174296E+04    0.16608E-03   -0.75960E-04  3579   0.174E-02    0.115E-01
RMM:   6    -0.232881161291E+04    0.13005E-03   -0.10769E-04  3092   0.607E-03    0.264E-02
RMM:   7    -0.232881162353E+04   -0.10625E-04   -0.50249E-05  2950   0.399E-03    0.367E-02
RMM:   8    -0.232881161120E+04    0.12336E-04   -0.23190E-05  2798   0.342E-03    0.121E-02
RMM:   9    -0.232881161265E+04   -0.14487E-05   -0.53661E-06  2613   0.215E-03
   4 F= -.23503195E+04 E0= -.23503177E+04  d E =-.362775E-02  mag=     3.9662
       N       E                     dE             d eps       ncg     rms          rms(c)
DAV:   1    -0.232873670648E+04    0.74905E-01   -0.82981E+00  4480   0.158E+00    0.612E-01
RMM:   2    -0.232873352390E+04    0.31826E-02   -0.31099E-02  4383   0.953E-02    0.540E-01
RMM:   3    -0.232873282795E+04    0.69595E-03   -0.10456E-02  5488   0.588E-02    0.532E-01
RMM:   4    -0.232873114003E+04    0.16879E-02   -0.93566E-03  5093   0.405E-02    0.441E-01
RMM:   5    -0.232872908255E+04    0.20575E-02   -0.21603E-03  4354   0.289E-02    0.787E-02
RMM:   6    -0.232872902421E+04    0.58346E-04   -0.22533E-04  3754   0.654E-03    0.314E-02
RMM:   7    -0.232872900961E+04    0.14596E-04   -0.53133E-05  3138   0.454E-03    0.215E-02
RMM:   8    -0.232872901436E+04   -0.47474E-05   -0.28988E-05  2854   0.378E-03
   5 F= -.23502367E+04 E0= -.23502353E+04  d E =-.283056E-02  mag=     3.9761
       N       E                     dE             d eps       ncg     rms          rms(c)
DAV:   1    -0.232876804892E+04   -0.39039E-01   -0.42327E+00  4480   0.112E+00    0.429E-01
RMM:   2    -0.232876593791E+04    0.21110E-02   -0.17350E-02  4252   0.676E-02    0.364E-01
RMM:   3    -0.232876588447E+04    0.53444E-04   -0.51565E-03  5263   0.397E-02    0.396E-01
RMM:   4    -0.232876460844E+04    0.12760E-02   -0.40238E-03  5199   0.282E-02    0.281E-01
RMM:   5    -0.232876385535E+04    0.75309E-03   -0.11184E-03  4240   0.182E-02    0.859E-02
RMM:   6    -0.232876377058E+04    0.84765E-04   -0.11899E-04  3297   0.574E-03    0.227E-02
RMM:   7    -0.232876376506E+04    0.55194E-05   -0.30976E-05  3011   0.365E-03
   6 F= -.23502713E+04 E0= -.23502698E+04  d E =-.298867E-02  mag=     3.9727
       N       E                     dE             d eps       ncg     rms          rms(c)
DAV:   1    -0.232879518676E+04   -0.31416E-01   -0.84124E+00  4480   0.145E+00    0.593E-01
RMM:   2    -0.232879019147E+04    0.49953E-02   -0.31429E-02  4350   0.888E-02    0.363E-01
RMM:   3    -0.232879113184E+04   -0.94037E-03   -0.78776E-03  4985   0.555E-02    0.504E-01
RMM:   4    -0.232878848114E+04    0.26507E-02   -0.49220E-03  5669   0.311E-02    0.253E-01
RMM:   5    -0.232878848136E+04   -0.21447E-06   -0.16130E-03  4835   0.194E-02    0.221E-01
RMM:   6    -0.232878786255E+04    0.61881E-03   -0.46824E-04  3451   0.105E-02    0.428E-02
RMM:   7    -0.232878786888E+04   -0.63320E-05   -0.84045E-05  3082   0.526E-03
   7 F= -.23502959E+04 E0= -.23502943E+04  d E =-.324358E-02  mag=     3.9741
       N       E                     dE             d eps       ncg     rms          rms(c)
DAV:   1    -0.232883742268E+04   -0.49560E-01   -0.71963E+00  4480   0.132E+00    0.554E-01
RMM:   2    -0.232883789366E+04   -0.47098E-03   -0.57004E-02  4344   0.102E-01    0.326E-01
RMM:   3    -0.232883637613E+04    0.15175E-02   -0.51294E-03  4563   0.494E-02    0.289E-01
RMM:   4    -0.232883639325E+04   -0.17118E-04   -0.30692E-03  5453   0.244E-02    0.310E-01
RMM:   5    -0.232883563334E+04    0.75991E-03   -0.13377E-03  4877   0.177E-02    0.163E-01
RMM:   6    -0.232883533270E+04    0.30064E-03   -0.40049E-04  3349   0.108E-02    0.531E-02
RMM:   7    -0.232883531133E+04    0.21371E-04   -0.75288E-05  3191   0.528E-03    0.274E-02
RMM:   8    -0.232883531001E+04    0.13166E-05   -0.25740E-05  2803   0.361E-03
   8 F= -.23503431E+04 E0= -.23503416E+04  d E =-.316264E-02  mag=     3.9732
       N       E                     dE             d eps       ncg     rms          rms(c)
DAV:   1    -0.232871701315E+04    0.11830E+00   -0.20610E+01  4480   0.206E+00    0.950E-01
RMM:   2    -0.232871585930E+04    0.11539E-02   -0.14097E-01  4748   0.134E-01    0.511E-01
RMM:   3    -0.232871022142E+04    0.56379E-02   -0.13472E-02  4732   0.776E-02    0.335E-01
RMM:   4    -0.232871147277E+04   -0.12513E-02   -0.63052E-03  5727   0.337E-02    0.454E-01
RMM:   5    -0.232870918851E+04    0.22843E-02   -0.25319E-03  5316   0.252E-02    0.159E-01
RMM:   6    -0.232870942871E+04   -0.24019E-03   -0.10281E-03  3926   0.136E-02    0.198E-01
RMM:   7    -0.232870898072E+04    0.44799E-03   -0.30951E-04  3661   0.924E-03    0.367E-02
RMM:   8    -0.232870899115E+04   -0.10433E-04   -0.84376E-05  3041   0.515E-03    0.468E-02
RMM:   9    -0.232870896589E+04    0.25258E-04   -0.35471E-05  2913   0.413E-03    0.120E-02
RMM:  10    -0.232870896642E+04   -0.53196E-06   -0.58304E-06  2827   0.223E-03
   9 F= -.23502167E+04 E0= -.23502152E+04  d E =-.300013E-02  mag=     3.9731
       N       E                     dE             d eps       ncg     rms          rms(c)
DAV:   1    -0.232877913699E+04   -0.70171E-01   -0.10227E+01  4480   0.138E+00    0.788E-01
RMM:   2    -0.232877673266E+04    0.24043E-02   -0.85012E-02  4873   0.108E-01    0.510E-01
RMM:   3    -0.232877390656E+04    0.28261E-02   -0.10998E-02  5208   0.622E-02    0.444E-01
RMM:   4    -0.232877279334E+04    0.11132E-02   -0.49676E-03  5456   0.307E-02    0.317E-01
RMM:   5    -0.232877250870E+04    0.28464E-03   -0.26110E-03  4763   0.208E-02    0.288E-01
RMM:   6    -0.232877172493E+04    0.78376E-03   -0.10133E-03  4136   0.159E-02    0.785E-02
RMM:   7    -0.232877167941E+04    0.45523E-04   -0.17804E-04  3308   0.639E-03    0.396E-02
RMM:   8    -0.232877166335E+04    0.16061E-04   -0.40710E-05  2856   0.442E-03    0.220E-02
RMM:   9    -0.232877165858E+04    0.47704E-05   -0.25436E-05  2873   0.296E-03
  10 F= -.23502794E+04 E0= -.23502782E+04  d E =-.225633E-02  mag=     3.9790
       N       E                     dE             d eps       ncg     rms          rms(c)
DAV:   1    -0.232879069955E+04   -0.19036E-01   -0.20741E+01  4480   0.201E+00    0.853E-01
RMM:   2    -0.232878868598E+04    0.20136E-02   -0.10668E-01  4868   0.132E-01    0.644E-01
RMM:   3    -0.232878766144E+04    0.10245E-02   -0.16617E-02  5724   0.687E-02    0.684E-01
RMM:   4    -0.232878286560E+04    0.47958E-02   -0.67334E-03  5650   0.371E-02    0.296E-01
RMM:   5    -0.232878378464E+04   -0.91904E-03   -0.41710E-03  5105   0.259E-02    0.435E-01
RMM:   6    -0.232878192265E+04    0.18620E-02   -0.15971E-03  4939   0.193E-02    0.585E-02
RMM:   7    -0.232878194461E+04   -0.21958E-04   -0.24221E-04  3274   0.760E-03    0.696E-02
RMM:   8    -0.232878188386E+04    0.60749E-04   -0.90757E-05  3044   0.606E-03    0.262E-02
RMM:   9    -0.232878187634E+04    0.75220E-05   -0.30305E-05  3038   0.393E-03
  11 F= -.23502897E+04 E0= -.23502876E+04  d E =-.413502E-02  mag=     3.9667
       N       E                     dE             d eps       ncg     rms          rms(c)
DAV:   1    -0.232880443344E+04   -0.22550E-01   -0.10131E+01  4480   0.147E+00    0.767E-01
RMM:   2    -0.232880412965E+04    0.30379E-03   -0.82594E-02  4954   0.112E-01    0.702E-01
RMM:   3    -0.232880169966E+04    0.24300E-02   -0.16476E-02  5984   0.628E-02    0.634E-01
RMM:   4    -0.232879745241E+04    0.42472E-02   -0.52408E-03  5498   0.333E-02    0.251E-01
RMM:   5    -0.232879831700E+04   -0.86459E-03   -0.36004E-03  5090   0.236E-02    0.399E-01
RMM:   6    -0.232879672316E+04    0.15938E-02   -0.14491E-03  4857   0.178E-02    0.556E-02
RMM:   7    -0.232879672477E+04   -0.16145E-05   -0.20918E-04  3169   0.704E-03    0.575E-02
RMM:   8    -0.232879668681E+04    0.37968E-04   -0.78033E-05  3025   0.532E-03    0.243E-02
RMM:   9    -0.232879668315E+04    0.36539E-05   -0.22062E-05  2992   0.355E-03
  12 F= -.23503050E+04 E0= -.23503026E+04  d E =-.481713E-02  mag=     3.9600
       N       E                     dE             d eps       ncg     rms          rms(c)
DAV:   1    -0.232876821053E+04    0.28476E-01   -0.20506E+01  4480   0.199E+00    0.840E-01
RMM:   2    -0.232876890929E+04   -0.69876E-03   -0.10897E-01  4734   0.135E-01    0.744E-01
RMM:   3    -0.232876781013E+04    0.10992E-02   -0.18795E-02  5738   0.705E-02    0.738E-01
RMM:   4    -0.232876205856E+04    0.57516E-02   -0.77904E-03  5528   0.402E-02    0.320E-01
RMM:   5    -0.232876283997E+04   -0.78141E-03   -0.45193E-03  5208   0.266E-02    0.439E-01
RMM:   6    -0.232876090725E+04    0.19327E-02   -0.15531E-03  4995   0.185E-02    0.533E-02
RMM:   7    -0.232876093211E+04   -0.24856E-04   -0.20158E-04  3152   0.686E-03    0.579E-02
RMM:   8    -0.232876090209E+04    0.30019E-04   -0.88332E-05  2999   0.548E-03    0.282E-02
RMM:   9    -0.232876090146E+04    0.63026E-06   -0.15396E-05  2905   0.320E-03
  13 F= -.23502682E+04 E0= -.23502672E+04  d E =-.204282E-02  mag=     3.9754
       N       E                     dE             d eps       ncg     rms          rms(c)
DAV:   1    -0.232879450650E+04   -0.33604E-01   -0.54691E+00  4480   0.109E+00    0.487E-01
RMM:   2    -0.232879530411E+04   -0.79762E-03   -0.43935E-02  4438   0.855E-02    0.402E-01
RMM:   3    -0.232879511448E+04    0.18963E-03   -0.64962E-03  4900   0.467E-02    0.441E-01
RMM:   4    -0.232879316505E+04    0.19494E-02   -0.32694E-03  5150   0.267E-02    0.202E-01
RMM:   5    -0.232879335613E+04   -0.19108E-03   -0.14769E-03  4685   0.162E-02    0.249E-01
RMM:   6    -0.232879274200E+04    0.61413E-03   -0.47594E-04  3865   0.109E-02    0.352E-02
RMM:   7    -0.232879273409E+04    0.79098E-05   -0.56195E-05  2948   0.484E-03
  14 F= -.23503005E+04 E0= -.23502990E+04  d E =-.297266E-02  mag=     3.9738
       N       E                     dE             d eps       ncg     rms          rms(c)
DAV:   1    -0.232876360993E+04    0.29132E-01   -0.13366E+00  4960   0.583E-01    0.599E-01
RMM:   2    -0.232875826233E+04    0.53476E-02   -0.24626E-02  4834   0.711E-02    0.326E-01
RMM:   3    -0.232875769037E+04    0.57197E-03   -0.38270E-03  4835   0.408E-02    0.258E-01
RMM:   4    -0.232875804478E+04   -0.35441E-03   -0.27797E-03  5249   0.243E-02    0.291E-01
RMM:   5    -0.232875703949E+04    0.10053E-02   -0.90318E-04  4559   0.161E-02    0.103E-01
RMM:   6    -0.232875708101E+04   -0.41522E-04   -0.33443E-04  3259   0.906E-03    0.117E-01
RMM:   7    -0.232875693760E+04    0.14341E-03   -0.88875E-05  2991   0.614E-03    0.198E-02
RMM:   8    -0.232875693838E+04   -0.77827E-06   -0.22287E-05  2803   0.311E-03
  15 F= -.23502648E+04 E0= -.23502632E+04  d E =-.328118E-02  mag=     3.9719
       N       E                     dE             d eps       ncg     rms          rms(c)
DAV:   1    -0.232879166281E+04   -0.34725E-01   -0.62022E-01  4960   0.392E-01    0.330E-01
RMM:   2    -0.232879058810E+04    0.10747E-02   -0.64634E-03  4706   0.372E-02    0.186E-01
RMM:   3    -0.232879075939E+04   -0.17129E-03   -0.13594E-03  4641   0.216E-02    0.198E-01
RMM:   4    -0.232879048682E+04    0.27257E-03   -0.86309E-04  4233   0.139E-02    0.134E-01
RMM:   5    -0.232879038791E+04    0.98910E-04   -0.27588E-04  3622   0.919E-03    0.102E-01
RMM:   6    -0.232879028684E+04    0.10107E-03   -0.10392E-04  2933   0.633E-03    0.330E-02
RMM:   7    -0.232879028028E+04    0.65554E-05   -0.18582E-05  2785   0.317E-03
  16 F= -.23502979E+04 E0= -.23502964E+04  d E =-.307311E-02  mag=     3.9724
       N       E                     dE             d eps       ncg     rms          rms(c)
DAV:   1    -0.232877986304E+04    0.10424E-01   -0.12166E+00  5040   0.544E-01    0.351E-01
RMM:   2    -0.232877955251E+04    0.31053E-03   -0.42307E-03  4082   0.336E-02    0.209E-01
RMM:   3    -0.232877993571E+04   -0.38320E-03   -0.20389E-03  4608   0.246E-02    0.222E-01
RMM:   4    -0.232877940996E+04    0.52576E-03   -0.69002E-04  3919   0.134E-02    0.700E-02
RMM:   5    -0.232877939831E+04    0.11649E-04   -0.12862E-04  3061   0.583E-03    0.591E-02
RMM:   6    -0.232877936239E+04    0.35922E-04   -0.48597E-05  2819   0.446E-03    0.217E-02
RMM:   7    -0.232877935805E+04    0.43416E-05   -0.12452E-05  2778   0.233E-03
  17 F= -.23502873E+04 E0= -.23502857E+04  d E =-.316409E-02  mag=     3.9729
       N       E                     dE             d eps       ncg     rms          rms(c)
DAV:   1    -0.232878914828E+04   -0.97859E-02   -0.61704E-01  5040   0.391E-01    0.253E-01
RMM:   2    -0.232878905472E+04    0.93566E-04   -0.29785E-03  3926   0.262E-02    0.151E-01
RMM:   3    -0.232878930501E+04   -0.25029E-03   -0.11295E-03  4806   0.186E-02    0.184E-01
RMM:   4    -0.232878892765E+04    0.37736E-03   -0.45151E-04  3850   0.103E-02    0.256E-02
RMM:   5    -0.232878892667E+04    0.98383E-06   -0.52812E-05  2888   0.434E-03
  18 F= -.23502968E+04 E0= -.23502951E+04  d E =-.344760E-02  mag=     3.9722
       N       E                     dE             d eps       ncg     rms          rms(c)
DAV:   1    -0.232877870754E+04    0.10220E-01   -0.12567E+00  4720   0.552E-01    0.407E-01
RMM:   2    -0.232877811145E+04    0.59609E-03   -0.78082E-03  4174   0.430E-02    0.246E-01
RMM:   3    -0.232877916513E+04   -0.10537E-02   -0.31852E-03  5337   0.315E-02    0.354E-01
RMM:   4    -0.232877777218E+04    0.13929E-02   -0.16266E-03  4979   0.198E-02    0.128E-01
RMM:   5    -0.232877776827E+04    0.39112E-05   -0.43984E-04  3222   0.921E-03    0.116E-01
RMM:   6    -0.232877762658E+04    0.14170E-03   -0.14232E-04  2993   0.672E-03    0.308E-02
RMM:   7    -0.232877762031E+04    0.62624E-05   -0.24542E-05  2938   0.317E-03
  19 F= -.23502853E+04 E0= -.23502839E+04  d E =-.289126E-02  mag=     3.9736
       N       E                     dE             d eps       ncg     rms          rms(c)
DAV:   1    -0.232877783439E+04   -0.20781E-03   -0.60792E-01  4960   0.426E-01    0.270E-01
RMM:   2    -0.232877763199E+04    0.20240E-03   -0.37036E-03  4210   0.327E-02    0.160E-01
RMM:   3    -0.232877780153E+04   -0.16954E-03   -0.95294E-04  4641   0.185E-02    0.170E-01
RMM:   4    -0.232877756520E+04    0.23632E-03   -0.63417E-04  3927   0.120E-02    0.100E-01
RMM:   5    -0.232877750531E+04    0.59895E-04   -0.14345E-04  3130   0.703E-03    0.742E-02
RMM:   6    -0.232877744766E+04    0.57648E-04   -0.43852E-05  2798   0.443E-03    0.162E-02
RMM:   7    -0.232877744586E+04    0.18043E-05   -0.78158E-06  2635   0.207E-03
  20 F= -.23502850E+04 E0= -.23502834E+04  d E =-.312290E-02  mag=     3.9724
       N       E                     dE             d eps       ncg     rms          rms(c)
DAV:   1    -0.232878961118E+04   -0.12164E-01   -0.12203E+00  4720   0.581E-01    0.405E-01
RMM:   2    -0.232878776599E+04    0.18452E-02   -0.99762E-03  4270   0.447E-02    0.223E-01
RMM:   3    -0.232878763473E+04    0.13127E-03   -0.15948E-03  4231   0.262E-02    0.179E-01
RMM:   4    -0.232878779666E+04   -0.16193E-03   -0.13806E-03  4575   0.168E-02    0.189E-01
RMM:   5    -0.232878744653E+04    0.35013E-03   -0.38782E-04  4100   0.108E-02    0.779E-02
RMM:   6    -0.232878743184E+04    0.14693E-04   -0.13921E-04  2904   0.590E-03    0.681E-02
RMM:   7    -0.232878738818E+04    0.43660E-04   -0.32874E-05  2732   0.371E-03    0.154E-02
RMM:   8    -0.232878738980E+04   -0.16177E-05   -0.14195E-05  2581   0.244E-03
  21 F= -.23502955E+04 E0= -.23502939E+04  d E =-.315286E-02  mag=     3.9736
       N       E                     dE             d eps       ncg     rms          rms(c)
DAV:   1    -0.232877455933E+04    0.12829E-01   -0.61739E-01  4960   0.419E-01    0.438E-01
RMM:   2    -0.232877108554E+04    0.34738E-02   -0.13345E-02  4364   0.510E-02    0.230E-01
RMM:   3    -0.232877077482E+04    0.31073E-03   -0.21597E-03  4104   0.323E-02    0.208E-01
RMM:   4    -0.232877079409E+04   -0.19274E-04   -0.15276E-03  4512   0.166E-02    0.210E-01
RMM:   5    -0.232877046043E+04    0.33366E-03   -0.46340E-04  3999   0.112E-02    0.100E-01
RMM:   6    -0.232877040549E+04    0.54942E-04   -0.20577E-04  3176   0.757E-03    0.718E-02
RMM:   7    -0.232877034779E+04    0.57704E-04   -0.41814E-05  2752   0.461E-03    0.171E-02
RMM:   8    -0.232877035072E+04   -0.29306E-05   -0.19167E-05  2625   0.274E-03
  22 F= -.23502783E+04 E0= -.23502767E+04  d E =-.308713E-02  mag=     3.9719
       N       E                     dE             d eps       ncg     rms          rms(c)
DAV:   1    -0.232879507060E+04   -0.24723E-01   -0.12223E+00  4960   0.592E-01    0.566E-01
RMM:   2    -0.232878966602E+04    0.54046E-02   -0.21766E-02  4428   0.623E-02    0.302E-01
RMM:   3    -0.232878906400E+04    0.60202E-03   -0.34426E-03  4246   0.383E-02    0.275E-01
RMM:   4    -0.232878935323E+04   -0.28922E-03   -0.25017E-03  5014   0.210E-02    0.317E-01
RMM:   5    -0.232878850250E+04    0.85073E-03   -0.84585E-04  4564   0.151E-02    0.109E-01
RMM:   6    -0.232878846562E+04    0.36876E-04   -0.36191E-04  3526   0.912E-03    0.928E-02
RMM:   7    -0.232878836412E+04    0.10151E-03   -0.79126E-05  2930   0.579E-03    0.202E-02
RMM:   8    -0.232878837059E+04   -0.64732E-05   -0.32421E-05  2784   0.338E-03
  23 F= -.23502960E+04 E0= -.23502944E+04  d E =-.318230E-02  mag=     3.9739
       N       E                     dE             d eps       ncg     rms          rms(c)
DAV:   1    -0.232877754299E+04    0.10821E-01   -0.59971E-01  4720   0.412E-01    0.351E-01
RMM:   2    -0.232877565092E+04    0.18921E-02   -0.78853E-03  4704   0.371E-02    0.203E-01
RMM:   3    -0.232877591451E+04   -0.26359E-03   -0.18174E-03  4012   0.284E-02    0.275E-01
RMM:   4    -0.232877538339E+04    0.53112E-03   -0.10249E-03  4503   0.143E-02    0.161E-01
RMM:   5    -0.232877519506E+04    0.18833E-03   -0.29180E-04  3949   0.928E-03    0.642E-02
RMM:   6    -0.232877518590E+04    0.91625E-05   -0.13711E-04  2930   0.636E-03    0.553E-02
RMM:   7    -0.232877514474E+04    0.41167E-04   -0.28083E-05  2729   0.397E-03    0.127E-02
RMM:   8    -0.232877514633E+04   -0.15909E-05   -0.10747E-05  2536   0.221E-03
  24 F= -.23502832E+04 E0= -.23502818E+04  d E =-.281936E-02  mag=     3.9745
       N       E                     dE             d eps       ncg     rms          rms(c)
DAV:   1    -0.232879546854E+04   -0.20324E-01   -0.11718E+00  4480   0.566E-01    0.311E-01
RMM:   2    -0.232879547816E+04   -0.96147E-05   -0.49460E-03  4585   0.364E-02    0.203E-01
RMM:   3    -0.232879653515E+04   -0.10570E-02   -0.20048E-03  4491   0.279E-02    0.348E-01
RMM:   4    -0.232879533860E+04    0.11966E-02   -0.11458E-03  4774   0.163E-02    0.116E-01
RMM:   5    -0.232879532625E+04    0.12348E-04   -0.37068E-04  3680   0.914E-03    0.876E-02
RMM:   6    -0.232879522405E+04    0.10220E-03   -0.79349E-05  2832   0.555E-03    0.149E-02
RMM:   7    -0.232879522235E+04    0.17035E-05   -0.87699E-06  2655   0.229E-03
  25 F= -.23503027E+04 E0= -.23503010E+04  d E =-.343311E-02  mag=     3.9724
       N       E                     dE             d eps       ncg     rms          rms(c)
DAV:   1    -0.232877531606E+04    0.19908E-01   -0.60192E-01  4480   0.429E-01    0.263E-01
RMM:   2    -0.232877486789E+04    0.44817E-03   -0.48971E-03  4250   0.331E-02    0.164E-01
RMM:   3    -0.232877509877E+04   -0.23088E-03   -0.11376E-03  4220   0.213E-02    0.210E-01
RMM:   4    -0.232877477243E+04    0.32634E-03   -0.64993E-04  4227   0.123E-02    0.128E-01
RMM:   5    -0.232877473568E+04    0.36750E-04   -0.30929E-04  3628   0.843E-03    0.987E-02
RMM:   6    -0.232877463452E+04    0.10115E-03   -0.10827E-04  2812   0.583E-03    0.225E-02
RMM:   7    -0.232877463162E+04    0.29071E-05   -0.11253E-05  2593   0.264E-03
  26 F= -.23502820E+04 E0= -.23502805E+04  d E =-.310170E-02  mag=     3.9728
       N       E                     dE             d eps       ncg     rms          rms(c)
DAV:   1    -0.232879151764E+04   -0.16883E-01   -0.12261E+00  4640   0.574E-01    0.403E-01
RMM:   2    -0.232879013549E+04    0.13822E-02   -0.97609E-03  4244   0.466E-02    0.235E-01
RMM:   3    -0.232879040069E+04   -0.26520E-03   -0.21235E-03  4450   0.301E-02    0.236E-01
RMM:   4    -0.232879014204E+04    0.25865E-03   -0.13829E-03  4907   0.175E-02    0.181E-01
RMM:   5    -0.232878992724E+04    0.21480E-03   -0.43796E-04  3893   0.109E-02    0.110E-01
RMM:   6    -0.232878982348E+04    0.10377E-03   -0.16192E-04  2949   0.711E-03    0.507E-02
RMM:   7    -0.232878980028E+04    0.23193E-04   -0.27691E-05  2713   0.368E-03    0.219E-02
RMM:   8    -0.232878979686E+04    0.34240E-05   -0.12720E-05  2540   0.252E-03
  27 F= -.23502980E+04 E0= -.23502964E+04  d E =-.313125E-02  mag=     3.9727
       N       E                     dE             d eps       ncg     rms          rms(c)
DAV:   1    -0.232878248054E+04    0.73197E-02   -0.60970E-01  4480   0.400E-01    0.232E-01
RMM:   2    -0.232878249326E+04   -0.12724E-04   -0.21065E-03  3694   0.234E-02    0.142E-01
RMM:   3    -0.232878294949E+04   -0.45623E-03   -0.90756E-04  4334   0.159E-02    0.214E-01
RMM:   4    -0.232878247458E+04    0.47492E-03   -0.41421E-04  3754   0.103E-02    0.531E-02
RMM:   5    -0.232878246455E+04    0.10023E-04   -0.80860E-05  2904   0.501E-03    0.353E-02
RMM:   6    -0.232878245338E+04    0.11173E-04   -0.24622E-05  2455   0.309E-03    0.162E-02
RMM:   7    -0.232878245070E+04    0.26816E-05   -0.61819E-06  2467   0.175E-03
  28 F= -.23502899E+04 E0= -.23502883E+04  d E =-.316228E-02  mag=     3.9736
       N       E                     dE             d eps       ncg     rms          rms(c)
DAV:   1    -0.232878086479E+04    0.15886E-02   -0.12185E+00  4640   0.574E-01    0.477E-01
RMM:   2    -0.232877809323E+04    0.27716E-02   -0.14210E-02  4157   0.559E-02    0.285E-01
RMM:   3    -0.232877845388E+04   -0.36065E-03   -0.34422E-03  4767   0.370E-02    0.329E-01
RMM:   4    -0.232877774065E+04    0.71323E-03   -0.21082E-03  5244   0.213E-02    0.231E-01
RMM:   5    -0.232877751647E+04    0.22418E-03   -0.82591E-04  4410   0.136E-02    0.157E-01
RMM:   6    -0.232877726006E+04    0.25641E-03   -0.31082E-04  3158   0.885E-03    0.551E-02
RMM:   7    -0.232877723196E+04    0.28100E-04   -0.47121E-05  2833   0.455E-03    0.289E-02
RMM:   8    -0.232877723015E+04    0.18133E-05   -0.28707E-05  2601   0.325E-03
  29 F= -.23502853E+04 E0= -.23502838E+04  d E =-.305480E-02  mag=     3.9725
       N       E                     dE             d eps       ncg     rms          rms(c)
DAV:   1    -0.232881886688E+04   -0.41635E-01   -0.62599E-01  4720   0.420E-01    0.384E-01
RMM:   2    -0.232881674057E+04    0.21263E-02   -0.10095E-02  4232   0.442E-02    0.207E-01
RMM:   3    -0.232881645168E+04    0.28889E-03   -0.15026E-03  4608   0.249E-02    0.156E-01
RMM:   4    -0.232881663486E+04   -0.18319E-03   -0.11069E-03  4609   0.152E-02    0.180E-01
RMM:   5    -0.232881622976E+04    0.40511E-03   -0.36906E-04  3651   0.103E-02    0.596E-02
RMM:   6    -0.232881625081E+04   -0.21052E-04   -0.12657E-04  2878   0.591E-03    0.731E-02
RMM:   7    -0.232881619471E+04    0.56099E-04   -0.36967E-05  2674   0.398E-03    0.142E-02
RMM:   8    -0.232881619588E+04   -0.11733E-05   -0.11310E-05  2407   0.205E-03
  30 F= -.23503239E+04 E0= -.23503224E+04  d E =-.302965E-02  mag=     3.9725
       N       E                     dE             d eps       ncg     rms          rms(c)
DAV:   1    -0.232875207950E+04    0.64115E-01   -0.12001E+00  4640   0.563E-01    0.425E-01
RMM:   2    -0.232875068490E+04    0.13946E-02   -0.11333E-02  4277   0.461E-02    0.243E-01
RMM:   3    -0.232875116416E+04   -0.47926E-03   -0.24605E-03  4906   0.290E-02    0.313E-01
RMM:   4    -0.232875039910E+04    0.76507E-03   -0.14881E-03  4719   0.182E-02    0.179E-01
RMM:   5    -0.232875031147E+04    0.87625E-04   -0.58099E-04  3586   0.108E-02    0.147E-01
RMM:   6    -0.232875010160E+04    0.20987E-03   -0.21257E-04  2986   0.802E-03    0.291E-02
RMM:   7    -0.232875009724E+04    0.43641E-05   -0.21477E-05  2764   0.325E-03
  31 F= -.23502579E+04 E0= -.23502563E+04  d E =-.323828E-02  mag=     3.9729
       N       E                     dE             d eps       ncg     rms          rms(c)
DAV:   1    -0.232876200178E+04   -0.11900E-01   -0.60707E-01  4720   0.427E-01    0.419E-01
RMM:   2    -0.232876127343E+04    0.72835E-03   -0.21211E-02  4750   0.543E-02    0.281E-01
RMM:   3    -0.232876031787E+04    0.95556E-03   -0.23096E-03  4605   0.297E-02    0.185E-01
RMM:   4    -0.232876056467E+04   -0.24681E-03   -0.14061E-03  4736   0.163E-02    0.213E-01
RMM:   5    -0.232876019661E+04    0.36806E-03   -0.51751E-04  4016   0.116E-02    0.118E-01
RMM:   6    -0.232876008224E+04    0.11437E-03   -0.17362E-04  2963   0.696E-03    0.525E-02
RMM:   7    -0.232876005511E+04    0.27133E-04   -0.43406E-05  2863   0.398E-03    0.950E-03
RMM:   8    -0.232876005624E+04   -0.11368E-05   -0.93115E-06  2549   0.264E-03
  32 F= -.23502678E+04 E0= -.23502663E+04  d E =-.296706E-02  mag=     3.9738
       N       E                     dE             d eps       ncg     rms          rms(c)
DAV:   1    -0.232879477392E+04   -0.34719E-01   -0.12029E+00  4880   0.472E-01    0.729E-01
RMM:   2    -0.232879310095E+04    0.16730E-02   -0.73123E-02  5221   0.893E-02    0.539E-01
RMM:   3    -0.232878977471E+04    0.33262E-02   -0.92097E-03  5138   0.576E-02    0.372E-01
RMM:   4    -0.232878937158E+04    0.40312E-03   -0.36994E-03  5292   0.264E-02    0.301E-01
RMM:   5    -0.232878934228E+04    0.29307E-04   -0.17422E-03  4558   0.178E-02    0.285E-01
RMM:   6    -0.232878862626E+04    0.71602E-03   -0.82347E-04  3771   0.130E-02    0.871E-02
RMM:   7    -0.232878855786E+04    0.68400E-04   -0.16198E-04  3381   0.667E-03    0.373E-02
RMM:   8    -0.232878854058E+04    0.17278E-04   -0.29686E-05  2823   0.419E-03    0.149E-02
RMM:   9    -0.232878854003E+04    0.54402E-06   -0.14349E-05  2720   0.254E-03
  33 F= -.23502964E+04 E0= -.23502947E+04  d E =-.326287E-02  mag=     3.9720
       N       E                     dE             d eps       ncg     rms          rms(c)
DAV:   1    -0.232878072122E+04    0.78194E-02   -0.62721E-01  4960   0.373E-01    0.588E-01
RMM:   2    -0.232877841583E+04    0.23054E-02   -0.40537E-02  5357   0.710E-02    0.448E-01
RMM:   3    -0.232877715915E+04    0.12567E-02   -0.66096E-03  4888   0.505E-02    0.353E-01
RMM:   4    -0.232877629303E+04    0.86612E-03   -0.23446E-03  5077   0.217E-02    0.224E-01
RMM:   5    -0.232877647725E+04   -0.18422E-03   -0.11982E-03  4212   0.143E-02    0.253E-01
RMM:   6    -0.232877587103E+04    0.60622E-03   -0.58034E-04  3448   0.112E-02    0.515E-02
RMM:   7    -0.232877585853E+04    0.12500E-04   -0.85691E-05  3039   0.538E-03    0.346E-02
RMM:   8    -0.232877584190E+04    0.16632E-04   -0.20033E-05  2743   0.340E-03    0.891E-03
RMM:   9    -0.232877584143E+04    0.47048E-06   -0.60475E-06  2587   0.183E-03
  34 F= -.23502834E+04 E0= -.23502818E+04  d E =-.312119E-02  mag=     3.9732
       N       E                     dE             d eps       ncg     rms          rms(c)
DAV:   1    -0.232878682352E+04   -0.10982E-01   -0.11584E+00  4880   0.471E-01    0.604E-01
RMM:   2    -0.232878615492E+04    0.66861E-03   -0.39441E-02  5466   0.710E-02    0.493E-01
RMM:   3    -0.232878513428E+04    0.10206E-02   -0.76764E-03  5077   0.522E-02    0.416E-01
RMM:   4    -0.232878386018E+04    0.12741E-02   -0.28322E-03  5237   0.239E-02    0.242E-01
RMM:   5    -0.232878438083E+04   -0.52065E-03   -0.17346E-03  4620   0.169E-02    0.301E-01
RMM:   6    -0.232878353556E+04    0.84527E-03   -0.78054E-04  3913   0.131E-02    0.568E-02
RMM:   7    -0.232878352430E+04    0.11268E-04   -0.13057E-04  3188   0.622E-03    0.461E-02
RMM:   8    -0.232878349571E+04    0.28589E-04   -0.33974E-05  2873   0.421E-03    0.131E-02
RMM:   9    -0.232878349473E+04    0.97658E-06   -0.13572E-05  2799   0.250E-03
  35 F= -.23502915E+04 E0= -.23502899E+04  d E =-.312685E-02  mag=     3.9722
       N       E                     dE             d eps       ncg     rms          rms(c)
DAV:   1    -0.232877987701E+04    0.36187E-02   -0.59568E-01  4800   0.346E-01    0.468E-01
RMM:   2    -0.232877893011E+04    0.94690E-03   -0.22504E-02  5304   0.542E-02    0.377E-01
RMM:   3    -0.232877855393E+04    0.37618E-03   -0.44916E-03  4704   0.392E-02    0.334E-01
RMM:   4    -0.232877764421E+04    0.90972E-03   -0.17114E-03  4892   0.189E-02    0.186E-01
RMM:   5    -0.232877788453E+04   -0.24031E-03   -0.95855E-04  3981   0.125E-02    0.224E-01
RMM:   6    -0.232877741330E+04    0.47123E-03   -0.45002E-04  3266   0.101E-02    0.377E-02
RMM:   7    -0.232877741004E+04    0.32567E-05   -0.60010E-05  2918   0.460E-03
  36 F= -.23502852E+04 E0= -.23502837E+04  d E =-.307566E-02  mag=     3.9729
       N       E                     dE             d eps       ncg     rms          rms(c)
DAV:   1    -0.232878782312E+04   -0.10410E-01   -0.11332E+00  4640   0.460E-01    0.482E-01
RMM:   2    -0.232878779017E+04    0.32952E-04   -0.20443E-02  5243   0.521E-02    0.371E-01
RMM:   3    -0.232878778482E+04    0.53490E-05   -0.42149E-03  4665   0.371E-02    0.364E-01
RMM:   4    -0.232878694886E+04    0.83596E-03   -0.21648E-03  4994   0.208E-02    0.223E-01
RMM:   5    -0.232878721227E+04   -0.26341E-03   -0.11581E-03  4242   0.144E-02    0.238E-01
RMM:   6    -0.232878668353E+04    0.52874E-03   -0.50493E-04  3446   0.109E-02    0.474E-02
RMM:   7    -0.232878667052E+04    0.13010E-04   -0.81183E-05  3092   0.514E-03    0.282E-02
RMM:   8    -0.232878666213E+04    0.83959E-05   -0.21060E-05  2749   0.339E-03
  37 F= -.23502944E+04 E0= -.23502928E+04  d E =-.322493E-02  mag=     3.9721
