       N       E                     dE             d eps       ncg     rms          rms(c)
DAV:   1     0.120935611194E+05    0.12094E+05   -0.83187E+05  4640   0.140E+03
DAV:   2    -0.129266059191E+04   -0.13386E+05   -0.12883E+05  5040   0.318E+02
DAV:   3    -0.248705686970E+04   -0.11944E+04   -0.11846E+04  5440   0.101E+02
DAV:   4    -0.251214502645E+04   -0.25088E+02   -0.24952E+02  5680   0.176E+01
DAV:   5    -0.251282669298E+04   -0.68167E+00   -0.68055E+00  5840   0.253E+00    0.170E+02
RMM:   6    -0.147796389587E+04    0.10349E+04   -0.18754E+03  4501   0.374E+01    0.725E+01
RMM:   7    -0.164714609194E+04   -0.16918E+03   -0.26411E+02  5006   0.131E+01    0.527E+01
RMM:   8    -0.169454267811E+04   -0.47397E+02   -0.74208E+01  5207   0.759E+00    0.417E+01
RMM:   9    -0.178120211517E+04   -0.86659E+02   -0.65342E+01  4948   0.748E+00    0.349E+01
RMM:  10    -0.189297993902E+04   -0.11178E+03   -0.52514E+01  5089   0.687E+00    0.211E+01
RMM:  11    -0.201410806658E+04   -0.12113E+03   -0.49684E+01  5102   0.556E+00    0.156E+01
RMM:  12    -0.213413468618E+04   -0.12003E+03   -0.71994E+01  4612   0.624E+00    0.120E+01
RMM:  13    -0.223292854269E+04   -0.98794E+02   -0.75564E+01  4596   0.618E+00    0.812E+00
RMM:  14    -0.229182556957E+04   -0.58897E+02   -0.57063E+01  4703   0.532E+00    0.456E+00
RMM:  15    -0.229905372868E+04   -0.72282E+01   -0.90173E+00  4811   0.299E+00    0.318E+00
RMM:  16    -0.230386667885E+04   -0.48130E+01   -0.47460E+00  4625   0.128E+00    0.154E+00
RMM:  17    -0.230562938957E+04   -0.17627E+01   -0.14347E+00  4651   0.105E+00    0.792E-01
RMM:  18    -0.230632755886E+04   -0.69817E+00   -0.48068E-01  4769   0.409E-01    0.477E-01
RMM:  19    -0.230644492071E+04   -0.11736E+00   -0.12239E-01  4774   0.279E-01    0.271E-01
RMM:  20    -0.230648949596E+04   -0.44575E-01   -0.32405E-02  4613   0.125E-01    0.174E-01
RMM:  21    -0.230650729787E+04   -0.17802E-01   -0.85275E-03  4575   0.965E-02    0.118E-01
RMM:  22    -0.230652133366E+04   -0.14036E-01   -0.56533E-03  4530   0.551E-02    0.829E-02
RMM:  23    -0.230652927254E+04   -0.79389E-02   -0.24906E-03  4501   0.472E-02    0.543E-02
RMM:  24    -0.230653465083E+04   -0.53783E-02   -0.21583E-03  4500   0.340E-02    0.377E-02
RMM:  25    -0.230653629048E+04   -0.16396E-02   -0.73496E-04  4170   0.272E-02    0.182E-02
RMM:  26    -0.230653687702E+04   -0.58654E-03   -0.28163E-04  4056   0.126E-02    0.125E-02
RMM:  27    -0.230653714446E+04   -0.26743E-03   -0.94346E-05  3721   0.107E-02    0.631E-03
RMM:  28    -0.230653729610E+04   -0.15165E-03   -0.53142E-05  3593   0.601E-03    0.451E-03
RMM:  29    -0.230653736140E+04   -0.65297E-04   -0.18955E-05  3133   0.470E-03    0.233E-03
RMM:  30    -0.230653738450E+04   -0.23096E-04   -0.87703E-06  2942   0.302E-03    0.142E-03
RMM:  31    -0.230653739185E+04   -0.73516E-05   -0.39319E-06  2581   0.237E-03
   1 F= -.23269040E+04 E0= -.23269040E+04  d E =-.176101E-05  mag=     6.0000
       N       E                     dE             d eps       ncg     rms          rms(c)
DAV:   1    -0.230649967863E+04    0.37706E-01   -0.20041E+00  4480   0.444E-01    0.311E-01
RMM:   2    -0.230650049855E+04   -0.81992E-03   -0.15549E-02  4160   0.393E-02    0.212E-01
RMM:   3    -0.230650026338E+04    0.23517E-03   -0.18840E-03  3985   0.196E-02    0.187E-01
RMM:   4    -0.230649999849E+04    0.26489E-03   -0.86786E-04  3916   0.111E-02    0.109E-01
RMM:   5    -0.230649990996E+04    0.88524E-04   -0.20552E-04  3077   0.788E-03    0.236E-02
RMM:   6    -0.230649990997E+04   -0.79308E-08   -0.40022E-05  2898   0.333E-03
   2 F= -.23268669E+04 E0= -.23268669E+04  d E =-.672444E-06  mag=     6.0000
       N       E                     dE             d eps       ncg     rms          rms(c)
DAV:   1    -0.230655307701E+04   -0.53167E-01   -0.80195E+00  4480   0.878E-01    0.623E-01
RMM:   2    -0.230655575111E+04   -0.26741E-02   -0.56364E-02  4394   0.779E-02    0.440E-01
RMM:   3    -0.230655502736E+04    0.72376E-03   -0.74401E-03  4712   0.405E-02    0.365E-01
RMM:   4    -0.230655397476E+04    0.10526E-02   -0.35638E-03  4666   0.212E-02    0.199E-01
RMM:   5    -0.230655370270E+04    0.27206E-03   -0.81891E-04  3629   0.143E-02    0.438E-02
RMM:   6    -0.230655371271E+04   -0.10008E-04   -0.13237E-04  3118   0.538E-03    0.259E-02
RMM:   7    -0.230655371522E+04   -0.25073E-05   -0.35199E-05  2967   0.432E-03
   3 F= -.23269200E+04 E0= -.23269200E+04  d E =-.740142E-05  mag=     5.9999
       N       E                     dE             d eps       ncg     rms          rms(c)
DAV:   1    -0.230650792486E+04    0.45788E-01   -0.39135E+00  4640   0.645E-01    0.409E-01
RMM:   2    -0.230650956465E+04   -0.16398E-02   -0.26843E-02  4113   0.505E-02    0.283E-01
RMM:   3    -0.230650892246E+04    0.64218E-03   -0.28294E-03  5025   0.226E-02    0.250E-01
RMM:   4    -0.230650851160E+04    0.41086E-03   -0.13719E-03  4123   0.129E-02    0.132E-01
RMM:   5    -0.230650839930E+04    0.11230E-03   -0.35044E-04  3318   0.854E-03    0.360E-02
RMM:   6    -0.230650840520E+04   -0.59006E-05   -0.51587E-05  2994   0.443E-03
   4 F= -.23268754E+04 E0= -.23268754E+04  d E =-.654529E-05  mag=     5.9999
       N       E                     dE             d eps       ncg     rms          rms(c)
DAV:   1    -0.230655957135E+04   -0.51172E-01   -0.76127E+00  4480   0.967E-01    0.584E-01
RMM:   2    -0.230656014136E+04   -0.57001E-03   -0.37958E-02  4192   0.644E-02    0.299E-01
RMM:   3    -0.230655924208E+04    0.89929E-03   -0.39249E-03  4786   0.325E-02    0.181E-01
RMM:   4    -0.230655933615E+04   -0.94075E-04   -0.12792E-03  3989   0.131E-02    0.137E-01
RMM:   5    -0.230655933776E+04   -0.16085E-05   -0.50386E-04  3424   0.960E-03    0.109E-01
RMM:   6    -0.230655928886E+04    0.48902E-04   -0.13018E-04  3055   0.622E-03    0.406E-02
RMM:   7    -0.230655929798E+04   -0.91243E-05   -0.36083E-05  2947   0.383E-03
   5 F= -.23269255E+04 E0= -.23269255E+04  d E =-.715882E-06  mag=     6.0000
       N       E                     dE             d eps       ncg     rms          rms(c)
DAV:   1    -0.230654334750E+04    0.15941E-01   -0.38981E+00  4480   0.684E-01    0.430E-01
RMM:   2    -0.230654390676E+04   -0.55926E-03   -0.28338E-02  4118   0.581E-02    0.227E-01
RMM:   3    -0.230654338221E+04    0.52455E-03   -0.23841E-03  4192   0.262E-02    0.166E-01
RMM:   4    -0.230654341466E+04   -0.32454E-04   -0.14712E-03  4542   0.138E-02    0.180E-01
RMM:   5    -0.230654315038E+04    0.26429E-03   -0.49908E-04  3626   0.103E-02    0.460E-02
RMM:   6    -0.230654315944E+04   -0.90621E-05   -0.74831E-05  3013   0.531E-03
   6 F= -.23269097E+04 E0= -.23269097E+04  d E =-.332669E-06  mag=     6.0000
       N       E                     dE             d eps       ncg     rms          rms(c)
DAV:   1    -0.230651011851E+04    0.33032E-01   -0.77348E+00  4480   0.104E+00    0.644E-01
RMM:   2    -0.230651103541E+04   -0.91690E-03   -0.62586E-02  4469   0.871E-02    0.395E-01
RMM:   3    -0.230650941595E+04    0.16195E-02   -0.61139E-03  5421   0.364E-02    0.327E-01
RMM:   4    -0.230650874299E+04    0.67296E-03   -0.34013E-03  5099   0.210E-02    0.259E-01
RMM:   5    -0.230650795495E+04    0.78804E-03   -0.13200E-03  4315   0.159E-02    0.571E-02
RMM:   6    -0.230650794824E+04    0.67119E-05   -0.16518E-04  3183   0.867E-03    0.313E-02
RMM:   7    -0.230650794678E+04    0.14589E-05   -0.86780E-05  3164   0.476E-03
   7 F= -.23268746E+04 E0= -.23268746E+04  d E =-.833818E-05  mag=     5.9999
       N       E                     dE             d eps       ncg     rms          rms(c)
DAV:   1    -0.230653027582E+04   -0.22328E-01   -0.75311E+00  4640   0.109E+00    0.604E-01
RMM:   2    -0.230653384039E+04   -0.35646E-02   -0.82690E-02  4192   0.954E-02    0.292E-01
RMM:   3    -0.230653229556E+04    0.15448E-02   -0.42884E-03  4794   0.294E-02    0.152E-01
RMM:   4    -0.230653224965E+04    0.45907E-04   -0.17695E-03  4390   0.163E-02    0.157E-01
RMM:   5    -0.230653203931E+04    0.21034E-03   -0.50292E-04  3538   0.101E-02    0.652E-02
RMM:   6    -0.230653201283E+04    0.26476E-04   -0.70157E-05  3045   0.525E-03    0.213E-02
RMM:   7    -0.230653201316E+04   -0.32960E-06   -0.23891E-05  2958   0.375E-03
   8 F= -.23268992E+04 E0= -.23268992E+04  d E =-.126992E-05  mag=     6.0000
       N       E                     dE             d eps       ncg     rms          rms(c)
DAV:   1    -0.230651661849E+04    0.15394E-01   -0.20324E+01  4480   0.187E+00    0.994E-01
RMM:   2    -0.230651728792E+04   -0.66943E-03   -0.16400E-01  4210   0.129E-01    0.444E-01
RMM:   3    -0.230651492734E+04    0.23606E-02   -0.96147E-03  5315   0.482E-02    0.377E-01
RMM:   4    -0.230651445995E+04    0.46738E-03   -0.33730E-03  4740   0.212E-02    0.266E-01
RMM:   5    -0.230651400989E+04    0.45006E-03   -0.14065E-03  4334   0.153E-02    0.785E-02
RMM:   6    -0.230651399914E+04    0.10745E-04   -0.18944E-04  3225   0.713E-03    0.255E-02
RMM:   7    -0.230651399007E+04    0.90697E-05   -0.44143E-05  3004   0.433E-03
   9 F= -.23268802E+04 E0= -.23268802E+04  d E =-.233455E-05  mag=     6.0000
       N       E                     dE             d eps       ncg     rms          rms(c)
DAV:   1    -0.230654014540E+04   -0.26146E-01   -0.10316E+01  4480   0.128E+00    0.615E-01
RMM:   2    -0.230654246224E+04   -0.23168E-02   -0.79099E-02  4089   0.892E-02    0.279E-01
RMM:   3    -0.230654122190E+04    0.12403E-02   -0.34550E-03  4862   0.268E-02    0.217E-01
RMM:   4    -0.230654122237E+04   -0.47535E-06   -0.14973E-03  4031   0.144E-02    0.191E-01
RMM:   5    -0.230654103354E+04    0.18884E-03   -0.67537E-04  3848   0.119E-02    0.510E-02
RMM:   6    -0.230654103071E+04    0.28319E-05   -0.68433E-05  3011   0.555E-03
  10 F= -.23269078E+04 E0= -.23269078E+04  d E =-.140937E-05  mag=     6.0000
       N       E                     dE             d eps       ncg     rms          rms(c)
DAV:   1    -0.230652895322E+04    0.12080E-01   -0.21005E+01  4560   0.177E+00    0.581E-01
RMM:   2    -0.230653380917E+04   -0.48560E-02   -0.80515E-02  4119   0.104E-01    0.330E-01
RMM:   3    -0.230653223660E+04    0.15726E-02   -0.48662E-03  4472   0.316E-02    0.137E-01
RMM:   4    -0.230653237134E+04   -0.13474E-03   -0.96713E-04  3746   0.196E-02    0.502E-02
RMM:   5    -0.230653239050E+04   -0.19160E-04   -0.16581E-04  3127   0.721E-03    0.522E-02
RMM:   6    -0.230653237321E+04    0.17291E-04   -0.41886E-05  2889   0.400E-03    0.199E-02
RMM:   7    -0.230653237430E+04   -0.10950E-05   -0.12174E-05  2838   0.259E-03
  11 F= -.23268989E+04 E0= -.23268989E+04  d E =-.190160E-05  mag=     6.0000
       N       E                     dE             d eps       ncg     rms          rms(c)
DAV:   1    -0.230650732159E+04    0.25052E-01   -0.10233E+01  4480   0.120E+00    0.567E-01
RMM:   2    -0.230650691258E+04    0.40901E-03   -0.52671E-02  4147   0.837E-02    0.323E-01
RMM:   3    -0.230650555094E+04    0.13616E-02   -0.52936E-03  5017   0.274E-02    0.188E-01
RMM:   4    -0.230650577105E+04   -0.22011E-03   -0.21268E-03  4490   0.189E-02    0.224E-01
RMM:   5    -0.230650536668E+04    0.40437E-03   -0.49869E-04  3594   0.102E-02    0.370E-02
RMM:   6    -0.230650536231E+04    0.43703E-05   -0.76246E-05  3001   0.481E-03
  12 F= -.23268721E+04 E0= -.23268721E+04  d E =-.613187E-05  mag=     6.0000
       N       E                     dE             d eps       ncg     rms          rms(c)
DAV:   1    -0.230653532138E+04   -0.29955E-01   -0.19858E+01  4480   0.165E+00    0.948E-01
RMM:   2    -0.230653396272E+04    0.13587E-02   -0.15703E-01  4304   0.136E-01    0.522E-01
RMM:   3    -0.230653112107E+04    0.28417E-02   -0.18635E-02  5682   0.514E-02    0.424E-01
RMM:   4    -0.230653049813E+04    0.62294E-03   -0.69379E-03  5290   0.291E-02    0.316E-01
RMM:   5    -0.230652970918E+04    0.78895E-03   -0.10204E-03  4401   0.142E-02    0.587E-02
RMM:   6    -0.230652978185E+04   -0.72672E-04   -0.19172E-04  3235   0.717E-03    0.351E-02
RMM:   7    -0.230652982233E+04   -0.40472E-04   -0.56331E-05  3067   0.505E-03    0.191E-02
RMM:   8    -0.230652984969E+04   -0.27361E-04   -0.25220E-05  3020   0.412E-03    0.632E-03
RMM:   9    -0.230652986606E+04   -0.16374E-04   -0.80566E-06  2923   0.317E-03    0.495E-03
RMM:  10    -0.230652988228E+04   -0.16215E-04   -0.90939E-06  2858   0.252E-03    0.291E-03
RMM:  11    -0.230652988924E+04   -0.69673E-05   -0.50447E-06  2781   0.254E-03
  13 F= -.23268964E+04 E0= -.23268964E+04  d E =-.490504E-06  mag=     6.0000
       N       E                     dE             d eps       ncg     rms          rms(c)
DAV:   1    -0.230653719223E+04   -0.73100E-02   -0.46519E+00  4480   0.824E-01    0.519E-01
RMM:   2    -0.230653723891E+04   -0.46683E-04   -0.37619E-02  4054   0.645E-02    0.293E-01
RMM:   3    -0.230653636100E+04    0.87791E-03   -0.46677E-03  5191   0.252E-02    0.217E-01
RMM:   4    -0.230653612085E+04    0.24015E-03   -0.14710E-03  4146   0.151E-02    0.140E-01
RMM:   5    -0.230653595969E+04    0.16116E-03   -0.18941E-04  3275   0.716E-03    0.308E-02
RMM:   6    -0.230653595827E+04    0.14172E-05   -0.44742E-05  2968   0.421E-03
  14 F= -.23269025E+04 E0= -.23269025E+04  d E =-.141337E-05  mag=     6.0000
       N       E                     dE             d eps       ncg     rms          rms(c)
DAV:   1    -0.230652232692E+04    0.13633E-01   -0.11002E+00  4960   0.276E-01    0.563E-01
RMM:   2    -0.230652017386E+04    0.21531E-02   -0.32227E-02  4019   0.479E-02    0.263E-01
RMM:   3    -0.230651990344E+04    0.27041E-03   -0.17747E-03  3550   0.234E-02    0.159E-01
RMM:   4    -0.230652000955E+04   -0.10610E-03   -0.67058E-04  3388   0.101E-02    0.140E-01
RMM:   5    -0.230651996960E+04    0.39949E-04   -0.43127E-04  3323   0.880E-03    0.869E-02
RMM:   6    -0.230651991895E+04    0.50647E-04   -0.54518E-05  2860   0.457E-03    0.127E-02
RMM:   7    -0.230651992058E+04   -0.16252E-05   -0.11302E-05  2634   0.208E-03
  15 F= -.23268867E+04 E0= -.23268867E+04  d E =-.212915E-05  mag=     6.0000
       N       E                     dE             d eps       ncg     rms          rms(c)
DAV:   1    -0.230653365931E+04   -0.13740E-01   -0.54000E-01  4480   0.204E-01    0.310E-01
RMM:   2    -0.230653328748E+04    0.37183E-03   -0.75206E-03  3744   0.247E-02    0.157E-01
RMM:   3    -0.230653331374E+04   -0.26263E-04   -0.50183E-04  3231   0.115E-02    0.100E-01
RMM:   4    -0.230653340304E+04   -0.89297E-04   -0.30447E-04  3094   0.685E-03    0.106E-01
RMM:   5    -0.230653334565E+04    0.57387E-04   -0.15438E-04  3000   0.571E-03    0.357E-02
RMM:   6    -0.230653334230E+04    0.33454E-05   -0.13175E-05  2701   0.275E-03
  16 F= -.23269000E+04 E0= -.23269000E+04  d E =-.285107E-05  mag=     6.0000
       N       E                     dE             d eps       ncg     rms          rms(c)
DAV:   1    -0.230653990925E+04   -0.65636E-02   -0.10666E+00  4480   0.280E-01    0.308E-01
RMM:   2    -0.230654081514E+04   -0.90588E-03   -0.39701E-03  3593   0.208E-02    0.186E-01
RMM:   3    -0.230654134913E+04   -0.53400E-03   -0.72913E-04  3828   0.104E-02    0.157E-01
RMM:   4    -0.230654123970E+04    0.10944E-03   -0.39119E-04  3182   0.814E-03    0.581E-02
RMM:   5    -0.230654122819E+04    0.11502E-04   -0.38224E-05  2827   0.401E-03    0.141E-02
RMM:   6    -0.230654123405E+04   -0.58537E-05   -0.88915E-06  2706   0.216E-03
  17 F= -.23269079E+04 E0= -.23269079E+04  d E =-.109346E-05  mag=     6.0000
       N       E                     dE             d eps       ncg     rms          rms(c)
DAV:   1    -0.230653446329E+04    0.67649E-02   -0.55438E-01  4560   0.211E-01    0.325E-01
RMM:   2    -0.230653418270E+04    0.28060E-03   -0.91816E-03  3770   0.274E-02    0.169E-01
RMM:   3    -0.230653415444E+04    0.28254E-04   -0.63282E-04  3265   0.121E-02    0.950E-02
RMM:   4    -0.230653418999E+04   -0.35542E-04   -0.22524E-04  3033   0.632E-03    0.478E-02
RMM:   5    -0.230653421921E+04   -0.29221E-04   -0.94283E-05  2775   0.523E-03    0.497E-02
RMM:   6    -0.230653420089E+04    0.18313E-04   -0.23506E-05  2607   0.275E-03    0.904E-03
RMM:   7    -0.230653420165E+04   -0.75575E-06   -0.45176E-06  2417   0.141E-03
  18 F= -.23269007E+04 E0= -.23269007E+04  d E =-.151462E-05  mag=     6.0000
       N       E                     dE             d eps       ncg     rms          rms(c)
DAV:   1    -0.230652176639E+04    0.12435E-01   -0.11002E+00  4960   0.305E-01    0.568E-01
RMM:   2    -0.230651936162E+04    0.24048E-02   -0.27827E-02  3967   0.479E-02    0.268E-01
RMM:   3    -0.230651897106E+04    0.39056E-03   -0.18492E-03  3582   0.245E-02    0.164E-01
RMM:   4    -0.230651915589E+04   -0.18483E-03   -0.10600E-03  3603   0.119E-02    0.177E-01
RMM:   5    -0.230651895711E+04    0.19879E-03   -0.46714E-04  3341   0.938E-03    0.664E-02
RMM:   6    -0.230651894799E+04    0.91171E-05   -0.45543E-05  2787   0.396E-03
  19 F= -.23268858E+04 E0= -.23268858E+04  d E =-.197902E-05  mag=     6.0000
       N       E                     dE             d eps       ncg     rms          rms(c)
DAV:   1    -0.230656235380E+04   -0.43397E-01   -0.55676E-01  4880   0.221E-01    0.335E-01
RMM:   2    -0.230656182143E+04    0.53237E-03   -0.10098E-02  4010   0.303E-02    0.219E-01
RMM:   3    -0.230656174642E+04    0.75016E-04   -0.18345E-03  4010   0.171E-02    0.225E-01
RMM:   4    -0.230656138279E+04    0.36362E-03   -0.66181E-04  3546   0.958E-03    0.961E-02
RMM:   5    -0.230656133596E+04    0.46833E-04   -0.14525E-04  3048   0.577E-03    0.326E-02
RMM:   6    -0.230656133992E+04   -0.39567E-05   -0.31392E-05  2809   0.344E-03
  20 F= -.23269278E+04 E0= -.23269278E+04  d E =-.164441E-06  mag=     6.0000
       N       E                     dE             d eps       ncg     rms          rms(c)
DAV:   1    -0.230651391892E+04    0.47417E-01   -0.11178E+00  4560   0.289E-01    0.385E-01
RMM:   2    -0.230651369391E+04    0.22501E-03   -0.11123E-02  4623   0.311E-02    0.326E-01
RMM:   3    -0.230651321570E+04    0.47821E-03   -0.28623E-03  4537   0.200E-02    0.259E-01
RMM:   4    -0.230651267234E+04    0.54336E-03   -0.94017E-04  3958   0.110E-02    0.110E-01
RMM:   5    -0.230651260240E+04    0.69940E-04   -0.22798E-04  3155   0.708E-03    0.479E-02
RMM:   6    -0.230651259564E+04    0.67651E-05   -0.54730E-05  2914   0.403E-03
  21 F= -.23268794E+04 E0= -.23268794E+04  d E =-.185567E-04  mag=     5.9999
       N       E                     dE             d eps       ncg     rms          rms(c)
DAV:   1    -0.230653994185E+04   -0.27339E-01   -0.54362E-01  5040   0.211E-01    0.326E-01
RMM:   2    -0.230653882018E+04    0.11217E-02   -0.80390E-03  4476   0.250E-02    0.199E-01
RMM:   3    -0.230653846124E+04    0.35894E-03   -0.12941E-03  3852   0.154E-02    0.150E-01
RMM:   4    -0.230653843138E+04    0.29862E-04   -0.66486E-04  3644   0.901E-03    0.150E-01
RMM:   5    -0.230653823999E+04    0.19138E-03   -0.18850E-04  3066   0.646E-03    0.276E-02
RMM:   6    -0.230653823900E+04    0.99211E-06   -0.44918E-05  2824   0.337E-03
  22 F= -.23269041E+04 E0= -.23269041E+04  d E =-.377057E-05  mag=     5.9999
       N       E                     dE             d eps       ncg     rms          rms(c)
DAV:   1    -0.230652997398E+04    0.82660E-02   -0.10755E+00  5120   0.294E-01    0.403E-01
RMM:   2    -0.230652903759E+04    0.93639E-03   -0.15672E-02  4434   0.316E-02    0.259E-01
RMM:   3    -0.230652841085E+04    0.62674E-03   -0.21622E-03  4561   0.194E-02    0.227E-01
RMM:   4    -0.230652816298E+04    0.24788E-03   -0.10336E-03  3788   0.113E-02    0.144E-01
RMM:   5    -0.230652799024E+04    0.17273E-03   -0.25470E-04  3195   0.714E-03    0.364E-02
RMM:   6    -0.230652798909E+04    0.11498E-05   -0.56459E-05  2884   0.383E-03
  23 F= -.23268954E+04 E0= -.23268954E+04  d E =-.811556E-06  mag=     6.0000
       N       E                     dE             d eps       ncg     rms          rms(c)
DAV:   1    -0.230652336084E+04    0.46294E-02   -0.54824E-01  4560   0.203E-01    0.175E-01
RMM:   2    -0.230652355328E+04   -0.19244E-03   -0.26416E-03  3656   0.154E-02    0.106E-01
RMM:   3    -0.230652353042E+04    0.22853E-04   -0.35056E-04  3298   0.828E-03    0.988E-02
RMM:   4    -0.230652350106E+04    0.29363E-04   -0.23230E-04  2967   0.575E-03    0.642E-02
RMM:   5    -0.230652347410E+04    0.26958E-04   -0.60808E-05  2881   0.406E-03    0.175E-02
RMM:   6    -0.230652347467E+04   -0.57202E-06   -0.84222E-06  2541   0.207E-03
  24 F= -.23268905E+04 E0= -.23268905E+04  d E =-.598022E-05  mag=     6.0000
       N       E                     dE             d eps       ncg     rms          rms(c)
DAV:   1    -0.230654957486E+04   -0.26101E-01   -0.11039E+00  4480   0.287E-01    0.289E-01
RMM:   2    -0.230654943701E+04    0.13785E-03   -0.63311E-03  4217   0.224E-02    0.174E-01
RMM:   3    -0.230654923154E+04    0.20548E-03   -0.85190E-04  3745   0.136E-02    0.139E-01
RMM:   4    -0.230654923964E+04   -0.81051E-05   -0.56919E-04  3446   0.867E-03    0.130E-01
RMM:   5    -0.230654911454E+04    0.12511E-03   -0.19522E-04  3118   0.630E-03    0.251E-02
RMM:   6    -0.230654911704E+04   -0.25022E-05   -0.30152E-05  2819   0.297E-03
  25 F= -.23269154E+04 E0= -.23269154E+04  d E =-.545109E-06  mag=     6.0000
