       N       E                     dE             d eps       ncg     rms          rms(c)
DAV:   1     0.129149214682E+05    0.12915E+05   -0.83787E+05  4512   0.144E+03
DAV:   2    -0.106134193520E+04   -0.13976E+05   -0.13364E+05  5120   0.331E+02
DAV:   3    -0.247858960284E+04   -0.14172E+04   -0.14026E+04  5416   0.112E+02
DAV:   4    -0.252332820638E+04   -0.44739E+02   -0.44502E+02  6720   0.297E+01
DAV:   5    -0.252414054036E+04   -0.81233E+00   -0.81115E+00  6128   0.346E+00    0.170E+02
RMM:   6    -0.148721162525E+04    0.10369E+04   -0.19526E+03  4435   0.385E+01    0.725E+01
RMM:   7    -0.166461931730E+04   -0.17741E+03   -0.29121E+02  5001   0.140E+01    0.526E+01
RMM:   8    -0.171525952141E+04   -0.50640E+02   -0.91928E+01  5276   0.818E+00    0.435E+01
RMM:   9    -0.177149794527E+04   -0.56238E+02   -0.60543E+01  5099   0.714E+00    0.322E+01
RMM:  10    -0.191901213833E+04   -0.14751E+03   -0.63041E+01  5025   0.754E+00    0.256E+01
RMM:  11    -0.200146238304E+04   -0.82450E+02   -0.32100E+01  4933   0.491E+00    0.248E+01
RMM:  12    -0.206206489630E+04   -0.60603E+02   -0.24493E+01  4930   0.398E+00    0.166E+01
RMM:  13    -0.213805319595E+04   -0.75988E+02   -0.33686E+01  4741   0.443E+00    0.126E+01
RMM:  14    -0.224840962551E+04   -0.11036E+03   -0.87760E+01  4440   0.676E+00    0.783E+00
RMM:  15    -0.230029600875E+04   -0.51886E+02   -0.47962E+01  4478   0.518E+00    0.719E+00
RMM:  16    -0.230699594438E+04   -0.66999E+01   -0.87384E+00  5033   0.272E+00    0.528E+00
RMM:  17    -0.231469367063E+04   -0.76977E+01   -0.67654E+00  4418   0.164E+00    0.322E+00
RMM:  18    -0.231756693887E+04   -0.28733E+01   -0.16224E+00  4573   0.106E+00    0.251E+00
RMM:  19    -0.231834665792E+04   -0.77972E+00   -0.61239E-01  5107   0.477E-01    0.107E+00
RMM:  20    -0.231860327624E+04   -0.25662E+00   -0.19910E-01  4778   0.271E-01    0.627E-01
RMM:  21    -0.231869629523E+04   -0.93019E-01   -0.67816E-02  4727   0.172E-01    0.375E-01
RMM:  22    -0.231873999997E+04   -0.43705E-01   -0.33227E-02  4518   0.112E-01    0.200E-01
RMM:  23    -0.231876416036E+04   -0.24160E-01   -0.13589E-02  4518   0.870E-02    0.136E-01
RMM:  24    -0.231877696033E+04   -0.12800E-01   -0.43500E-03  4539   0.613E-02    0.949E-02
RMM:  25    -0.231878929159E+04   -0.12331E-01   -0.42825E-03  4416   0.476E-02    0.611E-02
RMM:  26    -0.231879372971E+04   -0.44381E-02   -0.13984E-03  4544   0.369E-02    0.400E-02
RMM:  27    -0.231879652809E+04   -0.27984E-02   -0.89047E-04  4146   0.212E-02    0.229E-02
RMM:  28    -0.231879796089E+04   -0.14328E-02   -0.43253E-04  3980   0.207E-02    0.151E-02
RMM:  29    -0.231879848344E+04   -0.52255E-03   -0.19511E-04  3824   0.115E-02    0.834E-03
RMM:  30    -0.231879869444E+04   -0.21100E-03   -0.66173E-05  3581   0.931E-03    0.515E-03
RMM:  31    -0.231879879041E+04   -0.95970E-04   -0.32564E-05  3311   0.507E-03    0.272E-03
RMM:  32    -0.231879883353E+04   -0.43114E-04   -0.12331E-05  2888   0.425E-03    0.192E-03
RMM:  33    -0.231879884763E+04   -0.14104E-04   -0.64369E-06  2768   0.278E-03    0.866E-04
RMM:  34    -0.231879885182E+04   -0.41858E-05   -0.29904E-06  2408   0.210E-03
   1 F= -.23396976E+04 E0= -.23396976E+04  d E =-.233970E+04  mag=     5.0001
       N       E                     dE             d eps       ncg     rms          rms(c)
DAV:   1    -0.231881251514E+04   -0.13668E-01   -0.62716E+00  5072   0.196E+00    0.769E-01
RMM:   2    -0.231893660738E+04   -0.12409E+00   -0.13010E+00  6321   0.523E-01    0.536E-01
RMM:   3    -0.231895069420E+04   -0.14087E-01   -0.17131E-01  5751   0.248E-01    0.547E-01
RMM:   4    -0.231894922925E+04    0.14649E-02   -0.12581E-02  5758   0.425E-02    0.284E-01
RMM:   5    -0.231894837162E+04    0.85763E-03   -0.26782E-03  5466   0.272E-02    0.193E-01
RMM:   6    -0.231894829718E+04    0.74440E-04   -0.16738E-03  5091   0.200E-02    0.173E-01
RMM:   7    -0.231894800708E+04    0.29010E-03   -0.65903E-04  4736   0.142E-02    0.711E-02
RMM:   8    -0.231894795920E+04    0.47879E-04   -0.11590E-04  3210   0.722E-03    0.321E-02
RMM:   9    -0.231894795397E+04    0.52368E-05   -0.51447E-05  2916   0.537E-03
   2 F= -.23398449E+04 E0= -.23398449E+04  d E =-.147310E+00  mag=     5.0000
       N       E                     dE             d eps       ncg     rms          rms(c)
DAV:   1    -0.231880237812E+04    0.14558E+00   -0.10042E+01  4656   0.252E+00    0.975E-01
RMM:   2    -0.231900335639E+04   -0.20098E+00   -0.20958E+00  6253   0.680E-01    0.730E-01
RMM:   3    -0.231902638725E+04   -0.23031E-01   -0.27978E-01  5708   0.343E-01    0.730E-01
RMM:   4    -0.231902297247E+04    0.34148E-02   -0.20247E-02  5988   0.552E-02    0.344E-01
RMM:   5    -0.231902215515E+04    0.81732E-03   -0.45360E-03  5705   0.345E-02    0.330E-01
RMM:   6    -0.231902158107E+04    0.57407E-03   -0.26733E-03  5373   0.241E-02    0.244E-01
RMM:   7    -0.231902109134E+04    0.48973E-03   -0.12019E-03  5410   0.188E-02    0.761E-02
RMM:   8    -0.231902105423E+04    0.37116E-04   -0.17775E-04  3430   0.956E-03    0.417E-02
RMM:   9    -0.231902105315E+04    0.10747E-05   -0.91905E-05  3074   0.649E-03
   3 F= -.23399160E+04 E0= -.23399160E+04  d E =-.218446E+00  mag=     5.0000
       N       E                     dE             d eps       ncg     rms          rms(c)
DAV:   1    -0.231900142814E+04    0.19626E-01   -0.57746E+00  4624   0.244E+00    0.959E-01
RMM:   2    -0.231906770327E+04   -0.66275E-01   -0.69819E-01  5967   0.529E-01    0.828E-01
RMM:   3    -0.231907006064E+04   -0.23574E-02   -0.76682E-02  5841   0.201E-01    0.748E-01
RMM:   4    -0.231906594743E+04    0.41132E-02   -0.92775E-03  5389   0.554E-02    0.315E-01
RMM:   5    -0.231906555815E+04    0.38928E-03   -0.33986E-03  5409   0.386E-02    0.286E-01
RMM:   6    -0.231906451707E+04    0.10411E-02   -0.17214E-03  4783   0.283E-02    0.690E-02
RMM:   7    -0.231906448808E+04    0.28988E-04   -0.33659E-04  4431   0.188E-02    0.439E-02
RMM:   8    -0.231906446994E+04    0.18139E-04   -0.71871E-05  3591   0.658E-03    0.162E-02
RMM:   9    -0.231906446403E+04    0.59060E-05   -0.22316E-05  2948   0.587E-03
   4 F= -.23399590E+04 E0= -.23399590E+04  d E =-.429618E-01  mag=     5.0000
       N       E                     dE             d eps       ncg     rms          rms(c)
DAV:   1    -0.231906429124E+04    0.17870E-03   -0.58327E-02  5356   0.247E-01    0.967E-02
RMM:   2    -0.231906497241E+04   -0.68117E-03   -0.70972E-03  6078   0.544E-02    0.909E-02
RMM:   3    -0.231906497286E+04   -0.44242E-06   -0.73399E-04  3674   0.203E-02    0.745E-02
RMM:   4    -0.231906493264E+04    0.40217E-04   -0.95463E-05  2993   0.682E-03    0.346E-02
RMM:   5    -0.231906492494E+04    0.77016E-05   -0.36677E-05  2908   0.505E-03
   5 F= -.23399594E+04 E0= -.23399594E+04  d E =-.433731E-01  mag=     5.0000
       N       E                     dE             d eps       ncg     rms          rms(c)
DAV:   1    -0.231900811074E+04    0.56822E-01   -0.49334E+00  4528   0.203E+00    0.747E-01
RMM:   2    -0.231910449952E+04   -0.96389E-01   -0.10192E+00  6295   0.486E-01    0.642E-01
RMM:   3    -0.231911347044E+04   -0.89709E-02   -0.11715E-01  5859   0.185E-01    0.594E-01
RMM:   4    -0.231911141412E+04    0.20563E-02   -0.10517E-02  5681   0.405E-02    0.232E-01
RMM:   5    -0.231911135369E+04    0.60436E-04   -0.17811E-03  5181   0.209E-02    0.229E-01
RMM:   6    -0.231911076649E+04    0.58720E-03   -0.10483E-03  5187   0.179E-02    0.982E-02
RMM:   7    -0.231911071297E+04    0.53515E-04   -0.34368E-04  4536   0.122E-02    0.460E-02
RMM:   8    -0.231911069828E+04    0.14690E-04   -0.47519E-05  3014   0.661E-03    0.178E-02
RMM:   9    -0.231911069438E+04    0.39025E-05   -0.12108E-05  2884   0.395E-03
   6 F= -.23400055E+04 E0= -.23400055E+04  d E =-.461382E-01  mag=     5.0000
       N       E                     dE             d eps       ncg     rms          rms(c)
DAV:   1    -0.231867975148E+04    0.43095E+00   -0.22328E+01  4480   0.431E+00    0.158E+00
RMM:   2    -0.231911468344E+04   -0.43493E+00   -0.46187E+00  6262   0.101E+00    0.129E+00
RMM:   3    -0.231916161734E+04   -0.46934E-01   -0.57593E-01  5750   0.430E-01    0.122E+00
RMM:   4    -0.231915255471E+04    0.90626E-02   -0.47323E-02  6072   0.865E-02    0.469E-01
RMM:   5    -0.231915190553E+04    0.64918E-03   -0.72600E-03  5584   0.425E-02    0.440E-01
RMM:   6    -0.231915034561E+04    0.15599E-02   -0.43800E-03  5750   0.343E-02    0.280E-01
RMM:   7    -0.231914965375E+04    0.69186E-03   -0.16241E-03  5172   0.243E-02    0.114E-01
RMM:   8    -0.231914956357E+04    0.90178E-04   -0.32374E-04  4275   0.143E-02    0.432E-02
RMM:   9    -0.231914954078E+04    0.22791E-04   -0.57978E-05  3159   0.674E-03    0.173E-02
RMM:  10    -0.231914953386E+04    0.69218E-05   -0.28291E-05  2976   0.460E-03
   7 F= -.23400447E+04 E0= -.23400447E+04  d E =-.853668E-01  mag=     4.9995
       N       E                     dE             d eps       ncg     rms          rms(c)
DAV:   1    -0.231911728133E+04    0.32259E-01   -0.32733E+00  4544   0.162E+00    0.596E-01
RMM:   2    -0.231917903776E+04   -0.61756E-01   -0.66286E-01  6258   0.398E-01    0.409E-01
RMM:   3    -0.231918511613E+04   -0.60784E-02   -0.71627E-02  5833   0.145E-01    0.383E-01
RMM:   4    -0.231918428478E+04    0.83135E-03   -0.69009E-03  5512   0.328E-02    0.200E-01
RMM:   5    -0.231918419341E+04    0.91378E-04   -0.11463E-03  4988   0.187E-02    0.181E-01
RMM:   6    -0.231918390934E+04    0.28406E-03   -0.70233E-04  5049   0.152E-02    0.102E-01
RMM:   7    -0.231918381693E+04    0.92413E-04   -0.21475E-04  4106   0.103E-02    0.326E-02
RMM:   8    -0.231918380858E+04    0.83505E-05   -0.35658E-05  2975   0.633E-03
   8 F= -.23400789E+04 E0= -.23400789E+04  d E =-.341383E-01  mag=     4.9994
       N       E                     dE             d eps       ncg     rms          rms(c)
DAV:   1    -0.231895554609E+04    0.22827E+00   -0.12296E+01  4496   0.316E+00    0.116E+00
RMM:   2    -0.231918961227E+04   -0.23407E+00   -0.25175E+00  6235   0.758E-01    0.785E-01
RMM:   3    -0.231921466826E+04   -0.25056E-01   -0.28793E-01  5855   0.288E-01    0.760E-01
RMM:   4    -0.231921140985E+04    0.32584E-02   -0.26145E-02  6127   0.632E-02    0.393E-01
RMM:   5    -0.231921071349E+04    0.69636E-03   -0.41138E-03  5316   0.333E-02    0.315E-01
RMM:   6    -0.231921021749E+04    0.49600E-03   -0.26997E-03  5686   0.278E-02    0.252E-01
RMM:   7    -0.231920956932E+04    0.64817E-03   -0.10085E-03  5106   0.197E-02    0.697E-02
RMM:   8    -0.231920952700E+04    0.42322E-04   -0.20929E-04  3962   0.109E-02    0.310E-02
RMM:   9    -0.231920951530E+04    0.11695E-04   -0.34874E-05  2998   0.611E-03    0.135E-02
RMM:  10    -0.231920951281E+04    0.24935E-05   -0.21830E-05  2949   0.430E-03
   9 F= -.23401042E+04 E0= -.23401041E+04  d E =-.594100E-01  mag=     4.9993
       N       E                     dE             d eps       ncg     rms          rms(c)
DAV:   1    -0.231918659390E+04    0.22921E-01   -0.28623E+00  4512   0.153E+00    0.624E-01
RMM:   2    -0.231923682817E+04   -0.50234E-01   -0.54712E-01  6185   0.378E-01    0.301E-01
RMM:   3    -0.231924180634E+04   -0.49782E-02   -0.59411E-02  5684   0.135E-01    0.194E-01
RMM:   4    -0.231924210404E+04   -0.29771E-03   -0.58491E-03  5330   0.304E-02    0.206E-01
RMM:   5    -0.231924179011E+04    0.31393E-03   -0.97941E-04  4741   0.173E-02    0.117E-01
RMM:   6    -0.231924180303E+04   -0.12914E-04   -0.46214E-04  4597   0.128E-02    0.114E-01
RMM:   7    -0.231924167987E+04    0.12316E-03   -0.17218E-04  3189   0.852E-03    0.273E-02
RMM:   8    -0.231924167703E+04    0.28484E-05   -0.31030E-05  3013   0.422E-03
  10 F= -.23401361E+04 E0= -.23401361E+04  d E =-.319558E-01  mag=     4.9997
       N       E                     dE             d eps       ncg     rms          rms(c)
DAV:   1    -0.231909393958E+04    0.14774E+00   -0.86957E+00  4468   0.267E+00    0.109E+00
RMM:   2    -0.231924855992E+04   -0.15462E+00   -0.16857E+00  6174   0.662E-01    0.535E-01
RMM:   3    -0.231926472311E+04   -0.16163E-01   -0.19480E-01  5696   0.243E-01    0.344E-01
RMM:   4    -0.231926522088E+04   -0.49778E-03   -0.18087E-02  5837   0.533E-02    0.295E-01
RMM:   5    -0.231926470073E+04    0.52015E-03   -0.31140E-03  5487   0.301E-02    0.215E-01
RMM:   6    -0.231926418030E+04    0.52043E-03   -0.12639E-03  5161   0.202E-02    0.782E-02
RMM:   7    -0.231926422266E+04   -0.42358E-04   -0.28852E-04  3676   0.124E-02    0.998E-02
RMM:   8    -0.231926415531E+04    0.67353E-04   -0.11073E-04  3012   0.634E-03    0.405E-02
RMM:   9    -0.231926414429E+04    0.11014E-04   -0.22520E-05  2908   0.415E-03    0.113E-02
RMM:  10    -0.231926414326E+04    0.10297E-05   -0.10589E-05  2914   0.311E-03
  11 F= -.23401581E+04 E0= -.23401581E+04  d E =-.539319E-01  mag=     4.9999
       N       E                     dE             d eps       ncg     rms          rms(c)
DAV:   1    -0.231924573921E+04    0.18405E-01   -0.30931E+00  4496   0.150E+00    0.600E-01
RMM:   2    -0.231929186648E+04   -0.46127E-01   -0.49760E-01  6124   0.374E-01    0.304E-01
RMM:   3    -0.231929609767E+04   -0.42312E-02   -0.55196E-02  5661   0.135E-01    0.193E-01
RMM:   4    -0.231929637820E+04   -0.28053E-03   -0.54734E-03  5278   0.318E-02    0.233E-01
RMM:   5    -0.231929610006E+04    0.27815E-03   -0.10967E-03  4792   0.190E-02    0.142E-01
RMM:   6    -0.231929596183E+04    0.13822E-03   -0.37815E-04  4569   0.123E-02    0.493E-02
RMM:   7    -0.231929596175E+04    0.81636E-07   -0.12303E-04  3134   0.845E-03    0.460E-02
RMM:   8    -0.231929593640E+04    0.25349E-04   -0.35920E-05  3012   0.457E-03    0.114E-02
RMM:   9    -0.231929593616E+04    0.24881E-06   -0.71724E-06  2873   0.274E-03
  12 F= -.23401903E+04 E0= -.23401903E+04  d E =-.321661E-01  mag=     5.0000
       N       E                     dE             d eps       ncg     rms          rms(c)
DAV:   1    -0.231923598082E+04    0.59956E-01   -0.45164E+00  4480   0.183E+00    0.724E-01
RMM:   2    -0.231930375740E+04   -0.67777E-01   -0.73146E-01  6096   0.461E-01    0.370E-01
RMM:   3    -0.231931022030E+04   -0.64629E-02   -0.83937E-02  5656   0.166E-01    0.230E-01
RMM:   4    -0.231931035813E+04   -0.13783E-03   -0.79887E-03  5395   0.390E-02    0.199E-01
RMM:   5    -0.231931035749E+04    0.63816E-06   -0.15907E-03  5132   0.238E-02    0.210E-01
RMM:   6    -0.231931004371E+04    0.31378E-03   -0.60493E-04  4769   0.143E-02    0.905E-02
RMM:   7    -0.231930999839E+04    0.45315E-04   -0.21176E-04  3316   0.102E-02    0.575E-02
RMM:   8    -0.231930996328E+04    0.35112E-04   -0.56029E-05  3128   0.535E-03    0.146E-02
RMM:   9    -0.231930996248E+04    0.79836E-06   -0.12735E-05  2898   0.334E-03
  13 F= -.23402047E+04 E0= -.23402047E+04  d E =-.465681E-01  mag=     5.0000
       N       E                     dE             d eps       ncg     rms          rms(c)
DAV:   1    -0.231929277998E+04    0.17183E-01   -0.29651E+00  4496   0.156E+00    0.523E-01
RMM:   2    -0.231932850934E+04   -0.35729E-01   -0.38371E-01  6082   0.353E-01    0.331E-01
RMM:   3    -0.231933188001E+04   -0.33707E-02   -0.39506E-02  5739   0.124E-01    0.385E-01
RMM:   4    -0.231933098553E+04    0.89448E-03   -0.39533E-03  5509   0.288E-02    0.182E-01
RMM:   5    -0.231933079238E+04    0.19315E-03   -0.11056E-03  5132   0.199E-02    0.140E-01
RMM:   6    -0.231933063206E+04    0.16033E-03   -0.60441E-04  4975   0.149E-02    0.803E-02
RMM:   7    -0.231933056127E+04    0.70783E-04   -0.12105E-04  3412   0.824E-03    0.232E-02
RMM:   8    -0.231933055807E+04    0.31993E-05   -0.28504E-05  2950   0.520E-03
  14 F= -.23402259E+04 E0= -.23402259E+04  d E =-.212160E-01  mag=     5.0000
       N       E                     dE             d eps       ncg     rms          rms(c)
DAV:   1    -0.231927067204E+04    0.59889E-01   -0.54383E+00  4480   0.213E+00    0.707E-01
RMM:   2    -0.231933613142E+04   -0.65459E-01   -0.70310E-01  6096   0.478E-01    0.443E-01
RMM:   3    -0.231934240167E+04   -0.62703E-02   -0.74035E-02  5772   0.172E-01    0.510E-01
RMM:   4    -0.231934085945E+04    0.15422E-02   -0.72063E-03  5834   0.390E-02    0.248E-01
RMM:   5    -0.231934047011E+04    0.38934E-03   -0.19655E-03  5341   0.262E-02    0.184E-01
RMM:   6    -0.231934022031E+04    0.24980E-03   -0.11053E-03  5379   0.197E-02    0.116E-01
RMM:   7    -0.231934006670E+04    0.15361E-03   -0.25366E-04  4154   0.109E-02    0.335E-02
RMM:   8    -0.231934005733E+04    0.93674E-05   -0.56916E-05  3060   0.629E-03
  15 F= -.23402362E+04 E0= -.23402362E+04  d E =-.315064E-01  mag=     5.0000
       N       E                     dE             d eps       ncg     rms          rms(c)
DAV:   1    -0.231932513063E+04    0.14936E-01   -0.25722E+00  4544   0.150E+00    0.444E-01
RMM:   2    -0.231935554700E+04   -0.30416E-01   -0.32105E-01  6155   0.323E-01    0.347E-01
RMM:   3    -0.231935778354E+04   -0.22365E-02   -0.31014E-02  5719   0.111E-01    0.334E-01
RMM:   4    -0.231935705961E+04    0.72393E-03   -0.31199E-03  5199   0.255E-02    0.158E-01
RMM:   5    -0.231935704072E+04    0.18885E-04   -0.85357E-04  4755   0.169E-02    0.167E-01
RMM:   6    -0.231935671960E+04    0.32112E-03   -0.60665E-04  5148   0.146E-02    0.526E-02
RMM:   7    -0.231935670500E+04    0.14598E-04   -0.10541E-04  3501   0.850E-03    0.273E-02
RMM:   8    -0.231935669998E+04    0.50177E-05   -0.19744E-05  2916   0.456E-03
  16 F= -.23402531E+04 E0= -.23402531E+04  d E =-.169790E-01  mag=     5.0000
       N       E                     dE             d eps       ncg     rms          rms(c)
DAV:   1    -0.231918396048E+04    0.17274E+00   -0.14838E+01  4472   0.360E+00    0.106E+00
RMM:   2    -0.231935847194E+04   -0.17451E+00   -0.18467E+00  6074   0.753E-01    0.788E-01
RMM:   3    -0.231937306120E+04   -0.14589E-01   -0.19165E-01  5758   0.279E-01    0.792E-01
RMM:   4    -0.231936871326E+04    0.43479E-02   -0.18065E-02  5983   0.621E-02    0.373E-01
RMM:   5    -0.231936837854E+04    0.33472E-03   -0.47131E-03  5428   0.374E-02    0.381E-01
RMM:   6    -0.231936693593E+04    0.14426E-02   -0.32693E-03  5675   0.312E-02    0.164E-01
RMM:   7    -0.231936668550E+04    0.25043E-03   -0.75765E-04  4892   0.190E-02    0.675E-02
RMM:   8    -0.231936664972E+04    0.35782E-04   -0.13558E-04  3574   0.964E-03    0.239E-02
RMM:   9    -0.231936664180E+04    0.79162E-05   -0.34040E-05  2968   0.573E-03
  17 F= -.23402638E+04 E0= -.23402638E+04  d E =-.276315E-01  mag=     5.0000
       N       E                     dE             d eps       ncg     rms          rms(c)
DAV:   1    -0.231935651978E+04    0.10130E-01   -0.97089E-01  4544   0.910E-01    0.270E-01
RMM:   2    -0.231936784539E+04   -0.11326E-01   -0.11865E-01  6119   0.196E-01    0.220E-01
RMM:   3    -0.231936855312E+04   -0.70773E-03   -0.11467E-02  5514   0.671E-02    0.190E-01
RMM:   4    -0.231936833806E+04    0.21506E-03   -0.11641E-03  4123   0.152E-02    0.999E-02
RMM:   5    -0.231936831769E+04    0.20368E-04   -0.29009E-04  3724   0.103E-02    0.990E-02
RMM:   6    -0.231936819911E+04    0.11858E-03   -0.25557E-04  4375   0.103E-02    0.275E-02
RMM:   7    -0.231936819911E+04   -0.66066E-08   -0.39548E-05  2978   0.607E-03
  18 F= -.23402652E+04 E0= -.23402652E+04  d E =-.290193E-01  mag=     5.0000
       N       E                     dE             d eps       ncg     rms          rms(c)
DAV:   1    -0.231936407291E+04    0.41262E-02   -0.14770E+00  4512   0.119E+00    0.360E-01
RMM:   2    -0.231938036070E+04   -0.16288E-01   -0.17514E-01  5983   0.248E-01    0.252E-01
RMM:   3    -0.231938142259E+04   -0.10619E-02   -0.18838E-02  5686   0.935E-02    0.197E-01
RMM:   4    -0.231938105733E+04    0.36525E-03   -0.17869E-03  5025   0.212E-02    0.104E-01
RMM:   5    -0.231938096369E+04    0.93640E-04   -0.46828E-04  4488   0.143E-02    0.978E-02
RMM:   6    -0.231938092956E+04    0.34131E-04   -0.27873E-04  4034   0.107E-02    0.895E-02
RMM:   7    -0.231938086905E+04    0.60513E-04   -0.89782E-05  3320   0.780E-03    0.227E-02
RMM:   8    -0.231938086391E+04    0.51365E-05   -0.16475E-05  2894   0.467E-03
  19 F= -.23402776E+04 E0= -.23402776E+04  d E =-.124267E-01  mag=     5.0000
       N       E                     dE             d eps       ncg     rms          rms(c)
DAV:   1    -0.231934894769E+04    0.31921E-01   -0.34868E+00  4496   0.182E+00    0.553E-01
RMM:   2    -0.231938705491E+04   -0.38107E-01   -0.40885E-01  5995   0.376E-01    0.392E-01
RMM:   3    -0.231938966928E+04   -0.26144E-02   -0.44688E-02  5761   0.146E-01    0.317E-01
RMM:   4    -0.231938871497E+04    0.95431E-03   -0.42681E-03  5565   0.326E-02    0.162E-01
RMM:   5    -0.231938854303E+04    0.17194E-03   -0.11737E-03  4915   0.208E-02    0.164E-01
RMM:   6    -0.231938841631E+04    0.12672E-03   -0.69675E-04  4903   0.153E-02    0.132E-01
RMM:   7    -0.231938828158E+04    0.13473E-03   -0.22297E-04  4137   0.109E-02    0.338E-02
RMM:   8    -0.231938826921E+04    0.12375E-04   -0.34986E-05  2929   0.577E-03    0.114E-02
RMM:   9    -0.231938826787E+04    0.13384E-05   -0.13377E-05  2907   0.337E-03
  20 F= -.23402846E+04 E0= -.23402846E+04  d E =-.194423E-01  mag=     5.0000
       N       E                     dE             d eps       ncg     rms          rms(c)
DAV:   1    -0.231937908023E+04    0.91890E-02   -0.22332E+00  4480   0.147E+00    0.451E-01
RMM:   2    -0.231939959315E+04   -0.20513E-01   -0.22245E-01  5929   0.292E-01    0.278E-01
RMM:   3    -0.231940127191E+04   -0.16788E-02   -0.24435E-02  5684   0.113E-01    0.245E-01
RMM:   4    -0.231940073636E+04    0.53554E-03   -0.23585E-03  5341   0.262E-02    0.132E-01
RMM:   5    -0.231940063937E+04    0.96995E-04   -0.75704E-04  4640   0.178E-02    0.128E-01
RMM:   6    -0.231940055694E+04    0.82426E-04   -0.42412E-04  4675   0.129E-02    0.957E-02
RMM:   7    -0.231940047967E+04    0.77268E-04   -0.12569E-04  3688   0.912E-03    0.291E-02
RMM:   8    -0.231940047048E+04    0.91936E-05   -0.22962E-05  2904   0.505E-03
  21 F= -.23402967E+04 E0= -.23402967E+04  d E =-.120308E-01  mag=     5.0000
       N       E                     dE             d eps       ncg     rms          rms(c)
DAV:   1    -0.231939279293E+04    0.76867E-02   -0.10396E+00  4544   0.101E+00    0.308E-01
RMM:   2    -0.231940234158E+04   -0.95487E-02   -0.10366E-01  5967   0.201E-01    0.189E-01
RMM:   3    -0.231940312918E+04   -0.78760E-03   -0.11361E-02  5646   0.768E-02    0.166E-01
RMM:   4    -0.231940287662E+04    0.25257E-03   -0.11039E-03  4732   0.181E-02    0.869E-02
RMM:   5    -0.231940280040E+04    0.76220E-04   -0.34659E-04  4225   0.129E-02    0.684E-02
RMM:   6    -0.231940280874E+04   -0.83388E-05   -0.18561E-04  3652   0.955E-03    0.841E-02
RMM:   7    -0.231940275222E+04    0.56519E-04   -0.67035E-05  3074   0.691E-03    0.192E-02
RMM:   8    -0.231940274774E+04    0.44761E-05   -0.14544E-05  2888   0.437E-03
  22 F= -.23402988E+04 E0= -.23402988E+04  d E =-.141844E-01  mag=     5.0000
       N       E                     dE             d eps       ncg     rms          rms(c)
DAV:   1    -0.231939289258E+04    0.98596E-02   -0.15648E+00  4496   0.122E+00    0.376E-01
RMM:   2    -0.231941006695E+04   -0.17174E-01   -0.18455E-01  5940   0.249E-01    0.264E-01
RMM:   3    -0.231941162393E+04   -0.15570E-02   -0.20587E-02  5656   0.959E-02    0.233E-01
RMM:   4    -0.231941132013E+04    0.30380E-03   -0.19597E-03  5034   0.211E-02    0.126E-01
RMM:   5    -0.231941120040E+04    0.11973E-03   -0.49400E-04  4559   0.145E-02    0.892E-02
RMM:   6    -0.231941119815E+04    0.22529E-05   -0.34082E-04  4679   0.116E-02    0.837E-02
RMM:   7    -0.231941113255E+04    0.65593E-04   -0.11358E-04  3239   0.870E-03    0.382E-02
RMM:   8    -0.231941112054E+04    0.12011E-04   -0.25853E-05  2905   0.458E-03    0.128E-02
RMM:   9    -0.231941111843E+04    0.21114E-05   -0.71193E-06  2863   0.295E-03
  23 F= -.23403076E+04 E0= -.23403076E+04  d E =-.874124E-02  mag=     5.0000
       N       E                     dE             d eps       ncg     rms          rms(c)
DAV:   1    -0.231940342541E+04    0.76951E-02   -0.80433E-01  4496   0.877E-01    0.270E-01
RMM:   2    -0.231941226895E+04   -0.88435E-02   -0.94943E-02  5921   0.179E-01    0.190E-01
RMM:   3    -0.231941305856E+04   -0.78961E-03   -0.10518E-02  5583   0.676E-02    0.169E-01
RMM:   4    -0.231941289559E+04    0.16297E-03   -0.10076E-03  4298   0.152E-02    0.898E-02
RMM:   5    -0.231941283209E+04    0.63498E-04   -0.25625E-04  4016   0.110E-02    0.624E-02
RMM:   6    -0.231941283285E+04   -0.75463E-06   -0.17854E-04  4011   0.923E-03    0.592E-02
RMM:   7    -0.231941279958E+04    0.33266E-04   -0.57948E-05  3000   0.692E-03    0.269E-02
RMM:   8    -0.231941279372E+04    0.58613E-05   -0.14237E-05  2888   0.389E-03
  24 F= -.23403095E+04 E0= -.23403095E+04  d E =-.106757E-01  mag=     5.0000
       N       E                     dE             d eps       ncg     rms          rms(c)
DAV:   1    -0.231939670366E+04    0.16096E-01   -0.15845E+00  4480   0.124E+00    0.418E-01
RMM:   2    -0.231941837725E+04   -0.21674E-01   -0.23017E-01  5961   0.268E-01    0.315E-01
RMM:   3    -0.231942032529E+04   -0.19480E-02   -0.26330E-02  5688   0.103E-01    0.290E-01
RMM:   4    -0.231941980105E+04    0.52423E-03   -0.23316E-03  5184   0.232E-02    0.127E-01
RMM:   5    -0.231941963040E+04    0.17065E-03   -0.59958E-04  4766   0.159E-02    0.778E-02
RMM:   6    -0.231941961754E+04    0.12859E-04   -0.28746E-04  4831   0.117E-02    0.702E-02
RMM:   7    -0.231941958341E+04    0.34129E-04   -0.92472E-05  3067   0.855E-03    0.385E-02
RMM:   8    -0.231941956703E+04    0.16382E-04   -0.25381E-05  2891   0.429E-03    0.138E-02
RMM:   9    -0.231941956380E+04    0.32266E-05   -0.80392E-06  2854   0.268E-03
  25 F= -.23403165E+04 E0= -.23403165E+04  d E =-.698817E-02  mag=     5.0000
       N       E                     dE             d eps       ncg     rms          rms(c)
DAV:   1    -0.231941808389E+04    0.14831E-02   -0.12150E-01  4720   0.343E-01    0.116E-01
RMM:   2    -0.231941974302E+04   -0.16591E-02   -0.17599E-02  5965   0.743E-02    0.852E-02
RMM:   3    -0.231941989344E+04   -0.15043E-03   -0.19673E-03  4171   0.278E-02    0.809E-02
RMM:   4    -0.231941985159E+04    0.41854E-04   -0.17775E-04  3006   0.724E-03    0.352E-02
RMM:   5    -0.231941983785E+04    0.13734E-04   -0.48458E-05  2956   0.544E-03    0.214E-02
RMM:   6    -0.231941983803E+04   -0.18031E-06   -0.27600E-05  2985   0.502E-03
  26 F= -.23403168E+04 E0= -.23403168E+04  d E =-.732188E-02  mag=     5.0000
       N       E                     dE             d eps       ncg     rms          rms(c)
DAV:   1    -0.231940058690E+04    0.19251E-01   -0.15443E+00  4496   0.120E+00    0.382E-01
RMM:   2    -0.231942448380E+04   -0.23897E-01   -0.25087E-01  5996   0.261E-01    0.296E-01
RMM:   3    -0.231942661414E+04   -0.21303E-02   -0.27223E-02  5708   0.994E-02    0.270E-01
RMM:   4    -0.231942623320E+04    0.38094E-03   -0.26270E-03  5056   0.212E-02    0.125E-01
RMM:   5    -0.231942605690E+04    0.17630E-03   -0.44101E-04  4259   0.132E-02    0.748E-02
RMM:   6    -0.231942601242E+04    0.44481E-04   -0.29330E-04  4537   0.114E-02    0.512E-02
RMM:   7    -0.231942599365E+04    0.18776E-04   -0.58456E-05  3024   0.808E-03    0.195E-02
RMM:   8    -0.231942599056E+04    0.30874E-05   -0.16343E-05  2882   0.376E-03
  27 F= -.23403230E+04 E0= -.23403230E+04  d E =-.618048E-02  mag=     5.0000
       N       E                     dE             d eps       ncg     rms          rms(c)
DAV:   1    -0.231940879020E+04    0.17203E-01   -0.11223E+00  4496   0.102E+00    0.325E-01
RMM:   2    -0.231942613548E+04   -0.17345E-01   -0.18156E-01  6018   0.221E-01    0.267E-01
RMM:   3    -0.231942765599E+04   -0.15205E-02   -0.19821E-02  5704   0.826E-02    0.239E-01
RMM:   4    -0.231942734710E+04    0.30889E-03   -0.19215E-03  4694   0.182E-02    0.104E-01
RMM:   5    -0.231942721976E+04    0.12734E-03   -0.31244E-04  4000   0.113E-02    0.627E-02
RMM:   6    -0.231942718905E+04    0.30710E-04   -0.21541E-04  4291   0.101E-02    0.453E-02
RMM:   7    -0.231942717581E+04    0.13245E-04   -0.47429E-05  2981   0.728E-03    0.197E-02
RMM:   8    -0.231942717155E+04    0.42583E-05   -0.13830E-05  2878   0.354E-03
  28 F= -.23403242E+04 E0= -.23403242E+04  d E =-.738579E-02  mag=     5.0000
       N       E                     dE             d eps       ncg     rms          rms(c)
DAV:   1    -0.231941686200E+04    0.10314E-01   -0.85082E-01  4496   0.849E-01    0.274E-01
RMM:   2    -0.231943061027E+04   -0.13748E-01   -0.14393E-01  6072   0.182E-01    0.216E-01
RMM:   3    -0.231943190809E+04   -0.12978E-02   -0.15461E-02  5666   0.680E-02    0.200E-01
RMM:   4    -0.231943172882E+04    0.17927E-03   -0.15915E-03  3872   0.149E-02    0.882E-02
RMM:   5    -0.231943164193E+04    0.86893E-04   -0.18675E-04  3304   0.878E-03    0.565E-02
RMM:   6    -0.231943161295E+04    0.28980E-04   -0.18463E-04  4083   0.891E-03    0.395E-02
RMM:   7    -0.231943160334E+04    0.96122E-05   -0.35713E-05  2938   0.643E-03
  29 F= -.23403287E+04 E0= -.23403287E+04  d E =-.455260E-02  mag=     5.0000
       N       E                     dE             d eps       ncg     rms          rms(c)
DAV:   1    -0.231937340360E+04    0.58209E-01   -0.35296E+00  4472   0.173E+00    0.564E-01
RMM:   2    -0.231943106474E+04   -0.57661E-01   -0.59982E-01  6102   0.371E-01    0.506E-01
RMM:   3    -0.231943606496E+04   -0.50002E-02   -0.65947E-02  5820   0.141E-01    0.427E-01
RMM:   4    -0.231943518211E+04    0.88285E-03   -0.66321E-03  5470   0.309E-02    0.180E-01
RMM:   5    -0.231943482327E+04    0.35884E-03   -0.80688E-04  4557   0.166E-02    0.113E-01
RMM:   6    -0.231943469709E+04    0.12618E-03   -0.71876E-04  4919   0.154E-02    0.742E-02
RMM:   7    -0.231943465520E+04    0.41889E-04   -0.13776E-04  3530   0.106E-02    0.270E-02
RMM:   8    -0.231943465131E+04    0.38864E-05   -0.31123E-05  2918   0.461E-03
  30 F= -.23403320E+04 E0= -.23403320E+04  d E =-.783909E-02  mag=     5.0000
       N       E                     dE             d eps       ncg     rms          rms(c)
DAV:   1    -0.231942322827E+04    0.11427E-01   -0.82362E-01  4536   0.806E-01    0.299E-01
RMM:   2    -0.231943787141E+04   -0.14643E-01   -0.15515E-01  6027   0.182E-01    0.188E-01
RMM:   3    -0.231943934029E+04   -0.14689E-02   -0.16478E-02  5617   0.705E-02    0.180E-01
RMM:   4    -0.231943928030E+04    0.59988E-04   -0.18242E-03  3977   0.155E-02    0.997E-02
RMM:   5    -0.231943919377E+04    0.86534E-04   -0.23676E-04  3639   0.101E-02    0.685E-02
RMM:   6    -0.231943915168E+04    0.42094E-04   -0.17294E-04  4273   0.894E-03    0.402E-02
RMM:   7    -0.231943914378E+04    0.79007E-05   -0.37033E-05  2917   0.670E-03
  31 F= -.23403369E+04 E0= -.23403369E+04  d E =-.488646E-02  mag=     5.0000
       N       E                     dE             d eps       ncg     rms          rms(c)
DAV:   1    -0.231942326446E+04    0.15887E-01   -0.84495E-01  4512   0.818E-01    0.304E-01
RMM:   2    -0.231943830096E+04   -0.15037E-01   -0.15930E-01  6009   0.185E-01    0.191E-01
RMM:   3    -0.231943984678E+04   -0.15458E-02   -0.17266E-02  5618   0.733E-02    0.187E-01
RMM:   4    -0.231943976657E+04    0.80212E-04   -0.18904E-03  4003   0.160E-02    0.101E-01
RMM:   5    -0.231943967136E+04    0.95201E-04   -0.23862E-04  3699   0.102E-02    0.665E-02
RMM:   6    -0.231943964391E+04    0.27451E-04   -0.18239E-04  4294   0.909E-03    0.500E-02
RMM:   7    -0.231943962893E+04    0.14988E-04   -0.60476E-05  2969   0.723E-03    0.302E-02
RMM:   8    -0.231943961884E+04    0.10091E-04   -0.14282E-05  2875   0.371E-03    0.713E-03
RMM:   9    -0.231943961782E+04    0.10131E-05   -0.42672E-06  2860   0.237E-03
  32 F= -.23403378E+04 E0= -.23403378E+04  d E =-.575518E-02  mag=     5.0000
       N       E                     dE             d eps       ncg     rms          rms(c)
DAV:   1    -0.231942191435E+04    0.17704E-01   -0.87997E-01  4496   0.763E-01    0.302E-01
RMM:   2    -0.231944091805E+04   -0.19004E-01   -0.20133E-01  6092   0.181E-01    0.170E-01
RMM:   3    -0.231944289446E+04   -0.19764E-02   -0.21638E-02  5512   0.710E-02    0.100E-01
RMM:   4    -0.231944299059E+04   -0.96131E-04   -0.21927E-03  3504   0.140E-02    0.796E-02
RMM:   5    -0.231944296510E+04    0.25493E-04   -0.20487E-04  3236   0.842E-03    0.800E-02
RMM:   6    -0.231944291221E+04    0.52892E-04   -0.13471E-04  3355   0.754E-03    0.436E-02
RMM:   7    -0.231944291368E+04   -0.14731E-05   -0.56864E-05  2964   0.608E-03
  33 F= -.23403416E+04 E0= -.23403416E+04  d E =-.385048E-02  mag=     5.0000
       N       E                     dE             d eps       ncg     rms          rms(c)
DAV:   1    -0.231937565336E+04    0.67259E-01   -0.27962E+00  4472   0.136E+00    0.542E-01
RMM:   2    -0.231943628395E+04   -0.60631E-01   -0.64301E-01  6102   0.327E-01    0.325E-01
RMM:   3    -0.231944268195E+04   -0.63980E-02   -0.70651E-02  5725   0.128E-01    0.215E-01
RMM:   4    -0.231944302456E+04   -0.34260E-03   -0.71570E-03  4889   0.256E-02    0.177E-01
RMM:   5    -0.231944283423E+04    0.19033E-03   -0.68670E-04  4043   0.133E-02    0.142E-01
RMM:   6    -0.231944266305E+04    0.17117E-03   -0.45897E-04  4699   0.116E-02    0.766E-02
RMM:   7    -0.231944266720E+04   -0.41495E-05   -0.22142E-04  3390   0.104E-02    0.644E-02
RMM:   8    -0.231944261635E+04    0.50853E-04   -0.57318E-05  2985   0.605E-03    0.147E-02
RMM:   9    -0.231944261309E+04    0.32544E-05   -0.12889E-05  2911   0.375E-03
  34 F= -.23403423E+04 E0= -.23403423E+04  d E =-.452782E-02  mag=     5.0000
       N       E                     dE             d eps       ncg     rms          rms(c)
DAV:   1    -0.231943364036E+04    0.89760E-02   -0.41740E-01  4496   0.529E-01    0.207E-01
RMM:   2    -0.231944274105E+04   -0.91007E-02   -0.96272E-02  6089   0.125E-01    0.118E-01
RMM:   3    -0.231944366861E+04   -0.92756E-03   -0.10044E-02  4936   0.481E-02    0.808E-02
RMM:   4    -0.231944372417E+04   -0.55559E-04   -0.10845E-03  3172   0.101E-02    0.828E-02
RMM:   5    -0.231944366610E+04    0.58075E-04   -0.95644E-05  2954   0.598E-03    0.429E-02
RMM:   6    -0.231944364508E+04    0.21015E-04   -0.85634E-05  3224   0.592E-03    0.196E-02
RMM:   7    -0.231944364584E+04   -0.75583E-06   -0.23326E-05  2901   0.505E-03
  35 F= -.23403430E+04 E0= -.23403430E+04  d E =-.518428E-02  mag=     5.0000
       N       E                     dE             d eps       ncg     rms          rms(c)
DAV:   1    -0.231942812907E+04    0.15516E-01   -0.84148E-01  4496   0.819E-01    0.313E-01
RMM:   2    -0.231944630448E+04   -0.18175E-01   -0.19250E-01  5998   0.191E-01    0.173E-01
RMM:   3    -0.231944813702E+04   -0.18325E-02   -0.20231E-02  5591   0.766E-02    0.168E-01
RMM:   4    -0.231944811433E+04    0.22690E-04   -0.21467E-03  3802   0.153E-02    0.115E-01
RMM:   5    -0.231944798068E+04    0.13365E-03   -0.19495E-04  3577   0.903E-03    0.587E-02
RMM:   6    -0.231944795125E+04    0.29434E-04   -0.19303E-04  4202   0.960E-03    0.412E-02
RMM:   7    -0.231944793534E+04    0.15906E-04   -0.50765E-05  3025   0.676E-03    0.192E-02
RMM:   8    -0.231944793063E+04    0.47167E-05   -0.11197E-05  2879   0.366E-03
  36 F= -.23403476E+04 E0= -.23403476E+04  d E =-.462971E-02  mag=     5.0000
       N       E                     dE             d eps       ncg     rms          rms(c)
DAV:   1    -0.231943059675E+04    0.17339E-01   -0.77884E-01  4504   0.788E-01    0.303E-01
RMM:   2    -0.231944746606E+04   -0.16869E-01   -0.17907E-01  5978   0.184E-01    0.169E-01
RMM:   3    -0.231944920054E+04   -0.17345E-02   -0.18981E-02  5530   0.710E-02    0.167E-01
RMM:   4    -0.231944916773E+04    0.32813E-04   -0.19990E-03  3718   0.147E-02    0.110E-01
RMM:   5    -0.231944904705E+04    0.12068E-03   -0.18073E-04  3523   0.863E-03    0.573E-02
RMM:   6    -0.231944902110E+04    0.25947E-04   -0.18440E-04  4111   0.943E-03    0.407E-02
RMM:   7    -0.231944900567E+04    0.15436E-04   -0.48886E-05  3022   0.653E-03    0.190E-02
RMM:   8    -0.231944900104E+04    0.46223E-05   -0.10806E-05  2874   0.371E-03
  37 F= -.23403490E+04 E0= -.23403490E+04  d E =-.603006E-02  mag=     5.0000
       N       E                     dE             d eps       ncg     rms          rms(c)
DAV:   1    -0.231942784998E+04    0.21156E-01   -0.96860E-01  4492   0.863E-01    0.323E-01
RMM:   2    -0.231945055854E+04   -0.22709E-01   -0.24010E-01  6100   0.204E-01    0.195E-01
RMM:   3    -0.231945306643E+04   -0.25079E-02   -0.26374E-02  5594   0.857E-02    0.206E-01
RMM:   4    -0.231945295018E+04    0.11625E-03   -0.26265E-03  3750   0.164E-02    0.116E-01
RMM:   5    -0.231945281359E+04    0.13659E-03   -0.19255E-04  3342   0.838E-03    0.653E-02
RMM:   6    -0.231945275068E+04    0.62917E-04   -0.21463E-04  4293   0.924E-03    0.231E-02
RMM:   7    -0.231945275177E+04   -0.10950E-05   -0.38505E-05  2964   0.675E-03
  38 F= -.23403530E+04 E0= -.23403530E+04  d E =-.401565E-02  mag=     5.0000
       N       E                     dE             d eps       ncg     rms          rms(c)
DAV:   1    -0.231941373881E+04    0.39012E-01   -0.15651E+00  4472   0.110E+00    0.411E-01
RMM:   2    -0.231945042793E+04   -0.36689E-01   -0.38832E-01  6133   0.258E-01    0.245E-01
RMM:   3    -0.231945446768E+04   -0.40397E-02   -0.42684E-02  5687   0.107E-01    0.254E-01
RMM:   4    -0.231945431848E+04    0.14921E-03   -0.41994E-03  4324   0.204E-02    0.152E-01
RMM:   5    -0.231945409834E+04    0.22013E-03   -0.31835E-04  3647   0.102E-02    0.856E-02
RMM:   6    -0.231945400787E+04    0.90466E-04   -0.36868E-04  4496   0.114E-02    0.482E-02
RMM:   7    -0.231945399562E+04    0.12258E-04   -0.97300E-05  3148   0.835E-03    0.342E-02
RMM:   8    -0.231945398059E+04    0.15030E-04   -0.25752E-05  2895   0.441E-03    0.103E-02
RMM:   9    -0.231945397907E+04    0.15153E-05   -0.65945E-06  2871   0.314E-03
  39 F= -.23403546E+04 E0= -.23403546E+04  d E =-.557695E-02  mag=     5.0000
       N       E                     dE             d eps       ncg     rms          rms(c)
DAV:   1    -0.231943307140E+04    0.20909E-01   -0.97592E-01  4500   0.867E-01    0.321E-01
RMM:   2    -0.231945455434E+04   -0.21483E-01   -0.22699E-01  6032   0.195E-01    0.195E-01
RMM:   3    -0.231945681245E+04   -0.22581E-02   -0.22778E-02  5587   0.785E-02    0.200E-01
RMM:   4    -0.231945668614E+04    0.12631E-03   -0.25671E-03  3931   0.167E-02    0.116E-01
RMM:   5    -0.231945656412E+04    0.12202E-03   -0.19542E-04  3402   0.919E-03    0.645E-02
RMM:   6    -0.231945655331E+04    0.10805E-04   -0.20604E-04  4066   0.937E-03    0.638E-02
RMM:   7    -0.231945650455E+04    0.48758E-04   -0.83566E-05  3048   0.748E-03    0.148E-02
RMM:   8    -0.231945650338E+04    0.11743E-05   -0.14228E-05  2896   0.431E-03
  40 F= -.23403575E+04 E0= -.23403575E+04  d E =-.294147E-02  mag=     5.0000
       N       E                     dE             d eps       ncg     rms          rms(c)
DAV:   1    -0.231943343051E+04    0.23074E-01   -0.96801E-01  4484   0.864E-01    0.319E-01
RMM:   2    -0.231945468545E+04   -0.21255E-01   -0.22460E-01  5980   0.194E-01    0.193E-01
RMM:   3    -0.231945686744E+04   -0.21820E-02   -0.22021E-02  5617   0.723E-02    0.197E-01
RMM:   4    -0.231945674321E+04    0.12422E-03   -0.25205E-03  3871   0.163E-02    0.115E-01
RMM:   5    -0.231945662292E+04    0.12029E-03   -0.19641E-04  3397   0.897E-03    0.639E-02
RMM:   6    -0.231945661374E+04    0.91795E-05   -0.20204E-04  4001   0.924E-03    0.642E-02
RMM:   7    -0.231945656481E+04    0.48934E-04   -0.82649E-05  3041   0.740E-03    0.144E-02
RMM:   8    -0.231945656370E+04    0.11075E-05   -0.14231E-05  2898   0.434E-03
  41 F= -.23403580E+04 E0= -.23403580E+04  d E =-.341173E-02  mag=     5.0000
       N       E                     dE             d eps       ncg     rms          rms(c)
DAV:   1    -0.231944273519E+04    0.13830E-01   -0.62353E-01  4584   0.675E-01    0.254E-01
RMM:   2    -0.231945708587E+04   -0.14351E-01   -0.15144E-01  6193   0.152E-01    0.156E-01
RMM:   3    -0.231945861501E+04   -0.15291E-02   -0.14790E-02  5378   0.590E-02    0.164E-01
RMM:   4    -0.231945852199E+04    0.93018E-04   -0.17167E-03  3342   0.128E-02    0.831E-02
RMM:   5    -0.231945846240E+04    0.59593E-04   -0.10145E-04  2998   0.629E-03    0.511E-02
RMM:   6    -0.231945845549E+04    0.69053E-05   -0.99359E-05  3108   0.638E-03
  42 F= -.23403602E+04 E0= -.23403602E+04  d E =-.225164E-02  mag=     5.0000
       N       E                     dE             d eps       ncg     rms          rms(c)
DAV:   1    -0.231935070004E+04    0.10776E+00   -0.43165E+00  4472   0.178E+00    0.667E-01
RMM:   2    -0.231945015002E+04   -0.99450E-01   -0.10503E+00  6147   0.402E-01    0.391E-01
RMM:   3    -0.231946041435E+04   -0.10264E-01   -0.10610E-01  5774   0.153E-01    0.339E-01
RMM:   4    -0.231946054102E+04   -0.12667E-03   -0.11762E-02  5510   0.328E-02    0.270E-01
RMM:   5    -0.231946001989E+04    0.52113E-03   -0.78734E-04  4114   0.139E-02    0.150E-01
RMM:   6    -0.231945988811E+04    0.13179E-03   -0.75090E-04  4627   0.139E-02    0.129E-01
RMM:   7    -0.231945970357E+04    0.18453E-03   -0.39536E-04  4431   0.118E-02    0.438E-02
RMM:   8    -0.231945969033E+04    0.13245E-04   -0.77771E-05  3234   0.688E-03    0.198E-02
RMM:   9    -0.231945968677E+04    0.35585E-05   -0.14122E-05  2865   0.483E-03
  43 F= -.23403624E+04 E0= -.23403624E+04  d E =-.440063E-02  mag=     5.0000
       N       E                     dE             d eps       ncg     rms          rms(c)
DAV:   1    -0.231944620098E+04    0.13489E-01   -0.62602E-01  4568   0.683E-01    0.273E-01
RMM:   2    -0.231946082590E+04   -0.14625E-01   -0.15536E-01  6029   0.163E-01    0.161E-01
RMM:   3    -0.231946234915E+04   -0.15232E-02   -0.15236E-02  5617   0.662E-02    0.169E-01
RMM:   4    -0.231946225839E+04    0.90755E-04   -0.17613E-03  3607   0.142E-02    0.945E-02
RMM:   5    -0.231946217713E+04    0.81263E-04   -0.13372E-04  3211   0.807E-03    0.544E-02
RMM:   6    -0.231946217214E+04    0.49896E-05   -0.14155E-04  3556   0.841E-03    0.556E-02
RMM:   7    -0.231946213449E+04    0.37655E-04   -0.63925E-05  3072   0.711E-03    0.959E-03
RMM:   8    -0.231946213391E+04    0.57255E-06   -0.11064E-05  2874   0.456E-03
  44 F= -.23403651E+04 E0= -.23403651E+04  d E =-.274206E-02  mag=     5.0000
       N       E                     dE             d eps       ncg     rms          rms(c)
DAV:   1    -0.231944586483E+04    0.16270E-01   -0.64340E-01  4520   0.692E-01    0.276E-01
RMM:   2    -0.231946087997E+04   -0.15015E-01   -0.15953E-01  6028   0.166E-01    0.160E-01
RMM:   3    -0.231946241335E+04   -0.15334E-02   -0.15544E-02  5603   0.625E-02    0.161E-01
RMM:   4    -0.231946235235E+04    0.61005E-04   -0.17988E-03  3614   0.142E-02    0.985E-02
RMM:   5    -0.231946226529E+04    0.87057E-04   -0.13887E-04  3217   0.799E-03    0.561E-02
RMM:   6    -0.231946225807E+04    0.72231E-05   -0.14309E-04  3533   0.831E-03    0.566E-02
RMM:   7    -0.231946221892E+04    0.39145E-04   -0.67562E-05  3084   0.710E-03    0.977E-03
RMM:   8    -0.231946221806E+04    0.85926E-06   -0.11109E-05  2877   0.469E-03
  45 F= -.23403655E+04 E0= -.23403655E+04  d E =-.311868E-02  mag=     5.0000
       N       E                     dE             d eps       ncg     rms          rms(c)
DAV:   1    -0.231946078675E+04    0.14322E-02   -0.66163E-02  4688   0.222E-01    0.875E-02
RMM:   2    -0.231946232457E+04   -0.15378E-02   -0.16247E-02  6224   0.538E-02    0.555E-02
RMM:   3    -0.231946248509E+04   -0.16052E-03   -0.16049E-03  3406   0.218E-02    0.595E-02
RMM:   4    -0.231946247089E+04    0.14198E-04   -0.18442E-04  2955   0.587E-03    0.291E-02
RMM:   5    -0.231946246153E+04    0.93589E-05   -0.16752E-05  2880   0.321E-03
  46 F= -.23403657E+04 E0= -.23403657E+04  d E =-.326916E-02  mag=     5.0000
       N       E                     dE             d eps       ncg     rms          rms(c)
DAV:   1    -0.231945211990E+04    0.10351E-01   -0.45678E-01  4488   0.564E-01    0.241E-01
RMM:   2    -0.231946300388E+04   -0.10884E-01   -0.11602E-01  6164   0.140E-01    0.128E-01
RMM:   3    -0.231946416818E+04   -0.11643E-02   -0.12060E-02  5384   0.591E-02    0.129E-01
RMM:   4    -0.231946414828E+04    0.19901E-04   -0.12398E-03  3263   0.116E-02    0.834E-02
RMM:   5    -0.231946408282E+04    0.65459E-04   -0.88156E-05  3039   0.629E-03    0.402E-02
RMM:   6    -0.231946407208E+04    0.10741E-04   -0.87321E-05  3291   0.679E-03    0.328E-02
RMM:   7    -0.231946405997E+04    0.12102E-04   -0.29855E-05  2915   0.564E-03    0.114E-02
RMM:   8    -0.231946405875E+04    0.12256E-05   -0.57500E-06  2850   0.283E-03
  47 F= -.23403675E+04 E0= -.23403675E+04  d E =-.185883E-02  mag=     5.0000
       N       E                     dE             d eps       ncg     rms          rms(c)
DAV:   1    -0.231945518733E+04    0.88726E-02   -0.34951E-01  4512   0.494E-01    0.210E-01
RMM:   2    -0.231946354228E+04   -0.83549E-02   -0.89128E-02  6042   0.123E-01    0.108E-01
RMM:   3    -0.231946439041E+04   -0.84813E-03   -0.90899E-03  5084   0.495E-02    0.888E-02
RMM:   4    -0.231946442427E+04   -0.33855E-04   -0.94335E-04  3193   0.102E-02    0.822E-02
RMM:   5    -0.231946436548E+04    0.58784E-04   -0.78151E-05  2976   0.577E-03    0.382E-02
RMM:   6    -0.231946436137E+04    0.41080E-05   -0.71974E-05  3085   0.573E-03
  48 F= -.23403680E+04 E0= -.23403680E+04  d E =-.238622E-02  mag=     5.0000
       N       E                     dE             d eps       ncg     rms          rms(c)
DAV:   1    -0.231945029666E+04    0.14069E-01   -0.67440E-01  4468   0.712E-01    0.263E-01
RMM:   2    -0.231946488348E+04   -0.14587E-01   -0.15562E-01  6243   0.167E-01    0.148E-01
RMM:   3    -0.231946640266E+04   -0.15192E-02   -0.16006E-02  5502   0.657E-02    0.134E-01
RMM:   4    -0.231946642313E+04   -0.20470E-04   -0.16412E-03  3305   0.131E-02    0.104E-01
RMM:   5    -0.231946633235E+04    0.90780E-04   -0.11306E-04  3042   0.685E-03    0.502E-02
RMM:   6    -0.231946629920E+04    0.33154E-04   -0.11761E-04  3761   0.771E-03    0.172E-02
RMM:   7    -0.231946630143E+04   -0.22283E-05   -0.23437E-05  2898   0.595E-03
  49 F= -.23403702E+04 E0= -.23403702E+04  d E =-.218569E-02  mag=     5.0000
       N       E                     dE             d eps       ncg     rms          rms(c)
DAV:   1    -0.231944095147E+04    0.25348E-01   -0.10911E+00  4456   0.905E-01    0.335E-01
RMM:   2    -0.231946449206E+04   -0.23541E-01   -0.25118E-01  6200   0.212E-01    0.190E-01
RMM:   3    -0.231946704448E+04   -0.25524E-02   -0.26571E-02  5625   0.884E-02    0.182E-01
RMM:   4    -0.231946702415E+04    0.20332E-04   -0.26923E-03  3786   0.172E-02    0.125E-01
RMM:   5    -0.231946689187E+04    0.13228E-03   -0.19648E-04  3304   0.867E-03    0.687E-02
RMM:   6    -0.231946688263E+04    0.92356E-05   -0.19791E-04  3734   0.887E-03    0.699E-02
RMM:   7    -0.231946682558E+04    0.57057E-04   -0.98057E-05  3124   0.771E-03    0.121E-02
RMM:   8    -0.231946682463E+04    0.94765E-06   -0.14863E-05  2895   0.488E-03
  50 F= -.23403711E+04 E0= -.23403711E+04  d E =-.300988E-02  mag=     5.0000
       N       E                     dE             d eps       ncg     rms          rms(c)
DAV:   1    -0.231945342797E+04    0.13398E-01   -0.70564E-01  4484   0.756E-01    0.273E-01
RMM:   2    -0.231946699796E+04   -0.13570E-01   -0.14410E-01  6101   0.168E-01    0.158E-01
RMM:   3    -0.231946845949E+04   -0.14615E-02   -0.14505E-02  5577   0.635E-02    0.178E-01
RMM:   4    -0.231946832343E+04    0.13606E-03   -0.15886E-03  3493   0.139E-02    0.877E-02
RMM:   5    -0.231946824807E+04    0.75367E-04   -0.11839E-04  3142   0.727E-03    0.456E-02
RMM:   6    -0.231946823823E+04    0.98333E-05   -0.11903E-04  3708   0.776E-03    0.404E-02
RMM:   7    -0.231946822139E+04    0.16840E-04   -0.36519E-05  2922   0.618E-03    0.110E-02
RMM:   8    -0.231946822076E+04    0.63101E-06   -0.66079E-06  2856   0.281E-03
  51 F= -.23403726E+04 E0= -.23403726E+04  d E =-.157838E-02  mag=     5.0000
       N       E                     dE             d eps       ncg     rms          rms(c)
DAV:   1    -0.231945662112E+04    0.11600E-01   -0.56803E-01  4480   0.678E-01    0.244E-01
RMM:   2    -0.231946753338E+04   -0.10912E-01   -0.11572E-01  6073   0.150E-01    0.144E-01
RMM:   3    -0.231946871917E+04   -0.11858E-02   -0.11696E-02  5472   0.586E-02    0.165E-01
RMM:   4    -0.231946859415E+04    0.12502E-03   -0.12777E-03  3383   0.126E-02    0.775E-02
RMM:   5    -0.231946853351E+04    0.60636E-04   -0.95905E-05  3062   0.672E-03    0.406E-02
RMM:   6    -0.231946852288E+04    0.10631E-04   -0.94250E-05  3577   0.714E-03    0.332E-02
RMM:   7    -0.231946851245E+04    0.10428E-04   -0.27863E-05  2911   0.577E-03    0.106E-02
RMM:   8    -0.231946851165E+04    0.80558E-06   -0.51785E-06  2839   0.249E-03
  52 F= -.23403731E+04 E0= -.23403731E+04  d E =-.202641E-02  mag=     5.0000
       N       E                     dE             d eps       ncg     rms          rms(c)
DAV:   1    -0.231945752285E+04    0.10990E-01   -0.59286E-01  4468   0.664E-01    0.248E-01
RMM:   2    -0.231946912849E+04   -0.11606E-01   -0.12153E-01  6018   0.153E-01    0.180E-01
RMM:   3    -0.231947039469E+04   -0.12662E-02   -0.12526E-02  5560   0.606E-02    0.197E-01
RMM:   4    -0.231947017154E+04    0.22315E-03   -0.13814E-03  3541   0.137E-02    0.804E-02
RMM:   5    -0.231947010841E+04    0.63132E-04   -0.12175E-04  3204   0.771E-03    0.459E-02
RMM:   6    -0.231947010862E+04   -0.20806E-06   -0.12272E-04  3480   0.828E-03    0.459E-02
RMM:   7    -0.231947008489E+04    0.23723E-04   -0.39431E-05  2951   0.606E-03    0.142E-02
RMM:   8    -0.231947008353E+04    0.13653E-05   -0.69423E-06  2880   0.325E-03
  53 F= -.23403748E+04 E0= -.23403748E+04  d E =-.171952E-02  mag=     5.0000
       N       E                     dE             d eps       ncg     rms          rms(c)
DAV:   1    -0.231946135412E+04    0.87308E-02   -0.41539E-01  4496   0.556E-01    0.208E-01
RMM:   2    -0.231946949203E+04   -0.81379E-02   -0.85111E-02  6021   0.128E-01    0.155E-01
RMM:   3    -0.231947037527E+04   -0.88324E-03   -0.87737E-03  5355   0.490E-02    0.169E-01
RMM:   4    -0.231947020889E+04    0.16638E-03   -0.96873E-04  3307   0.117E-02    0.669E-02
RMM:   5    -0.231947016716E+04    0.41731E-04   -0.87964E-05  3085   0.666E-03    0.410E-02
RMM:   6    -0.231947016813E+04   -0.97198E-06   -0.88279E-05  3114   0.708E-03
  54 F= -.23403750E+04 E0= -.23403750E+04  d E =-.192297E-02  mag=     5.0000
       N       E                     dE             d eps       ncg     rms          rms(c)
DAV:   1    -0.231945273984E+04    0.17427E-01   -0.84520E-01  4456   0.784E-01    0.295E-01
RMM:   2    -0.231946959848E+04   -0.16859E-01   -0.17547E-01  6180   0.180E-01    0.220E-01
RMM:   3    -0.231947148455E+04   -0.18861E-02   -0.19329E-02  5640   0.704E-02    0.230E-01
RMM:   4    -0.231947119693E+04    0.28761E-03   -0.20155E-03  3634   0.158E-02    0.944E-02
RMM:   5    -0.231947113587E+04    0.61063E-04   -0.18235E-04  3248   0.774E-03    0.712E-02
RMM:   6    -0.231947109912E+04    0.36752E-04   -0.14143E-04  3160   0.790E-03    0.496E-02
RMM:   7    -0.231947107420E+04    0.24916E-04   -0.73975E-05  3263   0.674E-03    0.178E-02
RMM:   8    -0.231947107285E+04    0.13518E-05   -0.10517E-05  2875   0.476E-03
  55 F= -.23403761E+04 E0= -.23403761E+04  d E =-.108035E-02  mag=     5.0000
       N       E                     dE             d eps       ncg     rms          rms(c)
DAV:   1    -0.231946673629E+04    0.43379E-02   -0.20163E-01  4576   0.382E-01    0.145E-01
RMM:   2    -0.231947080404E+04   -0.40677E-02   -0.41992E-02  6170   0.879E-02    0.126E-01
RMM:   3    -0.231947121320E+04   -0.40916E-03   -0.44106E-03  4300   0.337E-02    0.120E-01
RMM:   4    -0.231947112961E+04    0.83589E-04   -0.48051E-04  3085   0.863E-03    0.449E-02
RMM:   5    -0.231947111917E+04    0.10439E-04   -0.50714E-05  2960   0.445E-03    0.379E-02
RMM:   6    -0.231947110610E+04    0.13064E-04   -0.32914E-05  2908   0.420E-03    0.224E-02
RMM:   7    -0.231947110179E+04    0.43179E-05   -0.18429E-05  2934   0.357E-03
  56 F= -.23403762E+04 E0= -.23403762E+04  d E =-.119136E-02  mag=     5.0000
       N       E                     dE             d eps       ncg     rms          rms(c)
DAV:   1    -0.231945864166E+04    0.12464E-01   -0.65355E-01  4484   0.724E-01    0.278E-01
RMM:   2    -0.231947154882E+04   -0.12907E-01   -0.13314E-01  6058   0.168E-01    0.241E-01
RMM:   3    -0.231947274861E+04   -0.11998E-02   -0.13866E-02  5700   0.678E-02    0.231E-01
RMM:   4    -0.231947241147E+04    0.33714E-03   -0.15621E-03  4041   0.162E-02    0.857E-02
RMM:   5    -0.231947238755E+04    0.23923E-04   -0.21946E-04  3381   0.905E-03    0.801E-02
RMM:   6    -0.231947231857E+04    0.68977E-04   -0.14085E-04  3313   0.857E-03    0.376E-02
RMM:   7    -0.231947230544E+04    0.13130E-04   -0.56608E-05  3281   0.688E-03    0.131E-02
RMM:   8    -0.231947230478E+04    0.66702E-06   -0.99403E-06  2873   0.483E-03
  57 F= -.23403776E+04 E0= -.23403776E+04  d E =-.144775E-02  mag=     5.0000
       N       E                     dE             d eps       ncg     rms          rms(c)
DAV:   1    -0.231947153348E+04    0.77196E-03   -0.34661E-02  4800   0.167E-01    0.648E-02
RMM:   2    -0.231947222819E+04   -0.69471E-03   -0.71388E-03  6139   0.399E-02    0.597E-02
RMM:   3    -0.231947228702E+04   -0.58832E-04   -0.74344E-04  3139   0.150E-02    0.528E-02
RMM:   4    -0.231947227055E+04    0.16475E-04   -0.85482E-05  2921   0.470E-03    0.203E-02
RMM:   5    -0.231947226920E+04    0.13456E-05   -0.12780E-05  2839   0.257E-03
  58 F= -.23403777E+04 E0= -.23403777E+04  d E =-.146766E-02  mag=     5.0000
       N       E                     dE             d eps       ncg     rms          rms(c)
DAV:   1    -0.231946544710E+04    0.68235E-02   -0.35995E-01  4496   0.555E-01    0.202E-01
RMM:   2    -0.231947237642E+04   -0.69293E-02   -0.71334E-02  5991   0.127E-01    0.176E-01
RMM:   3    -0.231947296394E+04   -0.58752E-03   -0.74167E-03  5347   0.504E-02    0.156E-01
RMM:   4    -0.231947281291E+04    0.15103E-03   -0.80386E-04  3312   0.119E-02    0.657E-02
RMM:   5    -0.231947280090E+04    0.12008E-04   -0.11429E-04  3096   0.682E-03    0.608E-02
RMM:   6    -0.231947275860E+04    0.42296E-04   -0.74385E-05  3055   0.658E-03    0.270E-02
RMM:   7    -0.231947275289E+04    0.57154E-05   -0.30210E-05  2980   0.556E-03
  59 F= -.23403784E+04 E0= -.23403784E+04  d E =-.707832E-03  mag=     5.0000
       N       E                     dE             d eps       ncg     rms          rms(c)
DAV:   1    -0.231947153360E+04    0.12250E-02   -0.53720E-02  4592   0.214E-01    0.801E-02
RMM:   2    -0.231947259051E+04   -0.10569E-02   -0.10885E-02  6280   0.512E-02    0.739E-02
RMM:   3    -0.231947267606E+04   -0.85556E-04   -0.11145E-03  3385   0.193E-02    0.664E-02
RMM:   4    -0.231947264902E+04    0.27044E-04   -0.12493E-04  2964   0.596E-03    0.254E-02
RMM:   5    -0.231947264704E+04    0.19856E-05   -0.19728E-05  2912   0.309E-03
  60 F= -.23403784E+04 E0= -.23403784E+04  d E =-.688093E-03  mag=     5.0000
       N       E                     dE             d eps       ncg     rms          rms(c)
DAV:   1    -0.231946789105E+04    0.47580E-02   -0.27610E-01  4496   0.497E-01    0.165E-01
RMM:   2    -0.231947274324E+04   -0.48522E-02   -0.49993E-02  6020   0.108E-01    0.143E-01
RMM:   3    -0.231947315170E+04   -0.40847E-03   -0.53034E-03  4916   0.425E-02    0.122E-01
RMM:   4    -0.231947306150E+04    0.90198E-04   -0.55242E-04  3161   0.101E-02    0.551E-02
RMM:   5    -0.231947305368E+04    0.78195E-05   -0.77448E-05  3020   0.579E-03
  61 F= -.23403790E+04 E0= -.23403790E+04  d E =-.657406E-03  mag=     5.0000
       N       E                     dE             d eps       ncg     rms          rms(c)
DAV:   1    -0.231946826330E+04    0.47982E-02   -0.24892E-01  4496   0.472E-01    0.155E-01
RMM:   2    -0.231947261973E+04   -0.43564E-02   -0.44918E-02  6148   0.103E-01    0.134E-01
RMM:   3    -0.231947299757E+04   -0.37784E-03   -0.50266E-03  4781   0.435E-02    0.105E-01
RMM:   4    -0.231947292780E+04    0.69771E-04   -0.49571E-04  3164   0.992E-03    0.534E-02
RMM:   5    -0.231947292193E+04    0.58775E-05   -0.77315E-05  3020   0.608E-03
  62 F= -.23403791E+04 E0= -.23403791E+04  d E =-.763047E-03  mag=     5.0000
       N       E                     dE             d eps       ncg     rms          rms(c)
DAV:   1    -0.231946862308E+04    0.43047E-02   -0.28373E-01  4484   0.522E-01    0.172E-01
RMM:   2    -0.231947306247E+04   -0.44394E-02   -0.45996E-02  6082   0.114E-01    0.133E-01
RMM:   3    -0.231947343068E+04   -0.36820E-03   -0.51669E-03  5058   0.476E-02    0.110E-01
RMM:   4    -0.231947333200E+04    0.98671E-04   -0.49758E-04  3336   0.109E-02    0.511E-02
RMM:   5    -0.231947331861E+04    0.13396E-04   -0.91702E-05  3174   0.726E-03    0.470E-02
RMM:   6    -0.231947330622E+04    0.12391E-04   -0.56040E-05  3033   0.633E-03    0.366E-02
RMM:   7    -0.231947329535E+04    0.10863E-04   -0.21804E-05  2905   0.494E-03    0.930E-03
RMM:   8    -0.231947329491E+04    0.43993E-06   -0.57219E-06  2861   0.356E-03
  63 F= -.23403797E+04 E0= -.23403797E+04  d E =-.631302E-03  mag=     5.0000
       N       E                     dE             d eps       ncg     rms          rms(c)
DAV:   1    -0.231947305082E+04    0.24453E-03   -0.12165E-02  4928   0.108E-01    0.368E-02
RMM:   2    -0.231947324426E+04   -0.19344E-03   -0.19993E-03  5898   0.243E-02    0.305E-02
RMM:   3    -0.231947326127E+04   -0.17011E-04   -0.21989E-04  2956   0.909E-03    0.288E-02
RMM:   4    -0.231947325582E+04    0.54457E-05   -0.23142E-05  2872   0.283E-03
  64 F= -.23403798E+04 E0= -.23403798E+04  d E =-.645442E-03  mag=     5.0000
       N       E                     dE             d eps       ncg     rms          rms(c)
DAV:   1    -0.231947108574E+04    0.21755E-02   -0.14162E-01  4496   0.358E-01    0.127E-01
RMM:   2    -0.231947341890E+04   -0.23332E-02   -0.24346E-02  5981   0.843E-02    0.956E-02
RMM:   3    -0.231947362929E+04   -0.21039E-03   -0.26121E-03  4377   0.316E-02    0.101E-01
RMM:   4    -0.231947356190E+04    0.67385E-04   -0.26115E-04  3075   0.826E-03    0.442E-02
RMM:   5    -0.231947355915E+04    0.27550E-05   -0.59033E-05  3037   0.539E-03
  65 F= -.23403803E+04 E0= -.23403803E+04  d E =-.526363E-03  mag=     5.0000
       N       E                     dE             d eps       ncg     rms          rms(c)
DAV:   1    -0.231947341479E+04    0.14711E-03   -0.47859E-03  5360   0.666E-02    0.272E-02
RMM:   2    -0.231947350059E+04   -0.85798E-04   -0.86122E-04  5087   0.168E-02    0.307E-02
RMM:   3    -0.231947350404E+04   -0.34499E-05   -0.12128E-04  2914   0.831E-03    0.182E-02
RMM:   4    -0.231947350110E+04    0.29470E-05   -0.97488E-06  2894   0.249E-03
  66 F= -.23403803E+04 E0= -.23403803E+04  d E =-.510343E-03  mag=     5.0000
       N       E                     dE             d eps       ncg     rms          rms(c)
DAV:   1    -0.231947268799E+04    0.81605E-03   -0.82345E-02  4480   0.262E-01    0.914E-02
RMM:   2    -0.231947371813E+04   -0.10301E-02   -0.10792E-02  5997   0.582E-02    0.681E-02
RMM:   3    -0.231947378114E+04   -0.63010E-04   -0.11089E-03  3649   0.218E-02    0.594E-02
RMM:   4    -0.231947374635E+04    0.34792E-04   -0.11120E-04  3003   0.639E-03    0.244E-02
RMM:   5    -0.231947374686E+04   -0.50850E-06   -0.28808E-05  2965   0.434E-03
  67 F= -.23403807E+04 E0= -.23403807E+04  d E =-.408814E-03  mag=     5.0000
       N       E                     dE             d eps       ncg     rms          rms(c)
DAV:   1    -0.231947304230E+04    0.70405E-03   -0.49596E-02  4480   0.203E-01    0.724E-02
RMM:   2    -0.231947368316E+04   -0.64086E-03   -0.66170E-03  6199   0.466E-02    0.631E-02
RMM:   3    -0.231947371980E+04   -0.36645E-04   -0.73253E-04  3283   0.168E-02    0.595E-02
RMM:   4    -0.231947368875E+04    0.31052E-04   -0.78231E-05  2968   0.583E-03    0.316E-02
RMM:   5    -0.231947368384E+04    0.49134E-05   -0.20194E-05  2906   0.324E-03
  68 F= -.23403807E+04 E0= -.23403807E+04  d E =-.472544E-03  mag=     5.0000
       N       E                     dE             d eps       ncg     rms          rms(c)
DAV:   1    -0.231947354200E+04    0.14675E-03   -0.32922E-02  4528   0.160E-01    0.516E-02
RMM:   2    -0.231947387896E+04   -0.33696E-03   -0.35112E-03  6004   0.339E-02    0.405E-02
RMM:   3    -0.231947390253E+04   -0.23565E-04   -0.40331E-04  3072   0.128E-02    0.343E-02
RMM:   4    -0.231947389030E+04    0.12224E-04   -0.36948E-05  2929   0.413E-03    0.141E-02
RMM:   5    -0.231947388902E+04    0.12763E-05   -0.93027E-06  2875   0.253E-03
  69 F= -.23403810E+04 E0= -.23403810E+04  d E =-.303049E-03  mag=     5.0000
       N       E                     dE             d eps       ncg     rms          rms(c)
DAV:   1    -0.231947099338E+04    0.28969E-02   -0.29931E-01  4484   0.482E-01    0.156E-01
RMM:   2    -0.231947412398E+04   -0.31306E-02   -0.32451E-02  6036   0.101E-01    0.131E-01
RMM:   3    -0.231947425419E+04   -0.13021E-03   -0.31566E-03  4771   0.352E-02    0.103E-01
RMM:   4    -0.231947415962E+04    0.94571E-04   -0.32368E-04  3185   0.931E-03    0.455E-02
RMM:   5    -0.231947417344E+04   -0.13821E-04   -0.77361E-05  3103   0.584E-03    0.622E-02
RMM:   6    -0.231947413676E+04    0.36677E-04   -0.58874E-05  3047   0.607E-03    0.161E-02
RMM:   7    -0.231947413611E+04    0.65714E-06   -0.14435E-05  2907   0.430E-03
  70 F= -.23403816E+04 E0= -.23403816E+04  d E =-.843295E-03  mag=     5.0000
       N       E                     dE             d eps       ncg     rms          rms(c)
DAV:   1    -0.231946038646E+04    0.13750E-01   -0.11986E+00  4472   0.965E-01    0.311E-01
RMM:   2    -0.231947299406E+04   -0.12608E-01   -0.13068E-01  6078   0.202E-01    0.254E-01
RMM:   3    -0.231947348649E+04   -0.49243E-03   -0.12060E-02  5696   0.699E-02    0.201E-01
RMM:   4    -0.231947307080E+04    0.41569E-03   -0.12966E-03  4835   0.178E-02    0.894E-02
RMM:   5    -0.231947310598E+04   -0.35181E-04   -0.28974E-04  3625   0.103E-02    0.125E-01
RMM:   6    -0.231947297680E+04    0.12918E-03   -0.21649E-04  4125   0.977E-03    0.335E-02
RMM:   7    -0.231947297172E+04    0.50752E-05   -0.40518E-05  3002   0.662E-03
  71 F= -.23403810E+04 E0= -.23403810E+04  d E =-.263376E-03  mag=     5.0000
       N       E                     dE             d eps       ncg     rms          rms(c)
DAV:   1    -0.231946808954E+04    0.48873E-02   -0.56730E-01  4472   0.664E-01    0.211E-01
RMM:   2    -0.231947393275E+04   -0.58432E-02   -0.60907E-02  6071   0.137E-01    0.163E-01
RMM:   3    -0.231947425106E+04   -0.31830E-03   -0.59843E-03  5296   0.447E-02    0.138E-01
RMM:   4    -0.231947404636E+04    0.20470E-03   -0.60682E-04  3672   0.123E-02    0.579E-02
RMM:   5    -0.231947405865E+04   -0.12291E-04   -0.13816E-04  3282   0.791E-03    0.812E-02
RMM:   6    -0.231947400984E+04    0.48803E-04   -0.97679E-05  3198   0.736E-03    0.291E-02
RMM:   7    -0.231947400397E+04    0.58762E-05   -0.21719E-05  2902   0.538E-03
  72 F= -.23403816E+04 E0= -.23403816E+04  d E =-.894264E-03  mag=     5.0000
       N       E                     dE             d eps       ncg     rms          rms(c)
DAV:   1    -0.231947378771E+04    0.22213E-03   -0.38949E-02  4496   0.169E-01    0.566E-02
RMM:   2    -0.231947420745E+04   -0.41974E-03   -0.43474E-03  6039   0.365E-02    0.440E-02
RMM:   3    -0.231947422843E+04   -0.20987E-04   -0.42503E-04  3078   0.127E-02    0.353E-02
RMM:   4    -0.231947421501E+04    0.13428E-04   -0.43876E-05  2934   0.438E-03    0.161E-02
RMM:   5    -0.231947421576E+04   -0.75882E-06   -0.10475E-05  2861   0.254E-03
  73 F= -.23403820E+04 E0= -.23403820E+04  d E =-.322961E-03  mag=     5.0000
       N       E                     dE             d eps       ncg     rms          rms(c)
DAV:   1    -0.231947055455E+04    0.36605E-02   -0.34775E-01  4484   0.505E-01    0.172E-01
RMM:   2    -0.231947435185E+04   -0.37973E-02   -0.39323E-02  6054   0.108E-01    0.137E-01
RMM:   3    -0.231947453694E+04   -0.18509E-03   -0.38650E-03  4878   0.373E-02    0.107E-01
RMM:   4    -0.231947441530E+04    0.12164E-03   -0.39782E-04  3314   0.101E-02    0.460E-02
RMM:   5    -0.231947440111E+04    0.14189E-04   -0.80257E-05  3202   0.692E-03    0.395E-02
RMM:   6    -0.231947440215E+04   -0.10343E-05   -0.49695E-05  2964   0.594E-03
  74 F= -.23403825E+04 E0= -.23403825E+04  d E =-.842585E-03  mag=     5.0000
       N       E                     dE             d eps       ncg     rms          rms(c)
DAV:   1    -0.231945758971E+04    0.16811E-01   -0.13913E+00  4472   0.101E+00    0.345E-01
RMM:   2    -0.231947290898E+04   -0.15319E-01   -0.15863E-01  6007   0.214E-01    0.274E-01
RMM:   3    -0.231947358568E+04   -0.67670E-03   -0.14737E-02  5683   0.698E-02    0.221E-01
RMM:   4    -0.231947309170E+04    0.49398E-03   -0.16119E-03  4996   0.190E-02    0.102E-01
RMM:   5    -0.231947312765E+04   -0.35942E-04   -0.34766E-04  3720   0.107E-02    0.138E-01
RMM:   6    -0.231947297173E+04    0.15592E-03   -0.25253E-04  4161   0.102E-02    0.352E-02
RMM:   7    -0.231947296533E+04    0.63942E-05   -0.51162E-05  3016   0.689E-03
  75 F= -.23403817E+04 E0= -.23403817E+04  d E =-.712989E-04  mag=     5.0000
       N       E                     dE             d eps       ncg     rms          rms(c)
DAV:   1    -0.231946608072E+04    0.68910E-02   -0.73991E-01  4472   0.736E-01    0.248E-01
RMM:   2    -0.231947410850E+04   -0.80278E-02   -0.83395E-02  6054   0.156E-01    0.191E-01
RMM:   3    -0.231947455918E+04   -0.45067E-03   -0.82758E-03  5513   0.522E-02    0.158E-01
RMM:   4    -0.231947429146E+04    0.26771E-03   -0.84675E-04  4006   0.140E-02    0.691E-02
RMM:   5    -0.231947430409E+04   -0.12628E-04   -0.18431E-04  3431   0.873E-03    0.928E-02
RMM:   6    -0.231947424190E+04    0.62194E-04   -0.12671E-04  3242   0.784E-03    0.351E-02
RMM:   7    -0.231947423237E+04    0.95243E-05   -0.28359E-05  2905   0.572E-03
  76 F= -.23403825E+04 E0= -.23403825E+04  d E =-.853959E-03  mag=     5.0000
       N       E                     dE             d eps       ncg     rms          rms(c)
DAV:   1    -0.231947280538E+04    0.14365E-02   -0.13763E-01  4496   0.300E-01    0.110E-01
RMM:   2    -0.231947452676E+04   -0.17214E-02   -0.17738E-02  6242   0.678E-02    0.842E-02
RMM:   3    -0.231947462290E+04   -0.96139E-04   -0.17370E-03  3623   0.231E-02    0.658E-02
RMM:   4    -0.231947457770E+04    0.45198E-04   -0.17480E-04  3071   0.720E-03    0.319E-02
RMM:   5    -0.231947457810E+04   -0.39884E-06   -0.35628E-05  2979   0.432E-03
  77 F= -.23403831E+04 E0= -.23403831E+04  d E =-.572462E-03  mag=     5.0000
       N       E                     dE             d eps       ncg     rms          rms(c)
DAV:   1    -0.231945869312E+04    0.15885E-01   -0.12319E+00  4472   0.898E-01    0.334E-01
RMM:   2    -0.231947422144E+04   -0.15528E-01   -0.15982E-01  6075   0.204E-01    0.263E-01
RMM:   3    -0.231947507173E+04   -0.85030E-03   -0.15862E-02  5649   0.709E-02    0.202E-01
RMM:   4    -0.231947466141E+04    0.41033E-03   -0.15838E-03  4489   0.176E-02    0.938E-02
RMM:   5    -0.231947456213E+04    0.99277E-04   -0.27730E-04  4056   0.110E-02    0.383E-02
RMM:   6    -0.231947455819E+04    0.39393E-05   -0.96344E-05  3247   0.847E-03
  78 F= -.23403837E+04 E0= -.23403837E+04  d E =-.123287E-02  mag=     5.0000
       N       E                     dE             d eps       ncg     rms          rms(c)
DAV:   1    -0.231947247590E+04    0.20862E-02   -0.18194E-01  4496   0.328E-01    0.131E-01
RMM:   2    -0.231947498782E+04   -0.25119E-02   -0.25763E-02  6338   0.778E-02    0.103E-01
RMM:   3    -0.231947513653E+04   -0.14871E-03   -0.25730E-03  3781   0.271E-02    0.806E-02
RMM:   4    -0.231947507610E+04    0.60434E-04   -0.26860E-04  3142   0.820E-03    0.433E-02
RMM:   5    -0.231947507456E+04    0.15388E-05   -0.45985E-05  2977   0.412E-03
  79 F= -.23403845E+04 E0= -.23403845E+04  d E =-.787923E-03  mag=     5.0000
       N       E                     dE             d eps       ncg     rms          rms(c)
DAV:   1    -0.231945254489E+04    0.22531E-01   -0.16364E+00  4472   0.983E-01    0.385E-01
RMM:   2    -0.231947491114E+04   -0.22366E-01   -0.22940E-01  6172   0.230E-01    0.301E-01
RMM:   3    -0.231947623291E+04   -0.13218E-02   -0.22884E-02  5679   0.793E-02    0.228E-01
RMM:   4    -0.231947571683E+04    0.51608E-03   -0.22668E-03  4486   0.195E-02    0.111E-01
RMM:   5    -0.231947564007E+04    0.76760E-04   -0.39257E-04  4128   0.116E-02    0.994E-02
RMM:   6    -0.231947561742E+04    0.22645E-04   -0.25543E-04  3311   0.938E-03    0.820E-02
RMM:   7    -0.231947557043E+04    0.46997E-04   -0.66562E-05  3089   0.629E-03    0.128E-02
RMM:   8    -0.231947557106E+04   -0.62933E-06   -0.10300E-05  2901   0.400E-03
  80 F= -.23403858E+04 E0= -.23403858E+04  d E =-.209911E-02  mag=     5.0000
       N       E                     dE             d eps       ncg     rms          rms(c)
DAV:   1    -0.231947006515E+04    0.55053E-02   -0.37334E-01  4472   0.469E-01    0.185E-01
RMM:   2    -0.231947516889E+04   -0.51037E-02   -0.52346E-02  6169   0.110E-01    0.143E-01
RMM:   3    -0.231947546477E+04   -0.29588E-03   -0.51391E-03  4351   0.363E-02    0.107E-01
RMM:   4    -0.231947535221E+04    0.11256E-03   -0.51517E-04  3262   0.101E-02    0.520E-02
RMM:   5    -0.231947533759E+04    0.14624E-04   -0.87285E-05  3145   0.613E-03    0.507E-02
RMM:   6    -0.231947532753E+04    0.10058E-04   -0.59509E-05  2956   0.539E-03    0.348E-02
RMM:   7    -0.231947531952E+04    0.80094E-05   -0.17758E-05  2917   0.384E-03
  81 F= -.23403860E+04 E0= -.23403860E+04  d E =-.223594E-02  mag=     5.0000
       N       E                     dE             d eps       ncg     rms          rms(c)
DAV:   1    -0.231947102109E+04    0.43064E-02   -0.33246E-01  4472   0.428E-01    0.177E-01
RMM:   2    -0.231947576738E+04   -0.47463E-02   -0.48323E-02  6315   0.104E-01    0.151E-01
RMM:   3    -0.231947600156E+04   -0.23418E-03   -0.47708E-03  4251   0.352E-02    0.104E-01
RMM:   4    -0.231947589784E+04    0.10373E-03   -0.47851E-04  3218   0.969E-03    0.471E-02
RMM:   5    -0.231947588106E+04    0.16778E-04   -0.70853E-05  3058   0.559E-03    0.369E-02
RMM:   6    -0.231947588702E+04   -0.59613E-05   -0.49716E-05  2943   0.497E-03
  82 F= -.23403869E+04 E0= -.23403869E+04  d E =-.955256E-03  mag=     5.0000
       N       E                     dE             d eps       ncg     rms          rms(c)
DAV:   1    -0.231943244171E+04    0.43439E-01   -0.29907E+00  4472   0.128E+00    0.529E-01
RMM:   2    -0.231947500707E+04   -0.42565E-01   -0.43393E-01  6205   0.308E-01    0.440E-01
RMM:   3    -0.231947727503E+04   -0.22680E-02   -0.43314E-02  5793   0.106E-01    0.314E-01
RMM:   4    -0.231947633068E+04    0.94435E-03   -0.43272E-03  5136   0.260E-02    0.144E-01
RMM:   5    -0.231947624677E+04    0.83903E-04   -0.63526E-04  4381   0.138E-02    0.148E-01
RMM:   6    -0.231947614579E+04    0.10099E-03   -0.44768E-04  3611   0.113E-02    0.948E-02
RMM:   7    -0.231947608582E+04    0.59967E-04   -0.13838E-04  3437   0.819E-03    0.169E-02
RMM:   8    -0.231947608620E+04   -0.38628E-06   -0.17282E-05  2914   0.483E-03
  83 F= -.23403883E+04 E0= -.23403883E+04  d E =-.231695E-02  mag=     5.0000
       N       E                     dE             d eps       ncg     rms          rms(c)
DAV:   1    -0.231947061774E+04    0.54681E-02   -0.45795E-01  4472   0.523E-01    0.215E-01
RMM:   2    -0.231947692731E+04   -0.63096E-02   -0.63408E-02  6126   0.123E-01    0.205E-01
RMM:   3    -0.231947707580E+04   -0.14849E-03   -0.61974E-03  5024   0.421E-02    0.124E-01
RMM:   4    -0.231947692701E+04    0.14879E-03   -0.63976E-04  3379   0.110E-02    0.526E-02
RMM:   5    -0.231947689555E+04    0.31466E-04   -0.82512E-05  3121   0.675E-03    0.265E-02
RMM:   6    -0.231947689772E+04   -0.21737E-05   -0.45544E-05  2966   0.609E-03
  84 F= -.23403896E+04 E0= -.23403896E+04  d E =-.128409E-02  mag=     5.0000
       N       E                     dE             d eps       ncg     rms          rms(c)
DAV:   1    -0.231946013308E+04    0.16762E-01   -0.12018E+00  4472   0.847E-01    0.350E-01
RMM:   2    -0.231947674540E+04   -0.16612E-01   -0.16711E-01  6051   0.198E-01    0.328E-01
RMM:   3    -0.231947716806E+04   -0.42265E-03   -0.16488E-02  5697   0.682E-02    0.204E-01
RMM:   4    -0.231947675983E+04    0.40822E-03   -0.17201E-03  4649   0.175E-02    0.953E-02
RMM:   5    -0.231947680543E+04   -0.45599E-04   -0.31328E-04  3484   0.973E-03    0.137E-01
RMM:   6    -0.231947665179E+04    0.15365E-03   -0.21189E-04  3540   0.907E-03    0.324E-02
RMM:   7    -0.231947664978E+04    0.20076E-05   -0.64987E-05  3064   0.687E-03
  85 F= -.23403901E+04 E0= -.23403901E+04  d E =-.180256E-02  mag=     5.0000
       N       E                     dE             d eps       ncg     rms          rms(c)
DAV:   1    -0.231947127434E+04    0.53774E-02   -0.41143E-01  4472   0.486E-01    0.201E-01
RMM:   2    -0.231947700946E+04   -0.57351E-02   -0.57378E-02  6307   0.114E-01    0.200E-01
RMM:   3    -0.231947709161E+04   -0.82150E-04   -0.56025E-03  4912   0.402E-02    0.113E-01
RMM:   4    -0.231947697607E+04    0.11553E-03   -0.57912E-04  3290   0.102E-02    0.532E-02
RMM:   5    -0.231947699361E+04   -0.17538E-04   -0.98920E-05  3091   0.596E-03    0.778E-02
RMM:   6    -0.231947694599E+04    0.47619E-04   -0.65900E-05  3027   0.531E-03    0.195E-02
RMM:   7    -0.231947694639E+04   -0.39708E-06   -0.22823E-05  2932   0.428E-03
  86 F= -.23403909E+04 E0= -.23403909E+04  d E =-.777691E-03  mag=     5.0000
       N       E                     dE             d eps       ncg     rms          rms(c)
DAV:   1    -0.231942543433E+04    0.51512E-01   -0.37041E+00  4472   0.146E+00    0.598E-01
RMM:   2    -0.231947698428E+04   -0.51550E-01   -0.51501E-01  6251   0.341E-01    0.598E-01
RMM:   3    -0.231947763435E+04   -0.65007E-03   -0.50783E-02  5869   0.118E-01    0.332E-01
RMM:   4    -0.231947661656E+04    0.10178E-02   -0.51560E-03  5274   0.278E-02    0.149E-01
RMM:   5    -0.231947668421E+04   -0.67654E-04   -0.79060E-04  4467   0.150E-02    0.206E-01
RMM:   6    -0.231947637916E+04    0.30505E-03   -0.52711E-04  4001   0.121E-02    0.756E-02
RMM:   7    -0.231947635496E+04    0.24203E-04   -0.17809E-04  3419   0.902E-03    0.195E-02
RMM:   8    -0.231947635388E+04    0.10768E-05   -0.18117E-05  2928   0.512E-03
  87 F= -.23403917E+04 E0= -.23403917E+04  d E =-.162583E-02  mag=     5.0000
       N       E                     dE             d eps       ncg     rms          rms(c)
DAV:   1    -0.231946444270E+04    0.11912E-01   -0.93583E-01  4472   0.750E-01    0.306E-01
RMM:   2    -0.231947743826E+04   -0.12996E-01   -0.13104E-01  6143   0.178E-01    0.285E-01
RMM:   3    -0.231947775214E+04   -0.31388E-03   -0.12827E-02  5536   0.615E-02    0.176E-01
RMM:   4    -0.231947744754E+04    0.30460E-03   -0.13164E-03  4142   0.152E-02    0.802E-02
RMM:   5    -0.231947748222E+04   -0.34684E-04   -0.24369E-04  3500   0.902E-03    0.119E-01
RMM:   6    -0.231947737247E+04    0.10975E-03   -0.16406E-04  3242   0.819E-03    0.318E-02
RMM:   7    -0.231947737055E+04    0.19267E-05   -0.45718E-05  2983   0.616E-03
  88 F= -.23403934E+04 E0= -.23403934E+04  d E =-.173070E-02  mag=     5.0000
       N       E                     dE             d eps       ncg     rms          rms(c)
DAV:   1    -0.231945333030E+04    0.24042E-01   -0.17081E+00  4472   0.101E+00    0.415E-01
RMM:   2    -0.231947713259E+04   -0.23802E-01   -0.24017E-01  6174   0.242E-01    0.384E-01
RMM:   3    -0.231947769381E+04   -0.56122E-03   -0.23485E-02  5747   0.851E-02    0.239E-01
RMM:   4    -0.231947713133E+04    0.56248E-03   -0.24091E-03  4979   0.207E-02    0.111E-01
RMM:   5    -0.231947720178E+04   -0.70447E-04   -0.45983E-04  3884   0.115E-02    0.164E-01
RMM:   6    -0.231947698737E+04    0.21441E-03   -0.30703E-04  3884   0.104E-02    0.400E-02
RMM:   7    -0.231947698444E+04    0.29324E-05   -0.83353E-05  3094   0.745E-03
  89 F= -.23403940E+04 E0= -.23403940E+04  d E =-.230669E-02  mag=     5.0000
       N       E                     dE             d eps       ncg     rms          rms(c)
DAV:   1    -0.231945772011E+04    0.19267E-01   -0.13883E+00  4472   0.881E-01    0.365E-01
RMM:   2    -0.231947755170E+04   -0.19832E-01   -0.20241E-01  6274   0.216E-01    0.312E-01
RMM:   3    -0.231947842997E+04   -0.87827E-03   -0.20609E-02  5703   0.765E-02    0.214E-01
RMM:   4    -0.231947801246E+04    0.41751E-03   -0.20633E-03  4409   0.186E-02    0.112E-01
RMM:   5    -0.231947803704E+04   -0.24576E-04   -0.36596E-04  3501   0.960E-03    0.142E-01
RMM:   6    -0.231947787681E+04    0.16023E-03   -0.26972E-04  3586   0.981E-03    0.343E-02
RMM:   7    -0.231947787809E+04   -0.12807E-05   -0.72058E-05  3077   0.689E-03
  90 F= -.23403957E+04 E0= -.23403957E+04  d E =-.171277E-02  mag=     5.0000
       N       E                     dE             d eps       ncg     rms          rms(c)
DAV:   1    -0.231945726607E+04    0.20611E-01   -0.13897E+00  4472   0.881E-01    0.365E-01
RMM:   2    -0.231947710200E+04   -0.19836E-01   -0.20255E-01  6276   0.216E-01    0.311E-01
RMM:   3    -0.231947798199E+04   -0.87999E-03   -0.20618E-02  5682   0.774E-02    0.213E-01
RMM:   4    -0.231947756632E+04    0.41568E-03   -0.20511E-03  4411   0.186E-02    0.110E-01
RMM:   5    -0.231947759732E+04   -0.31004E-04   -0.36297E-04  3514   0.971E-03    0.143E-01
RMM:   6    -0.231947743417E+04    0.16315E-03   -0.26864E-04  3563   0.972E-03    0.350E-02
RMM:   7    -0.231947743408E+04    0.89436E-07   -0.72225E-05  3075   0.691E-03
  91 F= -.23403961E+04 E0= -.23403961E+04  d E =-.208508E-02  mag=     5.0000
       N       E                     dE             d eps       ncg     rms          rms(c)
DAV:   1    -0.231945954582E+04    0.17888E-01   -0.13671E+00  4472   0.904E-01    0.361E-01
RMM:   2    -0.231947773767E+04   -0.18192E-01   -0.18891E-01  6208   0.216E-01    0.261E-01
RMM:   3    -0.231947902971E+04   -0.12920E-02   -0.19728E-02  5684   0.788E-02    0.220E-01
RMM:   4    -0.231947857062E+04    0.45910E-03   -0.19460E-03  4619   0.191E-02    0.113E-01
RMM:   5    -0.231947858433E+04   -0.13714E-04   -0.37606E-04  3572   0.101E-02    0.138E-01
RMM:   6    -0.231947843243E+04    0.15190E-03   -0.28614E-04  3867   0.102E-02    0.364E-02
RMM:   7    -0.231947843039E+04    0.20342E-05   -0.63019E-05  3089   0.682E-03
  92 F= -.23403979E+04 E0= -.23403979E+04  d E =-.179209E-02  mag=     5.0000
       N       E                     dE             d eps       ncg     rms          rms(c)
DAV:   1    -0.231947094907E+04    0.74834E-02   -0.51879E-01  4500   0.557E-01    0.223E-01
RMM:   2    -0.231947787656E+04   -0.69275E-02   -0.71993E-02  6230   0.134E-01    0.161E-01
RMM:   3    -0.231947837972E+04   -0.50316E-03   -0.75179E-03  5128   0.496E-02    0.137E-01
RMM:   4    -0.231947820159E+04    0.17813E-03   -0.74221E-04  3516   0.123E-02    0.700E-02
RMM:   5    -0.231947820812E+04   -0.65306E-05   -0.14485E-04  3169   0.695E-03    0.858E-02
RMM:   6    -0.231947815073E+04    0.57387E-04   -0.11175E-04  3154   0.684E-03    0.225E-02
RMM:   7    -0.231947815037E+04    0.36643E-06   -0.26315E-05  2955   0.504E-03
[...]
RMM:   2    -0.231948068716E+04   -0.43973E-03   -0.43014E-03  5985   0.373E-02    0.801E-02
RMM:   3    -0.231948068171E+04    0.54568E-05   -0.45157E-04  3219   0.138E-02    0.479E-02
RMM:   4    -0.231948066227E+04    0.19436E-04   -0.45183E-05  2932   0.438E-03    0.174E-02
RMM:   5    -0.231948066299E+04   -0.71780E-06   -0.17225E-05  2942   0.316E-03
 157 F= -.23404096E+04 E0= -.23404096E+04  d E =-.927178E-04  mag=     5.0000
       N       E                     dE             d eps       ncg     rms          rms(c)
DAV:   1    -0.231948055795E+04    0.10433E-03   -0.80853E-03  4544   0.758E-02    0.283E-02
RMM:   2    -0.231948065229E+04   -0.94339E-04   -0.98055E-04  5189   0.179E-02    0.250E-02
RMM:   3    -0.231948065920E+04   -0.69101E-05   -0.12434E-04  2919   0.772E-03    0.197E-02
RMM:   4    -0.231948065565E+04    0.35496E-05   -0.10371E-05  2855   0.249E-03
 158 F= -.23404097E+04 E0= -.23404097E+04  d E =-.571576E-04  mag=     5.0000
       N       E                     dE             d eps       ncg     rms          rms(c)
DAV:   1    -0.231947966916E+04    0.99003E-03   -0.73624E-02  4456   0.228E-01    0.823E-02
RMM:   2    -0.231948052220E+04   -0.85304E-03   -0.89071E-03  6115   0.518E-02    0.656E-02
RMM:   3    -0.231948057763E+04   -0.55425E-04   -0.89236E-04  3378   0.178E-02    0.601E-02
RMM:   4    -0.231948054957E+04    0.28059E-04   -0.90341E-05  2959   0.550E-03    0.256E-02
RMM:   5    -0.231948055034E+04   -0.76526E-06   -0.27047E-05  2948   0.358E-03
 159 F= -.23404098E+04 E0= -.23404098E+04  d E =-.145162E-03  mag=     5.0000
       N       E                     dE             d eps       ncg     rms          rms(c)
DAV:   1    -0.231948045270E+04    0.96874E-04   -0.11822E-02  4512   0.998E-02    0.378E-02
RMM:   2    -0.231948057460E+04   -0.12190E-03   -0.12740E-03  5807   0.228E-02    0.300E-02
RMM:   3    -0.231948058274E+04   -0.81439E-05   -0.15718E-04  2952   0.954E-03    0.264E-02
RMM:   4    -0.231948057553E+04    0.72112E-05   -0.15750E-05  2878   0.327E-03
 160 F= -.23404099E+04 E0= -.23404099E+04  d E =-.108104E-03  mag=     5.0000
       N       E                     dE             d eps       ncg     rms          rms(c)
DAV:   1    -0.231948028201E+04    0.30073E-03   -0.23003E-02  4480   0.138E-01    0.519E-02
RMM:   2    -0.231948050782E+04   -0.22581E-03   -0.24321E-03  5967   0.303E-02    0.322E-02
RMM:   3    -0.231948053740E+04   -0.29581E-04   -0.29626E-04  3046   0.123E-02    0.498E-02
RMM:   4    -0.231948051685E+04    0.20551E-04   -0.32275E-05  2893   0.409E-03    0.159E-02
RMM:   5    -0.231948051702E+04   -0.16976E-06   -0.14004E-05  2927   0.256E-03
 161 F= -.23404099E+04 E0= -.23404099E+04  d E =-.164673E-03  mag=     5.0000
       N       E                     dE             d eps       ncg     rms          rms(c)
DAV:   1    -0.231948047312E+04    0.43732E-04   -0.63119E-03  4624   0.751E-02    0.287E-02
RMM:   2    -0.231948053514E+04   -0.62021E-04   -0.62846E-04  5270   0.167E-02    0.290E-02
RMM:   3    -0.231948053699E+04   -0.18517E-05   -0.80377E-05  2908   0.750E-03
 162 F= -.23404100E+04 E0= -.23404100E+04  d E =-.639336E-04  mag=     5.0000
       N       E                     dE             d eps       ncg     rms          rms(c)
DAV:   1    -0.231948037834E+04    0.15680E-03   -0.12264E-02  4496   0.104E-01    0.401E-02
RMM:   2    -0.231948049066E+04   -0.11232E-03   -0.12263E-03  5809   0.226E-02    0.256E-02
RMM:   3    -0.231948049869E+04   -0.80267E-05   -0.13076E-04  2929   0.858E-03    0.272E-02
RMM:   4    -0.231948049253E+04    0.61557E-05   -0.15964E-05  2881   0.312E-03
 163 F= -.23404100E+04 E0= -.23404100E+04  d E =-.805790E-04  mag=     5.0000
       N       E                     dE             d eps       ncg     rms          rms(c)
DAV:   1    -0.231948041656E+04    0.82129E-04   -0.85598E-03  4528   0.857E-02    0.343E-02
RMM:   2    -0.231948051983E+04   -0.10327E-03   -0.89538E-04  5610   0.186E-02    0.556E-02
RMM:   3    -0.231948050335E+04    0.16480E-04   -0.11921E-04  2953   0.833E-03    0.199E-02
RMM:   4    -0.231948049956E+04    0.37845E-05   -0.11466E-05  2898   0.256E-03
 164 F= -.23404101E+04 E0= -.23404101E+04  d E =-.506884E-04  mag=     5.0000
       N       E                     dE             d eps       ncg     rms          rms(c)
DAV:   1    -0.231948039516E+04    0.10818E-03   -0.71362E-03  4560   0.779E-02    0.280E-02
RMM:   2    -0.231948046301E+04   -0.67847E-04   -0.73710E-04  5421   0.170E-02    0.154E-02
RMM:   3    -0.231948046834E+04   -0.53316E-05   -0.77069E-05  2899   0.692E-03
 165 F= -.23404101E+04 E0= -.23404101E+04  d E =-.595470E-04  mag=     5.0000
       N       E                     dE             d eps       ncg     rms          rms(c)
DAV:   1    -0.231948038309E+04    0.79917E-04   -0.79821E-03  4496   0.830E-02    0.314E-02
RMM:   2    -0.231948046863E+04   -0.85538E-04   -0.86621E-04  5577   0.184E-02    0.316E-02
RMM:   3    -0.231948047328E+04   -0.46492E-05   -0.10938E-04  2921   0.773E-03    0.264E-02
RMM:   4    -0.231948046741E+04    0.58727E-05   -0.11385E-05  2863   0.258E-03
 166 F= -.23404101E+04 E0= -.23404101E+04  d E =-.538271E-04  mag=     5.0000
       N       E                     dE             d eps       ncg     rms          rms(c)
DAV:   1    -0.231948032386E+04    0.14942E-03   -0.95904E-03  4496   0.909E-02    0.335E-02
RMM:   2    -0.231948042150E+04   -0.97640E-04   -0.10155E-03  5699   0.197E-02    0.269E-02
RMM:   3    -0.231948043006E+04   -0.85587E-05   -0.12067E-04  2964   0.807E-03    0.294E-02
RMM:   4    -0.231948042175E+04    0.83101E-05   -0.12485E-05  2876   0.285E-03
 167 F= -.23404101E+04 E0= -.23404101E+04  d E =-.684770E-04  mag=     5.0000
       N       E                     dE             d eps       ncg     rms          rms(c)
DAV:   1    -0.231948036325E+04    0.66806E-04   -0.71870E-03  4496   0.824E-02    0.337E-02
RMM:   2    -0.231948044460E+04   -0.81346E-04   -0.75791E-04  5566   0.180E-02    0.445E-02
RMM:   3    -0.231948043519E+04    0.94098E-05   -0.90080E-05  2915   0.770E-03
 168 F= -.23404102E+04 E0= -.23404102E+04  d E =-.679864E-04  mag=     5.0000
       N       E                     dE             d eps       ncg     rms          rms(c)
DAV:   1    -0.231948035949E+04    0.85104E-04   -0.44932E-03  4632   0.649E-02    0.280E-02
RMM:   2    -0.231948040569E+04   -0.46200E-04   -0.47694E-04  4887   0.144E-02    0.255E-02
RMM:   3    -0.231948040511E+04    0.58365E-06   -0.59467E-05  2898   0.643E-03
 169 F= -.23404102E+04 E0= -.23404102E+04  d E =-.811011E-04  mag=     5.0000
       N       E                     dE             d eps       ncg     rms          rms(c)
DAV:   1    -0.231948037234E+04    0.33355E-04   -0.37048E-03  4504   0.623E-02    0.290E-02
RMM:   2    -0.231948042638E+04   -0.54044E-04   -0.42286E-04  4904   0.142E-02    0.514E-02
RMM:   3    -0.231948040898E+04    0.17407E-04   -0.56401E-05  2888   0.658E-03    0.158E-02
RMM:   4    -0.231948040750E+04    0.14727E-05   -0.85391E-06  2862   0.229E-03
 170 F= -.23404103E+04 E0= -.23404103E+04  d E =-.355339E-04  mag=     5.0000
       N       E                     dE             d eps       ncg     rms          rms(c)
DAV:   1    -0.231948036963E+04    0.39348E-04   -0.18539E-03  4760   0.440E-02    0.187E-02
RMM:   2    -0.231948038698E+04   -0.17347E-04   -0.18505E-04  3831   0.983E-03    0.163E-02
RMM:   3    -0.231948038865E+04   -0.16768E-05   -0.28128E-05  2875   0.565E-03
 171 F= -.23404103E+04 E0= -.23404103E+04  d E =-.402618E-04  mag=     5.0000
       N       E                     dE             d eps       ncg     rms          rms(c)
DAV:   1    -0.231948033048E+04    0.56493E-04   -0.41117E-03  4464   0.634E-02    0.246E-02
RMM:   2    -0.231948037645E+04   -0.45966E-04   -0.48730E-04  4936   0.145E-02    0.185E-02
RMM:   3    -0.231948038001E+04   -0.35610E-05   -0.53827E-05  2881   0.646E-03
 172 F= -.23404103E+04 E0= -.23404103E+04  d E =-.259155E-04  mag=     5.0000
       N       E                     dE             d eps       ncg     rms          rms(c)
DAV:   1    -0.231948035863E+04    0.17819E-04   -0.53394E-04  5120   0.230E-02    0.113E-02
RMM:   2    -0.231948036447E+04   -0.58424E-05   -0.67496E-05  3009   0.558E-03
 173 F= -.23404103E+04 E0= -.23404103E+04  d E =-.228991E-04  mag=     5.0000
       N       E                     dE             d eps       ncg     rms          rms(c)
DAV:   1    -0.231948032366E+04    0.34971E-04   -0.35637E-03  4480   0.593E-02    0.234E-02
RMM:   2    -0.231948036831E+04   -0.44648E-04   -0.44076E-04  4782   0.146E-02    0.230E-02
RMM:   3    -0.231948036807E+04    0.23771E-06   -0.51019E-05  2878   0.686E-03
 174 F= -.23404103E+04 E0= -.23404103E+04  d E =-.377892E-04  mag=     5.0000
       N       E                     dE             d eps       ncg     rms          rms(c)
DAV:   1    -0.231948034570E+04    0.22610E-04   -0.71544E-04  4952   0.266E-02    0.170E-02
RMM:   2    -0.231948036387E+04   -0.18174E-04   -0.10978E-04  3268   0.675E-03    0.384E-02
RMM:   3    -0.231948035283E+04    0.11041E-04   -0.18740E-05  2601   0.389E-03    0.785E-03
RMM:   4    -0.231948035273E+04    0.10132E-06   -0.37087E-06  2400   0.148E-03
 175 F= -.23404103E+04 E0= -.23404103E+04  d E =-.378046E-04  mag=     5.0000
       N       E                     dE             d eps       ncg     rms          rms(c)
DAV:   1    -0.231948031629E+04    0.36543E-04   -0.27998E-03  4464   0.539E-02    0.205E-02
RMM:   2    -0.231948034399E+04   -0.27705E-04   -0.29345E-04  4443   0.121E-02    0.164E-02
RMM:   3    -0.231948034692E+04   -0.29253E-05   -0.37801E-05  2851   0.637E-03
 176 F= -.23404104E+04 E0= -.23404104E+04  d E =-.314997E-04  mag=     5.0000
       N       E                     dE             d eps       ncg     rms          rms(c)
DAV:   1    -0.231948032464E+04    0.19354E-04   -0.53454E-04  5000   0.236E-02    0.113E-02
RMM:   2    -0.231948033009E+04   -0.54555E-05   -0.61764E-05  3060   0.578E-03
 177 F= -.23404104E+04 E0= -.23404104E+04  d E =-.310588E-04  mag=     5.0000
       N       E                     dE             d eps       ncg     rms          rms(c)
DAV:   1    -0.231948030398E+04    0.20656E-04   -0.19251E-03  4480   0.451E-02    0.187E-02
RMM:   2    -0.231948032649E+04   -0.22512E-04   -0.21446E-04  3970   0.111E-02    0.203E-02
RMM:   3    -0.231948032443E+04    0.20585E-05   -0.28513E-05  2828   0.605E-03
 178 F= -.23404104E+04 E0= -.23404104E+04  d E =-.207712E-04  mag=     5.0000
       N       E                     dE             d eps       ncg     rms          rms(c)
DAV:   1    -0.231948031258E+04    0.13915E-04   -0.23222E-04  5176   0.158E-02    0.119E-02
RMM:   2    -0.231948032096E+04   -0.83833E-05   -0.37227E-05  2758   0.419E-03
 179 F= -.23404104E+04 E0= -.23404104E+04  d E =-.265405E-04  mag=     5.0000
       N       E                     dE             d eps       ncg     rms          rms(c)
DAV:   1    -0.231948029712E+04    0.15452E-04   -0.15087E-03  4408   0.387E-02    0.145E-02
RMM:   2    -0.231948031235E+04   -0.15221E-04   -0.16261E-04  3573   0.944E-03    0.116E-02
RMM:   3    -0.231948031428E+04   -0.19362E-05   -0.22355E-05  2524   0.520E-03
 180 F= -.23404104E+04 E0= -.23404104E+04  d E =-.121539E-04  mag=     5.0000
       N       E                     dE             d eps       ncg     rms          rms(c)
DAV:   1    -0.231948027890E+04    0.33445E-04   -0.18149E-03  4480   0.422E-02    0.163E-02
RMM:   2    -0.231948029608E+04   -0.17177E-04   -0.19078E-04  3678   0.991E-03    0.103E-02
RMM:   3    -0.231948029826E+04   -0.21792E-05   -0.26105E-05  2822   0.541E-03
 181 F= -.23404104E+04 E0= -.23404104E+04  d E =-.170232E-04  mag=     5.0000
       N       E                     dE             d eps       ncg     rms          rms(c)
DAV:   1    -0.231948027956E+04    0.16513E-04   -0.13885E-03  4410   0.357E-02    0.150E-02
RMM:   2    -0.231948029719E+04   -0.17627E-04   -0.16206E-04  3534   0.876E-03    0.223E-02
RMM:   3    -0.231948029544E+04    0.17518E-05   -0.22988E-05  2686   0.484E-03
 182 F= -.23404104E+04 E0= -.23404104E+04  d E =-.172627E-04  mag=     5.0000
       N       E                     dE             d eps       ncg     rms          rms(c)
DAV:   1    -0.231948027837E+04    0.18818E-04   -0.63711E-04  4608   0.241E-02    0.112E-02
RMM:   2    -0.231948028656E+04   -0.81814E-05   -0.75496E-05  3167   0.615E-03
 183 F= -.23404104E+04 E0= -.23404104E+04  d E =-.220228E-04  mag=     5.0000
       N       E                     dE             d eps       ncg     rms          rms(c)
DAV:   1    -0.231948026546E+04    0.12915E-04   -0.14219E-03  4410   0.382E-02    0.157E-02
RMM:   2    -0.231948028025E+04   -0.14791E-04   -0.15222E-04  3694   0.960E-03    0.139E-02
RMM:   3    -0.231948028042E+04   -0.16960E-06   -0.20940E-05  2632   0.539E-03
 184 F= -.23404104E+04 E0= -.23404104E+04  d E =-.205735E-04  mag=     5.0000
       N       E                     dE             d eps       ncg     rms          rms(c)
DAV:   1    -0.231948024927E+04    0.30982E-04   -0.11319E-03  4496   0.338E-02    0.143E-02
RMM:   2    -0.231948025957E+04   -0.10303E-04   -0.11128E-04  3422   0.798E-03    0.132E-02
RMM:   3    -0.231948026046E+04   -0.88655E-06   -0.16934E-05  2773   0.467E-03
 185 F= -.23404104E+04 E0= -.23404104E+04  d E =-.247433E-04  mag=     5.0000
       N       E                     dE             d eps       ncg     rms          rms(c)
DAV:   1    -0.231948023227E+04    0.27299E-04   -0.16356E-03  4388   0.388E-02    0.153E-02
RMM:   2    -0.231948025023E+04   -0.17954E-04   -0.18521E-04  3644   0.933E-03    0.141E-02
RMM:   3    -0.231948025057E+04   -0.34203E-06   -0.22440E-05  2744   0.502E-03
 186 F= -.23404105E+04 E0= -.23404105E+04  d E =-.184875E-04  mag=     5.0000
       N       E                     dE             d eps       ncg     rms          rms(c)
DAV:   1    -0.231948022967E+04    0.20560E-04   -0.51699E-04  4696   0.219E-02    0.953E-03
RMM:   2    -0.231948023499E+04   -0.53237E-05   -0.59431E-05  3057   0.550E-03
 187 F= -.23404105E+04 E0= -.23404105E+04  d E =-.189652E-04  mag=     5.0000
       N       E                     dE             d eps       ncg     rms          rms(c)
DAV:   1    -0.231948020816E+04    0.21502E-04   -0.18117E-03  4368   0.397E-02    0.183E-02
RMM:   2    -0.231948023714E+04   -0.28979E-04   -0.23170E-04  3719   0.102E-02    0.355E-02
RMM:   3    -0.231948022867E+04    0.84696E-05   -0.28025E-05  2611   0.540E-03
 188 F= -.23404105E+04 E0= -.23404105E+04  d E =-.201598E-04  mag=     5.0000
       N       E                     dE             d eps       ncg     rms          rms(c)
DAV:   1    -0.231948020567E+04    0.31474E-04   -0.87836E-04  4272   0.275E-02    0.136E-02
RMM:   2    -0.231948021795E+04   -0.12283E-04   -0.10385E-04  3259   0.689E-03    0.193E-02
RMM:   3    -0.231948021446E+04    0.34924E-05   -0.15277E-05  2608   0.410E-03
 189 F= -.23404105E+04 E0= -.23404105E+04  d E =-.244792E-04  mag=     5.0000
       N       E                     dE             d eps       ncg     rms          rms(c)
DAV:   1    -0.231948019263E+04    0.25320E-04   -0.17566E-03  4394   0.391E-02    0.170E-02
RMM:   2    -0.231948021518E+04   -0.22549E-04   -0.19283E-04  3654   0.936E-03    0.285E-02
RMM:   3    -0.231948021041E+04    0.47667E-05   -0.23465E-05  2671   0.501E-03
 190 F= -.23404105E+04 E0= -.23404105E+04  d E =-.211462E-04  mag=     5.0000
       N       E                     dE             d eps       ncg     rms          rms(c)
DAV:   1    -0.231948019475E+04    0.20430E-04   -0.44977E-04  4648   0.198E-02    0.110E-02
RMM:   2    -0.231948020170E+04   -0.69497E-05   -0.54457E-05  3037   0.520E-03
 191 F= -.23404105E+04 E0= -.23404105E+04  d E =-.252510E-04  mag=     5.0000
       N       E                     dE             d eps       ncg     rms          rms(c)
DAV:   1    -0.231948017398E+04    0.20773E-04   -0.13370E-03  4336   0.342E-02    0.141E-02
RMM:   2    -0.231948018849E+04   -0.14509E-04   -0.15233E-04  3526   0.877E-03    0.118E-02
RMM:   3    -0.231948018930E+04   -0.81646E-06   -0.20611E-05  2589   0.509E-03
 192 F= -.23404105E+04 E0= -.23404105E+04  d E =-.146253E-04  mag=     5.0000
       N       E                     dE             d eps       ncg     rms          rms(c)
DAV:   1    -0.231948017147E+04    0.17014E-04   -0.39512E-04  4664   0.186E-02    0.888E-03
RMM:   2    -0.231948017570E+04   -0.42298E-05   -0.44562E-05  2943   0.482E-03
 193 F= -.23404105E+04 E0= -.23404105E+04  d E =-.159163E-04  mag=     5.0000
       N       E                     dE             d eps       ncg     rms          rms(c)
DAV:   1    -0.231948015417E+04    0.17304E-04   -0.13094E-03  4352   0.334E-02    0.154E-02
RMM:   2    -0.231948017487E+04   -0.20703E-04   -0.17179E-04  3469   0.893E-03    0.281E-02
RMM:   3    -0.231948017012E+04    0.47511E-05   -0.20433E-05  2493   0.475E-03
 194 F= -.23404105E+04 E0= -.23404105E+04  d E =-.176516E-04  mag=     5.0000
       N       E                     dE             d eps       ncg     rms          rms(c)
DAV:   1    -0.231948014805E+04    0.26827E-04   -0.74827E-04  4272   0.251E-02    0.116E-02
RMM:   2    -0.231948015722E+04   -0.91747E-05   -0.90680E-05  3216   0.659E-03
 195 F= -.23404106E+04 E0= -.23404106E+04  d E =-.224506E-04  mag=     5.0000
       N       E                     dE             d eps       ncg     rms          rms(c)
DAV:   1    -0.231948013188E+04    0.16161E-04   -0.16928E-03  4400   0.382E-02    0.168E-02
RMM:   2    -0.231948015561E+04   -0.23728E-04   -0.22282E-04  3710   0.100E-02    0.236E-02
RMM:   3    -0.231948015298E+04    0.26287E-05   -0.26678E-05  2704   0.545E-03
 196 F= -.23404106E+04 E0= -.23404106E+04  d E =-.198317E-04  mag=     5.0000
       N       E                     dE             d eps       ncg     rms          rms(c)
DAV:   1    -0.231948012148E+04    0.34134E-04   -0.12437E-03  4488   0.325E-02    0.148E-02
RMM:   2    -0.231948013716E+04   -0.15685E-04   -0.15299E-04  3457   0.814E-03    0.168E-02
RMM:   3    -0.231948013609E+04    0.10690E-05   -0.20761E-05  2715   0.468E-03
 197 F= -.23404106E+04 E0= -.23404106E+04  d E =-.237753E-04  mag=     5.0000
       N       E                     dE             d eps       ncg     rms          rms(c)
DAV:   1    -0.231948011013E+04    0.27034E-04   -0.14024E-03  4290   0.338E-02    0.162E-02
RMM:   2    -0.231948013348E+04   -0.23354E-04   -0.19004E-04  3503   0.855E-03    0.304E-02
RMM:   3    -0.231948012783E+04    0.56580E-05   -0.26128E-05  2599   0.473E-03
 198 F= -.23404106E+04 E0= -.23404106E+04  d E =-.177386E-04  mag=     5.0000
       N       E                     dE             d eps       ncg     rms          rms(c)
DAV:   1    -0.231948006485E+04    0.68630E-04   -0.28865E-03  4432   0.483E-02    0.200E-02
RMM:   2    -0.231948010328E+04   -0.38424E-04   -0.37397E-04  4076   0.117E-02    0.229E-02
RMM:   3    -0.231948010166E+04    0.16188E-05   -0.47190E-05  2813   0.606E-03
 199 F= -.23404106E+04 E0= -.23404106E+04  d E =-.288383E-04  mag=     5.0000
       N       E                     dE             d eps       ncg     rms          rms(c)
DAV:   1    -0.231948007084E+04    0.32439E-04   -0.18851E-03  4416   0.412E-02    0.187E-02
RMM:   2    -0.231948009963E+04   -0.28791E-04   -0.23678E-04  3771   0.996E-03    0.337E-02
RMM:   3    -0.231948009299E+04    0.66408E-05   -0.31541E-05  2655   0.539E-03
 200 F= -.23404106E+04 E0= -.23404106E+04  d E =-.250798E-04  mag=     5.0000
       N       E                     dE             d eps       ncg     rms          rms(c)
DAV:   1    -0.231948003617E+04    0.63456E-04   -0.24847E-03  4448   0.471E-02    0.205E-02
RMM:   2    -0.231948006776E+04   -0.31583E-04   -0.30246E-04  3978   0.113E-02    0.246E-02
RMM:   3    -0.231948006427E+04    0.34864E-05   -0.38645E-05  2863   0.594E-03
 201 F= -.23404106E+04 E0= -.23404106E+04  d E =-.351852E-04  mag=     5.0000
