       N       E                     dE             d eps       ncg     rms          rms(c)
DAV:   1     0.127447568870E+05    0.12745E+05   -0.82622E+05  4408   0.144E+03
DAV:   2    -0.104549448543E+04   -0.13790E+05   -0.13216E+05  5280   0.331E+02
DAV:   3    -0.245816723775E+04   -0.14127E+04   -0.13998E+04  5312   0.111E+02
DAV:   4    -0.250399177804E+04   -0.45825E+02   -0.45608E+02  6656   0.299E+01
DAV:   5    -0.250480950695E+04   -0.81773E+00   -0.81604E+00  5496   0.322E+00    0.170E+02
RMM:   6    -0.147380488117E+04    0.10310E+04   -0.19236E+03  4377   0.388E+01    0.768E+01
RMM:   7    -0.165225838594E+04   -0.17845E+03   -0.36828E+02  4920   0.145E+01    0.593E+01
RMM:   8    -0.167804013569E+04   -0.25782E+02   -0.77254E+01  5093   0.773E+00    0.406E+01
RMM:   9    -0.176541822202E+04   -0.87378E+02   -0.58272E+01  4961   0.548E+00    0.390E+01
RMM:  10    -0.186470554055E+04   -0.99287E+02   -0.54791E+01  5130   0.680E+00    0.340E+01
RMM:  11    -0.195826279029E+04   -0.93557E+02   -0.49498E+01  5087   0.582E+00    0.212E+01
RMM:  12    -0.205225034938E+04   -0.93988E+02   -0.38165E+01  4628   0.504E+00    0.152E+01
RMM:  13    -0.215775406172E+04   -0.10550E+03   -0.70653E+01  4471   0.621E+00    0.113E+01
RMM:  14    -0.225516639285E+04   -0.97412E+02   -0.88947E+01  4389   0.660E+00    0.113E+01
RMM:  15    -0.228107733063E+04   -0.25911E+02   -0.25229E+01  4568   0.413E+00    0.477E+00
RMM:  16    -0.228979430640E+04   -0.87170E+01   -0.97250E+00  4743   0.213E+00    0.355E+00
RMM:  17    -0.229334730438E+04   -0.35530E+01   -0.32038E+00  4569   0.136E+00    0.212E+00
RMM:  18    -0.229455571269E+04   -0.12084E+01   -0.83498E-01  4998   0.697E-01    0.138E+00
RMM:  19    -0.229487863582E+04   -0.32292E+00   -0.18699E-01  5266   0.273E-01    0.171E+00
RMM:  20    -0.229493406668E+04   -0.55431E-01   -0.40337E-02  4899   0.130E-01    0.125E+00
RMM:  21    -0.229543097460E+04   -0.49691E+00   -0.18883E-01  4412   0.240E-01    0.158E+00
RMM:  22    -0.229549672773E+04   -0.65753E-01   -0.44818E-02  4426   0.153E-01    0.128E+00
RMM:  23    -0.229547941913E+04    0.17309E-01   -0.65465E-02  4454   0.153E-01    0.154E+00
RMM:  24    -0.229544994722E+04    0.29472E-01   -0.14691E-02  4452   0.869E-02    0.163E+00
RMM:  25    -0.229542837601E+04    0.21571E-01   -0.54924E-03  4304   0.409E-02    0.166E+00
RMM:  26    -0.229542623605E+04    0.21400E-02   -0.51766E-04  3322   0.156E-02    0.166E+00
RMM:  27    -0.229543394358E+04   -0.77075E-02   -0.45836E-04  3172   0.986E-03    0.165E+00
RMM:  28    -0.229543408759E+04   -0.14402E-03   -0.45314E-03  4029   0.352E-02    0.174E+00
RMM:  29    -0.229532593574E+04    0.10815E+00   -0.10265E-01  4348   0.155E-01    0.168E+00
RMM:  30    -0.229546210869E+04   -0.13617E+00   -0.97431E-02  4478   0.132E-01    0.157E+00
RMM:  31    -0.229555725874E+04   -0.95150E-01   -0.28836E-01  4428   0.261E-01    0.124E+00
RMM:  32    -0.229556707772E+04   -0.98190E-02   -0.45290E-02  4482   0.129E-01    0.123E+00
RMM:  33    -0.229557495526E+04   -0.78775E-02   -0.14806E-02  4654   0.575E-02    0.106E+00
RMM:  34    -0.229558460319E+04   -0.96479E-02   -0.24412E-02  4565   0.792E-02    0.114E+00
RMM:  35    -0.229558405901E+04    0.54417E-03   -0.15570E-03  4485   0.311E-02    0.106E+00
RMM:  36    -0.229558962512E+04   -0.55661E-02   -0.51936E-03  4297   0.333E-02    0.113E+00
RMM:  37    -0.229559223900E+04   -0.26139E-02   -0.12727E-02  4420   0.493E-02    0.122E+00
RMM:  38    -0.229559301239E+04   -0.77338E-03   -0.75975E-04  3992   0.211E-02    0.120E+00
RMM:  39    -0.229559409523E+04   -0.10828E-02   -0.68626E-03  4353   0.363E-02    0.102E+00
RMM:  40    -0.229559582382E+04   -0.17286E-02   -0.12173E-02  4451   0.494E-02    0.896E-01
RMM:  41    -0.229559520651E+04    0.61731E-03   -0.60462E-03  4687   0.367E-02    0.935E-01
RMM:  42    -0.229559394953E+04    0.12570E-02   -0.12541E-02  4518   0.517E-02    0.118E+00
RMM:  43    -0.229559322419E+04    0.72534E-03   -0.30793E-03  4312   0.338E-02    0.133E+00
RMM:  44    -0.229559787591E+04   -0.46517E-02   -0.86726E-03  4354   0.418E-02    0.104E+00
RMM:  45    -0.229560297626E+04   -0.51004E-02   -0.10174E-02  4518   0.488E-02    0.684E-01
RMM:  46    -0.229561176072E+04   -0.87845E-02   -0.14839E-02  4501   0.595E-02    0.413E-01
RMM:  47    -0.229561706368E+04   -0.53030E-02   -0.13287E-02  4707   0.601E-02    0.449E-01
RMM:  48    -0.229562112901E+04   -0.40653E-02   -0.12031E-02  4762   0.499E-02    0.789E-01
RMM:  49    -0.229562108492E+04    0.44094E-04   -0.10099E-03  4224   0.211E-02    0.772E-01
RMM:  50    -0.229562110151E+04   -0.16594E-04   -0.15536E-04  3159   0.555E-03    0.786E-01
RMM:  51    -0.229562091380E+04    0.18771E-03   -0.25087E-05  2830   0.436E-03    0.763E-01
RMM:  52    -0.229562021551E+04    0.69829E-03   -0.57735E-04  3623   0.111E-02    0.597E-01
RMM:  53    -0.229562031188E+04   -0.96369E-04   -0.90028E-04  3902   0.158E-02    0.348E-01
RMM:  54    -0.229562004253E+04    0.26935E-03   -0.10063E-03  3924   0.162E-02    0.166E-01
RMM:  55    -0.229562037821E+04   -0.33568E-03   -0.22101E-04  3507   0.969E-03    0.148E-01
RMM:  56    -0.229561996858E+04    0.40963E-03   -0.56100E-04  3752   0.108E-02    0.150E-01
RMM:  57    -0.229561979658E+04    0.17200E-03   -0.20216E-04  3217   0.872E-03    0.173E-01
RMM:  58    -0.229561990174E+04   -0.10516E-03   -0.43895E-05  2870   0.480E-03    0.187E-01
RMM:  59    -0.229562015172E+04   -0.24997E-03   -0.92303E-05  2855   0.520E-03    0.192E-01
RMM:  60    -0.229562025187E+04   -0.10015E-03   -0.35485E-05  2739   0.378E-03    0.199E-01
RMM:  61    -0.229562037148E+04   -0.11961E-03   -0.39318E-05  2814   0.366E-03    0.203E-01
RMM:  62    -0.229562055799E+04   -0.18652E-03   -0.79221E-05  2911   0.482E-03    0.216E-01
RMM:  63    -0.229562050057E+04    0.57427E-04   -0.55822E-06  2584   0.302E-03    0.216E-01
RMM:  64    -0.229562058027E+04   -0.79705E-04   -0.11489E-05  2490   0.177E-03    0.219E-01
RMM:  65    -0.229562057162E+04    0.86552E-05   -0.10457E-06  2226   0.142E-03
   1 F= -.23158901E+04 E0= -.23158780E+04  d E =-.231589E+04  mag=     4.4709
       N       E                     dE             d eps       ncg     rms          rms(c)
DAV:   1    -0.229518623734E+04    0.43434E+00   -0.64760E+01  4544   0.364E+00    0.429E+00
RMM:   2    -0.229682664294E+04   -0.16404E+01   -0.11753E+01  5626   0.126E+00    0.966E+00
RMM:   3    -0.229604901410E+04    0.77763E+00   -0.13536E+00  4872   0.620E-01    0.207E+00
RMM:   4    -0.229595647322E+04    0.92541E-01   -0.16942E-01  4741   0.174E-01    0.165E+00
RMM:   5    -0.229599760549E+04   -0.41132E-01   -0.37509E-02  4775   0.941E-02    0.190E+00
RMM:   6    -0.229601139593E+04   -0.13790E-01   -0.51140E-03  4363   0.467E-02    0.188E+00
RMM:   7    -0.229603627295E+04   -0.24877E-01   -0.89938E-03  4345   0.433E-02    0.162E+00
RMM:   8    -0.229610471835E+04   -0.68445E-01   -0.69637E-02  4432   0.124E-01    0.638E-01
RMM:   9    -0.229614783476E+04   -0.43116E-01   -0.30399E-02  4582   0.907E-02    0.419E-01
RMM:  10    -0.229617825982E+04   -0.30425E-01   -0.10516E-02  4585   0.535E-02    0.234E-01
RMM:  11    -0.229620165995E+04   -0.23400E-01   -0.46354E-03  4421   0.364E-02    0.196E-01
RMM:  12    -0.229621404518E+04   -0.12385E-01   -0.20242E-03  4321   0.269E-02    0.241E-01
RMM:  13    -0.229621504913E+04   -0.10039E-02   -0.22591E-04  3867   0.113E-02    0.245E-01
RMM:  14    -0.229621880706E+04   -0.37579E-02   -0.41209E-04  3683   0.107E-02    0.233E-01
RMM:  15    -0.229622952055E+04   -0.10713E-01   -0.36593E-03  4099   0.308E-02    0.195E-01
RMM:  16    -0.229623550319E+04   -0.59826E-02   -0.23920E-03  4074   0.282E-02    0.120E-01
RMM:  17    -0.229623739399E+04   -0.18908E-02   -0.71460E-04  4202   0.167E-02    0.819E-02
RMM:  18    -0.229623850154E+04   -0.11075E-02   -0.36645E-04  3736   0.115E-02    0.461E-02
RMM:  19    -0.229623990880E+04   -0.14073E-02   -0.30157E-04  3773   0.119E-02    0.242E-02
RMM:  20    -0.229624060132E+04   -0.69253E-03   -0.14805E-04  3718   0.879E-03    0.138E-02
RMM:  21    -0.229624085929E+04   -0.25797E-03   -0.44272E-05  3313   0.571E-03    0.775E-03
RMM:  22    -0.229624096107E+04   -0.10178E-03   -0.15917E-05  2921   0.386E-03    0.459E-03
RMM:  23    -0.229624099818E+04   -0.37109E-04   -0.86804E-06  2771   0.332E-03    0.304E-03
RMM:  24    -0.229624100759E+04   -0.94100E-05   -0.57499E-06  2528   0.263E-03
   2 F= -.23165083E+04 E0= -.23165010E+04  d E =-.618186E+00  mag=     3.0008
       N       E                     dE             d eps       ncg     rms          rms(c)
DAV:   1    -0.229624091698E+04    0.81197E-04   -0.17096E+00  5080   0.656E-01    0.552E-01
RMM:   2    -0.229628719341E+04   -0.46276E-01   -0.29763E-01  5779   0.205E-01    0.155E+00
RMM:   3    -0.229626683100E+04    0.20362E-01   -0.40810E-02  4963   0.107E-01    0.256E-01
RMM:   4    -0.229626657487E+04    0.25614E-03   -0.38108E-03  4430   0.198E-02    0.175E-01
RMM:   5    -0.229626641887E+04    0.15600E-03   -0.99684E-04  3905   0.141E-02    0.136E-01
RMM:   6    -0.229626635452E+04    0.64353E-04   -0.34143E-04  3371   0.867E-03    0.115E-01
RMM:   7    -0.229626636464E+04   -0.10119E-04   -0.11291E-04  2977   0.620E-03    0.887E-02
RMM:   8    -0.229626634185E+04    0.22787E-04   -0.10456E-04  2908   0.524E-03    0.479E-02
RMM:   9    -0.229626634033E+04    0.15166E-05   -0.50326E-05  2914   0.442E-03
   3 F= -.23165333E+04 E0= -.23165269E+04  d E =-.643149E+00  mag=     3.0003
       N       E                     dE             d eps       ncg     rms          rms(c)
DAV:   1    -0.229613257532E+04    0.13377E+00   -0.68748E+00  4496   0.136E+00    0.113E+00
RMM:   2    -0.229632323155E+04   -0.19066E+00   -0.12669E+00  5766   0.438E-01    0.310E+00
RMM:   3    -0.229623790866E+04    0.85323E-01   -0.15160E-01  5046   0.225E-01    0.490E-01
RMM:   4    -0.229623701114E+04    0.89752E-03   -0.15271E-02  5007   0.418E-02    0.309E-01
RMM:   5    -0.229623678019E+04    0.23094E-03   -0.48097E-03  4720   0.274E-02    0.229E-01
RMM:   6    -0.229623593700E+04    0.84319E-03   -0.11276E-03  4792   0.158E-02    0.902E-02
RMM:   7    -0.229623591661E+04    0.20397E-04   -0.14881E-04  3356   0.917E-03    0.590E-02
RMM:   8    -0.229623590808E+04    0.85287E-05   -0.68611E-05  2969   0.575E-03
   4 F= -.23165021E+04 E0= -.23164981E+04  d E =-.611968E+00  mag=     3.0001
       N       E                     dE             d eps       ncg     rms          rms(c)
DAV:   1    -0.229620276491E+04    0.33152E-01   -0.42031E+00  4496   0.112E+00    0.877E-01
RMM:   2    -0.229631719109E+04   -0.11443E+00   -0.76780E-01  5741   0.317E-01    0.233E+00
RMM:   3    -0.229627079195E+04    0.46399E-01   -0.93990E-02  5043   0.177E-01    0.464E-01
RMM:   4    -0.229627022392E+04    0.56802E-03   -0.11749E-02  4725   0.335E-02    0.351E-01
RMM:   5    -0.229626950438E+04    0.71955E-03   -0.17869E-03  4292   0.205E-02    0.315E-01
RMM:   6    -0.229626938625E+04    0.11813E-03   -0.13816E-03  4025   0.159E-02    0.249E-01
RMM:   7    -0.229626952152E+04   -0.13528E-03   -0.70329E-04  3511   0.126E-02    0.174E-01
RMM:   8    -0.229626952181E+04   -0.28271E-06   -0.50289E-04  3360   0.100E-02    0.905E-02
RMM:   9    -0.229626953235E+04   -0.10542E-04   -0.20706E-04  3094   0.842E-03    0.751E-02
RMM:  10    -0.229626955443E+04   -0.22081E-04   -0.92948E-05  2921   0.575E-03    0.810E-02
RMM:  11    -0.229626956482E+04   -0.10392E-04   -0.28668E-05  2766   0.355E-03    0.784E-02
RMM:  12    -0.229626958968E+04   -0.24862E-04   -0.24785E-04  2987   0.669E-03    0.485E-02
RMM:  13    -0.229626958956E+04    0.12132E-06   -0.18157E-04  2957   0.635E-03    0.171E-02
RMM:  14    -0.229626959498E+04   -0.54204E-05   -0.43785E-05  2799   0.384E-03
   5 F= -.23165364E+04 E0= -.23165306E+04  d E =-.646242E+00  mag=     3.0000
       N       E                     dE             d eps       ncg     rms          rms(c)
DAV:   1    -0.229597127246E+04    0.29832E+00   -0.16357E+01  4448   0.303E+00    0.180E+00
RMM:   2    -0.229646828945E+04   -0.49702E+00   -0.47825E+00  5915   0.910E-01    0.295E+00
RMM:   3    -0.229640477297E+04    0.63516E-01   -0.49670E-01  5215   0.427E-01    0.127E+00
RMM:   4    -0.229639111834E+04    0.13655E-01   -0.49442E-02  5356   0.802E-02    0.527E-01
RMM:   5    -0.229638869068E+04    0.24277E-02   -0.56154E-03  5122   0.359E-02    0.363E-01
RMM:   6    -0.229638669779E+04    0.19929E-02   -0.50212E-03  5023   0.375E-02    0.211E-01
RMM:   7    -0.229638643095E+04    0.26684E-03   -0.15388E-03  4771   0.276E-02    0.975E-02
RMM:   8    -0.229638636039E+04    0.70561E-04   -0.19291E-04  3642   0.893E-03    0.597E-02
RMM:   9    -0.229638634133E+04    0.19066E-04   -0.66822E-05  2956   0.664E-03    0.479E-02
RMM:  10    -0.229638631931E+04    0.22016E-04   -0.70403E-05  3042   0.540E-03    0.191E-02
RMM:  11    -0.229638631521E+04    0.41061E-05   -0.18120E-05  2846   0.436E-03
   6 F= -.23166522E+04 E0= -.23166514E+04  d E =-.115817E+00  mag=     3.0000
       N       E                     dE             d eps       ncg     rms          rms(c)
DAV:   1    -0.229637497152E+04    0.11348E-01   -0.59425E-01  4824   0.581E-01    0.314E-01
RMM:   2    -0.229639032567E+04   -0.15354E-01   -0.15649E-01  5912   0.163E-01    0.424E-01
RMM:   3    -0.229639041178E+04   -0.86112E-04   -0.20732E-02  5142   0.832E-02    0.250E-01
RMM:   4    -0.229638988700E+04    0.52478E-03   -0.16907E-03  4109   0.148E-02    0.903E-02
RMM:   5    -0.229638980657E+04    0.80427E-04   -0.19289E-04  3165   0.747E-03    0.620E-02
RMM:   6    -0.229638974622E+04    0.60347E-04   -0.15768E-04  4030   0.809E-03    0.338E-02
RMM:   7    -0.229638973828E+04    0.79479E-05   -0.47831E-05  2932   0.679E-03
   7 F= -.23166554E+04 E0= -.23166550E+04  d E =-.119040E+00  mag=     3.0000
       N       E                     dE             d eps       ncg     rms          rms(c)
DAV:   1    -0.229630138331E+04    0.88363E-01   -0.73806E+00  4448   0.159E+00    0.108E+00
RMM:   2    -0.229648207351E+04   -0.18069E+00   -0.19945E+00  6282   0.529E-01    0.751E-01
RMM:   3    -0.229649423157E+04   -0.12158E-01   -0.22899E-01  5293   0.238E-01    0.685E-01
RMM:   4    -0.229649390136E+04    0.33021E-03   -0.19156E-02  5035   0.455E-02    0.558E-01
RMM:   5    -0.229649100232E+04    0.28990E-02   -0.28118E-03  4568   0.203E-02    0.234E-01
RMM:   6    -0.229649060077E+04    0.40155E-03   -0.20688E-03  4604   0.198E-02    0.129E-01
RMM:   7    -0.229649057856E+04    0.22215E-04   -0.36206E-04  3615   0.105E-02    0.695E-02
RMM:   8    -0.229649056096E+04    0.17593E-04   -0.10844E-04  3030   0.567E-03    0.219E-02
RMM:   9    -0.229649056753E+04   -0.65623E-05   -0.22447E-05  2827   0.383E-03
   8 F= -.23167555E+04 E0= -.23167555E+04  d E =-.100134E+00  mag=     3.0000
       N       E                     dE             d eps       ncg     rms          rms(c)
DAV:   1    -0.229625648342E+04    0.23408E+00   -0.10311E+01  4416   0.195E+00    0.129E+00
RMM:   2    -0.229652629602E+04   -0.26981E+00   -0.29768E+00  6291   0.668E-01    0.940E-01
RMM:   3    -0.229654313319E+04   -0.16837E-01   -0.36711E-01  5220   0.355E-01    0.887E-01
RMM:   4    -0.229654040939E+04    0.27238E-02   -0.28417E-02  5205   0.575E-02    0.610E-01
RMM:   5    -0.229653686891E+04    0.35405E-02   -0.37709E-03  4750   0.241E-02    0.283E-01
RMM:   6    -0.229653623010E+04    0.63881E-03   -0.32312E-03  4846   0.245E-02    0.160E-01
RMM:   7    -0.229653616469E+04    0.65402E-04   -0.50706E-04  3911   0.126E-02    0.799E-02
RMM:   8    -0.229653613936E+04    0.25338E-04   -0.16147E-04  3153   0.644E-03    0.289E-02
RMM:   9    -0.229653616205E+04   -0.22692E-04   -0.32520E-05  2858   0.458E-03    0.150E-02
RMM:  10    -0.229653620885E+04   -0.46804E-04   -0.17904E-05  2792   0.319E-03    0.515E-03
RMM:  11    -0.229653624289E+04   -0.34039E-04   -0.71526E-06  2698   0.250E-03    0.327E-03
RMM:  12    -0.229653626540E+04   -0.22513E-04   -0.54190E-06  2610   0.204E-03    0.229E-03
RMM:  13    -0.229653627263E+04   -0.72224E-05   -0.26077E-06  2542   0.191E-03
   9 F= -.23168004E+04 E0= -.23168004E+04  d E =-.145009E+00  mag=     3.0000
       N       E                     dE             d eps       ncg     rms          rms(c)
DAV:   1    -0.229653945253E+04   -0.31871E-02   -0.25038E+00  4504   0.141E+00    0.648E-01
RMM:   2    -0.229658566645E+04   -0.46214E-01   -0.43612E-01  5838   0.349E-01    0.885E-01
RMM:   3    -0.229658068693E+04    0.49795E-02   -0.37587E-02  5672   0.105E-01    0.449E-01
RMM:   4    -0.229657830637E+04    0.23806E-02   -0.39110E-03  4958   0.311E-02    0.126E-01
RMM:   5    -0.229657797342E+04    0.33295E-03   -0.90477E-04  5178   0.217E-02    0.998E-02
RMM:   6    -0.229657787052E+04    0.10290E-03   -0.45235E-04  4872   0.154E-02    0.575E-02
RMM:   7    -0.229657781165E+04    0.58867E-04   -0.79774E-05  3304   0.760E-03    0.160E-02
RMM:   8    -0.229657779552E+04    0.16131E-04   -0.16986E-05  2869   0.444E-03    0.107E-02
RMM:   9    -0.229657778264E+04    0.12883E-04   -0.20944E-05  2932   0.424E-03    0.455E-03
RMM:  10    -0.229657778165E+04    0.98655E-06   -0.62819E-06  2798   0.380E-03
  10 F= -.23168406E+04 E0= -.23168406E+04  d E =-.402213E-01  mag=     3.0000
       N       E                     dE             d eps       ncg     rms          rms(c)
DAV:   1    -0.229653112626E+04    0.46656E-01   -0.42523E+00  4496   0.184E+00    0.844E-01
RMM:   2    -0.229660999751E+04   -0.78871E-01   -0.74225E-01  5871   0.455E-01    0.118E+00
RMM:   3    -0.229660145355E+04    0.85440E-02   -0.63353E-02  5749   0.139E-01    0.598E-01
RMM:   4    -0.229659729257E+04    0.41610E-02   -0.67033E-03  5037   0.408E-02    0.164E-01
RMM:   5    -0.229659673440E+04    0.55816E-03   -0.15312E-03  5233   0.283E-02    0.136E-01
RMM:   6    -0.229659655008E+04    0.18433E-03   -0.81133E-04  5057   0.204E-02    0.801E-02
RMM:   7    -0.229659643958E+04    0.11049E-03   -0.14836E-04  3742   0.987E-03    0.208E-02
RMM:   8    -0.229659641184E+04    0.27740E-04   -0.29269E-05  3013   0.524E-03    0.148E-02
RMM:   9    -0.229659639139E+04    0.20451E-04   -0.34620E-05  3219   0.510E-03    0.589E-03
RMM:  10    -0.229659639013E+04    0.12647E-05   -0.89700E-06  2818   0.424E-03
  11 F= -.23168575E+04 E0= -.23168575E+04  d E =-.570421E-01  mag=     3.0000
       N       E                     dE             d eps       ncg     rms          rms(c)
DAV:   1    -0.229656253053E+04    0.33861E-01   -0.26632E+00  4528   0.118E+00    0.697E-01
RMM:   2    -0.229665530318E+04   -0.92773E-01   -0.76173E-01  6176   0.353E-01    0.168E+00
RMM:   3    -0.229662950495E+04    0.25798E-01   -0.61065E-02  5836   0.112E-01    0.256E-01
RMM:   4    -0.229662916553E+04    0.33941E-03   -0.62190E-03  4813   0.256E-02    0.148E-01
RMM:   5    -0.229662894669E+04    0.21885E-03   -0.70266E-04  4804   0.161E-02    0.137E-01
RMM:   6    -0.229662877624E+04    0.17045E-03   -0.47468E-04  4534   0.127E-02    0.483E-02
RMM:   7    -0.229662875279E+04    0.23450E-04   -0.11007E-04  2987   0.804E-03    0.212E-02
RMM:   8    -0.229662874546E+04    0.73274E-05   -0.15583E-05  2871   0.368E-03
  12 F= -.23168880E+04 E0= -.23168880E+04  d E =-.304939E-01  mag=     3.0000
       N       E                     dE             d eps       ncg     rms          rms(c)
DAV:   1    -0.229650921826E+04    0.11953E+00   -0.55776E+00  4424   0.169E+00    0.993E-01
RMM:   2    -0.229669984752E+04   -0.19063E+00   -0.15578E+00  6168   0.505E-01    0.244E+00
RMM:   3    -0.229664855993E+04    0.51288E-01   -0.13296E-01  5908   0.160E-01    0.380E-01
RMM:   4    -0.229664773850E+04    0.82144E-03   -0.12944E-02  4984   0.370E-02    0.216E-01
RMM:   5    -0.229664724064E+04    0.49785E-03   -0.14315E-03  5227   0.229E-02    0.195E-01
RMM:   6    -0.229664689097E+04    0.34968E-03   -0.88416E-04  4862   0.170E-02    0.531E-02
RMM:   7    -0.229664686727E+04    0.23697E-04   -0.17692E-04  3273   0.920E-03    0.342E-02
RMM:   8    -0.229664685002E+04    0.17248E-04   -0.31979E-05  2925   0.461E-03    0.191E-02
RMM:   9    -0.229664684216E+04    0.78583E-05   -0.20444E-05  2847   0.378E-03
  13 F= -.23169032E+04 E0= -.23169032E+04  d E =-.457481E-01  mag=     3.0000
       N       E                     dE             d eps       ncg     rms          rms(c)
DAV:   1    -0.229664594459E+04    0.90543E-03   -0.52033E-01  4544   0.697E-01    0.305E-01
RMM:   2    -0.229665573945E+04   -0.97949E-02   -0.10522E-01  5773   0.171E-01    0.253E-01
RMM:   3    -0.229665608308E+04   -0.34363E-03   -0.86857E-03  5353   0.583E-02    0.275E-01
RMM:   4    -0.229665539504E+04    0.68803E-03   -0.10391E-03  4737   0.164E-02    0.951E-02
RMM:   5    -0.229665529535E+04    0.99697E-04   -0.24544E-04  4026   0.105E-02    0.607E-02
RMM:   6    -0.229665523459E+04    0.60758E-04   -0.19674E-04  4323   0.102E-02    0.304E-02
RMM:   7    -0.229665522342E+04    0.11168E-04   -0.25082E-05  2861   0.742E-03    0.103E-02
RMM:   8    -0.229665522096E+04    0.24565E-05   -0.92047E-06  2824   0.309E-03
  14 F= -.23169114E+04 E0= -.23169114E+04  d E =-.820492E-02  mag=     3.0000
       N       E                     dE             d eps       ncg     rms          rms(c)
DAV:   1    -0.229665235392E+04    0.28695E-02   -0.26195E-01  4664   0.496E-01    0.217E-01
RMM:   2    -0.229665739118E+04   -0.50373E-02   -0.54062E-02  5783   0.123E-01    0.183E-01
RMM:   3    -0.229665747844E+04   -0.87260E-04   -0.37893E-03  5176   0.393E-02    0.197E-01
RMM:   4    -0.229665712438E+04    0.35406E-03   -0.49896E-04  4090   0.117E-02    0.680E-02
RMM:   5    -0.229665707486E+04    0.49521E-04   -0.12689E-04  3280   0.797E-03    0.448E-02
RMM:   6    -0.229665704180E+04    0.33057E-04   -0.10991E-04  4080   0.814E-03    0.219E-02
RMM:   7    -0.229665703654E+04    0.52587E-05   -0.14239E-05  2829   0.601E-03
  15 F= -.23169131E+04 E0= -.23169131E+04  d E =-.989977E-02  mag=     3.0000
       N       E                     dE             d eps       ncg     rms          rms(c)
DAV:   1    -0.229665178288E+04    0.52589E-02   -0.44281E-01  4512   0.631E-01    0.267E-01
RMM:   2    -0.229666127505E+04   -0.94922E-02   -0.10432E-01  5770   0.157E-01    0.168E-01
RMM:   3    -0.229666164711E+04   -0.37206E-03   -0.10405E-02  5335   0.593E-02    0.153E-01
RMM:   4    -0.229666151086E+04    0.13626E-03   -0.86496E-04  3849   0.129E-02    0.950E-02
RMM:   5    -0.229666143713E+04    0.73727E-04   -0.17356E-04  3207   0.866E-03    0.618E-02
RMM:   6    -0.229666138284E+04    0.54284E-04   -0.15271E-04  4250   0.842E-03    0.292E-02
RMM:   7    -0.229666137618E+04    0.66651E-05   -0.24366E-05  2859   0.668E-03
  16 F= -.23169174E+04 E0= -.23169174E+04  d E =-.424742E-02  mag=     3.0000
       N       E                     dE             d eps       ncg     rms          rms(c)
DAV:   1    -0.229665990591E+04    0.14769E-02   -0.83792E-02  4648   0.277E-01    0.117E-01
RMM:   2    -0.229666175132E+04   -0.18454E-02   -0.20410E-02  5814   0.699E-02    0.717E-02
RMM:   3    -0.229666183356E+04   -0.82247E-04   -0.21483E-03  4237   0.300E-02    0.663E-02
RMM:   4    -0.229666180594E+04    0.27622E-04   -0.17398E-04  2969   0.648E-03    0.420E-02
RMM:   5    -0.229666178965E+04    0.16287E-04   -0.35130E-05  2876   0.431E-03    0.262E-02
RMM:   6    -0.229666177867E+04    0.10988E-04   -0.29894E-05  3023   0.413E-03    0.127E-02
RMM:   7    -0.229666177679E+04    0.18739E-05   -0.70000E-06  2809   0.372E-03
  17 F= -.23169177E+04 E0= -.23169177E+04  d E =-.460940E-02  mag=     3.0000
       N       E                     dE             d eps       ncg     rms          rms(c)
DAV:   1    -0.229666195075E+04   -0.17209E-03   -0.10630E-01  4448   0.342E-01    0.129E-01
RMM:   2    -0.229666369680E+04   -0.17460E-02   -0.15148E-02  5796   0.746E-02    0.219E-01
RMM:   3    -0.229666329577E+04    0.40104E-03   -0.12600E-03  4424   0.263E-02    0.721E-02
RMM:   4    -0.229666324016E+04    0.55601E-04   -0.13731E-04  3298   0.737E-03    0.267E-02
RMM:   5    -0.229666322765E+04    0.12517E-04   -0.34990E-05  3142   0.602E-03    0.192E-02
RMM:   6    -0.229666322453E+04    0.31134E-05   -0.16124E-05  2841   0.516E-03
  18 F= -.23169189E+04 E0= -.23169189E+04  d E =-.115937E-02  mag=     3.0000
       N       E                     dE             d eps       ncg     rms          rms(c)
DAV:   1    -0.229666287582E+04    0.35183E-03   -0.66373E-02  4512   0.270E-01    0.103E-01
RMM:   2    -0.229666396958E+04   -0.10938E-02   -0.95158E-03  5835   0.592E-02    0.173E-01
RMM:   3    -0.229666372159E+04    0.24799E-03   -0.79409E-04  4026   0.205E-02    0.580E-02
RMM:   4    -0.229666368549E+04    0.36109E-04   -0.84376E-05  2994   0.610E-03    0.215E-02
RMM:   5    -0.229666367654E+04    0.89448E-05   -0.23834E-05  2952   0.503E-03
  19 F= -.23169191E+04 E0= -.23169191E+04  d E =-.138246E-02  mag=     3.0000
       N       E                     dE             d eps       ncg     rms          rms(c)
DAV:   1    -0.229666381266E+04   -0.12717E-03   -0.74304E-02  4416   0.274E-01    0.907E-02
RMM:   2    -0.229666501589E+04   -0.12032E-02   -0.11364E-02  6156   0.605E-02    0.135E-01
RMM:   3    -0.229666491144E+04    0.10445E-03   -0.10146E-03  3830   0.192E-02    0.593E-02
RMM:   4    -0.229666487735E+04    0.34097E-04   -0.95220E-05  2936   0.575E-03    0.208E-02
RMM:   5    -0.229666487236E+04    0.49863E-05   -0.17676E-05  2871   0.383E-03
  20 F= -.23169201E+04 E0= -.23169201E+04  d E =-.974302E-03  mag=     3.0000
       N       E                     dE             d eps       ncg     rms          rms(c)
DAV:   1    -0.229665741597E+04    0.74614E-02   -0.66869E-01  4400   0.821E-01    0.268E-01
RMM:   2    -0.229666808595E+04   -0.10670E-01   -0.10148E-01  5838   0.175E-01    0.394E-01
RMM:   3    -0.229666730150E+04    0.78445E-03   -0.92512E-03  5391   0.603E-02    0.182E-01
RMM:   4    -0.229666697465E+04    0.32684E-03   -0.84725E-04  4445   0.141E-02    0.609E-02
RMM:   5    -0.229666692676E+04    0.47895E-04   -0.15156E-04  3850   0.942E-03    0.463E-02
RMM:   6    -0.229666690682E+04    0.19935E-04   -0.89628E-05  3451   0.793E-03    0.232E-02
RMM:   7    -0.229666690246E+04    0.43574E-05   -0.19117E-05  2860   0.566E-03
  21 F= -.23169214E+04 E0= -.23169214E+04  d E =-.233465E-02  mag=     3.0000
       N       E                     dE             d eps       ncg     rms          rms(c)
DAV:   1    -0.229666667535E+04    0.23147E-03   -0.14773E-01  4448   0.412E-01    0.128E-01
RMM:   2    -0.229666819157E+04   -0.15162E-02   -0.15885E-02  5707   0.844E-02    0.890E-02
RMM:   3    -0.229666834095E+04   -0.14937E-03   -0.15442E-03  4492   0.317E-02    0.120E-01
RMM:   4    -0.229666819767E+04    0.14328E-03   -0.15543E-04  3155   0.856E-03    0.308E-02
RMM:   5    -0.229666818450E+04    0.13172E-04   -0.42532E-05  3007   0.622E-03    0.132E-02
RMM:   6    -0.229666818355E+04    0.95501E-06   -0.16926E-05  2859   0.518E-03
  22 F= -.23169226E+04 E0= -.23169226E+04  d E =-.118829E-02  mag=     3.0000
       N       E                     dE             d eps       ncg     rms          rms(c)
DAV:   1    -0.229666656151E+04    0.16230E-02   -0.20826E-01  4448   0.490E-01    0.152E-01
RMM:   2    -0.229666869360E+04   -0.21321E-02   -0.22354E-02  5708   0.100E-01    0.102E-01
RMM:   3    -0.229666891276E+04   -0.21916E-03   -0.22416E-03  4827   0.367E-02    0.140E-01
RMM:   4    -0.229666871388E+04    0.19888E-03   -0.21788E-04  3344   0.963E-03    0.372E-02
RMM:   5    -0.229666869327E+04    0.20610E-04   -0.60995E-05  3258   0.716E-03    0.154E-02
RMM:   6    -0.229666869010E+04    0.31727E-05   -0.21989E-05  2887   0.569E-03
  23 F= -.23169230E+04 E0= -.23169230E+04  d E =-.158446E-02  mag=     3.0000
       N       E                     dE             d eps       ncg     rms          rms(c)
DAV:   1    -0.229666779141E+04    0.90186E-03   -0.18860E-01  4416   0.447E-01    0.119E-01
RMM:   2    -0.229666962890E+04   -0.18375E-02   -0.19421E-02  5802   0.898E-02    0.603E-02
RMM:   3    -0.229666970907E+04   -0.80167E-04   -0.15522E-03  4457   0.306E-02    0.717E-02
RMM:   4    -0.229666967315E+04    0.35924E-04   -0.14404E-04  3015   0.724E-03    0.366E-02
RMM:   5    -0.229666965850E+04    0.14649E-04   -0.36067E-05  2925   0.543E-03    0.173E-02
RMM:   6    -0.229666965795E+04    0.54337E-06   -0.15543E-05  2909   0.461E-03
  24 F= -.23169240E+04 E0= -.23169240E+04  d E =-.950501E-03  mag=     3.0000
       N       E                     dE             d eps       ncg     rms          rms(c)
DAV:   1    -0.229666131631E+04    0.83422E-02   -0.92489E-01  4400   0.989E-01    0.264E-01
RMM:   2    -0.229667029817E+04   -0.89819E-02   -0.95001E-02  5660   0.197E-01    0.133E-01
RMM:   3    -0.229667069071E+04   -0.39255E-03   -0.76924E-03  5233   0.657E-02    0.157E-01
RMM:   4    -0.229667051655E+04    0.17416E-03   -0.71290E-04  4085   0.143E-02    0.812E-02
RMM:   5    -0.229667044024E+04    0.76312E-04   -0.17316E-04  4053   0.107E-02    0.373E-02
RMM:   6    -0.229667043253E+04    0.77079E-05   -0.67958E-05  3602   0.788E-03
  25 F= -.23169247E+04 E0= -.23169247E+04  d E =-.168946E-02  mag=     3.0000
       N       E                     dE             d eps       ncg     rms          rms(c)
DAV:   1    -0.229666965709E+04    0.78315E-03   -0.19014E-01  4432   0.443E-01    0.119E-01
RMM:   2    -0.229667152034E+04   -0.18633E-02   -0.19772E-02  5912   0.899E-02    0.514E-02
RMM:   3    -0.229667158850E+04   -0.68161E-04   -0.16512E-03  4524   0.306E-02    0.514E-02
RMM:   4    -0.229667159280E+04   -0.42923E-05   -0.14741E-04  3005   0.675E-03    0.455E-02
RMM:   5    -0.229667156994E+04    0.22859E-04   -0.29227E-05  2919   0.501E-03    0.148E-02
RMM:   6    -0.229667157018E+04   -0.24139E-06   -0.14696E-05  2889   0.438E-03
  26 F= -.23169258E+04 E0= -.23169258E+04  d E =-.109209E-02  mag=     3.0000
       N       E                     dE             d eps       ncg     rms          rms(c)
DAV:   1    -0.229665953435E+04    0.12036E-01   -0.13366E+00  4400   0.117E+00    0.313E-01
RMM:   2    -0.229667251568E+04   -0.12981E-01   -0.13781E-01  5661   0.234E-01    0.135E-01
RMM:   3    -0.229667294650E+04   -0.43082E-03   -0.11380E-02  5302   0.755E-02    0.100E-01
RMM:   4    -0.229667309790E+04   -0.15140E-03   -0.10586E-03  4518   0.164E-02    0.145E-01
RMM:   5    -0.229667288070E+04    0.21720E-03   -0.22419E-04  4089   0.114E-02    0.412E-02
RMM:   6    -0.229667287175E+04    0.89497E-05   -0.96093E-05  3951   0.834E-03
  27 F= -.23169270E+04 E0= -.23169270E+04  d E =-.227577E-02  mag=     3.0000
       N       E                     dE             d eps       ncg     rms          rms(c)
DAV:   1    -0.229667018858E+04    0.26921E-02   -0.34736E-01  4400   0.608E-01    0.179E-01
RMM:   2    -0.229667411768E+04   -0.39291E-02   -0.41836E-02  5925   0.129E-01    0.908E-02
RMM:   3    -0.229667446827E+04   -0.35059E-03   -0.38747E-03  5224   0.455E-02    0.146E-01
RMM:   4    -0.229667431132E+04    0.15696E-03   -0.36495E-04  3233   0.102E-02    0.485E-02
RMM:   5    -0.229667428742E+04    0.23893E-04   -0.63438E-05  3238   0.673E-03    0.280E-02
RMM:   6    -0.229667428050E+04    0.69209E-05   -0.45342E-05  3055   0.639E-03
  28 F= -.23169283E+04 E0= -.23169283E+04  d E =-.134341E-02  mag=     3.0000
       N       E                     dE             d eps       ncg     rms          rms(c)
DAV:   1    -0.229666900541E+04    0.52820E-02   -0.48751E-01  4400   0.721E-01    0.212E-01
RMM:   2    -0.229667454765E+04   -0.55422E-02   -0.59036E-02  5772   0.152E-01    0.109E-01
RMM:   3    -0.229667505934E+04   -0.51169E-03   -0.55903E-03  5211   0.545E-02    0.182E-01
RMM:   4    -0.229667480616E+04    0.25318E-03   -0.52141E-04  3493   0.120E-02    0.552E-02
RMM:   5    -0.229667476906E+04    0.37102E-04   -0.90591E-05  3685   0.782E-03    0.309E-02
RMM:   6    -0.229667475879E+04    0.10272E-04   -0.59427E-05  3262   0.717E-03    0.177E-02
RMM:   7    -0.229667475401E+04    0.47819E-05   -0.12671E-05  2854   0.516E-03
  29 F= -.23169287E+04 E0= -.23169287E+04  d E =-.174049E-02  mag=     3.0000
       N       E                     dE             d eps       ncg     rms          rms(c)
DAV:   1    -0.229666950949E+04    0.52493E-02   -0.46772E-01  4400   0.688E-01    0.201E-01
RMM:   2    -0.229667553792E+04   -0.60284E-02   -0.64144E-02  5846   0.146E-01    0.118E-01
RMM:   3    -0.229667614875E+04   -0.61082E-03   -0.63451E-03  5070   0.513E-02    0.187E-01
RMM:   4    -0.229667588594E+04    0.26280E-03   -0.56436E-04  3327   0.114E-02    0.543E-02
RMM:   5    -0.229667586108E+04    0.24863E-04   -0.78323E-05  3097   0.643E-03    0.356E-02
RMM:   6    -0.229667584770E+04    0.13383E-04   -0.65444E-05  3359   0.669E-03    0.170E-02
RMM:   7    -0.229667584544E+04    0.22584E-05   -0.10572E-05  2841   0.496E-03
  30 F= -.23169299E+04 E0= -.23169299E+04  d E =-.112748E-02  mag=     3.0000
       N       E                     dE             d eps       ncg     rms          rms(c)
DAV:   1    -0.229666529827E+04    0.10549E-01   -0.81124E-01  4400   0.903E-01    0.265E-01
RMM:   2    -0.229667574844E+04   -0.10450E-01   -0.11123E-01  5790   0.193E-01    0.154E-01
RMM:   3    -0.229667680471E+04   -0.10563E-02   -0.10980E-02  5211   0.701E-02    0.246E-01
RMM:   4    -0.229667635137E+04    0.45334E-03   -0.98129E-04  3865   0.148E-02    0.717E-02
RMM:   5    -0.229667630881E+04    0.42556E-04   -0.13734E-04  3348   0.801E-03    0.475E-02
RMM:   6    -0.229667628460E+04    0.24210E-04   -0.11153E-04  3859   0.824E-03    0.226E-02
RMM:   7    -0.229667628028E+04    0.43177E-05   -0.16160E-05  2862   0.579E-03
  31 F= -.23169303E+04 E0= -.23169303E+04  d E =-.161226E-02  mag=     3.0000
       N       E                     dE             d eps       ncg     rms          rms(c)
DAV:   1    -0.229666889563E+04    0.73890E-02   -0.74029E-01  4416   0.849E-01    0.257E-01
RMM:   2    -0.229667737219E+04   -0.84766E-02   -0.89888E-02  5740   0.180E-01    0.153E-01
RMM:   3    -0.229667811765E+04   -0.74547E-03   -0.80473E-03  5284   0.601E-02    0.238E-01
RMM:   4    -0.229667767017E+04    0.44749E-03   -0.81359E-04  4008   0.143E-02    0.724E-02
RMM:   5    -0.229667762306E+04    0.47103E-04   -0.14572E-04  3540   0.880E-03    0.491E-02
RMM:   6    -0.229667759426E+04    0.28806E-04   -0.12246E-04  4015   0.862E-03    0.213E-02
RMM:   7    -0.229667758971E+04    0.45456E-05   -0.14710E-05  2838   0.612E-03
  32 F= -.23169318E+04 E0= -.23169318E+04  d E =-.149638E-02  mag=     3.0000
       N       E                     dE             d eps       ncg     rms          rms(c)
DAV:   1    -0.229667636397E+04    0.12303E-02   -0.10570E-01  4576   0.320E-01    0.976E-02
RMM:   2    -0.229667758501E+04   -0.12210E-02   -0.12938E-02  5764   0.682E-02    0.588E-02
RMM:   3    -0.229667769120E+04   -0.10619E-03   -0.11737E-03  3978   0.239E-02    0.936E-02
RMM:   4    -0.229667762064E+04    0.70555E-04   -0.11981E-04  2965   0.654E-03    0.271E-02
RMM:   5    -0.229667761357E+04    0.70652E-05   -0.22332E-05  2904   0.387E-03
  33 F= -.23169319E+04 E0= -.23169319E+04  d E =-.159142E-02  mag=     3.0000
       N       E                     dE             d eps       ncg     rms          rms(c)
DAV:   1    -0.229667335741E+04    0.42632E-02   -0.38089E-01  4448   0.603E-01    0.192E-01
RMM:   2    -0.229667840770E+04   -0.50503E-02   -0.51857E-02  5811   0.135E-01    0.162E-01
RMM:   3    -0.229667874595E+04   -0.33825E-03   -0.43469E-03  5120   0.458E-02    0.204E-01
RMM:   4    -0.229667838453E+04    0.36142E-03   -0.46621E-04  3594   0.117E-02    0.500E-02
RMM:   5    -0.229667835773E+04    0.26798E-04   -0.94797E-05  3350   0.768E-03    0.299E-02
RMM:   6    -0.229667835257E+04    0.51586E-05   -0.55562E-05  3065   0.669E-03
  34 F= -.23169329E+04 E0= -.23169329E+04  d E =-.935988E-03  mag=     3.0000
       N       E                     dE             d eps       ncg     rms          rms(c)
DAV:   1    -0.229667718604E+04    0.11717E-02   -0.85965E-02  4480   0.286E-01    0.926E-02
RMM:   2    -0.229667832367E+04   -0.11376E-02   -0.11727E-02  5981   0.648E-02    0.732E-02
RMM:   3    -0.229667841120E+04   -0.87523E-04   -0.10306E-03  3874   0.215E-02    0.100E-01
RMM:   4    -0.229667832397E+04    0.87225E-04   -0.10920E-04  2982   0.657E-03    0.236E-02
RMM:   5    -0.229667831734E+04    0.66295E-05   -0.23184E-05  2885   0.414E-03
  35 F= -.23169329E+04 E0= -.23169329E+04  d E =-.994659E-03  mag=     3.0000
       N       E                     dE             d eps       ncg     rms          rms(c)
DAV:   1    -0.229667305760E+04    0.52664E-02   -0.41790E-01  4416   0.645E-01    0.212E-01
RMM:   2    -0.229667910463E+04   -0.60470E-02   -0.61610E-02  5806   0.146E-01    0.186E-01
RMM:   3    -0.229667949384E+04   -0.38921E-03   -0.52219E-03  5194   0.481E-02    0.226E-01
RMM:   4    -0.229667904494E+04    0.44890E-03   -0.54606E-04  3742   0.123E-02    0.497E-02
RMM:   5    -0.229667901651E+04    0.28428E-04   -0.97741E-05  3383   0.752E-03    0.263E-02
RMM:   6    -0.229667901374E+04    0.27736E-05   -0.43710E-05  3038   0.642E-03
  36 F= -.23169338E+04 E0= -.23169338E+04  d E =-.836491E-03  mag=     3.0000
       N       E                     dE             d eps       ncg     rms          rms(c)
DAV:   1    -0.229667753347E+04    0.14830E-02   -0.10246E-01  4480   0.319E-01    0.106E-01
RMM:   2    -0.229667901686E+04   -0.14834E-02   -0.15140E-02  5992   0.731E-02    0.902E-02
RMM:   3    -0.229667912272E+04   -0.10586E-03   -0.13588E-03  4120   0.248E-02    0.115E-01
RMM:   4    -0.229667900583E+04    0.11689E-03   -0.13778E-04  3010   0.715E-03    0.245E-02
RMM:   5    -0.229667899881E+04    0.70144E-05   -0.28201E-05  2887   0.429E-03
  37 F= -.23169338E+04 E0= -.23169338E+04  d E =-.891419E-03  mag=     3.0000
       N       E                     dE             d eps       ncg     rms          rms(c)
DAV:   1    -0.229667498294E+04    0.40229E-02   -0.38039E-01  4400   0.605E-01    0.189E-01
RMM:   2    -0.229667970070E+04   -0.47178E-02   -0.49779E-02  5812   0.131E-01    0.862E-02
RMM:   3    -0.229668001421E+04   -0.31351E-03   -0.44878E-03  5040   0.462E-02    0.125E-01
RMM:   4    -0.229667992151E+04    0.92703E-04   -0.40810E-04  3211   0.972E-03    0.528E-02
RMM:   5    -0.229667989150E+04    0.30014E-04   -0.57410E-05  3123   0.646E-03    0.258E-02
RMM:   6    -0.229667988774E+04    0.37554E-05   -0.42119E-05  3015   0.621E-03
  38 F= -.23169347E+04 E0= -.23169347E+04  d E =-.914530E-03  mag=     3.0000
       N       E                     dE             d eps       ncg     rms          rms(c)
DAV:   1    -0.229667247583E+04    0.74157E-02   -0.59382E-01  4384   0.755E-01    0.237E-01
RMM:   2    -0.229667986119E+04   -0.73854E-02   -0.77857E-02  5768   0.162E-01    0.113E-01
RMM:   3    -0.229668038183E+04   -0.52064E-03   -0.70173E-03  5245   0.560E-02    0.173E-01
RMM:   4    -0.229668018176E+04    0.20008E-03   -0.64759E-04  3485   0.121E-02    0.642E-02
RMM:   5    -0.229668013932E+04    0.42432E-04   -0.94725E-05  3426   0.767E-03    0.351E-02
RMM:   6    -0.229668012975E+04    0.95736E-05   -0.73736E-05  3352   0.728E-03
  39 F= -.23169350E+04 E0= -.23169350E+04  d E =-.119036E-02  mag=     3.0000
       N       E                     dE             d eps       ncg     rms          rms(c)
DAV:   1    -0.229667785082E+04    0.22885E-02   -0.23044E-01  4400   0.456E-01    0.144E-01
RMM:   2    -0.229668072173E+04   -0.28709E-02   -0.30316E-02  6091   0.980E-02    0.639E-02
RMM:   3    -0.229668089254E+04   -0.17081E-03   -0.29668E-03  4424   0.339E-02    0.541E-02
RMM:   4    -0.229668089650E+04   -0.39587E-05   -0.25742E-04  3039   0.759E-03    0.498E-02
RMM:   5    -0.229668087433E+04    0.22171E-04   -0.37690E-05  2904   0.493E-03    0.233E-02
RMM:   6    -0.229668087030E+04    0.40272E-05   -0.25877E-05  2942   0.462E-03
  40 F= -.23169357E+04 E0= -.23169357E+04  d E =-.721377E-03  mag=     3.0000
       N       E                     dE             d eps       ncg     rms          rms(c)
DAV:   1    -0.229665476116E+04    0.26113E-01   -0.20834E+00  4384   0.137E+00    0.427E-01
RMM:   2    -0.229668058243E+04   -0.25821E-01   -0.27301E-01  5845   0.290E-01    0.183E-01
RMM:   3    -0.229668180375E+04   -0.12213E-02   -0.25019E-02  5347   0.971E-02    0.115E-01
RMM:   4    -0.229668183421E+04   -0.30457E-04   -0.20126E-03  4875   0.191E-02    0.937E-02
RMM:   5    -0.229668188895E+04   -0.54747E-04   -0.36415E-04  4134   0.129E-02    0.131E-01
RMM:   6    -0.229668173167E+04    0.15729E-03   -0.18193E-04  4107   0.944E-03    0.247E-02
RMM:   7    -0.229668173052E+04    0.11456E-05   -0.24492E-05  2907   0.562E-03
  41 F= -.23169365E+04 E0= -.23169365E+04  d E =-.152977E-02  mag=     3.0000
       N       E                     dE             d eps       ncg     rms          rms(c)
DAV:   1    -0.229667565256E+04    0.60791E-02   -0.51390E-01  4384   0.679E-01    0.223E-01
RMM:   2    -0.229668250894E+04   -0.68564E-02   -0.72341E-02  5830   0.149E-01    0.908E-02
RMM:   3    -0.229668286982E+04   -0.36088E-03   -0.69054E-03  5139   0.517E-02    0.726E-02
RMM:   4    -0.229668294088E+04   -0.71054E-04   -0.58906E-04  3261   0.105E-02    0.899E-02
RMM:   5    -0.229668285906E+04    0.81814E-04   -0.76754E-05  3005   0.692E-03    0.294E-02
RMM:   6    -0.229668285200E+04    0.70640E-05   -0.50588E-05  3299   0.630E-03
  42 F= -.23169377E+04 E0= -.23169377E+04  d E =-.114022E-02  mag=     3.0000
       N       E                     dE             d eps       ncg     rms          rms(c)
DAV:   1    -0.229667141245E+04    0.11447E-01   -0.84518E-01  4384   0.874E-01    0.286E-01
RMM:   2    -0.229668272711E+04   -0.11315E-01   -0.11935E-01  5808   0.192E-01    0.117E-01
RMM:   3    -0.229668333288E+04   -0.60577E-03   -0.11328E-02  5306   0.652E-02    0.107E-01
RMM:   4    -0.229668340978E+04   -0.76905E-04   -0.96923E-04  3617   0.131E-02    0.108E-01
RMM:   5    -0.229668328827E+04    0.12151E-03   -0.12188E-04  3337   0.845E-03    0.374E-02
RMM:   6    -0.229668327472E+04    0.13552E-04   -0.83231E-05  3760   0.784E-03    0.108E-02
RMM:   7    -0.229668327378E+04    0.93842E-06   -0.11300E-05  2848   0.542E-03
  43 F= -.23169381E+04 E0= -.23169381E+04  d E =-.158964E-02  mag=     3.0000
       N       E                     dE             d eps       ncg     rms          rms(c)
DAV:   1    -0.229667752717E+04    0.57475E-02   -0.48009E-01  4384   0.639E-01    0.222E-01
RMM:   2    -0.229668415440E+04   -0.66272E-02   -0.69740E-02  5869   0.144E-01    0.962E-02
RMM:   3    -0.229668442755E+04   -0.27315E-03   -0.56980E-03  5158   0.467E-02    0.135E-01
RMM:   4    -0.229668433826E+04    0.89296E-04   -0.53105E-04  3245   0.102E-02    0.624E-02
RMM:   5    -0.229668429712E+04    0.41134E-04   -0.71897E-05  3161   0.675E-03    0.289E-02
RMM:   6    -0.229668429323E+04    0.38943E-05   -0.46437E-05  3016   0.637E-03
  44 F= -.23169392E+04 E0= -.23169392E+04  d E =-.109992E-02  mag=     3.0000
       N       E                     dE             d eps       ncg     rms          rms(c)
DAV:   1    -0.229667689914E+04    0.73980E-02   -0.53278E-01  4384   0.672E-01    0.235E-01
RMM:   2    -0.229668424985E+04   -0.73507E-02   -0.77337E-02  5821   0.153E-01    0.103E-01
RMM:   3    -0.229668461603E+04   -0.36618E-03   -0.67232E-03  5272   0.515E-02    0.151E-01
RMM:   4    -0.229668448800E+04    0.12803E-03   -0.61244E-04  3298   0.108E-02    0.631E-02
RMM:   5    -0.229668444316E+04    0.44833E-04   -0.78435E-05  3280   0.692E-03    0.271E-02
RMM:   6    -0.229668443870E+04    0.44662E-05   -0.39084E-05  3055   0.650E-03
  45 F= -.23169395E+04 E0= -.23169395E+04  d E =-.133302E-02  mag=     3.0000
       N       E                     dE             d eps       ncg     rms          rms(c)
DAV:   1    -0.229667687490E+04    0.75683E-02   -0.63988E-01  4384   0.681E-01    0.237E-01
RMM:   2    -0.229668530212E+04   -0.84272E-02   -0.88475E-02  6083   0.156E-01    0.967E-02
RMM:   3    -0.229668538467E+04   -0.82554E-04   -0.69041E-03  5246   0.478E-02    0.613E-02
RMM:   4    -0.229668545150E+04   -0.66831E-04   -0.60657E-04  3353   0.102E-02    0.834E-02
RMM:   5    -0.229668539171E+04    0.59795E-04   -0.85681E-05  2956   0.662E-03    0.383E-02
RMM:   6    -0.229668538290E+04    0.88023E-05   -0.47895E-05  3063   0.562E-03
  46 F= -.23169405E+04 E0= -.23169405E+04  d E =-.100845E-02  mag=     3.0000
       N       E                     dE             d eps       ncg     rms          rms(c)
DAV:   1    -0.229666822810E+04    0.17164E-01   -0.13195E+00  4384   0.981E-01    0.340E-01
RMM:   2    -0.229668556249E+04   -0.17334E-01   -0.18204E-01  5955   0.222E-01    0.140E-01
RMM:   3    -0.229668576423E+04   -0.20175E-03   -0.14442E-02  5401   0.676E-02    0.853E-02
RMM:   4    -0.229668581688E+04   -0.52647E-04   -0.12219E-03  4246   0.140E-02    0.776E-02
RMM:   5    -0.229668582638E+04   -0.95033E-05   -0.17280E-04  3145   0.873E-03    0.908E-02
RMM:   6    -0.229668575526E+04    0.71125E-04   -0.11095E-04  3451   0.771E-03    0.156E-02
RMM:   7    -0.229668575485E+04    0.41343E-06   -0.16721E-05  2888   0.486E-03
  47 F= -.23169409E+04 E0= -.23169409E+04  d E =-.147936E-02  mag=     3.0000
       N       E                     dE             d eps       ncg     rms          rms(c)
DAV:   1    -0.229667919954E+04    0.65557E-02   -0.60038E-01  4384   0.654E-01    0.233E-01
RMM:   2    -0.229668688636E+04   -0.76868E-02   -0.80661E-02  5917   0.149E-01    0.971E-02
RMM:   3    -0.229668701971E+04   -0.13335E-03   -0.65157E-03  5132   0.465E-02    0.696E-02
RMM:   4    -0.229668704644E+04   -0.26732E-04   -0.57901E-04  3269   0.998E-03    0.760E-02
RMM:   5    -0.229668700441E+04    0.42037E-04   -0.10002E-04  3003   0.729E-03    0.452E-02
RMM:   6    -0.229668698698E+04    0.17425E-04   -0.58488E-05  3103   0.621E-03    0.139E-02
RMM:   7    -0.229668698607E+04    0.91318E-06   -0.10565E-05  2863   0.459E-03
  48 F= -.23169422E+04 E0= -.23169422E+04  d E =-.122844E-02  mag=     3.0000
       N       E                     dE             d eps       ncg     rms          rms(c)
DAV:   1    -0.229667225853E+04    0.14728E-01   -0.11797E+00  4384   0.918E-01    0.326E-01
RMM:   2    -0.229668733496E+04   -0.15076E-01   -0.15830E-01  5921   0.210E-01    0.133E-01
RMM:   3    -0.229668756595E+04   -0.23099E-03   -0.12852E-02  5377   0.663E-02    0.817E-02
RMM:   4    -0.229668758967E+04   -0.23715E-04   -0.10848E-03  4319   0.135E-02    0.705E-02
RMM:   5    -0.229668761025E+04   -0.20587E-04   -0.19322E-04  3254   0.966E-03    0.907E-02
RMM:   6    -0.229668753294E+04    0.77310E-04   -0.91317E-05  3280   0.760E-03    0.209E-02
RMM:   7    -0.229668753020E+04    0.27403E-05   -0.17361E-05  2890   0.503E-03
  49 F= -.23169427E+04 E0= -.23169427E+04  d E =-.177394E-02  mag=     3.0000
       N       E                     dE             d eps       ncg     rms          rms(c)
DAV:   1    -0.229668050586E+04    0.70271E-02   -0.62885E-01  4384   0.663E-01    0.239E-01
RMM:   2    -0.229668848457E+04   -0.79787E-02   -0.83973E-02  5902   0.151E-01    0.957E-02
RMM:   3    -0.229668872468E+04   -0.24011E-03   -0.76976E-03  5166   0.498E-02    0.558E-02
RMM:   4    -0.229668873615E+04   -0.11467E-04   -0.61226E-04  3537   0.996E-03    0.371E-02
RMM:   5    -0.229668874067E+04   -0.45242E-05   -0.78484E-05  3084   0.709E-03
  50 F= -.23169439E+04 E0= -.23169439E+04  d E =-.116402E-02  mag=     3.0000
       N       E                     dE             d eps       ncg     rms          rms(c)
DAV:   1    -0.229666465021E+04    0.24086E-01   -0.18715E+00  4384   0.114E+00    0.413E-01
RMM:   2    -0.229668833266E+04   -0.23682E-01   -0.24923E-01  5912   0.260E-01    0.172E-01
RMM:   3    -0.229668925406E+04   -0.92140E-03   -0.24292E-02  5409   0.936E-02    0.125E-01
RMM:   4    -0.229668936397E+04   -0.10990E-03   -0.20378E-03  4662   0.180E-02    0.144E-01
RMM:   5    -0.229668919001E+04    0.17395E-03   -0.28542E-04  3585   0.110E-02    0.677E-02
RMM:   6    -0.229668914580E+04    0.44216E-04   -0.16536E-04  4126   0.930E-03    0.171E-02
RMM:   7    -0.229668914472E+04    0.10758E-05   -0.22022E-05  2873   0.655E-03
  51 F= -.23169442E+04 E0= -.23169442E+04  d E =-.149280E-02  mag=     3.0000
       N       E                     dE             d eps       ncg     rms          rms(c)
DAV:   1    -0.229668773579E+04    0.14100E-02   -0.11402E-01  4528   0.282E-01    0.100E-01
RMM:   2    -0.229668919651E+04   -0.14607E-02   -0.15321E-02  5928   0.646E-02    0.402E-02
RMM:   3    -0.229668923270E+04   -0.36190E-04   -0.12706E-03  3597   0.202E-02    0.297E-02
RMM:   4    -0.229668924926E+04   -0.16561E-04   -0.11774E-04  2928   0.538E-03    0.419E-02
RMM:   5    -0.229668923164E+04    0.17620E-04   -0.16066E-05  2853   0.335E-03    0.134E-02
RMM:   6    -0.229668923093E+04    0.70989E-06   -0.10702E-05  2846   0.290E-03
  52 F= -.23169443E+04 E0= -.23169443E+04  d E =-.159697E-02  mag=     3.0000
       N       E                     dE             d eps       ncg     rms          rms(c)
DAV:   1    -0.229668190293E+04    0.73287E-02   -0.66005E-01  4384   0.648E-01    0.236E-01
RMM:   2    -0.229669011121E+04   -0.82083E-02   -0.86136E-02  6021   0.149E-01    0.989E-02
RMM:   3    -0.229669032012E+04   -0.20891E-03   -0.74574E-03  5018   0.461E-02    0.613E-02
RMM:   4    -0.229669033011E+04   -0.99954E-05   -0.61638E-04  3271   0.966E-03    0.497E-02
RMM:   5    -0.229669034111E+04   -0.11000E-04   -0.97652E-05  3018   0.673E-03    0.672E-02
RMM:   6    -0.229669029968E+04    0.41430E-04   -0.50453E-05  2947   0.589E-03    0.161E-02
RMM:   7    -0.229669029930E+04    0.38490E-06   -0.10883E-05  2855   0.398E-03
  53 F= -.23169454E+04 E0= -.23169454E+04  d E =-.108437E-02  mag=     3.0000
       N       E                     dE             d eps       ncg     rms          rms(c)
DAV:   1    -0.229665554275E+04    0.34757E-01   -0.27748E+00  4384   0.132E+00    0.485E-01
RMM:   2    -0.229668980665E+04   -0.34264E-01   -0.36037E-01  6011   0.303E-01    0.201E-01
RMM:   3    -0.229669081602E+04   -0.10094E-02   -0.32633E-02  5450   0.989E-02    0.128E-01
RMM:   4    -0.229669092852E+04   -0.11251E-03   -0.26629E-03  4711   0.197E-02    0.118E-01
RMM:   5    -0.229669091997E+04    0.85467E-05   -0.36148E-04  3620   0.114E-02    0.127E-01
RMM:   6    -0.229669077427E+04    0.14570E-03   -0.26412E-04  4218   0.101E-02    0.338E-02
RMM:   7    -0.229669076738E+04    0.68924E-05   -0.37676E-05  2929   0.648E-03
  54 F= -.23169459E+04 E0= -.23169459E+04  d E =-.159239E-02  mag=     3.0000
       N       E                     dE             d eps       ncg     rms          rms(c)
DAV:   1    -0.229668435218E+04    0.64221E-02   -0.58830E-01  4384   0.587E-01    0.217E-01
RMM:   2    -0.229669142937E+04   -0.70772E-02   -0.74310E-02  5989   0.135E-01    0.916E-02
RMM:   3    -0.229669158062E+04   -0.15125E-03   -0.60356E-03  4806   0.416E-02    0.796E-02
RMM:   4    -0.229669162625E+04   -0.45636E-04   -0.57053E-04  3140   0.935E-03    0.839E-02
RMM:   5    -0.229669156560E+04    0.60659E-04   -0.76505E-05  2992   0.571E-03    0.358E-02
RMM:   6    -0.229669155632E+04    0.92785E-05   -0.59607E-05  2977   0.522E-03
  55 F= -.23169468E+04 E0= -.23169468E+04  d E =-.906727E-03  mag=     3.0000
       N       E                     dE             d eps       ncg     rms          rms(c)
DAV:   1    -0.229662752168E+04    0.64044E-01   -0.52938E+00  4384   0.176E+00    0.650E-01
RMM:   2    -0.229669114341E+04   -0.63622E-01   -0.66719E-01  5971   0.406E-01    0.298E-01
RMM:   3    -0.229669344444E+04   -0.23010E-02   -0.59003E-02  5507   0.129E-01    0.384E-01
RMM:   4    -0.229669291743E+04    0.52701E-03   -0.53860E-03  5171   0.275E-02    0.202E-01
RMM:   5    -0.229669255420E+04    0.36323E-03   -0.70530E-04  4594   0.142E-02    0.111E-01
RMM:   6    -0.229669245289E+04    0.10131E-03   -0.57500E-04  4282   0.127E-02    0.517E-02
RMM:   7    -0.229669243113E+04    0.21760E-04   -0.90117E-05  3037   0.930E-03    0.189E-02
RMM:   8    -0.229669242846E+04    0.26741E-05   -0.19501E-05  2845   0.426E-03
  56 F= -.23169481E+04 E0= -.23169481E+04  d E =-.214854E-02  mag=     3.0000
       N       E                     dE             d eps       ncg     rms          rms(c)
DAV:   1    -0.229668105076E+04    0.11380E-01   -0.10462E+00  4416   0.799E-01    0.306E-01
RMM:   2    -0.229669433937E+04   -0.13289E-01   -0.13772E-01  5929   0.190E-01    0.208E-01
RMM:   3    -0.229669517145E+04   -0.83208E-03   -0.11604E-02  5456   0.621E-02    0.336E-01
RMM:   4    -0.229669423807E+04    0.93338E-03   -0.12550E-03  4012   0.161E-02    0.724E-02
RMM:   5    -0.229669418653E+04    0.51539E-04   -0.18405E-04  3502   0.856E-03    0.460E-02
RMM:   6    -0.229669417330E+04    0.13231E-04   -0.12062E-04  3435   0.766E-03    0.257E-02
RMM:   7    -0.229669416579E+04    0.75046E-05   -0.21756E-05  2889   0.567E-03
  57 F= -.23169501E+04 E0= -.23169501E+04  d E =-.205268E-02  mag=     3.0000
       N       E                     dE             d eps       ncg     rms          rms(c)
DAV:   1    -0.229667175947E+04    0.22414E-01   -0.18222E+00  4384   0.106E+00    0.403E-01
RMM:   2    -0.229669487719E+04   -0.23118E-01   -0.23995E-01  5929   0.253E-01    0.268E-01
RMM:   3    -0.229669629973E+04   -0.14225E-02   -0.20289E-02  5541   0.842E-02    0.435E-01
RMM:   4    -0.229669475146E+04    0.15483E-02   -0.21770E-03  4855   0.212E-02    0.965E-02
RMM:   5    -0.229669465726E+04    0.94205E-04   -0.31705E-04  4132   0.108E-02    0.611E-02
RMM:   6    -0.229669463096E+04    0.26298E-04   -0.21422E-04  3965   0.917E-03    0.344E-02
RMM:   7    -0.229669461606E+04    0.14903E-04   -0.35211E-05  2928   0.646E-03    0.106E-02
RMM:   8    -0.229669461373E+04    0.23266E-05   -0.81503E-06  2822   0.330E-03
  58 F= -.23169510E+04 E0= -.23169510E+04  d E =-.292529E-02  mag=     3.0000
       N       E                     dE             d eps       ncg     rms          rms(c)
DAV:   1    -0.229668237446E+04    0.12242E-01   -0.10294E+00  4384   0.764E-01    0.299E-01
RMM:   2    -0.229669610912E+04   -0.13735E-01   -0.14030E-01  5995   0.187E-01    0.254E-01
RMM:   3    -0.229669665031E+04   -0.54119E-03   -0.11452E-02  5452   0.580E-02    0.331E-01
RMM:   4    -0.229669573550E+04    0.91481E-03   -0.12159E-03  3986   0.157E-02    0.710E-02
RMM:   5    -0.229669569023E+04    0.45270E-04   -0.17720E-04  3326   0.806E-03    0.456E-02
RMM:   6    -0.229669568075E+04    0.94883E-05   -0.11347E-04  3234   0.724E-03    0.258E-02
RMM:   7    -0.229669567434E+04    0.64085E-05   -0.20162E-05  2897   0.533E-03
  59 F= -.23169524E+04 E0= -.23169524E+04  d E =-.142878E-02  mag=     3.0000
       N       E                     dE             d eps       ncg     rms          rms(c)
DAV:   1    -0.229667281202E+04    0.22869E-01   -0.17695E+00  4384   0.100E+00    0.393E-01
RMM:   2    -0.229669645306E+04   -0.23641E-01   -0.24176E-01  6007   0.247E-01    0.333E-01
RMM:   3    -0.229669735321E+04   -0.90015E-03   -0.19521E-02  5595   0.795E-02    0.430E-01
RMM:   4    -0.229669581487E+04    0.15383E-02   -0.20901E-03  4767   0.206E-02    0.933E-02
RMM:   5    -0.229669573789E+04    0.76983E-04   -0.30695E-04  3837   0.102E-02    0.599E-02
RMM:   6    -0.229669572001E+04    0.17880E-04   -0.19719E-04  3715   0.874E-03    0.334E-02
RMM:   7    -0.229669570846E+04    0.11553E-04   -0.31990E-05  2916   0.603E-03    0.108E-02
RMM:   8    -0.229669570711E+04    0.13444E-05   -0.69699E-06  2821   0.300E-03
  60 F= -.23169529E+04 E0= -.23169529E+04  d E =-.195271E-02  mag=     3.0000
       N       E                     dE             d eps       ncg     rms          rms(c)
DAV:   1    -0.229668188686E+04    0.13822E-01   -0.12778E+00  4384   0.840E-01    0.322E-01
RMM:   2    -0.229669712799E+04   -0.15241E-01   -0.15775E-01  5992   0.202E-01    0.225E-01
RMM:   3    -0.229669793244E+04   -0.80445E-03   -0.12745E-02  5478   0.584E-02    0.344E-01
RMM:   4    -0.229669696201E+04    0.97043E-03   -0.14037E-03  4098   0.166E-02    0.808E-02
RMM:   5    -0.229669691198E+04    0.50023E-04   -0.21128E-04  3314   0.837E-03    0.574E-02
RMM:   6    -0.229669688166E+04    0.30320E-04   -0.14301E-04  3572   0.774E-03    0.263E-02
RMM:   7    -0.229669687760E+04    0.40640E-05   -0.23115E-05  2868   0.590E-03
  61 F= -.23169544E+04 E0= -.23169544E+04  d E =-.148805E-02  mag=     3.0000
       N       E                     dE             d eps       ncg     rms          rms(c)
DAV:   1    -0.229667516490E+04    0.21717E-01   -0.18544E+00  4384   0.101E+00    0.388E-01
RMM:   2    -0.229669724337E+04   -0.22078E-01   -0.22870E-01  6043   0.243E-01    0.270E-01
RMM:   3    -0.229669843553E+04   -0.11922E-02   -0.18688E-02  5601   0.737E-02    0.415E-01
RMM:   4    -0.229669703590E+04    0.13996E-02   -0.20423E-03  4676   0.201E-02    0.979E-02
RMM:   5    -0.229669696236E+04    0.73539E-04   -0.30774E-04  3587   0.993E-03    0.694E-02
RMM:   6    -0.229669691807E+04    0.44284E-04   -0.21187E-04  3935   0.890E-03    0.320E-02
RMM:   7    -0.229669691103E+04    0.70424E-05   -0.30579E-05  2880   0.651E-03
  62 F= -.23169548E+04 E0= -.23169548E+04  d E =-.191125E-02  mag=     3.0000
       N       E                     dE             d eps       ncg     rms          rms(c)
DAV:   1    -0.229668325133E+04    0.13667E-01   -0.12711E+00  4384   0.832E-01    0.315E-01
RMM:   2    -0.229669817356E+04   -0.14922E-01   -0.15576E-01  6093   0.198E-01    0.200E-01
RMM:   3    -0.229669912155E+04   -0.94799E-03   -0.14155E-02  5425   0.632E-02    0.316E-01
RMM:   4    -0.229669834922E+04    0.77234E-03   -0.13988E-03  3800   0.161E-02    0.830E-02
RMM:   5    -0.229669829446E+04    0.54752E-04   -0.19248E-04  3256   0.781E-03    0.570E-02
RMM:   6    -0.229669825876E+04    0.35709E-04   -0.13779E-04  3522   0.749E-03    0.251E-02
RMM:   7    -0.229669825568E+04    0.30787E-05   -0.24601E-05  2863   0.601E-03
  63 F= -.23169565E+04 E0= -.23169565E+04  d E =-.165725E-02  mag=     3.0000
       N       E                     dE             d eps       ncg     rms          rms(c)
DAV:   1    -0.229662407735E+04    0.74181E-01   -0.63006E+00  4384   0.185E+00    0.700E-01
RMM:   2    -0.229669816310E+04   -0.74086E-01   -0.77251E-01  6077   0.439E-01    0.460E-01
RMM:   3    -0.229670270222E+04   -0.45391E-02   -0.71849E-02  5618   0.143E-01    0.707E-01
RMM:   4    -0.229669893089E+04    0.37713E-02   -0.69854E-03  5583   0.354E-02    0.190E-01
RMM:   5    -0.229669863102E+04    0.29987E-03   -0.96997E-04  4681   0.155E-02    0.128E-01
RMM:   6    -0.229669845026E+04    0.18076E-03   -0.72423E-04  4490   0.143E-02    0.565E-02
RMM:   7    -0.229669843179E+04    0.18471E-04   -0.10579E-04  3382   0.103E-02    0.214E-02
RMM:   8    -0.229669842681E+04    0.49822E-05   -0.25690E-05  2854   0.491E-03
  64 F= -.23169574E+04 E0= -.23169574E+04  d E =-.254065E-02  mag=     3.0000
       N       E                     dE             d eps       ncg     rms          rms(c)
DAV:   1    -0.229668167300E+04    0.16759E-01   -0.14749E+00  4384   0.887E-01    0.341E-01
RMM:   2    -0.229669949794E+04   -0.17825E-01   -0.18413E-01  6126   0.214E-01    0.259E-01
RMM:   3    -0.229670060196E+04   -0.11040E-02   -0.16093E-02  5523   0.656E-02    0.379E-01
RMM:   4    -0.229669944114E+04    0.11608E-02   -0.16467E-03  4068   0.177E-02    0.850E-02
RMM:   5    -0.229669938951E+04    0.51635E-04   -0.23076E-04  3257   0.818E-03    0.604E-02
RMM:   6    -0.229669935315E+04    0.36356E-04   -0.14801E-04  3461   0.756E-03    0.279E-02
RMM:   7    -0.229669934976E+04    0.33971E-05   -0.27775E-05  2877   0.597E-03
  65 F= -.23169588E+04 E0= -.23169588E+04  d E =-.137027E-02  mag=     3.0000
       N       E                     dE             d eps       ncg     rms          rms(c)
DAV:   1    -0.229663811720E+04    0.61236E-01   -0.51050E+00  4384   0.165E+00    0.633E-01
RMM:   2    -0.229669902225E+04   -0.60905E-01   -0.62985E-01  6084   0.394E-01    0.469E-01
RMM:   3    -0.229670317418E+04   -0.41519E-02   -0.60817E-02  5594   0.139E-01    0.691E-01
RMM:   4    -0.229669942030E+04    0.37539E-02   -0.58964E-03  5461   0.329E-02    0.159E-01
RMM:   5    -0.229669923123E+04    0.18906E-03   -0.80468E-04  4389   0.138E-02    0.111E-01
RMM:   6    -0.229669911165E+04    0.11958E-03   -0.52523E-04  4337   0.124E-02    0.511E-02
RMM:   7    -0.229669909809E+04    0.13562E-04   -0.82994E-05  3079   0.890E-03    0.189E-02
RMM:   8    -0.229669909537E+04    0.27174E-05   -0.17929E-05  2849   0.465E-03
  66 F= -.23169593E+04 E0= -.23169593E+04  d E =-.196265E-02  mag=     3.0000
       N       E                     dE             d eps       ncg     rms          rms(c)
DAV:   1    -0.229668237704E+04    0.16721E-01   -0.16223E+00  4384   0.918E-01    0.359E-01
RMM:   2    -0.229670100902E+04   -0.18632E-01   -0.19118E-01  6010   0.222E-01    0.288E-01
RMM:   3    -0.229670198834E+04   -0.97932E-03   -0.16105E-02  5598   0.697E-02    0.401E-01
RMM:   4    -0.229670066836E+04    0.13200E-02   -0.17245E-03  4606   0.188E-02    0.866E-02
RMM:   5    -0.229670061340E+04    0.54953E-04   -0.25941E-04  3482   0.932E-03    0.612E-02
RMM:   6    -0.229670058241E+04    0.30997E-04   -0.16970E-04  3720   0.838E-03    0.289E-02
RMM:   7    -0.229670057709E+04    0.53161E-05   -0.26601E-05  2881   0.617E-03
  67 F= -.23169614E+04 E0= -.23169614E+04  d E =-.202928E-02  mag=     3.0000
       N       E                     dE             d eps       ncg     rms          rms(c)
DAV:   1    -0.229667449437E+04    0.26088E-01   -0.23226E+00  4384   0.110E+00    0.430E-01
RMM:   2    -0.229670111067E+04   -0.26616E-01   -0.27361E-01  6045   0.267E-01    0.339E-01
RMM:   3    -0.229670255512E+04   -0.14445E-02   -0.23193E-02  5649   0.852E-02    0.479E-01
RMM:   4    -0.229670068727E+04    0.18678E-02   -0.24694E-03  5063   0.225E-02    0.104E-01
RMM:   5    -0.229670060567E+04    0.81598E-04   -0.37570E-04  3883   0.110E-02    0.736E-02
RMM:   6    -0.229670055870E+04    0.46974E-04   -0.24362E-04  4057   0.953E-03    0.347E-02
RMM:   7    -0.229670055090E+04    0.77933E-05   -0.36488E-05  2910   0.680E-03
  68 F= -.23169620E+04 E0= -.23169620E+04  d E =-.266654E-02  mag=     3.0000
       N       E                     dE             d eps       ncg     rms          rms(c)
DAV:   1    -0.229668401227E+04    0.16546E-01   -0.17217E+00  4416   0.928E-01    0.357E-01
RMM:   2    -0.229670219763E+04   -0.18185E-01   -0.18840E-01  6021   0.223E-01    0.255E-01
RMM:   3    -0.229670326867E+04   -0.10710E-02   -0.16535E-02  5589   0.726E-02    0.391E-01
RMM:   4    -0.229670202487E+04    0.12438E-02   -0.17041E-03  4489   0.186E-02    0.886E-02
RMM:   5    -0.229670195819E+04    0.66676E-04   -0.26915E-04  3568   0.957E-03    0.594E-02
RMM:   6    -0.229670193503E+04    0.23164E-04   -0.18773E-04  3736   0.855E-03    0.306E-02
RMM:   7    -0.229670192606E+04    0.89663E-05   -0.27675E-05  2897   0.608E-03
  69 F= -.23169639E+04 E0= -.23169639E+04  d E =-.189188E-02  mag=     3.0000
       N       E                     dE             d eps       ncg     rms          rms(c)
DAV:   1    -0.229669099489E+04    0.10940E-01   -0.10539E+00  4416   0.727E-01    0.279E-01
RMM:   2    -0.229670211692E+04   -0.11122E-01   -0.11520E-01  6043   0.175E-01    0.199E-01
RMM:   3    -0.229670274622E+04   -0.62930E-03   -0.97513E-03  5479   0.556E-02    0.308E-01
RMM:   4    -0.229670196623E+04    0.77999E-03   -0.10222E-03  3803   0.148E-02    0.686E-02
RMM:   5    -0.229670192444E+04    0.41791E-04   -0.16793E-04  3250   0.797E-03    0.461E-02
RMM:   6    -0.229670190989E+04    0.14549E-04   -0.11656E-04  3300   0.719E-03    0.246E-02
RMM:   7    -0.229670190331E+04    0.65813E-05   -0.19884E-05  2870   0.546E-03
  70 F= -.23169643E+04 E0= -.23169643E+04  d E =-.227764E-02  mag=     3.0000
       N       E                     dE             d eps       ncg     rms          rms(c)
DAV:   1    -0.229669244848E+04    0.94614E-02   -0.10771E+00  4384   0.794E-01    0.290E-01
RMM:   2    -0.229670323244E+04   -0.10784E-01   -0.11283E-01  5963   0.184E-01    0.170E-01
RMM:   3    -0.229670395713E+04   -0.72469E-03   -0.98683E-03  5473   0.614E-02    0.294E-01
RMM:   4    -0.229670326767E+04    0.68947E-03   -0.10065E-03  4043   0.152E-02    0.700E-02
RMM:   5    -0.229670322290E+04    0.44767E-04   -0.17733E-04  3535   0.880E-03    0.458E-02
RMM:   6    -0.229670320462E+04    0.18279E-04   -0.11665E-04  3644   0.775E-03    0.231E-02
RMM:   7    -0.229670319923E+04    0.53869E-05   -0.20004E-05  2866   0.575E-03
  71 F= -.23169659E+04 E0= -.23169659E+04  d E =-.159035E-02  mag=     3.0000
       N       E                     dE             d eps       ncg     rms          rms(c)
DAV:   1    -0.229669787287E+04    0.53317E-02   -0.53566E-01  4448   0.560E-01    0.205E-01
RMM:   2    -0.229670324472E+04   -0.53718E-02   -0.56176E-02  5960   0.130E-01    0.120E-01
RMM:   3    -0.229670361404E+04   -0.36931E-03   -0.49179E-03  5153   0.446E-02    0.210E-01
RMM:   4    -0.229670325951E+04    0.35452E-03   -0.50038E-04  3357   0.111E-02    0.487E-02
RMM:   5    -0.229670323711E+04    0.22400E-04   -0.88248E-05  3107   0.659E-03    0.318E-02
RMM:   6    -0.229670322817E+04    0.89445E-05   -0.56949E-05  3007   0.609E-03
  72 F= -.23169661E+04 E0= -.23169661E+04  d E =-.182868E-02  mag=     3.0000
       N       E                     dE             d eps       ncg     rms          rms(c)
DAV:   1    -0.229669369291E+04    0.95442E-02   -0.10913E+00  4384   0.801E-01    0.278E-01
RMM:   2    -0.229670436146E+04   -0.10669E-01   -0.11269E-01  5975   0.179E-01    0.124E-01
RMM:   3    -0.229670475310E+04   -0.39163E-03   -0.99271E-03  5340   0.561E-02    0.148E-01
RMM:   4    -0.229670469607E+04    0.57025E-04   -0.88676E-04  3472   0.125E-02    0.928E-02
RMM:   5    -0.229670461968E+04    0.76394E-04   -0.13853E-04  3245   0.757E-03    0.479E-02
RMM:   6    -0.229670459521E+04    0.24463E-04   -0.11079E-04  3586   0.736E-03    0.201E-02
RMM:   7    -0.229670459294E+04    0.22762E-05   -0.18626E-05  2842   0.568E-03
  73 F= -.23169677E+04 E0= -.23169677E+04  d E =-.156443E-02  mag=     3.0000
       N       E                     dE             d eps       ncg     rms          rms(c)
DAV:   1    -0.229668475037E+04    0.19845E-01   -0.20173E+00  4384   0.109E+00    0.376E-01
RMM:   2    -0.229670441569E+04   -0.19665E-01   -0.20761E-01  6011   0.244E-01    0.174E-01
RMM:   3    -0.229670530057E+04   -0.88488E-03   -0.18751E-02  5505   0.779E-02    0.235E-01
RMM:   4    -0.229670504518E+04    0.25539E-03   -0.16603E-03  4148   0.172E-02    0.117E-01
RMM:   5    -0.229670492539E+04    0.11978E-03   -0.26416E-04  3740   0.985E-03    0.658E-02
RMM:   6    -0.229670487687E+04    0.48523E-04   -0.20263E-04  4093   0.931E-03    0.281E-02
RMM:   7    -0.229670487130E+04    0.55736E-05   -0.32355E-05  2870   0.699E-03
  74 F= -.23169682E+04 E0= -.23169682E+04  d E =-.211767E-02  mag=     3.0000
       N       E                     dE             d eps       ncg     rms          rms(c)
DAV:   1    -0.229669845103E+04    0.64258E-02   -0.78851E-01  4384   0.673E-01    0.228E-01
RMM:   2    -0.229670588175E+04   -0.74307E-02   -0.78581E-02  6081   0.149E-01    0.101E-01
RMM:   3    -0.229670614691E+04   -0.26517E-03   -0.69758E-03  5126   0.468E-02    0.103E-01
RMM:   4    -0.229670615498E+04   -0.80700E-05   -0.61307E-04  3243   0.105E-02    0.852E-02
RMM:   5    -0.229670609293E+04    0.62054E-04   -0.95101E-05  3078   0.646E-03    0.405E-02
RMM:   6    -0.229670607572E+04    0.17212E-04   -0.79934E-05  3220   0.620E-03    0.162E-02
RMM:   7    -0.229670607486E+04    0.85616E-06   -0.13113E-05  2825   0.495E-03
  75 F= -.23169696E+04 E0= -.23169696E+04  d E =-.135574E-02  mag=     3.0000
       N       E                     dE             d eps       ncg     rms          rms(c)
DAV:   1    -0.229667422844E+04    0.31847E-01   -0.33669E+00  4384   0.139E+00    0.469E-01
RMM:   2    -0.229670602733E+04   -0.31799E-01   -0.33608E-01  6079   0.310E-01    0.215E-01
RMM:   3    -0.229670716005E+04   -0.11327E-02   -0.29749E-02  5567   0.946E-02    0.233E-01
RMM:   4    -0.229670710552E+04    0.54533E-04   -0.26180E-03  4697   0.211E-02    0.170E-01
RMM:   5    -0.229670685431E+04    0.25121E-03   -0.40825E-04  4142   0.116E-02    0.867E-02
RMM:   6    -0.229670676847E+04    0.85843E-04   -0.34837E-04  4257   0.112E-02    0.333E-02
RMM:   7    -0.229670676336E+04    0.51053E-05   -0.49875E-05  2909   0.848E-03
  76 F= -.23169706E+04 E0= -.23169706E+04  d E =-.236369E-02  mag=     3.0000
       N       E                     dE             d eps       ncg     rms          rms(c)
DAV:   1    -0.229669890254E+04    0.78659E-02   -0.10167E+00  4416   0.787E-01    0.268E-01
RMM:   2    -0.229670813289E+04   -0.92304E-02   -0.97384E-02  5953   0.175E-01    0.141E-01
RMM:   3    -0.229670865221E+04   -0.51931E-03   -0.83001E-03  5421   0.555E-02    0.237E-01
RMM:   4    -0.229670824712E+04    0.40508E-03   -0.82050E-04  3735   0.137E-02    0.724E-02
RMM:   5    -0.229670820201E+04    0.45115E-04   -0.16012E-04  3362   0.820E-03    0.478E-02
RMM:   6    -0.229670817645E+04    0.25561E-04   -0.11497E-04  3707   0.777E-03    0.208E-02
RMM:   7    -0.229670817261E+04    0.38366E-05   -0.18548E-05  2839   0.590E-03
  77 F= -.23169723E+04 E0= -.23169723E+04  d E =-.167098E-02  mag=     3.0000
       N       E                     dE             d eps       ncg     rms          rms(c)
DAV:   1    -0.229670156221E+04    0.66142E-02   -0.74348E-01  4416   0.673E-01    0.229E-01
RMM:   2    -0.229670834066E+04   -0.67785E-02   -0.71426E-02  5972   0.150E-01    0.121E-01
RMM:   3    -0.229670870847E+04   -0.36781E-03   -0.58674E-03  5338   0.473E-02    0.206E-01
RMM:   4    -0.229670839571E+04    0.31276E-03   -0.58649E-04  3423   0.119E-02    0.617E-02
RMM:   5    -0.229670836206E+04    0.33653E-04   -0.11751E-04  3176   0.722E-03    0.415E-02
RMM:   6    -0.229670834085E+04    0.21212E-04   -0.83529E-05  3326   0.693E-03    0.186E-02
RMM:   7    -0.229670833784E+04    0.30050E-05   -0.15841E-05  2835   0.553E-03
  78 F= -.23169727E+04 E0= -.23169727E+04  d E =-.206135E-02  mag=     3.0000
       N       E                     dE             d eps       ncg     rms          rms(c)
DAV:   1    -0.229670215187E+04    0.61890E-02   -0.72295E-01  4384   0.675E-01    0.232E-01
RMM:   2    -0.229670979753E+04   -0.76457E-02   -0.78411E-02  6003   0.156E-01    0.203E-01
RMM:   3    -0.229671007439E+04   -0.27685E-03   -0.60248E-03  5447   0.484E-02    0.265E-01
RMM:   4    -0.229670948677E+04    0.58761E-03   -0.64199E-04  3801   0.132E-02    0.549E-02
RMM:   5    -0.229670946088E+04    0.25893E-04   -0.14039E-04  3334   0.782E-03    0.383E-02
RMM:   6    -0.229670944970E+04    0.11181E-04   -0.77696E-05  3186   0.688E-03    0.193E-02
RMM:   7    -0.229670944690E+04    0.28026E-05   -0.14424E-05  2843   0.522E-03
  79 F= -.23169741E+04 E0= -.23169741E+04  d E =-.145513E-02  mag=     3.0000
       N       E                     dE             d eps       ncg     rms          rms(c)
DAV:   1    -0.229670306469E+04    0.63850E-02   -0.64037E-01  4400   0.636E-01    0.218E-01
RMM:   2    -0.229670982577E+04   -0.67611E-02   -0.69364E-02  5992   0.147E-01    0.191E-01
RMM:   3    -0.229671008314E+04   -0.25737E-03   -0.55252E-03  5366   0.476E-02    0.248E-01
RMM:   4    -0.229670956998E+04    0.51316E-03   -0.58129E-04  3666   0.125E-02    0.517E-02
RMM:   5    -0.229670954531E+04    0.24665E-04   -0.11981E-04  3275   0.744E-03    0.357E-02
RMM:   6    -0.229670953493E+04    0.10389E-04   -0.68896E-05  3128   0.664E-03    0.178E-02
RMM:   7    -0.229670953220E+04    0.27260E-05   -0.12841E-05  2837   0.504E-03
  80 F= -.23169745E+04 E0= -.23169745E+04  d E =-.186687E-02  mag=     3.0000
       N       E                     dE             d eps       ncg     rms          rms(c)
DAV:   1    -0.229670196007E+04    0.75749E-02   -0.81635E-01  4384   0.758E-01    0.258E-01
RMM:   2    -0.229671112627E+04   -0.91662E-02   -0.93528E-02  5961   0.175E-01    0.245E-01
RMM:   3    -0.229671134170E+04   -0.21543E-03   -0.73373E-03  5499   0.550E-02    0.282E-01
RMM:   4    -0.229671067534E+04    0.66637E-03   -0.78717E-04  4513   0.148E-02    0.613E-02
RMM:   5    -0.229671064274E+04    0.32601E-04   -0.17416E-04  3461   0.877E-03    0.460E-02
RMM:   6    -0.229671062038E+04    0.22357E-04   -0.10408E-04  3655   0.766E-03    0.210E-02
RMM:   7    -0.229671061744E+04    0.29445E-05   -0.16227E-05  2845   0.568E-03
  81 F= -.23169759E+04 E0= -.23169759E+04  d E =-.141862E-02  mag=     3.0000
       N       E                     dE             d eps       ncg     rms          rms(c)
DAV:   1    -0.229670759753E+04    0.30229E-02   -0.28097E-01  4496   0.447E-01    0.152E-01
RMM:   2    -0.229671076764E+04   -0.31701E-02   -0.32346E-02  5964   0.103E-01    0.144E-01
RMM:   3    -0.229671084205E+04   -0.74408E-04   -0.24915E-03  4828   0.328E-02    0.168E-01
RMM:   4    -0.229671060448E+04    0.23757E-03   -0.26975E-04  3224   0.930E-03    0.357E-02
RMM:   5    -0.229671059321E+04    0.11279E-04   -0.62383E-05  3004   0.581E-03    0.269E-02
RMM:   6    -0.229671058544E+04    0.77612E-05   -0.36219E-05  2972   0.532E-03
  82 F= -.23169761E+04 E0= -.23169761E+04  d E =-.158235E-02  mag=     3.0000
       N       E                     dE             d eps       ncg     rms          rms(c)
DAV:   1    -0.229670142551E+04    0.91677E-02   -0.88524E-01  4416   0.789E-01    0.258E-01
RMM:   2    -0.229671189500E+04   -0.10469E-01   -0.10917E-01  5938   0.181E-01    0.212E-01
RMM:   3    -0.229671249513E+04   -0.60013E-03   -0.92232E-03  5421   0.546E-02    0.284E-01
RMM:   4    -0.229671185524E+04    0.63989E-03   -0.97146E-04  3991   0.147E-02    0.726E-02
RMM:   5    -0.229671181087E+04    0.44372E-04   -0.17615E-04  3232   0.775E-03    0.519E-02
RMM:   6    -0.229671177608E+04    0.34791E-04   -0.11942E-04  3715   0.761E-03    0.238E-02
RMM:   7    -0.229671177228E+04    0.38045E-05   -0.21691E-05  2861   0.607E-03
  83 F= -.23169775E+04 E0= -.23169775E+04  d E =-.142394E-02  mag=     3.0000
       N       E                     dE             d eps       ncg     rms          rms(c)
DAV:   1    -0.229669765394E+04    0.14122E-01   -0.12210E+00  4416   0.926E-01    0.303E-01
RMM:   2    -0.229671210365E+04   -0.14450E-01   -0.15038E-01  5985   0.213E-01    0.258E-01
RMM:   3    -0.229671289723E+04   -0.79359E-03   -0.12771E-02  5520   0.652E-02    0.334E-01
RMM:   4    -0.229671200747E+04    0.88976E-03   -0.13358E-03  4559   0.173E-02    0.849E-02
RMM:   5    -0.229671194514E+04    0.62330E-04   -0.24536E-04  3386   0.892E-03    0.609E-02
RMM:   6    -0.229671189614E+04    0.48999E-04   -0.16536E-04  4009   0.865E-03    0.282E-02
RMM:   7    -0.229671188958E+04    0.65599E-05   -0.28894E-05  2890   0.684E-03
  84 F= -.23169779E+04 E0= -.23169779E+04  d E =-.182010E-02  mag=     3.0000
       N       E                     dE             d eps       ncg     rms          rms(c)
DAV:   1    -0.229670753564E+04    0.43605E-02   -0.42704E-01  4448   0.546E-01    0.178E-01
RMM:   2    -0.229671288709E+04   -0.53514E-02   -0.55720E-02  6084   0.127E-01    0.157E-01
RMM:   3    -0.229671315944E+04   -0.27235E-03   -0.46430E-03  4974   0.393E-02    0.197E-01
RMM:   4    -0.229671285214E+04    0.30729E-03   -0.48850E-04  3349   0.105E-02    0.504E-02
RMM:   5    -0.229671283135E+04    0.20797E-04   -0.76023E-05  3010   0.560E-03    0.359E-02
RMM:   6    -0.229671281477E+04    0.16571E-04   -0.53279E-05  3021   0.527E-03    0.171E-02
RMM:   7    -0.229671281356E+04    0.12121E-05   -0.13619E-05  2842   0.465E-03
  85 F= -.23169790E+04 E0= -.23169790E+04  d E =-.108328E-02  mag=     3.0000
       N       E                     dE             d eps       ncg     rms          rms(c)
DAV:   1    -0.229666592408E+04    0.46891E-01   -0.38497E+00  4416   0.164E+00    0.530E-01
RMM:   2    -0.229671338446E+04   -0.47460E-01   -0.49439E-01  6010   0.377E-01    0.474E-01
RMM:   3    -0.229671653442E+04   -0.31500E-02   -0.42082E-02  5633   0.113E-01    0.581E-01
RMM:   4    -0.229671394418E+04    0.25902E-02   -0.43398E-03  5472   0.295E-02    0.157E-01
RMM:   5    -0.229671372628E+04    0.21790E-03   -0.66083E-04  4326   0.137E-02    0.109E-01
RMM:   6    -0.229671357051E+04    0.15577E-03   -0.48844E-04  4498   0.130E-02    0.515E-02
RMM:   7    -0.229671355574E+04    0.14772E-04   -0.10325E-04  3420   0.105E-02    0.153E-02
RMM:   8    -0.229671355353E+04    0.22101E-05   -0.18489E-05  2839   0.464E-03
  86 F= -.23169802E+04 E0= -.23169802E+04  d E =-.230285E-02  mag=     3.0000
       N       E                     dE             d eps       ncg     rms          rms(c)
DAV:   1    -0.229670536277E+04    0.81930E-02   -0.82103E-01  4400   0.770E-01    0.257E-01
RMM:   2    -0.229671536089E+04   -0.99981E-02   -0.10173E-01  5953   0.179E-01    0.265E-01
RMM:   3    -0.229671560357E+04   -0.24269E-03   -0.78226E-03  5475   0.527E-02    0.275E-01
RMM:   4    -0.229671498915E+04    0.61443E-03   -0.85762E-04  4300   0.144E-02    0.663E-02
RMM:   5    -0.229671495232E+04    0.36825E-04   -0.16064E-04  3218   0.779E-03    0.500E-02
RMM:   6    -0.229671491934E+04    0.32978E-04   -0.10933E-04  3739   0.765E-03    0.220E-02
RMM:   7    -0.229671491699E+04    0.23581E-05   -0.18862E-05  2851   0.597E-03
  87 F= -.23169819E+04 E0= -.23169819E+04  d E =-.163766E-02  mag=     3.0000
       N       E                     dE             d eps       ncg     rms          rms(c)
DAV:   1    -0.229670322085E+04    0.11698E-01   -0.10212E+00  4400   0.859E-01    0.285E-01
RMM:   2    -0.229671546170E+04   -0.12241E-01   -0.12501E-01  5946   0.199E-01    0.288E-01
RMM:   3    -0.229671594748E+04   -0.48579E-03   -0.95036E-03  5515   0.600E-02    0.309E-01
RMM:   4    -0.229671517121E+04    0.77627E-03   -0.10437E-03  4626   0.160E-02    0.742E-02
RMM:   5    -0.229671512547E+04    0.45741E-04   -0.21059E-04  3352   0.858E-03    0.559E-02
RMM:   6    -0.229671508336E+04    0.42108E-04   -0.13878E-04  3996   0.832E-03    0.242E-02
RMM:   7    -0.229671507961E+04    0.37562E-05   -0.22421E-05  2864   0.636E-03
  88 F= -.23169823E+04 E0= -.23169823E+04  d E =-.210614E-02  mag=     3.0000
       N       E                     dE             d eps       ncg     rms          rms(c)
DAV:   1    -0.229670933283E+04    0.57505E-02   -0.66523E-01  4432   0.685E-01    0.227E-01
RMM:   2    -0.229671660689E+04   -0.72741E-02   -0.73381E-02  5948   0.156E-01    0.234E-01
RMM:   3    -0.229671665557E+04   -0.48678E-04   -0.53668E-03  5407   0.483E-02    0.242E-01
RMM:   4    -0.229671616915E+04    0.48643E-03   -0.58588E-04  3957   0.127E-02    0.549E-02
RMM:   5    -0.229671614411E+04    0.25038E-04   -0.13476E-04  3197   0.743E-03    0.431E-02
RMM:   6    -0.229671612347E+04    0.20643E-04   -0.84968E-05  3394   0.708E-03    0.182E-02
RMM:   7    -0.229671612217E+04    0.12976E-05   -0.13355E-05  2839   0.536E-03
  89 F= -.23169837E+04 E0= -.23169837E+04  d E =-.132119E-02  mag=     3.0000
       N       E                     dE             d eps       ncg     rms          rms(c)
DAV:   1    -0.229671006758E+04    0.60559E-02   -0.59899E-01  4400   0.650E-01    0.215E-01
RMM:   2    -0.229671664143E+04   -0.65739E-02   -0.66350E-02  5973   0.149E-01    0.220E-01
RMM:   3    -0.229671668949E+04   -0.48055E-04   -0.48517E-03  5348   0.456E-02    0.229E-01
RMM:   4    -0.229671625119E+04    0.43830E-03   -0.52821E-04  3760   0.122E-02    0.525E-02
RMM:   5    -0.229671622785E+04    0.23331E-04   -0.12137E-04  3159   0.714E-03    0.411E-02
RMM:   6    -0.229671620737E+04    0.20489E-04   -0.77988E-05  3333   0.688E-03    0.173E-02
[...]
RMM:   8    -0.229676988247E+04    0.39371E-05   -0.83524E-06  2840   0.346E-03
 174 F= -.23170553E+04 E0= -.23170553E+04  d E =-.287056E-02  mag=     3.0000
       N       E                     dE             d eps       ncg     rms          rms(c)
DAV:   1    -0.229675339399E+04    0.16492E-01   -0.94948E-01  4416   0.831E-01    0.326E-01
RMM:   2    -0.229676890146E+04   -0.15507E-01   -0.16587E-01  6047   0.219E-01    0.170E-01
RMM:   3    -0.229677018621E+04   -0.12848E-02   -0.17648E-02  5512   0.856E-02    0.199E-01
RMM:   4    -0.229676994108E+04    0.24513E-03   -0.14438E-03  4028   0.157E-02    0.104E-01
RMM:   5    -0.229676984121E+04    0.99872E-04   -0.20485E-04  3708   0.958E-03    0.544E-02
RMM:   6    -0.229676981476E+04    0.26448E-04   -0.14516E-04  3975   0.840E-03    0.260E-02
RMM:   7    -0.229676981019E+04    0.45736E-05   -0.22976E-05  2906   0.545E-03
 175 F= -.23170556E+04 E0= -.23170556E+04  d E =-.313603E-02  mag=     3.0000
       N       E                     dE             d eps       ncg     rms          rms(c)
DAV:   1    -0.229674009494E+04    0.29720E-01   -0.18079E+00  4384   0.112E+00    0.440E-01
RMM:   2    -0.229677045029E+04   -0.30355E-01   -0.32232E-01  6165   0.295E-01    0.282E-01
RMM:   3    -0.229677301813E+04   -0.25678E-02   -0.34415E-02  5652   0.117E-01    0.358E-01
RMM:   4    -0.229677194695E+04    0.10712E-02   -0.28721E-03  4955   0.229E-02    0.129E-01
RMM:   5    -0.229677181295E+04    0.13400E-03   -0.42500E-04  4223   0.115E-02    0.778E-02
RMM:   6    -0.229677176217E+04    0.50780E-04   -0.26970E-04  4233   0.102E-02    0.408E-02
RMM:   7    -0.229677175055E+04    0.11622E-04   -0.46008E-05  3030   0.615E-03    0.174E-02
RMM:   8    -0.229677174836E+04    0.21899E-05   -0.71445E-06  2838   0.331E-03
 176 F= -.23170580E+04 E0= -.23170580E+04  d E =-.242919E-02  mag=     3.0000
       N       E                     dE             d eps       ncg     rms          rms(c)
DAV:   1    -0.229673652122E+04    0.35229E-01   -0.20283E+00  4384   0.119E+00    0.465E-01
RMM:   2    -0.229677041422E+04   -0.33893E-01   -0.36061E-01  6135   0.315E-01    0.282E-01
RMM:   3    -0.229677328602E+04   -0.28718E-02   -0.39580E-02  5662   0.124E-01    0.349E-01
RMM:   4    -0.229677231943E+04    0.96659E-03   -0.31814E-03  5039   0.235E-02    0.140E-01
RMM:   5    -0.229677215643E+04    0.16300E-03   -0.47661E-04  4349   0.121E-02    0.824E-02
RMM:   6    -0.229677209850E+04    0.57932E-04   -0.29639E-04  4351   0.106E-02    0.434E-02
RMM:   7    -0.229677208543E+04    0.13070E-04   -0.52088E-05  3048   0.638E-03    0.192E-02
RMM:   8    -0.229677208265E+04    0.27780E-05   -0.81186E-06  2840   0.340E-03
 177 F= -.23170589E+04 E0= -.23170589E+04  d E =-.328910E-02  mag=     3.0000
       N       E                     dE             d eps       ncg     rms          rms(c)
DAV:   1    -0.229674704087E+04    0.25045E-01   -0.16156E+00  4384   0.111E+00    0.431E-01
RMM:   2    -0.229677357168E+04   -0.26531E-01   -0.28090E-01  5972   0.287E-01    0.305E-01
RMM:   3    -0.229677600309E+04   -0.24314E-02   -0.31620E-02  5651   0.116E-01    0.377E-01
RMM:   4    -0.229677470760E+04    0.12955E-02   -0.25658E-03  5282   0.237E-02    0.121E-01
RMM:   5    -0.229677458012E+04    0.12748E-03   -0.53576E-04  4590   0.128E-02    0.754E-02
RMM:   6    -0.229677452040E+04    0.59722E-04   -0.27052E-04  4424   0.107E-02    0.381E-02
RMM:   7    -0.229677450713E+04    0.13264E-04   -0.43034E-05  3021   0.667E-03    0.160E-02
RMM:   8    -0.229677450481E+04    0.23286E-05   -0.79209E-06  2834   0.364E-03
 178 F= -.23170617E+04 E0= -.23170617E+04  d E =-.281459E-02  mag=     3.0000
       N       E                     dE             d eps       ncg     rms          rms(c)
DAV:   1    -0.229677201048E+04    0.24967E-02   -0.14928E-01  4608   0.337E-01    0.130E-01
RMM:   2    -0.229677444399E+04   -0.24335E-02   -0.25870E-02  6022   0.874E-02    0.851E-02
RMM:   3    -0.229677466612E+04   -0.22212E-03   -0.28388E-03  4330   0.359E-02    0.111E-01
RMM:   4    -0.229677455873E+04    0.10739E-03   -0.24204E-04  3113   0.795E-03    0.378E-02
RMM:   5    -0.229677454475E+04    0.13982E-04   -0.42368E-05  2970   0.487E-03    0.228E-02
RMM:   6    -0.229677453852E+04    0.62263E-05   -0.28695E-05  2961   0.453E-03
 179 F= -.23170618E+04 E0= -.23170618E+04  d E =-.296757E-02  mag=     3.0000
       N       E                     dE             d eps       ncg     rms          rms(c)
DAV:   1    -0.229676595851E+04    0.85862E-02   -0.58010E-01  4416   0.704E-01    0.263E-01
RMM:   2    -0.229677561152E+04   -0.96530E-02   -0.10292E-01  5948   0.176E-01    0.167E-01
RMM:   3    -0.229677652389E+04   -0.91237E-03   -0.11444E-02  5536   0.712E-02    0.214E-01
RMM:   4    -0.229677612604E+04    0.39785E-03   -0.96015E-04  4053   0.145E-02    0.761E-02
RMM:   5    -0.229677606759E+04    0.58442E-04   -0.16636E-04  3710   0.881E-03    0.437E-02
RMM:   6    -0.229677604774E+04    0.19851E-04   -0.10338E-04  3719   0.766E-03    0.239E-02
RMM:   7    -0.229677604264E+04    0.51031E-05   -0.19916E-05  2902   0.540E-03
 180 F= -.23170635E+04 E0= -.23170635E+04  d E =-.166009E-02  mag=     3.0000
       N       E                     dE             d eps       ncg     rms          rms(c)
DAV:   1    -0.229677097968E+04    0.50681E-02   -0.30253E-01  4416   0.508E-01    0.191E-01
RMM:   2    -0.229677605578E+04   -0.50761E-02   -0.53822E-02  6016   0.128E-01    0.133E-01
RMM:   3    -0.229677653862E+04   -0.48284E-03   -0.59409E-03  5217   0.531E-02    0.169E-01
RMM:   4    -0.229677627999E+04    0.25863E-03   -0.49477E-04  3363   0.111E-02    0.527E-02
RMM:   5    -0.229677625203E+04    0.27963E-04   -0.10112E-04  3187   0.699E-03    0.317E-02
RMM:   6    -0.229677624062E+04    0.11407E-04   -0.56252E-05  3188   0.627E-03    0.175E-02
RMM:   7    -0.229677623770E+04    0.29163E-05   -0.12915E-05  2865   0.480E-03
 181 F= -.23170638E+04 E0= -.23170638E+04  d E =-.196746E-02  mag=     3.0000
       N       E                     dE             d eps       ncg     rms          rms(c)
DAV:   1    -0.229676452079E+04    0.11720E-01   -0.74902E-01  4384   0.831E-01    0.297E-01
RMM:   2    -0.229677699827E+04   -0.12477E-01   -0.13255E-01  6000   0.203E-01    0.196E-01
RMM:   3    -0.229677817149E+04   -0.11732E-02   -0.14438E-02  5537   0.824E-02    0.245E-01
RMM:   4    -0.229677763282E+04    0.53867E-03   -0.12128E-03  4495   0.166E-02    0.833E-02
RMM:   5    -0.229677755886E+04    0.73960E-04   -0.20796E-04  3955   0.976E-03    0.453E-02
RMM:   6    -0.229677754125E+04    0.17614E-04   -0.11321E-04  3892   0.805E-03    0.283E-02
RMM:   7    -0.229677753504E+04    0.62046E-05   -0.25456E-05  2919   0.580E-03
 182 F= -.23170653E+04 E0= -.23170653E+04  d E =-.146525E-02  mag=     3.0000
       N       E                     dE             d eps       ncg     rms          rms(c)
DAV:   1    -0.229676520840E+04    0.12333E-01   -0.69082E-01  4384   0.799E-01    0.286E-01
RMM:   2    -0.229677674364E+04   -0.11535E-01   -0.12264E-01  6004   0.195E-01    0.187E-01
RMM:   3    -0.229677782492E+04   -0.10813E-02   -0.13318E-02  5542   0.785E-02    0.234E-01
RMM:   4    -0.229677733589E+04    0.48903E-03   -0.11271E-03  4332   0.160E-02    0.803E-02
RMM:   5    -0.229677726674E+04    0.69152E-04   -0.18867E-04  3857   0.948E-03    0.441E-02
RMM:   6    -0.229677724915E+04    0.17589E-04   -0.10711E-04  3870   0.785E-03    0.278E-02
RMM:   7    -0.229677724289E+04    0.62543E-05   -0.24472E-05  2914   0.566E-03
 183 F= -.23170651E+04 E0= -.23170651E+04  d E =-.133440E-02  mag=     3.0000
       N       E                     dE             d eps       ncg     rms          rms(c)
DAV:   1    -0.229677421342E+04    0.30357E-02   -0.19403E-01  4432   0.424E-01    0.149E-01
RMM:   2    -0.229677740203E+04   -0.31886E-02   -0.34123E-02  5984   0.103E-01    0.793E-02
RMM:   3    -0.229677767757E+04   -0.27554E-03   -0.37666E-03  4627   0.399E-02    0.937E-02
RMM:   4    -0.229677761747E+04    0.60103E-04   -0.30056E-04  3111   0.817E-03    0.468E-02
RMM:   5    -0.229677759399E+04    0.23482E-04   -0.46979E-05  2904   0.555E-03    0.235E-02
RMM:   6    -0.229677758858E+04    0.54051E-05   -0.35433E-05  3020   0.513E-03
 184 F= -.23170654E+04 E0= -.23170654E+04  d E =-.159471E-02  mag=     3.0000
       N       E                     dE             d eps       ncg     rms          rms(c)
DAV:   1    -0.229676273673E+04    0.14857E-01   -0.92127E-01  4384   0.916E-01    0.321E-01
RMM:   2    -0.229677834443E+04   -0.15608E-01   -0.16275E-01  6055   0.223E-01    0.279E-01
RMM:   3    -0.229677957682E+04   -0.12324E-02   -0.18101E-02  5629   0.898E-02    0.284E-01
RMM:   4    -0.229677881030E+04    0.76651E-03   -0.14650E-03  4957   0.185E-02    0.870E-02
RMM:   5    -0.229677872048E+04    0.89819E-04   -0.27781E-04  4203   0.104E-02    0.488E-02
RMM:   6    -0.229677869973E+04    0.20758E-04   -0.13519E-04  3969   0.866E-03    0.331E-02
RMM:   7    -0.229677868973E+04    0.99968E-05   -0.32071E-05  2965   0.592E-03
 185 F= -.23170666E+04 E0= -.23170666E+04  d E =-.125824E-02  mag=     3.0000
       N       E                     dE             d eps       ncg     rms          rms(c)
DAV:   1    -0.229677782476E+04    0.87497E-03   -0.48206E-02  4688   0.210E-01    0.756E-02
RMM:   2    -0.229677865524E+04   -0.83049E-03   -0.86666E-03  6041   0.520E-02    0.683E-02
RMM:   3    -0.229677871903E+04   -0.63782E-04   -0.95685E-04  3394   0.211E-02    0.697E-02
RMM:   4    -0.229677867371E+04    0.45319E-04   -0.79137E-05  2973   0.563E-03    0.195E-02
RMM:   5    -0.229677866941E+04    0.43019E-05   -0.17653E-05  2872   0.319E-03
 186 F= -.23170667E+04 E0= -.23170667E+04  d E =-.127409E-02  mag=     3.0000
       N       E                     dE             d eps       ncg     rms          rms(c)
DAV:   1    -0.229676852165E+04    0.10152E-01   -0.69820E-01  4416   0.823E-01    0.281E-01
RMM:   2    -0.229677941548E+04   -0.10894E-01   -0.11367E-01  5904   0.193E-01    0.240E-01
RMM:   3    -0.229678031176E+04   -0.89629E-03   -0.12787E-02  5500   0.780E-02    0.255E-01
RMM:   4    -0.229677969034E+04    0.62142E-03   -0.10502E-03  4810   0.165E-02    0.733E-02
RMM:   5    -0.229677962648E+04    0.63857E-04   -0.22381E-04  4106   0.964E-03    0.430E-02
RMM:   6    -0.229677960867E+04    0.17810E-04   -0.10591E-04  3698   0.792E-03    0.276E-02
RMM:   7    -0.229677960163E+04    0.70485E-05   -0.23619E-05  2913   0.578E-03
 187 F= -.23170677E+04 E0= -.23170677E+04  d E =-.104569E-02  mag=     3.0000
       N       E                     dE             d eps       ncg     rms          rms(c)
DAV:   1    -0.229677899059E+04    0.61809E-03   -0.35881E-02  4744   0.187E-01    0.654E-02
RMM:   2    -0.229677956337E+04   -0.57278E-03   -0.59267E-03  5970   0.447E-02    0.616E-02
RMM:   3    -0.229677960226E+04   -0.38897E-04   -0.65116E-04  3250   0.183E-02    0.604E-02
RMM:   4    -0.229677956773E+04    0.34539E-04   -0.55228E-05  2940   0.510E-03    0.161E-02
RMM:   5    -0.229677956436E+04    0.33691E-05   -0.13366E-05  2848   0.291E-03
 188 F= -.23170677E+04 E0= -.23170677E+04  d E =-.103426E-02  mag=     3.0000
       N       E                     dE             d eps       ncg     rms          rms(c)
DAV:   1    -0.229676866278E+04    0.10905E-01   -0.72664E-01  4416   0.849E-01    0.275E-01
RMM:   2    -0.229677989041E+04   -0.11228E-01   -0.11824E-01  5921   0.198E-01    0.208E-01
RMM:   3    -0.229678089803E+04   -0.10076E-02   -0.13052E-02  5477   0.778E-02    0.240E-01
RMM:   4    -0.229678035828E+04    0.53975E-03   -0.10601E-03  4552   0.161E-02    0.753E-02
RMM:   5    -0.229678028847E+04    0.69817E-04   -0.19879E-04  3846   0.932E-03    0.405E-02
RMM:   6    -0.229678027444E+04    0.14030E-04   -0.98441E-05  3801   0.789E-03    0.286E-02
RMM:   7    -0.229678026783E+04    0.66053E-05   -0.23374E-05  2909   0.573E-03
 189 F= -.23170685E+04 E0= -.23170685E+04  d E =-.825784E-03  mag=     3.0000
       N       E                     dE             d eps       ncg     rms          rms(c)
DAV:   1    -0.229677935966E+04    0.91477E-03   -0.53007E-02  4576   0.230E-01    0.761E-02
RMM:   2    -0.229678019169E+04   -0.83203E-03   -0.87305E-03  6038   0.543E-02    0.627E-02
RMM:   3    -0.229678026303E+04   -0.71339E-04   -0.95605E-04  3492   0.216E-02    0.704E-02
RMM:   4    -0.229678021706E+04    0.45975E-04   -0.80566E-05  2976   0.573E-03    0.195E-02
RMM:   5    -0.229678021199E+04    0.50668E-05   -0.16245E-05  2850   0.328E-03
 190 F= -.23170685E+04 E0= -.23170685E+04  d E =-.803239E-03  mag=     3.0000
       N       E                     dE             d eps       ncg     rms          rms(c)
DAV:   1    -0.229677074843E+04    0.94686E-02   -0.66172E-01  4416   0.821E-01    0.260E-01
RMM:   2    -0.229678057851E+04   -0.98301E-02   -0.10422E-01  5914   0.188E-01    0.183E-01
RMM:   3    -0.229678148556E+04   -0.90705E-03   -0.11502E-02  5495   0.732E-02    0.219E-01
RMM:   4    -0.229678103961E+04    0.44595E-03   -0.93619E-04  4341   0.152E-02    0.724E-02
RMM:   5    -0.229678097472E+04    0.64884E-04   -0.17523E-04  3781   0.915E-03    0.382E-02
RMM:   6    -0.229678096184E+04    0.12887E-04   -0.89149E-05  3834   0.768E-03    0.269E-02
RMM:   7    -0.229678095648E+04    0.53587E-05   -0.20861E-05  2898   0.565E-03
 191 F= -.23170693E+04 E0= -.23170693E+04  d E =-.852340E-03  mag=     3.0000
       N       E                     dE             d eps       ncg     rms          rms(c)
DAV:   1    -0.229677883771E+04    0.21241E-02   -0.13132E-01  4464   0.366E-01    0.117E-01
RMM:   2    -0.229678080943E+04   -0.19717E-02   -0.20801E-02  5986   0.846E-02    0.901E-02
RMM:   3    -0.229678098609E+04   -0.17666E-03   -0.22696E-03  4488   0.339E-02    0.105E-01
RMM:   4    -0.229678088308E+04    0.10301E-03   -0.18928E-04  3079   0.774E-03    0.310E-02
RMM:   5    -0.229678087030E+04    0.12779E-04   -0.36174E-05  2896   0.488E-03    0.161E-02
RMM:   6    -0.229678086796E+04    0.23415E-05   -0.18639E-05  2908   0.433E-03
 192 F= -.23170693E+04 E0= -.23170693E+04  d E =-.812147E-03  mag=     3.0000
       N       E                     dE             d eps       ncg     rms          rms(c)
DAV:   1    -0.229677069835E+04    0.10172E-01   -0.73895E-01  4384   0.865E-01    0.262E-01
RMM:   2    -0.229678128943E+04   -0.10591E-01   -0.11114E-01  5881   0.193E-01    0.219E-01
RMM:   3    -0.229678215649E+04   -0.86706E-03   -0.12474E-02  5456   0.751E-02    0.229E-01
RMM:   4    -0.229678166652E+04    0.48997E-03   -0.10060E-03  4387   0.157E-02    0.731E-02
RMM:   5    -0.229678159786E+04    0.68664E-04   -0.18239E-04  3846   0.925E-03    0.389E-02
RMM:   6    -0.229678158504E+04    0.12811E-04   -0.88260E-05  3689   0.786E-03    0.246E-02
RMM:   7    -0.229678158107E+04    0.39776E-05   -0.19368E-05  2878   0.567E-03
 193 F= -.23170701E+04 E0= -.23170701E+04  d E =-.780184E-03  mag=     3.0000
       N       E                     dE             d eps       ncg     rms          rms(c)
DAV:   1    -0.229678097242E+04    0.61262E-03   -0.40194E-02  4688   0.202E-01    0.632E-02
RMM:   2    -0.229678156643E+04   -0.59400E-03   -0.61528E-03  5945   0.460E-02    0.616E-02
RMM:   3    -0.229678160337E+04   -0.36939E-04   -0.68096E-04  3320   0.187E-02    0.565E-02
RMM:   4    -0.229678157332E+04    0.30052E-04   -0.55235E-05  2950   0.499E-03    0.163E-02
RMM:   5    -0.229678157001E+04    0.33051E-05   -0.12288E-05  2835   0.285E-03
 194 F= -.23170701E+04 E0= -.23170701E+04  d E =-.784864E-03  mag=     3.0000
       N       E                     dE             d eps       ncg     rms          rms(c)
DAV:   1    -0.229677639883E+04    0.51745E-02   -0.45071E-01  4416   0.698E-01    0.216E-01
RMM:   2    -0.229678211251E+04   -0.57137E-02   -0.60397E-02  5838   0.150E-01    0.164E-01
RMM:   3    -0.229678259993E+04   -0.48742E-03   -0.66488E-03  5396   0.577E-02    0.192E-01
RMM:   4    -0.229678223780E+04    0.36213E-03   -0.56914E-04  4164   0.132E-02    0.578E-02
RMM:   5    -0.229678219217E+04    0.45628E-04   -0.14953E-04  3907   0.896E-03    0.328E-02
RMM:   6    -0.229678218130E+04    0.10879E-04   -0.67744E-05  3413   0.699E-03    0.201E-02
RMM:   7    -0.229678217758E+04    0.37138E-05   -0.15561E-05  2875   0.537E-03
 195 F= -.23170708E+04 E0= -.23170708E+04  d E =-.727993E-03  mag=     3.0000
       N       E                     dE             d eps       ncg     rms          rms(c)
DAV:   1    -0.229678216378E+04    0.17515E-04   -0.46296E-04  5088   0.229E-02    0.931E-03
RMM:   2    -0.229678217173E+04   -0.79455E-05   -0.72265E-05  3298   0.579E-03
 196 F= -.23170708E+04 E0= -.23170708E+04  d E =-.726070E-03  mag=     3.0000
       N       E                     dE             d eps       ncg     rms          rms(c)
DAV:   1    -0.229677951618E+04    0.26476E-02   -0.24562E-01  4416   0.522E-01    0.153E-01
RMM:   2    -0.229678245647E+04   -0.29403E-02   -0.31330E-02  5829   0.110E-01    0.984E-02
RMM:   3    -0.229678267970E+04   -0.22324E-03   -0.32016E-03  5151   0.436E-02    0.120E-01
RMM:   4    -0.229678254843E+04    0.13127E-03   -0.28510E-04  3192   0.945E-03    0.449E-02
RMM:   5    -0.229678252008E+04    0.28350E-04   -0.65539E-05  3154   0.715E-03    0.223E-02
RMM:   6    -0.229678251568E+04    0.44009E-05   -0.33314E-05  3088   0.595E-03
 197 F= -.23170714E+04 E0= -.23170714E+04  d E =-.531317E-03  mag=     3.0000
       N       E                     dE             d eps       ncg     rms          rms(c)
DAV:   1    -0.229678178142E+04    0.73866E-03   -0.53134E-02  4464   0.243E-01    0.720E-02
RMM:   2    -0.229678241332E+04   -0.63190E-03   -0.68585E-03  6085   0.525E-02    0.360E-02
RMM:   3    -0.229678244925E+04   -0.35925E-04   -0.67098E-04  3619   0.188E-02    0.358E-02
RMM:   4    -0.229678244361E+04    0.56370E-05   -0.60409E-05  2918   0.517E-03
 198 F= -.23170714E+04 E0= -.23170714E+04  d E =-.546756E-03  mag=     3.0000
       N       E                     dE             d eps       ncg     rms          rms(c)
DAV:   1    -0.229677987483E+04    0.25744E-02   -0.27395E-01  4432   0.553E-01    0.155E-01
RMM:   2    -0.229678274890E+04   -0.28741E-02   -0.30409E-02  5828   0.111E-01    0.114E-01
RMM:   3    -0.229678295252E+04   -0.20362E-03   -0.30117E-03  5187   0.417E-02    0.137E-01
RMM:   4    -0.229678276622E+04    0.18630E-03   -0.27281E-04  3331   0.988E-03    0.442E-02
RMM:   5    -0.229678273749E+04    0.28730E-04   -0.97187E-05  3671   0.797E-03    0.201E-02
RMM:   6    -0.229678273512E+04    0.23664E-05   -0.27492E-05  2970   0.576E-03
 199 F= -.23170718E+04 E0= -.23170718E+04  d E =-.449213E-03  mag=     3.0000
       N       E                     dE             d eps       ncg     rms          rms(c)
DAV:   1    -0.229678252718E+04    0.21031E-03   -0.15281E-02  4928   0.131E-01    0.380E-02
RMM:   2    -0.229678268746E+04   -0.16029E-03   -0.17606E-03  5873   0.282E-02    0.169E-02
RMM:   3    -0.229678269371E+04   -0.62473E-05   -0.16085E-04  2977   0.993E-03    0.108E-02
RMM:   4    -0.229678269331E+04    0.40466E-06   -0.14820E-05  2873   0.297E-03
 200 F= -.23170718E+04 E0= -.23170718E+04  d E =-.444843E-03  mag=     3.0000
       N       E                     dE             d eps       ncg     rms          rms(c)
DAV:   1    -0.229678068890E+04    0.20048E-02   -0.25548E-01  4432   0.530E-01    0.139E-01
RMM:   2    -0.229678313195E+04   -0.24430E-02   -0.25677E-02  5814   0.104E-01    0.116E-01
RMM:   3    -0.229678326191E+04   -0.12996E-03   -0.24510E-03  5033   0.366E-02    0.126E-01
RMM:   4    -0.229678310265E+04    0.15925E-03   -0.22348E-04  3237   0.926E-03    0.396E-02
RMM:   5    -0.229678307494E+04    0.27712E-04   -0.79442E-05  3483   0.744E-03    0.177E-02
RMM:   6    -0.229678307146E+04    0.34832E-05   -0.24193E-05  2926   0.575E-03
 201 F= -.23170722E+04 E0= -.23170722E+04  d E =-.433268E-03  mag=     3.0000
