       N       E                     dE             d eps       ncg     rms          rms(c)
DAV:   1     0.129960779519E+05    0.12996E+05   -0.84091E+05  4504   0.144E+03
DAV:   2    -0.105073982474E+04   -0.14047E+05   -0.13427E+05  5128   0.331E+02
DAV:   3    -0.248186794896E+04   -0.14311E+04   -0.14156E+04  5424   0.113E+02
DAV:   4    -0.252817361753E+04   -0.46306E+02   -0.46062E+02  6776   0.304E+01
DAV:   5    -0.252898150726E+04   -0.80789E+00   -0.80656E+00  6096   0.345E+00    0.170E+02
RMM:   6    -0.149805454850E+04    0.10309E+04   -0.19315E+03  4457   0.383E+01    0.720E+01
RMM:   7    -0.166288178999E+04   -0.16483E+03   -0.28752E+02  4994   0.139E+01    0.467E+01
RMM:   8    -0.172175495360E+04   -0.58873E+02   -0.27728E+01  5299   0.631E+00    0.353E+01
RMM:   9    -0.186250018896E+04   -0.14075E+03   -0.74550E+01  5098   0.844E+00    0.352E+01
RMM:  10    -0.193887130380E+04   -0.76371E+02   -0.41492E+01  5151   0.596E+00    0.234E+01
RMM:  11    -0.202026020128E+04   -0.81389E+02   -0.32399E+01  4971   0.476E+00    0.212E+01
RMM:  12    -0.208361581332E+04   -0.63356E+02   -0.22917E+01  4946   0.393E+00    0.143E+01
RMM:  13    -0.216479210917E+04   -0.81176E+02   -0.39558E+01  4564   0.488E+00    0.126E+01
RMM:  14    -0.227484803372E+04   -0.11006E+03   -0.10125E+02  4510   0.690E+00    0.911E+00
RMM:  15    -0.230699147331E+04   -0.32143E+02   -0.30309E+01  4522   0.458E+00    0.592E+00
RMM:  16    -0.231627254739E+04   -0.92811E+01   -0.11108E+01  4834   0.224E+00    0.388E+00
RMM:  17    -0.232142803708E+04   -0.51555E+01   -0.36277E+00  4864   0.142E+00    0.202E+00
RMM:  18    -0.232286656907E+04   -0.14385E+01   -0.71346E-01  4954   0.713E-01    0.124E+00
RMM:  19    -0.232331465838E+04   -0.44809E+00   -0.21366E-01  4948   0.327E-01    0.742E-01
RMM:  20    -0.232339968123E+04   -0.85023E-01   -0.59156E-02  4654   0.226E-01    0.444E-01
RMM:  21    -0.232342697475E+04   -0.27294E-01   -0.15773E-02  5030   0.109E-01    0.247E-01
RMM:  22    -0.232344989385E+04   -0.22919E-01   -0.90817E-03  4509   0.764E-02    0.144E-01
RMM:  23    -0.232346452111E+04   -0.14627E-01   -0.44906E-03  4490   0.578E-02    0.871E-02
RMM:  24    -0.232347787169E+04   -0.13351E-01   -0.46588E-03  4469   0.519E-02    0.605E-02
RMM:  25    -0.232348395844E+04   -0.60867E-02   -0.24319E-03  4748   0.427E-02    0.407E-02
RMM:  26    -0.232348746929E+04   -0.35109E-02   -0.13182E-03  4499   0.266E-02    0.197E-02
RMM:  27    -0.232348850467E+04   -0.10354E-02   -0.35846E-04  4059   0.182E-02    0.120E-02
RMM:  28    -0.232348890266E+04   -0.39800E-03   -0.14120E-04  3782   0.976E-03    0.764E-03
RMM:  29    -0.232348907465E+04   -0.17198E-03   -0.52594E-05  3498   0.831E-03    0.538E-03
RMM:  30    -0.232348917918E+04   -0.10453E-03   -0.33932E-05  3293   0.522E-03    0.339E-03
RMM:  31    -0.232348921389E+04   -0.34709E-04   -0.13483E-05  2935   0.426E-03    0.172E-03
RMM:  32    -0.232348922626E+04   -0.12373E-04   -0.70951E-06  2821   0.283E-03    0.112E-03
RMM:  33    -0.232348922769E+04   -0.14261E-05   -0.29696E-06  2411   0.216E-03
   1 F= -.23444206E+04 E0= -.23444206E+04  d E =-.234442E+04  mag=     6.0001
       N       E                     dE             d eps       ncg     rms          rms(c)
DAV:   1    -0.232346161032E+04    0.27616E-01   -0.57426E+00  5208   0.160E+00    0.812E-01
RMM:   2    -0.232361109485E+04   -0.14948E+00   -0.15595E+00  6270   0.500E-01    0.598E-01
RMM:   3    -0.232362543976E+04   -0.14345E-01   -0.19391E-01  5515   0.265E-01    0.442E-01
RMM:   4    -0.232362504987E+04    0.38989E-03   -0.14728E-02  5469   0.384E-02    0.328E-01
RMM:   5    -0.232362435914E+04    0.69073E-03   -0.16083E-03  4461   0.167E-02    0.240E-01
RMM:   6    -0.232362370778E+04    0.65136E-03   -0.24995E-03  5514   0.225E-02    0.125E-01
RMM:   7    -0.232362360089E+04    0.10688E-03   -0.45103E-04  4094   0.115E-02    0.548E-02
RMM:   8    -0.232362356406E+04    0.36834E-04   -0.91467E-05  3037   0.670E-03    0.367E-02
RMM:   9    -0.232362354412E+04    0.19936E-04   -0.57764E-05  2913   0.528E-03    0.104E-02
RMM:  10    -0.232362354332E+04    0.79963E-06   -0.12938E-05  2932   0.315E-03
   2 F= -.23445536E+04 E0= -.23445536E+04  d E =-.132990E+00  mag=     6.0000
       N       E                     dE             d eps       ncg     rms          rms(c)
DAV:   1    -0.232347240709E+04    0.15114E+00   -0.70803E+00  4704   0.182E+00    0.896E-01
RMM:   2    -0.232366067677E+04   -0.18827E+00   -0.19715E+00  6137   0.585E-01    0.628E-01
RMM:   3    -0.232368223925E+04   -0.21562E-01   -0.26968E-01  5311   0.364E-01    0.500E-01
RMM:   4    -0.232368191801E+04    0.32124E-03   -0.19009E-02  5582   0.448E-02    0.380E-01
RMM:   5    -0.232368075297E+04    0.11650E-02   -0.22085E-03  4828   0.196E-02    0.248E-01
RMM:   6    -0.232368008163E+04    0.67133E-03   -0.38321E-03  5612   0.277E-02    0.125E-01
RMM:   7    -0.232367997834E+04    0.10329E-03   -0.43068E-04  3637   0.126E-02    0.761E-02
RMM:   8    -0.232367992075E+04    0.57588E-04   -0.14840E-04  3279   0.701E-03    0.535E-02
RMM:   9    -0.232367987642E+04    0.44330E-04   -0.98784E-05  2941   0.634E-03    0.145E-02
RMM:  10    -0.232367987442E+04    0.20015E-05   -0.26473E-05  2932   0.360E-03
   3 F= -.23446085E+04 E0= -.23446085E+04  d E =-.187922E+00  mag=     6.0000
       N       E                     dE             d eps       ncg     rms          rms(c)
DAV:   1    -0.232366518544E+04    0.14691E-01   -0.23075E+00  4648   0.156E+00    0.688E-01
RMM:   2    -0.232369202998E+04   -0.26845E-01   -0.29207E-01  5870   0.341E-01    0.489E-01
RMM:   3    -0.232369362260E+04   -0.15926E-02   -0.31149E-02  5474   0.134E-01    0.530E-01
RMM:   4    -0.232369137626E+04    0.22463E-02   -0.40012E-03  5393   0.392E-02    0.176E-01
RMM:   5    -0.232369117433E+04    0.20194E-03   -0.18600E-03  5335   0.301E-02    0.185E-01
RMM:   6    -0.232369075562E+04    0.41871E-03   -0.80582E-04  5216   0.189E-02    0.558E-02
RMM:   7    -0.232369069879E+04    0.56829E-04   -0.15776E-04  4387   0.117E-02    0.350E-02
RMM:   8    -0.232369067249E+04    0.26302E-04   -0.45321E-05  3223   0.606E-03    0.141E-02
RMM:   9    -0.232369066150E+04    0.10983E-04   -0.18756E-05  2969   0.470E-03    0.709E-03
RMM:  10    -0.232369065722E+04    0.42822E-05   -0.11356E-05  2866   0.409E-03
   4 F= -.23446196E+04 E0= -.23446196E+04  d E =-.111377E-01  mag=     6.0000
       N       E                     dE             d eps       ncg     rms          rms(c)
DAV:   1    -0.232369070477E+04   -0.43271E-04   -0.16260E-01  4756   0.415E-01    0.183E-01
RMM:   2    -0.232369258569E+04   -0.18809E-02   -0.20431E-02  5957   0.910E-02    0.131E-01
RMM:   3    -0.232369269077E+04   -0.10508E-03   -0.20994E-03  5052   0.361E-02    0.145E-01
RMM:   4    -0.232369252088E+04    0.16990E-03   -0.27690E-04  3796   0.109E-02    0.466E-02
RMM:   5    -0.232369250703E+04    0.13851E-04   -0.13878E-04  3706   0.911E-03    0.496E-02
RMM:   6    -0.232369247651E+04    0.30512E-04   -0.61089E-05  3273   0.690E-03    0.142E-02
RMM:   7    -0.232369247268E+04    0.38294E-05   -0.14350E-05  2918   0.507E-03
   5 F= -.23446213E+04 E0= -.23446213E+04  d E =-.128586E-01  mag=     6.0000
       N       E                     dE             d eps       ncg     rms          rms(c)
DAV:   1    -0.232366093744E+04    0.31539E-01   -0.15288E+00  4576   0.946E-01    0.472E-01
RMM:   2    -0.232370349242E+04   -0.42555E-01   -0.44033E-01  6449   0.282E-01    0.485E-01
RMM:   3    -0.232370647139E+04   -0.29790E-02   -0.48335E-02  5837   0.106E-01    0.322E-01
RMM:   4    -0.232370604878E+04    0.42261E-03   -0.43537E-03  4557   0.228E-02    0.146E-01
RMM:   5    -0.232370590251E+04    0.14628E-03   -0.48712E-04  3524   0.109E-02    0.116E-01
RMM:   6    -0.232370572169E+04    0.18082E-03   -0.33895E-04  4194   0.105E-02    0.581E-02
RMM:   7    -0.232370570068E+04    0.21007E-04   -0.11525E-04  3211   0.778E-03    0.284E-02
RMM:   8    -0.232370569810E+04    0.25856E-05   -0.24467E-05  2935   0.517E-03
   6 F= -.23446350E+04 E0= -.23446350E+04  d E =-.136627E-01  mag=     6.0000
       N       E                     dE             d eps       ncg     rms          rms(c)
DAV:   1    -0.232358816313E+04    0.11754E+00   -0.42499E+00  4552   0.158E+00    0.788E-01
RMM:   2    -0.232370657101E+04   -0.11841E+00   -0.12315E+00  6425   0.470E-01    0.765E-01
RMM:   3    -0.232371553228E+04   -0.89613E-02   -0.13689E-01  5960   0.176E-01    0.520E-01
RMM:   4    -0.232371439804E+04    0.11342E-02   -0.12033E-02  5361   0.377E-02    0.237E-01
RMM:   5    -0.232371399706E+04    0.40097E-03   -0.13416E-03  4594   0.176E-02    0.190E-01
RMM:   6    -0.232371354094E+04    0.45612E-03   -0.89720E-04  5010   0.154E-02    0.101E-01
RMM:   7    -0.232371347531E+04    0.65635E-04   -0.30160E-04  4014   0.111E-02    0.526E-02
RMM:   8    -0.232371346447E+04    0.10837E-04   -0.73094E-05  2996   0.701E-03    0.229E-02
RMM:   9    -0.232371346099E+04    0.34835E-05   -0.16027E-05  2894   0.467E-03
   7 F= -.23446434E+04 E0= -.23446434E+04  d E =-.220728E-01  mag=     6.0000
       N       E                     dE             d eps       ncg     rms          rms(c)
DAV:   1    -0.232370520369E+04    0.82608E-02   -0.61045E-01  4568   0.627E-01    0.287E-01
RMM:   2    -0.232372088867E+04   -0.15685E-01   -0.16365E-01  6451   0.178E-01    0.259E-01
RMM:   3    -0.232372211470E+04   -0.12260E-02   -0.17575E-02  5412   0.635E-02    0.192E-01
RMM:   4    -0.232372192508E+04    0.18962E-03   -0.15207E-03  3470   0.138E-02    0.863E-02
RMM:   5    -0.232372187933E+04    0.45754E-04   -0.18245E-04  3088   0.716E-03    0.719E-02
RMM:   6    -0.232372181472E+04    0.64608E-04   -0.13420E-04  3274   0.719E-03    0.333E-02
RMM:   7    -0.232372180850E+04    0.62202E-05   -0.48899E-05  3033   0.562E-03
   8 F= -.23446517E+04 E0= -.23446517E+04  d E =-.827126E-02  mag=     6.0000
       N       E                     dE             d eps       ncg     rms          rms(c)
DAV:   1    -0.232358734578E+04    0.13447E+00   -0.54826E+00  4496   0.188E+00    0.853E-01
RMM:   2    -0.232372782968E+04   -0.14048E+00   -0.14734E+00  6488   0.526E-01    0.712E-01
RMM:   3    -0.232374032827E+04   -0.12499E-01   -0.16065E-01  5969   0.190E-01    0.589E-01
RMM:   4    -0.232373823249E+04    0.20958E-02   -0.13355E-02  5545   0.412E-02    0.248E-01
RMM:   5    -0.232373782337E+04    0.40913E-03   -0.17893E-03  4819   0.191E-02    0.205E-01
RMM:   6    -0.232373739020E+04    0.43317E-03   -0.10827E-03  5117   0.167E-02    0.118E-01
RMM:   7    -0.232373727435E+04    0.11585E-03   -0.36116E-04  4334   0.114E-02    0.455E-02
RMM:   8    -0.232373726493E+04    0.94179E-05   -0.57709E-05  2994   0.728E-03
   9 F= -.23446668E+04 E0= -.23446668E+04  d E =-.233789E-01  mag=     6.0000
       N       E                     dE             d eps       ncg     rms          rms(c)
DAV:   1    -0.232312224118E+04    0.61503E+00   -0.21991E+01  4476   0.377E+00    0.170E+00
RMM:   2    -0.232367875814E+04   -0.55652E+00   -0.58656E+00  6498   0.104E+00    0.129E+00
RMM:   3    -0.232373764754E+04   -0.58889E-01   -0.70171E-01  5905   0.406E-01    0.116E+00
RMM:   4    -0.232372902688E+04    0.86207E-02   -0.55084E-02  6011   0.841E-02    0.488E-01
RMM:   5    -0.232372680677E+04    0.22201E-02   -0.64931E-03  5281   0.364E-02    0.352E-01
RMM:   6    -0.232372627615E+04    0.53062E-03   -0.43552E-03  5697   0.312E-02    0.319E-01
RMM:   7    -0.232372527572E+04    0.10004E-02   -0.19017E-03  5144   0.229E-02    0.120E-01
RMM:   8    -0.232372518931E+04    0.86412E-04   -0.43939E-04  4307   0.138E-02    0.466E-02
RMM:   9    -0.232372517317E+04    0.16137E-04   -0.75741E-05  3071   0.678E-03    0.172E-02
RMM:  10    -0.232372517091E+04    0.22572E-05   -0.29533E-05  2947   0.453E-03
  10 F= -.23446535E+04 E0= -.23446535E+04  d E =-.100578E-01  mag=     6.0000
       N       E                     dE             d eps       ncg     rms          rms(c)
DAV:   1    -0.232342418026E+04    0.30099E+00   -0.11582E+01  4492   0.270E+00    0.127E+00
RMM:   2    -0.232372900346E+04   -0.30482E+00   -0.31474E+00  6485   0.796E-01    0.129E+00
RMM:   3    -0.232374415261E+04   -0.15149E-01   -0.34805E-01  5869   0.295E-01    0.732E-01
RMM:   4    -0.232374247621E+04    0.16764E-02   -0.30828E-02  5811   0.603E-02    0.434E-01
RMM:   5    -0.232374112726E+04    0.13490E-02   -0.33645E-03  5115   0.260E-02    0.318E-01
RMM:   6    -0.232373973783E+04    0.13894E-02   -0.31227E-03  5357   0.279E-02    0.147E-01
RMM:   7    -0.232373961569E+04    0.12214E-03   -0.12021E-03  4761   0.198E-02    0.458E-02
RMM:   8    -0.232373959362E+04    0.22066E-04   -0.90952E-05  3199   0.816E-03    0.241E-02
RMM:   9    -0.232373958565E+04    0.79757E-05   -0.39689E-05  2980   0.508E-03
  11 F= -.23446689E+04 E0= -.23446689E+04  d E =-.254320E-01  mag=     6.0000
       N       E                     dE             d eps       ncg     rms          rms(c)
DAV:   1    -0.232372780093E+04    0.11793E-01   -0.97130E-01  4560   0.783E-01    0.344E-01
RMM:   2    -0.232374879311E+04   -0.20992E-01   -0.22183E-01  6435   0.211E-01    0.270E-01
RMM:   3    -0.232375085006E+04   -0.20570E-02   -0.25810E-02  5644   0.784E-02    0.227E-01
RMM:   4    -0.232375055227E+04    0.29780E-03   -0.21609E-03  3824   0.166E-02    0.101E-01
RMM:   5    -0.232375048533E+04    0.66938E-04   -0.27924E-04  3257   0.857E-03    0.795E-02
RMM:   6    -0.232375041265E+04    0.72678E-04   -0.19981E-04  3711   0.867E-03    0.430E-02
RMM:   7    -0.232375039780E+04    0.14846E-04   -0.65192E-05  3125   0.630E-03    0.137E-02
RMM:   8    -0.232375039617E+04    0.16388E-05   -0.91105E-06  2907   0.406E-03
  12 F= -.23446791E+04 E0= -.23446791E+04  d E =-.102329E-01  mag=     6.0000
       N       E                     dE             d eps       ncg     rms          rms(c)
DAV:   1    -0.232356385693E+04    0.18654E+00   -0.87499E+00  4528   0.235E+00    0.103E+00
RMM:   2    -0.232375331829E+04   -0.18946E+00   -0.20151E+00  6443   0.632E-01    0.721E-01
RMM:   3    -0.232377383725E+04   -0.20519E-01   -0.23438E-01  5978   0.235E-01    0.711E-01
RMM:   4    -0.232377052773E+04    0.33095E-02   -0.19271E-02  5821   0.500E-02    0.299E-01
RMM:   5    -0.232376985624E+04    0.67149E-03   -0.25984E-03  5030   0.232E-02    0.217E-01
RMM:   6    -0.232376953945E+04    0.31678E-03   -0.16697E-03  5426   0.204E-02    0.172E-01
RMM:   7    -0.232376924997E+04    0.28949E-03   -0.68805E-04  4635   0.146E-02    0.464E-02
RMM:   8    -0.232376923021E+04    0.19760E-04   -0.90198E-05  3070   0.824E-03    0.220E-02
RMM:   9    -0.232376922370E+04    0.65092E-05   -0.26766E-05  2948   0.459E-03
  13 F= -.23446960E+04 E0= -.23446960E+04  d E =-.271749E-01  mag=     6.0000
       N       E                     dE             d eps       ncg     rms          rms(c)
DAV:   1    -0.232374736200E+04    0.21868E-01   -0.10259E+00  4656   0.806E-01    0.354E-01
RMM:   2    -0.232376945649E+04   -0.22094E-01   -0.23341E-01  6419   0.218E-01    0.277E-01
RMM:   3    -0.232377154482E+04   -0.20883E-02   -0.26391E-02  5696   0.817E-02    0.231E-01
RMM:   4    -0.232377124761E+04    0.29720E-03   -0.22602E-03  3881   0.171E-02    0.106E-01
RMM:   5    -0.232377117832E+04    0.69292E-04   -0.30095E-04  3274   0.887E-03    0.839E-02
RMM:   6    -0.232377109623E+04    0.82093E-04   -0.21494E-04  3790   0.894E-03    0.450E-02
RMM:   7    -0.232377108082E+04    0.15403E-04   -0.75235E-05  3202   0.653E-03    0.163E-02
RMM:   8    -0.232377107853E+04    0.22940E-05   -0.10778E-05  2909   0.425E-03
  14 F= -.23446972E+04 E0= -.23446972E+04  d E =-.283340E-01  mag=     6.0000
       N       E                     dE             d eps       ncg     rms          rms(c)
DAV:   1    -0.232373537629E+04    0.35705E-01   -0.24124E+00  4528   0.114E+00    0.513E-01
RMM:   2    -0.232378396205E+04   -0.48586E-01   -0.51884E-01  6450   0.310E-01    0.360E-01
RMM:   3    -0.232378950654E+04   -0.55445E-02   -0.63462E-02  5779   0.126E-01    0.313E-01
RMM:   4    -0.232378907571E+04    0.43083E-03   -0.50794E-03  4366   0.242E-02    0.153E-01
RMM:   5    -0.232378891596E+04    0.15974E-03   -0.55919E-04  3734   0.114E-02    0.115E-01
RMM:   6    -0.232378884172E+04    0.74249E-04   -0.41212E-04  3931   0.108E-02    0.875E-02
RMM:   7    -0.232378878641E+04    0.55310E-04   -0.16096E-04  3188   0.799E-03    0.265E-02
RMM:   8    -0.232378878201E+04    0.43931E-05   -0.19527E-05  2937   0.483E-03
  15 F= -.23447135E+04 E0= -.23447135E+04  d E =-.162993E-01  mag=     6.0000
       N       E                     dE             d eps       ncg     rms          rms(c)
DAV:   1    -0.232332821484E+04    0.46057E+00   -0.21694E+01  4488   0.343E+00    0.153E+00
RMM:   2    -0.232377357479E+04   -0.44536E+00   -0.47811E+00  6497   0.941E-01    0.937E-01
RMM:   3    -0.232382546849E+04   -0.51894E-01   -0.57073E-01  5898   0.368E-01    0.939E-01
RMM:   4    -0.232382100535E+04    0.44631E-02   -0.45007E-02  5974   0.721E-02    0.479E-01
RMM:   5    -0.232381925033E+04    0.17550E-02   -0.46212E-03  5221   0.306E-02    0.325E-01
RMM:   6    -0.232381910462E+04    0.14570E-03   -0.38991E-03  5604   0.285E-02    0.320E-01
RMM:   7    -0.232381818204E+04    0.92258E-03   -0.20874E-03  5145   0.217E-02    0.840E-02
RMM:   8    -0.232381813264E+04    0.49400E-04   -0.23561E-04  3274   0.110E-02    0.367E-02
RMM:   9    -0.232381812153E+04    0.11116E-04   -0.69727E-05  3029   0.579E-03    0.146E-02
RMM:  10    -0.232381812348E+04   -0.19513E-05   -0.19452E-05  2945   0.411E-03
  16 F= -.23447383E+04 E0= -.23447383E+04  d E =-.411256E-01  mag=     6.0000
       N       E                     dE             d eps       ncg     rms          rms(c)
DAV:   1    -0.232376205421E+04    0.56067E-01   -0.41246E+00  4512   0.160E+00    0.668E-01
RMM:   2    -0.232383207532E+04   -0.70021E-01   -0.74898E-01  6233   0.407E-01    0.426E-01
RMM:   3    -0.232383895515E+04   -0.68798E-02   -0.82648E-02  5781   0.149E-01    0.400E-01
RMM:   4    -0.232383801373E+04    0.94142E-03   -0.67161E-03  5595   0.326E-02    0.194E-01
RMM:   5    -0.232383769854E+04    0.31519E-03   -0.11931E-03  4965   0.188E-02    0.149E-01
RMM:   6    -0.232383758506E+04    0.11348E-03   -0.67133E-04  4761   0.148E-02    0.111E-01
RMM:   7    -0.232383749757E+04    0.87489E-04   -0.21012E-04  3957   0.970E-03    0.273E-02
RMM:   8    -0.232383749474E+04    0.28358E-05   -0.28726E-05  2945   0.569E-03
  17 F= -.23447565E+04 E0= -.23447565E+04  d E =-.181922E-01  mag=     6.0000
       N       E                     dE             d eps       ncg     rms          rms(c)
DAV:   1    -0.232379660712E+04    0.40890E-01   -0.25060E+00  4512   0.125E+00    0.523E-01
RMM:   2    -0.232383949182E+04   -0.42885E-01   -0.45852E-01  6232   0.322E-01    0.342E-01
RMM:   3    -0.232384359021E+04   -0.40984E-02   -0.50091E-02  5743   0.119E-01    0.316E-01
RMM:   4    -0.232384298627E+04    0.60394E-03   -0.41404E-03  5280   0.258E-02    0.151E-01
RMM:   5    -0.232384280464E+04    0.18163E-03   -0.75045E-04  4693   0.153E-02    0.121E-01
RMM:   6    -0.232384271443E+04    0.90213E-04   -0.42500E-04  4389   0.122E-02    0.843E-02
RMM:   7    -0.232384266692E+04    0.47506E-04   -0.12194E-04  3438   0.813E-03    0.221E-02
RMM:   8    -0.232384266459E+04    0.23338E-05   -0.19893E-05  2928   0.509E-03
  18 F= -.23447607E+04 E0= -.23447607E+04  d E =-.224000E-01  mag=     6.0000
       N       E                     dE             d eps       ncg     rms          rms(c)
DAV:   1    -0.232375964651E+04    0.83020E-01   -0.51881E+00  4492   0.160E+00    0.688E-01
RMM:   2    -0.232385179414E+04   -0.92148E-01   -0.97866E-01  6465   0.429E-01    0.488E-01
RMM:   3    -0.232385944702E+04   -0.76529E-02   -0.96287E-02  5865   0.148E-01    0.434E-01
RMM:   4    -0.232385839030E+04    0.10567E-02   -0.80733E-03  5243   0.330E-02    0.202E-01
RMM:   5    -0.232385803257E+04    0.35772E-03   -0.12418E-03  4702   0.165E-02    0.162E-01
RMM:   6    -0.232385789586E+04    0.13671E-03   -0.72892E-04  4265   0.137E-02    0.120E-01
RMM:   7    -0.232385779977E+04    0.96087E-04   -0.21998E-04  3462   0.904E-03    0.325E-02
RMM:   8    -0.232385779794E+04    0.18344E-05   -0.33770E-05  2962   0.568E-03
  19 F= -.23447745E+04 E0= -.23447745E+04  d E =-.137557E-01  mag=     6.0000
       N       E                     dE             d eps       ncg     rms          rms(c)
DAV:   1    -0.232375172640E+04    0.10607E+00   -0.58803E+00  4492   0.170E+00    0.736E-01
RMM:   2    -0.232385718131E+04   -0.10545E+00   -0.11221E+00  6444   0.460E-01    0.516E-01
RMM:   3    -0.232386585654E+04   -0.86752E-02   -0.10962E-01  5876   0.155E-01    0.460E-01
RMM:   4    -0.232386465010E+04    0.12064E-02   -0.91288E-03  5332   0.350E-02    0.215E-01
RMM:   5    -0.232386421504E+04    0.43506E-03   -0.14035E-03  4806   0.174E-02    0.168E-01
RMM:   6    -0.232386408364E+04    0.13140E-03   -0.82121E-04  4400   0.144E-02    0.130E-01
RMM:   7    -0.232386396488E+04    0.11876E-03   -0.25778E-04  3626   0.952E-03    0.346E-02
RMM:   8    -0.232386396280E+04    0.20865E-05   -0.39010E-05  2967   0.583E-03
  20 F= -.23447791E+04 E0= -.23447791E+04  d E =-.184041E-01  mag=     6.0000
       N       E                     dE             d eps       ncg     rms          rms(c)
DAV:   1    -0.232375946813E+04    0.10450E+00   -0.72281E+00  4488   0.198E+00    0.806E-01
RMM:   2    -0.232387675682E+04   -0.11729E+00   -0.12378E+00  6349   0.520E-01    0.544E-01
RMM:   3    -0.232388585859E+04   -0.91018E-02   -0.11794E-01  5908   0.173E-01    0.475E-01
RMM:   4    -0.232388453263E+04    0.13260E-02   -0.10060E-02  5612   0.394E-02    0.240E-01
RMM:   5    -0.232388417153E+04    0.36110E-03   -0.18499E-03  5030   0.210E-02    0.203E-01
RMM:   6    -0.232388390774E+04    0.26379E-03   -0.10989E-03  5097   0.166E-02    0.138E-01
RMM:   7    -0.232388377462E+04    0.13312E-03   -0.28231E-04  3935   0.106E-02    0.432E-02
RMM:   8    -0.232388376186E+04    0.12767E-04   -0.46004E-05  2971   0.646E-03    0.170E-02
RMM:   9    -0.232388375929E+04    0.25705E-05   -0.13643E-05  2917   0.360E-03
  21 F= -.23447970E+04 E0= -.23447970E+04  d E =-.178928E-01  mag=     6.0000
       N       E                     dE             d eps       ncg     rms          rms(c)
DAV:   1    -0.232372037573E+04    0.16339E+00   -0.10063E+01  4488   0.233E+00    0.949E-01
RMM:   2    -0.232388388334E+04   -0.16351E+00   -0.17248E+00  6352   0.604E-01    0.642E-01
RMM:   3    -0.232389659168E+04   -0.12708E-01   -0.16180E-01  5936   0.204E-01    0.577E-01
RMM:   4    -0.232389453691E+04    0.20548E-02   -0.14095E-02  5819   0.469E-02    0.284E-01
RMM:   5    -0.232389401016E+04    0.52675E-03   -0.26153E-03  5183   0.245E-02    0.238E-01
RMM:   6    -0.232389367988E+04    0.33028E-03   -0.15348E-03  5304   0.191E-02    0.174E-01
RMM:   7    -0.232389344823E+04    0.23165E-03   -0.45465E-04  4420   0.127E-02    0.505E-02
RMM:   8    -0.232389342975E+04    0.18476E-04   -0.74952E-05  3012   0.757E-03    0.229E-02
RMM:   9    -0.232389342394E+04    0.58154E-05   -0.20386E-05  2938   0.415E-03
  22 F= -.23448043E+04 E0= -.23448043E+04  d E =-.252230E-01  mag=     6.0000
       N       E                     dE             d eps       ncg     rms          rms(c)
DAV:   1    -0.232379628095E+04    0.97149E-01   -0.74678E+00  4488   0.205E+00    0.812E-01
RMM:   2    -0.232390562134E+04   -0.10934E+00   -0.11507E+00  6315   0.516E-01    0.585E-01
RMM:   3    -0.232391382558E+04   -0.82042E-02   -0.11440E-01  5892   0.182E-01    0.478E-01
RMM:   4    -0.232391246822E+04    0.13574E-02   -0.10068E-02  5734   0.407E-02    0.245E-01
RMM:   5    -0.232391215191E+04    0.31631E-03   -0.18351E-03  5126   0.214E-02    0.226E-01
RMM:   6    -0.232391173271E+04    0.41919E-03   -0.12387E-03  5282   0.174E-02    0.129E-01
RMM:   7    -0.232391162528E+04    0.10743E-03   -0.34193E-04  4311   0.116E-02    0.520E-02
RMM:   8    -0.232391160300E+04    0.22283E-04   -0.56639E-05  2968   0.695E-03    0.198E-02
RMM:   9    -0.232391159877E+04    0.42296E-05   -0.18241E-05  2939   0.380E-03
  23 F= -.23448208E+04 E0= -.23448208E+04  d E =-.164219E-01  mag=     6.0000
       N       E                     dE             d eps       ncg     rms          rms(c)
DAV:   1    -0.232385121067E+04    0.60392E-01   -0.42586E+00  4492   0.154E+00    0.611E-01
RMM:   2    -0.232391320494E+04   -0.61994E-01   -0.65157E-01  6291   0.388E-01    0.441E-01
RMM:   3    -0.232391783800E+04   -0.46331E-02   -0.64809E-02  5842   0.139E-01    0.352E-01
RMM:   4    -0.232391712299E+04    0.71501E-03   -0.58089E-03  5392   0.306E-02    0.186E-01
RMM:   5    -0.232391696402E+04    0.15897E-03   -0.10475E-03  4720   0.162E-02    0.178E-01
RMM:   6    -0.232391667953E+04    0.28450E-03   -0.72466E-04  4991   0.138E-02    0.900E-02
RMM:   7    -0.232391663241E+04    0.47118E-04   -0.18410E-04  3778   0.914E-03    0.389E-02
RMM:   8    -0.232391661955E+04    0.12859E-04   -0.32559E-05  2936   0.567E-03    0.145E-02
RMM:   9    -0.232391661702E+04    0.25245E-05   -0.10981E-05  2919   0.323E-03
  24 F= -.23448244E+04 E0= -.23448244E+04  d E =-.200651E-01  mag=     6.0000
       N       E                     dE             d eps       ncg     rms          rms(c)
DAV:   1    -0.232386607664E+04    0.50543E-01   -0.51920E+00  4488   0.157E+00    0.624E-01
RMM:   2    -0.232392955364E+04   -0.63477E-01   -0.65643E-01  6315   0.378E-01    0.535E-01
RMM:   3    -0.232393314009E+04   -0.35864E-02   -0.63673E-02  5850   0.130E-01    0.363E-01
RMM:   4    -0.232393258659E+04    0.55349E-03   -0.61686E-03  5348   0.301E-02    0.198E-01
RMM:   5    -0.232393247740E+04    0.10919E-03   -0.10133E-03  4552   0.165E-02    0.191E-01
RMM:   6    -0.232393213077E+04    0.34663E-03   -0.70686E-04  4907   0.144E-02    0.759E-02
RMM:   7    -0.232393211722E+04    0.13546E-04   -0.16764E-04  3505   0.911E-03    0.422E-02
RMM:   8    -0.232393210649E+04    0.10728E-04   -0.40391E-05  2956   0.570E-03    0.179E-02
RMM:   9    -0.232393210396E+04    0.25368E-05   -0.11169E-05  2901   0.354E-03
  25 F= -.23448390E+04 E0= -.23448390E+04  d E =-.145703E-01  mag=     6.0000
       N       E                     dE             d eps       ncg     rms          rms(c)
DAV:   1    -0.232383437553E+04    0.97731E-01   -0.83527E+00  4488   0.199E+00    0.791E-01
RMM:   2    -0.232393637927E+04   -0.10200E+00   -0.10533E+00  6340   0.483E-01    0.694E-01
RMM:   3    -0.232394199084E+04   -0.56116E-02   -0.10297E-01  5920   0.165E-01    0.458E-01
RMM:   4    -0.232394111414E+04    0.87670E-03   -0.98925E-03  5586   0.383E-02    0.246E-01
RMM:   5    -0.232394092560E+04    0.18854E-03   -0.16723E-03  4989   0.210E-02    0.239E-01
RMM:   6    -0.232394039423E+04    0.53137E-03   -0.11420E-03  5200   0.177E-02    0.101E-01
RMM:   7    -0.232394035936E+04    0.34874E-04   -0.26951E-04  4041   0.109E-02    0.532E-02
RMM:   8    -0.232394034263E+04    0.16724E-04   -0.62720E-05  2983   0.656E-03    0.238E-02
RMM:   9    -0.232394033855E+04    0.40822E-05   -0.17653E-05  2909   0.416E-03
  26 F= -.23448460E+04 E0= -.23448460E+04  d E =-.216123E-01  mag=     6.0000
       N       E                     dE             d eps       ncg     rms          rms(c)
DAV:   1    -0.232387411138E+04    0.66231E-01   -0.57766E+00  4488   0.166E+00    0.678E-01
RMM:   2    -0.232395066241E+04   -0.76551E-01   -0.79686E-01  6299   0.406E-01    0.533E-01
RMM:   3    -0.232395625312E+04   -0.55907E-02   -0.82023E-02  5830   0.145E-01    0.364E-01
RMM:   4    -0.232395583131E+04    0.42182E-03   -0.78090E-03  5374   0.322E-02    0.207E-01
RMM:   5    -0.232395559050E+04    0.24081E-03   -0.10703E-03  4681   0.168E-02    0.177E-01
RMM:   6    -0.232395532828E+04    0.26221E-03   -0.75284E-04  4878   0.143E-02    0.101E-01
RMM:   7    -0.232395527610E+04    0.52179E-04   -0.24766E-04  3979   0.101E-02    0.539E-02
RMM:   8    -0.232395525454E+04    0.21567E-04   -0.56003E-05  2961   0.637E-03    0.224E-02
RMM:   9    -0.232395524917E+04    0.53630E-05   -0.14476E-05  2890   0.384E-03
  27 F= -.23448601E+04 E0= -.23448601E+04  d E =-.140725E-01  mag=     6.0000
       N       E                     dE             d eps       ncg     rms          rms(c)
DAV:   1    -0.232390527242E+04    0.49982E-01   -0.39010E+00  4492   0.136E+00    0.555E-01
RMM:   2    -0.232395672942E+04   -0.51457E-01   -0.53654E-01  6286   0.336E-01    0.421E-01
RMM:   3    -0.232396060990E+04   -0.38805E-02   -0.55188E-02  5784   0.119E-01    0.290E-01
RMM:   4    -0.232396035480E+04    0.25510E-03   -0.52725E-03  5056   0.264E-02    0.168E-01
RMM:   5    -0.232396018309E+04    0.17171E-03   -0.72247E-04  4326   0.141E-02    0.143E-01
RMM:   6    -0.232396002412E+04    0.15897E-03   -0.50670E-04  4511   0.121E-02    0.860E-02
RMM:   7    -0.232395998090E+04    0.43218E-04   -0.16845E-04  3556   0.872E-03    0.433E-02
RMM:   8    -0.232395996572E+04    0.15181E-04   -0.38193E-05  2932   0.580E-03    0.175E-02
RMM:   9    -0.232395996174E+04    0.39789E-05   -0.11382E-05  2888   0.345E-03
  28 F= -.23448641E+04 E0= -.23448641E+04  d E =-.180952E-01  mag=     6.0000
       N       E                     dE             d eps       ncg     rms          rms(c)
DAV:   1    -0.232389418582E+04    0.65780E-01   -0.46120E+00  4488   0.148E+00    0.624E-01
RMM:   2    -0.232396659812E+04   -0.72412E-01   -0.75777E-01  6377   0.382E-01    0.475E-01
RMM:   3    -0.232397309997E+04   -0.65018E-02   -0.82784E-02  5845   0.144E-01    0.325E-01
RMM:   4    -0.232397288450E+04    0.21547E-03   -0.76588E-03  5224   0.304E-02    0.193E-01
RMM:   5    -0.232397257911E+04    0.30538E-03   -0.83787E-04  4358   0.152E-02    0.138E-01
RMM:   6    -0.232397252517E+04    0.53945E-04   -0.66232E-04  4591   0.133E-02    0.128E-01
RMM:   7    -0.232397240449E+04    0.12068E-03   -0.26831E-04  3763   0.101E-02    0.551E-02
RMM:   8    -0.232397238153E+04    0.22962E-04   -0.63793E-05  2981   0.631E-03    0.203E-02
RMM:   9    -0.232397237750E+04    0.40305E-05   -0.13558E-05  2894   0.378E-03
  29 F= -.23448753E+04 E0= -.23448753E+04  d E =-.112077E-01  mag=     6.0000
       N       E                     dE             d eps       ncg     rms          rms(c)
DAV:   1    -0.232390616457E+04    0.66217E-01   -0.42026E+00  4488   0.141E+00    0.595E-01
RMM:   2    -0.232397197962E+04   -0.65815E-01   -0.68883E-01  6379   0.363E-01    0.450E-01
RMM:   3    -0.232397797112E+04   -0.59915E-02   -0.75780E-02  5842   0.138E-01    0.307E-01
RMM:   4    -0.232397779655E+04    0.17457E-03   -0.69981E-03  5138   0.289E-02    0.183E-01
RMM:   5    -0.232397751330E+04    0.28325E-03   -0.74335E-04  4278   0.145E-02    0.129E-01
RMM:   6    -0.232397747665E+04    0.36651E-04   -0.60680E-04  4501   0.128E-02    0.125E-01
RMM:   7    -0.232397736157E+04    0.11508E-03   -0.24396E-04  3637   0.977E-03    0.528E-02
RMM:   8    -0.232397734022E+04    0.21345E-04   -0.60037E-05  2973   0.613E-03    0.193E-02
RMM:   9    -0.232397733654E+04    0.36789E-05   -0.12837E-05  2889   0.375E-03
  30 F= -.23448791E+04 E0= -.23448791E+04  d E =-.150159E-01  mag=     6.0000
       N       E                     dE             d eps       ncg     rms          rms(c)
DAV:   1    -0.232386269711E+04    0.11464E+00   -0.71580E+00  4472   0.190E+00    0.801E-01
RMM:   2    -0.232398060230E+04   -0.11791E+00   -0.12359E+00  6386   0.487E-01    0.611E-01
RMM:   3    -0.232399089879E+04   -0.10296E-01   -0.12491E-01  5944   0.176E-01    0.474E-01
RMM:   4    -0.232399000267E+04    0.89612E-03   -0.11725E-02  5622   0.382E-02    0.243E-01
RMM:   5    -0.232398947966E+04    0.52301E-03   -0.12791E-03  4705   0.179E-02    0.159E-01
RMM:   6    -0.232398940925E+04    0.70415E-04   -0.10478E-03  5151   0.164E-02    0.156E-01
RMM:   7    -0.232398920758E+04    0.20166E-03   -0.44519E-04  4124   0.125E-02    0.635E-02
RMM:   8    -0.232398917743E+04    0.30154E-04   -0.84780E-05  3012   0.646E-03    0.220E-02
RMM:   9    -0.232398917257E+04    0.48608E-05   -0.17175E-05  2891   0.427E-03
  31 F= -.23448891E+04 E0= -.23448891E+04  d E =-.100111E-01  mag=     6.0000
       N       E                     dE             d eps       ncg     rms          rms(c)
DAV:   1    -0.232396603028E+04    0.23147E-01   -0.14328E+00  4544   0.848E-01    0.356E-01
RMM:   2    -0.232398945284E+04   -0.23423E-01   -0.24581E-01  6372   0.218E-01    0.257E-01
RMM:   3    -0.232399153710E+04   -0.20843E-02   -0.24329E-02  5659   0.785E-02    0.205E-01
RMM:   4    -0.232399138146E+04    0.15565E-03   -0.23695E-03  3731   0.171E-02    0.108E-01
RMM:   5    -0.232399127966E+04    0.10180E-03   -0.24567E-04  3224   0.907E-03    0.739E-02
RMM:   6    -0.232399125498E+04    0.24679E-04   -0.21542E-04  3596   0.871E-03    0.677E-02
RMM:   7    -0.232399121930E+04    0.35680E-04   -0.94488E-05  3104   0.714E-03    0.292E-02
RMM:   8    -0.232399121293E+04    0.63696E-05   -0.17963E-05  2916   0.456E-03
  32 F= -.23448904E+04 E0= -.23448904E+04  d E =-.112334E-01  mag=     6.0000
       N       E                     dE             d eps       ncg     rms          rms(c)
DAV:   1    -0.232391322178E+04    0.77998E-01   -0.52351E+00  4488   0.163E+00    0.683E-01
RMM:   2    -0.232399623714E+04   -0.83015E-01   -0.86856E-01  6367   0.411E-01    0.563E-01
RMM:   3    -0.232400321776E+04   -0.69806E-02   -0.87159E-02  5986   0.148E-01    0.457E-01
RMM:   4    -0.232400223886E+04    0.97890E-03   -0.89628E-03  5581   0.341E-02    0.202E-01
RMM:   5    -0.232400185451E+04    0.38435E-03   -0.89490E-04  4592   0.166E-02    0.136E-01
RMM:   6    -0.232400179160E+04    0.62902E-04   -0.83222E-04  5100   0.156E-02    0.130E-01
RMM:   7    -0.232400163298E+04    0.15863E-03   -0.32609E-04  3935   0.114E-02    0.488E-02
RMM:   8    -0.232400161433E+04    0.18649E-04   -0.52918E-05  2968   0.586E-03    0.173E-02
RMM:   9    -0.232400161019E+04    0.41369E-05   -0.14066E-05  2885   0.400E-03
  33 F= -.23448992E+04 E0= -.23448992E+04  d E =-.882149E-02  mag=     6.0000
       N       E                     dE             d eps       ncg     rms          rms(c)
DAV:   1    -0.232398698991E+04    0.14624E-01   -0.96428E-01  4544   0.698E-01    0.291E-01
RMM:   2    -0.232400219308E+04   -0.15203E-01   -0.15916E-01  6341   0.176E-01    0.231E-01
RMM:   3    -0.232400350118E+04   -0.13081E-02   -0.15628E-02  5621   0.639E-02    0.195E-01
RMM:   4    -0.232400332454E+04    0.17664E-03   -0.16527E-03  3495   0.148E-02    0.858E-02
RMM:   5    -0.232400325201E+04    0.72524E-04   -0.16682E-04  3112   0.810E-03    0.592E-02
RMM:   6    -0.232400323742E+04    0.14592E-04   -0.15857E-04  3385   0.818E-03    0.562E-02
RMM:   7    -0.232400320869E+04    0.28727E-04   -0.63997E-05  2999   0.666E-03    0.227E-02
RMM:   8    -0.232400320478E+04    0.39167E-05   -0.12883E-05  2908   0.416E-03
  34 F= -.23449001E+04 E0= -.23449001E+04  d E =-.973797E-02  mag=     6.0000
       N       E                     dE             d eps       ncg     rms          rms(c)
DAV:   1    -0.232393815247E+04    0.65056E-01   -0.46547E+00  4488   0.156E+00    0.647E-01
RMM:   2    -0.232400791094E+04   -0.69758E-01   -0.72180E-01  6278   0.375E-01    0.600E-01
RMM:   3    -0.232401308662E+04   -0.51757E-02   -0.74528E-02  5949   0.139E-01    0.457E-01
RMM:   4    -0.232401204201E+04    0.10446E-02   -0.77899E-03  5483   0.320E-02    0.171E-01
RMM:   5    -0.232401172216E+04    0.31985E-03   -0.69324E-04  4504   0.149E-02    0.115E-01
RMM:   6    -0.232401170021E+04    0.21948E-04   -0.66161E-04  4905   0.142E-02    0.118E-01
RMM:   7    -0.232401156588E+04    0.13433E-03   -0.24657E-04  3686   0.106E-02    0.407E-02
RMM:   8    -0.232401155558E+04    0.10303E-04   -0.43966E-05  2957   0.527E-03    0.153E-02
RMM:   9    -0.232401155271E+04    0.28720E-05   -0.10474E-05  2881   0.352E-03
  35 F= -.23449075E+04 E0= -.23449075E+04  d E =-.744246E-02  mag=     6.0000
       N       E                     dE             d eps       ncg     rms          rms(c)
DAV:   1    -0.232400115298E+04    0.10403E-01   -0.73122E-01  4592   0.618E-01    0.255E-01
RMM:   2    -0.232401203410E+04   -0.10881E-01   -0.11282E-01  6275   0.148E-01    0.224E-01
RMM:   3    -0.232401288311E+04   -0.84902E-03   -0.11132E-02  5561   0.542E-02    0.185E-01
RMM:   4    -0.232401269972E+04    0.18339E-03   -0.12068E-03  3368   0.130E-02    0.673E-02
RMM:   5    -0.232401264818E+04    0.51533E-04   -0.10951E-04  3042   0.686E-03    0.444E-02
RMM:   6    -0.232401264680E+04    0.13866E-05   -0.10823E-04  3160   0.712E-03    0.474E-02
RMM:   7    -0.232401262541E+04    0.21388E-04   -0.42506E-05  2958   0.601E-03    0.157E-02
RMM:   8    -0.232401262408E+04    0.13285E-05   -0.92945E-06  2890   0.330E-03
  36 F= -.23449083E+04 E0= -.23449083E+04  d E =-.815459E-02  mag=     6.0000
       N       E                     dE             d eps       ncg     rms          rms(c)
DAV:   1    -0.232394929999E+04    0.63325E-01   -0.44239E+00  4488   0.151E+00    0.614E-01
RMM:   2    -0.232401571077E+04   -0.66411E-01   -0.68994E-01  6277   0.364E-01    0.542E-01
RMM:   3    -0.232402077645E+04   -0.50657E-02   -0.70239E-02  5927   0.133E-01    0.414E-01
RMM:   4    -0.232401999278E+04    0.78367E-03   -0.71999E-03  5386   0.305E-02    0.171E-01
RMM:   5    -0.232401963446E+04    0.35832E-03   -0.64518E-04  4317   0.144E-02    0.105E-01
RMM:   6    -0.232401956640E+04    0.68064E-04   -0.57340E-04  4793   0.137E-02    0.908E-02
RMM:   7    -0.232401951344E+04    0.52953E-04   -0.16926E-04  3163   0.994E-03    0.434E-02
RMM:   8    -0.232401949785E+04    0.15597E-04   -0.37930E-05  2937   0.469E-03    0.163E-02
RMM:   9    -0.232401949548E+04    0.23700E-05   -0.92899E-06  2883   0.307E-03
  37 F= -.23449149E+04 E0= -.23449149E+04  d E =-.662261E-02  mag=     6.0000
       N       E                     dE             d eps       ncg     rms          rms(c)
DAV:   1    -0.232401411217E+04    0.53857E-02   -0.37075E-01  4592   0.438E-01    0.176E-01
RMM:   2    -0.232401961920E+04   -0.55070E-02   -0.57367E-02  6263   0.105E-01    0.144E-01
RMM:   3    -0.232402006833E+04   -0.44913E-03   -0.55709E-03  4607   0.382E-02    0.123E-01
RMM:   4    -0.232401999414E+04    0.74190E-04   -0.60015E-04  3135   0.961E-03    0.494E-02
RMM:   5    -0.232401996407E+04    0.30069E-04   -0.54108E-05  2969   0.517E-03    0.299E-02
RMM:   6    -0.232401995924E+04    0.48293E-05   -0.52767E-05  3031   0.511E-03
  38 F= -.23449153E+04 E0= -.23449153E+04  d E =-.701359E-02  mag=     6.0000
       N       E                     dE             d eps       ncg     rms          rms(c)
DAV:   1    -0.232400326032E+04    0.16704E-01   -0.13173E+00  4492   0.919E-01    0.348E-01
RMM:   2    -0.232402190061E+04   -0.18640E-01   -0.19715E-01  6015   0.214E-01    0.213E-01
RMM:   3    -0.232402342945E+04   -0.15288E-02   -0.18393E-02  5691   0.778E-02    0.197E-01
RMM:   4    -0.232402326780E+04    0.16165E-03   -0.19744E-03  4231   0.175E-02    0.105E-01
RMM:   5    -0.232402313553E+04    0.13227E-03   -0.26086E-04  4035   0.109E-02    0.576E-02
RMM:   6    -0.232402310135E+04    0.34188E-04   -0.17810E-04  4161   0.939E-03    0.322E-02
RMM:   7    -0.232402309615E+04    0.51944E-05   -0.31980E-05  2946   0.661E-03
  39 F= -.23449181E+04 E0= -.23449181E+04  d E =-.285132E-02  mag=     6.0000
       N       E                     dE             d eps       ncg     rms          rms(c)
DAV:   1    -0.232402076130E+04    0.23400E-02   -0.16872E-01  4720   0.329E-01    0.125E-01
RMM:   2    -0.232402316041E+04   -0.23991E-02   -0.25408E-02  6129   0.774E-02    0.798E-02
RMM:   3    -0.232402335877E+04   -0.19837E-03   -0.23157E-03  4182   0.288E-02    0.796E-02
RMM:   4    -0.232402332602E+04    0.32751E-04   -0.25722E-04  3038   0.732E-03    0.362E-02
RMM:   5    -0.232402330836E+04    0.17666E-04   -0.35563E-05  2946   0.459E-03    0.197E-02
RMM:   6    -0.232402330332E+04    0.50386E-05   -0.23393E-05  2945   0.437E-03
  40 F= -.23449182E+04 E0= -.23449182E+04  d E =-.295679E-02  mag=     6.0000
       N       E                     dE             d eps       ncg     rms          rms(c)
DAV:   1    -0.232400947765E+04    0.13831E-01   -0.10285E+00  4496   0.771E-01    0.283E-01
RMM:   2    -0.232402493082E+04   -0.15453E-01   -0.16292E-01  6217   0.183E-01    0.166E-01
RMM:   3    -0.232402622267E+04   -0.12918E-02   -0.15116E-02  5529   0.672E-02    0.122E-01
RMM:   4    -0.232402623703E+04   -0.14360E-04   -0.15428E-03  3389   0.137E-02    0.972E-02
RMM:   5    -0.232402614125E+04    0.95780E-04   -0.17609E-04  3145   0.801E-03    0.548E-02
RMM:   6    -0.232402610979E+04    0.31456E-04   -0.15021E-04  3676   0.778E-03    0.227E-02
RMM:   7    -0.232402610860E+04    0.11880E-05   -0.23156E-05  2910   0.550E-03
  41 F= -.23449207E+04 E0= -.23449207E+04  d E =-.244707E-02  mag=     6.0000
       N       E                     dE             d eps       ncg     rms          rms(c)
DAV:   1    -0.232400688249E+04    0.19227E-01   -0.12610E+00  4488   0.853E-01    0.314E-01
RMM:   2    -0.232402585986E+04   -0.18977E-01   -0.20020E-01  6386   0.202E-01    0.186E-01
RMM:   3    -0.232402745246E+04   -0.15926E-02   -0.18589E-02  5651   0.708E-02    0.137E-01
RMM:   4    -0.232402746723E+04   -0.14770E-04   -0.18919E-03  3458   0.150E-02    0.108E-01
RMM:   5    -0.232402735071E+04    0.11652E-03   -0.21650E-04  3233   0.877E-03    0.621E-02
RMM:   6    -0.232402730921E+04    0.41505E-04   -0.19445E-04  3894   0.869E-03    0.253E-02
RMM:   7    -0.232402730484E+04    0.43698E-05   -0.19631E-05  2907   0.549E-03
  42 F= -.23449215E+04 E0= -.23449215E+04  d E =-.324927E-02  mag=     6.0000
       N       E                     dE             d eps       ncg     rms          rms(c)
DAV:   1    -0.232401190705E+04    0.15402E-01   -0.13505E+00  4488   0.933E-01    0.325E-01
RMM:   2    -0.232402922961E+04   -0.17323E-01   -0.18321E-01  6148   0.209E-01    0.174E-01
RMM:   3    -0.232403062495E+04   -0.13953E-02   -0.17404E-02  5649   0.786E-02    0.990E-02
RMM:   4    -0.232403063034E+04   -0.53864E-05   -0.17331E-03  4369   0.164E-02    0.807E-02
RMM:   5    -0.232403059166E+04    0.38674E-04   -0.28698E-04  3633   0.111E-02    0.728E-02
RMM:   6    -0.232403055245E+04    0.39210E-04   -0.12667E-04  3298   0.798E-03    0.422E-02
RMM:   7    -0.232403054246E+04    0.99914E-05   -0.31695E-05  2916   0.580E-03
  43 F= -.23449244E+04 E0= -.23449244E+04  d E =-.289426E-02  mag=     6.0000
       N       E                     dE             d eps       ncg     rms          rms(c)
DAV:   1    -0.232402483277E+04    0.57197E-02   -0.45686E-01  4528   0.543E-01    0.190E-01
RMM:   2    -0.232403069833E+04   -0.58656E-02   -0.62124E-02  6081   0.122E-01    0.999E-02
RMM:   3    -0.232403116922E+04   -0.47089E-03   -0.58041E-03  5098   0.454E-02    0.589E-02
RMM:   4    -0.232403118377E+04   -0.14549E-04   -0.60453E-04  3230   0.101E-02    0.627E-02
RMM:   5    -0.232403115767E+04    0.26092E-04   -0.80083E-05  2969   0.624E-03    0.428E-02
RMM:   6    -0.232403114329E+04    0.14381E-04   -0.59179E-05  3017   0.568E-03    0.165E-02
RMM:   7    -0.232403114181E+04    0.14843E-05   -0.12321E-05  2896   0.450E-03
  44 F= -.23449248E+04 E0= -.23449248E+04  d E =-.329341E-02  mag=     6.0000
       N       E                     dE             d eps       ncg     rms          rms(c)
DAV:   1    -0.232401784904E+04    0.13294E-01   -0.13899E+00  4488   0.944E-01    0.317E-01
RMM:   2    -0.232403317979E+04   -0.15331E-01   -0.16211E-01  6099   0.203E-01    0.174E-01
RMM:   3    -0.232403448164E+04   -0.13018E-02   -0.15763E-02  5610   0.750E-02    0.135E-01
RMM:   4    -0.232403448926E+04   -0.76187E-05   -0.16914E-03  3988   0.163E-02    0.119E-01
RMM:   5    -0.232403436380E+04    0.12546E-03   -0.24617E-04  3696   0.102E-02    0.610E-02
RMM:   6    -0.232403434665E+04    0.17154E-04   -0.21026E-04  3996   0.973E-03    0.474E-02
RMM:   7    -0.232403432459E+04    0.22062E-04   -0.43219E-05  2955   0.631E-03    0.147E-02
RMM:   8    -0.232403432254E+04    0.20495E-05   -0.83712E-06  2900   0.338E-03
  45 F= -.23449279E+04 E0= -.23449279E+04  d E =-.308540E-02  mag=     6.0000
       N       E                     dE             d eps       ncg     rms          rms(c)
DAV:   1    -0.232402579066E+04    0.85339E-02   -0.76165E-01  4492   0.697E-01    0.235E-01
RMM:   2    -0.232403420390E+04   -0.84132E-02   -0.88834E-02  6076   0.151E-01    0.133E-01
RMM:   3    -0.232403491936E+04   -0.71546E-03   -0.85998E-03  5432   0.528E-02    0.115E-01
RMM:   4    -0.232403489422E+04    0.25138E-04   -0.92970E-04  3331   0.122E-02    0.831E-02
RMM:   5    -0.232403482930E+04    0.64920E-04   -0.12821E-04  3206   0.776E-03    0.468E-02
RMM:   6    -0.232403481761E+04    0.11697E-04   -0.12154E-04  3216   0.802E-03    0.361E-02
RMM:   7    -0.232403480443E+04    0.13175E-04   -0.28720E-05  2926   0.577E-03    0.114E-02
RMM:   8    -0.232403480304E+04    0.13880E-05   -0.64257E-06  2868   0.334E-03
  46 F= -.23449283E+04 E0= -.23449283E+04  d E =-.349403E-02  mag=     6.0000
       N       E                     dE             d eps       ncg     rms          rms(c)
DAV:   1    -0.232402289911E+04    0.11905E-01   -0.12917E+00  4488   0.879E-01    0.289E-01
RMM:   2    -0.232403625237E+04   -0.13353E-01   -0.14057E-01  6120   0.187E-01    0.181E-01
RMM:   3    -0.232403746046E+04   -0.12081E-02   -0.13742E-02  5640   0.660E-02    0.181E-01
RMM:   4    -0.232403731711E+04    0.14335E-03   -0.14763E-03  3529   0.150E-02    0.937E-02
RMM:   5    -0.232403723680E+04    0.80316E-04   -0.20076E-04  3565   0.894E-03    0.632E-02
RMM:   6    -0.232403721641E+04    0.20392E-04   -0.19778E-04  3386   0.925E-03    0.468E-02
RMM:   7    -0.232403719620E+04    0.20204E-04   -0.40960E-05  2955   0.629E-03    0.139E-02
RMM:   8    -0.232403719491E+04    0.12914E-05   -0.72436E-06  2880   0.373E-03
  47 F= -.23449307E+04 E0= -.23449307E+04  d E =-.246855E-02  mag=     6.0000
       N       E                     dE             d eps       ncg     rms          rms(c)
DAV:   1    -0.232399925403E+04    0.37942E-01   -0.34159E+00  4488   0.143E+00    0.471E-01
RMM:   2    -0.232403455351E+04   -0.35299E-01   -0.37228E-01  6133   0.307E-01    0.284E-01
RMM:   3    -0.232403777646E+04   -0.32229E-02   -0.36822E-02  5742   0.107E-01    0.280E-01
RMM:   4    -0.232403746886E+04    0.30759E-03   -0.39243E-03  4928   0.241E-02    0.156E-01
RMM:   5    -0.232403723553E+04    0.23333E-03   -0.50237E-04  4405   0.132E-02    0.979E-02
RMM:   6    -0.232403719708E+04    0.38451E-04   -0.49608E-04  4502   0.134E-02    0.778E-02
RMM:   7    -0.232403713737E+04    0.59715E-04   -0.10468E-04  3221   0.799E-03    0.225E-02
RMM:   8    -0.232403713334E+04    0.40294E-05   -0.15322E-05  2913   0.458E-03
  48 F= -.23449308E+04 E0= -.23449308E+04  d E =-.252895E-02  mag=     6.0000
       N       E                     dE             d eps       ncg     rms          rms(c)
DAV:   1    -0.232402949724E+04    0.76401E-02   -0.75139E-01  4496   0.671E-01    0.220E-01
RMM:   2    -0.232403726412E+04   -0.77669E-02   -0.81633E-02  6134   0.143E-01    0.146E-01
RMM:   3    -0.232403793508E+04   -0.67096E-03   -0.79104E-03  5408   0.513E-02    0.140E-01
RMM:   4    -0.232403785101E+04    0.84075E-04   -0.85301E-04  3266   0.118E-02    0.717E-02
RMM:   5    -0.232403780213E+04    0.48874E-04   -0.12781E-04  3091   0.732E-03    0.486E-02
RMM:   6    -0.232403778772E+04    0.14410E-04   -0.12444E-04  3124   0.763E-03    0.361E-02
RMM:   7    -0.232403777529E+04    0.12436E-04   -0.27507E-05  2929   0.548E-03    0.133E-02
RMM:   8    -0.232403777397E+04    0.13191E-05   -0.55014E-06  2855   0.311E-03
  49 F= -.23449314E+04 E0= -.23449314E+04  d E =-.311275E-02  mag=     6.0000
       N       E                     dE             d eps       ncg     rms          rms(c)
DAV:   1    -0.232403094180E+04    0.68335E-02   -0.82590E-01  4492   0.764E-01    0.268E-01
RMM:   2    -0.232403950710E+04   -0.85653E-02   -0.91415E-02  6011   0.165E-01    0.151E-01
RMM:   3    -0.232404015272E+04   -0.64562E-03   -0.83963E-03  5583   0.612E-02    0.159E-01
RMM:   4    -0.232404001504E+04    0.13769E-03   -0.92377E-04  3810   0.140E-02    0.835E-02
RMM:   5    -0.232403992389E+04    0.91147E-04   -0.19885E-04  4147   0.104E-02    0.354E-02
RMM:   6    -0.232403991865E+04    0.52390E-05   -0.79457E-05  3314   0.806E-03
  50 F= -.23449334E+04 E0= -.23449334E+04  d E =-.201359E-02  mag=     6.0000
       N       E                     dE             d eps       ncg     rms          rms(c)
DAV:   1    -0.232403822779E+04    0.16961E-02   -0.15844E-01  4640   0.335E-01    0.119E-01
RMM:   2    -0.232403988776E+04   -0.16600E-02   -0.17842E-02  6253   0.745E-02    0.634E-02
RMM:   3    -0.232404000617E+04   -0.11842E-03   -0.16038E-03  4195   0.266E-02    0.578E-02
RMM:   4    -0.232403999268E+04    0.13497E-04   -0.17836E-04  3024   0.709E-03    0.394E-02
RMM:   5    -0.232403997500E+04    0.17680E-04   -0.41814E-05  2942   0.508E-03    0.206E-02
RMM:   6    -0.232403997647E+04   -0.14692E-05   -0.24335E-05  2943   0.454E-03
  51 F= -.23449334E+04 E0= -.23449334E+04  d E =-.201387E-02  mag=     6.0000
       N       E                     dE             d eps       ncg     rms          rms(c)
DAV:   1    -0.232402957546E+04    0.10400E-01   -0.95446E-01  4488   0.763E-01    0.262E-01
RMM:   2    -0.232404120763E+04   -0.11632E-01   -0.12361E-01  6301   0.171E-01    0.152E-01
RMM:   3    -0.232404211055E+04   -0.90292E-03   -0.11093E-02  5564   0.590E-02    0.133E-01
RMM:   4    -0.232404206097E+04    0.49577E-04   -0.11091E-03  3375   0.131E-02    0.934E-02
RMM:   5    -0.232404196355E+04    0.97422E-04   -0.18955E-04  3437   0.879E-03    0.469E-02
RMM:   6    -0.232404196097E+04    0.25817E-05   -0.11682E-04  3245   0.788E-03    0.399E-02
RMM:   7    -0.232404194492E+04    0.16051E-04   -0.34125E-05  2929   0.568E-03    0.101E-02
RMM:   8    -0.232404194401E+04    0.91369E-06   -0.52616E-06  2859   0.277E-03
  52 F= -.23449350E+04 E0= -.23449350E+04  d E =-.157109E-02  mag=     6.0000
       N       E                     dE             d eps       ncg     rms          rms(c)
DAV:   1    -0.232403790202E+04    0.40429E-02   -0.34997E-01  4496   0.461E-01    0.159E-01
RMM:   2    -0.232404215623E+04   -0.42542E-02   -0.45110E-02  6201   0.103E-01    0.955E-02
RMM:   3    -0.232404249568E+04   -0.33945E-03   -0.41978E-03  4543   0.350E-02    0.865E-02
RMM:   4    -0.232404246806E+04    0.27617E-04   -0.41588E-04  3077   0.844E-03    0.544E-02
RMM:   5    -0.232404243266E+04    0.35404E-04   -0.73889E-05  2987   0.578E-03    0.288E-02
RMM:   6    -0.232404243152E+04    0.11403E-05   -0.46027E-05  3014   0.523E-03
  53 F= -.23449352E+04 E0= -.23449352E+04  d E =-.181882E-02  mag=     6.0000
       N       E                     dE             d eps       ncg     rms          rms(c)
DAV:   1    -0.232403786896E+04    0.45637E-02   -0.70830E-01  4492   0.731E-01    0.261E-01
RMM:   2    -0.232404429483E+04   -0.64259E-02   -0.69770E-02  5928   0.153E-01    0.134E-01
RMM:   3    -0.232404477623E+04   -0.48139E-03   -0.69740E-03  5454   0.586E-02    0.125E-01
RMM:   4    -0.232404469554E+04    0.80689E-04   -0.71552E-04  4016   0.137E-02    0.857E-02
RMM:   5    -0.232404463276E+04    0.62778E-04   -0.21061E-04  3974   0.109E-02    0.551E-02
RMM:   6    -0.232404461352E+04    0.19245E-04   -0.10758E-04  3281   0.829E-03    0.338E-02
RMM:   7    -0.232404460149E+04    0.12029E-04   -0.24954E-05  2924   0.605E-03    0.951E-03
RMM:   8    -0.232404459984E+04    0.16446E-05   -0.63233E-06  2877   0.302E-03
  54 F= -.23449371E+04 E0= -.23449371E+04  d E =-.193455E-02  mag=     6.0000
       N       E                     dE             d eps       ncg     rms          rms(c)
DAV:   1    -0.232404447596E+04    0.12552E-03   -0.19372E-02  5136   0.121E-01    0.432E-02
RMM:   2    -0.232404465512E+04   -0.17915E-03   -0.19275E-03  5956   0.266E-02    0.255E-02
RMM:   3    -0.232404466923E+04   -0.14114E-04   -0.19656E-04  2987   0.107E-02    0.269E-02
RMM:   4    -0.232404466389E+04    0.53421E-05   -0.20654E-05  2926   0.314E-03
  55 F= -.23449372E+04 E0= -.23449372E+04  d E =-.195984E-02  mag=     6.0000
       N       E                     dE             d eps       ncg     rms          rms(c)
DAV:   1    -0.232404294110E+04    0.17281E-02   -0.41305E-01  4496   0.524E-01    0.179E-01
RMM:   2    -0.232404596710E+04   -0.30260E-02   -0.32250E-02  5989   0.106E-01    0.127E-01
RMM:   3    -0.232404617359E+04   -0.20649E-03   -0.30870E-03  5072   0.383E-02    0.126E-01
RMM:   4    -0.232404604616E+04    0.12743E-03   -0.33256E-04  3411   0.102E-02    0.548E-02
RMM:   5    -0.232404603644E+04    0.97160E-05   -0.12067E-04  3255   0.821E-03    0.502E-02
RMM:   6    -0.232404601177E+04    0.24669E-04   -0.73089E-05  3025   0.729E-03    0.185E-02
RMM:   7    -0.232404601054E+04    0.12320E-05   -0.11615E-05  2899   0.470E-03
  56 F= -.23449385E+04 E0= -.23449385E+04  d E =-.133348E-02  mag=     6.0000
       N       E                     dE             d eps       ncg     rms          rms(c)
DAV:   1    -0.232404458523E+04    0.14265E-02   -0.20068E-01  4528   0.365E-01    0.125E-01
RMM:   2    -0.232404606783E+04   -0.14826E-02   -0.15803E-02  6023   0.751E-02    0.870E-02
RMM:   3    -0.232404616285E+04   -0.95017E-04   -0.15009E-03  4178   0.279E-02    0.839E-02
RMM:   4    -0.232404610515E+04    0.57699E-04   -0.15974E-04  3067   0.798E-03    0.383E-02
RMM:   5    -0.232404610204E+04    0.31128E-05   -0.59518E-05  2945   0.596E-03
  57 F= -.23449386E+04 E0= -.23449386E+04  d E =-.141600E-02  mag=     6.0000
       N       E                     dE             d eps       ncg     rms          rms(c)
DAV:   1    -0.232404535419E+04    0.75097E-03   -0.24736E-01  4496   0.391E-01    0.127E-01
RMM:   2    -0.232404705760E+04   -0.17034E-02   -0.17861E-02  6230   0.806E-02    0.100E-01
RMM:   3    -0.232404712234E+04   -0.64739E-04   -0.16445E-03  4224   0.276E-02    0.802E-02
RMM:   4    -0.232404706640E+04    0.55935E-04   -0.17044E-04  3059   0.795E-03    0.376E-02
RMM:   5    -0.232404706664E+04   -0.23603E-06   -0.64375E-05  2944   0.586E-03
  58 F= -.23449395E+04 E0= -.23449395E+04  d E =-.933643E-03  mag=     6.0000
       N       E                     dE             d eps       ncg     rms          rms(c)
DAV:   1    -0.232404326027E+04    0.38061E-02   -0.62178E-01  4488   0.619E-01    0.200E-01
RMM:   2    -0.232404750408E+04   -0.42438E-02   -0.44638E-02  6149   0.126E-01    0.152E-01
RMM:   3    -0.232404769370E+04   -0.18963E-03   -0.40060E-03  5284   0.440E-02    0.126E-01
RMM:   4    -0.232404756088E+04    0.13283E-03   -0.42855E-04  3451   0.111E-02    0.601E-02
RMM:   5    -0.232404755783E+04    0.30497E-05   -0.15534E-04  3178   0.864E-03    0.651E-02
RMM:   6    -0.232404751925E+04    0.38573E-04   -0.82211E-05  3023   0.743E-03    0.255E-02
RMM:   7    -0.232404751806E+04    0.11954E-05   -0.14889E-05  2916   0.489E-03
  59 F= -.23449399E+04 E0= -.23449399E+04  d E =-.133671E-02  mag=     6.0000
       N       E                     dE             d eps       ncg     rms          rms(c)
DAV:   1    -0.232404582460E+04    0.16947E-02   -0.40002E-01  4456   0.540E-01    0.184E-01
RMM:   2    -0.232404917892E+04   -0.33543E-02   -0.35435E-02  6031   0.115E-01    0.142E-01
RMM:   3    -0.232404932834E+04   -0.14942E-03   -0.30657E-03  5177   0.412E-02    0.132E-01
RMM:   4    -0.232404918645E+04    0.14189E-03   -0.35713E-04  3506   0.106E-02    0.551E-02
RMM:   5    -0.232404917539E+04    0.11058E-04   -0.11694E-04  3142   0.810E-03    0.538E-02
RMM:   6    -0.232404914166E+04    0.33737E-04   -0.85498E-05  3332   0.781E-03    0.161E-02
RMM:   7    -0.232404914014E+04    0.15156E-05   -0.13780E-05  2922   0.513E-03
  60 F= -.23449414E+04 E0= -.23449414E+04  d E =-.143909E-02  mag=     6.0000
       N       E                     dE             d eps       ncg     rms          rms(c)
DAV:   1    -0.232404788703E+04    0.12546E-02   -0.19187E-01  4528   0.374E-01    0.128E-01
RMM:   2    -0.232404950212E+04   -0.16151E-02   -0.17043E-02  6042   0.798E-02    0.991E-02
RMM:   3    -0.232404957264E+04   -0.70521E-04   -0.14756E-03  4358   0.289E-02    0.914E-02
RMM:   4    -0.232404950464E+04    0.68002E-04   -0.17208E-04  3061   0.797E-03    0.385E-02
RMM:   5    -0.232404949856E+04    0.60782E-05   -0.58004E-05  2980   0.588E-03
  61 F= -.23449416E+04 E0= -.23449416E+04  d E =-.167084E-02  mag=     6.0000
       N       E                     dE             d eps       ncg     rms          rms(c)
DAV:   1    -0.232404801498E+04    0.14897E-02   -0.22909E-01  4480   0.416E-01    0.145E-01
RMM:   2    -0.232405057312E+04   -0.25581E-02   -0.27024E-02  6275   0.936E-02    0.109E-01
RMM:   3    -0.232405071806E+04   -0.14494E-03   -0.23293E-03  4644   0.318E-02    0.100E-01
RMM:   4    -0.232405063647E+04    0.81591E-04   -0.25837E-04  3101   0.872E-03    0.425E-02
RMM:   5    -0.232405062880E+04    0.76714E-05   -0.78311E-05  2998   0.661E-03
  62 F= -.23449425E+04 E0= -.23449425E+04  d E =-.881405E-03  mag=     6.0000
       N       E                     dE             d eps       ncg     rms          rms(c)
DAV:   1    -0.232404946700E+04    0.11695E-02   -0.12754E-01  4560   0.310E-01    0.109E-01
RMM:   2    -0.232405089220E+04   -0.14252E-02   -0.15112E-02  6356   0.707E-02    0.809E-02
RMM:   3    -0.232405096720E+04   -0.75000E-04   -0.13180E-03  3923   0.240E-02    0.697E-02
RMM:   4    -0.232405092452E+04    0.42683E-04   -0.14457E-04  3023   0.715E-03    0.327E-02
RMM:   5    -0.232405092075E+04    0.37713E-05   -0.49786E-05  2948   0.544E-03
  63 F= -.23449426E+04 E0= -.23449426E+04  d E =-.986907E-03  mag=     6.0000
       N       E                     dE             d eps       ncg     rms          rms(c)
DAV:   1    -0.232404873656E+04    0.21880E-02   -0.28728E-01  4476   0.457E-01    0.157E-01
RMM:   2    -0.232405178056E+04   -0.30440E-02   -0.32034E-02  6251   0.103E-01    0.118E-01
RMM:   3    -0.232405194337E+04   -0.16281E-03   -0.27004E-03  4844   0.344E-02    0.107E-01
RMM:   4    -0.232405186212E+04    0.81250E-04   -0.31406E-04  3132   0.931E-03    0.478E-02
RMM:   5    -0.232405185442E+04    0.77033E-05   -0.84900E-05  2994   0.686E-03
  64 F= -.23449433E+04 E0= -.23449433E+04  d E =-.760857E-03  mag=     6.0000
       N       E                     dE             d eps       ncg     rms          rms(c)
DAV:   1    -0.232405134718E+04    0.51494E-03   -0.54863E-02  4672   0.200E-01    0.712E-02
RMM:   2    -0.232405193650E+04   -0.58932E-03   -0.62162E-03  6389   0.459E-02    0.556E-02
RMM:   3    -0.232405196015E+04   -0.23645E-04   -0.55210E-04  3205   0.152E-02    0.423E-02
RMM:   4    -0.232405194458E+04    0.15567E-04   -0.60898E-05  2984   0.521E-03    0.203E-02
RMM:   5    -0.232405193937E+04    0.52154E-05   -0.18985E-05  2923   0.390E-03
  65 F= -.23449433E+04 E0= -.23449433E+04  d E =-.769683E-03  mag=     6.0000
       N       E                     dE             d eps       ncg     rms          rms(c)
DAV:   1    -0.232404987559E+04    0.20690E-02   -0.30646E-01  4488   0.475E-01    0.160E-01
RMM:   2    -0.232405258925E+04   -0.27137E-02   -0.28603E-02  6090   0.101E-01    0.116E-01
RMM:   3    -0.232405274071E+04   -0.15146E-03   -0.26818E-03  4821   0.367E-02    0.104E-01
RMM:   4    -0.232405265994E+04    0.80771E-04   -0.30449E-04  3191   0.950E-03    0.479E-02
RMM:   5    -0.232405264963E+04    0.10308E-04   -0.83228E-05  2982   0.694E-03    0.442E-02
RMM:   6    -0.232405263073E+04    0.18899E-04   -0.57797E-05  3005   0.658E-03    0.217E-02
RMM:   7    -0.232405262932E+04    0.14086E-05   -0.13265E-05  2908   0.482E-03
  66 F= -.23449441E+04 E0= -.23449441E+04  d E =-.778737E-03  mag=     6.0000
       N       E                     dE             d eps       ncg     rms          rms(c)
DAV:   1    -0.232405214052E+04    0.49021E-03   -0.54633E-02  4624   0.201E-01    0.691E-02
RMM:   2    -0.232405263712E+04   -0.49660E-03   -0.51517E-03  6237   0.433E-02    0.608E-02
RMM:   3    -0.232405265729E+04   -0.20169E-04   -0.48907E-04  3262   0.155E-02    0.505E-02
RMM:   4    -0.232405263888E+04    0.18410E-04   -0.56669E-05  2977   0.500E-03    0.199E-02
RMM:   5    -0.232405263760E+04    0.12835E-05   -0.16421E-05  2913   0.326E-03
  67 F= -.23449442E+04 E0= -.23449442E+04  d E =-.824710E-03  mag=     6.0000
       N       E                     dE             d eps       ncg     rms          rms(c)
DAV:   1    -0.232405045346E+04    0.21854E-02   -0.35224E-01  4492   0.516E-01    0.174E-01
RMM:   2    -0.232405335192E+04   -0.28985E-02   -0.30322E-02  5986   0.105E-01    0.140E-01
RMM:   3    -0.232405345410E+04   -0.10218E-03   -0.26067E-03  4986   0.378E-02    0.122E-01
RMM:   4    -0.232405333454E+04    0.11956E-03   -0.31325E-04  3349   0.102E-02    0.491E-02
RMM:   5    -0.232405332597E+04    0.85639E-05   -0.10245E-04  3080   0.784E-03    0.460E-02
RMM:   6    -0.232405330528E+04    0.20686E-04   -0.65032E-05  3009   0.710E-03    0.210E-02
RMM:   7    -0.232405330384E+04    0.14436E-05   -0.12975E-05  2908   0.497E-03
  68 F= -.23449450E+04 E0= -.23449450E+04  d E =-.803849E-03  mag=     6.0000
       N       E                     dE             d eps       ncg     rms          rms(c)
DAV:   1    -0.232405228708E+04    0.10182E-02   -0.10964E-01  4528   0.288E-01    0.982E-02
RMM:   2    -0.232405320125E+04   -0.91417E-03   -0.94865E-03  6076   0.591E-02    0.841E-02
RMM:   3    -0.232405323127E+04   -0.30020E-04   -0.85199E-04  3797   0.225E-02    0.707E-02
RMM:   4    -0.232405319292E+04    0.38349E-04   -0.10128E-04  3002   0.662E-03    0.274E-02
RMM:   5    -0.232405319032E+04    0.25997E-05   -0.32593E-05  2934   0.469E-03
  69 F= -.23449449E+04 E0= -.23449449E+04  d E =-.767439E-03  mag=     6.0000
       N       E                     dE             d eps       ncg     rms          rms(c)
DAV:   1    -0.232405307667E+04    0.11626E-03   -0.25401E-02  4656   0.139E-01    0.481E-02
RMM:   2    -0.232405329341E+04   -0.21675E-03   -0.21912E-03  6012   0.295E-02    0.480E-02
RMM:   3    -0.232405329516E+04   -0.17536E-05   -0.19166E-04  2982   0.106E-02    0.341E-02
RMM:   4    -0.232405328600E+04    0.91611E-05   -0.21878E-05  2929   0.356E-03
  70 F= -.23449450E+04 E0= -.23449450E+04  d E =-.826468E-03  mag=     6.0000
       N       E                     dE             d eps       ncg     rms          rms(c)
DAV:   1    -0.232405000802E+04    0.32871E-02   -0.39514E-01  4488   0.528E-01    0.184E-01
RMM:   2    -0.232405393974E+04   -0.39317E-02   -0.40965E-02  5988   0.111E-01    0.157E-01
RMM:   3    -0.232405410077E+04   -0.16103E-03   -0.36617E-03  4920   0.394E-02    0.122E-01
RMM:   4    -0.232405399725E+04    0.10352E-03   -0.43378E-04  3243   0.103E-02    0.527E-02
RMM:   5    -0.232405398135E+04    0.15898E-04   -0.98547E-05  2996   0.718E-03    0.466E-02
RMM:   6    -0.232405395958E+04    0.21770E-04   -0.69166E-05  3018   0.685E-03    0.245E-02
RMM:   7    -0.232405395621E+04    0.33736E-05   -0.16784E-05  2911   0.514E-03
  71 F= -.23449456E+04 E0= -.23449456E+04  d E =-.643946E-03  mag=     6.0000
       N       E                     dE             d eps       ncg     rms          rms(c)
DAV:   1    -0.232405312889E+04    0.83069E-03   -0.77679E-02  4528   0.234E-01    0.823E-02
RMM:   2    -0.232405390810E+04   -0.77921E-03   -0.81270E-03  6183   0.501E-02    0.712E-02
RMM:   3    -0.232405394345E+04   -0.35351E-04   -0.74694E-04  3401   0.185E-02    0.569E-02
RMM:   4    -0.232405392121E+04    0.22241E-04   -0.88713E-05  3005   0.566E-03    0.238E-02
RMM:   5    -0.232405391796E+04    0.32512E-05   -0.22586E-05  2909   0.369E-03
  72 F= -.23449456E+04 E0= -.23449456E+04  d E =-.594328E-03  mag=     6.0000
       N       E                     dE             d eps       ncg     rms          rms(c)
DAV:   1    -0.232405369115E+04    0.23006E-03   -0.26875E-02  4560   0.138E-01    0.484E-02
RMM:   2    -0.232405396027E+04   -0.26912E-03   -0.27715E-03  6032   0.299E-02    0.445E-02
RMM:   3    -0.232405397369E+04   -0.13421E-04   -0.26728E-04  2979   0.111E-02    0.338E-02
RMM:   4    -0.232405396568E+04    0.80158E-05   -0.29271E-05  2930   0.344E-03
  73 F= -.23449456E+04 E0= -.23449456E+04  d E =-.648634E-03  mag=     6.0000
       N       E                     dE             d eps       ncg     rms          rms(c)
DAV:   1    -0.232405011277E+04    0.38609E-02   -0.40159E-01  4488   0.524E-01    0.187E-01
RMM:   2    -0.232405467597E+04   -0.45632E-02   -0.47718E-02  6021   0.113E-01    0.147E-01
RMM:   3    -0.232405494823E+04   -0.27226E-03   -0.43481E-03  4833   0.400E-02    0.117E-01
RMM:   4    -0.232405485538E+04    0.92850E-04   -0.48146E-04  3159   0.101E-02    0.526E-02
RMM:   5    -0.232405483211E+04    0.23273E-04   -0.89905E-05  2959   0.657E-03    0.406E-02
RMM:   6    -0.232405481997E+04    0.12142E-04   -0.66317E-05  2994   0.628E-03    0.295E-02
RMM:   7    -0.232405481379E+04    0.61763E-05   -0.18684E-05  2920   0.479E-03
  74 F= -.23449464E+04 E0= -.23449464E+04  d E =-.764425E-03  mag=     6.0000
       N       E                     dE             d eps       ncg     rms          rms(c)
DAV:   1    -0.232405162021E+04    0.31998E-02   -0.28707E-01  4488   0.443E-01    0.158E-01
RMM:   2    -0.232405489403E+04   -0.32738E-02   -0.34182E-02  6218   0.960E-02    0.129E-01
RMM:   3    -0.232405509339E+04   -0.19936E-03   -0.31257E-03  4405   0.358E-02    0.104E-01
RMM:   4    -0.232405502066E+04    0.72737E-04   -0.35257E-04  3089   0.915E-03    0.456E-02
RMM:   5    -0.232405500340E+04    0.17259E-04   -0.69250E-05  2959   0.596E-03    0.341E-02
RMM:   6    -0.232405499574E+04    0.76537E-05   -0.49868E-05  2964   0.563E-03
  75 F= -.23449465E+04 E0= -.23449465E+04  d E =-.876433E-03  mag=     6.0000
       N       E                     dE             d eps       ncg     rms          rms(c)
DAV:   1    -0.232405232302E+04    0.26804E-02   -0.26875E-01  4492   0.425E-01    0.150E-01
RMM:   2    -0.232405548072E+04   -0.31577E-02   -0.33255E-02  6169   0.920E-02    0.101E-01
RMM:   3    -0.232405571135E+04   -0.23063E-03   -0.30804E-03  4269   0.331E-02    0.847E-02
RMM:   4    -0.232405567502E+04    0.36328E-04   -0.34502E-04  3076   0.836E-03    0.469E-02
RMM:   5    -0.232405565869E+04    0.16337E-04   -0.55073E-05  2931   0.515E-03    0.331E-02
RMM:   6    -0.232405565315E+04    0.55334E-05   -0.44712E-05  2948   0.492E-03
  76 F= -.23449472E+04 E0= -.23449472E+04  d E =-.642379E-03  mag=     6.0000
       N       E                     dE             d eps       ncg     rms          rms(c)
DAV:   1    -0.232404379009E+04    0.11869E-01   -0.98781E-01  4488   0.814E-01    0.286E-01
RMM:   2    -0.232405544127E+04   -0.11651E-01   -0.12233E-01  6160   0.175E-01    0.204E-01
RMM:   3    -0.232405626632E+04   -0.82505E-03   -0.11048E-02  5484   0.654E-02    0.176E-01
RMM:   4    -0.232405609263E+04    0.17369E-03   -0.12633E-03  3672   0.148E-02    0.879E-02
RMM:   5    -0.232405603056E+04    0.62073E-04   -0.19942E-04  3291   0.920E-03    0.614E-02
RMM:   6    -0.232405601233E+04    0.18227E-04   -0.16583E-04  3331   0.884E-03    0.480E-02
RMM:   7    -0.232405599401E+04    0.18325E-04   -0.43500E-05  2957   0.630E-03    0.201E-02
RMM:   8    -0.232405599092E+04    0.30944E-05   -0.10927E-05  2904   0.377E-03
  77 F= -.23449475E+04 E0= -.23449475E+04  d E =-.954417E-03  mag=     6.0000
       N       E                     dE             d eps       ncg     rms          rms(c)
DAV:   1    -0.232405241516E+04    0.35788E-02   -0.35717E-01  4488   0.484E-01    0.170E-01
RMM:   2    -0.232405651426E+04   -0.40991E-02   -0.42656E-02  6118   0.104E-01    0.137E-01
RMM:   3    -0.232405675644E+04   -0.24218E-03   -0.36973E-03  4628   0.365E-02    0.114E-01
RMM:   4    -0.232405667530E+04    0.81132E-04   -0.43388E-04  3125   0.933E-03    0.492E-02
RMM:   5    -0.232405665387E+04    0.21433E-04   -0.70525E-05  2947   0.590E-03    0.339E-02
RMM:   6    -0.232405665121E+04    0.26589E-05   -0.58014E-05  2972   0.567E-03
  78 F= -.23449482E+04 E0= -.23449482E+04  d E =-.695637E-03  mag=     6.0000
       N       E                     dE             d eps       ncg     rms          rms(c)
DAV:   1    -0.232404035736E+04    0.16297E-01   -0.13913E+00  4488   0.956E-01    0.334E-01
RMM:   2    -0.232405618344E+04   -0.15826E-01   -0.16568E-01  6003   0.204E-01    0.246E-01
RMM:   3    -0.232405720905E+04   -0.10256E-02   -0.14472E-02  5601   0.747E-02    0.214E-01
RMM:   4    -0.232405693879E+04    0.27026E-03   -0.17008E-03  4158   0.170E-02    0.101E-01
RMM:   5    -0.232405685623E+04    0.82553E-04   -0.27152E-04  3652   0.104E-02    0.694E-02
RMM:   6    -0.232405683770E+04    0.18529E-04   -0.22316E-04  3624   0.977E-03    0.555E-02
RMM:   7    -0.232405681300E+04    0.24707E-04   -0.52589E-05  2972   0.664E-03    0.228E-02
RMM:   8    -0.232405680919E+04    0.38062E-05   -0.12937E-05  2909   0.384E-03
  79 F= -.23449484E+04 E0= -.23449484E+04  d E =-.927617E-03  mag=     6.0000
       N       E                     dE             d eps       ncg     rms          rms(c)
DAV:   1    -0.232405300581E+04    0.38072E-02   -0.41150E-01  4492   0.501E-01    0.175E-01
RMM:   2    -0.232405728798E+04   -0.42822E-02   -0.44264E-02  6153   0.105E-01    0.153E-01
RMM:   3    -0.232405750651E+04   -0.21853E-03   -0.38495E-03  4630   0.370E-02    0.121E-01
RMM:   4    -0.232405741615E+04    0.90356E-04   -0.46112E-04  3152   0.964E-03    0.508E-02
RMM:   5    -0.232405739285E+04    0.23309E-04   -0.78714E-05  2978   0.624E-03    0.346E-02
RMM:   6    -0.232405739167E+04    0.11765E-05   -0.63735E-05  2971   0.597E-03
  80 F= -.23449491E+04 E0= -.23449491E+04  d E =-.673784E-03  mag=     6.0000
       N       E                     dE             d eps       ncg     rms          rms(c)
DAV:   1    -0.232403848963E+04    0.18903E-01   -0.17836E+00  4488   0.104E+00    0.364E-01
RMM:   2    -0.232405687723E+04   -0.18388E-01   -0.19121E-01  6047   0.218E-01    0.295E-01
RMM:   3    -0.232405796981E+04   -0.10926E-02   -0.16893E-02  5643   0.790E-02    0.249E-01
RMM:   4    -0.232405759014E+04    0.37967E-03   -0.20138E-03  4549   0.187E-02    0.109E-01
RMM:   5    -0.232405749584E+04    0.94301E-04   -0.33473E-04  3935   0.113E-02    0.767E-02
RMM:   6    -0.232405747422E+04    0.21616E-04   -0.27889E-04  3676   0.105E-02    0.595E-02
RMM:   7    -0.232405744445E+04    0.29767E-04   -0.58127E-05  2974   0.679E-03    0.227E-02
RMM:   8    -0.232405744077E+04    0.36809E-05   -0.13959E-05  2917   0.379E-03
  81 F= -.23449493E+04 E0= -.23449493E+04  d E =-.918377E-03  mag=     6.0000
       N       E                     dE             d eps       ncg     rms          rms(c)
DAV:   1    -0.232405191336E+04    0.55311E-02   -0.69965E-01  4488   0.652E-01    0.226E-01
RMM:   2    -0.232405820346E+04   -0.62901E-02   -0.64722E-02  6040   0.133E-01    0.201E-01
RMM:   3    -0.232405847916E+04   -0.27570E-03   -0.56314E-03  5254   0.472E-02    0.161E-01
RMM:   4    -0.232405830788E+04    0.17127E-03   -0.69512E-04  3427   0.120E-02    0.639E-02
RMM:   5    -0.232405827408E+04    0.33804E-04   -0.13840E-04  3231   0.817E-03    0.467E-02
RMM:   6    -0.232405826571E+04    0.83677E-05   -0.10233E-04  3037   0.762E-03    0.367E-02
RMM:   7    -0.232405825484E+04    0.10867E-04   -0.23265E-05  2916   0.530E-03    0.126E-02
RMM:   8    -0.232405825408E+04    0.76601E-06   -0.62643E-06  2879   0.304E-03
  82 F= -.23449503E+04 E0= -.23449503E+04  d E =-.951961E-03  mag=     6.0000
       N       E                     dE             d eps       ncg     rms          rms(c)
DAV:   1    -0.232405459279E+04    0.36621E-02   -0.41155E-01  4488   0.501E-01    0.173E-01
RMM:   2    -0.232405830415E+04   -0.37114E-02   -0.38146E-02  5984   0.102E-01    0.156E-01
RMM:   3    -0.232405845888E+04   -0.15473E-03   -0.32952E-03  4679   0.356E-02    0.124E-01
RMM:   4    -0.232405835637E+04    0.10250E-03   -0.40756E-04  3159   0.956E-03    0.490E-02
RMM:   5    -0.232405833561E+04    0.20766E-04   -0.82787E-05  3011   0.654E-03    0.352E-02
RMM:   6    -0.232405833135E+04    0.42632E-05   -0.60350E-05  2968   0.616E-03
  83 F= -.23449505E+04 E0= -.23449505E+04  d E =-.113747E-02  mag=     6.0000
       N       E                     dE             d eps       ncg     rms          rms(c)
DAV:   1    -0.232405677709E+04    0.15585E-02   -0.30387E-01  4480   0.451E-01    0.153E-01
RMM:   2    -0.232405909541E+04   -0.23183E-02   -0.24412E-02  5903   0.900E-02    0.110E-01
RMM:   3    -0.232405924363E+04   -0.14823E-03   -0.23597E-03  4669   0.347E-02    0.104E-01
RMM:   4    -0.232405916478E+04    0.78853E-04   -0.25463E-04  3104   0.879E-03    0.463E-02
RMM:   5    -0.232405915155E+04    0.13236E-04   -0.76595E-05  2995   0.645E-03    0.370E-02
RMM:   6    -0.232405914005E+04    0.11496E-04   -0.49512E-05  2957   0.616E-03    0.191E-02
RMM:   7    -0.232405913740E+04    0.26525E-05   -0.11268E-05  2899   0.429E-03
  84 F= -.23449513E+04 E0= -.23449513E+04  d E =-.812716E-03  mag=     6.0000
       N       E                     dE             d eps       ncg     rms          rms(c)
DAV:   1    -0.232405840055E+04    0.73950E-03   -0.10805E-01  4576   0.269E-01    0.918E-02
RMM:   2    -0.232405924763E+04   -0.84707E-03   -0.87646E-03  6013   0.542E-02    0.797E-02
RMM:   3    -0.232405928276E+04   -0.35135E-04   -0.81779E-04  3670   0.212E-02    0.663E-02
RMM:   4    -0.232405924852E+04    0.34237E-04   -0.90396E-05  2992   0.609E-03    0.253E-02
RMM:   5    -0.232405924365E+04    0.48773E-05   -0.29767E-05  2942   0.442E-03
  85 F= -.23449514E+04 E0= -.23449514E+04  d E =-.923385E-03  mag=     6.0000
       N       E                     dE             d eps       ncg     rms          rms(c)
DAV:   1    -0.232405875881E+04    0.48972E-03   -0.15466E-01  4496   0.324E-01    0.108E-01
RMM:   2    -0.232405970234E+04   -0.94353E-03   -0.99086E-03  6017   0.626E-02    0.813E-02
RMM:   3    -0.232405973316E+04   -0.30816E-04   -0.82322E-04  3888   0.237E-02    0.812E-02
RMM:   4    -0.232405967714E+04    0.56018E-04   -0.10445E-04  3035   0.722E-03    0.296E-02
RMM:   5    -0.232405967582E+04    0.13164E-05   -0.47782E-05  2949   0.542E-03
  86 F= -.23449519E+04 E0= -.23449519E+04  d E =-.491953E-03  mag=     6.0000
       N       E                     dE             d eps       ncg     rms          rms(c)
DAV:   1    -0.232405893464E+04    0.74250E-03   -0.12530E-01  4496   0.292E-01    0.968E-02
RMM:   2    -0.232405969019E+04   -0.75555E-03   -0.80142E-03  6153   0.573E-02    0.667E-02
RMM:   3    -0.232405972453E+04   -0.34346E-04   -0.70823E-04  3673   0.209E-02    0.708E-02
RMM:   4    -0.232405968258E+04    0.41950E-04   -0.85923E-05  3003   0.672E-03    0.266E-02
RMM:   5    -0.232405967817E+04    0.44102E-05   -0.39632E-05  2926   0.510E-03
  87 F= -.23449519E+04 E0= -.23449519E+04  d E =-.548427E-03  mag=     6.0000
       N       E                     dE             d eps       ncg     rms          rms(c)
DAV:   1    -0.232405930316E+04    0.37942E-03   -0.98483E-02  4496   0.243E-01    0.748E-02
RMM:   2    -0.232405992522E+04   -0.62206E-03   -0.64519E-03  6292   0.482E-02    0.560E-02
RMM:   3    -0.232405994744E+04   -0.22220E-04   -0.54442E-04  3297   0.161E-02    0.518E-02
RMM:   4    -0.232405992709E+04    0.20347E-04   -0.61765E-05  2998   0.545E-03    0.226E-02
RMM:   5    -0.232405992590E+04    0.11971E-05   -0.22703E-05  2913   0.361E-03
  88 F= -.23449523E+04 E0= -.23449523E+04  d E =-.344986E-03  mag=     6.0000
       N       E                     dE             d eps       ncg     rms          rms(c)
DAV:   1    -0.232405589671E+04    0.40304E-02   -0.66139E-01  4472   0.630E-01    0.193E-01
RMM:   2    -0.232406006272E+04   -0.41660E-02   -0.43076E-02  5994   0.119E-01    0.151E-01
RMM:   3    -0.232406020619E+04   -0.14346E-03   -0.34028E-03  5028   0.414E-02    0.145E-01
RMM:   4    -0.232406005084E+04    0.15534E-03   -0.40596E-04  3342   0.107E-02    0.567E-02
RMM:   5    -0.232406003684E+04    0.14005E-04   -0.12419E-04  3120   0.784E-03    0.491E-02
RMM:   6    -0.232406001538E+04    0.21463E-04   -0.81627E-05  3039   0.726E-03    0.280E-02
RMM:   7    -0.232406001157E+04    0.38040E-05   -0.16444E-05  2915   0.487E-03
  89 F= -.23449526E+04 E0= -.23449526E+04  d E =-.683007E-03  mag=     6.0000
       N       E                     dE             d eps       ncg     rms          rms(c)
DAV:   1    -0.232405919748E+04    0.81790E-03   -0.21443E-01  4476   0.380E-01    0.123E-01
RMM:   2    -0.232406049325E+04   -0.12958E-02   -0.13538E-02  5977   0.720E-02    0.919E-02
RMM:   3    -0.232406055279E+04   -0.59539E-04   -0.11484E-03  4113   0.283E-02    0.969E-02
RMM:   4    -0.232406047973E+04    0.73062E-04   -0.13699E-04  3047   0.785E-03    0.314E-02
RMM:   5    -0.232406047259E+04    0.71398E-05   -0.51679E-05  2971   0.594E-03
  90 F= -.23449533E+04 E0= -.23449533E+04  d E =-.675434E-03  mag=     6.0000
       N       E                     dE             d eps       ncg     rms          rms(c)
DAV:   1    -0.232405892689E+04    0.15528E-02   -0.24327E-01  4476   0.405E-01    0.131E-01
RMM:   2    -0.232406039621E+04   -0.14693E-02   -0.15421E-02  6158   0.785E-02    0.936E-02
RMM:   3    -0.232406045834E+04   -0.62131E-04   -0.13454E-03  4331   0.291E-02    0.962E-02
RMM:   4    -0.232406038164E+04    0.76702E-04   -0.15506E-04  3071   0.837E-03    0.364E-02
RMM:   5    -0.232406037743E+04    0.42113E-05   -0.68340E-05  2981   0.644E-03
  91 F= -.23449534E+04 E0= -.23449534E+04  d E =-.809558E-03  mag=     6.0000
       N       E                     dE             d eps       ncg     rms          rms(c)
DAV:   1    -0.232405895671E+04    0.14249E-02   -0.29635E-01  4488   0.426E-01    0.131E-01
RMM:   2    -0.232406067679E+04   -0.17201E-02   -0.17932E-02  6173   0.808E-02    0.987E-02
RMM:   3    -0.232406075507E+04   -0.78287E-04   -0.14884E-03  4139   0.286E-02    0.989E-02
RMM:   4    -0.232406068656E+04    0.68514E-04   -0.18300E-04  3069   0.844E-03    0.379E-02
RMM:   5    -0.232406067492E+04    0.11641E-04   -0.57499E-05  2978   0.626E-03    0.219E-02
RMM:   6    -0.232406067769E+04   -0.27723E-05   -0.29799E-05  2948   0.535E-03
  92 F= -.23449539E+04 E0= -.23449539E+04  d E =-.520559E-03  mag=     6.0000
       N       E                     dE             d eps       ncg     rms          rms(c)
DAV:   1    -0.232405831161E+04    0.23633E-02   -0.38976E-01  4488   0.488E-01    0.151E-01
RMM:   2    -0.232406057836E+04   -0.22667E-02   -0.23635E-02  5955   0.901E-02    0.111E-01
RMM:   3    -0.232406068043E+04   -0.10207E-03   -0.18257E-03  4490   0.301E-02    0.115E-01
RMM:   4    -0.232406058387E+04    0.96561E-04   -0.23532E-04  3101   0.872E-03    0.429E-02
RMM:   5    -0.232406056868E+04    0.15187E-04   -0.69764E-05  3038   0.646E-03    0.260E-02
RMM:   6    -0.232406056964E+04   -0.95829E-06   -0.41689E-05  2952   0.603E-03
  93 F= -.23449541E+04 E0= -.23449541E+04  d E =-.665334E-03  mag=     6.0000
       N       E                     dE             d eps       ncg     rms          rms(c)
DAV:   1    -0.232405933578E+04    0.12329E-02   -0.32376E-01  4488   0.448E-01    0.139E-01
RMM:   2    -0.232406119550E+04   -0.18597E-02   -0.19395E-02  5788   0.830E-02    0.104E-01
RMM:   3    -0.232406128683E+04   -0.91327E-04   -0.16672E-03  4524   0.338E-02    0.102E-01
RMM:   4    -0.232406120909E+04    0.77746E-04   -0.20096E-04  3065   0.837E-03    0.394E-02
RMM:   5    -0.232406119280E+04    0.16290E-04   -0.61330E-05  3024   0.632E-03    0.203E-02
RMM:   6    -0.232406119415E+04   -0.13539E-05   -0.29432E-05  2939   0.568E-03
  94 F= -.23449548E+04 E0= -.23449548E+04  d E =-.752171E-03  mag=     6.0000
[...]
       N       E                     dE             d eps       ncg     rms          rms(c)
DAV:   1    -0.232407126979E+04    0.47041E-04   -0.13689E-02  4712   0.818E-02    0.309E-02
RMM:   2    -0.232407130939E+04   -0.39598E-04   -0.43461E-04  4641   0.156E-02    0.207E-02
RMM:   3    -0.232407130932E+04    0.68670E-07   -0.38896E-05  2958   0.716E-03
 161 F= -.23449690E+04 E0= -.23449690E+04  d E =-.241020E-03  mag=     6.0000
       N       E                     dE             d eps       ncg     rms          rms(c)
DAV:   1    -0.232407136972E+04   -0.60327E-04   -0.85653E-02  4472   0.215E-01    0.839E-02
RMM:   2    -0.232407157025E+04   -0.20054E-03   -0.24159E-03  5573   0.365E-02    0.436E-02
RMM:   3    -0.232407156756E+04    0.26909E-05   -0.18007E-04  3426   0.147E-02    0.536E-02
RMM:   4    -0.232407154834E+04    0.19226E-04   -0.48713E-05  2973   0.541E-03    0.270E-02
RMM:   5    -0.232407154555E+04    0.27897E-05   -0.22759E-05  2937   0.418E-03
 162 F= -.23449693E+04 E0= -.23449693E+04  d E =-.241285E-03  mag=     6.0000
       N       E                     dE             d eps       ncg     rms          rms(c)
DAV:   1    -0.232407152715E+04    0.21188E-04   -0.63974E-03  5016   0.591E-02    0.234E-02
RMM:   2    -0.232407154456E+04   -0.17416E-04   -0.19058E-04  3933   0.117E-02    0.157E-02
RMM:   3    -0.232407154504E+04   -0.47495E-06   -0.20478E-05  2920   0.624E-03
 163 F= -.23449693E+04 E0= -.23449693E+04  d E =-.242200E-03  mag=     6.0000
       N       E                     dE             d eps       ncg     rms          rms(c)
DAV:   1    -0.232407159558E+04   -0.51012E-04   -0.73101E-02  4472   0.193E-01    0.754E-02
RMM:   2    -0.232407175254E+04   -0.15696E-03   -0.19313E-03  5559   0.326E-02    0.388E-02
RMM:   3    -0.232407174590E+04    0.66410E-05   -0.14470E-04  3297   0.136E-02    0.416E-02
RMM:   4    -0.232407173481E+04    0.11089E-04   -0.39248E-05  2958   0.510E-03    0.266E-02
RMM:   5    -0.232407173230E+04    0.25064E-05   -0.19524E-05  2916   0.398E-03
 164 F= -.23449695E+04 E0= -.23449695E+04  d E =-.187749E-03  mag=     6.0000
       N       E                     dE             d eps       ncg     rms          rms(c)
DAV:   1    -0.232407171968E+04    0.15130E-04   -0.36764E-03  5184   0.440E-02    0.176E-02
RMM:   2    -0.232407172898E+04   -0.92965E-05   -0.10461E-04  3458   0.886E-03    0.123E-02
RMM:   3    -0.232407172937E+04   -0.39409E-06   -0.13188E-05  2848   0.529E-03
 165 F= -.23449695E+04 E0= -.23449695E+04  d E =-.184949E-03  mag=     6.0000
       N       E                     dE             d eps       ncg     rms          rms(c)
DAV:   1    -0.232407178633E+04   -0.57357E-04   -0.75384E-02  4472   0.197E-01    0.761E-02
RMM:   2    -0.232407195524E+04   -0.16891E-03   -0.20500E-03  5636   0.334E-02    0.383E-02
RMM:   3    -0.232407194524E+04    0.10003E-04   -0.15146E-04  3323   0.142E-02    0.354E-02
RMM:   4    -0.232407193793E+04    0.73109E-05   -0.38156E-05  2962   0.515E-03
 166 F= -.23449697E+04 E0= -.23449697E+04  d E =-.201309E-03  mag=     6.0000
       N       E                     dE             d eps       ncg     rms          rms(c)
DAV:   1    -0.232407192316E+04    0.22075E-04   -0.58161E-03  5072   0.549E-02    0.300E-02
RMM:   2    -0.232407195368E+04   -0.30524E-04   -0.19848E-04  3834   0.112E-02    0.499E-02
RMM:   3    -0.232407193357E+04    0.20111E-04   -0.36304E-05  2934   0.661E-03    0.161E-02
RMM:   4    -0.232407193244E+04    0.11348E-05   -0.67658E-06  2872   0.226E-03
 167 F= -.23449697E+04 E0= -.23449697E+04  d E =-.193797E-03  mag=     6.0000
       N       E                     dE             d eps       ncg     rms          rms(c)
DAV:   1    -0.232407197618E+04   -0.42601E-04   -0.77466E-02  4488   0.201E-01    0.765E-02
RMM:   2    -0.232407215150E+04   -0.17532E-03   -0.21055E-03  5641   0.333E-02    0.375E-02
RMM:   3    -0.232407214418E+04    0.73208E-05   -0.17194E-04  3342   0.149E-02    0.342E-02
RMM:   4    -0.232407213517E+04    0.90112E-05   -0.37034E-05  2960   0.516E-03
 168 F= -.23449699E+04 E0= -.23449699E+04  d E =-.199099E-03  mag=     6.0000
       N       E                     dE             d eps       ncg     rms          rms(c)
DAV:   1    -0.232407209733E+04    0.46853E-04   -0.17504E-02  4648   0.951E-02    0.389E-02
RMM:   2    -0.232407214634E+04   -0.49011E-04   -0.49458E-04  5100   0.173E-02    0.396E-02
RMM:   3    -0.232407214057E+04    0.57698E-05   -0.53888E-05  2970   0.797E-03
 169 F= -.23449699E+04 E0= -.23449699E+04  d E =-.202772E-03  mag=     6.0000
       N       E                     dE             d eps       ncg     rms          rms(c)
DAV:   1    -0.232407219735E+04   -0.51009E-04   -0.65813E-02  4488   0.178E-01    0.699E-02
RMM:   2    -0.232407234336E+04   -0.14601E-03   -0.17894E-03  5582   0.305E-02    0.351E-02
RMM:   3    -0.232407232988E+04    0.13482E-04   -0.12626E-04  3185   0.122E-02    0.207E-02
RMM:   4    -0.232407233535E+04   -0.54686E-05   -0.39585E-05  2980   0.494E-03
 170 F= -.23449701E+04 E0= -.23449701E+04  d E =-.191934E-03  mag=     6.0000
       N       E                     dE             d eps       ncg     rms          rms(c)
DAV:   1    -0.232407230976E+04    0.20114E-04   -0.13914E-02  4720   0.818E-02    0.319E-02
RMM:   2    -0.232407234389E+04   -0.34123E-04   -0.39806E-04  4779   0.155E-02    0.160E-02
RMM:   3    -0.232407234175E+04    0.21371E-05   -0.28230E-05  2922   0.711E-03
 171 F= -.23449701E+04 E0= -.23449701E+04  d E =-.197078E-03  mag=     6.0000
       N       E                     dE             d eps       ncg     rms          rms(c)
DAV:   1    -0.232407242998E+04   -0.86092E-04   -0.55195E-02  4488   0.181E-01    0.709E-02
RMM:   2    -0.232407254887E+04   -0.11889E-03   -0.14857E-03  5455   0.305E-02    0.337E-02
RMM:   3    -0.232407254518E+04    0.36919E-05   -0.11853E-04  3225   0.126E-02    0.376E-02
RMM:   4    -0.232407253505E+04    0.10131E-04   -0.31204E-05  2936   0.490E-03    0.213E-02
RMM:   5    -0.232407253275E+04    0.22968E-05   -0.17745E-05  2903   0.395E-03
 172 F= -.23449703E+04 E0= -.23449703E+04  d E =-.208850E-03  mag=     6.0000
       N       E                     dE             d eps       ncg     rms          rms(c)
DAV:   1    -0.232407251462E+04    0.20429E-04   -0.62251E-03  4960   0.609E-02    0.240E-02
RMM:   2    -0.232407252868E+04   -0.14060E-04   -0.17194E-04  4000   0.121E-02    0.109E-02
RMM:   3    -0.232407252813E+04    0.54894E-06   -0.15247E-05  2898   0.645E-03
 173 F= -.23449703E+04 E0= -.23449703E+04  d E =-.210289E-03  mag=     6.0000
       N       E                     dE             d eps       ncg     rms          rms(c)
DAV:   1    -0.232407256567E+04   -0.36992E-04   -0.42967E-02  4472   0.157E-01    0.614E-02
RMM:   2    -0.232407267096E+04   -0.10529E-03   -0.12260E-03  5430   0.265E-02    0.420E-02
RMM:   3    -0.232407267417E+04   -0.32131E-05   -0.12414E-04  3110   0.116E-02    0.511E-02
RMM:   4    -0.232407265232E+04    0.21850E-04   -0.28879E-05  2923   0.443E-03    0.170E-02
RMM:   5    -0.232407265309E+04   -0.76932E-06   -0.14647E-05  2903   0.328E-03
 174 F= -.23449704E+04 E0= -.23449704E+04  d E =-.138699E-03  mag=     6.0000
       N       E                     dE             d eps       ncg     rms          rms(c)
DAV:   1    -0.232407264031E+04    0.12014E-04   -0.27596E-03  5152   0.401E-02    0.156E-02
RMM:   2    -0.232407264731E+04   -0.69994E-05   -0.82372E-05  3279   0.809E-03
 175 F= -.23449704E+04 E0= -.23449704E+04  d E =-.136475E-03  mag=     6.0000
       N       E                     dE             d eps       ncg     rms          rms(c)
DAV:   1    -0.232407270147E+04   -0.61168E-04   -0.40839E-02  4488   0.157E-01    0.611E-02
RMM:   2    -0.232407281112E+04   -0.10964E-03   -0.13233E-03  5803   0.301E-02    0.348E-02
RMM:   3    -0.232407281131E+04   -0.18945E-06   -0.12070E-04  3280   0.117E-02    0.383E-02
RMM:   4    -0.232407279624E+04    0.15067E-04   -0.25341E-05  2936   0.485E-03    0.168E-02
RMM:   5    -0.232407279685E+04   -0.60613E-06   -0.15140E-05  2902   0.352E-03
 176 F= -.23449706E+04 E0= -.23449706E+04  d E =-.157383E-03  mag=     6.0000
       N       E                     dE             d eps       ncg     rms          rms(c)
DAV:   1    -0.232407278259E+04    0.13647E-04   -0.35745E-03  5088   0.467E-02    0.183E-02
RMM:   2    -0.232407279238E+04   -0.97818E-05   -0.11729E-04  3642   0.974E-03    0.105E-02
RMM:   3    -0.232407279322E+04   -0.84263E-06   -0.12835E-05  2880   0.557E-03
 177 F= -.23449706E+04 E0= -.23449706E+04  d E =-.156108E-03  mag=     6.0000
       N       E                     dE             d eps       ncg     rms          rms(c)
DAV:   1    -0.232407279910E+04   -0.67213E-05   -0.42034E-02  4488   0.154E-01    0.594E-02
RMM:   2    -0.232407292772E+04   -0.12862E-03   -0.15006E-03  5722   0.279E-02    0.351E-02
RMM:   3    -0.232407293283E+04   -0.51133E-05   -0.12681E-04  3077   0.111E-02    0.440E-02
RMM:   4    -0.232407291830E+04    0.14533E-04   -0.28338E-05  2937   0.420E-03    0.193E-02
RMM:   5    -0.232407291740E+04    0.89876E-06   -0.13153E-05  2909   0.314E-03
 178 F= -.23449707E+04 E0= -.23449707E+04  d E =-.126569E-03  mag=     6.0000
       N       E                     dE             d eps       ncg     rms          rms(c)
DAV:   1    -0.232407290852E+04    0.97733E-05   -0.20076E-03  5064   0.342E-02    0.137E-02
RMM:   2    -0.232407291578E+04   -0.72547E-05   -0.78366E-05  3222   0.731E-03
 179 F= -.23449707E+04 E0= -.23449707E+04  d E =-.125497E-03  mag=     6.0000
       N       E                     dE             d eps       ncg     rms          rms(c)
DAV:   1    -0.232407295503E+04   -0.46508E-04   -0.39234E-02  4488   0.151E-01    0.591E-02
RMM:   2    -0.232407308541E+04   -0.13038E-03   -0.15172E-03  5954   0.296E-02    0.341E-02
RMM:   3    -0.232407308750E+04   -0.20921E-05   -0.13630E-04  3187   0.113E-02    0.341E-02
RMM:   4    -0.232407307593E+04    0.11566E-04   -0.26015E-05  2931   0.464E-03    0.172E-02
RMM:   5    -0.232407307629E+04   -0.35693E-06   -0.14253E-05  2889   0.330E-03
 180 F= -.23449708E+04 E0= -.23449708E+04  d E =-.159038E-03  mag=     6.0000
       N       E                     dE             d eps       ncg     rms          rms(c)
DAV:   1    -0.232407304771E+04    0.28227E-04   -0.10322E-02  4592   0.773E-02    0.299E-02
RMM:   2    -0.232407308269E+04   -0.34984E-04   -0.40339E-04  5048   0.156E-02    0.170E-02
RMM:   3    -0.232407308408E+04   -0.13954E-05   -0.37400E-05  2930   0.688E-03
 181 F= -.23449709E+04 E0= -.23449709E+04  d E =-.166119E-03  mag=     6.0000
       N       E                     dE             d eps       ncg     rms          rms(c)
DAV:   1    -0.232407311915E+04   -0.36462E-04   -0.30482E-02  4488   0.121E-01    0.478E-02
RMM:   2    -0.232407322321E+04   -0.10406E-03   -0.11912E-03  5712   0.228E-02    0.286E-02
RMM:   3    -0.232407322720E+04   -0.39868E-05   -0.10464E-04  2976   0.885E-03    0.304E-02
RMM:   4    -0.232407322225E+04    0.49483E-05   -0.21030E-05  2922   0.344E-03
 182 F= -.23449710E+04 E0= -.23449710E+04  d E =-.115722E-03  mag=     6.0000
       N       E                     dE             d eps       ncg     rms          rms(c)
DAV:   1    -0.232407319140E+04    0.35795E-04   -0.24623E-02  4488   0.108E-01    0.430E-02
RMM:   2    -0.232407327529E+04   -0.83890E-04   -0.95462E-04  5677   0.200E-02    0.258E-02
RMM:   3    -0.232407327775E+04   -0.24539E-05   -0.80700E-05  2972   0.861E-03
 183 F= -.23449710E+04 E0= -.23449710E+04  d E =-.151042E-03  mag=     6.0000
       N       E                     dE             d eps       ncg     rms          rms(c)
DAV:   1    -0.232407334054E+04   -0.65244E-04   -0.42628E-02  4488   0.160E-01    0.672E-02
RMM:   2    -0.232407347618E+04   -0.13564E-03   -0.15571E-03  5720   0.286E-02    0.506E-02
RMM:   3    -0.232407348125E+04   -0.50713E-05   -0.14944E-04  3040   0.106E-02    0.562E-02
RMM:   4    -0.232407345576E+04    0.25486E-04   -0.37259E-05  2937   0.470E-03    0.187E-02
RMM:   5    -0.232407345643E+04   -0.66726E-06   -0.18153E-05  2916   0.370E-03
 184 F= -.23449712E+04 E0= -.23449712E+04  d E =-.184444E-03  mag=     6.0000
       N       E                     dE             d eps       ncg     rms          rms(c)
DAV:   1    -0.232407343363E+04    0.22137E-04   -0.82307E-03  4832   0.705E-02    0.280E-02
RMM:   2    -0.232407345942E+04   -0.25789E-04   -0.30690E-04  4666   0.141E-02    0.145E-02
RMM:   3    -0.232407345979E+04   -0.37685E-06   -0.27933E-05  2916   0.687E-03
 185 F= -.23449712E+04 E0= -.23449712E+04  d E =-.190377E-03  mag=     6.0000
       N       E                     dE             d eps       ncg     rms          rms(c)
DAV:   1    -0.232407345149E+04    0.79289E-05   -0.35458E-02  4488   0.133E-01    0.529E-02
RMM:   2    -0.232407355183E+04   -0.10034E-03   -0.12003E-03  5620   0.245E-02    0.282E-02
RMM:   3    -0.232407354890E+04    0.29256E-05   -0.89949E-05  3005   0.960E-03
 186 F= -.23449713E+04 E0= -.23449713E+04  d E =-.128421E-03  mag=     6.0000
       N       E                     dE             d eps       ncg     rms          rms(c)
DAV:   1    -0.232407351589E+04    0.35934E-04   -0.89395E-03  4616   0.671E-02    0.413E-02
RMM:   2    -0.232407358530E+04   -0.69407E-04   -0.40476E-04  4685   0.134E-02    0.813E-02
RMM:   3    -0.232407353579E+04    0.49508E-04   -0.71195E-05  2946   0.717E-03    0.185E-02
RMM:   4    -0.232407353277E+04    0.30234E-05   -0.10850E-05  2906   0.253E-03
 187 F= -.23449713E+04 E0= -.23449713E+04  d E =-.132230E-03  mag=     6.0000
       N       E                     dE             d eps       ncg     rms          rms(c)
DAV:   1    -0.232407356853E+04   -0.32733E-04   -0.31777E-02  4488   0.132E-01    0.517E-02
RMM:   2    -0.232407365371E+04   -0.85181E-04   -0.10126E-03  5555   0.235E-02    0.264E-02
RMM:   3    -0.232407365515E+04   -0.14447E-05   -0.88651E-05  2991   0.101E-02
 188 F= -.23449715E+04 E0= -.23449715E+04  d E =-.148771E-03  mag=     6.0000
       N       E                     dE             d eps       ncg     rms          rms(c)
DAV:   1    -0.232407361023E+04    0.43472E-04   -0.16719E-02  4512   0.963E-02    0.447E-02
RMM:   2    -0.232407365672E+04   -0.46481E-04   -0.55719E-04  5167   0.176E-02    0.380E-02
RMM:   3    -0.232407365539E+04    0.13227E-05   -0.62491E-05  2961   0.805E-03
 189 F= -.23449715E+04 E0= -.23449715E+04  d E =-.168271E-03  mag=     6.0000
       N       E                     dE             d eps       ncg     rms          rms(c)
DAV:   1    -0.232407373370E+04   -0.76988E-04   -0.29248E-02  4488   0.128E-01    0.543E-02
RMM:   2    -0.232407381758E+04   -0.83875E-04   -0.97912E-04  5535   0.238E-02    0.369E-02
RMM:   3    -0.232407381981E+04   -0.22346E-05   -0.92471E-05  3007   0.936E-03
 190 F= -.23449717E+04 E0= -.23449717E+04  d E =-.153846E-03  mag=     6.0000
       N       E                     dE             d eps       ncg     rms          rms(c)
DAV:   1    -0.232407379542E+04    0.22159E-04   -0.13881E-02  4592   0.886E-02    0.446E-02
RMM:   2    -0.232407384457E+04   -0.49156E-04   -0.49469E-04  5126   0.169E-02    0.508E-02
RMM:   3    -0.232407383196E+04    0.12618E-04   -0.64854E-05  2950   0.776E-03    0.313E-02
RMM:   4    -0.232407382428E+04    0.76737E-05   -0.15862E-05  2909   0.334E-03
 191 F= -.23449716E+04 E0= -.23449716E+04  d E =-.151037E-03  mag=     6.0000
       N       E                     dE             d eps       ncg     rms          rms(c)
DAV:   1    -0.232407386873E+04   -0.36777E-04   -0.37366E-02  4488   0.147E-01    0.578E-02
RMM:   2    -0.232407397592E+04   -0.10718E-03   -0.12692E-03  5669   0.265E-02    0.311E-02
RMM:   3    -0.232407397935E+04   -0.34331E-05   -0.10999E-04  3039   0.108E-02    0.360E-02
RMM:   4    -0.232407396847E+04    0.10883E-04   -0.25091E-05  2927   0.428E-03    0.176E-02
RMM:   5    -0.232407396803E+04    0.43295E-06   -0.13079E-05  2879   0.315E-03
 192 F= -.23449718E+04 E0= -.23449718E+04  d E =-.133389E-03  mag=     6.0000
       N       E                     dE             d eps       ncg     rms          rms(c)
DAV:   1    -0.232407396134E+04    0.71293E-05   -0.27669E-03  5064   0.401E-02    0.157E-02
RMM:   2    -0.232407396958E+04   -0.82469E-05   -0.97053E-05  3378   0.823E-03
 193 F= -.23449718E+04 E0= -.23449718E+04  d E =-.132111E-03  mag=     6.0000
       N       E                     dE             d eps       ncg     rms          rms(c)
DAV:   1    -0.232407400134E+04   -0.40005E-04   -0.29585E-02  4488   0.137E-01    0.552E-02
RMM:   2    -0.232407408915E+04   -0.87811E-04   -0.10383E-03  5791   0.270E-02    0.353E-02
RMM:   3    -0.232407409713E+04   -0.79814E-05   -0.10630E-04  3150   0.102E-02    0.486E-02
RMM:   4    -0.232407407792E+04    0.19217E-04   -0.22265E-05  2909   0.428E-03    0.134E-02
RMM:   5    -0.232407407619E+04    0.17241E-05   -0.10373E-05  2887   0.307E-03
 194 F= -.23449719E+04 E0= -.23449719E+04  d E =-.116142E-03  mag=     6.0000
       N       E                     dE             d eps       ncg     rms          rms(c)
DAV:   1    -0.232407407140E+04    0.65195E-05   -0.12511E-03  5120   0.284E-02    0.120E-02
RMM:   2    -0.232407407606E+04   -0.46599E-05   -0.47511E-05  3031   0.625E-03
 195 F= -.23449719E+04 E0= -.23449719E+04  d E =-.117998E-03  mag=     6.0000
       N       E                     dE             d eps       ncg     rms          rms(c)
DAV:   1    -0.232407409429E+04   -0.22898E-04   -0.24417E-02  4488   0.123E-01    0.486E-02
RMM:   2    -0.232407416701E+04   -0.72713E-04   -0.86462E-04  5644   0.242E-02    0.262E-02
RMM:   3    -0.232407416761E+04   -0.59808E-06   -0.79565E-05  3047   0.971E-03
 196 F= -.23449720E+04 E0= -.23449720E+04  d E =-.122180E-03  mag=     6.0000
       N       E                     dE             d eps       ncg     rms          rms(c)
DAV:   1    -0.232407413823E+04    0.28778E-04   -0.43103E-03  4920   0.524E-02    0.268E-02
RMM:   2    -0.232407415030E+04   -0.12068E-04   -0.15864E-04  3859   0.106E-02    0.217E-02
RMM:   3    -0.232407415036E+04   -0.58208E-07   -0.22270E-05  2925   0.583E-03
 197 F= -.23449720E+04 E0= -.23449720E+04  d E =-.117984E-03  mag=     6.0000
       N       E                     dE             d eps       ncg     rms          rms(c)
DAV:   1    -0.232407417713E+04   -0.26829E-04   -0.24773E-02  4488   0.117E-01    0.467E-02
RMM:   2    -0.232407424703E+04   -0.69904E-04   -0.83613E-04  5448   0.213E-02    0.265E-02
RMM:   3    -0.232407425025E+04   -0.32165E-05   -0.74550E-05  2981   0.913E-03
 198 F= -.23449721E+04 E0= -.23449721E+04  d E =-.974851E-04  mag=     6.0000
       N       E                     dE             d eps       ncg     rms          rms(c)
DAV:   1    -0.232407423758E+04    0.94496E-05   -0.10674E-03  5240   0.253E-02    0.199E-02
RMM:   2    -0.232407424489E+04   -0.73085E-05   -0.50301E-05  3010   0.542E-03
 199 F= -.23449721E+04 E0= -.23449721E+04  d E =-.916419E-04  mag=     6.0000
       N       E                     dE             d eps       ncg     rms          rms(c)
DAV:   1    -0.232407428482E+04   -0.47239E-04   -0.22134E-02  4488   0.113E-01    0.463E-02
RMM:   2    -0.232407434472E+04   -0.59903E-04   -0.72031E-04  5311   0.213E-02    0.279E-02
RMM:   3    -0.232407435058E+04   -0.58567E-05   -0.72053E-05  3011   0.979E-03
 200 F= -.23449722E+04 E0= -.23449722E+04  d E =-.104456E-03  mag=     6.0000
       N       E                     dE             d eps       ncg     rms          rms(c)
DAV:   1    -0.232407432245E+04    0.22269E-04   -0.11030E-02  4536   0.799E-02    0.372E-02
RMM:   2    -0.232407435212E+04   -0.29669E-04   -0.36445E-04  4697   0.150E-02    0.293E-02
RMM:   3    -0.232407435333E+04   -0.12027E-05   -0.43302E-05  2957   0.708E-03
 201 F= -.23449722E+04 E0= -.23449722E+04  d E =-.106357E-03  mag=     6.0000
