       N       E                     dE             d eps       ncg     rms          rms(c)
DAV:   1     0.127453596072E+05    0.12745E+05   -0.82953E+05  4432   0.144E+03
DAV:   2    -0.106086862570E+04   -0.13806E+05   -0.13234E+05  5304   0.330E+02
DAV:   3    -0.246956059336E+04   -0.14087E+04   -0.13956E+04  5344   0.111E+02
DAV:   4    -0.251595216626E+04   -0.46392E+02   -0.46172E+02  6672   0.301E+01
DAV:   5    -0.251680381171E+04   -0.85165E+00   -0.85026E+00  5560   0.326E+00    0.170E+02
RMM:   6    -0.147620321132E+04    0.10406E+04   -0.19418E+03  4394   0.387E+01    0.724E+01
RMM:   7    -0.164915029295E+04   -0.17295E+03   -0.28409E+02  5002   0.139E+01    0.492E+01
RMM:   8    -0.170105944330E+04   -0.51909E+02   -0.45635E+01  5223   0.702E+00    0.406E+01
RMM:   9    -0.179730316665E+04   -0.96244E+02   -0.66323E+01  4996   0.788E+00    0.347E+01
RMM:  10    -0.192431175149E+04   -0.12701E+03   -0.61363E+01  5280   0.748E+00    0.193E+01
RMM:  11    -0.202607161667E+04   -0.10176E+03   -0.41500E+01  4950   0.506E+00    0.153E+01
RMM:  12    -0.214897538682E+04   -0.12290E+03   -0.77133E+01  4618   0.655E+00    0.108E+01
RMM:  13    -0.226305601309E+04   -0.11408E+03   -0.10459E+02  4456   0.705E+00    0.101E+01
RMM:  14    -0.229381195392E+04   -0.30756E+02   -0.29960E+01  4521   0.459E+00    0.445E+00
RMM:  15    -0.230764080607E+04   -0.13829E+02   -0.16045E+01  4622   0.267E+00    0.517E+00
RMM:  16    -0.230830998761E+04   -0.66918E+00   -0.14687E+00  4979   0.139E+00    0.430E+00
RMM:  17    -0.230961884906E+04   -0.13089E+01   -0.72821E-01  4446   0.544E-01    0.310E+00
RMM:  18    -0.231105610837E+04   -0.14373E+01   -0.10519E+00  4458   0.666E-01    0.128E+00
RMM:  19    -0.231138084323E+04   -0.32473E+00   -0.29614E-01  4867   0.374E-01    0.976E-01
RMM:  20    -0.231150471416E+04   -0.12387E+00   -0.11337E-01  4852   0.188E-01    0.425E-01
RMM:  21    -0.231157698763E+04   -0.72273E-01   -0.39189E-02  4722   0.135E-01    0.341E-01
RMM:  22    -0.231161984815E+04   -0.42861E-01   -0.13334E-02  4611   0.893E-02    0.179E-01
RMM:  23    -0.231164773547E+04   -0.27887E-01   -0.65270E-03  4448   0.595E-02    0.125E-01
RMM:  24    -0.231166697799E+04   -0.19243E-01   -0.47119E-03  4438   0.502E-02    0.773E-02
RMM:  25    -0.231167459268E+04   -0.76147E-02   -0.20336E-03  4776   0.364E-02    0.447E-02
RMM:  26    -0.231167845893E+04   -0.38663E-02   -0.10844E-03  4327   0.215E-02    0.240E-02
RMM:  27    -0.231168016366E+04   -0.17047E-02   -0.39567E-04  4000   0.165E-02    0.137E-02
RMM:  28    -0.231168079156E+04   -0.62790E-03   -0.19570E-04  3824   0.953E-03    0.814E-03
RMM:  29    -0.231168094423E+04   -0.15266E-03   -0.48973E-05  3491   0.704E-03    0.444E-03
RMM:  30    -0.231168099118E+04   -0.46954E-04   -0.16345E-05  2961   0.375E-03    0.217E-03
RMM:  31    -0.231168101047E+04   -0.19291E-04   -0.63390E-06  2808   0.315E-03    0.137E-03
RMM:  32    -0.231168102053E+04   -0.10062E-04   -0.44945E-06  2642   0.232E-03    0.780E-04
RMM:  33    -0.231168102239E+04   -0.18627E-05   -0.19098E-06  2415   0.187E-03
   1 F= -.23320901E+04 E0= -.23320901E+04  d E =-.233209E+04  mag=     3.0000
       N       E                     dE             d eps       ncg     rms          rms(c)
DAV:   1    -0.231166104827E+04    0.19972E-01   -0.86880E+00  4976   0.248E+00    0.114E+00
RMM:   2    -0.231184949829E+04   -0.18845E+00   -0.18570E+00  6322   0.624E-01    0.161E+00
RMM:   3    -0.231184979623E+04   -0.29794E-03   -0.20875E-01  5928   0.227E-01    0.956E-01
RMM:   4    -0.231184322845E+04    0.65678E-02   -0.18208E-02  5856   0.507E-02    0.325E-01
RMM:   5    -0.231184163568E+04    0.15928E-02   -0.34081E-03  5587   0.303E-02    0.186E-01
RMM:   6    -0.231184135949E+04    0.27619E-03   -0.17751E-03  5297   0.242E-02    0.691E-02
RMM:   7    -0.231184132535E+04    0.34140E-04   -0.17983E-04  4136   0.112E-02    0.327E-02
RMM:   8    -0.231184130485E+04    0.20499E-04   -0.57324E-05  2983   0.582E-03    0.148E-02
RMM:   9    -0.231184129986E+04    0.49911E-05   -0.32027E-05  2925   0.432E-03
   2 F= -.23322513E+04 E0= -.23322513E+04  d E =-.161214E+00  mag=     3.0000
       N       E                     dE             d eps       ncg     rms          rms(c)
DAV:   1    -0.231149242482E+04    0.34888E+00   -0.21030E+01  4576   0.386E+00    0.181E+00
RMM:   2    -0.231196408353E+04   -0.47166E+00   -0.45702E+00  6312   0.995E-01    0.284E+00
RMM:   3    -0.231195630673E+04    0.77768E-02   -0.51958E-01  6039   0.341E-01    0.155E+00
RMM:   4    -0.231193882452E+04    0.17482E-01   -0.46093E-02  5979   0.789E-02    0.517E-01
RMM:   5    -0.231193482192E+04    0.40026E-02   -0.93707E-03  5707   0.487E-02    0.320E-01
RMM:   6    -0.231193400235E+04    0.81957E-03   -0.43607E-03  5404   0.374E-02    0.863E-02
RMM:   7    -0.231193398346E+04    0.18894E-04   -0.39965E-04  4616   0.158E-02    0.617E-02
RMM:   8    -0.231193393017E+04    0.53287E-04   -0.14848E-04  3467   0.866E-03    0.246E-02
RMM:   9    -0.231193391719E+04    0.12980E-04   -0.77435E-05  3292   0.596E-03    0.109E-02
RMM:  10    -0.231193391690E+04    0.29596E-06   -0.15637E-05  2867   0.450E-03
   3 F= -.23323458E+04 E0= -.23323458E+04  d E =-.255744E+00  mag=     3.0000
       N       E                     dE             d eps       ncg     rms          rms(c)
DAV:   1    -0.231187193603E+04    0.61981E-01   -0.10666E+01  4544   0.319E+00    0.148E+00
RMM:   2    -0.231206481927E+04   -0.19288E+00   -0.16943E+00  6021   0.736E-01    0.252E+00
RMM:   3    -0.231202639109E+04    0.38428E-01   -0.16672E-01  5858   0.269E-01    0.864E-01
RMM:   4    -0.231202041080E+04    0.59803E-02   -0.20912E-02  4904   0.674E-02    0.309E-01
RMM:   5    -0.231201918532E+04    0.12255E-02   -0.42865E-03  5307   0.504E-02    0.324E-01
RMM:   6    -0.231201829097E+04    0.89436E-03   -0.28598E-03  5559   0.338E-02    0.693E-02
RMM:   7    -0.231201822620E+04    0.64769E-04   -0.32005E-04  4201   0.164E-02    0.425E-02
RMM:   8    -0.231201818477E+04    0.41433E-04   -0.63099E-05  3363   0.633E-03    0.189E-02
RMM:   9    -0.231201816722E+04    0.17541E-04   -0.40305E-05  3150   0.576E-03    0.127E-02
RMM:  10    -0.231201816346E+04    0.37666E-05   -0.12155E-05  2832   0.469E-03
   4 F= -.23324308E+04 E0= -.23324308E+04  d E =-.849575E-01  mag=     3.0000
       N       E                     dE             d eps       ncg     rms          rms(c)
DAV:   1    -0.231201253831E+04    0.56289E-02   -0.65960E-01  4888   0.795E-01    0.370E-01
RMM:   2    -0.231202453565E+04   -0.11997E-01   -0.10459E-01  6015   0.182E-01    0.657E-01
RMM:   3    -0.231202197343E+04    0.25622E-02   -0.99729E-03  5754   0.644E-02    0.210E-01
RMM:   4    -0.231202161356E+04    0.35987E-03   -0.12894E-03  4526   0.168E-02    0.771E-02
RMM:   5    -0.231202152765E+04    0.85911E-04   -0.27283E-04  4850   0.132E-02    0.741E-02
RMM:   6    -0.231202147503E+04    0.52618E-04   -0.16782E-04  4412   0.936E-03    0.135E-02
RMM:   7    -0.231202147157E+04    0.34652E-05   -0.21409E-05  2871   0.587E-03
   5 F= -.23324343E+04 E0= -.23324343E+04  d E =-.884381E-01  mag=     3.0000
       N       E                     dE             d eps       ncg     rms          rms(c)
DAV:   1    -0.231188347003E+04    0.13801E+00   -0.83467E+00  4496   0.230E+00    0.107E+00
RMM:   2    -0.231208928714E+04   -0.20582E+00   -0.21394E+00  6422   0.625E-01    0.120E+00
RMM:   3    -0.231210802709E+04   -0.18740E-01   -0.27653E-01  6099   0.225E-01    0.990E-01
RMM:   4    -0.231210288093E+04    0.51462E-02   -0.24693E-02  5870   0.538E-02    0.316E-01
RMM:   5    -0.231210178627E+04    0.10947E-02   -0.29369E-03  5389   0.274E-02    0.190E-01
RMM:   6    -0.231210166827E+04    0.11800E-03   -0.14365E-03  5301   0.214E-02    0.164E-01
RMM:   7    -0.231210151091E+04    0.15736E-03   -0.48343E-04  4495   0.147E-02    0.411E-02
RMM:   8    -0.231210150036E+04    0.10555E-04   -0.58437E-05  2950   0.561E-03    0.239E-02
RMM:   9    -0.231210149225E+04    0.81033E-05   -0.26714E-05  2843   0.440E-03
   6 F= -.23325148E+04 E0= -.23325148E+04  d E =-.805685E-01  mag=     3.0000
       N       E                     dE             d eps       ncg     rms          rms(c)
DAV:   1    -0.231168208915E+04    0.41941E+00   -0.17582E+01  4448   0.334E+00    0.156E+00
RMM:   2    -0.231211381128E+04   -0.43172E+00   -0.45410E+00  6403   0.910E-01    0.154E+00
RMM:   3    -0.231216330282E+04   -0.49492E-01   -0.61757E-01  6047   0.337E-01    0.151E+00
RMM:   4    -0.231215117326E+04    0.12130E-01   -0.52767E-02  6007   0.796E-02    0.475E-01
RMM:   5    -0.231214917783E+04    0.19954E-02   -0.66611E-03  5641   0.403E-02    0.306E-01
RMM:   6    -0.231214877621E+04    0.40162E-03   -0.33844E-03  5494   0.292E-02    0.266E-01
RMM:   7    -0.231214833799E+04    0.43823E-03   -0.14352E-03  5107   0.237E-02    0.709E-02
RMM:   8    -0.231214832516E+04    0.12823E-04   -0.22072E-04  3603   0.922E-03    0.463E-02
RMM:   9    -0.231214829958E+04    0.25578E-04   -0.63466E-05  2947   0.659E-03    0.187E-02
RMM:  10    -0.231214829453E+04    0.50575E-05   -0.28712E-05  2878   0.392E-03
   7 F= -.23325624E+04 E0= -.23325624E+04  d E =-.128157E+00  mag=     3.0000
       N       E                     dE             d eps       ncg     rms          rms(c)
DAV:   1    -0.231200212281E+04    0.14618E+00   -0.94438E+00  4448   0.257E+00    0.113E+00
RMM:   2    -0.231218658988E+04   -0.18447E+00   -0.20232E+00  6048   0.607E-01    0.585E-01
RMM:   3    -0.231220804722E+04   -0.21457E-01   -0.25753E-01  5709   0.244E-01    0.427E-01
RMM:   4    -0.231220895802E+04   -0.91080E-03   -0.22592E-02  5724   0.507E-02    0.414E-01
RMM:   5    -0.231220852418E+04    0.43384E-03   -0.36741E-03  5540   0.319E-02    0.364E-01
RMM:   6    -0.231220753416E+04    0.99002E-03   -0.17829E-03  5159   0.227E-02    0.125E-01
RMM:   7    -0.231220750865E+04    0.25507E-04   -0.34662E-04  4425   0.152E-02    0.837E-02
RMM:   8    -0.231220745536E+04    0.53292E-04   -0.12292E-04  3552   0.780E-03    0.253E-02
RMM:   9    -0.231220744692E+04    0.84458E-05   -0.22565E-05  2870   0.553E-03
   8 F= -.23326222E+04 E0= -.23326222E+04  d E =-.597764E-01  mag=     3.0000
       N       E                     dE             d eps       ncg     rms          rms(c)
DAV:   1    -0.231214572959E+04    0.61726E-01   -0.32869E+00  4464   0.151E+00    0.664E-01
RMM:   2    -0.231220991942E+04   -0.64190E-01   -0.70182E-01  6057   0.355E-01    0.354E-01
RMM:   3    -0.231221708922E+04   -0.71698E-02   -0.84702E-02  5703   0.141E-01    0.317E-01
RMM:   4    -0.231221737294E+04   -0.28372E-03   -0.80796E-03  5636   0.294E-02    0.276E-01
RMM:   5    -0.231221692018E+04    0.45276E-03   -0.13535E-03  5200   0.203E-02    0.172E-01
RMM:   6    -0.231221671434E+04    0.20584E-03   -0.58885E-04  4930   0.146E-02    0.714E-02
RMM:   7    -0.231221669921E+04    0.15130E-04   -0.80209E-05  3454   0.909E-03    0.394E-02
RMM:   8    -0.231221668694E+04    0.12278E-04   -0.37292E-05  2941   0.487E-03    0.195E-02
RMM:   9    -0.231221668371E+04    0.32204E-05   -0.87029E-06  2837   0.375E-03
   9 F= -.23326318E+04 E0= -.23326318E+04  d E =-.693430E-01  mag=     3.0000
       N       E                     dE             d eps       ncg     rms          rms(c)
DAV:   1    -0.231214556684E+04    0.71120E-01   -0.59509E+00  4432   0.198E+00    0.845E-01
RMM:   2    -0.231225447777E+04   -0.10891E+00   -0.11818E+00  6215   0.465E-01    0.561E-01
RMM:   3    -0.231226814315E+04   -0.13665E-01   -0.14531E-01  5971   0.180E-01    0.745E-01
RMM:   4    -0.231226543884E+04    0.27043E-02   -0.13723E-02  5987   0.406E-02    0.305E-01
RMM:   5    -0.231226483523E+04    0.60361E-03   -0.18971E-03  5130   0.217E-02    0.164E-01
RMM:   6    -0.231226463739E+04    0.19784E-03   -0.11746E-03  5127   0.195E-02    0.700E-02
RMM:   7    -0.231226462092E+04    0.16467E-04   -0.15763E-04  3920   0.117E-02    0.310E-02
RMM:   8    -0.231226460855E+04    0.12377E-04   -0.38947E-05  3012   0.452E-03    0.110E-02
RMM:   9    -0.231226460788E+04    0.66639E-06   -0.76129E-06  2860   0.336E-03
  10 F= -.23326797E+04 E0= -.23326797E+04  d E =-.479002E-01  mag=     3.0000
       N       E                     dE             d eps       ncg     rms          rms(c)
DAV:   1    -0.231168118676E+04    0.58342E+00   -0.30476E+01  4408   0.449E+00    0.198E+00
RMM:   2    -0.231228034108E+04   -0.59915E+00   -0.63283E+00  6242   0.108E+00    0.213E+00
RMM:   3    -0.231232900564E+04   -0.48665E-01   -0.79794E-01  6053   0.422E-01    0.182E+00
RMM:   4    -0.231231150358E+04    0.17502E-01   -0.70842E-02  6093   0.962E-02    0.673E-01
RMM:   5    -0.231230922414E+04    0.22794E-02   -0.10504E-02  5568   0.503E-02    0.417E-01
RMM:   6    -0.231230842732E+04    0.79681E-03   -0.67710E-03  5143   0.426E-02    0.243E-01
RMM:   7    -0.231230824995E+04    0.17737E-03   -0.15384E-03  4917   0.317E-02    0.120E-01
RMM:   8    -0.231230811121E+04    0.13874E-03   -0.44337E-04  4289   0.127E-02    0.445E-02
RMM:   9    -0.231230810578E+04    0.54336E-05   -0.97626E-05  3462   0.785E-03
  11 F= -.23327229E+04 E0= -.23327229E+04  d E =-.911606E-01  mag=     3.0000
       N       E                     dE             d eps       ncg     rms          rms(c)
DAV:   1    -0.231228783771E+04    0.20273E-01   -0.37603E+00  4528   0.155E+00    0.649E-01
RMM:   2    -0.231234621532E+04   -0.58378E-01   -0.62496E-01  6147   0.354E-01    0.509E-01
RMM:   3    -0.231235334672E+04   -0.71314E-02   -0.71942E-02  5916   0.129E-01    0.670E-01
RMM:   4    -0.231235114481E+04    0.22019E-02   -0.73499E-03  5759   0.319E-02    0.244E-01
RMM:   5    -0.231235089273E+04    0.25208E-03   -0.12450E-03  4770   0.186E-02    0.134E-01
RMM:   6    -0.231235087987E+04    0.12851E-04   -0.66906E-04  4818   0.157E-02    0.701E-02
RMM:   7    -0.231235086208E+04    0.17798E-04   -0.89016E-05  3184   0.839E-03    0.349E-02
RMM:   8    -0.231235085394E+04    0.81348E-05   -0.38376E-05  2917   0.443E-03
  12 F= -.23327657E+04 E0= -.23327657E+04  d E =-.427779E-01  mag=     3.0000
       N       E                     dE             d eps       ncg     rms          rms(c)
DAV:   1    -0.231184538520E+04    0.50548E+00   -0.33662E+01  4408   0.464E+00    0.202E+00
RMM:   2    -0.231241312719E+04   -0.56774E+00   -0.59079E+00  6193   0.110E+00    0.233E+00
RMM:   3    -0.231244430378E+04   -0.31177E-01   -0.70192E-01  5958   0.410E-01    0.170E+00
RMM:   4    -0.231243184369E+04    0.12460E-01   -0.63821E-02  5985   0.950E-02    0.728E-01
RMM:   5    -0.231243001477E+04    0.18289E-02   -0.10686E-02  5276   0.557E-02    0.448E-01
RMM:   6    -0.231242999472E+04    0.20047E-04   -0.64417E-03  5232   0.429E-02    0.314E-01
RMM:   7    -0.231242969771E+04    0.29701E-03   -0.17114E-03  5091   0.293E-02    0.175E-01
RMM:   8    -0.231242957070E+04    0.12700E-03   -0.74118E-04  4391   0.140E-02    0.124E-01
RMM:   9    -0.231242947322E+04    0.97477E-04   -0.58260E-04  4016   0.124E-02    0.497E-02
RMM:  10    -0.231242948388E+04   -0.10658E-04   -0.82373E-05  3112   0.682E-03    0.369E-02
RMM:  11    -0.231242949777E+04   -0.13890E-04   -0.65677E-05  2955   0.551E-03    0.253E-02
RMM:  12    -0.231242950151E+04   -0.37368E-05   -0.37432E-05  2853   0.405E-03
  13 F= -.23328440E+04 E0= -.23328439E+04  d E =-.121061E+00  mag=     3.0000
       N       E                     dE             d eps       ncg     rms          rms(c)
DAV:   1    -0.230980277816E+04    0.26267E+01   -0.13347E+02  4400   0.933E+00    0.417E+00
RMM:   2    -0.231262462268E+04   -0.28218E+01   -0.26476E+01  6324   0.235E+00    0.811E+00
RMM:   3    -0.231232799147E+04    0.29663E+00   -0.29897E+00  6021   0.817E-01    0.259E+00
RMM:   4    -0.231232181472E+04    0.61768E-02   -0.28240E-01  5556   0.192E-01    0.210E+00
RMM:   5    -0.231233440464E+04   -0.12590E-01   -0.24231E-02  5017   0.835E-02    0.206E+00
RMM:   6    -0.231234022235E+04   -0.58177E-02   -0.15573E-02  4823   0.553E-02    0.186E+00
RMM:   7    -0.231234417629E+04   -0.39539E-02   -0.22592E-02  4876   0.713E-02    0.173E+00
RMM:   8    -0.231234526036E+04   -0.10841E-02   -0.25745E-02  4748   0.723E-02    0.149E+00
RMM:   9    -0.231234076315E+04    0.44972E-02   -0.78115E-02  4818   0.125E-01    0.698E-01
RMM:  10    -0.231233666549E+04    0.40977E-02   -0.18599E-02  4916   0.853E-02    0.362E-01
RMM:  11    -0.231233601451E+04    0.65097E-03   -0.51264E-03  5063   0.345E-02    0.185E-01
RMM:  12    -0.231233562843E+04    0.38609E-03   -0.15100E-03  4528   0.219E-02    0.100E-01
RMM:  13    -0.231233564320E+04   -0.14775E-04   -0.51130E-04  3896   0.115E-02    0.925E-02
RMM:  14    -0.231233572804E+04   -0.84841E-04   -0.25905E-04  3573   0.876E-03    0.644E-02
RMM:  15    -0.231233579152E+04   -0.63474E-04   -0.19351E-04  3406   0.803E-03    0.477E-02
RMM:  16    -0.231233583146E+04   -0.39948E-04   -0.96527E-05  2967   0.617E-03    0.409E-02
RMM:  17    -0.231233589207E+04   -0.60610E-04   -0.18910E-04  3418   0.731E-03    0.350E-02
RMM:  18    -0.231233592780E+04   -0.35728E-04   -0.14993E-04  3025   0.693E-03    0.267E-02
RMM:  19    -0.231233597255E+04   -0.44746E-04   -0.24769E-04  3380   0.791E-03    0.188E-02
RMM:  20    -0.231233599590E+04   -0.23352E-04   -0.16213E-04  3021   0.713E-03    0.155E-02
RMM:  21    -0.231233601780E+04   -0.21899E-04   -0.17341E-04  3180   0.681E-03    0.122E-02
RMM:  22    -0.231233602922E+04   -0.11421E-04   -0.94192E-05  2855   0.561E-03    0.103E-02
RMM:  23    -0.231233604641E+04   -0.17185E-04   -0.18489E-04  3212   0.677E-03    0.846E-03
RMM:  24    -0.231233605421E+04   -0.78047E-05   -0.13741E-04  2942   0.629E-03    0.551E-03
RMM:  25    -0.231233605689E+04   -0.26799E-05   -0.31404E-05  2715   0.374E-03
  14 F= -.23327468E+04 E0= -.23327466E+04  d E =-.238921E-01  mag=     3.0013
       N       E                     dE             d eps       ncg     rms          rms(c)
DAV:   1    -0.231088995666E+04    0.14461E+01   -0.85119E+01  4408   0.745E+00    0.399E+00
RMM:   2    -0.231263271857E+04   -0.17428E+01   -0.16491E+01  6236   0.181E+00    0.572E+00
RMM:   3    -0.231249336610E+04    0.13935E+00   -0.17603E+00  5847   0.652E-01    0.443E+00
RMM:   4    -0.231246974442E+04    0.23622E-01   -0.18924E-01  5564   0.152E-01    0.294E+00
RMM:   5    -0.231245469363E+04    0.15051E-01   -0.37712E-02  5084   0.931E-02    0.194E+00
RMM:   6    -0.231245148382E+04    0.32098E-02   -0.98983E-02  5234   0.144E-01    0.151E+00
RMM:   7    -0.231243485503E+04    0.16629E-01   -0.19677E-02  5620   0.778E-02    0.725E-01
RMM:   8    -0.231243777275E+04   -0.29177E-02   -0.91265E-03  4793   0.449E-02    0.427E-01
RMM:   9    -0.231243813142E+04   -0.35867E-03   -0.13735E-03  4215   0.295E-02    0.420E-01
RMM:  10    -0.231243824552E+04   -0.11410E-03   -0.56413E-04  3767   0.102E-02    0.408E-01
RMM:  11    -0.231243858556E+04   -0.34004E-03   -0.21422E-02  4637   0.609E-02    0.262E-01
RMM:  12    -0.231243812101E+04    0.46456E-03   -0.42716E-03  4483   0.372E-02    0.135E-01
RMM:  13    -0.231243858446E+04   -0.46345E-03   -0.13682E-03  4158   0.167E-02    0.118E-01
RMM:  14    -0.231243854228E+04    0.42180E-04   -0.78810E-04  3853   0.149E-02    0.445E-02
RMM:  15    -0.231243853774E+04    0.45325E-05   -0.21693E-04  3536   0.785E-03    0.176E-02
RMM:  16    -0.231243854188E+04   -0.41323E-05   -0.30431E-05  2870   0.494E-03
  15 F= -.23328526E+04 E0= -.23328525E+04  d E =-.129696E+00  mag=     3.0003
       N       E                     dE             d eps       ncg     rms          rms(c)
DAV:   1    -0.231239304260E+04    0.45495E-01   -0.10125E+01  4408   0.248E+00    0.983E-01
RMM:   2    -0.231251272681E+04   -0.11968E+00   -0.12698E+00  6258   0.566E-01    0.580E-01
RMM:   3    -0.231252587939E+04   -0.13153E-01   -0.13865E-01  5972   0.179E-01    0.811E-01
RMM:   4    -0.231252250595E+04    0.33734E-02   -0.15359E-02  6065   0.456E-02    0.312E-01
RMM:   5    -0.231252196679E+04    0.53916E-03   -0.25661E-03  5187   0.260E-02    0.216E-01
RMM:   6    -0.231252179898E+04    0.16781E-03   -0.15123E-03  5047   0.205E-02    0.955E-02
RMM:   7    -0.231252175255E+04    0.46437E-04   -0.28790E-04  4052   0.130E-02    0.464E-02
RMM:   8    -0.231252175054E+04    0.20076E-05   -0.67196E-05  2969   0.560E-03
  16 F= -.23329362E+04 E0= -.23329361E+04  d E =-.836122E-01  mag=     3.0001
       N       E                     dE             d eps       ncg     rms          rms(c)
DAV:   1    -0.231194555491E+04    0.57620E+00   -0.48982E+01  4408   0.547E+00    0.218E+00
RMM:   2    -0.231254260629E+04   -0.59705E+00   -0.63970E+00  6271   0.129E+00    0.109E+00
RMM:   3    -0.231260178360E+04   -0.59177E-01   -0.73582E-01  5837   0.409E-01    0.116E+00
RMM:   4    -0.231260001929E+04    0.17643E-02   -0.76140E-02  6195   0.929E-02    0.741E-01
RMM:   5    -0.231259837061E+04    0.16487E-02   -0.13639E-02  5775   0.520E-02    0.755E-01
RMM:   6    -0.231259654639E+04    0.18242E-02   -0.96289E-03  5097   0.437E-02    0.453E-01
RMM:   7    -0.231259677483E+04   -0.22844E-03   -0.26740E-03  4690   0.325E-02    0.476E-01
RMM:   8    -0.231259723028E+04   -0.45546E-03   -0.10732E-03  4036   0.151E-02    0.523E-01
RMM:   9    -0.231259655458E+04    0.67570E-03   -0.10907E-02  4691   0.422E-02    0.531E-01
RMM:  10    -0.231259425781E+04    0.22968E-02   -0.25155E-02  4676   0.669E-02    0.623E-01
RMM:  11    -0.231259442898E+04   -0.17117E-03   -0.13908E-03  4152   0.254E-02    0.592E-01
RMM:  12    -0.231259408452E+04    0.34445E-03   -0.31146E-04  3262   0.637E-03    0.587E-01
RMM:  13    -0.231259639675E+04   -0.23122E-02   -0.76382E-02  4665   0.113E-01    0.389E-01
RMM:  14    -0.231259555774E+04    0.83900E-03   -0.40602E-02  4657   0.988E-02    0.471E-01
RMM:  15    -0.231259581591E+04   -0.25817E-03   -0.51780E-03  4886   0.297E-02    0.469E-01
RMM:  16    -0.231259615552E+04   -0.33961E-03   -0.13028E-03  4428   0.139E-02    0.477E-01
RMM:  17    -0.231259622555E+04   -0.70032E-04   -0.60084E-04  3560   0.118E-02    0.418E-01
RMM:  18    -0.231259654918E+04   -0.32363E-03   -0.12575E-02  4488   0.474E-02    0.482E-01
RMM:  19    -0.231259582910E+04    0.72008E-03   -0.24341E-02  4634   0.670E-02    0.555E-01
RMM:  20    -0.231259589836E+04   -0.69255E-04   -0.14241E-03  4094   0.232E-02    0.507E-01
RMM:  21    -0.231259566192E+04    0.23644E-03   -0.29282E-04  3325   0.588E-03    0.501E-01
RMM:  22    -0.231259499786E+04    0.66406E-03   -0.85421E-04  3800   0.132E-02    0.433E-01
RMM:  23    -0.231259361181E+04    0.13860E-02   -0.63326E-03  4344   0.339E-02    0.504E-01
RMM:  24    -0.231259513482E+04   -0.15230E-02   -0.19465E-03  4217   0.209E-02    0.351E-01
RMM:  25    -0.231259597073E+04   -0.83591E-03   -0.26623E-03  4491   0.236E-02    0.102E-01
RMM:  26    -0.231259593209E+04    0.38635E-04   -0.19794E-03  4162   0.207E-02    0.114E-01
RMM:  27    -0.231259627079E+04   -0.33869E-03   -0.95937E-04  3931   0.138E-02    0.687E-02
RMM:  28    -0.231259630849E+04   -0.37701E-04   -0.26407E-04  3401   0.874E-03    0.493E-02
RMM:  29    -0.231259645401E+04   -0.14552E-03   -0.41518E-04  3817   0.944E-03    0.487E-02
RMM:  30    -0.231259656635E+04   -0.11234E-03   -0.32567E-04  3458   0.919E-03    0.448E-02
RMM:  31    -0.231259660491E+04   -0.38553E-04   -0.96550E-05  2937   0.578E-03    0.554E-02
RMM:  32    -0.231259668818E+04   -0.83275E-04   -0.16930E-04  3194   0.626E-03    0.511E-02
RMM:  33    -0.231259675192E+04   -0.63737E-04   -0.12474E-04  2956   0.624E-03    0.515E-02
RMM:  34    -0.231259679535E+04   -0.43428E-04   -0.89078E-05  2860   0.506E-03    0.486E-02
RMM:  35    -0.231259686637E+04   -0.71023E-04   -0.13737E-04  3155   0.604E-03    0.474E-02
RMM:  36    -0.231259693038E+04   -0.64013E-04   -0.13281E-04  3037   0.599E-03    0.478E-02
RMM:  37    -0.231259699733E+04   -0.66945E-04   -0.14614E-04  3088   0.624E-03    0.477E-02
RMM:  38    -0.231259703628E+04   -0.38954E-04   -0.73083E-05  2844   0.505E-03    0.485E-02
RMM:  39    -0.231259709883E+04   -0.62546E-04   -0.11907E-04  3065   0.562E-03    0.482E-02
RMM:  40    -0.231259712231E+04   -0.23486E-04   -0.38613E-05  2758   0.439E-03    0.498E-02
RMM:  41    -0.231259713594E+04   -0.13627E-04   -0.17797E-05  2663   0.285E-03    0.503E-02
RMM:  42    -0.231259710721E+04    0.28727E-04   -0.16295E-05  2523   0.267E-03    0.515E-02
RMM:  43    -0.231259708933E+04    0.17888E-04   -0.10362E-05  2261   0.168E-03    0.514E-02
RMM:  44    -0.231259710213E+04   -0.12802E-04   -0.22508E-06  1960   0.108E-03    0.499E-02
RMM:  45    -0.231259720045E+04   -0.98322E-04   -0.20668E-04  3180   0.595E-03    0.462E-02
RMM:  46    -0.231259726988E+04   -0.69434E-04   -0.17243E-04  3047   0.613E-03    0.468E-02
RMM:  47    -0.231259731956E+04   -0.49675E-04   -0.12051E-04  2982   0.517E-03    0.468E-02
RMM:  48    -0.231259729921E+04    0.20353E-04   -0.10654E-05  2637   0.300E-03    0.492E-02
RMM:  49    -0.231259730067E+04   -0.14657E-05   -0.20574E-06  2100   0.107E-03
  17 F= -.23330113E+04 E0= -.23330108E+04  d E =-.158657E+00  mag=     3.0000
       N       E                     dE             d eps       ncg     rms          rms(c)
DAV:   1    -0.231247241658E+04    0.12488E+00   -0.17905E+01  4408   0.351E+00    0.143E+00
RMM:   2    -0.231268400412E+04   -0.21159E+00   -0.22020E+00  6066   0.810E-01    0.108E+00
RMM:   3    -0.231269818640E+04   -0.14182E-01   -0.21227E-01  5949   0.260E-01    0.126E+00
RMM:   4    -0.231269128307E+04    0.69033E-02   -0.25860E-02  5998   0.672E-02    0.779E-01
RMM:   5    -0.231269212831E+04   -0.84524E-03   -0.25453E-03  4653   0.264E-02    0.793E-01
RMM:   6    -0.231269207905E+04    0.49260E-04   -0.22891E-04  3327   0.949E-03    0.786E-01
RMM:   7    -0.231269068019E+04    0.13989E-02   -0.35499E-03  4989   0.301E-02    0.731E-01
RMM:   8    -0.231268690055E+04    0.37796E-02   -0.61949E-03  4953   0.411E-02    0.649E-01
RMM:   9    -0.231268301813E+04    0.38824E-02   -0.69979E-03  4498   0.376E-02    0.705E-01
RMM:  10    -0.231268147100E+04    0.15471E-02   -0.30091E-03  4318   0.263E-02    0.761E-01
RMM:  11    -0.231268346465E+04   -0.19937E-02   -0.20498E-03  4248   0.205E-02    0.682E-01
RMM:  12    -0.231268604593E+04   -0.25813E-02   -0.87827E-03  4590   0.427E-02    0.526E-01
RMM:  13    -0.231268941962E+04   -0.33737E-02   -0.15221E-02  4808   0.575E-02    0.412E-01
RMM:  14    -0.231268911212E+04    0.30749E-03   -0.11299E-03  4292   0.200E-02    0.394E-01
RMM:  15    -0.231268933218E+04   -0.22005E-03   -0.19433E-04  3334   0.573E-03    0.423E-01
RMM:  16    -0.231268945453E+04   -0.12236E-03   -0.21493E-05  2821   0.464E-03    0.442E-01
RMM:  17    -0.231269084279E+04   -0.13883E-02   -0.36967E-03  4465   0.273E-02    0.326E-01
RMM:  18    -0.231269295350E+04   -0.21107E-02   -0.60013E-03  4896   0.385E-02    0.216E-01
RMM:  19    -0.231270494838E+04   -0.11995E-01   -0.79190E-02  4646   0.127E-01    0.769E-01
RMM:  20    -0.231270203080E+04    0.29176E-02   -0.53565E-03  4340   0.562E-02    0.750E-01
RMM:  21    -0.231270324027E+04   -0.12095E-02   -0.90840E-04  4376   0.119E-02    0.771E-01
RMM:  22    -0.231270237559E+04    0.86469E-03   -0.97175E-05  3043   0.824E-03    0.767E-01
RMM:  23    -0.231270347642E+04   -0.11008E-02   -0.12554E-04  2889   0.645E-03    0.768E-01
RMM:  24    -0.231270348808E+04   -0.11666E-04   -0.29750E-03  4205   0.341E-02    0.652E-01
RMM:  25    -0.231270432851E+04   -0.84042E-03   -0.29466E-04  3426   0.133E-02    0.700E-01
RMM:  26    -0.231269796767E+04    0.63608E-02   -0.13131E-02  4539   0.522E-02    0.337E-01
RMM:  27    -0.231269973834E+04   -0.17707E-02   -0.11177E-03  4031   0.226E-02    0.375E-01
RMM:  28    -0.231269632327E+04    0.34151E-02   -0.43116E-03  4363   0.291E-02    0.378E-01
RMM:  29    -0.231268869895E+04    0.76243E-02   -0.31686E-02  4610   0.792E-02    0.644E-01
RMM:  30    -0.231268769321E+04    0.10057E-02   -0.41490E-03  4478   0.385E-02    0.699E-01
RMM:  31    -0.231268770257E+04   -0.93584E-05   -0.76503E-04  3843   0.929E-03    0.698E-01
RMM:  32    -0.231268863761E+04   -0.93504E-03   -0.33886E-04  3537   0.110E-02    0.617E-01
RMM:  33    -0.231269153661E+04   -0.28990E-02   -0.32232E-03  4265   0.254E-02    0.476E-01
RMM:  34    -0.231269414797E+04   -0.26114E-02   -0.39085E-03  4250   0.302E-02    0.447E-01
RMM:  35    -0.231269664216E+04   -0.24942E-02   -0.48086E-03  4454   0.312E-02    0.436E-01
RMM:  36    -0.231269738502E+04   -0.74285E-03   -0.11588E-03  3841   0.178E-02    0.423E-01
RMM:  37    -0.231269766044E+04   -0.27542E-03   -0.24098E-04  3251   0.630E-03    0.425E-01
RMM:  38    -0.231269881187E+04   -0.11514E-02   -0.54986E-04  3616   0.110E-02    0.434E-01
RMM:  39    -0.231270245213E+04   -0.36403E-02   -0.55306E-03  4267   0.324E-02    0.455E-01
RMM:  40    -0.231270309375E+04   -0.64162E-03   -0.11208E-03  3632   0.176E-02    0.432E-01
RMM:  41    -0.231270567404E+04   -0.25803E-02   -0.40727E-03  4299   0.268E-02    0.432E-01
RMM:  42    -0.231270559826E+04    0.75779E-04   -0.42268E-04  3339   0.133E-02    0.432E-01
RMM:  43    -0.231270604825E+04   -0.44998E-03   -0.30571E-04  3370   0.686E-03    0.437E-01
RMM:  44    -0.231270607054E+04   -0.22296E-04   -0.33414E-05  2763   0.416E-03    0.434E-01
RMM:  45    -0.231270650275E+04   -0.43221E-03   -0.11483E-04  2969   0.500E-03    0.420E-01
RMM:  46    -0.231270802396E+04   -0.15212E-02   -0.13889E-03  3937   0.157E-02    0.409E-01
RMM:  47    -0.231270780429E+04    0.21967E-03   -0.71458E-04  3928   0.143E-02    0.352E-01
RMM:  48    -0.231271234252E+04   -0.45382E-02   -0.14116E-02  4414   0.511E-02    0.310E-01
RMM:  49    -0.231271338565E+04   -0.10431E-02   -0.54155E-03  4272   0.381E-02    0.322E-01
RMM:  50    -0.231271366223E+04   -0.27658E-03   -0.79338E-04  3850   0.114E-02    0.272E-01
RMM:  51    -0.231271404654E+04   -0.38431E-03   -0.57249E-04  3713   0.127E-02    0.202E-01
RMM:  52    -0.231271345698E+04    0.58956E-03   -0.10745E-03  3941   0.164E-02    0.230E-01
RMM:  53    -0.231271334948E+04    0.10749E-03   -0.10126E-04  2901   0.718E-03    0.236E-01
RMM:  54    -0.231271376057E+04   -0.41109E-03   -0.87829E-05  2769   0.445E-03    0.216E-01
RMM:  55    -0.231271414138E+04   -0.38081E-03   -0.14264E-04  3007   0.542E-03    0.202E-01
RMM:  56    -0.231271618429E+04   -0.20429E-02   -0.61318E-03  4379   0.334E-02    0.104E-01
RMM:  57    -0.231271657049E+04   -0.38619E-03   -0.21662E-03  4075   0.243E-02    0.727E-02
RMM:  58    -0.231271669244E+04   -0.12195E-03   -0.15884E-03  4104   0.162E-02    0.117E-01
RMM:  59    -0.231271667977E+04    0.12663E-04   -0.20769E-04  3027   0.848E-03    0.139E-01
RMM:  60    -0.231271687218E+04   -0.19241E-03   -0.14916E-04  2940   0.615E-03    0.862E-02
RMM:  61    -0.231271696851E+04   -0.96324E-04   -0.95763E-05  2905   0.522E-03    0.636E-02
RMM:  62    -0.231271700273E+04   -0.34220E-04   -0.30047E-04  3291   0.755E-03    0.107E-01
RMM:  63    -0.231271706419E+04   -0.61465E-04   -0.21164E-04  3164   0.713E-03    0.673E-02
RMM:  64    -0.231271705139E+04    0.12807E-04   -0.28132E-04  3467   0.840E-03    0.773E-02
RMM:  65    -0.231271706268E+04   -0.11296E-04   -0.10984E-04  2923   0.615E-03    0.810E-02
RMM:  66    -0.231271715414E+04   -0.91461E-04   -0.15510E-04  3114   0.613E-03    0.425E-02
RMM:  67    -0.231271720739E+04   -0.53253E-04   -0.26431E-04  3330   0.772E-03    0.123E-02
RMM:  68    -0.231271720248E+04    0.49152E-05   -0.50945E-05  2737   0.447E-03
  18 F= -.23331304E+04 E0= -.23331304E+04  d E =-.119152E+00  mag=     3.0000
       N       E                     dE             d eps       ncg     rms          rms(c)
DAV:   1    -0.231271844500E+04   -0.12376E-02   -0.41477E-01  4528   0.532E-01    0.209E-01
RMM:   2    -0.231272308619E+04   -0.46412E-02   -0.49178E-02  6120   0.121E-01    0.119E-01
RMM:   3    -0.231272334695E+04   -0.26076E-03   -0.41919E-03  5537   0.377E-02    0.136E-01
RMM:   4    -0.231272323706E+04    0.10989E-03   -0.53714E-04  3365   0.101E-02    0.594E-02
RMM:   5    -0.231272321279E+04    0.24263E-04   -0.10395E-04  3367   0.780E-03    0.446E-02
RMM:   6    -0.231272320182E+04    0.10970E-04   -0.69883E-05  3069   0.674E-03    0.234E-02
RMM:   7    -0.231272319936E+04    0.24651E-05   -0.23710E-05  2857   0.528E-03
  19 F= -.23331363E+04 E0= -.23331363E+04  d E =-.124998E+00  mag=     3.0000
       N       E                     dE             d eps       ncg     rms          rms(c)
DAV:   1    -0.231270995705E+04    0.13245E-01   -0.16573E+00  4432   0.106E+00    0.416E-01
RMM:   2    -0.231272845116E+04   -0.18494E-01   -0.19677E-01  6117   0.243E-01    0.235E-01
RMM:   3    -0.231272952155E+04   -0.10704E-02   -0.17105E-02  5850   0.769E-02    0.257E-01
RMM:   4    -0.231272912060E+04    0.40095E-03   -0.22299E-03  5187   0.201E-02    0.112E-01
RMM:   5    -0.231272902128E+04    0.99326E-04   -0.40225E-04  4439   0.135E-02    0.795E-02
RMM:   6    -0.231272898771E+04    0.33562E-04   -0.21475E-04  4096   0.105E-02    0.441E-02
RMM:   7    -0.231272897728E+04    0.10429E-04   -0.71515E-05  3157   0.715E-03    0.277E-02
RMM:   8    -0.231272897187E+04    0.54106E-05   -0.23958E-05  2855   0.452E-03
  20 F= -.23331417E+04 E0= -.23331417E+04  d E =-.130448E+00  mag=     3.0000
       N       E                     dE             d eps       ncg     rms          rms(c)
DAV:   1    -0.231258183939E+04    0.14714E+00   -0.12863E+01  4408   0.299E+00    0.124E+00
RMM:   2    -0.231277951151E+04   -0.19767E+00   -0.21516E+00  6204   0.756E-01    0.615E-01
RMM:   3    -0.231279631760E+04   -0.16806E-01   -0.23749E-01  5766   0.235E-01    0.560E-01
RMM:   4    -0.231279634846E+04   -0.30857E-04   -0.23946E-02  6093   0.534E-02    0.374E-01
RMM:   5    -0.231279544512E+04    0.90334E-03   -0.43880E-03  5457   0.335E-02    0.258E-01
RMM:   6    -0.231279506556E+04    0.37956E-03   -0.19286E-03  5213   0.249E-02    0.858E-02
RMM:   7    -0.231279502072E+04    0.44832E-04   -0.39709E-04  4615   0.153E-02    0.466E-02
RMM:   8    -0.231279499044E+04    0.30285E-04   -0.99574E-05  3179   0.734E-03    0.172E-02
RMM:   9    -0.231279498737E+04    0.30724E-05   -0.33433E-05  2921   0.461E-03
  21 F= -.23332076E+04 E0= -.23332076E+04  d E =-.659121E-01  mag=     3.0000
       N       E                     dE             d eps       ncg     rms          rms(c)
DAV:   1    -0.231271033607E+04    0.84654E-01   -0.58750E+00  4448   0.203E+00    0.839E-01
RMM:   2    -0.231280025371E+04   -0.89918E-01   -0.98385E-01  6170   0.509E-01    0.390E-01
RMM:   3    -0.231280796869E+04   -0.77150E-02   -0.10623E-01  5722   0.159E-01    0.326E-01
RMM:   4    -0.231280827517E+04   -0.30648E-03   -0.10787E-02  5737   0.355E-02    0.246E-01
RMM:   5    -0.231280795120E+04    0.32397E-03   -0.19637E-03  5279   0.230E-02    0.184E-01
RMM:   6    -0.231280773068E+04    0.22052E-03   -0.85747E-04  5114   0.171E-02    0.553E-02
RMM:   7    -0.231280770689E+04    0.23793E-04   -0.16555E-04  3851   0.103E-02    0.268E-02
RMM:   8    -0.231280769651E+04    0.10382E-04   -0.38955E-05  2888   0.527E-03    0.113E-02
RMM:   9    -0.231280769564E+04    0.86951E-06   -0.15060E-05  2871   0.344E-03
  22 F= -.23332202E+04 E0= -.23332202E+04  d E =-.784983E-01  mag=     3.0000
       N       E                     dE             d eps       ncg     rms          rms(c)
DAV:   1    -0.231271115766E+04    0.96539E-01   -0.11560E+01  4408   0.323E+00    0.126E+00
RMM:   2    -0.231284836353E+04   -0.13721E+00   -0.15265E+00  5956   0.740E-01    0.680E-01
RMM:   3    -0.231286118979E+04   -0.12826E-01   -0.18176E-01  5731   0.263E-01    0.786E-01
RMM:   4    -0.231285757636E+04    0.36134E-02   -0.18737E-02  6132   0.625E-02    0.332E-01
RMM:   5    -0.231285664897E+04    0.92739E-03   -0.47389E-03  5403   0.417E-02    0.188E-01
RMM:   6    -0.231285637875E+04    0.27022E-03   -0.16437E-03  5119   0.271E-02    0.625E-02
RMM:   7    -0.231285632571E+04    0.53045E-04   -0.27431E-04  4555   0.174E-02    0.300E-02
RMM:   8    -0.231285630940E+04    0.16310E-04   -0.58784E-05  3194   0.603E-03    0.170E-02
RMM:   9    -0.231285630364E+04    0.57593E-05   -0.21440E-05  2895   0.493E-03
  23 F= -.23332690E+04 E0= -.23332690E+04  d E =-.487553E-01  mag=     3.0000
       N       E                     dE             d eps       ncg     rms          rms(c)
DAV:   1    -0.231285191728E+04    0.43921E-02   -0.46717E-01  4848   0.649E-01    0.250E-01
RMM:   2    -0.231285738207E+04   -0.54648E-02   -0.61120E-02  5986   0.146E-01    0.121E-01
RMM:   3    -0.231285789103E+04   -0.50896E-03   -0.68008E-03  5493   0.535E-02    0.150E-01
RMM:   4    -0.231285776195E+04    0.12907E-03   -0.72091E-04  3962   0.126E-02    0.632E-02
RMM:   5    -0.231285771952E+04    0.42436E-04   -0.16654E-04  4084   0.993E-03    0.279E-02
RMM:   6    -0.231285771525E+04    0.42725E-05   -0.43603E-05  3094   0.690E-03
  24 F= -.23332704E+04 E0= -.23332704E+04  d E =-.501905E-01  mag=     3.0000
       N       E                     dE             d eps       ncg     rms          rms(c)
DAV:   1    -0.231279202940E+04    0.65690E-01   -0.93987E+00  4408   0.279E+00    0.960E-01
RMM:   2    -0.231289576348E+04   -0.10373E+00   -0.11441E+00  6173   0.609E-01    0.552E-01
RMM:   3    -0.231290594683E+04   -0.10183E-01   -0.12921E-01  5819   0.194E-01    0.607E-01
RMM:   4    -0.231290397374E+04    0.19731E-02   -0.13612E-02  6123   0.479E-02    0.292E-01
RMM:   5    -0.231290331197E+04    0.66177E-03   -0.30511E-03  5358   0.298E-02    0.165E-01
RMM:   6    -0.231290314611E+04    0.16586E-03   -0.12818E-03  5127   0.230E-02    0.533E-02
RMM:   7    -0.231290311567E+04    0.30437E-04   -0.19961E-04  4136   0.133E-02    0.270E-02
RMM:   8    -0.231290310612E+04    0.95472E-05   -0.38919E-05  2941   0.490E-03
  25 F= -.23333173E+04 E0= -.23333173E+04  d E =-.468603E-01  mag=     3.0000
       N       E                     dE             d eps       ncg     rms          rms(c)
DAV:   1    -0.231280154884E+04    0.10157E+00   -0.97124E+00  4408   0.284E+00    0.975E-01
RMM:   2    -0.231290836416E+04   -0.10682E+00   -0.11814E+00  6135   0.614E-01    0.561E-01
RMM:   3    -0.231291966761E+04   -0.11303E-01   -0.14121E-01  5804   0.204E-01    0.623E-01
RMM:   4    -0.231291749807E+04    0.21695E-02   -0.14196E-02  6151   0.489E-02    0.298E-01
RMM:   5    -0.231291679471E+04    0.70335E-03   -0.30533E-03  5406   0.298E-02    0.171E-01
RMM:   6    -0.231291658827E+04    0.20644E-03   -0.14298E-03  5145   0.239E-02    0.553E-02
RMM:   7    -0.231291655487E+04    0.33398E-04   -0.21696E-04  4297   0.136E-02    0.283E-02
RMM:   8    -0.231291654266E+04    0.12216E-04   -0.40004E-05  2993   0.504E-03    0.153E-02
RMM:   9    -0.231291653941E+04    0.32485E-05   -0.16609E-05  2868   0.380E-03
  26 F= -.23333322E+04 E0= -.23333322E+04  d E =-.617827E-01  mag=     3.0000
       N       E                     dE             d eps       ncg     rms          rms(c)
DAV:   1    -0.231283672819E+04    0.79814E-01   -0.74550E+00  4440   0.247E+00    0.892E-01
RMM:   2    -0.231294032207E+04   -0.10359E+00   -0.11396E+00  6238   0.556E-01    0.487E-01
RMM:   3    -0.231295184277E+04   -0.11521E-01   -0.14105E-01  5823   0.191E-01    0.470E-01
RMM:   4    -0.231295119477E+04    0.64800E-03   -0.14054E-02  6065   0.420E-02    0.282E-01
RMM:   5    -0.231295054966E+04    0.64511E-03   -0.23501E-03  5340   0.257E-02    0.176E-01
RMM:   6    -0.231295030636E+04    0.24330E-03   -0.12718E-03  5169   0.215E-02    0.574E-02
RMM:   7    -0.231295028074E+04    0.25624E-04   -0.20429E-04  4234   0.130E-02    0.282E-02
RMM:   8    -0.231295026886E+04    0.11872E-04   -0.44366E-05  2936   0.513E-03    0.141E-02
RMM:   9    -0.231295026581E+04    0.30527E-05   -0.15038E-05  2862   0.347E-03
  27 F= -.23333682E+04 E0= -.23333682E+04  d E =-.359705E-01  mag=     3.0000
       N       E                     dE             d eps       ncg     rms          rms(c)
DAV:   1    -0.231283706341E+04    0.11321E+00   -0.82001E+00  4424   0.259E+00    0.936E-01
RMM:   2    -0.231295084410E+04   -0.11378E+00   -0.12550E+00  6216   0.581E-01    0.503E-01
RMM:   3    -0.231296345673E+04   -0.12613E-01   -0.15472E-01  5830   0.200E-01    0.483E-01
RMM:   4    -0.231296281103E+04    0.64569E-03   -0.15308E-02  6105   0.438E-02    0.296E-01
RMM:   5    -0.231296209513E+04    0.71590E-03   -0.24823E-03  5348   0.265E-02    0.185E-01
RMM:   6    -0.231296180970E+04    0.28543E-03   -0.14125E-03  5167   0.226E-02    0.603E-02
RMM:   7    -0.231296177746E+04    0.32237E-04   -0.22868E-04  4356   0.136E-02    0.299E-02
RMM:   8    -0.231296176193E+04    0.15537E-04   -0.51127E-05  3019   0.548E-03    0.144E-02
RMM:   9    -0.231296175774E+04    0.41810E-05   -0.17361E-05  2866   0.383E-03
  28 F= -.23333820E+04 E0= -.23333820E+04  d E =-.497857E-01  mag=     3.0000
       N       E                     dE             d eps       ncg     rms          rms(c)
DAV:   1    -0.231288913966E+04    0.72622E-01   -0.44892E+00  4452   0.187E+00    0.801E-01
RMM:   2    -0.231298181624E+04   -0.92677E-01   -0.10119E+00  6164   0.461E-01    0.471E-01
RMM:   3    -0.231299159865E+04   -0.97824E-02   -0.12107E-01  5853   0.178E-01    0.414E-01
RMM:   4    -0.231299102291E+04    0.57574E-03   -0.11720E-02  6009   0.359E-02    0.243E-01
RMM:   5    -0.231299055113E+04    0.47178E-03   -0.19144E-03  5261   0.232E-02    0.155E-01
RMM:   6    -0.231299037961E+04    0.17152E-03   -0.91100E-04  5147   0.169E-02    0.611E-02
RMM:   7    -0.231299035607E+04    0.23538E-04   -0.16415E-04  4027   0.112E-02    0.278E-02
RMM:   8    -0.231299034577E+04    0.10295E-04   -0.35089E-05  2861   0.497E-03    0.114E-02
RMM:   9    -0.231299034464E+04    0.11357E-05   -0.12847E-05  2863   0.326E-03
  29 F= -.23334119E+04 E0= -.23334119E+04  d E =-.299344E-01  mag=     3.0000
       N       E                     dE             d eps       ncg     rms          rms(c)
DAV:   1    -0.231286580907E+04    0.12454E+00   -0.60649E+00  4408   0.218E+00    0.927E-01
RMM:   2    -0.231298990703E+04   -0.12410E+00   -0.13579E+00  6173   0.540E-01    0.534E-01
RMM:   3    -0.231300337280E+04   -0.13466E-01   -0.16663E-01  5832   0.210E-01    0.463E-01
RMM:   4    -0.231300271902E+04    0.65378E-03   -0.15753E-02  6068   0.419E-02    0.282E-01
RMM:   5    -0.231300210334E+04    0.61568E-03   -0.24861E-03  5396   0.264E-02    0.186E-01
RMM:   6    -0.231300183613E+04    0.26722E-03   -0.12429E-03  5179   0.196E-02    0.740E-02
RMM:   7    -0.231300180095E+04    0.35173E-04   -0.24105E-04  4402   0.133E-02    0.343E-02
RMM:   8    -0.231300178345E+04    0.17503E-04   -0.52909E-05  2951   0.571E-03    0.133E-02
RMM:   9    -0.231300178160E+04    0.18548E-05   -0.18689E-05  2870   0.385E-03
  30 F= -.23334249E+04 E0= -.23334249E+04  d E =-.428623E-01  mag=     3.0000
       N       E                     dE             d eps       ncg     rms          rms(c)
DAV:   1    -0.231291681767E+04    0.84966E-01   -0.49040E+00  4416   0.195E+00    0.826E-01
RMM:   2    -0.231301946919E+04   -0.10265E+00   -0.11171E+00  6183   0.473E-01    0.561E-01
RMM:   3    -0.231302967446E+04   -0.10205E-01   -0.13321E-01  5817   0.187E-01    0.456E-01
RMM:   4    -0.231302877258E+04    0.90188E-03   -0.12802E-02  5930   0.375E-02    0.244E-01
RMM:   5    -0.231302826650E+04    0.50608E-03   -0.18458E-03  5253   0.235E-02    0.150E-01
RMM:   6    -0.231302813567E+04    0.13083E-03   -0.92858E-04  4966   0.164E-02    0.727E-02
RMM:   7    -0.231302809400E+04    0.41669E-04   -0.17562E-04  3868   0.118E-02    0.291E-02
RMM:   8    -0.231302808268E+04    0.11323E-04   -0.35389E-05  2868   0.477E-03    0.117E-02
RMM:   9    -0.231302808127E+04    0.14112E-05   -0.12274E-05  2865   0.325E-03
  31 F= -.23334522E+04 E0= -.23334522E+04  d E =-.273774E-01  mag=     3.0000
       N       E                     dE             d eps       ncg     rms          rms(c)
DAV:   1    -0.231285893916E+04    0.16914E+00   -0.79983E+00  4408   0.249E+00    0.105E+00
RMM:   2    -0.231302533561E+04   -0.16640E+00   -0.18085E+00  6190   0.612E-01    0.711E-01
RMM:   3    -0.231304206080E+04   -0.16725E-01   -0.21580E-01  5823   0.234E-01    0.586E-01
RMM:   4    -0.231304054134E+04    0.15195E-02   -0.20841E-02  6123   0.480E-02    0.313E-01
RMM:   5    -0.231303971677E+04    0.82457E-03   -0.30225E-03  5454   0.292E-02    0.194E-01
RMM:   6    -0.231303947987E+04    0.23690E-03   -0.15377E-03  5036   0.208E-02    0.908E-02
RMM:   7    -0.231303941632E+04    0.63552E-04   -0.28874E-04  4469   0.148E-02    0.381E-02
RMM:   8    -0.231303939715E+04    0.19163E-04   -0.60963E-05  2989   0.558E-03    0.151E-02
RMM:   9    -0.231303939590E+04    0.12513E-05   -0.20754E-05  2871   0.399E-03
  32 F= -.23334648E+04 E0= -.23334648E+04  d E =-.399609E-01  mag=     3.0000
       N       E                     dE             d eps       ncg     rms          rms(c)
DAV:   1    -0.231298895831E+04    0.50439E-01   -0.40374E+00  4416   0.185E+00    0.722E-01
RMM:   2    -0.231305915261E+04   -0.70194E-01   -0.74811E-01  6086   0.416E-01    0.665E-01
RMM:   3    -0.231306370522E+04   -0.45526E-02   -0.88595E-02  5837   0.160E-01    0.434E-01
RMM:   4    -0.231306248769E+04    0.12175E-02   -0.90620E-03  5688   0.347E-02    0.197E-01
RMM:   5    -0.231306205326E+04    0.43444E-03   -0.12286E-03  5127   0.218E-02    0.971E-02
RMM:   6    -0.231306202404E+04    0.29214E-04   -0.53252E-04  4759   0.154E-02    0.345E-02
RMM:   7    -0.231306201453E+04    0.95161E-05   -0.57698E-05  3199   0.882E-03
  33 F= -.23334880E+04 E0= -.23334880E+04  d E =-.231566E-01  mag=     3.0000
       N       E                     dE             d eps       ncg     rms          rms(c)
DAV:   1    -0.231296776782E+04    0.94256E-01   -0.56003E+00  4424   0.218E+00    0.852E-01
RMM:   2    -0.231306669131E+04   -0.98923E-01   -0.10570E+00  6092   0.490E-01    0.782E-01
RMM:   3    -0.231307337274E+04   -0.66814E-02   -0.12246E-01  5899   0.182E-01    0.542E-01
RMM:   4    -0.231307134830E+04    0.20244E-02   -0.12547E-02  5833   0.410E-02    0.235E-01
RMM:   5    -0.231307073890E+04    0.60939E-03   -0.17672E-03  5178   0.252E-02    0.118E-01
RMM:   6    -0.231307068196E+04    0.56940E-04   -0.81399E-04  4981   0.184E-02    0.409E-02
RMM:   7    -0.231307066655E+04    0.15414E-04   -0.85605E-05  3605   0.100E-02    0.221E-02
RMM:   8    -0.231307065717E+04    0.93787E-05   -0.27371E-05  2843   0.406E-03
  34 F= -.23334972E+04 E0= -.23334972E+04  d E =-.323738E-01  mag=     3.0000
       N       E                     dE             d eps       ncg     rms          rms(c)
DAV:   1    -0.231302723554E+04    0.43431E-01   -0.41159E+00  4424   0.192E+00    0.725E-01
RMM:   2    -0.231309228568E+04   -0.65050E-01   -0.67333E-01  6061   0.424E-01    0.745E-01
RMM:   3    -0.231309379001E+04   -0.15043E-02   -0.71673E-02  5861   0.157E-01    0.444E-01
RMM:   4    -0.231309236436E+04    0.14256E-02   -0.79178E-03  5660   0.352E-02    0.182E-01
RMM:   5    -0.231309198215E+04    0.38221E-03   -0.10283E-03  4896   0.216E-02    0.101E-01
RMM:   6    -0.231309192988E+04    0.52267E-04   -0.50204E-04  4623   0.175E-02    0.273E-02
RMM:   7    -0.231309192578E+04    0.40987E-05   -0.58240E-05  3244   0.790E-03
  35 F= -.23335193E+04 E0= -.23335193E+04  d E =-.221016E-01  mag=     3.0000
       N       E                     dE             d eps       ncg     rms          rms(c)
DAV:   1    -0.231302452749E+04    0.67402E-01   -0.47033E+00  4440   0.205E+00    0.774E-01
RMM:   2    -0.231309889224E+04   -0.74365E-01   -0.77203E-01  6057   0.451E-01    0.785E-01
RMM:   3    -0.231310115901E+04   -0.22668E-02   -0.83020E-02  5860   0.167E-01    0.496E-01
RMM:   4    -0.231309932640E+04    0.18326E-02   -0.90865E-03  5740   0.378E-02    0.196E-01
RMM:   5    -0.231309887978E+04    0.44662E-03   -0.11642E-03  4933   0.227E-02    0.109E-01
RMM:   6    -0.231309881082E+04    0.68951E-04   -0.60355E-04  4782   0.186E-02    0.299E-02
RMM:   7    -0.231309880438E+04    0.64481E-05   -0.69778E-05  3384   0.862E-03
  36 F= -.23335270E+04 E0= -.23335270E+04  d E =-.298060E-01  mag=     3.0000
       N       E                     dE             d eps       ncg     rms          rms(c)
DAV:   1    -0.231301184196E+04    0.86969E-01   -0.55360E+00  4408   0.208E+00    0.864E-01
RMM:   2    -0.231311827904E+04   -0.10644E+00   -0.11084E+00  6146   0.508E-01    0.792E-01
RMM:   3    -0.231312326584E+04   -0.49868E-02   -0.11872E-01  5916   0.180E-01    0.547E-01
RMM:   4    -0.231312111787E+04    0.21480E-02   -0.11713E-02  5760   0.399E-02    0.226E-01
RMM:   5    -0.231312053332E+04    0.58455E-03   -0.14199E-03  4931   0.229E-02    0.124E-01
RMM:   6    -0.231312045790E+04    0.75422E-04   -0.85316E-04  5012   0.194E-02    0.455E-02
RMM:   7    -0.231312045167E+04    0.62336E-05   -0.95586E-05  3608   0.963E-03
  37 F= -.23335496E+04 E0= -.23335496E+04  d E =-.225737E-01  mag=     3.0000
       N       E                     dE             d eps       ncg     rms          rms(c)
DAV:   1    -0.231295403465E+04    0.16642E+00   -0.87947E+00  4408   0.262E+00    0.109E+00
RMM:   2    -0.231312388870E+04   -0.16985E+00   -0.17752E+00  6160   0.642E-01    0.978E-01
RMM:   3    -0.231313305417E+04   -0.91655E-02   -0.19182E-01  5896   0.225E-01    0.738E-01
RMM:   4    -0.231312872370E+04    0.43305E-02   -0.18599E-02  5896   0.511E-02    0.289E-01
RMM:   5    -0.231312781659E+04    0.90711E-03   -0.24415E-03  5014   0.286E-02    0.161E-01
RMM:   6    -0.231312765430E+04    0.16229E-03   -0.14375E-03  5174   0.243E-02    0.646E-02
RMM:   7    -0.231312763717E+04    0.17128E-04   -0.18555E-04  4527   0.126E-02    0.296E-02
RMM:   8    -0.231312762309E+04    0.14077E-04   -0.39058E-05  2890   0.453E-03    0.140E-02
RMM:   9    -0.231312762133E+04    0.17608E-05   -0.18412E-05  2879   0.345E-03
  38 F= -.23335577E+04 E0= -.23335577E+04  d E =-.307363E-01  mag=     3.0000
       N       E                     dE             d eps       ncg     rms          rms(c)
DAV:   1    -0.231304207389E+04    0.85549E-01   -0.50780E+00  4448   0.186E+00    0.819E-01
RMM:   2    -0.231314240182E+04   -0.10033E+00   -0.10442E+00  6264   0.465E-01    0.746E-01
RMM:   3    -0.231314774681E+04   -0.53450E-02   -0.11372E-01  5991   0.161E-01    0.553E-01
RMM:   4    -0.231314530396E+04    0.24429E-02   -0.10630E-02  5708   0.364E-02    0.220E-01
RMM:   5    -0.231314473875E+04    0.56520E-03   -0.13799E-03  4883   0.200E-02    0.124E-01
RMM:   6    -0.231314465047E+04    0.88289E-04   -0.83619E-04  4987   0.176E-02    0.513E-02
RMM:   7    -0.231314464429E+04    0.61732E-05   -0.11220E-04  3419   0.928E-03    0.233E-02
RMM:   8    -0.231314463742E+04    0.68758E-05   -0.21960E-05  2842   0.410E-03
  39 F= -.23335754E+04 E0= -.23335754E+04  d E =-.176810E-01  mag=     3.0000
       N       E                     dE             d eps       ncg     rms          rms(c)
DAV:   1    -0.231302970043E+04    0.11494E+00   -0.60572E+00  4408   0.203E+00    0.898E-01
RMM:   2    -0.231314962095E+04   -0.11992E+00   -0.12500E+00  6224   0.508E-01    0.809E-01
RMM:   3    -0.231315655772E+04   -0.69368E-02   -0.13850E-01  5980   0.178E-01    0.630E-01
RMM:   4    -0.231315326094E+04    0.32968E-02   -0.12808E-02  5785   0.405E-02    0.242E-01
RMM:   5    -0.231315259822E+04    0.66272E-03   -0.18082E-03  4954   0.220E-02    0.137E-01
RMM:   6    -0.231315247599E+04    0.12223E-03   -0.97780E-04  5083   0.187E-02    0.626E-02
RMM:   7    -0.231315246200E+04    0.13991E-04   -0.15463E-04  3770   0.106E-02    0.258E-02
RMM:   8    -0.231315245414E+04    0.78536E-05   -0.25720E-05  2861   0.420E-03
  40 F= -.23335838E+04 E0= -.23335838E+04  d E =-.260820E-01  mag=     3.0000
       N       E                     dE             d eps       ncg     rms          rms(c)
DAV:   1    -0.231314549509E+04    0.69669E-02   -0.35623E-01  4728   0.492E-01    0.215E-01
RMM:   2    -0.231315242846E+04   -0.69334E-02   -0.72779E-02  6285   0.122E-01    0.179E-01
RMM:   3    -0.231315293970E+04   -0.51124E-03   -0.78107E-03  5325   0.419E-02    0.158E-01
RMM:   4    -0.231315272763E+04    0.21207E-03   -0.76231E-04  3400   0.103E-02    0.584E-02
RMM:   5    -0.231315268898E+04    0.38646E-04   -0.93985E-05  2967   0.635E-03    0.328E-02
RMM:   6    -0.231315268410E+04    0.48821E-05   -0.60911E-05  3202   0.577E-03
  41 F= -.23335842E+04 E0= -.23335842E+04  d E =-.264310E-01  mag=     3.0000
       N       E                     dE             d eps       ncg     rms          rms(c)
DAV:   1    -0.231312494787E+04    0.27741E-01   -0.28843E+00  4420   0.142E+00    0.581E-01
RMM:   2    -0.231316871048E+04   -0.43763E-01   -0.44076E-01  6067   0.326E-01    0.627E-01
RMM:   3    -0.231316878472E+04   -0.74238E-04   -0.44026E-02  5866   0.112E-01    0.402E-01
RMM:   4    -0.231316730732E+04    0.14774E-02   -0.45197E-03  5545   0.277E-02    0.144E-01
RMM:   5    -0.231316703943E+04    0.26789E-03   -0.70463E-04  4833   0.174E-02    0.872E-02
RMM:   6    -0.231316698444E+04    0.54991E-04   -0.33568E-04  4385   0.143E-02    0.243E-02
RMM:   7    -0.231316698092E+04    0.35237E-05   -0.46029E-05  2980   0.691E-03
  42 F= -.23335984E+04 E0= -.23335984E+04  d E =-.142064E-01  mag=     3.0000
       N       E                     dE             d eps       ncg     rms          rms(c)
DAV:   1    -0.231308159996E+04    0.85384E-01   -0.62256E+00  4408   0.208E+00    0.856E-01
RMM:   2    -0.231317662297E+04   -0.95023E-01   -0.95381E-01  6101   0.484E-01    0.946E-01
RMM:   3    -0.231317647223E+04    0.15074E-03   -0.99292E-02  5891   0.168E-01    0.584E-01
RMM:   4    -0.231317341166E+04    0.30606E-02   -0.98738E-03  5679   0.406E-02    0.214E-01
RMM:   5    -0.231317280711E+04    0.60455E-03   -0.14683E-03  5085   0.252E-02    0.130E-01
RMM:   6    -0.231317267004E+04    0.13707E-03   -0.75241E-04  4685   0.206E-02    0.362E-02
RMM:   7    -0.231317266173E+04    0.83054E-05   -0.10891E-04  3602   0.949E-03    0.207E-02
RMM:   8    -0.231317265025E+04    0.11485E-04   -0.23539E-05  2844   0.455E-03    0.105E-02
RMM:   9    -0.231317264664E+04    0.36058E-05   -0.12269E-05  2863   0.324E-03
  43 F= -.23336038E+04 E0= -.23336038E+04  d E =-.196346E-01  mag=     3.0000
       N       E                     dE             d eps       ncg     rms          rms(c)
DAV:   1    -0.231315240972E+04    0.20241E-01   -0.20521E+00  4464   0.113E+00    0.464E-01
RMM:   2    -0.231318377939E+04   -0.31370E-01   -0.30800E-01  6270   0.262E-01    0.552E-01
RMM:   3    -0.231318352219E+04    0.25720E-03   -0.31791E-02  5926   0.837E-02    0.298E-01
RMM:   4    -0.231318276621E+04    0.75599E-03   -0.32618E-03  5206   0.203E-02    0.114E-01
RMM:   5    -0.231318261450E+04    0.15171E-03   -0.32546E-04  4175   0.114E-02    0.751E-02
RMM:   6    -0.231318257501E+04    0.39491E-04   -0.24954E-04  3984   0.118E-02    0.191E-02
RMM:   7    -0.231318257454E+04    0.46741E-06   -0.33177E-05  2898   0.577E-03
  44 F= -.23336133E+04 E0= -.23336133E+04  d E =-.950342E-02  mag=     3.0000
       N       E                     dE             d eps       ncg     rms          rms(c)
DAV:   1    -0.231291987645E+04    0.26270E+00   -0.18435E+01  4408   0.339E+00    0.142E+00
RMM:   2    -0.231321089509E+04   -0.29102E+00   -0.28393E+00  6298   0.799E-01    0.179E+00
RMM:   3    -0.231320426063E+04    0.66345E-02   -0.30734E-01  6027   0.263E-01    0.897E-01
RMM:   4    -0.231319756502E+04    0.66956E-02   -0.29778E-02  5792   0.611E-02    0.348E-01
RMM:   5    -0.231319626819E+04    0.12968E-02   -0.34411E-03  5165   0.335E-02    0.244E-01
RMM:   6    -0.231319581556E+04    0.45263E-03   -0.24614E-03  4891   0.326E-02    0.565E-02
RMM:   7    -0.231319581528E+04    0.28871E-06   -0.36555E-04  4174   0.129E-02    0.354E-02
RMM:   8    -0.231319579239E+04    0.22888E-04   -0.53632E-05  2959   0.568E-03    0.178E-02
RMM:   9    -0.231319578679E+04    0.55931E-05   -0.24086E-05  2856   0.376E-03
  45 F= -.23336250E+04 E0= -.23336250E+04  d E =-.212260E-01  mag=     3.0000
       N       E                     dE             d eps       ncg     rms          rms(c)
DAV:   1    -0.231317196958E+04    0.23823E-01   -0.26119E+00  4420   0.133E+00    0.557E-01
RMM:   2    -0.231321140359E+04   -0.39434E-01   -0.39724E-01  6130   0.314E-01    0.511E-01
RMM:   3    -0.231321365047E+04   -0.22469E-02   -0.42975E-02  5946   0.102E-01    0.417E-01
RMM:   4    -0.231321187722E+04    0.17732E-02   -0.46067E-03  5617   0.278E-02    0.137E-01
RMM:   5    -0.231321167630E+04    0.20093E-03   -0.65466E-04  4650   0.164E-02    0.801E-02
RMM:   6    -0.231321163077E+04    0.45530E-04   -0.32174E-04  4533   0.136E-02    0.280E-02
RMM:   7    -0.231321162736E+04    0.34092E-05   -0.55699E-05  2936   0.740E-03
  46 F= -.23336401E+04 E0= -.23336401E+04  d E =-.150993E-01  mag=     3.0000
       N       E                     dE             d eps       ncg     rms          rms(c)
DAV:   1    -0.231316484149E+04    0.46789E-01   -0.35188E+00  4408   0.154E+00    0.649E-01
RMM:   2    -0.231321790664E+04   -0.53065E-01   -0.53533E-01  6141   0.366E-01    0.590E-01
RMM:   3    -0.231322111140E+04   -0.32048E-02   -0.59243E-02  5971   0.120E-01    0.486E-01
RMM:   4    -0.231321870824E+04    0.24032E-02   -0.63496E-03  5726   0.325E-02    0.161E-01
RMM:   5    -0.231321843382E+04    0.27442E-03   -0.88382E-04  4799   0.188E-02    0.940E-02
RMM:   6    -0.231321836468E+04    0.69139E-04   -0.45877E-04  4814   0.157E-02    0.341E-02
RMM:   7    -0.231321835874E+04    0.59477E-05   -0.80366E-05  3097   0.841E-03
  47 F= -.23336460E+04 E0= -.23336460E+04  d E =-.209312E-01  mag=     3.0000
       N       E                     dE             d eps       ncg     rms          rms(c)
DAV:   1    -0.231319974973E+04    0.18615E-01   -0.22926E+00  4420   0.125E+00    0.500E-01
RMM:   2    -0.231322822898E+04   -0.28479E-01   -0.29560E-01  6061   0.277E-01    0.354E-01
RMM:   3    -0.231323095410E+04   -0.27251E-02   -0.32350E-02  5910   0.955E-02    0.382E-01
RMM:   4    -0.231322949417E+04    0.14599E-02   -0.35822E-03  5629   0.248E-02    0.131E-01
RMM:   5    -0.231322930923E+04    0.18493E-03   -0.55447E-04  4375   0.147E-02    0.645E-02
RMM:   6    -0.231322928165E+04    0.27580E-04   -0.25133E-04  4501   0.122E-02    0.296E-02
RMM:   7    -0.231322927557E+04    0.60871E-05   -0.36443E-05  2937   0.669E-03
  48 F= -.23336562E+04 E0= -.23336562E+04  d E =-.102980E-01  mag=     3.0000
       N       E                     dE             d eps       ncg     rms          rms(c)
DAV:   1    -0.231321492601E+04    0.14356E-01   -0.13295E+00  4480   0.952E-01    0.381E-01
RMM:   2    -0.231323150302E+04   -0.16577E-01   -0.17163E-01  6074   0.211E-01    0.278E-01
RMM:   3    -0.231323305087E+04   -0.15479E-02   -0.18637E-02  5854   0.727E-02    0.295E-01
RMM:   4    -0.231323217278E+04    0.87810E-03   -0.20802E-03  5225   0.190E-02    0.987E-02
RMM:   5    -0.231323206123E+04    0.11154E-03   -0.31746E-04  4063   0.115E-02    0.489E-02
RMM:   6    -0.231323204247E+04    0.18762E-04   -0.14332E-04  4089   0.999E-03    0.214E-02
RMM:   7    -0.231323203887E+04    0.35987E-05   -0.22620E-05  2883   0.567E-03
  49 F= -.23336585E+04 E0= -.23336585E+04  d E =-.125806E-01  mag=     3.0000
       N       E                     dE             d eps       ncg     rms          rms(c)
DAV:   1    -0.231321781019E+04    0.14232E-01   -0.23617E+00  4408   0.126E+00    0.474E-01
RMM:   2    -0.231324111791E+04   -0.23308E-01   -0.24354E-01  5960   0.260E-01    0.337E-01
RMM:   3    -0.231324317589E+04   -0.20580E-02   -0.25255E-02  5851   0.894E-02    0.369E-01
RMM:   4    -0.231324182036E+04    0.13555E-02   -0.26734E-03  5515   0.240E-02    0.126E-01
RMM:   5    -0.231324164953E+04    0.17083E-03   -0.66239E-04  4585   0.159E-02    0.576E-02
RMM:   6    -0.231324163326E+04    0.16266E-04   -0.19462E-04  4280   0.115E-02    0.250E-02
RMM:   7    -0.231324162917E+04    0.40877E-05   -0.26926E-05  2921   0.607E-03
  50 F= -.23336676E+04 E0= -.23336676E+04  d E =-.903457E-02  mag=     3.0000
       N       E                     dE             d eps       ncg     rms          rms(c)
DAV:   1    -0.231322999763E+04    0.11636E-01   -0.13706E+00  4432   0.957E-01    0.361E-01
RMM:   2    -0.231324353306E+04   -0.13535E-01   -0.14139E-01  5962   0.198E-01    0.256E-01
RMM:   3    -0.231324471539E+04   -0.11823E-02   -0.14509E-02  5798   0.668E-02    0.281E-01
RMM:   4    -0.231324392821E+04    0.78719E-03   -0.15529E-03  5124   0.183E-02    0.957E-02
RMM:   5    -0.231324382556E+04    0.10264E-03   -0.37502E-04  4146   0.124E-02    0.434E-02
RMM:   6    -0.231324381545E+04    0.10110E-04   -0.11266E-04  3851   0.952E-03    0.189E-02
RMM:   7    -0.231324381308E+04    0.23770E-05   -0.17164E-05  2878   0.543E-03
  51 F= -.23336693E+04 E0= -.23336693E+04  d E =-.107877E-01  mag=     3.0000
       N       E                     dE             d eps       ncg     rms          rms(c)
DAV:   1    -0.231323272579E+04    0.11090E-01   -0.28848E+00  4408   0.134E+00    0.446E-01
RMM:   2    -0.231325304271E+04   -0.20317E-01   -0.21044E-01  5921   0.258E-01    0.324E-01
RMM:   3    -0.231325444925E+04   -0.14065E-02   -0.19511E-02  5839   0.861E-02    0.365E-01
RMM:   4    -0.231325315469E+04    0.12946E-02   -0.22864E-03  5508   0.229E-02    0.123E-01
RMM:   5    -0.231325297725E+04    0.17743E-03   -0.65862E-04  4504   0.158E-02    0.571E-02
RMM:   6    -0.231325296241E+04    0.14845E-04   -0.21158E-04  4244   0.120E-02    0.198E-02
RMM:   7    -0.231325295949E+04    0.29207E-05   -0.20941E-05  2894   0.517E-03
  52 F= -.23336779E+04 E0= -.23336779E+04  d E =-.856448E-02  mag=     3.0000
       N       E                     dE             d eps       ncg     rms          rms(c)
DAV:   1    -0.231323504171E+04    0.17921E-01   -0.29847E+00  4408   0.136E+00    0.454E-01
RMM:   2    -0.231325618067E+04   -0.21139E-01   -0.21892E-01  5948   0.264E-01    0.330E-01
RMM:   3    -0.231325757594E+04   -0.13953E-02   -0.19459E-02  5866   0.854E-02    0.373E-01
RMM:   4    -0.231325621905E+04    0.13569E-02   -0.23742E-03  5514   0.233E-02    0.125E-01
RMM:   5    -0.231325603206E+04    0.18699E-03   -0.67866E-04  4540   0.161E-02    0.586E-02
RMM:   6    -0.231325601261E+04    0.19452E-04   -0.21929E-04  4289   0.122E-02    0.195E-02
RMM:   7    -0.231325600921E+04    0.34011E-05   -0.22532E-05  2896   0.521E-03
  53 F= -.23336803E+04 E0= -.23336803E+04  d E =-.110103E-01  mag=     3.0000
       N       E                     dE             d eps       ncg     rms          rms(c)
DAV:   1    -0.231325141205E+04    0.46006E-02   -0.18332E+00  4432   0.102E+00    0.332E-01
RMM:   2    -0.231326393957E+04   -0.12528E-01   -0.12982E-01  6079   0.202E-01    0.217E-01
RMM:   3    -0.231326464906E+04   -0.70949E-03   -0.10817E-02  5787   0.603E-02    0.253E-01
RMM:   4    -0.231326408439E+04    0.56467E-03   -0.13058E-03  4653   0.165E-02    0.102E-01
RMM:   5    -0.231326397076E+04    0.11363E-03   -0.36690E-04  4114   0.115E-02    0.460E-02
RMM:   6    -0.231326396171E+04    0.90514E-05   -0.13425E-04  3735   0.953E-03    0.159E-02
RMM:   7    -0.231326396021E+04    0.14968E-05   -0.13484E-05  2876   0.486E-03
  54 F= -.23336879E+04 E0= -.23336879E+04  d E =-.757161E-02  mag=     3.0000
       N       E                     dE             d eps       ncg     rms          rms(c)
DAV:   1    -0.231319301365E+04    0.70948E-01   -0.11629E+01  4408   0.258E+00    0.836E-01
RMM:   2    -0.231327241085E+04   -0.79397E-01   -0.82534E-01  6097   0.508E-01    0.539E-01
RMM:   3    -0.231327694657E+04   -0.45357E-02   -0.70560E-02  5941   0.151E-01    0.632E-01
RMM:   4    -0.231327339038E+04    0.35562E-02   -0.82277E-03  6102   0.406E-02    0.263E-01
RMM:   5    -0.231327271367E+04    0.67671E-03   -0.23973E-03  5144   0.269E-02    0.127E-01
RMM:   6    -0.231327259898E+04    0.11469E-03   -0.10077E-03  5173   0.207E-02    0.391E-02
RMM:   7    -0.231327258528E+04    0.13701E-04   -0.69552E-05  3226   0.850E-03    0.199E-02
RMM:   8    -0.231327257930E+04    0.59829E-05   -0.22893E-05  2909   0.395E-03
  55 F= -.23336955E+04 E0= -.23336955E+04  d E =-.152043E-01  mag=     3.0000
       N       E                     dE             d eps       ncg     rms          rms(c)
DAV:   1    -0.231326111652E+04    0.11469E-01   -0.25101E+00  4420   0.123E+00    0.426E-01
RMM:   2    -0.231327956634E+04   -0.18450E-01   -0.19442E-01  6030   0.251E-01    0.203E-01
RMM:   3    -0.231328023097E+04   -0.66463E-03   -0.17347E-02  5640   0.802E-02    0.132E-01
RMM:   4    -0.231328028332E+04   -0.52355E-04   -0.19050E-03  4987   0.201E-02    0.144E-01
RMM:   5    -0.231328016781E+04    0.11551E-03   -0.58068E-04  4503   0.149E-02    0.978E-02
RMM:   6    -0.231328007521E+04    0.92600E-04   -0.16340E-04  4322   0.850E-03    0.196E-02
RMM:   7    -0.231328007424E+04    0.97224E-06   -0.18093E-05  2886   0.549E-03
  56 F= -.23337029E+04 E0= -.23337029E+04  d E =-.737429E-02  mag=     3.0000
       N       E                     dE             d eps       ncg     rms          rms(c)
DAV:   1    -0.231327149110E+04    0.85841E-02   -0.13593E+00  4480   0.902E-01    0.314E-01
RMM:   2    -0.231328151943E+04   -0.10028E-01   -0.10572E-01  6008   0.185E-01    0.150E-01
RMM:   3    -0.231328186388E+04   -0.34445E-03   -0.92511E-03  5576   0.564E-02    0.993E-02
RMM:   4    -0.231328191593E+04   -0.52050E-04   -0.10601E-03  4635   0.149E-02    0.119E-01
RMM:   5    -0.231328180460E+04    0.11132E-03   -0.32205E-04  3842   0.111E-02    0.617E-02
RMM:   6    -0.231328176945E+04    0.35151E-04   -0.85652E-05  3577   0.708E-03    0.131E-02
RMM:   7    -0.231328176885E+04    0.59535E-06   -0.10579E-05  2854   0.480E-03
  57 F= -.23337045E+04 E0= -.23337045E+04  d E =-.897113E-02  mag=     3.0000
       N       E                     dE             d eps       ncg     rms          rms(c)
DAV:   1    -0.231327244503E+04    0.93244E-02   -0.20695E+00  4408   0.114E+00    0.392E-01
RMM:   2    -0.231328792422E+04   -0.15479E-01   -0.16518E-01  5973   0.226E-01    0.193E-01
RMM:   3    -0.231328886736E+04   -0.94314E-03   -0.16475E-02  5607   0.765E-02    0.189E-01
RMM:   4    -0.231328884023E+04    0.27131E-04   -0.17329E-03  4764   0.183E-02    0.152E-01
RMM:   5    -0.231328856566E+04    0.27457E-03   -0.49242E-04  4448   0.138E-02    0.505E-02
RMM:   6    -0.231328855850E+04    0.71605E-05   -0.12188E-04  3823   0.986E-03    0.149E-02
RMM:   7    -0.231328855913E+04   -0.62844E-06   -0.16383E-05  2872   0.503E-03
  58 F= -.23337114E+04 E0= -.23337114E+04  d E =-.691758E-02  mag=     3.0000
       N       E                     dE             d eps       ncg     rms          rms(c)
DAV:   1    -0.231327757059E+04    0.10988E-01   -0.16480E+00  4420   0.101E+00    0.351E-01
RMM:   2    -0.231328991404E+04   -0.12343E-01   -0.13175E-01  5969   0.202E-01    0.173E-01
RMM:   3    -0.231329067606E+04   -0.76202E-03   -0.13127E-02  5606   0.691E-02    0.174E-01
RMM:   4    -0.231329063091E+04    0.45146E-04   -0.13754E-03  4379   0.164E-02    0.133E-01
RMM:   5    -0.231329041659E+04    0.21433E-03   -0.39476E-04  4358   0.128E-02    0.449E-02
RMM:   6    -0.231329041023E+04    0.63592E-05   -0.96779E-05  3591   0.909E-03
  59 F= -.23337134E+04 E0= -.23337134E+04  d E =-.886947E-02  mag=     3.0000
       N       E                     dE             d eps       ncg     rms          rms(c)
DAV:   1    -0.231328542801E+04    0.49886E-02   -0.19513E+00  4408   0.109E+00    0.368E-01
RMM:   2    -0.231329711391E+04   -0.11686E-01   -0.12602E-01  5983   0.207E-01    0.181E-01
RMM:   3    -0.231329774558E+04   -0.63167E-03   -0.12957E-02  5577   0.716E-02    0.142E-01
RMM:   4    -0.231329790613E+04   -0.16055E-03   -0.14350E-03  4801   0.180E-02    0.175E-01
RMM:   5    -0.231329757759E+04    0.32854E-03   -0.53249E-04  4741   0.138E-02    0.498E-02
RMM:   6    -0.231329757293E+04    0.46598E-05   -0.11953E-04  3396   0.859E-03    0.152E-02
RMM:   7    -0.231329757126E+04    0.16713E-05   -0.16143E-05  2851   0.527E-03
  60 F= -.23337204E+04 E0= -.23337204E+04  d E =-.706092E-02  mag=     3.0000
       N       E                     dE             d eps       ncg     rms          rms(c)
DAV:   1    -0.231327142891E+04    0.26144E-01   -0.44484E+00  4408   0.165E+00    0.555E-01
RMM:   2    -0.231329804110E+04   -0.26612E-01   -0.28697E-01  5927   0.312E-01    0.272E-01
RMM:   3    -0.231329938024E+04   -0.13391E-02   -0.29452E-02  5516   0.106E-01    0.188E-01
RMM:   4    -0.231329976960E+04   -0.38936E-03   -0.33116E-03  5395   0.286E-02    0.258E-01
RMM:   5    -0.231329910012E+04    0.66948E-03   -0.11341E-03  5263   0.194E-02    0.925E-02
RMM:   6    -0.231329905672E+04    0.43396E-04   -0.25786E-04  4177   0.102E-02    0.244E-02
RMM:   7    -0.231329905133E+04    0.53878E-05   -0.30394E-05  2869   0.706E-03
  61 F= -.23337218E+04 E0= -.23337218E+04  d E =-.837762E-02  mag=     3.0000
       N       E                     dE             d eps       ncg     rms          rms(c)
DAV:   1    -0.231329589316E+04    0.31636E-02   -0.63219E-01  4496   0.621E-01    0.207E-01
RMM:   2    -0.231329970511E+04   -0.38120E-02   -0.40933E-02  5941   0.117E-01    0.102E-01
RMM:   3    -0.231329986369E+04   -0.15858E-03   -0.38577E-03  5270   0.403E-02    0.786E-02
RMM:   4    -0.231329991001E+04   -0.46320E-04   -0.44117E-04  3501   0.106E-02    0.974E-02
RMM:   5    -0.231329980942E+04    0.10059E-03   -0.16755E-04  3610   0.871E-03    0.319E-02
RMM:   6    -0.231329980556E+04    0.38552E-05   -0.44789E-05  2955   0.609E-03
  62 F= -.23337226E+04 E0= -.23337226E+04  d E =-.919512E-02  mag=     3.0000
       N       E                     dE             d eps       ncg     rms          rms(c)
DAV:   1    -0.231329747345E+04    0.23360E-02   -0.20988E+00  4408   0.113E+00    0.386E-01
RMM:   2    -0.231330712547E+04   -0.96520E-02   -0.10440E-01  5931   0.209E-01    0.197E-01
RMM:   3    -0.231330738074E+04   -0.25527E-03   -0.79444E-03  5509   0.669E-02    0.207E-01
RMM:   4    -0.231330713932E+04    0.24142E-03   -0.11631E-03  5158   0.184E-02    0.144E-01
RMM:   5    -0.231330690310E+04    0.23622E-03   -0.59354E-04  4608   0.165E-02    0.364E-02
RMM:   6    -0.231330690137E+04    0.17280E-05   -0.77399E-05  3200   0.959E-03
  63 F= -.23337293E+04 E0= -.23337293E+04  d E =-.669523E-02  mag=     3.0000
       N       E                     dE             d eps       ncg     rms          rms(c)
DAV:   1    -0.231330358729E+04    0.33158E-02   -0.10069E+00  4464   0.780E-01    0.269E-01
RMM:   2    -0.231330824070E+04   -0.46534E-02   -0.50415E-02  5949   0.145E-01    0.137E-01
RMM:   3    -0.231330837125E+04   -0.13055E-03   -0.38109E-03  5416   0.450E-02    0.145E-01
RMM:   4    -0.231330825261E+04    0.11863E-03   -0.56213E-04  4170   0.129E-02    0.999E-02
RMM:   5    -0.231330813633E+04    0.11629E-03   -0.29055E-04  4207   0.122E-02    0.250E-02
RMM:   6    -0.231330813488E+04    0.14508E-05   -0.38578E-05  2928   0.768E-03
  64 F= -.23337302E+04 E0= -.23337302E+04  d E =-.764965E-02  mag=     3.0000
       N       E                     dE             d eps       ncg     rms          rms(c)
DAV:   1    -0.231330281866E+04    0.53177E-02   -0.18542E+00  4408   0.106E+00    0.377E-01
RMM:   2    -0.231331443392E+04   -0.11615E-01   -0.12701E-01  6004   0.213E-01    0.190E-01
RMM:   3    -0.231331481876E+04   -0.38484E-03   -0.95440E-03  5696   0.648E-02    0.183E-01
RMM:   4    -0.231331474513E+04    0.73627E-04   -0.12702E-03  4888   0.171E-02    0.151E-01
RMM:   5    -0.231331453120E+04    0.21393E-03   -0.53997E-04  4511   0.145E-02    0.479E-02
RMM:   6    -0.231331452459E+04    0.66079E-05   -0.11264E-04  3449   0.881E-03    0.143E-02
RMM:   7    -0.231331452337E+04    0.12237E-05   -0.13144E-05  2860   0.451E-03
  65 F= -.23337365E+04 E0= -.23337365E+04  d E =-.623988E-02  mag=     3.0000
       N       E                     dE             d eps       ncg     rms          rms(c)
DAV:   1    -0.231330867445E+04    0.58501E-02   -0.12003E+00  4432   0.857E-01    0.304E-01
RMM:   2    -0.231331618894E+04   -0.75145E-02   -0.82241E-02  5973   0.172E-01    0.154E-01
RMM:   3    -0.231331645129E+04   -0.26235E-03   -0.61783E-03  5626   0.535E-02    0.154E-01
RMM:   4    -0.231331637626E+04    0.75032E-04   -0.82620E-04  4249   0.140E-02    0.119E-01
RMM:   5    -0.231331624088E+04    0.13538E-03   -0.34753E-04  4231   0.123E-02    0.375E-02
RMM:   6    -0.231331623692E+04    0.39567E-05   -0.74240E-05  3183   0.747E-03
  66 F= -.23337381E+04 E0= -.23337381E+04  d E =-.783188E-02  mag=     3.0000
       N       E                     dE             d eps       ncg     rms          rms(c)
DAV:   1    -0.231330964998E+04    0.65909E-02   -0.12064E+00  4408   0.955E-01    0.376E-01
RMM:   2    -0.231332101979E+04   -0.11370E-01   -0.12683E-01  5928   0.205E-01    0.188E-01
RMM:   3    -0.231332195554E+04   -0.93575E-03   -0.13103E-02  5643   0.690E-02    0.226E-01
RMM:   4    -0.231332164645E+04    0.30909E-03   -0.14287E-03  4764   0.176E-02    0.122E-01
RMM:   5    -0.231332149301E+04    0.15344E-03   -0.42613E-04  4657   0.140E-02    0.488E-02
RMM:   6    -0.231332148011E+04    0.12900E-04   -0.12000E-04  3954   0.906E-03    0.157E-02
RMM:   7    -0.231332147791E+04    0.21975E-05   -0.18970E-05  2882   0.518E-03
  67 F= -.23337435E+04 E0= -.23337435E+04  d E =-.541692E-02  mag=     3.0000
       N       E                     dE             d eps       ncg     rms          rms(c)
DAV:   1    -0.231331985501E+04    0.16251E-02   -0.21099E-01  4600   0.400E-01    0.157E-01
RMM:   2    -0.231332185629E+04   -0.20013E-02   -0.22247E-02  5935   0.863E-02    0.815E-02
RMM:   3    -0.231332202340E+04   -0.16712E-03   -0.22637E-03  5037   0.296E-02    0.100E-01
RMM:   4    -0.231332195626E+04    0.67141E-04   -0.24890E-04  3061   0.789E-03    0.500E-02
RMM:   5    -0.231332192977E+04    0.26489E-04   -0.76731E-05  3212   0.662E-03    0.203E-02
RMM:   6    -0.231332192773E+04    0.20380E-05   -0.21272E-05  2871   0.535E-03
  68 F= -.23337440E+04 E0= -.23337440E+04  d E =-.593889E-02  mag=     3.0000
       N       E                     dE             d eps       ncg     rms          rms(c)
DAV:   1    -0.231331087306E+04    0.11057E-01   -0.11304E+00  4408   0.956E-01    0.381E-01
RMM:   2    -0.231332549839E+04   -0.14625E-01   -0.16305E-01  5925   0.214E-01    0.231E-01
RMM:   3    -0.231332730325E+04   -0.18049E-02   -0.19675E-02  5703   0.812E-02    0.306E-01
RMM:   4    -0.231332656634E+04    0.73690E-03   -0.18547E-03  4966   0.192E-02    0.115E-01
RMM:   5    -0.231332641099E+04    0.15535E-03   -0.54242E-04  4727   0.139E-02    0.558E-02
RMM:   6    -0.231332639056E+04    0.20431E-04   -0.16343E-04  4097   0.938E-03    0.211E-02
RMM:   7    -0.231332638810E+04    0.24601E-05   -0.25734E-05  2951   0.563E-03
  69 F= -.23337486E+04 E0= -.23337486E+04  d E =-.463331E-02  mag=     3.0000
       N       E                     dE             d eps       ncg     rms          rms(c)
DAV:   1    -0.231332269336E+04    0.36972E-02   -0.30596E-01  4496   0.498E-01    0.199E-01
RMM:   2    -0.231332668505E+04   -0.39917E-02   -0.44260E-02  5962   0.112E-01    0.128E-01
RMM:   3    -0.231332717002E+04   -0.48498E-03   -0.53064E-03  5423   0.423E-02    0.164E-01
RMM:   4    -0.231332694961E+04    0.22041E-03   -0.51235E-04  3370   0.104E-02    0.597E-02
RMM:   5    -0.231332690683E+04    0.42786E-04   -0.15375E-04  3622   0.803E-03    0.288E-02
RMM:   6    -0.231332690110E+04    0.57261E-05   -0.40259E-05  2977   0.603E-03
  70 F= -.23337492E+04 E0= -.23337492E+04  d E =-.523443E-02  mag=     3.0000
       N       E                     dE             d eps       ncg     rms          rms(c)
DAV:   1    -0.231331881856E+04    0.80883E-02   -0.96861E-01  4408   0.875E-01    0.349E-01
RMM:   2    -0.231333086876E+04   -0.12050E-01   -0.13785E-01  5978   0.192E-01    0.178E-01
RMM:   3    -0.231333223553E+04   -0.13668E-02   -0.16918E-02  5678   0.683E-02    0.201E-01
RMM:   4    -0.231333208773E+04    0.14781E-03   -0.15878E-03  4159   0.157E-02    0.125E-01
RMM:   5    -0.231333192888E+04    0.15885E-03   -0.39099E-04  4265   0.116E-02    0.590E-02
RMM:   6    -0.231333190151E+04    0.27367E-04   -0.15846E-04  3992   0.859E-03    0.211E-02
RMM:   7    -0.231333189932E+04    0.21936E-05   -0.24609E-05  2958   0.580E-03
  71 F= -.23337541E+04 E0= -.23337541E+04  d E =-.486057E-02  mag=     3.0000
       N       E                     dE             d eps       ncg     rms          rms(c)
DAV:   1    -0.231325736683E+04    0.74535E-01   -0.56103E+00  4408   0.211E+00    0.848E-01
RMM:   2    -0.231332708099E+04   -0.69714E-01   -0.80082E-01  5962   0.465E-01    0.415E-01
RMM:   3    -0.231333445861E+04   -0.73776E-02   -0.10041E-01  5697   0.168E-01    0.385E-01
RMM:   4    -0.231333464534E+04   -0.18673E-03   -0.93342E-03  5698   0.381E-02    0.343E-01
RMM:   5    -0.231333357048E+04    0.10749E-02   -0.23123E-03  5516   0.241E-02    0.167E-01
RMM:   6    -0.231333330035E+04    0.27013E-03   -0.98812E-04  5065   0.178E-02    0.610E-02
RMM:   7    -0.231333327833E+04    0.22024E-04   -0.17274E-04  3871   0.116E-02    0.249E-02
RMM:   8    -0.231333327276E+04    0.55659E-05   -0.38720E-05  2918   0.497E-03
  72 F= -.23337551E+04 E0= -.23337551E+04  d E =-.589357E-02  mag=     3.0000
       N       E                     dE             d eps       ncg     rms          rms(c)
DAV:   1    -0.231332057427E+04    0.12704E-01   -0.10417E+00  4408   0.906E-01    0.360E-01
RMM:   2    -0.231333361492E+04   -0.13041E-01   -0.14729E-01  5960   0.197E-01    0.207E-01
RMM:   3    -0.231333509167E+04   -0.14768E-02   -0.17195E-02  5737   0.702E-02    0.249E-01
RMM:   4    -0.231333470868E+04    0.38299E-03   -0.16942E-03  4506   0.170E-02    0.117E-01
RMM:   5    -0.231333455345E+04    0.15523E-03   -0.42770E-04  4449   0.123E-02    0.554E-02
RMM:   6    -0.231333453801E+04    0.15439E-04   -0.85366E-05  3124   0.837E-03    0.149E-02
RMM:   7    -0.231333453839E+04   -0.38117E-06   -0.15731E-05  2876   0.485E-03
  73 F= -.23337565E+04 E0= -.23337565E+04  d E =-.730696E-02  mag=     3.0000
       N       E                     dE             d eps       ncg     rms          rms(c)
DAV:   1    -0.231333126241E+04    0.32756E-02   -0.52796E-01  4464   0.623E-01    0.255E-01
RMM:   2    -0.231333795366E+04   -0.66913E-02   -0.76392E-02  5984   0.139E-01    0.124E-01
RMM:   3    -0.231333862333E+04   -0.66967E-03   -0.87495E-03  5503   0.487E-02    0.106E-01
RMM:   4    -0.231333862229E+04    0.10456E-05   -0.85000E-04  3602   0.112E-02    0.980E-02
RMM:   5    -0.231333854091E+04    0.81376E-04   -0.19713E-04  3042   0.871E-03    0.453E-02
RMM:   6    -0.231333851945E+04    0.21462E-04   -0.87117E-05  3504   0.669E-03    0.203E-02
RMM:   7    -0.231333851674E+04    0.27074E-05   -0.15213E-05  2874   0.510E-03
  74 F= -.23337603E+04 E0= -.23337603E+04  d E =-.378959E-02  mag=     3.0000
       N       E                     dE             d eps       ncg     rms          rms(c)
DAV:   1    -0.231329484132E+04    0.43678E-01   -0.34422E+00  4408   0.159E+00    0.660E-01
RMM:   2    -0.231333899650E+04   -0.44155E-01   -0.50337E-01  5959   0.356E-01    0.347E-01
RMM:   3    -0.231334398039E+04   -0.49839E-02   -0.59904E-02  5773   0.128E-01    0.370E-01
RMM:   4    -0.231334319340E+04    0.78699E-03   -0.57874E-03  5747   0.291E-02    0.235E-01
RMM:   5    -0.231334271633E+04    0.47707E-03   -0.12959E-03  4660   0.194E-02    0.114E-01
RMM:   6    -0.231334258481E+04    0.13152E-03   -0.58827E-04  4941   0.139E-02    0.585E-02
RMM:   7    -0.231334255871E+04    0.26101E-04   -0.10521E-04  3265   0.101E-02    0.214E-02
RMM:   8    -0.231334255374E+04    0.49769E-05   -0.27460E-05  2911   0.418E-03
  75 F= -.23337639E+04 E0= -.23337639E+04  d E =-.734314E-02  mag=     3.0000
[...]
RMM:   2    -0.231340296817E+04   -0.53626E-05   -0.54768E-05  2790   0.439E-03
 254 F= -.23338285E+04 E0= -.23338285E+04  d E =-.306778E-04  mag=     3.0000
       N       E                     dE             d eps       ncg     rms          rms(c)
DAV:   1    -0.231340291881E+04    0.43997E-04   -0.30708E-03  4368   0.490E-02    0.207E-02
RMM:   2    -0.231340295968E+04   -0.40868E-04   -0.43711E-04  4291   0.119E-02    0.155E-02
RMM:   3    -0.231340296509E+04   -0.54112E-05   -0.57751E-05  2813   0.643E-03
 255 F= -.23338286E+04 E0= -.23338286E+04  d E =-.304739E-04  mag=     3.0000
       N       E                     dE             d eps       ncg     rms          rms(c)
DAV:   1    -0.231340294689E+04    0.12789E-04   -0.41185E-04  4896   0.179E-02    0.111E-02
RMM:   2    -0.231340295284E+04   -0.59496E-05   -0.63078E-05  2861   0.457E-03
 256 F= -.23338286E+04 E0= -.23338286E+04  d E =-.303663E-04  mag=     3.0000
       N       E                     dE             d eps       ncg     rms          rms(c)
DAV:   1    -0.231340292598E+04    0.20912E-04   -0.33095E-03  4384   0.519E-02    0.235E-02
RMM:   2    -0.231340297531E+04   -0.49332E-04   -0.45260E-04  4543   0.130E-02    0.347E-02
RMM:   3    -0.231340296998E+04    0.53304E-05   -0.53452E-05  2814   0.642E-03
 257 F= -.23338286E+04 E0= -.23338286E+04  d E =-.348189E-04  mag=     3.0000
       N       E                     dE             d eps       ncg     rms          rms(c)
DAV:   1    -0.231340296357E+04    0.11740E-04   -0.14049E-04  5080   0.107E-02    0.902E-03
RMM:   2    -0.231340296477E+04   -0.12016E-05   -0.20810E-05  2416   0.280E-03
 258 F= -.23338286E+04 E0= -.23338286E+04  d E =-.332538E-04  mag=     3.0000
       N       E                     dE             d eps       ncg     rms          rms(c)
DAV:   1    -0.231340294963E+04    0.13944E-04   -0.22329E-03  4384   0.449E-02    0.185E-02
RMM:   2    -0.231340297436E+04   -0.24729E-04   -0.27431E-04  3902   0.104E-02    0.102E-02
RMM:   3    -0.231340297608E+04   -0.17252E-05   -0.31730E-05  2766   0.593E-03
 259 F= -.23338286E+04 E0= -.23338286E+04  d E =-.267143E-04  mag=     3.0000
       N       E                     dE             d eps       ncg     rms          rms(c)
DAV:   1    -0.231340296944E+04    0.49113E-05   -0.25588E-04  4936   0.152E-02    0.103E-02
RMM:   2    -0.231340297545E+04   -0.60110E-05   -0.38799E-05  2624   0.389E-03
 260 F= -.23338286E+04 E0= -.23338286E+04  d E =-.313304E-04  mag=     3.0000
       N       E                     dE             d eps       ncg     rms          rms(c)
DAV:   1    -0.231340294336E+04    0.26088E-04   -0.16713E-03  4336   0.364E-02    0.155E-02
RMM:   2    -0.231340296632E+04   -0.22964E-04   -0.25173E-04  3609   0.926E-03    0.916E-03
RMM:   3    -0.231340296780E+04   -0.14758E-05   -0.30430E-05  2648   0.531E-03
 261 F= -.23338286E+04 E0= -.23338286E+04  d E =-.161484E-04  mag=     3.0000
       N       E                     dE             d eps       ncg     rms          rms(c)
DAV:   1    -0.231340295539E+04    0.10927E-04   -0.32737E-04  4776   0.161E-02    0.129E-02
RMM:   2    -0.231340297122E+04   -0.15831E-04   -0.69356E-05  2964   0.444E-03    0.370E-02
RMM:   3    -0.231340295946E+04    0.11767E-04   -0.13526E-05  2363   0.317E-03    0.438E-03
RMM:   4    -0.231340295917E+04    0.29133E-06   -0.18016E-06  1790   0.102E-03
 262 F= -.23338286E+04 E0= -.23338286E+04  d E =-.182101E-04  mag=     3.0000
       N       E                     dE             d eps       ncg     rms          rms(c)
DAV:   1    -0.231340293045E+04    0.29005E-04   -0.18144E-03  4320   0.375E-02    0.151E-02
RMM:   2    -0.231340295534E+04   -0.24892E-04   -0.27317E-04  3645   0.874E-03    0.820E-03
RMM:   3    -0.231340295689E+04   -0.15435E-05   -0.28545E-05  2531   0.487E-03
 263 F= -.23338287E+04 E0= -.23338287E+04  d E =-.263422E-04  mag=     3.0000
       N       E                     dE             d eps       ncg     rms          rms(c)
DAV:   1    -0.231340292272E+04    0.32623E-04   -0.12287E-03  4304   0.308E-02    0.137E-02
RMM:   2    -0.231340294018E+04   -0.17460E-04   -0.18905E-04  3360   0.756E-03    0.107E-02
RMM:   3    -0.231340294262E+04   -0.24358E-05   -0.26447E-05  2720   0.470E-03
 264 F= -.23338287E+04 E0= -.23338287E+04  d E =-.356905E-04  mag=     3.0000
       N       E                     dE             d eps       ncg     rms          rms(c)
DAV:   1    -0.231340290674E+04    0.33441E-04   -0.22887E-03  4368   0.417E-02    0.178E-02
RMM:   2    -0.231340293675E+04   -0.30006E-04   -0.32104E-04  3827   0.965E-03    0.137E-02
RMM:   3    -0.231340293955E+04   -0.28082E-05   -0.38602E-05  2782   0.550E-03
 265 F= -.23338287E+04 E0= -.23338287E+04  d E =-.254570E-04  mag=     3.0000
       N       E                     dE             d eps       ncg     rms          rms(c)
DAV:   1    -0.231340292149E+04    0.15253E-04   -0.43285E-04  4792   0.181E-02    0.107E-02
RMM:   2    -0.231340292783E+04   -0.63360E-05   -0.65329E-05  2866   0.461E-03
 266 F= -.23338287E+04 E0= -.23338287E+04  d E =-.261398E-04  mag=     3.0000
       N       E                     dE             d eps       ncg     rms          rms(c)
DAV:   1    -0.231340290473E+04    0.16764E-04   -0.20023E-03  4320   0.376E-02    0.167E-02
RMM:   2    -0.231340293376E+04   -0.29034E-04   -0.29545E-04  3665   0.945E-03    0.178E-02
RMM:   3    -0.231340293561E+04   -0.18499E-05   -0.38378E-05  2592   0.547E-03
 267 F= -.23338287E+04 E0= -.23338287E+04  d E =-.269034E-04  mag=     3.0000
       N       E                     dE             d eps       ncg     rms          rms(c)
DAV:   1    -0.231340290931E+04    0.24456E-04   -0.11506E-03  4304   0.285E-02    0.141E-02
RMM:   2    -0.231340292486E+04   -0.15551E-04   -0.16740E-04  3340   0.691E-03    0.121E-02
RMM:   3    -0.231340292643E+04   -0.15676E-05   -0.22634E-05  2700   0.435E-03
 268 F= -.23338287E+04 E0= -.23338287E+04  d E =-.322813E-04  mag=     3.0000
       N       E                     dE             d eps       ncg     rms          rms(c)
DAV:   1    -0.231340289663E+04    0.28229E-04   -0.25790E-03  4336   0.434E-02    0.181E-02
RMM:   2    -0.231340293096E+04   -0.34334E-04   -0.36792E-04  3968   0.103E-02    0.112E-02
RMM:   3    -0.231340293307E+04   -0.21079E-05   -0.40669E-05  2713   0.543E-03
 269 F= -.23338288E+04 E0= -.23338288E+04  d E =-.279484E-04  mag=     3.0000
       N       E                     dE             d eps       ncg     rms          rms(c)
DAV:   1    -0.231340290494E+04    0.26020E-04   -0.14648E-03  4352   0.327E-02    0.146E-02
RMM:   2    -0.231340292470E+04   -0.19755E-04   -0.21326E-04  3441   0.806E-03    0.104E-02
RMM:   3    -0.231340292724E+04   -0.25408E-05   -0.28992E-05  2726   0.474E-03
 270 F= -.23338288E+04 E0= -.23338288E+04  d E =-.382831E-04  mag=     3.0000
       N       E                     dE             d eps       ncg     rms          rms(c)
DAV:   1    -0.231340288999E+04    0.34704E-04   -0.31373E-03  4360   0.490E-02    0.208E-02
RMM:   2    -0.231340292573E+04   -0.35731E-04   -0.37889E-04  4294   0.110E-02    0.179E-02
RMM:   3    -0.231340292852E+04   -0.27915E-05   -0.43864E-05  2805   0.588E-03
 271 F= -.23338288E+04 E0= -.23338288E+04  d E =-.319377E-04  mag=     3.0000
       N       E                     dE             d eps       ncg     rms          rms(c)
DAV:   1    -0.231340291350E+04    0.12229E-04   -0.34240E-04  5016   0.161E-02    0.106E-02
RMM:   2    -0.231340291765E+04   -0.41574E-05   -0.45217E-05  2668   0.398E-03
 272 F= -.23338288E+04 E0= -.23338288E+04  d E =-.311614E-04  mag=     3.0000
       N       E                     dE             d eps       ncg     rms          rms(c)
DAV:   1    -0.231340288221E+04    0.31282E-04   -0.27235E-03  4372   0.462E-02    0.196E-02
RMM:   2    -0.231340291298E+04   -0.30763E-04   -0.32022E-04  4029   0.109E-02    0.181E-02
RMM:   3    -0.231340291619E+04   -0.32089E-05   -0.43419E-05  2753   0.613E-03
 273 F= -.23338288E+04 E0= -.23338288E+04  d E =-.302423E-04  mag=     3.0000
       N       E                     dE             d eps       ncg     rms          rms(c)
DAV:   1    -0.231340290030E+04    0.12679E-04   -0.31405E-04  4912   0.157E-02    0.976E-03
RMM:   2    -0.231340290371E+04   -0.34110E-05   -0.40828E-05  2648   0.396E-03
 274 F= -.23338288E+04 E0= -.23338288E+04  d E =-.284742E-04  mag=     3.0000
       N       E                     dE             d eps       ncg     rms          rms(c)
DAV:   1    -0.231340288303E+04    0.17271E-04   -0.24561E-03  4360   0.439E-02    0.211E-02
RMM:   2    -0.231340291918E+04   -0.36150E-04   -0.28591E-04  3861   0.109E-02    0.380E-02
RMM:   3    -0.231340290924E+04    0.99413E-05   -0.35808E-05  2714   0.565E-03
 275 F= -.23338289E+04 E0= -.23338289E+04  d E =-.268912E-04  mag=     3.0000
       N       E                     dE             d eps       ncg     rms          rms(c)
DAV:   1    -0.231340289522E+04    0.23960E-04   -0.58798E-04  4664   0.215E-02    0.112E-02
RMM:   2    -0.231340290109E+04   -0.58764E-05   -0.66656E-05  2979   0.544E-03
 276 F= -.23338289E+04 E0= -.23338289E+04  d E =-.293579E-04  mag=     3.0000
       N       E                     dE             d eps       ncg     rms          rms(c)
DAV:   1    -0.231340288916E+04    0.60576E-05   -0.22866E-03  4356   0.430E-02    0.208E-02
RMM:   2    -0.231340292359E+04   -0.34429E-04   -0.27274E-04  3968   0.105E-02    0.383E-02
RMM:   3    -0.231340291269E+04    0.10894E-04   -0.28235E-05  2791   0.537E-03    0.118E-02
RMM:   4    -0.231340291116E+04    0.15381E-05   -0.41413E-06  2627   0.191E-03
 277 F= -.23338289E+04 E0= -.23338289E+04  d E =-.274196E-04  mag=     3.0000
       N       E                     dE             d eps       ncg     rms          rms(c)
DAV:   1    -0.231340289388E+04    0.18815E-04   -0.94392E-04  4584   0.276E-02    0.111E-02
RMM:   2    -0.231340290273E+04   -0.88527E-05   -0.10031E-04  3177   0.649E-03    0.656E-03
RMM:   3    -0.231340290365E+04   -0.92294E-06   -0.11875E-05  2570   0.385E-03
 278 F= -.23338289E+04 E0= -.23338289E+04  d E =-.313493E-04  mag=     3.0000
       N       E                     dE             d eps       ncg     rms          rms(c)
DAV:   1    -0.231340288747E+04    0.15259E-04   -0.16324E-03  4264   0.344E-02    0.145E-02
RMM:   2    -0.231340290472E+04   -0.17250E-04   -0.18061E-04  3419   0.793E-03    0.130E-02
RMM:   3    -0.231340290599E+04   -0.12625E-05   -0.21920E-05  2503   0.452E-03
 279 F= -.23338289E+04 E0= -.23338289E+04  d E =-.222414E-04  mag=     3.0000
       N       E                     dE             d eps       ncg     rms          rms(c)
DAV:   1    -0.231340286884E+04    0.35888E-04   -0.21588E-03  4312   0.395E-02    0.170E-02
RMM:   2    -0.231340289071E+04   -0.21871E-04   -0.24145E-04  3604   0.918E-03    0.101E-02
RMM:   3    -0.231340289171E+04   -0.99951E-06   -0.26570E-05  2752   0.496E-03
 280 F= -.23338289E+04 E0= -.23338289E+04  d E =-.309840E-04  mag=     3.0000
       N       E                     dE             d eps       ncg     rms          rms(c)
DAV:   1    -0.231340288653E+04    0.41712E-05   -0.16964E-03  4336   0.374E-02    0.189E-02
RMM:   2    -0.231340291167E+04   -0.25137E-04   -0.18283E-04  3601   0.853E-03    0.352E-02
RMM:   3    -0.231340290274E+04    0.89362E-05   -0.25771E-05  2706   0.487E-03
 281 F= -.23338290E+04 E0= -.23338290E+04  d E =-.312045E-04  mag=     3.0000
       N       E                     dE             d eps       ncg     rms          rms(c)
DAV:   1    -0.231340287687E+04    0.34802E-04   -0.16119E-03  4384   0.364E-02    0.165E-02
RMM:   2    -0.231340289134E+04   -0.14471E-04   -0.16597E-04  3497   0.843E-03    0.103E-02
RMM:   3    -0.231340289210E+04   -0.75938E-06   -0.18071E-05  2799   0.462E-03
 282 F= -.23338290E+04 E0= -.23338290E+04  d E =-.404364E-04  mag=     3.0000
       N       E                     dE             d eps       ncg     rms          rms(c)
DAV:   1    -0.231340287297E+04    0.18369E-04   -0.22220E-03  4328   0.426E-02    0.181E-02
RMM:   2    -0.231340289676E+04   -0.23792E-04   -0.25121E-04  3914   0.995E-03    0.152E-02
RMM:   3    -0.231340289967E+04   -0.29019E-05   -0.31987E-05  2757   0.535E-03
 283 F= -.23338290E+04 E0= -.23338290E+04  d E =-.250220E-04  mag=     3.0000
       N       E                     dE             d eps       ncg     rms          rms(c)
DAV:   1    -0.231340289221E+04    0.45521E-05   -0.12627E-04  5152   0.101E-02    0.756E-03
RMM:   2    -0.231340289322E+04   -0.10094E-05   -0.15111E-05  2406   0.260E-03
 284 F= -.23338290E+04 E0= -.23338290E+04  d E =-.225411E-04  mag=     3.0000
       N       E                     dE             d eps       ncg     rms          rms(c)
DAV:   1    -0.231340288259E+04    0.96249E-05   -0.22390E-03  4340   0.421E-02    0.194E-02
RMM:   2    -0.231340291249E+04   -0.29906E-04   -0.25033E-04  3839   0.100E-02    0.320E-02
RMM:   3    -0.231340290612E+04    0.63727E-05   -0.30939E-05  2625   0.551E-03
 285 F= -.23338290E+04 E0= -.23338290E+04  d E =-.263295E-04  mag=     3.0000
       N       E                     dE             d eps       ncg     rms          rms(c)
DAV:   1    -0.231340289877E+04    0.13720E-04   -0.27501E-04  4928   0.148E-02    0.879E-03
RMM:   2    -0.231340290139E+04   -0.26201E-05   -0.32220E-05  2572   0.384E-03
 286 F= -.23338290E+04 E0= -.23338290E+04  d E =-.263771E-04  mag=     3.0000
       N       E                     dE             d eps       ncg     rms          rms(c)
DAV:   1    -0.231340288432E+04    0.14454E-04   -0.20604E-03  4344   0.401E-02    0.191E-02
RMM:   2    -0.231340291366E+04   -0.29338E-04   -0.23688E-04  3771   0.970E-03    0.335E-02
RMM:   3    -0.231340290555E+04    0.81101E-05   -0.24881E-05  2638   0.502E-03
 287 F= -.23338290E+04 E0= -.23338290E+04  d E =-.246787E-04  mag=     3.0000
       N       E                     dE             d eps       ncg     rms          rms(c)
DAV:   1    -0.231340288357E+04    0.30084E-04   -0.11415E-03  4368   0.297E-02    0.140E-02
RMM:   2    -0.231340289438E+04   -0.10808E-04   -0.11923E-04  3280   0.726E-03    0.103E-02
RMM:   3    -0.231340289544E+04   -0.10575E-05   -0.14298E-05  2699   0.407E-03
 288 F= -.23338290E+04 E0= -.23338290E+04  d E =-.300166E-04  mag=     3.0000
       N       E                     dE             d eps       ncg     rms          rms(c)
DAV:   1    -0.231340286395E+04    0.30429E-04   -0.22869E-03  4296   0.402E-02    0.163E-02
RMM:   2    -0.231340288754E+04   -0.23587E-04   -0.25475E-04  3766   0.960E-03    0.961E-03
RMM:   3    -0.231340288901E+04   -0.14698E-05   -0.28168E-05  2689   0.495E-03
 289 F= -.23338291E+04 E0= -.23338291E+04  d E =-.205268E-04  mag=     3.0000
       N       E                     dE             d eps       ncg     rms          rms(c)
DAV:   1    -0.231340287506E+04    0.12480E-04   -0.48633E-04  4600   0.185E-02    0.125E-02
RMM:   2    -0.231340288559E+04   -0.10532E-04   -0.61440E-05  2999   0.473E-03    0.273E-02
RMM:   3    -0.231340287955E+04    0.60418E-05   -0.10153E-05  2360   0.308E-03
 290 F= -.23338291E+04 E0= -.23338291E+04  d E =-.233862E-04  mag=     3.0000
       N       E                     dE             d eps       ncg     rms          rms(c)
DAV:   1    -0.231340286358E+04    0.22011E-04   -0.19801E-03  4296   0.380E-02    0.153E-02
RMM:   2    -0.231340288319E+04   -0.19614E-04   -0.20759E-04  3576   0.869E-03    0.117E-02
RMM:   3    -0.231340288452E+04   -0.13217E-05   -0.20619E-05  2523   0.458E-03
 291 F= -.23338291E+04 E0= -.23338291E+04  d E =-.267111E-04  mag=     3.0000
       N       E                     dE             d eps       ncg     rms          rms(c)
DAV:   1    -0.231340283294E+04    0.50254E-04   -0.32421E-03  4360   0.486E-02    0.204E-02
RMM:   2    -0.231340286387E+04   -0.30925E-04   -0.33951E-04  4142   0.111E-02    0.118E-02
RMM:   3    -0.231340286478E+04   -0.91252E-06   -0.35861E-05  2815   0.549E-03
 292 F= -.23338291E+04 E0= -.23338291E+04  d E =-.347584E-04  mag=     3.0000
       N       E                     dE             d eps       ncg     rms          rms(c)
DAV:   1    -0.231340285049E+04    0.13378E-04   -0.18943E-03  4296   0.354E-02    0.205E-02
RMM:   2    -0.231340288966E+04   -0.39171E-04   -0.22697E-04  3511   0.828E-03    0.505E-02
RMM:   3    -0.231340286812E+04    0.21538E-04   -0.31220E-05  2772   0.454E-03    0.824E-03
RMM:   4    -0.231340286732E+04    0.80524E-06   -0.40418E-06  2535   0.155E-03
 293 F= -.23338291E+04 E0= -.23338291E+04  d E =-.197935E-04  mag=     3.0000
       N       E                     dE             d eps       ncg     rms          rms(c)
DAV:   1    -0.231340283378E+04    0.34337E-04   -0.24213E-03  4280   0.400E-02    0.153E-02
RMM:   2    -0.231340285661E+04   -0.22831E-04   -0.24879E-04  3662   0.869E-03    0.885E-03
RMM:   3    -0.231340285832E+04   -0.17093E-05   -0.27666E-05  2738   0.477E-03
 294 F= -.23338291E+04 E0= -.23338291E+04  d E =-.304612E-04  mag=     3.0000
       N       E                     dE             d eps       ncg     rms          rms(c)
DAV:   1    -0.231340285518E+04    0.14344E-05   -0.21796E-03  4312   0.408E-02    0.174E-02
RMM:   2    -0.231340287532E+04   -0.20135E-04   -0.20283E-04  3623   0.881E-03    0.184E-02
RMM:   3    -0.231340287567E+04   -0.35515E-06   -0.25191E-05  2635   0.492E-03
 295 F= -.23338292E+04 E0= -.23338292E+04  d E =-.326406E-04  mag=     3.0000
       N       E                     dE             d eps       ncg     rms          rms(c)
DAV:   1    -0.231340284092E+04    0.34397E-04   -0.32368E-03  4392   0.496E-02    0.213E-02
RMM:   2    -0.231340286773E+04   -0.26813E-04   -0.30243E-04  4094   0.108E-02    0.119E-02
RMM:   3    -0.231340286843E+04   -0.70146E-06   -0.32404E-05  2823   0.558E-03
 296 F= -.23338292E+04 E0= -.23338292E+04  d E =-.441774E-04  mag=     3.0000
       N       E                     dE             d eps       ncg     rms          rms(c)
DAV:   1    -0.231340285761E+04    0.10116E-04   -0.25509E-03  4360   0.443E-02    0.231E-02
RMM:   2    -0.231340289721E+04   -0.39597E-04   -0.26356E-04  3929   0.988E-03    0.471E-02
RMM:   3    -0.231340288011E+04    0.17105E-04   -0.37295E-05  2810   0.532E-03    0.112E-02
RMM:   4    -0.231340287873E+04    0.13805E-05   -0.47315E-06  2659   0.179E-03
 297 F= -.23338292E+04 E0= -.23338292E+04  d E =-.249656E-04  mag=     3.0000
       N       E                     dE             d eps       ncg     rms          rms(c)
DAV:   1    -0.231340287271E+04    0.73957E-05   -0.25439E-04  4888   0.140E-02    0.607E-03
RMM:   2    -0.231340287516E+04   -0.24515E-05   -0.26072E-05  2503   0.332E-03
 298 F= -.23338292E+04 E0= -.23338292E+04  d E =-.262235E-04  mag=     3.0000
       N       E                     dE             d eps       ncg     rms          rms(c)
DAV:   1    -0.231340285124E+04    0.21475E-04   -0.27440E-03  4376   0.466E-02    0.189E-02
RMM:   2    -0.231340287823E+04   -0.26993E-04   -0.29132E-04  4096   0.111E-02    0.126E-02
RMM:   3    -0.231340288147E+04   -0.32405E-05   -0.32662E-05  2762   0.559E-03
 299 F= -.23338292E+04 E0= -.23338292E+04  d E =-.267663E-04  mag=     3.0000
       N       E                     dE             d eps       ncg     rms          rms(c)
DAV:   1    -0.231340287005E+04    0.81819E-05   -0.35005E-04  4864   0.166E-02    0.100E-02
RMM:   2    -0.231340287404E+04   -0.39958E-05   -0.39827E-05  2746   0.417E-03
 300 F= -.23338292E+04 E0= -.23338292E+04  d E =-.265458E-04  mag=     3.0000
       N       E                     dE             d eps       ncg     rms          rms(c)
DAV:   1    -0.231340285223E+04    0.17813E-04   -0.23602E-03  4360   0.440E-02    0.197E-02
RMM:   2    -0.231340288049E+04   -0.28260E-04   -0.25316E-04  3876   0.106E-02    0.282E-02
RMM:   3    -0.231340287656E+04    0.39378E-05   -0.29293E-05  2762   0.557E-03
 301 F= -.23338292E+04 E0= -.23338292E+04  d E =-.228573E-04  mag=     3.0000
